<event>
 5    1  0.1430314E-002  0.1249967E+03  0.7818608E-02  0.1235074E+00
         -4   -1    0    0    0  501 -0.00000000000E+00  0.00000000000E+00  0.68198462196E+02  0.68210286218E+02  0.12700000000E+01 0. -1.
          4   -1    0    0  501    0  0.00000000000E+00 -0.00000000000E+00 -0.57250868699E+02  0.57264953216E+02  0.12700000000E+01 0. -1.
         25    2    1    2    0    0  0.00000000000E+00  0.00000000000E+00  0.10947593496E+02  0.12547523943E+03  0.12499674359E+03 0.  0.
    9000005    1    3    3    0    0  0.94197664064E+01 -0.36895080377E+02 -0.44264516673E+02  0.58397999892E+02  0.10000000000E+01 0.  0.
    9000005    1    3    3    0    0 -0.94197664064E+01  0.36895080377E+02  0.55212110169E+02  0.67077239541E+02  0.10000000000E+01 0.  0.
<mgrwt>
<rscale>  0 0.12499674E+03</rscale>
<asrwt>0</asrwt>
<pdfrwt beam="2">  1        4 0.14315956E-01 0.12499674E+03</pdfrwt>
<pdfrwt beam="1">  1       -4 0.17052854E-01 0.12499674E+03</pdfrwt>
<totfact> 0.19810813E+03</totfact>
</mgrwt>
</event>
<event>
 5    1  0.1430314E-002  0.1249981E+03  0.7818608E-02  0.1235072E+00
         -4   -1    0    0    0  501 -0.00000000000E+00  0.00000000000E+00  0.38231168176E+02  0.38252256405E+02  0.12700000000E+01 0.  1.
          4   -1    0    0  501    0  0.00000000000E+00 -0.00000000000E+00 -0.10211811003E+03  0.10212600695E+03  0.12700000000E+01 0.  1.
         25    2    1    2    0    0  0.00000000000E+00  0.00000000000E+00 -0.63886941853E+02  0.14037826336E+03  0.12499806192E+03 0.  0.
    9000005    1    3    3    0    0 -0.13143165354E+02 -0.17707563377E+02 -0.97608664602E+02  0.10007373283E+03  0.10000000000E+01 0.  0.
    9000005    1    3    3    0    0  0.13143165354E+02  0.17707563377E+02  0.33721722748E+02  0.40304530532E+02  0.10000000000E+01 0.  0.
<mgrwt>
<rscale>  0 0.12499806E+03</rscale>
<asrwt>0</asrwt>
<pdfrwt beam="2">  1        4 0.25533150E-01 0.12499806E+03</pdfrwt>
<pdfrwt beam="1">  1       -4 0.95614154E-02 0.12499806E+03</pdfrwt>
<totfact> 0.19021867E+03</totfact>
</mgrwt>
</event>
<event>
 5    1  0.1430314E-002  0.1250106E+03  0.7818608E-02  0.1235053E+00
         -4   -1    0    0    0  501 -0.00000000000E+00  0.00000000000E+00  0.77625322886E+03  0.77625426776E+03  0.12700000000E+01 0.  1.
          4   -1    0    0  501    0  0.00000000000E+00 -0.00000000000E+00 -0.49518628662E+01  0.51121273307E+01  0.12700000000E+01 0.  1.
         25    2    1    2    0    0  0.00000000000E+00  0.00000000000E+00  0.77130136599E+03  0.78136639509E+03  0.12501058432E+03 0.  0.
    9000005    1    3    3    0    0 -0.38169033144E+02  0.32546572367E+02  0.61866220268E+03  0.62069322172E+03  0.10000000000E+01 0.  0.
    9000005    1    3    3    0    0  0.38169033144E+02 -0.32546572367E+02  0.15263916331E+03  0.16067317337E+03  0.10000000000E+01 0.  0.
<mgrwt>
<rscale>  0 0.12501058E+03</rscale>
<asrwt>0</asrwt>
<pdfrwt beam="2">  1        4 0.12581290E-02 0.12501058E+03</pdfrwt>
<pdfrwt beam="1">  1       -4 0.19408341E+00 0.12501058E+03</pdfrwt>
<totfact> 0.54136370E+02</totfact>
</mgrwt>
</event>
<event>
 5    1  0.1430314E-002  0.1249941E+03  0.7818608E-02  0.1235078E+00
          4   -1    0    0  501    0  0.00000000000E+00  0.00000000000E+00  0.53312597966E+03  0.53312749234E+03  0.12700000000E+01 0. -1.
         -4   -1    0    0    0  501 -0.00000000000E+00 -0.00000000000E+00 -0.72698078578E+01  0.73799055746E+01  0.12700000000E+01 0. -1.
         25    2    1    2    0    0  0.00000000000E+00  0.00000000000E+00  0.52585617180E+03  0.54050739791E+03  0.12499413497E+03 0.  0.
    9000005    1    3    3    0    0  0.94461840472E+01 -0.61531011056E+02  0.23940643343E+03  0.24736963452E+03  0.10000000000E+01 0.  0.
    9000005    1    3    3    0    0 -0.94461840472E+01  0.61531011056E+02  0.28644973838E+03  0.29313776340E+03  0.10000000000E+01 0.  0.
<mgrwt>
<rscale>  0 0.12499413E+03</rscale>
<asrwt>0</asrwt>
<pdfrwt beam="1">  1        4 0.13329543E+00 0.12499413E+03</pdfrwt>
<pdfrwt beam="2">  1       -4 0.18314035E-02 0.12499413E+03</pdfrwt>
<totfact> 0.81515898E+02</totfact>
</mgrwt>
</event>
<event>
 5    1  0.1430314E-002  0.1249954E+03  0.7818608E-02  0.1235076E+00
          4   -1    0    0  501    0  0.00000000000E+00  0.00000000000E+00  0.29727018701E+02  0.29754134853E+02  0.12700000000E+01 0.  1.
         -4   -1    0    0    0  501 -0.00000000000E+00 -0.00000000000E+00 -0.13130436411E+03  0.13131050580E+03  0.12700000000E+01 0.  1.
         25    2    1    2    0    0  0.00000000000E+00  0.00000000000E+00 -0.10157734541E+03  0.16106464065E+03  0.12499544539E+03 0.  0.
    9000005    1    3    3    0    0 -0.38724075472E+02  0.39119627881E+02 -0.88906350389E+02  0.10457169046E+03  0.10000000000E+01 0.  0.
    9000005    1    3    3    0    0  0.38724075472E+02 -0.39119627881E+02 -0.12670995018E+02  0.56492950192E+02  0.10000000000E+01 0.  0.
<mgrwt>
<rscale>  0 0.12499545E+03</rscale>
<asrwt>0</asrwt>
<pdfrwt beam="1">  1        4 0.74359123E-02 0.12499545E+03</pdfrwt>
<pdfrwt beam="2">  1       -4 0.32830247E-01 0.12499545E+03</pdfrwt>
<totfact> 0.18009672E+03</totfact>
</mgrwt>
</event>
<event>
 5    1  0.1430314E-002  0.1249924E+03  0.7818608E-02  0.1235081E+00
          4   -1    0    0  501    0  0.00000000000E+00  0.00000000000E+00  0.28857092244E+02  0.28885025061E+02  0.12700000000E+01 0. -1.
         -4   -1    0    0    0  501 -0.00000000000E+00 -0.00000000000E+00 -0.13525252224E+03  0.13525848466E+03  0.12700000000E+01 0. -1.
         25    2    1    2    0    0  0.00000000000E+00  0.00000000000E+00 -0.10639543000E+03  0.16414350972E+03  0.12499241681E+03 0.  0.
    9000005    1    3    3    0    0 -0.45888264757E+02  0.18214978685E+02 -0.28947876395E+01  0.49466130699E+02  0.10000000000E+01 0.  0.
    9000005    1    3    3    0    0  0.45888264757E+02 -0.18214978685E+02 -0.10350064236E+03  0.11467737903E+03  0.10000000000E+01 0.  0.
<mgrwt>
<rscale>  0 0.12499242E+03</rscale>
<asrwt>0</asrwt>
<pdfrwt beam="1">  1        4 0.72185103E-02 0.12499242E+03</pdfrwt>
<pdfrwt beam="2">  1       -4 0.33817366E-01 0.12499242E+03</pdfrwt>
<totfact> 0.17867628E+03</totfact>
</mgrwt>
</event>
<event>
 5    1  0.1430314E-002  0.1249994E+03  0.7818608E-02  0.1235070E+00
         -4   -1    0    0    0  501 -0.00000000000E+00  0.00000000000E+00  0.59521651799E+02  0.59535199108E+02  0.12700000000E+01 0.  1.
          4   -1    0    0  501    0  0.00000000000E+00 -0.00000000000E+00 -0.65599542603E+02  0.65611834982E+02  0.12700000000E+01 0.  1.
         25    2    1    2    0    0  0.00000000000E+00  0.00000000000E+00 -0.60778908042E+01  0.12514703409E+03  0.12499935754E+03 0.  0.
    9000005    1    3    3    0    0 -0.50022058368E+02  0.36311904382E+02 -0.12239422584E+02  0.63020347416E+02  0.10000000000E+01 0.  0.
    9000005    1    3    3    0    0  0.50022058368E+02 -0.36311904382E+02  0.61615317801E+01  0.62126686674E+02  0.10000000000E+01 0.  0.
<mgrwt>
<rscale>  0 0.12499936E+03</rscale>
<asrwt>0</asrwt>
<pdfrwt beam="2">  1        4 0.16403116E-01 0.12499936E+03</pdfrwt>
<pdfrwt beam="1">  1       -4 0.14883643E-01 0.12499936E+03</pdfrwt>
<totfact> 0.19827381E+03</totfact>
</mgrwt>
</event>
<event>
 5    1  0.1430314E-002  0.1249990E+03  0.7818608E-02  0.1235071E+00
         -4   -1    0    0    0  501 -0.00000000000E+00  0.00000000000E+00  0.54746239372E+02  0.54760968083E+02  0.12700000000E+01 0.  1.
          4   -1    0    0  501    0  0.00000000000E+00 -0.00000000000E+00 -0.71320786058E+02  0.71332092525E+02  0.12700000000E+01 0.  1.
         25    2    1    2    0    0  0.00000000000E+00  0.00000000000E+00 -0.16574546686E+02  0.12609306061E+03  0.12499897734E+03 0.  0.
    9000005    1    3    3    0    0  0.55756564384E+02  0.27532759280E+02 -0.14533300413E+02  0.63867551435E+02  0.10000000000E+01 0.  0.
    9000005    1    3    3    0    0 -0.55756564384E+02 -0.27532759280E+02 -0.20412462737E+01  0.62225509173E+02  0.10000000000E+01 0.  0.
<mgrwt>
<rscale>  0 0.12499898E+03</rscale>
<asrwt>0</asrwt>
<pdfrwt beam="2">  1        4 0.17833451E-01 0.12499898E+03</pdfrwt>
<pdfrwt beam="1">  1       -4 0.13689814E-01 0.12499898E+03</pdfrwt>
<totfact> 0.19776365E+03</totfact>
</mgrwt>
</event>
<event>
 5    1  0.1430314E-002  0.1250005E+03  0.7818608E-02  0.1235068E+00
          4   -1    0    0  501    0  0.00000000000E+00  0.00000000000E+00  0.34579956742E+03  0.34580189955E+03  0.12700000000E+01 0. -1.
         -4   -1    0    0    0  501 -0.00000000000E+00 -0.00000000000E+00 -0.11258302624E+02  0.11329707762E+02  0.12700000000E+01 0. -1.
         25    2    1    2    0    0  0.00000000000E+00  0.00000000000E+00  0.33454126480E+03  0.35713160731E+03  0.12500050834E+03 0.  0.
    9000005    1    3    3    0    0  0.59577079328E+02  0.18610909809E+02  0.15847046942E+03  0.17032229455E+03  0.10000000000E+01 0.  0.
    9000005    1    3    3    0    0 -0.59577079328E+02 -0.18610909809E+02  0.17607079538E+03  0.18680931275E+03  0.10000000000E+01 0.  0.
<mgrwt>
<rscale>  0 0.12500051E+03</rscale>
<asrwt>0</asrwt>
<pdfrwt beam="1">  1        4 0.86459102E-01 0.12500051E+03</pdfrwt>
<pdfrwt beam="2">  1       -4 0.28237930E-02 0.12500051E+03</pdfrwt>
<totfact> 0.11508922E+03</totfact>
</mgrwt>
</event>
<event>
 5    1  0.1430314E-002  0.1249436E+03  0.7818608E-02  0.1235157E+00
          4   -1    0    0  501    0  0.00000000000E+00  0.00000000000E+00  0.52824065459E+03  0.52824218126E+03  0.12700000000E+01 0. -1.
         -4   -1    0    0    0  501 -0.00000000000E+00 -0.00000000000E+00 -0.73320332892E+01  0.74412103958E+01  0.12700000000E+01 0. -1.
         25    2    1    2    0    0  0.00000000000E+00  0.00000000000E+00  0.52090862130E+03  0.53568339165E+03  0.12494360468E+03 0.  0.
    9000005    1    3    3    0    0 -0.50498281502E+01 -0.27839591097E+02  0.21696376801E+02  0.35668983208E+02  0.10000000000E+01 0.  0.
    9000005    1    3    3    0    0  0.50498281502E+01  0.27839591097E+02  0.49921224450E+03  0.50001440844E+03  0.10000000000E+01 0.  0.
<mgrwt>
<rscale>  0 0.12494360E+03</rscale>
<asrwt>0</asrwt>
<pdfrwt beam="1">  1        4 0.13207397E+00 0.12494360E+03</pdfrwt>
<pdfrwt beam="2">  1       -4 0.18468468E-02 0.12494360E+03</pdfrwt>
<totfact> 0.82302803E+02</totfact>
</mgrwt>
</event>
<event>
 5    1  0.1430314E-002  0.1250025E+03  0.7818608E-02  0.1235065E+00
         -4   -1    0    0    0  501 -0.00000000000E+00  0.00000000000E+00  0.85746008044E+02  0.85755412631E+02  0.12700000000E+01 0. -1.
          4   -1    0    0  501    0  0.00000000000E+00 -0.00000000000E+00 -0.45537090740E+02  0.45554797037E+02  0.12700000000E+01 0. -1.
         25    2    1    2    0    0  0.00000000000E+00  0.00000000000E+00  0.40208917304E+02  0.13131020967E+03  0.12500245651E+03 0.  0.
    9000005    1    3    3    0    0  0.34086657319E+02 -0.52330512531E+02  0.22458237850E+02  0.66375863055E+02  0.10000000000E+01 0.  0.
    9000005    1    3    3    0    0 -0.34086657319E+02  0.52330512531E+02  0.17750679453E+02  0.64934346613E+02  0.10000000000E+01 0.  0.
<mgrwt>
<rscale>  0 0.12500246E+03</rscale>
<asrwt>0</asrwt>
<pdfrwt beam="2">  1        4 0.11387662E-01 0.12500246E+03</pdfrwt>
<pdfrwt beam="1">  1       -4 0.21439891E-01 0.12500246E+03</pdfrwt>
<totfact> 0.19493085E+03</totfact>
</mgrwt>
</event>
<event>
 5    1  0.1430314E-002  0.1250005E+03  0.7818608E-02  0.1235069E+00
          4   -1    0    0  501    0  0.00000000000E+00  0.00000000000E+00  0.26910258108E+01  0.29756545355E+01  0.12700000000E+01 0.  1.
         -4   -1    0    0    0  501 -0.00000000000E+00 -0.00000000000E+00 -0.13783983051E+04  0.13783988901E+04  0.12700000000E+01 0.  1.
         25    2    1    2    0    0  0.00000000000E+00  0.00000000000E+00 -0.13757072793E+04  0.13813745447E+04  0.12500045780E+03 0.  0.
    9000005    1    3    3    0    0 -0.10465563575E+02  0.59936997948E+02 -0.53028279205E+03  0.53376287927E+03  0.10000000000E+01 0.  0.
    9000005    1    3    3    0    0  0.10465563575E+02 -0.59936997948E+02 -0.84542448721E+03  0.84761166539E+03  0.10000000000E+01 0.  0.
<mgrwt>
<rscale>  0 0.12500046E+03</rscale>
<asrwt>0</asrwt>
<pdfrwt beam="1">  1        4 0.70841290E-03 0.12500046E+03</pdfrwt>
<pdfrwt beam="2">  1       -4 0.34463293E+00 0.12500046E+03</pdfrwt>
<totfact> 0.16827442E+02</totfact>
</mgrwt>
</event>
<event>
 5    1  0.1430314E-002  0.1250020E+03  0.7818608E-02  0.1235066E+00
         -4   -1    0    0    0  501 -0.00000000000E+00  0.00000000000E+00  0.51231623370E+02  0.51247362207E+02  0.12700000000E+01 0. -1.
          4   -1    0    0  501    0  0.00000000000E+00 -0.00000000000E+00 -0.76216512418E+02  0.76227092724E+02  0.12700000000E+01 0. -1.
         25    2    1    2    0    0  0.00000000000E+00  0.00000000000E+00 -0.24984889048E+02  0.12747445493E+03  0.12500196790E+03 0.  0.
    9000005    1    3    3    0    0  0.80087760979E+01  0.10621571858E+02  0.49776057761E+02  0.51532651877E+02  0.10000000000E+01 0.  0.
    9000005    1    3    3    0    0 -0.80087760979E+01 -0.10621571858E+02 -0.74760946809E+02  0.75941803054E+02  0.10000000000E+01 0.  0.
<mgrwt>
<rscale>  0 0.12500197E+03</rscale>
<asrwt>0</asrwt>
<pdfrwt beam="2">  1        4 0.19057418E-01 0.12500197E+03</pdfrwt>
<pdfrwt beam="1">  1       -4 0.12811196E-01 0.12500197E+03</pdfrwt>
<totfact> 0.19700274E+03</totfact>
</mgrwt>
</event>
<event>
 5    1  0.1430314E-002  0.1249984E+03  0.7818608E-02  0.1235072E+00
          4   -1    0    0  501    0  0.00000000000E+00  0.00000000000E+00  0.59898914194E+01  0.61230465632E+01  0.12700000000E+01 0.  1.
         -4   -1    0    0    0  501 -0.00000000000E+00 -0.00000000000E+00 -0.64482106880E+03  0.64482231946E+03  0.12700000000E+01 0.  1.
         25    2    1    2    0    0  0.00000000000E+00  0.00000000000E+00 -0.63883117739E+03  0.65094536602E+03  0.12499838538E+03 0.  0.
    9000005    1    3    3    0    0  0.59727601850E+02  0.10322193376E+02 -0.39860153810E+03  0.40318497030E+03  0.10000000000E+01 0.  0.
    9000005    1    3    3    0    0 -0.59727601850E+02 -0.10322193376E+02 -0.24022963929E+03  0.24776039573E+03  0.10000000000E+01 0.  0.
<mgrwt>
<rscale>  0 0.12499839E+03</rscale>
<asrwt>0</asrwt>
<pdfrwt beam="1">  1        4 0.15142758E-02 0.12499839E+03</pdfrwt>
<pdfrwt beam="2">  1       -4 0.16122183E+00 0.12499839E+03</pdfrwt>
<totfact> 0.67405406E+02</totfact>
</mgrwt>
</event>
<event>
 5    1  0.1430314E-002  0.1250113E+03  0.7818608E-02  0.1235052E+00
         -4   -1    0    0    0  501 -0.00000000000E+00  0.00000000000E+00  0.52736491851E+02  0.52751781702E+02  0.12700000000E+01 0. -1.
          4   -1    0    0  501    0  0.00000000000E+00 -0.00000000000E+00 -0.74053010218E+02  0.74063899589E+02  0.12700000000E+01 0. -1.
         25    2    1    2    0    0  0.00000000000E+00  0.00000000000E+00 -0.21316518367E+02  0.12681568129E+03  0.12501129175E+03 0.  0.
    9000005    1    3    3    0    0 -0.36086924785E+02 -0.18216351300E+02  0.37693685059E+02  0.55280335459E+02  0.10000000000E+01 0.  0.
    9000005    1    3    3    0    0  0.36086924785E+02  0.18216351300E+02 -0.59010203425E+02  0.71535345833E+02  0.10000000000E+01 0.  0.
<mgrwt>
<rscale>  0 0.12501129E+03</rscale>
<asrwt>0</asrwt>
<pdfrwt beam="2">  1        4 0.18516525E-01 0.12501129E+03</pdfrwt>
<pdfrwt beam="1">  1       -4 0.13187395E-01 0.12501129E+03</pdfrwt>
<totfact> 0.19731695E+03</totfact>
</mgrwt>
</event>
<event>
 5    1  0.1430314E-002  0.1250092E+03  0.7818608E-02  0.1235055E+00
         -4   -1    0    0    0  501 -0.00000000000E+00  0.00000000000E+00  0.40689143749E+02  0.40708958707E+02  0.12700000000E+01 0.  1.
          4   -1    0    0  501    0  0.00000000000E+00 -0.00000000000E+00 -0.95969040810E+02  0.95977443672E+02  0.12700000000E+01 0.  1.
         25    2    1    2    0    0  0.00000000000E+00  0.00000000000E+00 -0.55279897061E+02  0.13668640238E+03  0.12500922197E+03 0.  0.
    9000005    1    3    3    0    0  0.25051373384E+02 -0.56921313600E+02 -0.20880305890E+02  0.65609408048E+02  0.10000000000E+01 0.  0.
    9000005    1    3    3    0    0 -0.25051373384E+02  0.56921313600E+02 -0.34399591171E+02  0.71076994331E+02  0.10000000000E+01 0.  0.
<mgrwt>
<rscale>  0 0.12500922E+03</rscale>
<asrwt>0</asrwt>
<pdfrwt beam="2">  1        4 0.23995787E-01 0.12500922E+03</pdfrwt>
<pdfrwt beam="1">  1       -4 0.10175813E-01 0.12500922E+03</pdfrwt>
<totfact> 0.19207034E+03</totfact>
</mgrwt>
</event>
<event>
 5    1  0.1430314E-002  0.1249990E+03  0.7818608E-02  0.1235071E+00
          4   -1    0    0  501    0  0.00000000000E+00  0.00000000000E+00  0.57643995486E+02  0.57657983970E+02  0.12700000000E+01 0. -1.
         -4   -1    0    0    0  501 -0.00000000000E+00 -0.00000000000E+00 -0.67735831773E+02  0.67747736538E+02  0.12700000000E+01 0. -1.
         25    2    1    2    0    0  0.00000000000E+00  0.00000000000E+00 -0.10091836288E+02  0.12540572051E+03  0.12499899830E+03 0.  0.
    9000005    1    3    3    0    0  0.46411764125E+02  0.41376278471E+02  0.12305650488E+01  0.62197769732E+02  0.10000000000E+01 0.  0.
    9000005    1    3    3    0    0 -0.46411764125E+02 -0.41376278471E+02 -0.11322401337E+02  0.63207950776E+02  0.10000000000E+01 0.  0.
<mgrwt>
<rscale>  0 0.12499900E+03</rscale>
<asrwt>0</asrwt>
<pdfrwt beam="1">  1        4 0.14414236E-01 0.12499900E+03</pdfrwt>
<pdfrwt beam="2">  1       -4 0.16937195E-01 0.12499900E+03</pdfrwt>
<totfact> 0.19813533E+03</totfact>
</mgrwt>
</event>
<event>
 5    1  0.1430314E-002  0.1249986E+03  0.7818608E-02  0.1235071E+00
         -4   -1    0    0    0  501 -0.00000000000E+00  0.00000000000E+00  0.14626880525E+03  0.14627431862E+03  0.12700000000E+01 0. -1.
          4   -1    0    0  501    0  0.00000000000E+00 -0.00000000000E+00 -0.26684261490E+02  0.26714466329E+02  0.12700000000E+01 0. -1.
         25    2    1    2    0    0  0.00000000000E+00  0.00000000000E+00  0.11958454376E+03  0.17298878495E+03  0.12499862645E+03 0.  0.
    9000005    1    3    3    0    0 -0.41770602421E+02  0.21074185656E+02  0.11712521027E+03  0.12612778999E+03  0.10000000000E+01 0.  0.
    9000005    1    3    3    0    0  0.41770602421E+02 -0.21074185656E+02  0.24593334915E+01  0.46860994962E+02  0.10000000000E+01 0.  0.
<mgrwt>
<rscale>  0 0.12499863E+03</rscale>
<asrwt>0</asrwt>
<pdfrwt beam="2">  1        4 0.66755303E-02 0.12499863E+03</pdfrwt>
<pdfrwt beam="1">  1       -4 0.36571665E-01 0.12499863E+03</pdfrwt>
<totfact> 0.17463633E+03</totfact>
</mgrwt>
</event>
<event>
 5    1  0.1430314E-002  0.1250029E+03  0.7818608E-02  0.1235065E+00
         -4   -1    0    0    0  501 -0.00000000000E+00  0.00000000000E+00  0.45036234524E+02  0.45054137658E+02  0.12700000000E+01 0. -1.
          4   -1    0    0  501    0  0.00000000000E+00 -0.00000000000E+00 -0.86699987867E+02  0.86709288984E+02  0.12700000000E+01 0. -1.
         25    2    1    2    0    0  0.00000000000E+00  0.00000000000E+00 -0.41663753343E+02  0.13176342664E+03  0.12500292900E+03 0.  0.
    9000005    1    3    3    0    0  0.32085386045E+02 -0.52039466865E+02 -0.34488451057E+02  0.70199938501E+02  0.10000000000E+01 0.  0.
    9000005    1    3    3    0    0 -0.32085386045E+02  0.52039466865E+02 -0.71753022858E+01  0.61563488141E+02  0.10000000000E+01 0.  0.
<mgrwt>
<rscale>  0 0.12500293E+03</rscale>
<asrwt>0</asrwt>
<pdfrwt beam="2">  1        4 0.21678397E-01 0.12500293E+03</pdfrwt>
<pdfrwt beam="1">  1       -4 0.11262459E-01 0.12500293E+03</pdfrwt>
<totfact> 0.19468712E+03</totfact>
</mgrwt>
</event>
<event>
 5    1  0.1430314E-002  0.1249987E+03  0.7818608E-02  0.1235071E+00
         -4   -1    0    0    0  501 -0.00000000000E+00  0.00000000000E+00  0.16027155708E+03  0.16027658877E+03  0.12700000000E+01 0.  1.
          4   -1    0    0  501    0  0.00000000000E+00 -0.00000000000E+00 -0.24350215264E+02  0.24383311576E+02  0.12700000000E+01 0.  1.
         25    2    1    2    0    0  0.00000000000E+00  0.00000000000E+00  0.13592134181E+03  0.18465990035E+03  0.12499867054E+03 0.  0.
    9000005    1    3    3    0    0  0.40564038148E+02 -0.35399635290E+02  0.11483055082E+03  0.12682914007E+03  0.10000000000E+01 0.  0.
    9000005    1    3    3    0    0 -0.40564038148E+02  0.35399635290E+02  0.21090790996E+02  0.57830760278E+02  0.10000000000E+01 0.  0.
<mgrwt>
<rscale>  0 0.12499867E+03</rscale>
<asrwt>0</asrwt>
<pdfrwt beam="2">  1        4 0.60923199E-02 0.12499867E+03</pdfrwt>
<pdfrwt beam="1">  1       -4 0.40072655E-01 0.12499867E+03</pdfrwt>
<totfact> 0.16955810E+03</totfact>
</mgrwt>
</event>
<event>
 5    1  0.1430314E-002  0.1249962E+03  0.7818608E-02  0.1235075E+00
         -4   -1    0    0    0  501 -0.00000000000E+00  0.00000000000E+00  0.16885793920E+03  0.16886271504E+03  0.12700000000E+01 0.  1.
          4   -1    0    0  501    0  0.00000000000E+00 -0.00000000000E+00 -0.23109402684E+02  0.23144273426E+02  0.12700000000E+01 0.  1.
         25    2    1    2    0    0  0.00000000000E+00  0.00000000000E+00  0.14574853651E+03  0.19200698846E+03  0.12499619083E+03 0.  0.
    9000005    1    3    3    0    0  0.18123716799E+02 -0.15446352928E+02  0.16162263437E+03  0.16337054469E+03  0.10000000000E+01 0.  0.
    9000005    1    3    3    0    0 -0.18123716799E+02  0.15446352928E+02 -0.15874097860E+02  0.28636443777E+02  0.10000000000E+01 0.  0.
<mgrwt>
<rscale>  0 0.12499619E+03</rscale>
<asrwt>0</asrwt>
<pdfrwt beam="2">  1        4 0.57823065E-02 0.12499619E+03</pdfrwt>
<pdfrwt beam="1">  1       -4 0.42219440E-01 0.12499619E+03</pdfrwt>
<totfact> 0.16648645E+03</totfact>
</mgrwt>
</event>
<event>
 5    1  0.1430314E-002  0.1250025E+03  0.7818608E-02  0.1235065E+00
          4   -1    0    0  501    0  0.00000000000E+00  0.00000000000E+00  0.32395778579E+03  0.32396027515E+03  0.12700000000E+01 0.  1.
         -4   -1    0    0    0  501 -0.00000000000E+00 -0.00000000000E+00 -0.12022398420E+02  0.12089291285E+02  0.12700000000E+01 0.  1.
         25    2    1    2    0    0  0.00000000000E+00  0.00000000000E+00  0.31193538737E+03  0.33604956644E+03  0.12500250080E+03 0.  0.
    9000005    1    3    3    0    0 -0.45133025711E+02  0.69090555849E+01  0.41257609944E+02  0.61546043229E+02  0.10000000000E+01 0.  0.
    9000005    1    3    3    0    0  0.45133025711E+02 -0.69090555849E+01  0.27067777743E+03  0.27450352321E+03  0.10000000000E+01 0.  0.
<mgrwt>
<rscale>  0 0.12500250E+03</rscale>
<asrwt>0</asrwt>
<pdfrwt beam="1">  1        4 0.80998120E-01 0.12500250E+03</pdfrwt>
<pdfrwt beam="2">  1       -4 0.30142723E-02 0.12500250E+03</pdfrwt>
<totfact> 0.12016951E+03</totfact>
</mgrwt>
</event>
<event>
 5    1  0.1430314E-002  0.1250081E+03  0.7818608E-02  0.1235057E+00
          4   -1    0    0  501    0  0.00000000000E+00  0.00000000000E+00  0.22529042320E+03  0.22529400278E+03  0.12700000000E+01 0.  1.
         -4   -1    0    0    0  501 -0.00000000000E+00 -0.00000000000E+00 -0.17314007927E+02  0.17360523335E+02  0.12700000000E+01 0.  1.
         25    2    1    2    0    0  0.00000000000E+00  0.00000000000E+00  0.20797641528E+03  0.24265452611E+03  0.12500811866E+03 0.  0.
    9000005    1    3    3    0    0  0.56781204792E+02  0.16515951016E+01  0.53410295067E+02  0.77977513445E+02  0.10000000000E+01 0.  0.
    9000005    1    3    3    0    0 -0.56781204792E+02 -0.16515951016E+01  0.15456612021E+03  0.16467701267E+03  0.10000000000E+01 0.  0.
<mgrwt>
<rscale>  0 0.12500812E+03</rscale>
<asrwt>0</asrwt>
<pdfrwt beam="1">  1        4 0.56328867E-01 0.12500812E+03</pdfrwt>
<pdfrwt beam="2">  1       -4 0.43347639E-02 0.12500812E+03</pdfrwt>
<totfact> 0.14742680E+03</totfact>
</mgrwt>
</event>
<event>
 5    1  0.1430314E-002  0.1250075E+03  0.7818608E-02  0.1235058E+00
          4   -1    0    0  501    0  0.00000000000E+00  0.00000000000E+00  0.54992223882E+02  0.55006886728E+02  0.12700000000E+01 0. -1.
         -4   -1    0    0    0  501 -0.00000000000E+00 -0.00000000000E+00 -0.71011432053E+02  0.71022787767E+02  0.12700000000E+01 0. -1.
         25    2    1    2    0    0  0.00000000000E+00  0.00000000000E+00 -0.16019208171E+02  0.12602967450E+03  0.12500745507E+03 0.  0.
    9000005    1    3    3    0    0  0.20047440907E+02  0.91131479788E+01  0.50955982405E+02  0.55519919811E+02  0.10000000000E+01 0.  0.
    9000005    1    3    3    0    0 -0.20047440907E+02 -0.91131479788E+01 -0.66975190575E+02  0.70509754684E+02  0.10000000000E+01 0.  0.
<mgrwt>
<rscale>  0 0.12500746E+03</rscale>
<asrwt>0</asrwt>
<pdfrwt beam="1">  1        4 0.13751308E-01 0.12500746E+03</pdfrwt>
<pdfrwt beam="2">  1       -4 0.17756110E-01 0.12500746E+03</pdfrwt>
<totfact> 0.19775868E+03</totfact>
</mgrwt>
</event>
<event>
 5    1  0.1430314E-002  0.1249861E+03  0.7818608E-02  0.1235091E+00
         -4   -1    0    0    0  501 -0.00000000000E+00  0.00000000000E+00  0.11964179176E+03  0.11964853210E+03  0.12700000000E+01 0. -1.
          4   -1    0    0  501    0  0.00000000000E+00 -0.00000000000E+00 -0.32622248465E+02  0.32646959965E+02  0.12700000000E+01 0. -1.
         25    2    1    2    0    0  0.00000000000E+00  0.00000000000E+00  0.87019543291E+02  0.15229549207E+03  0.12498606318E+03 0.  0.
    9000005    1    3    3    0    0  0.41753791153E+02 -0.38608965390E+02  0.11961503335E+02  0.58121500722E+02  0.10000000000E+01 0.  0.
    9000005    1    3    3    0    0 -0.41753791153E+02  0.38608965390E+02  0.75058039956E+02  0.94173991347E+02  0.10000000000E+01 0.  0.
<mgrwt>
<rscale>  0 0.12498606E+03</rscale>
<asrwt>0</asrwt>
<pdfrwt beam="2">  1        4 0.81594936E-02 0.12498606E+03</pdfrwt>
<pdfrwt beam="1">  1       -4 0.29914379E-01 0.12498606E+03</pdfrwt>
<totfact> 0.18432460E+03</totfact>
</mgrwt>
</event>
<event>
 5    1  0.1430314E-002  0.1250000E+03  0.7818608E-02  0.1235069E+00
         -4   -1    0    0    0  501 -0.00000000000E+00  0.00000000000E+00  0.13336825290E+02  0.13397156744E+02  0.12700000000E+01 0.  1.
          4   -1    0    0  501    0  0.00000000000E+00 -0.00000000000E+00 -0.29216955228E+03  0.29217231248E+03  0.12700000000E+01 0.  1.
         25    2    1    2    0    0  0.00000000000E+00  0.00000000000E+00 -0.27883272699E+03  0.30556946922E+03  0.12500004352E+03 0.  0.
    9000005    1    3    3    0    0 -0.21187710430E+02  0.55074112534E+02 -0.18970388079E+03  0.19867219063E+03  0.10000000000E+01 0.  0.
    9000005    1    3    3    0    0  0.21187710430E+02 -0.55074112534E+02 -0.89128846201E+02  0.10689727859E+03  0.10000000000E+01 0.  0.
<mgrwt>
<rscale>  0 0.12500004E+03</rscale>
<asrwt>0</asrwt>
<pdfrwt beam="2">  1        4 0.73050254E-01 0.12500004E+03</pdfrwt>
<pdfrwt beam="1">  1       -4 0.33420937E-02 0.12500004E+03</pdfrwt>
<totfact> 0.12816374E+03</totfact>
</mgrwt>
</event>
<event>
 5    1  0.1430314E-002  0.1249953E+03  0.7818608E-02  0.1235077E+00
          4   -1    0    0  501    0  0.00000000000E+00  0.00000000000E+00  0.81127797952E+02  0.81137737833E+02  0.12700000000E+01 0. -1.
         -4   -1    0    0    0  501 -0.00000000000E+00 -0.00000000000E+00 -0.48124485187E+02  0.48141239853E+02  0.12700000000E+01 0. -1.
         25    2    1    2    0    0  0.00000000000E+00  0.00000000000E+00  0.33003312765E+02  0.12927897769E+03  0.12499534158E+03 0.  0.
    9000005    1    3    3    0    0 -0.27666935083E+02 -0.10591352608E+02 -0.40405049655E+02  0.50111915594E+02  0.10000000000E+01 0.  0.
    9000005    1    3    3    0    0  0.27666935083E+02  0.10591352608E+02  0.73408362420E+02  0.79167062091E+02  0.10000000000E+01 0.  0.
<mgrwt>
<rscale>  0 0.12499534E+03</rscale>
<asrwt>0</asrwt>
<pdfrwt beam="1">  1        4 0.20285286E-01 0.12499534E+03</pdfrwt>
<pdfrwt beam="2">  1       -4 0.12034458E-01 0.12499534E+03</pdfrwt>
<totfact> 0.19605355E+03</totfact>
</mgrwt>
</event>
<event>
 5    1  0.1430314E-002  0.1250023E+03  0.7818608E-02  0.1235066E+00
          4   -1    0    0  501    0  0.00000000000E+00  0.00000000000E+00  0.25408877588E+02  0.25440596697E+02  0.12700000000E+01 0.  1.
         -4   -1    0    0    0  501 -0.00000000000E+00 -0.00000000000E+00 -0.15361110281E+03  0.15361635267E+03  0.12700000000E+01 0.  1.
         25    2    1    2    0    0  0.00000000000E+00  0.00000000000E+00 -0.12820222522E+03  0.17905694936E+03  0.12500232223E+03 0.  0.
    9000005    1    3    3    0    0  0.28790569681E+02 -0.27254150008E+02  0.50973588199E+01  0.39983354813E+02  0.10000000000E+01 0.  0.
    9000005    1    3    3    0    0 -0.28790569681E+02  0.27254150008E+02 -0.13329958404E+03  0.13907359455E+03  0.10000000000E+01 0.  0.
<mgrwt>
<rscale>  0 0.12500232E+03</rscale>
<asrwt>0</asrwt>
<pdfrwt beam="1">  1        4 0.63568409E-02 0.12500232E+03</pdfrwt>
<pdfrwt beam="2">  1       -4 0.38407394E-01 0.12500232E+03</pdfrwt>
<totfact> 0.17195185E+03</totfact>
</mgrwt>
</event>
<event>
 5    1  0.1430314E-002  0.1249989E+03  0.7818608E-02  0.1235071E+00
          4   -1    0    0  501    0  0.00000000000E+00  0.00000000000E+00  0.17345534424E+03  0.17345999351E+03  0.12700000000E+01 0.  1.
         -4   -1    0    0    0  501 -0.00000000000E+00 -0.00000000000E+00 -0.22496966230E+02  0.22532784771E+02  0.12700000000E+01 0.  1.
         25    2    1    2    0    0  0.00000000000E+00  0.00000000000E+00  0.15095837801E+03  0.19599277828E+03  0.12499894897E+03 0.  0.
    9000005    1    3    3    0    0 -0.61957911530E+02  0.77379666209E+01  0.79484504141E+02  0.10108137972E+03  0.10000000000E+01 0.  0.
    9000005    1    3    3    0    0  0.61957911530E+02 -0.77379666209E+01  0.71473873873E+02  0.94911398551E+02  0.10000000000E+01 0.  0.
<mgrwt>
<rscale>  0 0.12499895E+03</rscale>
<asrwt>0</asrwt>
<pdfrwt beam="1">  1        4 0.43368894E-01 0.12499895E+03</pdfrwt>
<pdfrwt beam="2">  1       -4 0.56293001E-02 0.12499895E+03</pdfrwt>
<totfact> 0.16484165E+03</totfact>
</mgrwt>
</event>
<event>
 5    1  0.1430314E-002  0.1250016E+03  0.7818608E-02  0.1235067E+00
          4   -1    0    0  501    0  0.00000000000E+00  0.00000000000E+00  0.11533420840E+02  0.11603133037E+02  0.12700000000E+01 0. -1.
         -4   -1    0    0    0  501 -0.00000000000E+00 -0.00000000000E+00 -0.33760700929E+03  0.33760939800E+03  0.12700000000E+01 0. -1.
         25    2    1    2    0    0  0.00000000000E+00  0.00000000000E+00 -0.32607358845E+03  0.34921253104E+03  0.12500162700E+03 0.  0.
    9000005    1    3    3    0    0 -0.75795525680E+01 -0.58779681910E+02 -0.21840852790E+03  0.22630904905E+03  0.10000000000E+01 0.  0.
    9000005    1    3    3    0    0  0.75795525680E+01  0.58779681910E+02 -0.10766506055E+03  0.12290348199E+03  0.10000000000E+01 0.  0.
<mgrwt>
<rscale>  0 0.12500163E+03</rscale>
<asrwt>0</asrwt>
<pdfrwt beam="1">  1        4 0.28923689E-02 0.12500163E+03</pdfrwt>
<pdfrwt beam="2">  1       -4 0.84410732E-01 0.12500163E+03</pdfrwt>
<totfact> 0.11695693E+03</totfact>
</mgrwt>
</event>
<event>
 5    1  0.1430314E-002  0.1249801E+03  0.7818608E-02  0.1235100E+00
         -4   -1    0    0    0  501 -0.00000000000E+00  0.00000000000E+00  0.18527207157E+03  0.18527642431E+03  0.12700000000E+01 0. -1.
          4   -1    0    0  501    0  0.00000000000E+00 -0.00000000000E+00 -0.21053423250E+02  0.21091693402E+02  0.12700000000E+01 0. -1.
         25    2    1    2    0    0  0.00000000000E+00  0.00000000000E+00  0.16421864832E+03  0.20636811771E+03  0.12498014063E+03 0.  0.
    9000005    1    3    3    0    0  0.34159511028E+02  0.44265898841E+02  0.36062636026E+02  0.66542134855E+02  0.10000000000E+01 0.  0.
    9000005    1    3    3    0    0 -0.34159511028E+02 -0.44265898841E+02  0.12815601230E+03  0.13982598285E+03  0.10000000000E+01 0.  0.
<mgrwt>
<rscale>  0 0.12498014E+03</rscale>
<asrwt>0</asrwt>
<pdfrwt beam="2">  1        4 0.52686838E-02 0.12498014E+03</pdfrwt>
<pdfrwt beam="1">  1       -4 0.46323345E-01 0.12498014E+03</pdfrwt>
<totfact> 0.16077565E+03</totfact>
</mgrwt>
</event>
<event>
 5    1  0.1430314E-002  0.1249993E+03  0.7818608E-02  0.1235070E+00
         -4   -1    0    0    0  501 -0.00000000000E+00  0.00000000000E+00  0.72186134156E+02  0.72197305105E+02  0.12700000000E+01 0.  1.
          4   -1    0    0  501    0  0.00000000000E+00 -0.00000000000E+00 -0.54090119935E+02  0.54105027258E+02  0.12700000000E+01 0.  1.
         25    2    1    2    0    0  0.00000000000E+00  0.00000000000E+00  0.18096014221E+02  0.12630233236E+03  0.12499925372E+03 0.  0.
    9000005    1    3    3    0    0 -0.47894640739E+02  0.39742165953E+02  0.33440732519E+01  0.62333932911E+02  0.10000000000E+01 0.  0.
    9000005    1    3    3    0    0  0.47894640739E+02 -0.39742165953E+02  0.14751940969E+02  0.63968399453E+02  0.10000000000E+01 0.  0.
<mgrwt>
<rscale>  0 0.12499925E+03</rscale>
<asrwt>0</asrwt>
<pdfrwt beam="2">  1        4 0.13525790E-01 0.12499925E+03</pdfrwt>
<pdfrwt beam="1">  1       -4 0.18049793E-01 0.12499925E+03</pdfrwt>
<totfact> 0.19764936E+03</totfact>
</mgrwt>
</event>
<event>
 4    1  0.1430314E-002  0.1247776E+03  0.7818608E-02  0.1235417E+00
         -4   -1    0    0    0  501 -0.00000000000E+00  0.00000000000E+00  0.39275309506E+01  0.41277596064E+01  0.12700000000E+01 0. -1.
          4   -1    0    0  501    0  0.00000000000E+00 -0.00000000000E+00 -0.96621059017E+03  0.96621142482E+03  0.12700000000E+01 0. -1.
    9000005    1    1    2    0    0 -0.22691484569E+02  0.17627582639E+02 -0.91172136418E+03  0.91217458912E+03  0.10000000000E+01 0.  0.
    9000005    1    1    2    0    0  0.22691484569E+02 -0.17627582639E+02 -0.50561695040E+02  0.58164595305E+02  0.10000000000E+01 0.  0.
<mgrwt>
<rscale>  0 0.12477759E+03</rscale>
<asrwt>0</asrwt>
<pdfrwt beam="2">  1        4 0.24157699E+00 0.12477759E+03</pdfrwt>
<pdfrwt beam="1">  1       -4 0.10070190E-02 0.12477759E+03</pdfrwt>
<totfact> 0.39337721E+02</totfact>
</mgrwt>
</event>
<event>
 5    1  0.1430314E-002  0.1250028E+03  0.7818608E-02  0.1235065E+00
          4   -1    0    0  501    0  0.00000000000E+00  0.00000000000E+00  0.18257594688E+03  0.18258036389E+03  0.12700000000E+01 0. -1.
         -4   -1    0    0    0  501 -0.00000000000E+00 -0.00000000000E+00 -0.21372623898E+02  0.21410323498E+02  0.12700000000E+01 0. -1.
         25    2    1    2    0    0  0.00000000000E+00  0.00000000000E+00  0.16120332298E+03  0.20399068739E+03  0.12500275678E+03 0.  0.
    9000005    1    3    3    0    0  0.62628678564E+01  0.57460162769E+02  0.11937504307E+03  0.13263594810E+03  0.10000000000E+01 0.  0.
    9000005    1    3    3    0    0 -0.62628678564E+01 -0.57460162769E+02  0.41828279907E+02  0.71354739290E+02  0.10000000000E+01 0.  0.
<mgrwt>
<rscale>  0 0.12500276E+03</rscale>
<asrwt>0</asrwt>
<pdfrwt beam="1">  1        4 0.45649251E-01 0.12500276E+03</pdfrwt>
<pdfrwt beam="2">  1       -4 0.53484205E-02 0.12500276E+03</pdfrwt>
<totfact> 0.16162456E+03</totfact>
</mgrwt>
</event>
<event>
 5    1  0.1430314E-002  0.1249922E+03  0.7818608E-02  0.1235081E+00
          4   -1    0    0  501    0  0.00000000000E+00  0.00000000000E+00  0.19704878620E+03  0.19705287880E+03  0.12700000000E+01 0.  1.
         -4   -1    0    0    0  501 -0.00000000000E+00 -0.00000000000E+00 -0.19796663249E+02  0.19837358085E+02  0.12700000000E+01 0.  1.
         25    2    1    2    0    0  0.00000000000E+00  0.00000000000E+00  0.17725212295E+03  0.21689023688E+03  0.12499223882E+03 0.  0.
    9000005    1    3    3    0    0 -0.47747487755E+02  0.22335756566E+02  0.30397372140E+02  0.60858104155E+02  0.10000000000E+01 0.  0.
    9000005    1    3    3    0    0  0.47747487755E+02 -0.22335756566E+02  0.14685475081E+03  0.15603213273E+03  0.10000000000E+01 0.  0.
<mgrwt>
<rscale>  0 0.12499224E+03</rscale>
<asrwt>0</asrwt>
<pdfrwt beam="1">  1        4 0.49267795E-01 0.12499224E+03</pdfrwt>
<pdfrwt beam="2">  1       -4 0.49547642E-02 0.12499224E+03</pdfrwt>
<totfact> 0.15670155E+03</totfact>
</mgrwt>
</event>
<event>
 5    1  0.1430314E-002  0.1249940E+03  0.7818608E-02  0.1235079E+00
         -4   -1    0    0    0  501 -0.00000000000E+00  0.00000000000E+00  0.75300513609E+02  0.75311222602E+02  0.12700000000E+01 0.  1.
          4   -1    0    0  501    0  0.00000000000E+00 -0.00000000000E+00 -0.51848356443E+02  0.51863908124E+02  0.12700000000E+01 0.  1.
         25    2    1    2    0    0  0.00000000000E+00  0.00000000000E+00  0.23452157166E+02  0.12717513073E+03  0.12499404066E+03 0.  0.
    9000005    1    3    3    0    0  0.28424649142E+01 -0.11192721994E+02 -0.50758255456E+02  0.52064931858E+02  0.10000000000E+01 0.  0.
    9000005    1    3    3    0    0 -0.28424649142E+01  0.11192721994E+02  0.74210412622E+02  0.75110198868E+02  0.10000000000E+01 0.  0.
<mgrwt>
<rscale>  0 0.12499404E+03</rscale>
<asrwt>0</asrwt>
<pdfrwt beam="2">  1        4 0.12965372E-01 0.12499404E+03</pdfrwt>
<pdfrwt beam="1">  1       -4 0.18828411E-01 0.12499404E+03</pdfrwt>
<totfact> 0.19720245E+03</totfact>
</mgrwt>
</event>
<event>
 5    1  0.1430314E-002  0.1250009E+03  0.7818608E-02  0.1235068E+00
         -4   -1    0    0    0  501 -0.00000000000E+00  0.00000000000E+00  0.17976979602E+03  0.17977428197E+03  0.12700000000E+01 0.  1.
          4   -1    0    0  501    0  0.00000000000E+00 -0.00000000000E+00 -0.21706176133E+02  0.21743297411E+02  0.12700000000E+01 0.  1.
         25    2    1    2    0    0  0.00000000000E+00  0.00000000000E+00  0.15806361988E+03  0.20151757939E+03  0.12500090748E+03 0.  0.
    9000005    1    3    3    0    0 -0.55150161759E+02 -0.25817017637E+02  0.56390265407E+02  0.82999522736E+02  0.10000000000E+01 0.  0.
    9000005    1    3    3    0    0  0.55150161759E+02  0.25817017637E+02  0.10167335448E+03  0.11851805665E+03  0.10000000000E+01 0.  0.
<mgrwt>
<rscale>  0 0.12500091E+03</rscale>
<asrwt>0</asrwt>
<pdfrwt beam="2">  1        4 0.54317450E-02 0.12500091E+03</pdfrwt>
<pdfrwt beam="1">  1       -4 0.44947649E-01 0.12500091E+03</pdfrwt>
<totfact> 0.16261114E+03</totfact>
</mgrwt>
</event>
<event>
 5    1  0.1430314E-002  0.1250087E+03  0.7818608E-02  0.1235056E+00
         -4   -1    0    0    0  501 -0.00000000000E+00  0.00000000000E+00  0.95887301181E+02  0.95895711206E+02  0.12700000000E+01 0.  1.
          4   -1    0    0  501    0  0.00000000000E+00 -0.00000000000E+00 -0.40723489720E+02  0.40743287974E+02  0.12700000000E+01 0.  1.
         25    2    1    2    0    0  0.00000000000E+00  0.00000000000E+00  0.55163811461E+02  0.13663899918E+03  0.12500867971E+03 0.  0.
    9000005    1    3    3    0    0  0.26105662918E+02  0.38935296840E+02  0.72759211489E+02  0.86558453272E+02  0.10000000000E+01 0.  0.
    9000005    1    3    3    0    0 -0.26105662918E+02 -0.38935296840E+02 -0.17595400028E+02  0.50080545909E+02  0.10000000000E+01 0.  0.
<mgrwt>
<rscale>  0 0.12500868E+03</rscale>
<asrwt>0</asrwt>
<pdfrwt beam="2">  1        4 0.10184399E-01 0.12500868E+03</pdfrwt>
<pdfrwt beam="1">  1       -4 0.23975351E-01 0.12500868E+03</pdfrwt>
<totfact> 0.19209739E+03</totfact>
</mgrwt>
</event>
<event>
 5    1  0.1430314E-002  0.1250017E+03  0.7818608E-02  0.1235067E+00
          4   -1    0    0  501    0  0.00000000000E+00  0.00000000000E+00  0.18823329552E+02  0.18866124017E+02  0.12700000000E+01 0.  1.
         -4   -1    0    0    0  501 -0.00000000000E+00 -0.00000000000E+00 -0.20724709514E+03  0.20725098635E+03  0.12700000000E+01 0.  1.
         25    2    1    2    0    0  0.00000000000E+00  0.00000000000E+00 -0.18842376558E+03  0.22611711037E+03  0.12500172864E+03 0.  0.
    9000005    1    3    3    0    0  0.46074168689E+02  0.55906806708E+01 -0.16991162010E+03  0.17613927266E+03  0.10000000000E+01 0.  0.
    9000005    1    3    3    0    0 -0.46074168689E+02 -0.55906806708E+01 -0.18512145489E+02  0.49977837702E+02  0.10000000000E+01 0.  0.
<mgrwt>
<rscale>  0 0.12500173E+03</rscale>
<asrwt>0</asrwt>
<pdfrwt beam="1">  1        4 0.47116687E-02 0.12500173E+03</pdfrwt>
<pdfrwt beam="2">  1       -4 0.51817602E-01 0.12500173E+03</pdfrwt>
<totfact> 0.15326445E+03</totfact>
</mgrwt>
</event>
<event>
 5    1  0.1430314E-002  0.1249963E+03  0.7818608E-02  0.1235075E+00
         -4   -1    0    0    0  501 -0.00000000000E+00  0.00000000000E+00  0.29324098668E+03  0.29324373679E+03  0.12700000000E+01 0. -1.
          4   -1    0    0  501    0  0.00000000000E+00 -0.00000000000E+00 -0.13287079371E+02  0.13347635678E+02  0.12700000000E+01 0. -1.
         25    2    1    2    0    0  0.00000000000E+00  0.00000000000E+00  0.27995390731E+03  0.30659137247E+03  0.12499631777E+03 0.  0.
    9000005    1    3    3    0    0 -0.24662367438E+02 -0.23730647431E+02  0.11733951044E+02  0.36194773134E+02  0.10000000000E+01 0.  0.
    9000005    1    3    3    0    0  0.24662367438E+02  0.23730647431E+02  0.26821995626E+03  0.27039659934E+03  0.10000000000E+01 0.  0.
<mgrwt>
<rscale>  0 0.12499632E+03</rscale>
<asrwt>0</asrwt>
<pdfrwt beam="2">  1        4 0.33296833E-02 0.12499632E+03</pdfrwt>
<pdfrwt beam="1">  1       -4 0.73318157E-01 0.12499632E+03</pdfrwt>
<totfact> 0.12789390E+03</totfact>
</mgrwt>
</event>
<event>
 5    1  0.1430314E-002  0.1249999E+03  0.7818608E-02  0.1235069E+00
          4   -1    0    0  501    0  0.00000000000E+00  0.00000000000E+00  0.40553482669E+03  0.40553681530E+03  0.12700000000E+01 0. -1.
         -4   -1    0    0    0  501 -0.00000000000E+00 -0.00000000000E+00 -0.95884498724E+01  0.96721905975E+01  0.12700000000E+01 0. -1.
         25    2    1    2    0    0  0.00000000000E+00  0.00000000000E+00  0.39594637682E+03  0.41520900589E+03  0.12499994103E+03 0.  0.
    9000005    1    3    3    0    0  0.18767396241E+01  0.21491923372E+02  0.39278931452E+03  0.39338260069E+03  0.10000000000E+01 0.  0.
    9000005    1    3    3    0    0 -0.18767396241E+01 -0.21491923372E+02  0.31570622993E+01  0.21826405206E+02  0.10000000000E+01 0.  0.
<mgrwt>
<rscale>  0 0.12499994E+03</rscale>
<asrwt>0</asrwt>
<pdfrwt beam="1">  1        4 0.10139442E+00 0.12499994E+03</pdfrwt>
<pdfrwt beam="2">  1       -4 0.24078286E-02 0.12499994E+03</pdfrwt>
<totfact> 0.10261167E+03</totfact>
</mgrwt>
</event>
<event>
 5    1  0.1430314E-002  0.1249987E+03  0.7818608E-02  0.1235071E+00
         -4   -1    0    0    0  501 -0.00000000000E+00  0.00000000000E+00  0.50653371817E+02  0.50669290270E+02  0.12700000000E+01 0. -1.
          4   -1    0    0  501    0  0.00000000000E+00 -0.00000000000E+00 -0.77082345505E+02  0.77092806983E+02  0.12700000000E+01 0. -1.
         25    2    1    2    0    0  0.00000000000E+00  0.00000000000E+00 -0.26428973688E+02  0.12776209725E+03  0.12499865137E+03 0.  0.
    9000005    1    3    3    0    0 -0.23759317968E+01  0.31526654523E+02 -0.68309707192E+02  0.75278091726E+02  0.10000000000E+01 0.  0.
    9000005    1    3    3    0    0  0.23759317968E+01 -0.31526654523E+02  0.41880733504E+02  0.52484005527E+02  0.10000000000E+01 0.  0.
<mgrwt>
<rscale>  0 0.12499865E+03</rscale>
<asrwt>0</asrwt>
<pdfrwt beam="2">  1        4 0.19273884E-01 0.12499865E+03</pdfrwt>
<pdfrwt beam="1">  1       -4 0.12666641E-01 0.12499865E+03</pdfrwt>
<totfact> 0.19686108E+03</totfact>
</mgrwt>
</event>
<event>
 5    1  0.1430314E-002  0.1249987E+03  0.7818608E-02  0.1235071E+00
         -4   -1    0    0    0  501 -0.00000000000E+00  0.00000000000E+00  0.13828507645E+02  0.13886703125E+02  0.12700000000E+01 0.  1.
          4   -1    0    0  501    0  0.00000000000E+00 -0.00000000000E+00 -0.28181939996E+03  0.28182226153E+03  0.12700000000E+01 0.  1.
         25    2    1    2    0    0  0.00000000000E+00  0.00000000000E+00 -0.26799089232E+03  0.29570896466E+03  0.12499869365E+03 0.  0.
    9000005    1    3    3    0    0  0.59095880841E+02  0.16544687382E+02 -0.10609240608E+03  0.12256691413E+03  0.10000000000E+01 0.  0.
    9000005    1    3    3    0    0 -0.59095880841E+02 -0.16544687382E+02 -0.16189848624E+03  0.17314205052E+03  0.10000000000E+01 0.  0.
<mgrwt>
<rscale>  0 0.12499869E+03</rscale>
<asrwt>0</asrwt>
<pdfrwt beam="2">  1        4 0.70462463E-01 0.12499869E+03</pdfrwt>
<pdfrwt beam="1">  1       -4 0.34647600E-02 0.12499869E+03</pdfrwt>
<totfact> 0.13092572E+03</totfact>
</mgrwt>
</event>
<event>
 5    1  0.1430314E-002  0.1249992E+03  0.7818608E-02  0.1235071E+00
          4   -1    0    0  501    0  0.00000000000E+00  0.00000000000E+00  0.24618533192E+02  0.24651269268E+02  0.12700000000E+01 0. -1.
         -4   -1    0    0    0  501 -0.00000000000E+00 -0.00000000000E+00 -0.15852835691E+03  0.15853344393E+03  0.12700000000E+01 0. -1.
         25    2    1    2    0    0  0.00000000000E+00  0.00000000000E+00 -0.13390982372E+03  0.18318471320E+03  0.12499919305E+03 0.  0.
    9000005    1    3    3    0    0  0.45573066339E+02  0.32718617277E+02 -0.10729674913E+03  0.12108263569E+03  0.10000000000E+01 0.  0.
    9000005    1    3    3    0    0 -0.45573066339E+02 -0.32718617277E+02 -0.26613074593E+02  0.62102077513E+02  0.10000000000E+01 0.  0.
<mgrwt>
<rscale>  0 0.12499919E+03</rscale>
<asrwt>0</asrwt>
<pdfrwt beam="1">  1        4 0.61593616E-02 0.12499919E+03</pdfrwt>
<pdfrwt beam="2">  1       -4 0.39636814E-01 0.12499919E+03</pdfrwt>
<totfact> 0.17018549E+03</totfact>
</mgrwt>
</event>
<event>
 5    1  0.1430314E-002  0.1250038E+03  0.7818608E-02  0.1235063E+00
         -4   -1    0    0    0  501 -0.00000000000E+00  0.00000000000E+00  0.38314354680E+02  0.38335397148E+02  0.12700000000E+01 0. -1.
          4   -1    0    0  501    0  0.00000000000E+00 -0.00000000000E+00 -0.10190586795E+03  0.10191378132E+03  0.12700000000E+01 0. -1.
         25    2    1    2    0    0  0.00000000000E+00  0.00000000000E+00 -0.63591513273E+02  0.14024917847E+03  0.12500380595E+03 0.  0.
    9000005    1    3    3    0    0  0.14492534776E+01 -0.53551369143E+02 -0.67901905056E+02  0.86495769740E+02  0.10000000000E+01 0.  0.
    9000005    1    3    3    0    0 -0.14492534776E+01  0.53551369143E+02  0.43103917830E+01  0.53753408729E+02  0.10000000000E+01 0.  0.
<mgrwt>
<rscale>  0 0.12500381E+03</rscale>
<asrwt>0</asrwt>
<pdfrwt beam="2">  1        4 0.25480086E-01 0.12500381E+03</pdfrwt>
<pdfrwt beam="1">  1       -4 0.95822084E-02 0.12500381E+03</pdfrwt>
<totfact> 0.19025913E+03</totfact>
</mgrwt>
</event>
<event>
 5    1  0.1430314E-002  0.1250056E+03  0.7818608E-02  0.1235061E+00
         -4   -1    0    0    0  501 -0.00000000000E+00  0.00000000000E+00  0.82662418309E+02  0.82672173678E+02  0.12700000000E+01 0.  1.
          4   -1    0    0  501    0  0.00000000000E+00 -0.00000000000E+00 -0.47238599699E+02  0.47255668460E+02  0.12700000000E+01 0.  1.
         25    2    1    2    0    0  0.00000000000E+00  0.00000000000E+00  0.35423818609E+02  0.12992784214E+03  0.12500558883E+03 0.  0.
    9000005    1    3    3    0    0 -0.28770613555E+02 -0.52934025747E+02  0.44949896143E+00  0.60257458753E+02  0.10000000000E+01 0.  0.
    9000005    1    3    3    0    0  0.28770613555E+02  0.52934025747E+02  0.34974319648E+02  0.69670383384E+02  0.10000000000E+01 0.  0.
<mgrwt>
<rscale>  0 0.12500559E+03</rscale>
<asrwt>0</asrwt>
<pdfrwt beam="2">  1        4 0.11813003E-01 0.12500559E+03</pdfrwt>
<pdfrwt beam="1">  1       -4 0.20668957E-01 0.12500559E+03</pdfrwt>
<totfact> 0.19565710E+03</totfact>
</mgrwt>
</event>
<event>
 5    1  0.1430314E-002  0.1250009E+03  0.7818608E-02  0.1235068E+00
         -4   -1    0    0    0  501 -0.00000000000E+00  0.00000000000E+00  0.65686390667E+02  0.65698666797E+02  0.12700000000E+01 0. -1.
          4   -1    0    0  501    0  0.00000000000E+00 -0.00000000000E+00 -0.59444416625E+02  0.59457981532E+02  0.12700000000E+01 0. -1.
         25    2    1    2    0    0  0.00000000000E+00  0.00000000000E+00  0.62419740421E+01  0.12515664833E+03  0.12500089752E+03 0.  0.
    9000005    1    3    3    0    0  0.42762380922E+02 -0.21606016364E+02 -0.37052128426E+02  0.60574758655E+02  0.10000000000E+01 0.  0.
    9000005    1    3    3    0    0 -0.42762380922E+02  0.21606016364E+02  0.43294102468E+02  0.64581889673E+02  0.10000000000E+01 0.  0.
<mgrwt>
<rscale>  0 0.12500090E+03</rscale>
<asrwt>0</asrwt>
<pdfrwt beam="2">  1        4 0.14864334E-01 0.12500090E+03</pdfrwt>
<pdfrwt beam="1">  1       -4 0.16424828E-01 0.12500090E+03</pdfrwt>
<totfact> 0.19826146E+03</totfact>
</mgrwt>
</event>
<event>
 5    1  0.1430314E-002  0.1250011E+03  0.7818608E-02  0.1235068E+00
          4   -1    0    0  501    0  0.00000000000E+00  0.00000000000E+00  0.43906214668E+02  0.43924578387E+02  0.12700000000E+01 0. -1.
         -4   -1    0    0    0  501 -0.00000000000E+00 -0.00000000000E+00 -0.88928038703E+02  0.88937106809E+02  0.12700000000E+01 0. -1.
         25    2    1    2    0    0  0.00000000000E+00  0.00000000000E+00 -0.45021824035E+02  0.13286168520E+03  0.12500105101E+03 0.  0.
    9000005    1    3    3    0    0  0.55801235933E+02 -0.23052065730E+02 -0.39654024656E+02  0.72239998183E+02  0.10000000000E+01 0.  0.
    9000005    1    3    3    0    0 -0.55801235933E+02  0.23052065730E+02 -0.53677993783E+01  0.60621687013E+02  0.10000000000E+01 0.  0.
<mgrwt>
<rscale>  0 0.12500105E+03</rscale>
<asrwt>0</asrwt>
<pdfrwt beam="1">  1        4 0.10979983E-01 0.12500105E+03</pdfrwt>
<pdfrwt beam="2">  1       -4 0.22235438E-01 0.12500105E+03</pdfrwt>
<totfact> 0.19411258E+03</totfact>
</mgrwt>
</event>
<event>
 5    1  0.1430314E-002  0.1249990E+03  0.7818608E-02  0.1235071E+00
          4   -1    0    0  501    0  0.00000000000E+00  0.00000000000E+00  0.99397797396E+01  0.10020584877E+02  0.12700000000E+01 0. -1.
         -4   -1    0    0    0  501 -0.00000000000E+00 -0.00000000000E+00 -0.39131273316E+03  0.39131479403E+03  0.12700000000E+01 0. -1.
         25    2    1    2    0    0  0.00000000000E+00  0.00000000000E+00 -0.38137295342E+03  0.40133537891E+03  0.12499902707E+03 0.  0.
    9000005    1    3    3    0    0  0.14176262522E+02 -0.42229196110E+02 -0.33140627373E+03  0.33438808246E+03  0.10000000000E+01 0.  0.
    9000005    1    3    3    0    0 -0.14176262522E+02  0.42229196110E+02 -0.49966679682E+02  0.66947296448E+02  0.10000000000E+01 0.  0.
<mgrwt>
<rscale>  0 0.12499903E+03</rscale>
<asrwt>0</asrwt>
<pdfrwt beam="1">  1        4 0.24953045E-02 0.12499903E+03</pdfrwt>
<pdfrwt beam="2">  1       -4 0.97838490E-01 0.12499903E+03</pdfrwt>
<totfact> 0.10541982E+03</totfact>
</mgrwt>
</event>
<event>
 5    1  0.1430314E-002  0.1249826E+03  0.7818608E-02  0.1235097E+00
         -4   -1    0    0    0  501 -0.00000000000E+00  0.00000000000E+00  0.81783548941E+02  0.81793409131E+02  0.12700000000E+01 0.  1.
          4   -1    0    0  501    0  0.00000000000E+00 -0.00000000000E+00 -0.47728765352E+02  0.47745658882E+02  0.12700000000E+01 0.  1.
         25    2    1    2    0    0  0.00000000000E+00  0.00000000000E+00  0.34054783588E+02  0.12953906801E+03  0.12498256621E+03 0.  0.
    9000005    1    3    3    0    0 -0.45336159454E+02 -0.42826941815E+02  0.13060838541E+02  0.63726758922E+02  0.10000000000E+01 0.  0.
    9000005    1    3    3    0    0  0.45336159454E+02  0.42826941815E+02  0.20993945048E+02  0.65812309091E+02  0.10000000000E+01 0.  0.
<mgrwt>
<rscale>  0 0.12498257E+03</rscale>
<asrwt>0</asrwt>
<pdfrwt beam="2">  1        4 0.11935536E-01 0.12498257E+03</pdfrwt>
<pdfrwt beam="1">  1       -4 0.20449231E-01 0.12498257E+03</pdfrwt>
<totfact> 0.19597167E+03</totfact>
</mgrwt>
</event>
<event>
 5    1  0.1430314E-002  0.1250065E+03  0.7818608E-02  0.1235059E+00
         -4   -1    0    0    0  501 -0.00000000000E+00  0.00000000000E+00  0.21704923528E+03  0.21705295077E+03  0.12700000000E+01 0. -1.
          4   -1    0    0  501    0  0.00000000000E+00 -0.00000000000E+00 -0.17972666210E+02  0.18017481253E+02  0.12700000000E+01 0. -1.
         25    2    1    2    0    0  0.00000000000E+00  0.00000000000E+00  0.19907656907E+03  0.23507043202E+03  0.12500651046E+03 0.  0.
    9000005    1    3    3    0    0  0.43520768998E+02 -0.34111616556E+02  0.15429817635E+03  0.16391030152E+03  0.10000000000E+01 0.  0.
    9000005    1    3    3    0    0 -0.43520768998E+02  0.34111616556E+02  0.44778392717E+02  0.71160130498E+02  0.10000000000E+01 0.  0.
<mgrwt>
<rscale>  0 0.12500651E+03</rscale>
<asrwt>0</asrwt>
<pdfrwt beam="2">  1        4 0.44992328E-02 0.12500651E+03</pdfrwt>
<pdfrwt beam="1">  1       -4 0.54268376E-01 0.12500651E+03</pdfrwt>
<totfact> 0.15005559E+03</totfact>
</mgrwt>
</event>
<event>
 5    1  0.1430314E-002  0.1249985E+03  0.7818608E-02  0.1235072E+00
         -4   -1    0    0    0  501 -0.00000000000E+00  0.00000000000E+00  0.12035119612E+03  0.12035789674E+03  0.12700000000E+01 0. -1.
          4   -1    0    0  501    0  0.00000000000E+00 -0.00000000000E+00 -0.32436299660E+02  0.32461152716E+02  0.12700000000E+01 0. -1.
         25    2    1    2    0    0  0.00000000000E+00  0.00000000000E+00  0.87914896463E+02  0.15281904946E+03  0.12499853142E+03 0.  0.
    9000005    1    3    3    0    0  0.20512619335E+02  0.53537965238E+02  0.74351867780E+02  0.93895055866E+02  0.10000000000E+01 0.  0.
    9000005    1    3    3    0    0 -0.20512619335E+02 -0.53537965238E+02  0.13563028684E+02  0.58923993593E+02  0.10000000000E+01 0.  0.
<mgrwt>
<rscale>  0 0.12499853E+03</rscale>
<asrwt>0</asrwt>
<pdfrwt beam="2">  1        4 0.81130192E-02 0.12499853E+03</pdfrwt>
<pdfrwt beam="1">  1       -4 0.30091743E-01 0.12499853E+03</pdfrwt>
<totfact> 0.18401660E+03</totfact>
</mgrwt>
</event>
<event>
 5    1  0.1430314E-002  0.1249992E+03  0.7818608E-02  0.1235070E+00
          4   -1    0    0  501    0  0.00000000000E+00  0.00000000000E+00  0.11702167772E+02  0.11770880619E+02  0.12700000000E+01 0.  1.
         -4   -1    0    0    0  501 -0.00000000000E+00 -0.00000000000E+00 -0.33275447665E+03  0.33275690020E+03  0.12700000000E+01 0.  1.
         25    2    1    2    0    0  0.00000000000E+00  0.00000000000E+00 -0.32105230888E+03  0.34452778082E+03  0.12499922688E+03 0.  0.
    9000005    1    3    3    0    0 -0.30257268012E+01 -0.62335168537E+02 -0.15164891529E+03  0.16399152957E+03  0.10000000000E+01 0.  0.
    9000005    1    3    3    0    0  0.30257268012E+01  0.62335168537E+02 -0.16940339359E+03  0.18053625126E+03  0.10000000000E+01 0.  0.
<mgrwt>
<rscale>  0 0.12499923E+03</rscale>
<asrwt>0</asrwt>
<pdfrwt beam="1">  1        4 0.29344351E-02 0.12499923E+03</pdfrwt>
<pdfrwt beam="2">  1       -4 0.83197480E-01 0.12499923E+03</pdfrwt>
<totfact> 0.11809128E+03</totfact>
</mgrwt>
</event>
<event>
 5    1  0.1430314E-002  0.1249992E+03  0.7818608E-02  0.1235071E+00
         -4   -1    0    0    0  501 -0.00000000000E+00  0.00000000000E+00  0.10324508392E+02  0.10402325391E+02  0.12700000000E+01 0. -1.
          4   -1    0    0  501    0  0.00000000000E+00 -0.00000000000E+00 -0.37684305478E+03  0.37684519479E+03  0.12700000000E+01 0. -1.
         25    2    1    2    0    0  0.00000000000E+00  0.00000000000E+00 -0.36651854639E+03  0.38724752018E+03  0.12499918815E+03 0.  0.
    9000005    1    3    3    0    0 -0.45790028918E+02  0.14408093792E+02 -0.30721333244E+03  0.31094268208E+03  0.10000000000E+01 0.  0.
    9000005    1    3    3    0    0  0.45790028918E+02 -0.14408093792E+02 -0.59305213952E+02  0.76304838097E+02  0.10000000000E+01 0.  0.
<mgrwt>
<rscale>  0 0.12499919E+03</rscale>
<asrwt>0</asrwt>
<pdfrwt beam="2">  1        4 0.94220713E-01 0.12499919E+03</pdfrwt>
<pdfrwt beam="1">  1       -4 0.25911230E-02 0.12499919E+03</pdfrwt>
<totfact> 0.10836885E+03</totfact>
</mgrwt>
</event>
<event>
 5    1  0.1430314E-002  0.1250057E+03  0.7818608E-02  0.1235060E+00
          4   -1    0    0  501    0  0.00000000000E+00  0.00000000000E+00  0.34196467919E+02  0.34220042637E+02  0.12700000000E+01 0.  1.
         -4   -1    0    0    0  501 -0.00000000000E+00 -0.00000000000E+00 -0.11417358019E+03  0.11418064334E+03  0.12700000000E+01 0.  1.
         25    2    1    2    0    0  0.00000000000E+00  0.00000000000E+00 -0.79977112269E+02  0.14840068597E+03  0.12500570031E+03 0.  0.
    9000005    1    3    3    0    0 -0.28691894611E+02  0.41259082687E+02 -0.84090382895E+02  0.97968000980E+02  0.10000000000E+01 0.  0.
    9000005    1    3    3    0    0  0.28691894611E+02 -0.41259082687E+02  0.41132706262E+01  0.50432684995E+02  0.10000000000E+01 0.  0.
<mgrwt>
<rscale>  0 0.12500570E+03</rscale>
<asrwt>0</asrwt>
<pdfrwt beam="1">  1        4 0.85529470E-02 0.12500570E+03</pdfrwt>
<pdfrwt beam="2">  1       -4 0.28547224E-01 0.12500570E+03</pdfrwt>
<totfact> 0.18615230E+03</totfact>
</mgrwt>
</event>
<event>
 5    1  0.1430314E-002  0.1249992E+03  0.7818608E-02  0.1235071E+00
         -4   -1    0    0    0  501 -0.00000000000E+00  0.00000000000E+00  0.54728088808E+01  0.56182325553E+01  0.12700000000E+01 0.  1.
          4   -1    0    0  501    0  0.00000000000E+00 -0.00000000000E+00 -0.70424216034E+03  0.70424330547E+03  0.12700000000E+01 0.  1.
         25    2    1    2    0    0  0.00000000000E+00  0.00000000000E+00 -0.69876935146E+03  0.70986153803E+03  0.12499918652E+03 0.  0.
    9000005    1    3    3    0    0  0.11921244152E+01  0.58560323562E+02 -0.22568480759E+03  0.23316381588E+03  0.10000000000E+01 0.  0.
    9000005    1    3    3    0    0 -0.11921244152E+01 -0.58560323562E+02 -0.47308454387E+03  0.47669772215E+03  0.10000000000E+01 0.  0.
<mgrwt>
<rscale>  0 0.12499919E+03</rscale>
<asrwt>0</asrwt>
<pdfrwt beam="2">  1        4 0.17607856E+00 0.12499919E+03</pdfrwt>
<pdfrwt beam="1">  1       -4 0.13865257E-02 0.12499919E+03</pdfrwt>
<totfact> 0.61045860E+02</totfact>
</mgrwt>
</event>
<event>
 5    1  0.1430314E-002  0.1249887E+03  0.7818608E-02  0.1235087E+00
          4   -1    0    0  501    0  0.00000000000E+00  0.00000000000E+00  0.75105957146E+02  0.75116693876E+02  0.12700000000E+01 0.  1.
         -4   -1    0    0    0  501 -0.00000000000E+00 -0.00000000000E+00 -0.51978267242E+02  0.51993780066E+02  0.12700000000E+01 0.  1.
         25    2    1    2    0    0  0.00000000000E+00  0.00000000000E+00  0.23127689904E+02  0.12711047394E+03  0.12498872967E+03 0.  0.
    9000005    1    3    3    0    0  0.23029568846E+02 -0.38769148773E+01  0.70505923832E+02  0.74279720016E+02  0.10000000000E+01 0.  0.
    9000005    1    3    3    0    0 -0.23029568846E+02  0.38769148773E+01 -0.47378233928E+02  0.52830753926E+02  0.10000000000E+01 0.  0.
<mgrwt>
<rscale>  0 0.12498873E+03</rscale>
<asrwt>0</asrwt>
<pdfrwt beam="1">  1        4 0.18779770E-01 0.12498873E+03</pdfrwt>
<pdfrwt beam="2">  1       -4 0.12997848E-01 0.12498873E+03</pdfrwt>
<totfact> 0.19726204E+03</totfact>
</mgrwt>
</event>
<event>
 5    1  0.1430314E-002  0.1249989E+03  0.7818608E-02  0.1235071E+00
         -4   -1    0    0    0  501 -0.00000000000E+00  0.00000000000E+00  0.52999720522E+01  0.54500095187E+01  0.12700000000E+01 0. -1.
          4   -1    0    0  501    0  0.00000000000E+00 -0.00000000000E+00 -0.72658261100E+03  0.72658372092E+03  0.12700000000E+01 0. -1.
         25    2    1    2    0    0  0.00000000000E+00  0.00000000000E+00 -0.72128263894E+03  0.73203373044E+03  0.12499894901E+03 0.  0.
    9000005    1    3    3    0    0 -0.20695890305E+02  0.31345044106E+02 -0.68156279265E+02  0.77827437763E+02  0.10000000000E+01 0.  0.
    9000005    1    3    3    0    0  0.20695890305E+02 -0.31345044106E+02 -0.65312635968E+03  0.65420629267E+03  0.10000000000E+01 0.  0.
<mgrwt>
<rscale>  0 0.12499895E+03</rscale>
<asrwt>0</asrwt>
<pdfrwt beam="2">  1        4 0.18166421E+00 0.12499895E+03</pdfrwt>
<pdfrwt beam="1">  1       -4 0.13438889E-02 0.12499895E+03</pdfrwt>
<totfact> 0.58815319E+02</totfact>
</mgrwt>
</event>
<event>
 5    1  0.1430314E-002  0.1250005E+03  0.7818608E-02  0.1235068E+00
         -4   -1    0    0    0  501 -0.00000000000E+00  0.00000000000E+00  0.75357475450E+02  0.75368176349E+02  0.12700000000E+01 0.  1.
          4   -1    0    0  501    0  0.00000000000E+00 -0.00000000000E+00 -0.51814554447E+02  0.51830116270E+02  0.12700000000E+01 0.  1.
         25    2    1    2    0    0  0.00000000000E+00  0.00000000000E+00  0.23542921003E+02  0.12719829262E+03  0.12500054606E+03 0.  0.
    9000005    1    3    3    0    0 -0.36801819707E+02 -0.44620452959E+02 -0.12307317659E+02  0.59142445198E+02  0.10000000000E+01 0.  0.
    9000005    1    3    3    0    0  0.36801819707E+02  0.44620452959E+02  0.35850238662E+02  0.68055847421E+02  0.10000000000E+01 0.  0.
<mgrwt>
<rscale>  0 0.12500055E+03</rscale>
<asrwt>0</asrwt>
<pdfrwt beam="2">  1        4 0.12956921E-01 0.12500055E+03</pdfrwt>
<pdfrwt beam="1">  1       -4 0.18842652E-01 0.12500055E+03</pdfrwt>
<totfact> 0.19715990E+03</totfact>
</mgrwt>
</event>
<event>
 5    1  0.1430314E-002  0.1250015E+03  0.7818608E-02  0.1235067E+00
          4   -1    0    0  501    0  0.00000000000E+00  0.00000000000E+00  0.58832939361E+03  0.58833076436E+03  0.12700000000E+01 0.  1.
         -4   -1    0    0    0  501 -0.00000000000E+00 -0.00000000000E+00 -0.65776015484E+01  0.66990851711E+01  0.12700000000E+01 0.  1.
         25    2    1    2    0    0  0.00000000000E+00  0.00000000000E+00  0.58175179206E+03  0.59502984953E+03  0.12500149703E+03 0.  0.
    9000005    1    3    3    0    0 -0.56816910422E+02 -0.19000870195E+02  0.20623708133E+03  0.21476482042E+03  0.10000000000E+01 0.  0.
    9000005    1    3    3    0    0  0.56816910422E+02  0.19000870195E+02  0.37551471074E+03  0.38026502910E+03  0.10000000000E+01 0.  0.
<mgrwt>
<rscale>  0 0.12500150E+03</rscale>
<asrwt>0</asrwt>
<pdfrwt beam="1">  1        4 0.14709772E+00 0.12500150E+03</pdfrwt>
<pdfrwt beam="2">  1       -4 0.16597570E-02 0.12500150E+03</pdfrwt>
<totfact> 0.74129294E+02</totfact>
</mgrwt>
</event>
<event>
 5    1  0.1430314E-002  0.1250384E+03  0.7818608E-02  0.1235009E+00
         -4   -1    0    0    0  501 -0.00000000000E+00  0.00000000000E+00  0.75049287896E+01  0.76116263792E+01  0.12700000000E+01 0.  1.
          4   -1    0    0  501    0  0.00000000000E+00 -0.00000000000E+00 -0.51702781945E+03  0.51702937923E+03  0.12700000000E+01 0.  1.
         25    2    1    2    0    0  0.00000000000E+00  0.00000000000E+00 -0.50952289066E+03  0.52464100561E+03  0.12503842872E+03 0.  0.
    9000005    1    3    3    0    0 -0.34414220713E+02 -0.45355202509E+02 -0.36306115462E+03  0.36749943534E+03  0.10000000000E+01 0.  0.
    9000005    1    3    3    0    0  0.34414220713E+02  0.45355202509E+02 -0.14646173604E+03  0.15714157027E+03  0.10000000000E+01 0.  0.
<mgrwt>
<rscale>  0 0.12503843E+03</rscale>
<asrwt>0</asrwt>
<pdfrwt beam="2">  1        4 0.12927037E+00 0.12503843E+03</pdfrwt>
<pdfrwt beam="1">  1       -4 0.18897661E-02 0.12503843E+03</pdfrwt>
<totfact> 0.83743519E+02</totfact>
</mgrwt>
</event>
<event>
 5    1  0.1430314E-002  0.1250020E+03  0.7818608E-02  0.1235066E+00
          4   -1    0    0  501    0  0.00000000000E+00  0.00000000000E+00  0.63657023041E+02  0.63669690454E+02  0.12700000000E+01 0.  1.
         -4   -1    0    0    0  501 -0.00000000000E+00 -0.00000000000E+00 -0.61340612862E+02  0.61353758534E+02  0.12700000000E+01 0.  1.
         25    2    1    2    0    0  0.00000000000E+00  0.00000000000E+00  0.23164101795E+01  0.12502344899E+03  0.12500198815E+03 0.  0.
    9000005    1    3    3    0    0  0.23481258001E+02  0.22356726687E+02  0.54591917982E+02  0.63501733948E+02  0.10000000000E+01 0.  0.
    9000005    1    3    3    0    0 -0.23481258001E+02 -0.22356726687E+02 -0.52275507802E+02  0.61521715040E+02  0.10000000000E+01 0.  0.
<mgrwt>
<rscale>  0 0.12500199E+03</rscale>
<asrwt>0</asrwt>
<pdfrwt beam="1">  1        4 0.15917482E-01 0.12500199E+03</pdfrwt>
<pdfrwt beam="2">  1       -4 0.15338380E-01 0.12500199E+03</pdfrwt>
<totfact> 0.19832861E+03</totfact>
</mgrwt>
</event>
<event>
 5    1  0.1430314E-002  0.1250023E+03  0.7818608E-02  0.1235066E+00
         -4   -1    0    0    0  501 -0.00000000000E+00  0.00000000000E+00  0.14469963047E+02  0.14525588820E+02  0.12700000000E+01 0. -1.
          4   -1    0    0  501    0  0.00000000000E+00 -0.00000000000E+00 -0.26939087963E+03  0.26939387322E+03  0.12700000000E+01 0. -1.
         25    2    1    2    0    0  0.00000000000E+00  0.00000000000E+00 -0.25492091659E+03  0.28391946204E+03  0.12500234883E+03 0.  0.
    9000005    1    3    3    0    0  0.11680358303E+02 -0.13939753490E+02 -0.26325856359E+03  0.26388789059E+03  0.10000000000E+01 0.  0.
    9000005    1    3    3    0    0 -0.11680358303E+02  0.13939753490E+02  0.83376469998E+01  0.20031571455E+02  0.10000000000E+01 0.  0.
<mgrwt>
<rscale>  0 0.12500235E+03</rscale>
<asrwt>0</asrwt>
<pdfrwt beam="2">  1        4 0.67355031E-01 0.12500235E+03</pdfrwt>
<pdfrwt beam="1">  1       -4 0.36248191E-02 0.12500235E+03</pdfrwt>
<totfact> 0.13433298E+03</totfact>
</mgrwt>
</event>
<event>
 5    1  0.1430314E-002  0.1249983E+03  0.7818608E-02  0.1235072E+00
          4   -1    0    0  501    0  0.00000000000E+00  0.00000000000E+00  0.21723465544E+03  0.21723836775E+03  0.12700000000E+01 0. -1.
         -4   -1    0    0    0  501 -0.00000000000E+00 -0.00000000000E+00 -0.17954916489E+02  0.17999775725E+02  0.12700000000E+01 0. -1.
         25    2    1    2    0    0  0.00000000000E+00  0.00000000000E+00  0.19927973895E+03  0.23523814348E+03  0.12499827915E+03 0.  0.
    9000005    1    3    3    0    0 -0.18810263472E+02  0.29015917841E+02  0.19759782381E+03  0.20060321402E+03  0.10000000000E+01 0.  0.
    9000005    1    3    3    0    0  0.18810263472E+02 -0.29015917841E+02  0.16819151399E+01  0.34634929459E+02  0.10000000000E+01 0.  0.
<mgrwt>
<rscale>  0 0.12499828E+03</rscale>
<asrwt>0</asrwt>
<pdfrwt beam="1">  1        4 0.54314734E-01 0.12499828E+03</pdfrwt>
<pdfrwt beam="2">  1       -4 0.44948007E-02 0.12499828E+03</pdfrwt>
<totfact> 0.15002525E+03</totfact>
</mgrwt>
</event>
<event>
 5    1  0.1430314E-002  0.1249990E+03  0.7818608E-02  0.1235071E+00
          4   -1    0    0  501    0  0.00000000000E+00  0.00000000000E+00  0.71576195056E+02  0.71587461183E+02  0.12700000000E+01 0.  1.
         -4   -1    0    0    0  501 -0.00000000000E+00 -0.00000000000E+00 -0.54550924957E+02  0.54565706388E+02  0.12700000000E+01 0.  1.
         25    2    1    2    0    0  0.00000000000E+00  0.00000000000E+00  0.17025270099E+02  0.12615316757E+03  0.12499904746E+03 0.  0.
    9000005    1    3    3    0    0  0.36322947268E+02  0.49677949301E+02  0.19472706969E+02  0.64555723694E+02  0.10000000000E+01 0.  0.
    9000005    1    3    3    0    0 -0.36322947268E+02 -0.49677949301E+02 -0.24474368697E+01  0.61597443877E+02  0.10000000000E+01 0.  0.
<mgrwt>
<rscale>  0 0.12499905E+03</rscale>
<asrwt>0</asrwt>
<pdfrwt beam="1">  1        4 0.17897305E-01 0.12499905E+03</pdfrwt>
<pdfrwt beam="2">  1       -4 0.13640987E-01 0.12499905E+03</pdfrwt>
<totfact> 0.19773086E+03</totfact>
</mgrwt>
</event>
<event>
 5    1  0.1430314E-002  0.1250135E+03  0.7818608E-02  0.1235048E+00
          4   -1    0    0  501    0  0.00000000000E+00  0.00000000000E+00  0.57801220912E+02  0.57815171356E+02  0.12700000000E+01 0. -1.
         -4   -1    0    0    0  501 -0.00000000000E+00 -0.00000000000E+00 -0.67567229166E+02  0.67579163632E+02  0.12700000000E+01 0. -1.
         25    2    1    2    0    0  0.00000000000E+00  0.00000000000E+00 -0.97660082538E+01  0.12539433499E+03  0.12501345660E+03 0.  0.
    9000005    1    3    3    0    0 -0.66348477115E+01 -0.20467069081E+01  0.57418073586E+02  0.57845011779E+02  0.10000000000E+01 0.  0.
    9000005    1    3    3    0    0  0.66348477115E+01  0.20467069081E+01 -0.67184081840E+02  0.67549323209E+02  0.10000000000E+01 0.  0.
<mgrwt>
<rscale>  0 0.12501346E+03</rscale>
<asrwt>0</asrwt>
<pdfrwt beam="1">  1        4 0.14453541E-01 0.12501346E+03</pdfrwt>
<pdfrwt beam="2">  1       -4 0.16895043E-01 0.12501346E+03</pdfrwt>
<totfact> 0.19807448E+03</totfact>
</mgrwt>
</event>
<event>
 5    1  0.1430314E-002  0.1250004E+03  0.7818608E-02  0.1235069E+00
         -4   -1    0    0    0  501 -0.00000000000E+00  0.00000000000E+00  0.57497158138E+02  0.57511182338E+02  0.12700000000E+01 0.  1.
          4   -1    0    0  501    0  0.00000000000E+00 -0.00000000000E+00 -0.67910362257E+02  0.67922236432E+02  0.12700000000E+01 0.  1.
         25    2    1    2    0    0  0.00000000000E+00  0.00000000000E+00 -0.10413204120E+02  0.12543341877E+03  0.12500043090E+03 0.  0.
    9000005    1    3    3    0    0  0.58057669309E+02 -0.20661141965E+02  0.52072637331E+01  0.61852173353E+02  0.10000000000E+01 0.  0.
    9000005    1    3    3    0    0 -0.58057669309E+02  0.20661141965E+02 -0.15620467853E+02  0.63581245417E+02  0.10000000000E+01 0.  0.
<mgrwt>
<rscale>  0 0.12500043E+03</rscale>
<asrwt>0</asrwt>
<pdfrwt beam="2">  1        4 0.16980828E-01 0.12500043E+03</pdfrwt>
<pdfrwt beam="1">  1       -4 0.14377527E-01 0.12500043E+03</pdfrwt>
<totfact> 0.19811369E+03</totfact>
</mgrwt>
</event>
<event>
 5    1  0.1430314E-002  0.1250004E+03  0.7818608E-02  0.1235069E+00
          4   -1    0    0  501    0  0.00000000000E+00  0.00000000000E+00  0.53676637049E+02  0.53691659174E+02  0.12700000000E+01 0. -1.
         -4   -1    0    0    0  501 -0.00000000000E+00 -0.00000000000E+00 -0.72743462673E+02  0.72754548048E+02  0.12700000000E+01 0. -1.
         25    2    1    2    0    0  0.00000000000E+00  0.00000000000E+00 -0.19066825624E+02  0.12644620722E+03  0.12500039793E+03 0.  0.
    9000005    1    3    3    0    0 -0.53089949833E+02 -0.20033000352E+02 -0.36016581370E+02  0.67216501025E+02  0.10000000000E+01 0.  0.
    9000005    1    3    3    0    0  0.53089949833E+02  0.20033000352E+02  0.16949755746E+02  0.59229706198E+02  0.10000000000E+01 0.  0.
<mgrwt>
<rscale>  0 0.12500040E+03</rscale>
<asrwt>0</asrwt>
<pdfrwt beam="1">  1        4 0.13422423E-01 0.12500040E+03</pdfrwt>
<pdfrwt beam="2">  1       -4 0.18189129E-01 0.12500040E+03</pdfrwt>
<totfact> 0.19756643E+03</totfact>
</mgrwt>
</event>
<event>
 5    1  0.1430314E-002  0.1249994E+03  0.7818608E-02  0.1235070E+00
         -4   -1    0    0    0  501 -0.00000000000E+00  0.00000000000E+00  0.10399000129E+02  0.10476263823E+02  0.12700000000E+01 0. -1.
          4   -1    0    0  501    0  0.00000000000E+00 -0.00000000000E+00 -0.37416473649E+03  0.37416689181E+03  0.12700000000E+01 0. -1.
         25    2    1    2    0    0  0.00000000000E+00  0.00000000000E+00 -0.36376573636E+03  0.38464315564E+03  0.12499938492E+03 0.  0.
    9000005    1    3    3    0    0 -0.20570499138E+01  0.28232290712E+02 -0.10445597814E+02  0.30189471789E+02  0.10000000000E+01 0.  0.
    9000005    1    3    3    0    0  0.20570499138E+01 -0.28232290712E+02 -0.35332013854E+03  0.35445368385E+03  0.10000000000E+01 0.  0.
<mgrwt>
<rscale>  0 0.12499938E+03</rscale>
<asrwt>0</asrwt>
<pdfrwt beam="2">  1        4 0.93551067E-01 0.12499938E+03</pdfrwt>
<pdfrwt beam="1">  1       -4 0.26096787E-02 0.12499938E+03</pdfrwt>
<totfact> 0.10892672E+03</totfact>
</mgrwt>
</event>
<event>
 5    1  0.1430314E-002  0.1249994E+03  0.7818608E-02  0.1235070E+00
          4   -1    0    0  501    0  0.00000000000E+00  0.00000000000E+00  0.73630946366E+01  0.74718178931E+01  0.12700000000E+01 0. -1.
         -4   -1    0    0    0  501 -0.00000000000E+00 -0.00000000000E+00 -0.52651482136E+03  0.52651635304E+03  0.12700000000E+01 0. -1.
         25    2    1    2    0    0  0.00000000000E+00  0.00000000000E+00 -0.51915172673E+03  0.53398817093E+03  0.12499940532E+03 0.  0.
    9000005    1    3    3    0    0  0.12885841251E+02 -0.61136335440E+02 -0.26483643530E+03  0.27210849652E+03  0.10000000000E+01 0.  0.
    9000005    1    3    3    0    0 -0.12885841251E+02  0.61136335440E+02 -0.25431529142E+03  0.26187967441E+03  0.10000000000E+01 0.  0.
<mgrwt>
<rscale>  0 0.12499941E+03</rscale>
<asrwt>0</asrwt>
<pdfrwt beam="1">  1        4 0.18545573E-02 0.12499941E+03</pdfrwt>
<pdfrwt beam="2">  1       -4 0.13164236E+00 0.12499941E+03</pdfrwt>
<totfact> 0.82444296E+02</totfact>
</mgrwt>
</event>
<event>
 5    1  0.1430314E-002  0.1249947E+03  0.7818608E-02  0.1235078E+00
          4   -1    0    0  501    0  0.00000000000E+00  0.00000000000E+00  0.20912815570E+03  0.20913201191E+03  0.12700000000E+01 0.  1.
         -4   -1    0    0    0  501 -0.00000000000E+00 -0.00000000000E+00 -0.18651525608E+02  0.18694713357E+02  0.12700000000E+01 0.  1.
         25    2    1    2    0    0  0.00000000000E+00  0.00000000000E+00  0.19047663009E+03  0.22782672526E+03  0.12499468043E+03 0.  0.
    9000005    1    3    3    0    0 -0.82199474398E+00 -0.61095922046E+02  0.11911001755E+03  0.13387151917E+03  0.10000000000E+01 0.  0.
    9000005    1    3    3    0    0  0.82199474398E+00  0.61095922046E+02  0.71366612542E+02  0.93955206092E+02  0.10000000000E+01 0.  0.
<mgrwt>
<rscale>  0 0.12499468E+03</rscale>
<asrwt>0</asrwt>
<pdfrwt beam="1">  1        4 0.52287919E-01 0.12499468E+03</pdfrwt>
<pdfrwt beam="2">  1       -4 0.46687619E-02 0.12499468E+03</pdfrwt>
<totfact> 0.15267152E+03</totfact>
</mgrwt>
</event>
<event>
 5    1  0.1430314E-002  0.1249999E+03  0.7818608E-02  0.1235069E+00
          4   -1    0    0  501    0  0.00000000000E+00  0.00000000000E+00  0.10738771794E+02  0.10813608077E+02  0.12700000000E+01 0. -1.
         -4   -1    0    0    0  501 -0.00000000000E+00 -0.00000000000E+00 -0.36241237265E+03  0.36241459787E+03  0.12700000000E+01 0. -1.
         25    2    1    2    0    0  0.00000000000E+00  0.00000000000E+00 -0.35167360085E+03  0.37322820594E+03  0.12499988870E+03 0.  0.
    9000005    1    3    3    0    0 -0.48299104834E+02  0.33050146909E+02 -0.11041190553E+03  0.12496761429E+03  0.10000000000E+01 0.  0.
    9000005    1    3    3    0    0  0.48299104834E+02 -0.33050146909E+02 -0.24126169532E+03  0.24826059165E+03  0.10000000000E+01 0.  0.
<mgrwt>
<rscale>  0 0.12499989E+03</rscale>
<asrwt>0</asrwt>
<pdfrwt beam="1">  1        4 0.26943268E-02 0.12499989E+03</pdfrwt>
<pdfrwt beam="2">  1       -4 0.90612685E-01 0.12499989E+03</pdfrwt>
<totfact> 0.11142304E+03</totfact>
</mgrwt>
</event>
<event>
 5    1  0.1430314E-002  0.1250002E+03  0.7818608E-02  0.1235069E+00
         -4   -1    0    0    0  501 -0.00000000000E+00  0.00000000000E+00  0.17890516855E+03  0.17890967619E+03  0.12700000000E+01 0. -1.
          4   -1    0    0  501    0  0.00000000000E+00 -0.00000000000E+00 -0.21811000520E+02  0.21847943695E+02  0.12700000000E+01 0. -1.
         25    2    1    2    0    0  0.00000000000E+00  0.00000000000E+00  0.15709416803E+03  0.20075761988E+03  0.12500017725E+03 0.  0.
    9000005    1    3    3    0    0 -0.55924045562E+02 -0.19991264444E+02  0.47317127292E+02  0.75941161838E+02  0.10000000000E+01 0.  0.
    9000005    1    3    3    0    0  0.55924045562E+02  0.19991264444E+02  0.10977704074E+03  0.12481645805E+03  0.10000000000E+01 0.  0.
<mgrwt>
<rscale>  0 0.12500018E+03</rscale>
<asrwt>0</asrwt>
<pdfrwt beam="2">  1        4 0.54579316E-02 0.12500018E+03</pdfrwt>
<pdfrwt beam="1">  1       -4 0.44731472E-01 0.12500018E+03</pdfrwt>
<totfact> 0.16291683E+03</totfact>
</mgrwt>
</event>
<event>
 5    1  0.1430314E-002  0.1250004E+03  0.7818608E-02  0.1235069E+00
         -4   -1    0    0    0  501 -0.00000000000E+00  0.00000000000E+00  0.20905929855E+03  0.20906315603E+03  0.12700000000E+01 0.  1.
          4   -1    0    0  501    0  0.00000000000E+00 -0.00000000000E+00 -0.18659401926E+02  0.18702571487E+02  0.12700000000E+01 0.  1.
         25    2    1    2    0    0  0.00000000000E+00  0.00000000000E+00  0.19039989662E+03  0.22776572752E+03  0.12500042399E+03 0.  0.
    9000005    1    3    3    0    0 -0.56045579941E+02  0.22710647848E+02  0.12391761418E+03  0.13788928769E+03  0.10000000000E+01 0.  0.
    9000005    1    3    3    0    0  0.56045579941E+02 -0.22710647848E+02  0.66482282443E+02  0.89876439824E+02  0.10000000000E+01 0.  0.
<mgrwt>
<rscale>  0 0.12500042E+03</rscale>
<asrwt>0</asrwt>
<pdfrwt beam="2">  1        4 0.46707289E-02 0.12500042E+03</pdfrwt>
<pdfrwt beam="1">  1       -4 0.52270702E-01 0.12500042E+03</pdfrwt>
<totfact> 0.15267328E+03</totfact>
</mgrwt>
</event>
<event>
 5    1  0.1430314E-002  0.1250184E+03  0.7818608E-02  0.1235041E+00
          4   -1    0    0  501    0  0.00000000000E+00  0.00000000000E+00  0.39995613304E+02  0.40015771685E+02  0.12700000000E+01 0.  1.
         -4   -1    0    0    0  501 -0.00000000000E+00 -0.00000000000E+00 -0.97646755250E+02  0.97655013752E+02  0.12700000000E+01 0.  1.
         25    2    1    2    0    0  0.00000000000E+00  0.00000000000E+00 -0.57651141946E+02  0.13767078544E+03  0.12501836263E+03 0.  0.
    9000005    1    3    3    0    0  0.25337003659E+02  0.14733891873E+02  0.31963974687E+02  0.43379107897E+02  0.10000000000E+01 0.  0.
    9000005    1    3    3    0    0 -0.25337003659E+02 -0.14733891873E+02 -0.89615116633E+02  0.94291677540E+02  0.10000000000E+01 0.  0.
<mgrwt>
<rscale>  0 0.12501836E+03</rscale>
<asrwt>0</asrwt>
<pdfrwt beam="1">  1        4 0.10002456E-01 0.12501836E+03</pdfrwt>
<pdfrwt beam="2">  1       -4 0.24415240E-01 0.12501836E+03</pdfrwt>
<totfact> 0.19151938E+03</totfact>
</mgrwt>
</event>
<event>
 5    1  0.1430314E-002  0.1249983E+03  0.7818608E-02  0.1235072E+00
          4   -1    0    0  501    0  0.00000000000E+00  0.00000000000E+00  0.33047989014E+02  0.33072382404E+02  0.12700000000E+01 0.  1.
         -4   -1    0    0    0  501 -0.00000000000E+00 -0.00000000000E+00 -0.11812468783E+03  0.11813151474E+03  0.12700000000E+01 0.  1.
         25    2    1    2    0    0  0.00000000000E+00  0.00000000000E+00 -0.85076698819E+02  0.15120389715E+03  0.12499829531E+03 0.  0.
    9000005    1    3    3    0    0 -0.22565094755E+02 -0.43184133543E+02 -0.89870837570E+02  0.10223414467E+03  0.10000000000E+01 0.  0.
    9000005    1    3    3    0    0  0.22565094755E+02  0.43184133543E+02  0.47941387513E+01  0.48969752475E+02  0.10000000000E+01 0.  0.
<mgrwt>
<rscale>  0 0.12499830E+03</rscale>
<asrwt>0</asrwt>
<pdfrwt beam="1">  1        4 0.82659001E-02 0.12499830E+03</pdfrwt>
<pdfrwt beam="2">  1       -4 0.29535074E-01 0.12499830E+03</pdfrwt>
<totfact> 0.18480476E+03</totfact>
</mgrwt>
</event>
<event>
 5    1  0.1430314E-002  0.1249563E+03  0.7818608E-02  0.1235138E+00
          4   -1    0    0  501    0  0.00000000000E+00  0.00000000000E+00  0.23830153594E+02  0.23863971176E+02  0.12700000000E+01 0. -1.
         -4   -1    0    0    0  501 -0.00000000000E+00 -0.00000000000E+00 -0.16365340353E+03  0.16365833124E+03  0.12700000000E+01 0. -1.
         25    2    1    2    0    0  0.00000000000E+00  0.00000000000E+00 -0.13982324993E+03  0.18752230242E+03  0.12495628309E+03 0.  0.
    9000005    1    3    3    0    0 -0.28701500135E+02 -0.43945267959E+02 -0.12074883109E+03  0.13166716711E+03  0.10000000000E+01 0.  0.
    9000005    1    3    3    0    0  0.28701500135E+02  0.43945267959E+02 -0.19074418841E+02  0.55855135306E+02  0.10000000000E+01 0.  0.
<mgrwt>
<rscale>  0 0.12495628E+03</rscale>
<asrwt>0</asrwt>
<pdfrwt beam="1">  1        4 0.59623820E-02 0.12495628E+03</pdfrwt>
<pdfrwt beam="2">  1       -4 0.40918191E-01 0.12495628E+03</pdfrwt>
<totfact> 0.16851222E+03</totfact>
</mgrwt>
</event>
<event>
 5    1  0.1430314E-002  0.1250018E+03  0.7818608E-02  0.1235066E+00
         -4   -1    0    0    0  501 -0.00000000000E+00  0.00000000000E+00  0.30274493982E+01  0.32830397285E+01  0.12700000000E+01 0.  1.
          4   -1    0    0  501    0  0.00000000000E+00 -0.00000000000E+00 -0.12377975362E+04  0.12377981877E+04  0.12700000000E+01 0.  1.
         25    2    1    2    0    0  0.00000000000E+00  0.00000000000E+00 -0.12347700868E+04  0.12410812274E+04  0.12500178344E+03 0.  0.
    9000005    1    3    3    0    0  0.14115656369E+02  0.16183367627E+02 -0.34706932893E+02  0.40825535309E+02  0.10000000000E+01 0.  0.
    9000005    1    3    3    0    0 -0.14115656369E+02 -0.16183367627E+02 -0.12000631539E+04  0.12002556921E+04  0.10000000000E+01 0.  0.
<mgrwt>
<rscale>  0 0.12500178E+03</rscale>
<asrwt>0</asrwt>
<pdfrwt beam="2">  1        4 0.30947975E+00 0.12500178E+03</pdfrwt>
<pdfrwt beam="1">  1       -4 0.78889682E-03 0.12500178E+03</pdfrwt>
<totfact> 0.23113007E+02</totfact>
</mgrwt>
</event>
<event>
 5    1  0.1430314E-002  0.1249992E+03  0.7818608E-02  0.1235071E+00
         -4   -1    0    0    0  501 -0.00000000000E+00  0.00000000000E+00  0.15166638347E+02  0.15219718090E+02  0.12700000000E+01 0.  1.
          4   -1    0    0  501    0  0.00000000000E+00 -0.00000000000E+00 -0.25704743208E+03  0.25705056942E+03  0.12700000000E+01 0.  1.
         25    2    1    2    0    0  0.00000000000E+00  0.00000000000E+00 -0.24188079373E+03  0.27227028751E+03  0.12499916433E+03 0.  0.
    9000005    1    3    3    0    0  0.10808742982E+02 -0.43561634671E+02 -0.21565359904E+03  0.22027691600E+03  0.10000000000E+01 0.  0.
    9000005    1    3    3    0    0 -0.10808742982E+02  0.43561634671E+02 -0.26227194689E+02  0.51993371513E+02  0.10000000000E+01 0.  0.
<mgrwt>
<rscale>  0 0.12499916E+03</rscale>
<asrwt>0</asrwt>
<pdfrwt beam="2">  1        4 0.64268871E-01 0.12499916E+03</pdfrwt>
<pdfrwt beam="1">  1       -4 0.37986876E-02 0.12499916E+03</pdfrwt>
<totfact> 0.13785706E+03</totfact>
</mgrwt>
</event>
<event>
 5    1  0.1430314E-002  0.1250047E+03  0.7818608E-02  0.1235062E+00
          4   -1    0    0  501    0  0.00000000000E+00  0.00000000000E+00  0.72626716102E+02  0.72637819294E+02  0.12700000000E+01 0. -1.
         -4   -1    0    0    0  501 -0.00000000000E+00 -0.00000000000E+00 -0.53766603445E+02  0.53781600441E+02  0.12700000000E+01 0. -1.
         25    2    1    2    0    0  0.00000000000E+00  0.00000000000E+00  0.18860112657E+02  0.12641941973E+03  0.12500466326E+03 0.  0.
    9000005    1    3    3    0    0  0.17924841696E+02  0.50866000596E+02 -0.22500870382E+02  0.58446036088E+02  0.10000000000E+01 0.  0.
    9000005    1    3    3    0    0 -0.17924841696E+02 -0.50866000596E+02  0.41360983038E+02  0.67973383647E+02  0.10000000000E+01 0.  0.
<mgrwt>
<rscale>  0 0.12500466E+03</rscale>
<asrwt>0</asrwt>
<pdfrwt beam="1">  1        4 0.18159941E-01 0.12500466E+03</pdfrwt>
<pdfrwt beam="2">  1       -4 0.13444913E-01 0.12500466E+03</pdfrwt>
<totfact> 0.19756117E+03</totfact>
</mgrwt>
</event>
<event>
 5    1  0.1430314E-002  0.1250033E+03  0.7818608E-02  0.1235064E+00
          4   -1    0    0  501    0  0.00000000000E+00  0.00000000000E+00  0.14579049538E+03  0.14579602684E+03  0.12700000000E+01 0. -1.
         -4   -1    0    0    0  501 -0.00000000000E+00 -0.00000000000E+00 -0.26773891855E+02  0.26803995692E+02  0.12700000000E+01 0. -1.
         25    2    1    2    0    0  0.00000000000E+00  0.00000000000E+00  0.11901660352E+03  0.17260002253E+03  0.12500326341E+03 0.  0.
    9000005    1    3    3    0    0 -0.49974562856E+02 -0.31855358993E+02  0.86889002006E+02  0.10518041405E+03  0.10000000000E+01 0.  0.
    9000005    1    3    3    0    0  0.49974562856E+02  0.31855358993E+02  0.32127601514E+02  0.67419608485E+02  0.10000000000E+01 0.  0.
<mgrwt>
<rscale>  0 0.12500326E+03</rscale>
<asrwt>0</asrwt>
<pdfrwt beam="1">  1        4 0.36452078E-01 0.12500326E+03</pdfrwt>
<pdfrwt beam="2">  1       -4 0.66979275E-02 0.12500326E+03</pdfrwt>
<totfact> 0.17479085E+03</totfact>
</mgrwt>
</event>
<event>
 5    1  0.1430314E-002  0.1249914E+03  0.7818608E-02  0.1235083E+00
          4   -1    0    0  501    0  0.00000000000E+00  0.00000000000E+00  0.68794470498E+03  0.68794587724E+03  0.12700000000E+01 0.  1.
         -4   -1    0    0    0  501 -0.00000000000E+00 -0.00000000000E+00 -0.56051476406E+01  0.57472236839E+01  0.12700000000E+01 0.  1.
         25    2    1    2    0    0  0.00000000000E+00  0.00000000000E+00  0.68233955734E+03  0.69369310092E+03  0.12499138673E+03 0.  0.
    9000005    1    3    3    0    0 -0.23156860811E+02  0.10749742286E+02  0.65770614668E+03  0.65820222769E+03  0.10000000000E+01 0.  0.
    9000005    1    3    3    0    0  0.23156860811E+02 -0.10749742286E+02  0.24633410662E+02  0.35490873231E+02  0.10000000000E+01 0.  0.
<mgrwt>
<rscale>  0 0.12499139E+03</rscale>
<asrwt>0</asrwt>
<pdfrwt beam="1">  1        4 0.17200403E+00 0.12499139E+03</pdfrwt>
<pdfrwt beam="2">  1       -4 0.14191934E-02 0.12499139E+03</pdfrwt>
<totfact> 0.62736462E+02</totfact>
</mgrwt>
</event>
<event>
 5    1  0.1430314E-002  0.1249985E+03  0.7818608E-02  0.1235072E+00
         -4   -1    0    0    0  501 -0.00000000000E+00  0.00000000000E+00  0.13561298784E+02  0.13620635987E+02  0.12700000000E+01 0.  1.
          4   -1    0    0  501    0  0.00000000000E+00 -0.00000000000E+00 -0.28734729335E+03  0.28735009987E+03  0.12700000000E+01 0.  1.
         25    2    1    2    0    0  0.00000000000E+00  0.00000000000E+00 -0.27378599456E+03  0.30097073586E+03  0.12499845208E+03 0.  0.
    9000005    1    3    3    0    0  0.45464552656E+02  0.42306225275E+02 -0.15362865153E+03  0.16570939870E+03  0.10000000000E+01 0.  0.
    9000005    1    3    3    0    0 -0.45464552656E+02 -0.42306225275E+02 -0.12015734303E+03  0.13526133716E+03  0.10000000000E+01 0.  0.
<mgrwt>
<rscale>  0 0.12499845E+03</rscale>
<asrwt>0</asrwt>
<pdfrwt beam="2">  1        4 0.71844571E-01 0.12499845E+03</pdfrwt>
<pdfrwt beam="1">  1       -4 0.33980936E-02 0.12499845E+03</pdfrwt>
<totfact> 0.12944354E+03</totfact>
</mgrwt>
</event>
<event>
 5    1  0.1430314E-002  0.1249949E+03  0.7818608E-02  0.1235077E+00
         -4   -1    0    0    0  501 -0.00000000000E+00  0.00000000000E+00  0.12375469494E+03  0.12376121129E+03  0.12700000000E+01 0. -1.
          4   -1    0    0  501    0  0.00000000000E+00 -0.00000000000E+00 -0.31541754481E+02  0.31567311824E+02  0.12700000000E+01 0. -1.
         25    2    1    2    0    0  0.00000000000E+00  0.00000000000E+00  0.92212940458E+02  0.15532852311E+03  0.12499489471E+03 0.  0.
    9000005    1    3    3    0    0  0.32205611115E+02  0.37841162857E+02 -0.98066538258E+00  0.49710327884E+02  0.10000000000E+01 0.  0.
    9000005    1    3    3    0    0 -0.32205611115E+02 -0.37841162857E+02  0.93193605841E+02  0.10561819523E+03  0.10000000000E+01 0.  0.
<mgrwt>
<rscale>  0 0.12499489E+03</rscale>
<asrwt>0</asrwt>
<pdfrwt beam="2">  1        4 0.78894479E-02 0.12499489E+03</pdfrwt>
<pdfrwt beam="1">  1       -4 0.30942683E-01 0.12499489E+03</pdfrwt>
<totfact> 0.18282013E+03</totfact>
</mgrwt>
</event>
<event>
 5    1  0.1430314E-002  0.1249993E+03  0.7818608E-02  0.1235070E+00
         -4   -1    0    0    0  501 -0.00000000000E+00  0.00000000000E+00  0.47357959946E+02  0.47374985702E+02  0.12700000000E+01 0.  1.
          4   -1    0    0  501    0  0.00000000000E+00 -0.00000000000E+00 -0.82445796672E+02  0.82455577670E+02  0.12700000000E+01 0.  1.
         25    2    1    2    0    0  0.00000000000E+00  0.00000000000E+00 -0.35087836726E+02  0.12983056337E+03  0.12499927559E+03 0.  0.
    9000005    1    3    3    0    0 -0.40326042033E+02 -0.21584754002E+02  0.26682516887E+02  0.52962703659E+02  0.10000000000E+01 0.  0.
    9000005    1    3    3    0    0  0.40326042033E+02  0.21584754002E+02 -0.61770353613E+02  0.76867859713E+02  0.10000000000E+01 0.  0.
<mgrwt>
<rscale>  0 0.12499928E+03</rscale>
<asrwt>0</asrwt>
<pdfrwt beam="2">  1        4 0.20614800E-01 0.12499928E+03</pdfrwt>
<pdfrwt beam="1">  1       -4 0.11842841E-01 0.12499928E+03</pdfrwt>
<totfact> 0.19573826E+03</totfact>
</mgrwt>
</event>
<event>
 5    1  0.1430314E-002  0.1250230E+03  0.7818608E-02  0.1235033E+00
          4   -1    0    0  501    0  0.00000000000E+00  0.00000000000E+00  0.14235440749E+03  0.14236007247E+03  0.12700000000E+01 0. -1.
         -4   -1    0    0    0  501 -0.00000000000E+00 -0.00000000000E+00 -0.27429498573E+02  0.27458883662E+02  0.12700000000E+01 0. -1.
         25    2    1    2    0    0  0.00000000000E+00  0.00000000000E+00  0.11492490892E+03  0.16981895613E+03  0.12502297057E+03 0.  0.
    9000005    1    3    3    0    0 -0.12527993288E+02 -0.18803275691E+02 -0.21694885563E+02  0.31339780665E+02  0.10000000000E+01 0.  0.
    9000005    1    3    3    0    0  0.12527993288E+02  0.18803275691E+02  0.13661979448E+03  0.13847917546E+03  0.10000000000E+01 0.  0.
<mgrwt>
<rscale>  0 0.12502297E+03</rscale>
<asrwt>0</asrwt>
<pdfrwt beam="1">  1        4 0.35592983E-01 0.12502297E+03</pdfrwt>
<pdfrwt beam="2">  1       -4 0.68617560E-02 0.12502297E+03</pdfrwt>
<totfact> 0.17595832E+03</totfact>
</mgrwt>
</event>
<event>
 5    1  0.1430314E-002  0.1250001E+03  0.7818608E-02  0.1235069E+00
         -4   -1    0    0    0  501 -0.00000000000E+00  0.00000000000E+00  0.29694052570E+02  0.29721198799E+02  0.12700000000E+01 0. -1.
          4   -1    0    0  501    0  0.00000000000E+00 -0.00000000000E+00 -0.13145972933E+03  0.13146586376E+03  0.12700000000E+01 0. -1.
         25    2    1    2    0    0  0.00000000000E+00  0.00000000000E+00 -0.10176567676E+03  0.16118706256E+03  0.12500006468E+03 0.  0.
    9000005    1    3    3    0    0  0.23145151026E+02  0.53878963341E+02 -0.23028136374E+02  0.63007426321E+02  0.10000000000E+01 0.  0.
    9000005    1    3    3    0    0 -0.23145151026E+02 -0.53878963341E+02 -0.78737540382E+02  0.98179636240E+02  0.10000000000E+01 0.  0.
<mgrwt>
<rscale>  0 0.12500006E+03</rscale>
<asrwt>0</asrwt>
<pdfrwt beam="2">  1        4 0.32869091E-01 0.12500006E+03</pdfrwt>
<pdfrwt beam="1">  1       -4 0.74276736E-02 0.12500006E+03</pdfrwt>
<totfact> 0.18002005E+03</totfact>
</mgrwt>
</event>
<event>
 5    1  0.1430314E-002  0.1249984E+03  0.7818608E-02  0.1235072E+00
          4   -1    0    0  501    0  0.00000000000E+00  0.00000000000E+00  0.14842935608E+03  0.14843478920E+03  0.12700000000E+01 0.  1.
         -4   -1    0    0    0  501 -0.00000000000E+00 -0.00000000000E+00 -0.26295309315E+02  0.26325960419E+02  0.12700000000E+01 0.  1.
         25    2    1    2    0    0  0.00000000000E+00  0.00000000000E+00  0.12213404676E+03  0.17476074962E+03  0.12499837691E+03 0.  0.
    9000005    1    3    3    0    0 -0.39736321748E+02 -0.25637248604E+02  0.39513496816E+01  0.47464270207E+02  0.10000000000E+01 0.  0.
    9000005    1    3    3    0    0  0.39736321748E+02  0.25637248604E+02  0.11818269708E+03  0.12729647941E+03  0.10000000000E+01 0.  0.
<mgrwt>
<rscale>  0 0.12499838E+03</rscale>
<asrwt>0</asrwt>
<pdfrwt beam="1">  1        4 0.37111850E-01 0.12499838E+03</pdfrwt>
<pdfrwt beam="2">  1       -4 0.65783379E-02 0.12499838E+03</pdfrwt>
<totfact> 0.17385085E+03</totfact>
</mgrwt>
</event>
<event>
 5    1  0.1430314E-002  0.1249992E+03  0.7818608E-02  0.1235071E+00
          4   -1    0    0  501    0  0.00000000000E+00  0.00000000000E+00  0.21664206471E+02  0.21701399540E+02  0.12700000000E+01 0. -1.
         -4   -1    0    0    0  501 -0.00000000000E+00 -0.00000000000E+00 -0.18011251349E+03  0.18011699092E+03  0.12700000000E+01 0. -1.
         25    2    1    2    0    0  0.00000000000E+00  0.00000000000E+00 -0.15844830702E+03  0.20181839046E+03  0.12499918691E+03 0.  0.
    9000005    1    3    3    0    0 -0.14207465205E+02  0.11740053798E+02 -0.17563255502E+03  0.17659976024E+03  0.10000000000E+01 0.  0.
    9000005    1    3    3    0    0  0.14207465205E+02 -0.11740053798E+02  0.17184248004E+02  0.25218630220E+02  0.10000000000E+01 0.  0.
<mgrwt>
<rscale>  0 0.12499919E+03</rscale>
<asrwt>0</asrwt>
<pdfrwt beam="1">  1        4 0.54212610E-02 0.12499919E+03</pdfrwt>
<pdfrwt beam="2">  1       -4 0.45033333E-01 0.12499919E+03</pdfrwt>
<totfact> 0.16249794E+03</totfact>
</mgrwt>
</event>
<event>
 5    1  0.1430314E-002  0.1249993E+03  0.7818608E-02  0.1235070E+00
         -4   -1    0    0    0  501 -0.00000000000E+00  0.00000000000E+00  0.34786381266E+02  0.34809556469E+02  0.12700000000E+01 0.  1.
          4   -1    0    0  501    0  0.00000000000E+00 -0.00000000000E+00 -0.11222703751E+03  0.11223422316E+03  0.12700000000E+01 0.  1.
         25    2    1    2    0    0  0.00000000000E+00  0.00000000000E+00 -0.77440656243E+02  0.14704377963E+03  0.12499927155E+03 0.  0.
    9000005    1    3    3    0    0  0.31756457006E+02  0.43906780665E+01  0.24381706007E+02  0.40289182211E+02  0.10000000000E+01 0.  0.
    9000005    1    3    3    0    0 -0.31756457006E+02 -0.43906780665E+01 -0.10182236225E+03  0.10675459742E+03  0.10000000000E+01 0.  0.
<mgrwt>
<rscale>  0 0.12499927E+03</rscale>
<asrwt>0</asrwt>
<pdfrwt beam="2">  1        4 0.28060554E-01 0.12499927E+03</pdfrwt>
<pdfrwt beam="1">  1       -4 0.87003907E-02 0.12499927E+03</pdfrwt>
<totfact> 0.18685417E+03</totfact>
</mgrwt>
</event>
<event>
 5    1  0.1430314E-002  0.1250002E+03  0.7818608E-02  0.1235069E+00
          4   -1    0    0  501    0  0.00000000000E+00  0.00000000000E+00  0.12715420682E+04  0.12715427024E+04  0.12700000000E+01 0.  1.
         -4   -1    0    0    0  501 -0.00000000000E+00 -0.00000000000E+00 -0.29401517057E+01  0.32027163553E+01  0.12700000000E+01 0.  1.
         25    2    1    2    0    0  0.00000000000E+00  0.00000000000E+00  0.12686019165E+04  0.12747454188E+04  0.12500024072E+03 0.  0.
    9000005    1    3    3    0    0 -0.36530872473E+02 -0.32317740671E+02  0.10327162351E+04  0.10338678654E+04  0.10000000000E+01 0.  0.
    9000005    1    3    3    0    0  0.36530872473E+02  0.32317740671E+02  0.23588568140E+03  0.24087755332E+03  0.10000000000E+01 0.  0.
<mgrwt>
<rscale>  0 0.12500024E+03</rscale>
<asrwt>0</asrwt>
<pdfrwt beam="1">  1        4 0.31791803E+00 0.12500024E+03</pdfrwt>
<pdfrwt beam="2">  1       -4 0.76793871E-03 0.12500024E+03</pdfrwt>
<totfact> 0.21486917E+02</totfact>
</mgrwt>
</event>
<event>
 5    1  0.1430314E-002  0.1249972E+03  0.7818608E-02  0.1235074E+00
          4   -1    0    0  501    0  0.00000000000E+00  0.00000000000E+00  0.71355707503E+02  0.71367008437E+02  0.12700000000E+01 0. -1.
         -4   -1    0    0    0  501 -0.00000000000E+00 -0.00000000000E+00 -0.54717920164E+02  0.54732656496E+02  0.12700000000E+01 0. -1.
         25    2    1    2    0    0  0.00000000000E+00  0.00000000000E+00  0.16637787339E+02  0.12609966493E+03  0.12499723808E+03 0.  0.
    9000005    1    3    3    0    0 -0.13964630197E+01  0.62462075450E+02  0.70363019542E+01  0.62880605306E+02  0.10000000000E+01 0.  0.
    9000005    1    3    3    0    0  0.13964630197E+01 -0.62462075450E+02  0.96014853850E+01  0.63219059627E+02  0.10000000000E+01 0.  0.
<mgrwt>
<rscale>  0 0.12499724E+03</rscale>
<asrwt>0</asrwt>
<pdfrwt beam="1">  1        4 0.17842181E-01 0.12499724E+03</pdfrwt>
<pdfrwt beam="2">  1       -4 0.13682735E-01 0.12499724E+03</pdfrwt>
<totfact> 0.19776813E+03</totfact>
</mgrwt>
</event>
<event>
 5    1  0.1430314E-002  0.1250045E+03  0.7818608E-02  0.1235062E+00
          4   -1    0    0  501    0  0.00000000000E+00  0.00000000000E+00  0.28268295723E+01  0.30990103954E+01  0.12700000000E+01 0. -1.
         -4   -1    0    0    0  501 -0.00000000000E+00 -0.00000000000E+00 -0.13182002526E+04  0.13182008643E+04  0.12700000000E+01 0. -1.
         25    2    1    2    0    0  0.00000000000E+00  0.00000000000E+00 -0.13153734230E+04  0.13212998747E+04  0.12500446822E+03 0.  0.
    9000005    1    3    3    0    0 -0.45541665636E+02 -0.35050980454E+02 -0.39814700820E+03  0.40227435249E+03  0.10000000000E+01 0.  0.
    9000005    1    3    3    0    0  0.45541665636E+02  0.35050980454E+02 -0.91722641480E+03  0.91902552225E+03  0.10000000000E+01 0.  0.
<mgrwt>
<rscale>  0 0.12500447E+03</rscale>
<asrwt>0</asrwt>
<pdfrwt beam="1">  1        4 0.74081099E-03 0.12500447E+03</pdfrwt>
<pdfrwt beam="2">  1       -4 0.32958215E+00 0.12500447E+03</pdfrwt>
<totfact> 0.19359718E+02</totfact>
</mgrwt>
</event>
<event>
 5    1  0.1430314E-002  0.1249982E+03  0.7818608E-02  0.1235072E+00
         -4   -1    0    0    0  501 -0.00000000000E+00  0.00000000000E+00  0.92355957459E+02  0.92364689023E+02  0.12700000000E+01 0.  1.
          4   -1    0    0  501    0  0.00000000000E+00 -0.00000000000E+00 -0.42274074406E+02  0.42293146807E+02  0.12700000000E+01 0.  1.
         25    2    1    2    0    0  0.00000000000E+00  0.00000000000E+00  0.50081883053E+02  0.13465783583E+03  0.12499815095E+03 0.  0.
    9000005    1    3    3    0    0  0.33948188663E+02  0.29758143512E+02 -0.21508314064E+02  0.50016339257E+02  0.10000000000E+01 0.  0.
    9000005    1    3    3    0    0 -0.33948188663E+02 -0.29758143512E+02  0.71590197118E+02  0.84641496573E+02  0.10000000000E+01 0.  0.
<mgrwt>
<rscale>  0 0.12499815E+03</rscale>
<asrwt>0</asrwt>
<pdfrwt beam="2">  1        4 0.10571994E-01 0.12499815E+03</pdfrwt>
<pdfrwt beam="1">  1       -4 0.23092465E-01 0.12499815E+03</pdfrwt>
<totfact> 0.19317907E+03</totfact>
</mgrwt>
</event>
<event>
 5    1  0.1430314E-002  0.1250065E+03  0.7818608E-02  0.1235059E+00
         -4   -1    0    0    0  501 -0.00000000000E+00  0.00000000000E+00  0.69232310359E+03  0.69232426843E+03  0.12700000000E+01 0. -1.
          4   -1    0    0  501    0  0.00000000000E+00 -0.00000000000E+00 -0.55701822153E+01  0.57131278571E+01  0.12700000000E+01 0. -1.
         25    2    1    2    0    0  0.00000000000E+00  0.00000000000E+00  0.68675292137E+03  0.69803739629E+03  0.12500652625E+03 0.  0.
    9000005    1    3    3    0    0 -0.34796391161E+02 -0.24521805145E+02  0.87878354220E+02  0.97650974935E+02  0.10000000000E+01 0.  0.
    9000005    1    3    3    0    0  0.34796391161E+02  0.24521805145E+02  0.59887456715E+03  0.60038642135E+03  0.10000000000E+01 0.  0.
<mgrwt>
<rscale>  0 0.12500653E+03</rscale>
<asrwt>0</asrwt>
<pdfrwt beam="2">  1        4 0.14105589E-02 0.12500653E+03</pdfrwt>
<pdfrwt beam="1">  1       -4 0.17309885E+00 0.12500653E+03</pdfrwt>
<totfact> 0.62260954E+02</totfact>
</mgrwt>
</event>
<event>
 5    1  0.1430314E-002  0.1249996E+03  0.7818608E-02  0.1235070E+00
         -4   -1    0    0    0  501 -0.00000000000E+00  0.00000000000E+00  0.70094881135E+02  0.70106385311E+02  0.12700000000E+01 0.  1.
          4   -1    0    0  501    0  0.00000000000E+00 -0.00000000000E+00 -0.55704406675E+02  0.55718882105E+02  0.12700000000E+01 0.  1.
         25    2    1    2    0    0  0.00000000000E+00  0.00000000000E+00  0.14390474460E+02  0.12582526742E+03  0.12499964866E+03 0.  0.
    9000005    1    3    3    0    0  0.21970312749E+02 -0.32195435667E+01  0.65994823286E+02  0.69637466953E+02  0.10000000000E+01 0.  0.
    9000005    1    3    3    0    0 -0.21970312749E+02  0.32195435667E+01 -0.51604348826E+02  0.56187800462E+02  0.10000000000E+01 0.  0.
<mgrwt>
<rscale>  0 0.12499965E+03</rscale>
<asrwt>0</asrwt>
<pdfrwt beam="2">  1        4 0.13929349E-01 0.12499965E+03</pdfrwt>
<pdfrwt beam="1">  1       -4 0.17526968E-01 0.12499965E+03</pdfrwt>
<totfact> 0.19790528E+03</totfact>
</mgrwt>
</event>
<event>
 5    1  0.1430314E-002  0.1249987E+03  0.7818608E-02  0.1235071E+00
          4   -1    0    0  501    0  0.00000000000E+00  0.00000000000E+00  0.37832394938E+03  0.37832608101E+03  0.12700000000E+01 0. -1.
         -4   -1    0    0    0  501 -0.00000000000E+00 -0.00000000000E+00 -0.10283708161E+02  0.10361831573E+02  0.12700000000E+01 0. -1.
         25    2    1    2    0    0  0.00000000000E+00  0.00000000000E+00  0.36804024122E+03  0.38868791258E+03  0.12499869693E+03 0.  0.
    9000005    1    3    3    0    0  0.41768278640E+02 -0.21100698842E+02  0.31280671316E+03  0.31628921637E+03  0.10000000000E+01 0.  0.
    9000005    1    3    3    0    0 -0.41768278640E+02  0.21100698842E+02  0.55233528058E+02  0.72398696217E+02  0.10000000000E+01 0.  0.
<mgrwt>
<rscale>  0 0.12499870E+03</rscale>
<asrwt>0</asrwt>
<pdfrwt beam="1">  1        4 0.94591023E-01 0.12499870E+03</pdfrwt>
<pdfrwt beam="2">  1       -4 0.25809588E-02 0.12499870E+03</pdfrwt>
<totfact> 0.10806300E+03</totfact>
</mgrwt>
</event>
<event>
 5    1  0.1430314E-002  0.1249985E+03  0.7818608E-02  0.1235072E+00
         -4   -1    0    0    0  501 -0.00000000000E+00  0.00000000000E+00  0.17559711219E+03  0.17560170474E+03  0.12700000000E+01 0.  1.
          4   -1    0    0  501    0  0.00000000000E+00 -0.00000000000E+00 -0.22221972671E+02  0.22258233744E+02  0.12700000000E+01 0.  1.
         25    2    1    2    0    0  0.00000000000E+00  0.00000000000E+00  0.15337513952E+03  0.19785993849E+03  0.12499848734E+03 0.  0.
    9000005    1    3    3    0    0 -0.15350425884E+02 -0.11116867409E+02  0.17094563177E+03  0.17199601547E+03  0.10000000000E+01 0.  0.
    9000005    1    3    3    0    0  0.15350425884E+02  0.11116867409E+02 -0.17570492254E+02  0.25863923018E+02  0.10000000000E+01 0.  0.
<mgrwt>
<rscale>  0 0.12499849E+03</rscale>
<asrwt>0</asrwt>
<pdfrwt beam="2">  1        4 0.55606000E-02 0.12499849E+03</pdfrwt>
<pdfrwt beam="1">  1       -4 0.43904383E-01 0.12499849E+03</pdfrwt>
<totfact> 0.16408667E+03</totfact>
</mgrwt>
</event>
<event>
 5    1  0.1430314E-002  0.1249999E+03  0.7818608E-02  0.1235069E+00
          4   -1    0    0  501    0  0.00000000000E+00  0.00000000000E+00  0.74661350139E+02  0.74672150796E+02  0.12700000000E+01 0. -1.
         -4   -1    0    0    0  501 -0.00000000000E+00 -0.00000000000E+00 -0.52297235316E+02  0.52312653552E+02  0.12700000000E+01 0. -1.
         25    2    1    2    0    0  0.00000000000E+00  0.00000000000E+00  0.22364114823E+02  0.12698480435E+03  0.12499994761E+03 0.  0.
    9000005    1    3    3    0    0 -0.35886589349E+02 -0.49834657500E+02 -0.57348025365E+00  0.61422058439E+02  0.10000000000E+01 0.  0.
    9000005    1    3    3    0    0  0.35886589349E+02  0.49834657500E+02  0.22937595077E+02  0.65562745910E+02  0.10000000000E+01 0.  0.
<mgrwt>
<rscale>  0 0.12499995E+03</rscale>
<asrwt>0</asrwt>
<pdfrwt beam="1">  1        4 0.18668615E-01 0.12499995E+03</pdfrwt>
<pdfrwt beam="2">  1       -4 0.13077586E-01 0.12499995E+03</pdfrwt>
<totfact> 0.19727820E+03</totfact>
</mgrwt>
</event>
<event>
 5    1  0.1430314E-002  0.1250040E+03  0.7818608E-02  0.1235063E+00
          4   -1    0    0  501    0  0.00000000000E+00  0.00000000000E+00  0.29371912808E+02  0.29399356490E+02  0.12700000000E+01 0. -1.
         -4   -1    0    0    0  501 -0.00000000000E+00 -0.00000000000E+00 -0.13290854799E+03  0.13291461556E+03  0.12700000000E+01 0. -1.
         25    2    1    2    0    0  0.00000000000E+00  0.00000000000E+00 -0.10353663518E+03  0.16231397205E+03  0.12500396273E+03 0.  0.
    9000005    1    3    3    0    0  0.10706399803E+02 -0.53171332468E+02 -0.92076996638E+02  0.10686903622E+03  0.10000000000E+01 0.  0.
    9000005    1    3    3    0    0 -0.10706399803E+02  0.53171332468E+02 -0.11459638545E+02  0.55444935826E+02  0.10000000000E+01 0.  0.
<mgrwt>
<rscale>  0 0.12500396E+03</rscale>
<asrwt>0</asrwt>
<pdfrwt beam="1">  1        4 0.73471675E-02 0.12500396E+03</pdfrwt>
<pdfrwt beam="2">  1       -4 0.33231324E-01 0.12500396E+03</pdfrwt>
<totfact> 0.17947744E+03</totfact>
</mgrwt>
</event>
<event>
 4    1  0.1430314E-002  0.1250800E+03  0.7818608E-02  0.1234944E+00
         -4   -1    0    0    0  501 -0.00000000000E+00  0.00000000000E+00  0.79847143025E+02  0.79857242309E+02  0.12700000000E+01 0.  1.
          4   -1    0    0  501    0  0.00000000000E+00 -0.00000000000E+00 -0.48962785363E+02  0.48979253266E+02  0.12700000000E+01 0.  1.
    9000005    1    1    2    0    0  0.36000746177E+02  0.27191583715E+02  0.60041700901E+02  0.75109532000E+02  0.10000000000E+01 0.  0.
    9000005    1    1    2    0    0 -0.36000746177E+02 -0.27191583715E+02 -0.29157343240E+02  0.53726963575E+02  0.10000000000E+01 0.  0.
<mgrwt>
<rscale>  0 0.12507997E+03</rscale>
<asrwt>0</asrwt>
<pdfrwt beam="2">  1        4 0.12244017E-01 0.12507997E+03</pdfrwt>
<pdfrwt beam="1">  1       -4 0.19965106E-01 0.12507997E+03</pdfrwt>
<totfact> 0.19590549E+03</totfact>
</mgrwt>
</event>
<event>
 5    1  0.1430314E-002  0.1249993E+03  0.7818608E-02  0.1235070E+00
         -4   -1    0    0    0  501 -0.00000000000E+00  0.00000000000E+00  0.88847039351E+01  0.89750133155E+01  0.12700000000E+01 0.  1.
          4   -1    0    0  501    0  0.00000000000E+00 -0.00000000000E+00 -0.43734070795E+03  0.43734255193E+03  0.12700000000E+01 0.  1.
         25    2    1    2    0    0  0.00000000000E+00  0.00000000000E+00 -0.42845600402E+03  0.44631756525E+03  0.12499928669E+03 0.  0.
    9000005    1    3    3    0    0  0.31902077421E+02  0.31157387353E+02 -0.37054681913E+03  0.37322174441E+03  0.10000000000E+01 0.  0.
    9000005    1    3    3    0    0 -0.31902077421E+02 -0.31157387353E+02 -0.57909184887E+02  0.73095820843E+02  0.10000000000E+01 0.  0.
<mgrwt>
<rscale>  0 0.12499929E+03</rscale>
<asrwt>0</asrwt>
<pdfrwt beam="2">  1        4 0.10934662E+00 0.12499929E+03</pdfrwt>
<pdfrwt beam="1">  1       -4 0.22326966E-02 0.12499929E+03</pdfrwt>
<totfact> 0.96683498E+02</totfact>
</mgrwt>
</event>
<event>
 5    1  0.1430314E-002  0.1250028E+03  0.7818608E-02  0.1235065E+00
          4   -1    0    0  501    0  0.00000000000E+00  0.00000000000E+00  0.51652670732E+02  0.51668281312E+02  0.12700000000E+01 0. -1.
         -4   -1    0    0    0  501 -0.00000000000E+00 -0.00000000000E+00 -0.75596320211E+02  0.75606987305E+02  0.12700000000E+01 0. -1.
         25    2    1    2    0    0  0.00000000000E+00  0.00000000000E+00 -0.23943649479E+02  0.12727526862E+03  0.12500278257E+03 0.  0.
    9000005    1    3    3    0    0 -0.49794056779E+01 -0.48855930342E+02 -0.51323210473E+02  0.71040610525E+02  0.10000000000E+01 0.  0.
    9000005    1    3    3    0    0  0.49794056779E+01  0.48855930342E+02  0.27379560995E+02  0.56234658092E+02  0.10000000000E+01 0.  0.
<mgrwt>
<rscale>  0 0.12500278E+03</rscale>
<asrwt>0</asrwt>
<pdfrwt beam="1">  1        4 0.12916452E-01 0.12500278E+03</pdfrwt>
<pdfrwt beam="2">  1       -4 0.18902365E-01 0.12500278E+03</pdfrwt>
<totfact> 0.19710782E+03</totfact>
</mgrwt>
</event>
<event>
 5    1  0.1430314E-002  0.1250030E+03  0.7818608E-02  0.1235065E+00
          4   -1    0    0  501    0  0.00000000000E+00  0.00000000000E+00  0.15405054572E+03  0.15405578060E+03  0.12700000000E+01 0. -1.
         -4   -1    0    0    0  501 -0.00000000000E+00 -0.00000000000E+00 -0.25336576651E+02  0.25368386161E+02  0.12700000000E+01 0. -1.
         25    2    1    2    0    0  0.00000000000E+00  0.00000000000E+00  0.12871396907E+03  0.17942416676E+03  0.12500298310E+03 0.  0.
    9000005    1    3    3    0    0 -0.30052443945E+02  0.43868809398E+02  0.11147994818E+03  0.12351680319E+03  0.10000000000E+01 0.  0.
    9000005    1    3    3    0    0  0.30052443945E+02 -0.43868809398E+02  0.17234020889E+02  0.55907363568E+02  0.10000000000E+01 0.  0.
<mgrwt>
<rscale>  0 0.12500298E+03</rscale>
<asrwt>0</asrwt>
<pdfrwt beam="1">  1        4 0.38517266E-01 0.12500298E+03</pdfrwt>
<pdfrwt beam="2">  1       -4 0.63387749E-02 0.12500298E+03</pdfrwt>
<totfact> 0.17178979E+03</totfact>
</mgrwt>
</event>
<event>
 5    1  0.1430314E-002  0.1250017E+03  0.7818608E-02  0.1235067E+00
         -4   -1    0    0    0  501 -0.00000000000E+00  0.00000000000E+00  0.46119728893E+02  0.46137211589E+02  0.12700000000E+01 0. -1.
          4   -1    0    0  501    0  0.00000000000E+00 -0.00000000000E+00 -0.84662071433E+02  0.84671596414E+02  0.12700000000E+01 0. -1.
         25    2    1    2    0    0  0.00000000000E+00  0.00000000000E+00 -0.38542342540E+02  0.13080880800E+03  0.12500172832E+03 0.  0.
    9000005    1    3    3    0    0  0.51739381303E+02 -0.35026934972E+02 -0.17986001645E+02  0.65025733416E+02  0.10000000000E+01 0.  0.
    9000005    1    3    3    0    0 -0.51739381303E+02  0.35026934972E+02 -0.20556340896E+02  0.65783074587E+02  0.10000000000E+01 0.  0.
<mgrwt>
<rscale>  0 0.12500173E+03</rscale>
<asrwt>0</asrwt>
<pdfrwt beam="2">  1        4 0.21168894E-01 0.12500173E+03</pdfrwt>
<pdfrwt beam="1">  1       -4 0.11533308E-01 0.12500173E+03</pdfrwt>
<totfact> 0.19520213E+03</totfact>
</mgrwt>
</event>
<event>
 5    1  0.1430314E-002  0.1250190E+03  0.7818608E-02  0.1235040E+00
         -4   -1    0    0    0  501 -0.00000000000E+00  0.00000000000E+00  0.12287386350E+02  0.12352844341E+02  0.12700000000E+01 0. -1.
          4   -1    0    0  501    0  0.00000000000E+00 -0.00000000000E+00 -0.31709221476E+03  0.31709475802E+03  0.12700000000E+01 0. -1.
         25    2    1    2    0    0  0.00000000000E+00  0.00000000000E+00 -0.30480482841E+03  0.32944760236E+03  0.12501895567E+03 0.  0.
    9000005    1    3    3    0    0 -0.42629592009E+02  0.31194239838E+02 -0.24043766612E+03  0.24617399132E+03  0.10000000000E+01 0.  0.
    9000005    1    3    3    0    0  0.42629592009E+02 -0.31194239838E+02 -0.64367162292E+02  0.83273611039E+02  0.10000000000E+01 0.  0.
<mgrwt>
<rscale>  0 0.12501896E+03</rscale>
<asrwt>0</asrwt>
<pdfrwt beam="2">  1        4 0.79281527E-01 0.12501896E+03</pdfrwt>
<pdfrwt beam="1">  1       -4 0.30803478E-02 0.12501896E+03</pdfrwt>
<totfact> 0.12178822E+03</totfact>
</mgrwt>
</event>
<event>
 5    1  0.1430314E-002  0.1249991E+03  0.7818608E-02  0.1235071E+00
          4   -1    0    0  501    0  0.00000000000E+00  0.00000000000E+00  0.23066425752E+03  0.23066775370E+03  0.12700000000E+01 0.  1.
         -4   -1    0    0    0  501 -0.00000000000E+00 -0.00000000000E+00 -0.16907104422E+02  0.16954736210E+02  0.12700000000E+01 0.  1.
         25    2    1    2    0    0  0.00000000000E+00  0.00000000000E+00  0.21375715310E+03  0.24762248991E+03  0.12499910803E+03 0.  0.
    9000005    1    3    3    0    0 -0.52906461955E+02  0.32970605920E+02  0.98234611462E+02  0.11634944547E+03  0.10000000000E+01 0.  0.
    9000005    1    3    3    0    0  0.52906461955E+02 -0.32970605920E+02  0.11552254163E+03  0.13127304444E+03  0.10000000000E+01 0.  0.
<mgrwt>
<rscale>  0 0.12499911E+03</rscale>
<asrwt>0</asrwt>
<pdfrwt beam="1">  1        4 0.57672455E-01 0.12499911E+03</pdfrwt>
<pdfrwt beam="2">  1       -4 0.42331671E-02 0.12499911E+03</pdfrwt>
<totfact> 0.14577708E+03</totfact>
</mgrwt>
</event>
<event>
 5    1  0.1430314E-002  0.1249943E+03  0.7818608E-02  0.1235078E+00
          4   -1    0    0  501    0  0.00000000000E+00  0.00000000000E+00  0.76469847589E+03  0.76469953049E+03  0.12700000000E+01 0.  1.
         -4   -1    0    0    0  501 -0.00000000000E+00 -0.00000000000E+00 -0.50277345865E+01  0.51856547390E+01  0.12700000000E+01 0.  1.
         25    2    1    2    0    0  0.00000000000E+00  0.00000000000E+00  0.75967074130E+03  0.76988518523E+03  0.12499425282E+03 0.  0.
    9000005    1    3    3    0    0 -0.18308891576E+02 -0.19025294247E+01  0.74765082923E+03  0.74787806331E+03  0.10000000000E+01 0.  0.
    9000005    1    3    3    0    0  0.18308891576E+02  0.19025294247E+01  0.12019912076E+02  0.22007121921E+02  0.10000000000E+01 0.  0.
<mgrwt>
<rscale>  0 0.12499425E+03</rscale>
<asrwt>0</asrwt>
<pdfrwt beam="1">  1        4 0.19119450E+00 0.12499425E+03</pdfrwt>
<pdfrwt beam="2">  1       -4 0.12768054E-02 0.12499425E+03</pdfrwt>
<totfact> 0.55210493E+02</totfact>
</mgrwt>
</event>
<event>
 5    1  0.1430314E-002  0.1250006E+03  0.7818608E-02  0.1235068E+00
         -4   -1    0    0    0  501 -0.00000000000E+00  0.00000000000E+00  0.16947177347E+03  0.16947653202E+03  0.12700000000E+01 0.  1.
          4   -1    0    0  501    0  0.00000000000E+00 -0.00000000000E+00 -0.23027218425E+02  0.23062213432E+02  0.12700000000E+01 0.  1.
         25    2    1    2    0    0  0.00000000000E+00  0.00000000000E+00  0.14644455505E+03  0.19253874545E+03  0.12500064318E+03 0.  0.
    9000005    1    3    3    0    0 -0.16993135233E+02  0.33244206331E+02  0.15041194886E+03  0.15497967047E+03  0.10000000000E+01 0.  0.
    9000005    1    3    3    0    0  0.16993135233E+02 -0.33244206331E+02 -0.39673938100E+01  0.37559074979E+02  0.10000000000E+01 0.  0.
<mgrwt>
<rscale>  0 0.12500064E+03</rscale>
<asrwt>0</asrwt>
<pdfrwt beam="2">  1        4 0.57617739E-02 0.12500064E+03</pdfrwt>
<pdfrwt beam="1">  1       -4 0.42372912E-01 0.12500064E+03</pdfrwt>
<totfact> 0.16624979E+03</totfact>
</mgrwt>
</event>
<event>
 5    1  0.1430314E-002  0.1249991E+03  0.7818608E-02  0.1235071E+00
          4   -1    0    0  501    0  0.00000000000E+00  0.00000000000E+00  0.23317088684E+02  0.23351649293E+02  0.12700000000E+01 0.  1.
         -4   -1    0    0    0  501 -0.00000000000E+00 -0.00000000000E+00 -0.16736386924E+03  0.16736868771E+03  0.12700000000E+01 0.  1.
         25    2    1    2    0    0  0.00000000000E+00  0.00000000000E+00 -0.14404678055E+03  0.19072033700E+03  0.12499908783E+03 0.  0.
    9000005    1    3    3    0    0  0.34635719878E+02 -0.31986856807E+02 -0.13460617824E+03  0.14262754054E+03  0.10000000000E+01 0.  0.
    9000005    1    3    3    0    0 -0.34635719878E+02  0.31986856807E+02 -0.94406023147E+01  0.48092796466E+02  0.10000000000E+01 0.  0.
<mgrwt>
<rscale>  0 0.12499909E+03</rscale>
<asrwt>0</asrwt>
<pdfrwt beam="1">  1        4 0.58341950E-02 0.12499909E+03</pdfrwt>
<pdfrwt beam="2">  1       -4 0.41845886E-01 0.12499909E+03</pdfrwt>
<totfact> 0.16700836E+03</totfact>
</mgrwt>
</event>
<event>
 5    1  0.1430314E-002  0.1250094E+03  0.7818608E-02  0.1235055E+00
         -4   -1    0    0    0  501 -0.00000000000E+00  0.00000000000E+00  0.75481142648E+03  0.75481249489E+03  0.12700000000E+01 0.  1.
          4   -1    0    0  501    0  0.00000000000E+00 -0.00000000000E+00 -0.50969228623E+01  0.52527633360E+01  0.12700000000E+01 0.  1.
         25    2    1    2    0    0  0.00000000000E+00  0.00000000000E+00  0.74971450362E+03  0.76006525823E+03  0.12500943896E+03 0.  0.
    9000005    1    3    3    0    0 -0.21504067581E+02  0.20922170950E+02  0.41523502376E+02  0.51238300219E+02  0.10000000000E+01 0.  0.
    9000005    1    3    3    0    0  0.21504067581E+02 -0.20922170950E+02  0.70819100124E+03  0.70882695801E+03  0.10000000000E+01 0.  0.
<mgrwt>
<rscale>  0 0.12500944E+03</rscale>
<asrwt>0</asrwt>
<pdfrwt beam="2">  1        4 0.12938440E-02 0.12500944E+03</pdfrwt>
<pdfrwt beam="1">  1       -4 0.18872252E+00 0.12500944E+03</pdfrwt>
<totfact> 0.56105350E+02</totfact>
</mgrwt>
</event>
<event>
 5    1  0.1430314E-002  0.1249988E+03  0.7818608E-02  0.1235071E+00
          4   -1    0    0  501    0  0.00000000000E+00  0.00000000000E+00  0.86204162003E+01  0.87134651814E+01  0.12700000000E+01 0. -1.
         -4   -1    0    0    0  501 -0.00000000000E+00 -0.00000000000E+00 -0.45060444267E+03  0.45060623237E+03  0.12700000000E+01 0. -1.
         25    2    1    2    0    0  0.00000000000E+00  0.00000000000E+00 -0.44198402647E+03  0.45931969756E+03  0.12499881963E+03 0.  0.
    9000005    1    3    3    0    0  0.91597627339E+00  0.60776079906E+01 -0.44950911051E+03  0.44955224030E+03  0.10000000000E+01 0.  0.
    9000005    1    3    3    0    0 -0.91597627339E+00 -0.60776079906E+01  0.75250840375E+01  0.97674572532E+01  0.10000000000E+01 0.  0.
<mgrwt>
<rscale>  0 0.12499882E+03</rscale>
<asrwt>0</asrwt>
<pdfrwt beam="1">  1        4 0.21669604E-02 0.12499882E+03</pdfrwt>
<pdfrwt beam="2">  1       -4 0.11266289E+00 0.12499882E+03</pdfrwt>
<totfact> 0.94370102E+02</totfact>
</mgrwt>
</event>
<event>
 5    1  0.1430314E-002  0.1250002E+03  0.7818608E-02  0.1235069E+00
         -4   -1    0    0    0  501 -0.00000000000E+00  0.00000000000E+00  0.65827356783E+03  0.65827479292E+03  0.12700000000E+01 0. -1.
          4   -1    0    0  501    0  0.00000000000E+00 -0.00000000000E+00 -0.58649098491E+01  0.60008389029E+01  0.12700000000E+01 0. -1.
         25    2    1    2    0    0  0.00000000000E+00  0.00000000000E+00  0.65240865798E+03  0.66427563183E+03  0.12500023214E+03 0.  0.
    9000005    1    3    3    0    0  0.58475497464E+02 -0.84764852641E+01  0.21807254806E+03  0.22593775874E+03  0.10000000000E+01 0.  0.
    9000005    1    3    3    0    0 -0.58475497464E+02  0.84764852641E+01  0.43433610992E+03  0.43833787309E+03  0.10000000000E+01 0.  0.
<mgrwt>
<rscale>  0 0.12500023E+03</rscale>
<asrwt>0</asrwt>
<pdfrwt beam="2">  1        4 0.14833720E-02 0.12500023E+03</pdfrwt>
<pdfrwt beam="1">  1       -4 0.16458551E+00 0.12500023E+03</pdfrwt>
<totfact> 0.65900573E+02</totfact>
</mgrwt>
</event>
<event>
 5    1  0.1430314E-002  0.1250014E+03  0.7818608E-02  0.1235067E+00
          4   -1    0    0  501    0  0.00000000000E+00  0.00000000000E+00  0.11823612428E+04  0.11823619249E+04  0.12700000000E+01 0. -1.
         -4   -1    0    0    0  501 -0.00000000000E+00 -0.00000000000E+00 -0.31810871965E+01  0.34252322187E+01  0.12700000000E+01 0. -1.
         25    2    1    2    0    0  0.00000000000E+00  0.00000000000E+00  0.11791801556E+04  0.11857871571E+04  0.12500137016E+03 0.  0.
    9000005    1    3    3    0    0 -0.20677108177E+02 -0.57209157242E+02  0.72538027432E+03  0.72792717551E+03  0.10000000000E+01 0.  0.
    9000005    1    3    3    0    0  0.20677108177E+02  0.57209157242E+02  0.45379988131E+03  0.45785998160E+03  0.10000000000E+01 0.  0.
<mgrwt>
<rscale>  0 0.12500137E+03</rscale>
<asrwt>0</asrwt>
<pdfrwt beam="1">  1        4 0.29562067E+00 0.12500137E+03</pdfrwt>
<pdfrwt beam="2">  1       -4 0.82587587E-03 0.12500137E+03</pdfrwt>
<totfact> 0.25952173E+02</totfact>
</mgrwt>
</event>
<event>
 5    1  0.1430314E-002  0.1249995E+03  0.7818608E-02  0.1235070E+00
         -4   -1    0    0    0  501 -0.00000000000E+00  0.00000000000E+00  0.11805650505E+03  0.11806333590E+03  0.12700000000E+01 0. -1.
          4   -1    0    0  501    0  0.00000000000E+00 -0.00000000000E+00 -0.33067748324E+02  0.33092127148E+02  0.12700000000E+01 0. -1.
         25    2    1    2    0    0  0.00000000000E+00  0.00000000000E+00  0.84988756726E+02  0.15115546305E+03  0.12499954096E+03 0.  0.
    9000005    1    3    3    0    0  0.27552908376E+02 -0.45345800779E+02  0.25742251505E+01  0.53132203449E+02  0.10000000000E+01 0.  0.
    9000005    1    3    3    0    0 -0.27552908376E+02  0.45345800779E+02  0.82414531575E+02  0.98023259602E+02  0.10000000000E+01 0.  0.
<mgrwt>
<rscale>  0 0.12499954E+03</rscale>
<asrwt>0</asrwt>
<pdfrwt beam="2">  1        4 0.82708384E-02 0.12499954E+03</pdfrwt>
<pdfrwt beam="1">  1       -4 0.29518027E-01 0.12499954E+03</pdfrwt>
<totfact> 0.18482310E+03</totfact>
</mgrwt>
</event>
<event>
 5    1  0.1430314E-002  0.1250024E+03  0.7818608E-02  0.1235065E+00
         -4   -1    0    0    0  501 -0.00000000000E+00  0.00000000000E+00  0.51216821771E+01  0.52767914800E+01  0.12700000000E+01 0.  1.
          4   -1    0    0  501    0  0.00000000000E+00 -0.00000000000E+00 -0.75118576873E+03  0.75118684230E+03  0.12700000000E+01 0.  1.
         25    2    1    2    0    0  0.00000000000E+00  0.00000000000E+00 -0.74606408655E+03  0.75646363378E+03  0.12500243192E+03 0.  0.
    9000005    1    3    3    0    0  0.64897795082E+01 -0.48184196756E+02 -0.13542958624E+03  0.14389581955E+03  0.10000000000E+01 0.  0.
    9000005    1    3    3    0    0 -0.64897795082E+01  0.48184196756E+02 -0.61063450031E+03  0.61256781423E+03  0.10000000000E+01 0.  0.
<mgrwt>
<rscale>  0 0.12500243E+03</rscale>
<asrwt>0</asrwt>
<pdfrwt beam="2">  1        4 0.18781559E+00 0.12500243E+03</pdfrwt>
<pdfrwt beam="1">  1       -4 0.12999460E-02 0.12500243E+03</pdfrwt>
<totfact> 0.56453450E+02</totfact>
</mgrwt>
</event>
<event>
 5    1  0.1430314E-002  0.1249951E+03  0.7818608E-02  0.1235077E+00
          4   -1    0    0  501    0  0.00000000000E+00  0.00000000000E+00  0.91724488444E+02  0.91733280113E+02  0.12700000000E+01 0.  1.
         -4   -1    0    0    0  501 -0.00000000000E+00 -0.00000000000E+00 -0.42563122082E+02  0.42582065020E+02  0.12700000000E+01 0.  1.
         25    2    1    2    0    0  0.00000000000E+00  0.00000000000E+00  0.49161366362E+02  0.13431534513E+03  0.12499508789E+03 0.  0.
    9000005    1    3    3    0    0  0.55564122400E+02 -0.66753690888E+01 -0.52955233118E+01  0.56222547236E+02  0.10000000000E+01 0.  0.
    9000005    1    3    3    0    0 -0.55564122400E+02  0.66753690888E+01  0.54456889674E+02  0.78092797898E+02  0.10000000000E+01 0.  0.
<mgrwt>
<rscale>  0 0.12499509E+03</rscale>
<asrwt>0</asrwt>
<pdfrwt beam="1">  1        4 0.22934589E-01 0.12499509E+03</pdfrwt>
<pdfrwt beam="2">  1       -4 0.10644247E-01 0.12499509E+03</pdfrwt>
<totfact> 0.19337275E+03</totfact>
</mgrwt>
</event>
<event>
 5    1  0.1430314E-002  0.1250003E+03  0.7818608E-02  0.1235069E+00
          4   -1    0    0  501    0  0.00000000000E+00  0.00000000000E+00  0.13535027839E+03  0.13535623650E+03  0.12700000000E+01 0. -1.
         -4   -1    0    0    0  501 -0.00000000000E+00 -0.00000000000E+00 -0.28839892569E+02  0.28867842029E+02  0.12700000000E+01 0. -1.
         25    2    1    2    0    0  0.00000000000E+00  0.00000000000E+00  0.10651038582E+03  0.16422407853E+03  0.12500034273E+03 0.  0.
    9000005    1    3    3    0    0 -0.43655671051E+02 -0.40190119506E+02  0.79007069834E+02  0.98813867471E+02  0.10000000000E+01 0.  0.
    9000005    1    3    3    0    0  0.43655671051E+02  0.40190119506E+02  0.27503315987E+02  0.65410211061E+02  0.10000000000E+01 0.  0.
<mgrwt>
<rscale>  0 0.12500034E+03</rscale>
<asrwt>0</asrwt>
<pdfrwt beam="1">  1        4 0.33841807E-01 0.12500034E+03</pdfrwt>
<pdfrwt beam="2">  1       -4 0.72142117E-02 0.12500034E+03</pdfrwt>
<totfact> 0.17860614E+03</totfact>
</mgrwt>
</event>
<event>
 5    1  0.1430314E-002  0.1250007E+03  0.7818608E-02  0.1235068E+00
         -4   -1    0    0    0  501 -0.00000000000E+00  0.00000000000E+00  0.17543262989E+02  0.17589172132E+02  0.12700000000E+01 0.  1.
          4   -1    0    0  501    0  0.00000000000E+00 -0.00000000000E+00 -0.22232756497E+03  0.22233119225E+03  0.12700000000E+01 0.  1.
         25    2    1    2    0    0  0.00000000000E+00  0.00000000000E+00 -0.20478430198E+03  0.23992036438E+03  0.12500068362E+03 0.  0.
    9000005    1    3    3    0    0 -0.38369429998E+02 -0.12308994284E+01 -0.19703713828E+03  0.20074451956E+03  0.10000000000E+01 0.  0.
    9000005    1    3    3    0    0  0.38369429998E+02  0.12308994284E+01 -0.77471637019E+01  0.39175844818E+02  0.10000000000E+01 0.  0.
<mgrwt>
<rscale>  0 0.12500068E+03</rscale>
<asrwt>0</asrwt>
<pdfrwt beam="2">  1        4 0.55588074E-01 0.12500068E+03</pdfrwt>
<pdfrwt beam="1">  1       -4 0.43920085E-02 0.12500068E+03</pdfrwt>
<totfact> 0.14838963E+03</totfact>
</mgrwt>
</event>
<event>
 5    1  0.1430314E-002  0.1250282E+03  0.7818608E-02  0.1235025E+00
          4   -1    0    0  501    0  0.00000000000E+00  0.00000000000E+00  0.54596459176E+03  0.54596606887E+03  0.12700000000E+01 0.  1.
         -4   -1    0    0    0  501 -0.00000000000E+00 -0.00000000000E+00 -0.71001694844E+01  0.72128570420E+01  0.12700000000E+01 0.  1.
         25    2    1    2    0    0  0.00000000000E+00  0.00000000000E+00  0.53886442227E+03  0.55317892591E+03  0.12502823072E+03 0.  0.
    9000005    1    3    3    0    0 -0.33034178082E+02  0.48066859667E+02  0.36889190120E+03  0.37347545394E+03  0.10000000000E+01 0.  0.
    9000005    1    3    3    0    0  0.33034178082E+02 -0.48066859667E+02  0.16997252107E+03  0.17970347197E+03  0.10000000000E+01 0.  0.
<mgrwt>
<rscale>  0 0.12502823E+03</rscale>
<asrwt>0</asrwt>
<pdfrwt beam="1">  1        4 0.13650541E+00 0.12502823E+03</pdfrwt>
<pdfrwt beam="2">  1       -4 0.17893130E-02 0.12502823E+03</pdfrwt>
<totfact> 0.79674605E+02</totfact>
</mgrwt>
</event>
<event>
 5    1  0.1430314E-002  0.1249975E+03  0.7818608E-02  0.1235073E+00
          4   -1    0    0  501    0  0.00000000000E+00  0.00000000000E+00  0.36670490444E+03  0.36670710361E+03  0.12700000000E+01 0.  1.
         -4   -1    0    0    0  501 -0.00000000000E+00 -0.00000000000E+00 -0.10611778218E+02  0.10687503775E+02  0.12700000000E+01 0.  1.
         25    2    1    2    0    0  0.00000000000E+00  0.00000000000E+00  0.35609312622E+03  0.37739460738E+03  0.12499750055E+03 0.  0.
    9000005    1    3    3    0    0  0.57594348479E+02  0.14411079108E+02  0.11916752234E+03  0.13314160341E+03  0.10000000000E+01 0.  0.
    9000005    1    3    3    0    0 -0.57594348479E+02 -0.14411079108E+02  0.23692560388E+03  0.24425300397E+03  0.10000000000E+01 0.  0.
<mgrwt>
<rscale>  0 0.12499750E+03</rscale>
<asrwt>0</asrwt>
<pdfrwt beam="1">  1        4 0.91685972E-01 0.12499750E+03</pdfrwt>
<pdfrwt beam="2">  1       -4 0.26626850E-02 0.12499750E+03</pdfrwt>
<totfact> 0.11050777E+03</totfact>
</mgrwt>
</event>
<event>
 5    1  0.1430314E-002  0.1250108E+03  0.7818608E-02  0.1235052E+00
         -4   -1    0    0    0  501 -0.00000000000E+00  0.00000000000E+00  0.80745084487E+01  0.81737743233E+01  0.12700000000E+01 0.  1.
          4   -1    0    0  501    0  0.00000000000E+00 -0.00000000000E+00 -0.48080274438E+03  0.48080442168E+03  0.12700000000E+01 0.  1.
         25    2    1    2    0    0  0.00000000000E+00  0.00000000000E+00 -0.47272823593E+03  0.48897819600E+03  0.12501076400E+03 0.  0.
    9000005    1    3    3    0    0 -0.50093307470E+02 -0.33612807172E+02 -0.30024994041E+03  0.30625183587E+03  0.10000000000E+01 0.  0.
    9000005    1    3    3    0    0  0.50093307470E+02  0.33612807172E+02 -0.17247829553E+03  0.18272636013E+03  0.10000000000E+01 0.  0.
<mgrwt>
<rscale>  0 0.12501076E+03</rscale>
<asrwt>0</asrwt>
<pdfrwt beam="2">  1        4 0.12021321E+00 0.12501076E+03</pdfrwt>
<pdfrwt beam="1">  1       -4 0.20312466E-02 0.12501076E+03</pdfrwt>
<totfact> 0.89364339E+02</totfact>
</mgrwt>
</event>
<event>
 5    1  0.1430314E-002  0.1250029E+03  0.7818608E-02  0.1235065E+00
         -4   -1    0    0    0  501 -0.00000000000E+00  0.00000000000E+00  0.62531660716E+03  0.62531789683E+03  0.12700000000E+01 0.  1.
          4   -1    0    0  501    0  0.00000000000E+00 -0.00000000000E+00 -0.61812666057E+01  0.63103848417E+01  0.12700000000E+01 0.  1.
         25    2    1    2    0    0  0.00000000000E+00  0.00000000000E+00  0.61913534055E+03  0.63162828167E+03  0.12500286508E+03 0.  0.
    9000005    1    3    3    0    0 -0.23413178243E+02  0.57476356085E+02  0.34660265850E+03  0.35211661606E+03  0.10000000000E+01 0.  0.
    9000005    1    3    3    0    0  0.23413178243E+02 -0.57476356085E+02  0.27253268206E+03  0.27951166561E+03  0.10000000000E+01 0.  0.
<mgrwt>
<rscale>  0 0.12500287E+03</rscale>
<asrwt>0</asrwt>
<pdfrwt beam="2">  1        4 0.15616181E-02 0.12500287E+03</pdfrwt>
<pdfrwt beam="1">  1       -4 0.15634541E+00 0.12500287E+03</pdfrwt>
<totfact> 0.69648483E+02</totfact>
</mgrwt>
</event>
<event>
 5    1  0.1430314E-002  0.1250002E+03  0.7818608E-02  0.1235069E+00
         -4   -1    0    0    0  501 -0.00000000000E+00  0.00000000000E+00  0.13477759259E+02  0.13537462637E+02  0.12700000000E+01 0. -1.
          4   -1    0    0  501    0  0.00000000000E+00 -0.00000000000E+00 -0.28912842315E+03  0.28913121238E+03  0.12700000000E+01 0. -1.
         25    2    1    2    0    0  0.00000000000E+00  0.00000000000E+00 -0.27565066389E+03  0.30266867501E+03  0.12500015334E+03 0.  0.
    9000005    1    3    3    0    0  0.34408963805E+02  0.91721943475E+01 -0.13481385664E+02  0.38090073493E+02  0.10000000000E+01 0.  0.
    9000005    1    3    3    0    0 -0.34408963805E+02 -0.91721943475E+01 -0.26216927822E+03  0.26457860152E+03  0.10000000000E+01 0.  0.
<mgrwt>
<rscale>  0 0.12500015E+03</rscale>
<asrwt>0</asrwt>
<pdfrwt beam="2">  1        4 0.72289897E-01 0.12500015E+03</pdfrwt>
<pdfrwt beam="1">  1       -4 0.33772523E-02 0.12500015E+03</pdfrwt>
<totfact> 0.12896547E+03</totfact>
</mgrwt>
</event>
<event>
 5    1  0.1430314E-002  0.1249928E+03  0.7818608E-02  0.1235081E+00
         -4   -1    0    0    0  501 -0.00000000000E+00  0.00000000000E+00  0.37541924516E+01  0.39631882322E+01  0.12700000000E+01 0.  1.
          4   -1    0    0  501    0  0.00000000000E+00 -0.00000000000E+00 -0.10119985991E+04  0.10119993960E+04  0.12700000000E+01 0.  1.
         25    2    1    2    0    0  0.00000000000E+00  0.00000000000E+00 -0.10082444067E+04  0.10159625843E+04  0.12499275578E+03 0.  0.
    9000005    1    3    3    0    0  0.45088159744E+02 -0.16654730773E+02 -0.82868723973E+03  0.83008063675E+03  0.10000000000E+01 0.  0.
    9000005    1    3    3    0    0 -0.45088159744E+02  0.16654730773E+02 -0.17955716696E+03  0.18588194752E+03  0.10000000000E+01 0.  0.
<mgrwt>
<rscale>  0 0.12499276E+03</rscale>
<asrwt>0</asrwt>
<pdfrwt beam="2">  1        4 0.25302497E+00 0.12499276E+03</pdfrwt>
<pdfrwt beam="1">  1       -4 0.96477566E-03 0.12499276E+03</pdfrwt>
<totfact> 0.36051879E+02</totfact>
</mgrwt>
</event>
<event>
 5    1  0.1430314E-002  0.1250005E+03  0.7818608E-02  0.1235068E+00
         -4   -1    0    0    0  501 -0.00000000000E+00  0.00000000000E+00  0.73313655638E+03  0.73313765638E+03  0.12700000000E+01 0. -1.
          4   -1    0    0  501    0  0.00000000000E+00 -0.00000000000E+00 -0.52513812922E+01  0.54027683159E+01  0.12700000000E+01 0. -1.
         25    2    1    2    0    0  0.00000000000E+00  0.00000000000E+00  0.72788517509E+03  0.73854042470E+03  0.12500052318E+03 0.  0.
    9000005    1    3    3    0    0  0.57149404035E+02  0.57229151238E+01  0.21844042397E+03  0.22586727289E+03  0.10000000000E+01 0.  0.
    9000005    1    3    3    0    0 -0.57149404035E+02 -0.57229151238E+01  0.50944475112E+03  0.51267315180E+03  0.10000000000E+01 0.  0.
<mgrwt>
<rscale>  0 0.12500052E+03</rscale>
<asrwt>0</asrwt>
<pdfrwt beam="2">  1        4 0.13319059E-02 0.12500052E+03</pdfrwt>
<pdfrwt beam="1">  1       -4 0.18330324E+00 0.12500052E+03</pdfrwt>
<totfact> 0.58175199E+02</totfact>
</mgrwt>
</event>
<event>
 5    1  0.1430314E-002  0.1249659E+03  0.7818608E-02  0.1235123E+00
          4   -1    0    0  501    0  0.00000000000E+00  0.00000000000E+00  0.57887899579E+02  0.57901829139E+02  0.12700000000E+01 0. -1.
         -4   -1    0    0    0  501 -0.00000000000E+00 -0.00000000000E+00 -0.67414682725E+02  0.67426644191E+02  0.12700000000E+01 0. -1.
         25    2    1    2    0    0  0.00000000000E+00  0.00000000000E+00 -0.95267831459E+01  0.12532847333E+03  0.12496586186E+03 0.  0.
    9000005    1    3    3    0    0 -0.28261802665E+02  0.44019031538E+02 -0.39019671485E+02  0.65268211177E+02  0.10000000000E+01 0.  0.
    9000005    1    3    3    0    0  0.28261802665E+02 -0.44019031538E+02  0.29492888339E+02  0.60060262154E+02  0.10000000000E+01 0.  0.
<mgrwt>
<rscale>  0 0.12496586E+03</rscale>
<asrwt>0</asrwt>
<pdfrwt beam="1">  1        4 0.14475211E-01 0.12496586E+03</pdfrwt>
<pdfrwt beam="2">  1       -4 0.16856907E-01 0.12496586E+03</pdfrwt>
<totfact> 0.19833089E+03</totfact>
</mgrwt>
</event>
<event>
 5    1  0.1430314E-002  0.1250011E+03  0.7818608E-02  0.1235068E+00
          4   -1    0    0  501    0  0.00000000000E+00  0.00000000000E+00  0.13179308540E+03  0.13179920432E+03  0.12700000000E+01 0.  1.
         -4   -1    0    0    0  501 -0.00000000000E+00 -0.00000000000E+00 -0.29619357705E+02  0.29646572329E+02  0.12700000000E+01 0.  1.
         25    2    1    2    0    0  0.00000000000E+00  0.00000000000E+00  0.10217372769E+03  0.16144577665E+03  0.12500107266E+03 0.  0.
    9000005    1    3    3    0    0  0.62394115921E+01  0.86497844885E+01  0.13061528746E+03  0.13105381470E+03  0.10000000000E+01 0.  0.
    9000005    1    3    3    0    0 -0.62394115921E+01 -0.86497844885E+01 -0.28441559770E+02  0.30391961945E+02  0.10000000000E+01 0.  0.
<mgrwt>
<rscale>  0 0.12500107E+03</rscale>
<asrwt>0</asrwt>
<pdfrwt beam="1">  1        4 0.32952437E-01 0.12500107E+03</pdfrwt>
<pdfrwt beam="2">  1       -4 0.74090063E-02 0.12500107E+03</pdfrwt>
<totfact> 0.17989477E+03</totfact>
</mgrwt>
</event>
<event>
 5    1  0.1430314E-002  0.1250003E+03  0.7818608E-02  0.1235069E+00
          4   -1    0    0  501    0  0.00000000000E+00  0.00000000000E+00  0.10942007774E+02  0.11015463410E+02  0.12700000000E+01 0.  1.
         -4   -1    0    0    0  501 -0.00000000000E+00 -0.00000000000E+00 -0.35572867596E+03  0.35573094299E+03  0.12700000000E+01 0.  1.
         25    2    1    2    0    0  0.00000000000E+00  0.00000000000E+00 -0.34478666818E+03  0.36674640640E+03  0.12500032019E+03 0.  0.
    9000005    1    3    3    0    0  0.61102222871E+01  0.36654898466E+02 -0.31980431538E+03  0.32195763158E+03  0.10000000000E+01 0.  0.
    9000005    1    3    3    0    0 -0.61102222871E+01 -0.36654898466E+02 -0.24982352804E+02  0.44788774816E+02  0.10000000000E+01 0.  0.
<mgrwt>
<rscale>  0 0.12500032E+03</rscale>
<asrwt>0</asrwt>
<pdfrwt beam="1">  1        4 0.27449685E-02 0.12500032E+03</pdfrwt>
<pdfrwt beam="2">  1       -4 0.88941596E-01 0.12500032E+03</pdfrwt>
<totfact> 0.11287779E+03</totfact>
</mgrwt>
</event>
<event>
 5    1  0.1430314E-002  0.1249986E+03  0.7818608E-02  0.1235072E+00
         -4   -1    0    0    0  501 -0.00000000000E+00  0.00000000000E+00  0.10356952266E+03  0.10357730893E+03  0.12700000000E+01 0. -1.
          4   -1    0    0  501    0  0.00000000000E+00 -0.00000000000E+00 -0.37695445295E+02  0.37716833059E+02  0.12700000000E+01 0. -1.
         25    2    1    2    0    0  0.00000000000E+00  0.00000000000E+00  0.65874077366E+02  0.14129414198E+03  0.12499856195E+03 0.  0.
    9000005    1    3    3    0    0  0.58892396230E+02 -0.29469594520E+01  0.56326639172E+02  0.81551757701E+02  0.10000000000E+01 0.  0.
    9000005    1    3    3    0    0 -0.58892396230E+02  0.29469594520E+01  0.95474381941E+01  0.59742384283E+02  0.10000000000E+01 0.  0.
<mgrwt>
<rscale>  0 0.12499856E+03</rscale>
<asrwt>0</asrwt>
<pdfrwt beam="2">  1        4 0.94275081E-02 0.12499856E+03</pdfrwt>
<pdfrwt beam="1">  1       -4 0.25896027E-01 0.12499856E+03</pdfrwt>
<totfact> 0.18974967E+03</totfact>
</mgrwt>
</event>
<event>
 5    1  0.1430314E-002  0.1249976E+03  0.7818608E-02  0.1235073E+00
          4   -1    0    0  501    0  0.00000000000E+00  0.00000000000E+00  0.23537673586E+02  0.23571910781E+02  0.12700000000E+01 0.  1.
         -4   -1    0    0    0  501 -0.00000000000E+00 -0.00000000000E+00 -0.16579363246E+03  0.16579849656E+03  0.12700000000E+01 0.  1.
         25    2    1    2    0    0  0.00000000000E+00  0.00000000000E+00 -0.14225595887E+03  0.18937040735E+03  0.12499757335E+03 0.  0.
    9000005    1    3    3    0    0 -0.58024460847E+02 -0.15479162820E+02 -0.44946390098E+02  0.75017468106E+02  0.10000000000E+01 0.  0.
    9000005    1    3    3    0    0  0.58024460847E+02  0.15479162820E+02 -0.97309568772E+02  0.11435293924E+03  0.10000000000E+01 0.  0.
<mgrwt>
<rscale>  0 0.12499757E+03</rscale>
<asrwt>0</asrwt>
<pdfrwt beam="1">  1        4 0.58893065E-02 0.12499757E+03</pdfrwt>
<pdfrwt beam="2">  1       -4 0.41453292E-01 0.12499757E+03</pdfrwt>
<totfact> 0.16757647E+03</totfact>
</mgrwt>
</event>
<event>
 5    1  0.1430314E-002  0.1250047E+03  0.7818608E-02  0.1235062E+00
         -4   -1    0    0    0  501 -0.00000000000E+00  0.00000000000E+00  0.33434381895E+03  0.33434623098E+03  0.12700000000E+01 0. -1.
          4   -1    0    0  501    0  0.00000000000E+00 -0.00000000000E+00 -0.11647241466E+02  0.11716276446E+02  0.12700000000E+01 0. -1.
         25    2    1    2    0    0  0.00000000000E+00  0.00000000000E+00  0.32269657749E+03  0.34606250743E+03  0.12500471161E+03 0.  0.
    9000005    1    3    3    0    0  0.24601179651E+02  0.31267156537E+02  0.29476920542E+03  0.29744367128E+03  0.10000000000E+01 0.  0.
    9000005    1    3    3    0    0 -0.24601179651E+02 -0.31267156537E+02  0.27927372064E+02  0.48618836149E+02  0.10000000000E+01 0.  0.
<mgrwt>
<rscale>  0 0.12500471E+03</rscale>
<asrwt>0</asrwt>
<pdfrwt beam="2">  1        4 0.29207412E-02 0.12500471E+03</pdfrwt>
<pdfrwt beam="1">  1       -4 0.83594887E-01 0.12500471E+03</pdfrwt>
<totfact> 0.11770530E+03</totfact>
</mgrwt>
</event>
<event>
 5    1  0.1430314E-002  0.1250128E+03  0.7818608E-02  0.1235049E+00
          4   -1    0    0  501    0  0.00000000000E+00  0.00000000000E+00  0.35263269673E+01  0.37480504106E+01  0.12700000000E+01 0. -1.
         -4   -1    0    0    0  501 -0.00000000000E+00 -0.00000000000E+00 -0.10739728018E+04  0.10739735527E+04  0.12700000000E+01 0. -1.
         25    2    1    2    0    0  0.00000000000E+00  0.00000000000E+00 -0.10704464749E+04  0.10777216031E+04  0.12501279269E+03 0.  0.
    9000005    1    3    3    0    0  0.26215529715E+02  0.52615646420E+02 -0.35226743748E+03  0.35714003942E+03  0.10000000000E+01 0.  0.
    9000005    1    3    3    0    0 -0.26215529715E+02 -0.52615646420E+02 -0.71817903738E+03  0.72058156372E+03  0.10000000000E+01 0.  0.
<mgrwt>
<rscale>  0 0.12501279E+03</rscale>
<asrwt>0</asrwt>
<pdfrwt beam="1">  1        4 0.90939471E-03 0.12501279E+03</pdfrwt>
<pdfrwt beam="2">  1       -4 0.26851992E+00 0.12501279E+03</pdfrwt>
<totfact> 0.32116552E+02</totfact>
</mgrwt>
</event>
<event>
 5    1  0.1430314E-002  0.1250244E+03  0.7818608E-02  0.1235031E+00
         -4   -1    0    0    0  501 -0.00000000000E+00  0.00000000000E+00  0.47975773726E+02  0.47992580308E+02  0.12700000000E+01 0.  1.
          4   -1    0    0  501    0  0.00000000000E+00 -0.00000000000E+00 -0.81417012027E+02  0.81426916603E+02  0.12700000000E+01 0.  1.
         25    2    1    2    0    0  0.00000000000E+00  0.00000000000E+00 -0.33441238301E+02  0.12941949691E+03  0.12502435667E+03 0.  0.
    9000005    1    3    3    0    0 -0.22032286279E+02 -0.81163442409E+01  0.43242212222E+02  0.49215704814E+02  0.10000000000E+01 0.  0.
    9000005    1    3    3    0    0  0.22032286279E+02  0.81163442409E+01 -0.76683450523E+02  0.80203792096E+02  0.10000000000E+01 0.  0.
<mgrwt>
<rscale>  0 0.12502436E+03</rscale>
<asrwt>0</asrwt>
<pdfrwt beam="2">  1        4 0.20357592E-01 0.12502436E+03</pdfrwt>
<pdfrwt beam="1">  1       -4 0.11997282E-01 0.12502436E+03</pdfrwt>
<totfact> 0.19584505E+03</totfact>
</mgrwt>
</event>
<event>
 5    1  0.1430314E-002  0.1249997E+03  0.7818608E-02  0.1235070E+00
         -4   -1    0    0    0  501 -0.00000000000E+00  0.00000000000E+00  0.67139954167E+02  0.67151964570E+02  0.12700000000E+01 0.  1.
          4   -1    0    0  501    0  0.00000000000E+00 -0.00000000000E+00 -0.58156308220E+02  0.58170173507E+02  0.12700000000E+01 0.  1.
         25    2    1    2    0    0  0.00000000000E+00  0.00000000000E+00  0.89836459469E+01  0.12532213808E+03  0.12499972959E+03 0.  0.
    9000005    1    3    3    0    0 -0.20155552134E+02  0.54433126824E+02 -0.18720031323E+02  0.60997140510E+02  0.10000000000E+01 0.  0.
    9000005    1    3    3    0    0  0.20155552134E+02 -0.54433126824E+02  0.27703677269E+02  0.64324997566E+02  0.10000000000E+01 0.  0.
<mgrwt>
<rscale>  0 0.12499973E+03</rscale>
<asrwt>0</asrwt>
<pdfrwt beam="2">  1        4 0.14542312E-01 0.12499973E+03</pdfrwt>
<pdfrwt beam="1">  1       -4 0.16788223E-01 0.12499973E+03</pdfrwt>
<totfact> 0.19817721E+03</totfact>
</mgrwt>
</event>
<event>
 5    1  0.1430314E-002  0.1249997E+03  0.7818608E-02  0.1235070E+00
          4   -1    0    0  501    0  0.00000000000E+00  0.00000000000E+00  0.14571669123E+03  0.14572222550E+03  0.12700000000E+01 0.  1.
         -4   -1    0    0    0  501 -0.00000000000E+00 -0.00000000000E+00 -0.26785925422E+02  0.26816015750E+02  0.12700000000E+01 0.  1.
         25    2    1    2    0    0  0.00000000000E+00  0.00000000000E+00  0.11893076581E+03  0.17253824125E+03  0.12499967055E+03 0.  0.
    9000005    1    3    3    0    0 -0.37198915844E+02 -0.49961133477E+02  0.52514977894E+02  0.81478200161E+02  0.10000000000E+01 0.  0.
    9000005    1    3    3    0    0  0.37198915844E+02  0.49961133477E+02  0.66415787918E+02  0.91060041088E+02  0.10000000000E+01 0.  0.
<mgrwt>
<rscale>  0 0.12499967E+03</rscale>
<asrwt>0</asrwt>
<pdfrwt beam="1">  1        4 0.36433626E-01 0.12499967E+03</pdfrwt>
<pdfrwt beam="2">  1       -4 0.67009345E-02 0.12499967E+03</pdfrwt>
<totfact> 0.17483299E+03</totfact>
</mgrwt>
</event>
<event>
 5    1  0.1430314E-002  0.1249958E+03  0.7818608E-02  0.1235076E+00
         -4   -1    0    0    0  501 -0.00000000000E+00  0.00000000000E+00  0.25687808883E+02  0.25719183992E+02  0.12700000000E+01 0. -1.
          4   -1    0    0  501    0  0.00000000000E+00 -0.00000000000E+00 -0.15192926145E+03  0.15193456942E+03  0.12700000000E+01 0. -1.
         25    2    1    2    0    0  0.00000000000E+00  0.00000000000E+00 -0.12624145257E+03  0.17765375341E+03  0.12499580695E+03 0.  0.
    9000005    1    3    3    0    0 -0.28489982404E+02 -0.45305809561E+02 -0.17270641060E+02  0.56245626675E+02  0.10000000000E+01 0.  0.
    9000005    1    3    3    0    0  0.28489982404E+02  0.45305809561E+02 -0.10897081151E+03  0.12140812674E+03  0.10000000000E+01 0.  0.
<mgrwt>
<rscale>  0 0.12499581E+03</rscale>
<asrwt>0</asrwt>
<pdfrwt beam="2">  1        4 0.37986898E-01 0.12499581E+03</pdfrwt>
<pdfrwt beam="1">  1       -4 0.64265380E-02 0.12499581E+03</pdfrwt>
<totfact> 0.17258933E+03</totfact>
</mgrwt>
</event>
<event>
 5    1  0.1430314E-002  0.1250369E+03  0.7818608E-02  0.1235012E+00
         -4   -1    0    0    0  501 -0.00000000000E+00  0.00000000000E+00  0.48603821713E+02  0.48620411198E+02  0.12700000000E+01 0.  1.
          4   -1    0    0  501    0  0.00000000000E+00 -0.00000000000E+00 -0.80381357975E+02  0.80391390148E+02  0.12700000000E+01 0.  1.
         25    2    1    2    0    0  0.00000000000E+00  0.00000000000E+00 -0.31777536263E+02  0.12901180135E+03  0.12503692685E+03 0.  0.
    9000005    1    3    3    0    0 -0.34931306911E+02  0.48652765715E+02  0.25762435327E+01  0.59957692125E+02  0.10000000000E+01 0.  0.
    9000005    1    3    3    0    0  0.34931306911E+02 -0.48652765715E+02 -0.34353779795E+02  0.69054109222E+02  0.10000000000E+01 0.  0.
<mgrwt>
<rscale>  0 0.12503693E+03</rscale>
<asrwt>0</asrwt>
<pdfrwt beam="2">  1        4 0.20098667E-01 0.12503693E+03</pdfrwt>
<pdfrwt beam="1">  1       -4 0.12154283E-01 0.12503693E+03</pdfrwt>
<totfact> 0.19600758E+03</totfact>
</mgrwt>
</event>
<event>
 5    1  0.1430314E-002  0.1250047E+03  0.7818608E-02  0.1235062E+00
         -4   -1    0    0    0  501 -0.00000000000E+00  0.00000000000E+00  0.14810191296E+03  0.14810735809E+03  0.12700000000E+01 0.  1.
          4   -1    0    0  501    0  0.00000000000E+00 -0.00000000000E+00 -0.26356167976E+02  0.26386748386E+02  0.12700000000E+01 0.  1.
         25    2    1    2    0    0  0.00000000000E+00  0.00000000000E+00  0.12174574498E+03  0.17449410648E+03  0.12500466702E+03 0.  0.
    9000005    1    3    3    0    0  0.47788299359E+02 -0.39632778059E+02  0.70847756992E+02  0.94206599148E+02  0.10000000000E+01 0.  0.
    9000005    1    3    3    0    0 -0.47788299359E+02  0.39632778059E+02  0.50897987990E+02  0.80287507333E+02  0.10000000000E+01 0.  0.
<mgrwt>
<rscale>  0 0.12500467E+03</rscale>
<asrwt>0</asrwt>
<pdfrwt beam="2">  1        4 0.65935453E-02 0.12500467E+03</pdfrwt>
<pdfrwt beam="1">  1       -4 0.37029981E-01 0.12500467E+03</pdfrwt>
<totfact> 0.17394345E+03</totfact>
</mgrwt>
</event>
<event>
 5    1  0.1430314E-002  0.1250019E+03  0.7818608E-02  0.1235066E+00
         -4   -1    0    0    0  501 -0.00000000000E+00  0.00000000000E+00  0.33268047301E+02  0.33292279454E+02  0.12700000000E+01 0. -1.
          4   -1    0    0  501    0  0.00000000000E+00 -0.00000000000E+00 -0.11735060885E+03  0.11735748079E+03  0.12700000000E+01 0. -1.
         25    2    1    2    0    0  0.00000000000E+00  0.00000000000E+00 -0.84082561552E+02  0.15064976025E+03  0.12500189241E+03 0.  0.
    9000005    1    3    3    0    0  0.17771373571E+02 -0.19792101425E+02 -0.11019331373E+03  0.11336276014E+03  0.10000000000E+01 0.  0.
    9000005    1    3    3    0    0 -0.17771373571E+02  0.19792101425E+02  0.26110752176E+02  0.37287000102E+02  0.10000000000E+01 0.  0.
<mgrwt>
<rscale>  0 0.12500189E+03</rscale>
<asrwt>0</asrwt>
<pdfrwt beam="2">  1        4 0.29341539E-01 0.12500189E+03</pdfrwt>
<pdfrwt beam="1">  1       -4 0.83209001E-02 0.12500189E+03</pdfrwt>
<totfact> 0.18506063E+03</totfact>
</mgrwt>
</event>
<event>
 5    1  0.1430314E-002  0.1249923E+03  0.7818608E-02  0.1235081E+00
         -4   -1    0    0    0  501 -0.00000000000E+00  0.00000000000E+00  0.66561621630E+03  0.66561742788E+03  0.12700000000E+01 0.  1.
          4   -1    0    0  501    0  0.00000000000E+00 -0.00000000000E+00 -0.57979507608E+01  0.59354134670E+01  0.12700000000E+01 0.  1.
         25    2    1    2    0    0  0.00000000000E+00  0.00000000000E+00  0.65981826553E+03  0.67155284135E+03  0.12499230051E+03 0.  0.
    9000005    1    3    3    0    0  0.46334473943E+01  0.19617724566E+02  0.12123363494E+02  0.23543574374E+02  0.10000000000E+01 0.  0.
    9000005    1    3    3    0    0 -0.46334473943E+01 -0.19617724566E+02  0.64769490204E+03  0.64800926697E+03  0.10000000000E+01 0.  0.
<mgrwt>
<rscale>  0 0.12499230E+03</rscale>
<asrwt>0</asrwt>
<pdfrwt beam="2">  1        4 0.14668222E-02 0.12499230E+03</pdfrwt>
<pdfrwt beam="1">  1       -4 0.16642136E+00 0.12499230E+03</pdfrwt>
<totfact> 0.65109205E+02</totfact>
</mgrwt>
</event>
<event>
 5    1  0.1430314E-002  0.1249984E+03  0.7818608E-02  0.1235072E+00
          4   -1    0    0  501    0  0.00000000000E+00  0.00000000000E+00  0.28011798939E+02  0.28040573813E+02  0.12700000000E+01 0. -1.
         -4   -1    0    0    0  501 -0.00000000000E+00 -0.00000000000E+00 -0.13934325993E+03  0.13934904732E+03  0.12700000000E+01 0. -1.
         25    2    1    2    0    0  0.00000000000E+00  0.00000000000E+00 -0.11133146100E+03  0.16738962113E+03  0.12499836421E+03 0.  0.
    9000005    1    3    3    0    0 -0.16928703244E+02 -0.23882775720E+02  0.18268317769E+02  0.34520999460E+02  0.10000000000E+01 0.  0.
    9000005    1    3    3    0    0  0.16928703244E+02  0.23882775720E+02 -0.12959977876E+03  0.13286862167E+03  0.10000000000E+01 0.  0.
<mgrwt>
<rscale>  0 0.12499836E+03</rscale>
<asrwt>0</asrwt>
<pdfrwt beam="1">  1        4 0.70072704E-02 0.12499836E+03</pdfrwt>
<pdfrwt beam="2">  1       -4 0.34840133E-01 0.12499836E+03</pdfrwt>
<totfact> 0.17716106E+03</totfact>
</mgrwt>
</event>
<event>
 4    1  0.1430314E-002  0.1247775E+03  0.7818608E-02  0.1235417E+00
          4   -1    0    0  501    0  0.00000000000E+00  0.00000000000E+00  0.83509194756E+02  0.83518851218E+02  0.12700000000E+01 0. -1.
         -4   -1    0    0    0  501 -0.00000000000E+00 -0.00000000000E+00 -0.46588888297E+02  0.46606195004E+02  0.12700000000E+01 0. -1.
    9000005    1    1    2    0    0 -0.12880263686E+02  0.60156404054E+02  0.76898845631E+01  0.62006680817E+02  0.10000000000E+01 0.  0.
    9000005    1    1    2    0    0  0.12880263686E+02 -0.60156404054E+02  0.29230421896E+02  0.68118365405E+02  0.10000000000E+01 0.  0.
<mgrwt>
<rscale>  0 0.12477748E+03</rscale>
<asrwt>0</asrwt>
<pdfrwt beam="1">  1        4 0.20880669E-01 0.12477748E+03</pdfrwt>
<pdfrwt beam="2">  1       -4 0.11650593E-01 0.12477748E+03</pdfrwt>
<totfact> 0.19659589E+03</totfact>
</mgrwt>
</event>
<event>
 5    1  0.1430314E-002  0.1249924E+03  0.7818608E-02  0.1235081E+00
         -4   -1    0    0    0  501 -0.00000000000E+00  0.00000000000E+00  0.13639345140E+03  0.13639936394E+03  0.12700000000E+01 0. -1.
          4   -1    0    0  501    0  0.00000000000E+00 -0.00000000000E+00 -0.28615493097E+02  0.28643661519E+02  0.12700000000E+01 0. -1.
         25    2    1    2    0    0  0.00000000000E+00  0.00000000000E+00  0.10777795830E+03  0.16504302546E+03  0.12499244760E+03 0.  0.
    9000005    1    3    3    0    0  0.23094564289E+02  0.52102233086E+02  0.87728341610E+02  0.10461961343E+03  0.10000000000E+01 0.  0.
    9000005    1    3    3    0    0 -0.23094564289E+02 -0.52102233086E+02  0.20049616689E+02  0.60423412032E+02  0.10000000000E+01 0.  0.
<mgrwt>
<rscale>  0 0.12499245E+03</rscale>
<asrwt>0</asrwt>
<pdfrwt beam="2">  1        4 0.71581335E-02 0.12499245E+03</pdfrwt>
<pdfrwt beam="1">  1       -4 0.34102623E-01 0.12499245E+03</pdfrwt>
<totfact> 0.17826100E+03</totfact>
</mgrwt>
</event>
<event>
 5    1  0.1430314E-002  0.1250003E+03  0.7818608E-02  0.1235069E+00
          4   -1    0    0  501    0  0.00000000000E+00  0.00000000000E+00  0.55424906427E+01  0.56861324751E+01  0.12700000000E+01 0. -1.
         -4   -1    0    0    0  501 -0.00000000000E+00 -0.00000000000E+00 -0.69562578011E+03  0.69562693943E+03  0.12700000000E+01 0. -1.
         25    2    1    2    0    0  0.00000000000E+00  0.00000000000E+00 -0.69008328947E+03  0.70131307190E+03  0.12500031366E+03 0.  0.
    9000005    1    3    3    0    0 -0.19773768411E+02  0.32439066611E+02 -0.66658703519E+02  0.76731204309E+02  0.10000000000E+01 0.  0.
    9000005    1    3    3    0    0  0.19773768411E+02 -0.32439066611E+02 -0.62342458595E+03  0.62458186759E+03  0.10000000000E+01 0.  0.
<mgrwt>
<rscale>  0 0.12500031E+03</rscale>
<asrwt>0</asrwt>
<pdfrwt beam="1">  1        4 0.14037252E-02 0.12500031E+03</pdfrwt>
<pdfrwt beam="2">  1       -4 0.17392425E+00 0.12500031E+03</pdfrwt>
<totfact> 0.61928496E+02</totfact>
</mgrwt>
</event>
<event>
 5    1  0.1430314E-002  0.1250022E+03  0.7818608E-02  0.1235066E+00
          4   -1    0    0  501    0  0.00000000000E+00  0.00000000000E+00  0.24064688865E+02  0.24098177321E+02  0.12700000000E+01 0.  1.
         -4   -1    0    0    0  501 -0.00000000000E+00 -0.00000000000E+00 -0.16217987329E+03  0.16218484578E+03  0.12700000000E+01 0.  1.
         25    2    1    2    0    0  0.00000000000E+00  0.00000000000E+00 -0.13811518443E+03  0.18628302310E+03  0.12500224209E+03 0.  0.
    9000005    1    3    3    0    0  0.55750114342E+02 -0.70994124892E+01 -0.28329829937E+02  0.62944866122E+02  0.10000000000E+01 0.  0.
    9000005    1    3    3    0    0 -0.55750114342E+02  0.70994124892E+01 -0.10978535449E+03  0.12333815698E+03  0.10000000000E+01 0.  0.
<mgrwt>
<rscale>  0 0.12500224E+03</rscale>
<asrwt>0</asrwt>
<pdfrwt beam="1">  1        4 0.60209803E-02 0.12500224E+03</pdfrwt>
<pdfrwt beam="2">  1       -4 0.40549773E-01 0.12500224E+03</pdfrwt>
<totfact> 0.16885560E+03</totfact>
</mgrwt>
</event>
<event>
 5    1  0.1430314E-002  0.1249980E+03  0.7818608E-02  0.1235072E+00
         -4   -1    0    0    0  501 -0.00000000000E+00  0.00000000000E+00  0.13756124170E+03  0.13756710406E+03  0.12700000000E+01 0. -1.
          4   -1    0    0  501    0  0.00000000000E+00 -0.00000000000E+00 -0.28374874809E+02  0.28403281860E+02  0.12700000000E+01 0. -1.
         25    2    1    2    0    0  0.00000000000E+00  0.00000000000E+00  0.10918636689E+03  0.16597038592E+03  0.12499802513E+03 0.  0.
    9000005    1    3    3    0    0  0.17741813195E+02  0.55911410817E+02  0.83202810123E+02  0.10180650965E+03  0.10000000000E+01 0.  0.
    9000005    1    3    3    0    0 -0.17741813195E+02 -0.55911410817E+02  0.25983556770E+02  0.64163876266E+02  0.10000000000E+01 0.  0.
<mgrwt>
<rscale>  0 0.12499803E+03</rscale>
<asrwt>0</asrwt>
<pdfrwt beam="2">  1        4 0.70980025E-02 0.12499803E+03</pdfrwt>
<pdfrwt beam="1">  1       -4 0.34394594E-01 0.12499803E+03</pdfrwt>
<totfact> 0.17781162E+03</totfact>
</mgrwt>
</event>
<event>
 5    1  0.1430314E-002  0.1250015E+03  0.7818608E-02  0.1235067E+00
         -4   -1    0    0    0  501 -0.00000000000E+00  0.00000000000E+00  0.43705858642E+02  0.43724306508E+02  0.12700000000E+01 0. -1.
          4   -1    0    0  501    0  0.00000000000E+00 -0.00000000000E+00 -0.89336241949E+02  0.89345268625E+02  0.12700000000E+01 0. -1.
         25    2    1    2    0    0  0.00000000000E+00  0.00000000000E+00 -0.45630383308E+02  0.13306957513E+03  0.12500151977E+03 0.  0.
    9000005    1    3    3    0    0 -0.60285239018E+02 -0.16463106486E+02 -0.22780408034E+02  0.66522860047E+02  0.10000000000E+01 0.  0.
    9000005    1    3    3    0    0  0.60285239018E+02  0.16463106486E+02 -0.22849975274E+02  0.66546715085E+02  0.10000000000E+01 0.  0.
<mgrwt>
<rscale>  0 0.12500152E+03</rscale>
<asrwt>0</asrwt>
<pdfrwt beam="2">  1        4 0.22337495E-01 0.12500152E+03</pdfrwt>
<pdfrwt beam="1">  1       -4 0.10929899E-01 0.12500152E+03</pdfrwt>
<totfact> 0.19400046E+03</totfact>
</mgrwt>
</event>
<event>
 5    1  0.1430314E-002  0.1249998E+03  0.7818608E-02  0.1235070E+00
         -4   -1    0    0    0  501 -0.00000000000E+00  0.00000000000E+00  0.10253494433E+03  0.10254280916E+03  0.12700000000E+01 0. -1.
          4   -1    0    0  501    0  0.00000000000E+00 -0.00000000000E+00 -0.38076705790E+02  0.38097879519E+02  0.12700000000E+01 0. -1.
         25    2    1    2    0    0  0.00000000000E+00  0.00000000000E+00  0.64458238543E+02  0.14064068867E+03  0.12499975518E+03 0.  0.
    9000005    1    3    3    0    0 -0.14498374801E+01  0.36074466950E+02 -0.25160837491E+02  0.44017461737E+02  0.10000000000E+01 0.  0.
    9000005    1    3    3    0    0  0.14498374801E+01 -0.36074466950E+02  0.89619076035E+02  0.96623226937E+02  0.10000000000E+01 0.  0.
<mgrwt>
<rscale>  0 0.12499976E+03</rscale>
<asrwt>0</asrwt>
<pdfrwt beam="2">  1        4 0.95228064E-02 0.12499976E+03</pdfrwt>
<pdfrwt beam="1">  1       -4 0.25637366E-01 0.12499976E+03</pdfrwt>
<totfact> 0.19007722E+03</totfact>
</mgrwt>
</event>
<event>
 5    1  0.1430314E-002  0.1249993E+03  0.7818608E-02  0.1235070E+00
         -4   -1    0    0    0  501 -0.00000000000E+00  0.00000000000E+00  0.15495009118E+03  0.15495529567E+03  0.12700000000E+01 0.  1.
          4   -1    0    0  501    0  0.00000000000E+00 -0.00000000000E+00 -0.25187811212E+02  0.25219808359E+02  0.12700000000E+01 0.  1.
         25    2    1    2    0    0  0.00000000000E+00  0.00000000000E+00  0.12976227997E+03  0.18017510403E+03  0.12499927524E+03 0.  0.
    9000005    1    3    3    0    0 -0.52164169173E+02 -0.30029215194E+02  0.89101549611E+02  0.10753111389E+03  0.10000000000E+01 0.  0.
    9000005    1    3    3    0    0  0.52164169173E+02  0.30029215194E+02  0.40660730354E+02  0.72643990141E+02  0.10000000000E+01 0.  0.
<mgrwt>
<rscale>  0 0.12499928E+03</rscale>
<asrwt>0</asrwt>
<pdfrwt beam="2">  1        4 0.63016030E-02 0.12499928E+03</pdfrwt>
<pdfrwt beam="1">  1       -4 0.38742173E-01 0.12499928E+03</pdfrwt>
<totfact> 0.17147925E+03</totfact>
</mgrwt>
</event>
<event>
 5    1  0.1430314E-002  0.1249851E+03  0.7818608E-02  0.1235093E+00
         -4   -1    0    0    0  501 -0.00000000000E+00  0.00000000000E+00  0.45753722639E+02  0.45771345133E+02  0.12700000000E+01 0.  1.
          4   -1    0    0  501    0  0.00000000000E+00 -0.00000000000E+00 -0.85316468201E+02  0.85325920132E+02  0.12700000000E+01 0.  1.
         25    2    1    2    0    0  0.00000000000E+00  0.00000000000E+00 -0.39562745562E+02  0.13109726527E+03  0.12498512761E+03 0.  0.
    9000005    1    3    3    0    0 -0.16782252415E+02 -0.63626962796E+01 -0.82559703322E+02  0.84493979150E+02  0.10000000000E+01 0.  0.
    9000005    1    3    3    0    0  0.16782252415E+02  0.63626962796E+01  0.42996957760E+02  0.46603286115E+02  0.10000000000E+01 0.  0.
<mgrwt>
<rscale>  0 0.12498513E+03</rscale>
<asrwt>0</asrwt>
<pdfrwt beam="2">  1        4 0.21332501E-01 0.12498513E+03</pdfrwt>
<pdfrwt beam="1">  1       -4 0.11441815E-01 0.12498513E+03</pdfrwt>
<totfact> 0.19512347E+03</totfact>
</mgrwt>
</event>
<event>
 5    1  0.1430314E-002  0.1250018E+03  0.7818608E-02  0.1235066E+00
          4   -1    0    0  501    0  0.00000000000E+00  0.00000000000E+00  0.32393858115E+01  0.34794425467E+01  0.12700000000E+01 0.  1.
         -4   -1    0    0    0  501 -0.00000000000E+00 -0.00000000000E+00 -0.11625706803E+04  0.11625713740E+04  0.12700000000E+01 0.  1.
         25    2    1    2    0    0  0.00000000000E+00  0.00000000000E+00 -0.11593312945E+04  0.11660508166E+04  0.12500182534E+03 0.  0.
    9000005    1    3    3    0    0  0.22389667734E+02  0.44558665012E+02 -0.93100751996E+03  0.93234262697E+03  0.10000000000E+01 0.  0.
    9000005    1    3    3    0    0 -0.22389667734E+02 -0.44558665012E+02 -0.22832377456E+03  0.23370818958E+03  0.10000000000E+01 0.  0.
<mgrwt>
<rscale>  0 0.12500183E+03</rscale>
<asrwt>0</asrwt>
<pdfrwt beam="1">  1        4 0.83994424E-03 0.12500183E+03</pdfrwt>
<pdfrwt beam="2">  1       -4 0.29067139E+00 0.12500183E+03</pdfrwt>
<totfact> 0.27016898E+02</totfact>
</mgrwt>
</event>
<event>
 5    1  0.1430314E-002  0.1249931E+03  0.7818608E-02  0.1235080E+00
          4   -1    0    0  501    0  0.00000000000E+00  0.00000000000E+00  0.14024506181E+03  0.14025081198E+03  0.12700000000E+01 0.  1.
         -4   -1    0    0    0  501 -0.00000000000E+00 -0.00000000000E+00 -0.27829136410E+02  0.27858099959E+02  0.12700000000E+01 0.  1.
         25    2    1    2    0    0  0.00000000000E+00  0.00000000000E+00  0.11241592540E+03  0.16810891194E+03  0.12499306377E+03 0.  0.
    9000005    1    3    3    0    0  0.37428598155E+02 -0.48129244838E+02  0.74624016532E+02  0.96369435050E+02  0.10000000000E+01 0.  0.
    9000005    1    3    3    0    0 -0.37428598155E+02  0.48129244838E+02  0.37791908863E+02  0.71739476887E+02  0.10000000000E+01 0.  0.
<mgrwt>
<rscale>  0 0.12499306E+03</rscale>
<asrwt>0</asrwt>
<pdfrwt beam="1">  1        4 0.35065604E-01 0.12499306E+03</pdfrwt>
<pdfrwt beam="2">  1       -4 0.69616234E-02 0.12499306E+03</pdfrwt>
<totfact> 0.17685530E+03</totfact>
</mgrwt>
</event>
<event>
 5    1  0.1430314E-002  0.1250014E+03  0.7818608E-02  0.1235067E+00
         -4   -1    0    0    0  501 -0.00000000000E+00  0.00000000000E+00  0.66405572280E+01  0.67609097242E+01  0.12700000000E+01 0.  1.
          4   -1    0    0  501    0  0.00000000000E+00 -0.00000000000E+00 -0.58285037038E+03  0.58285175401E+03  0.12700000000E+01 0.  1.
         25    2    1    2    0    0  0.00000000000E+00  0.00000000000E+00 -0.57620981315E+03  0.58961266373E+03  0.12500137784E+03 0.  0.
    9000005    1    3    3    0    0 -0.11598874788E+01 -0.37784710716E+02 -0.53382692117E+02  0.65419733419E+02  0.10000000000E+01 0.  0.
    9000005    1    3    3    0    0  0.11598874788E+01  0.37784710716E+02 -0.52282712103E+03  0.52419293031E+03  0.10000000000E+01 0.  0.
<mgrwt>
<rscale>  0 0.12500138E+03</rscale>
<asrwt>0</asrwt>
<pdfrwt beam="2">  1        4 0.14572764E+00 0.12500138E+03</pdfrwt>
<pdfrwt beam="1">  1       -4 0.16753583E-02 0.12500138E+03</pdfrwt>
<totfact> 0.74823325E+02</totfact>
</mgrwt>
</event>
<event>
 5    1  0.1430314E-002  0.1249989E+03  0.7818608E-02  0.1235071E+00
         -4   -1    0    0    0  501 -0.00000000000E+00  0.00000000000E+00  0.26747529854E+02  0.26777663328E+02  0.12700000000E+01 0. -1.
          4   -1    0    0  501    0  0.00000000000E+00 -0.00000000000E+00 -0.14592385198E+03  0.14592937838E+03  0.12700000000E+01 0. -1.
         25    2    1    2    0    0  0.00000000000E+00  0.00000000000E+00 -0.11917632212E+03  0.17270704171E+03  0.12499890600E+03 0.  0.
    9000005    1    3    3    0    0  0.62466455718E+02  0.70078636490E+00 -0.57346434764E+02  0.84806619857E+02  0.10000000000E+01 0.  0.
    9000005    1    3    3    0    0 -0.62466455718E+02 -0.70078636490E+00 -0.61829887358E+02  0.87900421854E+02  0.10000000000E+01 0.  0.
<mgrwt>
<rscale>  0 0.12499891E+03</rscale>
<asrwt>0</asrwt>
<pdfrwt beam="2">  1        4 0.36485418E-01 0.12499891E+03</pdfrwt>
<pdfrwt beam="1">  1       -4 0.66913403E-02 0.12499891E+03</pdfrwt>
<totfact> 0.17476079E+03</totfact>
</mgrwt>
</event>
<event>
 5    1  0.1430314E-002  0.1250055E+03  0.7818608E-02  0.1235061E+00
          4   -1    0    0  501    0  0.00000000000E+00  0.00000000000E+00  0.43352166723E+03  0.43352352745E+03  0.12700000000E+01 0. -1.
         -4   -1    0    0    0  501 -0.00000000000E+00 -0.00000000000E+00 -0.89646679652E+01  0.90541797932E+01  0.12700000000E+01 0. -1.
         25    2    1    2    0    0  0.00000000000E+00  0.00000000000E+00  0.42455699926E+03  0.44257770725E+03  0.12500552519E+03 0.  0.
    9000005    1    3    3    0    0  0.32984229247E+02 -0.24445924957E+02  0.37909538640E+03  0.38131335488E+03  0.10000000000E+01 0.  0.
    9000005    1    3    3    0    0 -0.32984229247E+02  0.24445924957E+02  0.45461612865E+02  0.61264352361E+02  0.10000000000E+01 0.  0.
<mgrwt>
<rscale>  0 0.12500553E+03</rscale>
<asrwt>0</asrwt>
<pdfrwt beam="1">  1        4 0.10839183E+00 0.12500553E+03</pdfrwt>
<pdfrwt beam="2">  1       -4 0.22525886E-02 0.12500553E+03</pdfrwt>
<totfact> 0.97352779E+02</totfact>
</mgrwt>
</event>
<event>
 5    1  0.1430314E-002  0.1250100E+03  0.7818608E-02  0.1235054E+00
          4   -1    0    0  501    0  0.00000000000E+00  0.00000000000E+00  0.32234991049E+03  0.32235241226E+03  0.12700000000E+01 0. -1.
         -4   -1    0    0    0  501 -0.00000000000E+00 -0.00000000000E+00 -0.12084162374E+02  0.12150715217E+02  0.12700000000E+01 0. -1.
         25    2    1    2    0    0  0.00000000000E+00  0.00000000000E+00  0.31026574811E+03  0.33450312748E+03  0.12501003096E+03 0.  0.
    9000005    1    3    3    0    0  0.15819756683E+02 -0.12791227754E+02  0.31325485094E+03  0.31391636123E+03  0.10000000000E+01 0.  0.
    9000005    1    3    3    0    0 -0.15819756683E+02  0.12791227754E+02 -0.29891028261E+01  0.20586766251E+02  0.10000000000E+01 0.  0.
<mgrwt>
<rscale>  0 0.12501003E+03</rscale>
<asrwt>0</asrwt>
<pdfrwt beam="1">  1        4 0.80596108E-01 0.12501003E+03</pdfrwt>
<pdfrwt beam="2">  1       -4 0.30296725E-02 0.12501003E+03</pdfrwt>
<totfact> 0.12053555E+03</totfact>
</mgrwt>
</event>
<event>
 5    1  0.1430314E-002  0.1250011E+03  0.7818608E-02  0.1235068E+00
          4   -1    0    0  501    0  0.00000000000E+00  0.00000000000E+00  0.10453311327E+02  0.10530176527E+02  0.12700000000E+01 0.  1.
         -4   -1    0    0    0  501 -0.00000000000E+00 -0.00000000000E+00 -0.37224514908E+03  0.37224731552E+03  0.12700000000E+01 0.  1.
         25    2    1    2    0    0  0.00000000000E+00  0.00000000000E+00 -0.36179183775E+03  0.38277749204E+03  0.12500109821E+03 0.  0.
    9000005    1    3    3    0    0  0.30379136668E+02 -0.23141682132E+02 -0.29421351839E+02  0.48218723963E+02  0.10000000000E+01 0.  0.
    9000005    1    3    3    0    0 -0.30379136668E+02  0.23141682132E+02 -0.33237048591E+03  0.33455876808E+03  0.10000000000E+01 0.  0.
<mgrwt>
<rscale>  0 0.12500110E+03</rscale>
<asrwt>0</asrwt>
<pdfrwt beam="1">  1        4 0.26232080E-02 0.12500110E+03</pdfrwt>
<pdfrwt beam="2">  1       -4 0.93071122E-01 0.12500110E+03</pdfrwt>
<totfact> 0.10932502E+03</totfact>
</mgrwt>
</event>
<event>
 5    1  0.1430314E-002  0.1250089E+03  0.7818608E-02  0.1235055E+00
         -4   -1    0    0    0  501 -0.00000000000E+00  0.00000000000E+00  0.56512634982E+02  0.56526903441E+02  0.12700000000E+01 0. -1.
          4   -1    0    0  501    0  0.00000000000E+00 -0.00000000000E+00 -0.69102771909E+02  0.69114441222E+02  0.12700000000E+01 0. -1.
         25    2    1    2    0    0  0.00000000000E+00  0.00000000000E+00 -0.12590136927E+02  0.12564134466E+03  0.12500894344E+03 0.  0.
    9000005    1    3    3    0    0  0.45511734906E+02  0.18150117365E+02 -0.45286484311E+02  0.66727883495E+02  0.10000000000E+01 0.  0.
    9000005    1    3    3    0    0 -0.45511734906E+02 -0.18150117365E+02  0.32696347384E+02  0.58913461168E+02  0.10000000000E+01 0.  0.
<mgrwt>
<rscale>  0 0.12500894E+03</rscale>
<asrwt>0</asrwt>
<pdfrwt beam="2">  1        4 0.17278935E-01 0.12500894E+03</pdfrwt>
<pdfrwt beam="1">  1       -4 0.14131401E-01 0.12500894E+03</pdfrwt>
<totfact> 0.19796171E+03</totfact>
</mgrwt>
</event>
<event>
 5    1  0.1430314E-002  0.1249975E+03  0.7818608E-02  0.1235073E+00
          4   -1    0    0  501    0  0.00000000000E+00  0.00000000000E+00  0.44219691858E+02  0.44237925449E+02  0.12700000000E+01 0.  1.
         -4   -1    0    0    0  501 -0.00000000000E+00 -0.00000000000E+00 -0.88292760466E+02  0.88301893812E+02  0.12700000000E+01 0.  1.
         25    2    1    2    0    0  0.00000000000E+00  0.00000000000E+00 -0.44073068608E+02  0.13253981926E+03  0.12499747323E+03 0.  0.
    9000005    1    3    3    0    0 -0.10736122830E+02  0.18265594592E+02 -0.84373306255E+02  0.86998569457E+02  0.10000000000E+01 0.  0.
    9000005    1    3    3    0    0  0.10736122830E+02 -0.18265594592E+02  0.40300237647E+02  0.45541249803E+02  0.10000000000E+01 0.  0.
<mgrwt>
<rscale>  0 0.12499747E+03</rscale>
<asrwt>0</asrwt>
<pdfrwt beam="1">  1        4 0.11058344E-01 0.12499747E+03</pdfrwt>
<pdfrwt beam="2">  1       -4 0.22076611E-01 0.12499747E+03</pdfrwt>
<totfact> 0.19429934E+03</totfact>
</mgrwt>
</event>
<event>
 5    1  0.1430314E-002  0.1250004E+03  0.7818608E-02  0.1235069E+00
         -4   -1    0    0    0  501 -0.00000000000E+00  0.00000000000E+00  0.53506809512E+03  0.53506960231E+03  0.12700000000E+01 0. -1.
          4   -1    0    0  501    0  0.00000000000E+00 -0.00000000000E+00 -0.72437593860E+01  0.73542470752E+01  0.12700000000E+01 0. -1.
         25    2    1    2    0    0  0.00000000000E+00  0.00000000000E+00  0.52782433574E+03  0.54242384939E+03  0.12500041195E+03 0.  0.
    9000005    1    3    3    0    0  0.42369346487E+02 -0.29176887618E+02  0.10995151461E+03  0.12139517230E+03  0.10000000000E+01 0.  0.
    9000005    1    3    3    0    0 -0.42369346487E+02  0.29176887618E+02  0.41787282113E+03  0.42102867709E+03  0.10000000000E+01 0.  0.
<mgrwt>
<rscale>  0 0.12500041E+03</rscale>
<asrwt>0</asrwt>
<pdfrwt beam="2">  1        4 0.18249393E-02 0.12500041E+03</pdfrwt>
<pdfrwt beam="1">  1       -4 0.13378102E+00 0.12500041E+03</pdfrwt>
<totfact> 0.81231527E+02</totfact>
</mgrwt>
</event>
<event>
 5    1  0.1430314E-002  0.1249876E+03  0.7818608E-02  0.1235089E+00
          4   -1    0    0  501    0  0.00000000000E+00  0.00000000000E+00  0.30454950912E+01  0.32996879171E+01  0.12700000000E+01 0. -1.
         -4   -1    0    0    0  501 -0.00000000000E+00 -0.00000000000E+00 -0.12307510579E+04  0.12307517132E+04  0.12700000000E+01 0. -1.
         25    2    1    2    0    0  0.00000000000E+00  0.00000000000E+00 -0.12277055629E+04  0.12340514011E+04  0.12498764549E+03 0.  0.
    9000005    1    3    3    0    0  0.16076651734E+02 -0.14494388027E+02 -0.11925993568E+04  0.11927961988E+04  0.10000000000E+01 0.  0.
    9000005    1    3    3    0    0 -0.16076651734E+02  0.14494388027E+02 -0.35106206081E+02  0.41255202346E+02  0.10000000000E+01 0.  0.
<mgrwt>
<rscale>  0 0.12498765E+03</rscale>
<asrwt>0</asrwt>
<pdfrwt beam="1">  1        4 0.79323400E-03 0.12498765E+03</pdfrwt>
<pdfrwt beam="2">  1       -4 0.30771798E+00 0.12498765E+03</pdfrwt>
<totfact> 0.23469952E+02</totfact>
</mgrwt>
</event>
<event>
 5    1  0.1430314E-002  0.1249996E+03  0.7818608E-02  0.1235070E+00
          4   -1    0    0  501    0  0.00000000000E+00  0.00000000000E+00  0.35146392269E+02  0.35169330240E+02  0.12700000000E+01 0.  1.
         -4   -1    0    0    0  501 -0.00000000000E+00 -0.00000000000E+00 -0.11107881709E+03  0.11108607702E+03  0.12700000000E+01 0.  1.
         25    2    1    2    0    0  0.00000000000E+00  0.00000000000E+00 -0.75932424825E+02  0.14625540726E+03  0.12499964405E+03 0.  0.
    9000005    1    3    3    0    0 -0.46960106253E+02 -0.25417407314E+02  0.18545595954E-01  0.53406895789E+02  0.10000000000E+01 0.  0.
    9000005    1    3    3    0    0  0.46960106253E+02  0.25417407314E+02 -0.75950970421E+02  0.92848511468E+02  0.10000000000E+01 0.  0.
<mgrwt>
<rscale>  0 0.12499964E+03</rscale>
<asrwt>0</asrwt>
<pdfrwt beam="1">  1        4 0.87903730E-02 0.12499964E+03</pdfrwt>
<pdfrwt beam="2">  1       -4 0.27773478E-01 0.12499964E+03</pdfrwt>
<totfact> 0.18724604E+03</totfact>
</mgrwt>
</event>
<event>
 5    1  0.1430314E-002  0.1250021E+03  0.7818608E-02  0.1235066E+00
         -4   -1    0    0    0  501 -0.00000000000E+00  0.00000000000E+00  0.57706012069E+02  0.57719985524E+02  0.12700000000E+01 0. -1.
          4   -1    0    0  501    0  0.00000000000E+00 -0.00000000000E+00 -0.67666417209E+02  0.67678334184E+02  0.12700000000E+01 0. -1.
         25    2    1    2    0    0  0.00000000000E+00  0.00000000000E+00 -0.99604051401E+01  0.12539831971E+03  0.12500211564E+03 0.  0.
    9000005    1    3    3    0    0  0.28241881457E+01  0.60890891637E+02  0.88368153699E+01  0.61601672290E+02  0.10000000000E+01 0.  0.
    9000005    1    3    3    0    0 -0.28241881457E+01 -0.60890891637E+02 -0.18797220510E+02  0.63796647419E+02  0.10000000000E+01 0.  0.
<mgrwt>
<rscale>  0 0.12500212E+03</rscale>
<asrwt>0</asrwt>
<pdfrwt beam="2">  1        4 0.16919841E-01 0.12500212E+03</pdfrwt>
<pdfrwt beam="1">  1       -4 0.14429739E-01 0.12500212E+03</pdfrwt>
<totfact> 0.19812488E+03</totfact>
</mgrwt>
</event>
<event>
 5    1  0.1430314E-002  0.1250000E+03  0.7818608E-02  0.1235069E+00
         -4   -1    0    0    0  501 -0.00000000000E+00  0.00000000000E+00  0.11664973577E+03  0.11665664900E+03  0.12700000000E+01 0. -1.
          4   -1    0    0  501    0  0.00000000000E+00 -0.00000000000E+00 -0.33467064513E+02  0.33491152669E+02  0.12700000000E+01 0. -1.
         25    2    1    2    0    0  0.00000000000E+00  0.00000000000E+00  0.83182671258E+02  0.15014780167E+03  0.12500002219E+03 0.  0.
    9000005    1    3    3    0    0 -0.25777428105E+02  0.21822144089E+02 -0.21565833145E+02  0.40084497397E+02  0.10000000000E+01 0.  0.
    9000005    1    3    3    0    0  0.25777428105E+02 -0.21822144089E+02  0.10474850440E+03  0.11006330427E+03  0.10000000000E+01 0.  0.
<mgrwt>
<rscale>  0 0.12500002E+03</rscale>
<asrwt>0</asrwt>
<pdfrwt beam="2">  1        4 0.83706414E-02 0.12500002E+03</pdfrwt>
<pdfrwt beam="1">  1       -4 0.29166309E-01 0.12500002E+03</pdfrwt>
<totfact> 0.18531506E+03</totfact>
</mgrwt>
</event>
<event>
 5    1  0.1430314E-002  0.1249890E+03  0.7818608E-02  0.1235086E+00
         -4   -1    0    0    0  501 -0.00000000000E+00  0.00000000000E+00  0.48387652435E+01  0.50026542037E+01  0.12700000000E+01 0. -1.
          4   -1    0    0  501    0  0.00000000000E+00 -0.00000000000E+00 -0.79353502150E+03  0.79353603778E+03  0.12700000000E+01 0. -1.
         25    2    1    2    0    0  0.00000000000E+00  0.00000000000E+00 -0.78869625626E+03  0.79853869198E+03  0.12498903133E+03 0.  0.
    9000005    1    3    3    0    0  0.30805431942E+02 -0.41966834236E+02 -0.17355052481E+03  0.18119319654E+03  0.10000000000E+01 0.  0.
    9000005    1    3    3    0    0 -0.30805431942E+02  0.41966834236E+02 -0.61514573145E+03  0.61734549544E+03  0.10000000000E+01 0.  0.
<mgrwt>
<rscale>  0 0.12498903E+03</rscale>
<asrwt>0</asrwt>
<pdfrwt beam="2">  1        4 0.19840393E+00 0.12498903E+03</pdfrwt>
<pdfrwt beam="1">  1       -4 0.12303072E-02 0.12498903E+03</pdfrwt>
<totfact> 0.52620713E+02</totfact>
</mgrwt>
</event>
<event>
 5    1  0.1430314E-002  0.1249991E+03  0.7818608E-02  0.1235071E+00
          4   -1    0    0  501    0  0.00000000000E+00  0.00000000000E+00  0.81236461444E+02  0.81246388030E+02  0.12700000000E+01 0.  1.
         -4   -1    0    0    0  501 -0.00000000000E+00 -0.00000000000E+00 -0.48063004972E+02  0.48079781062E+02  0.12700000000E+01 0.  1.
         25    2    1    2    0    0  0.00000000000E+00  0.00000000000E+00  0.33173456472E+02  0.12932616909E+03  0.12499911919E+03 0.  0.
    9000005    1    3    3    0    0 -0.16111009467E+00  0.11253302428E+02 -0.47010915100E+02  0.48349652641E+02  0.10000000000E+01 0.  0.
    9000005    1    3    3    0    0  0.16111009467E+00 -0.11253302428E+02  0.80184371572E+02  0.80976516450E+02  0.10000000000E+01 0.  0.
<mgrwt>
<rscale>  0 0.12499912E+03</rscale>
<asrwt>0</asrwt>
<pdfrwt beam="1">  1        4 0.20312453E-01 0.12499912E+03</pdfrwt>
<pdfrwt beam="2">  1       -4 0.12019089E-01 0.12499912E+03</pdfrwt>
<totfact> 0.19601079E+03</totfact>
</mgrwt>
</event>
<event>
 5    1  0.1430314E-002  0.1250005E+03  0.7818608E-02  0.1235069E+00
          4   -1    0    0  501    0  0.00000000000E+00  0.00000000000E+00  0.43560293027E+02  0.43578802515E+02  0.12700000000E+01 0.  1.
         -4   -1    0    0    0  501 -0.00000000000E+00 -0.00000000000E+00 -0.89633151608E+02  0.89642148386E+02  0.12700000000E+01 0.  1.
         25    2    1    2    0    0  0.00000000000E+00  0.00000000000E+00 -0.46072858580E+02  0.13322095090E+03  0.12500045384E+03 0.  0.
    9000005    1    3    3    0    0 -0.41701509339E+02  0.11499098552E+01 -0.72625262633E+02  0.83760175181E+02  0.10000000000E+01 0.  0.
    9000005    1    3    3    0    0  0.41701509339E+02 -0.11499098552E+01  0.26552404053E+02  0.49460775720E+02  0.10000000000E+01 0.  0.
<mgrwt>
<rscale>  0 0.12500045E+03</rscale>
<asrwt>0</asrwt>
<pdfrwt beam="1">  1        4 0.10893512E-01 0.12500045E+03</pdfrwt>
<pdfrwt beam="2">  1       -4 0.22411726E-01 0.12500045E+03</pdfrwt>
<totfact> 0.19392527E+03</totfact>
</mgrwt>
</event>
<event>
 5    1  0.1430314E-002  0.1249992E+03  0.7818608E-02  0.1235071E+00
         -4   -1    0    0    0  501 -0.00000000000E+00  0.00000000000E+00  0.21553778027E+02  0.21591161322E+02  0.12700000000E+01 0.  1.
          4   -1    0    0  501    0  0.00000000000E+00 -0.00000000000E+00 -0.18103378412E+03  0.18103823876E+03  0.12700000000E+01 0.  1.
         25    2    1    2    0    0  0.00000000000E+00  0.00000000000E+00 -0.15948000609E+03  0.20262940008E+03  0.12499920573E+03 0.  0.
    9000005    1    3    3    0    0  0.30078103378E+02  0.52519749541E+02 -0.54512870065E+02  0.81459618201E+02  0.10000000000E+01 0.  0.
    9000005    1    3    3    0    0 -0.30078103378E+02 -0.52519749541E+02 -0.10496713603E+03  0.12116978188E+03  0.10000000000E+01 0.  0.
<mgrwt>
<rscale>  0 0.12499921E+03</rscale>
<asrwt>0</asrwt>
<pdfrwt beam="2">  1        4 0.45263671E-01 0.12499921E+03</pdfrwt>
<pdfrwt beam="1">  1       -4 0.53936748E-02 0.12499921E+03</pdfrwt>
<totfact> 0.16217593E+03</totfact>
</mgrwt>
</event>
<event>
 5    1  0.1430314E-002  0.1250004E+03  0.7818608E-02  0.1235069E+00
          4   -1    0    0  501    0  0.00000000000E+00  0.00000000000E+00  0.32238968639E+03  0.32239218786E+03  0.12700000000E+01 0. -1.
         -4   -1    0    0    0  501 -0.00000000000E+00 -0.00000000000E+00 -0.12080798454E+02  0.12147369727E+02  0.12700000000E+01 0. -1.
         25    2    1    2    0    0  0.00000000000E+00  0.00000000000E+00  0.31030888794E+03  0.33453955759E+03  0.12500043862E+03 0.  0.
    9000005    1    3    3    0    0 -0.10959782349E+02 -0.31157191063E+02  0.29713474188E+03  0.29896645667E+03  0.10000000000E+01 0.  0.
    9000005    1    3    3    0    0  0.10959782349E+02  0.31157191063E+02  0.13174146058E+02  0.35573100912E+02  0.10000000000E+01 0.  0.
<mgrwt>
<rscale>  0 0.12500044E+03</rscale>
<asrwt>0</asrwt>
<pdfrwt beam="1">  1        4 0.80606060E-01 0.12500044E+03</pdfrwt>
<pdfrwt beam="2">  1       -4 0.30288335E-02 0.12500044E+03</pdfrwt>
<totfact> 0.12055284E+03</totfact>
</mgrwt>
</event>
<event>
 5    1  0.1430314E-002  0.1249994E+03  0.7818608E-02  0.1235070E+00
          4   -1    0    0  501    0  0.00000000000E+00  0.00000000000E+00  0.18549664281E+03  0.18550099028E+03  0.12700000000E+01 0.  1.
         -4   -1    0    0    0  501 -0.00000000000E+00 -0.00000000000E+00 -0.21034386542E+02  0.21072691266E+02  0.12700000000E+01 0.  1.
         25    2    1    2    0    0  0.00000000000E+00  0.00000000000E+00  0.16446225627E+03  0.20657368155E+03  0.12499940868E+03 0.  0.
    9000005    1    3    3    0    0 -0.11347867138E+02  0.42003313600E+02  0.81003853931E+01  0.44268145268E+02  0.10000000000E+01 0.  0.
    9000005    1    3    3    0    0  0.11347867138E+02 -0.42003313600E+02  0.15636187088E+03  0.16230553628E+03  0.10000000000E+01 0.  0.
<mgrwt>
<rscale>  0 0.12499941E+03</rscale>
<asrwt>0</asrwt>
<pdfrwt beam="1">  1        4 0.46379492E-01 0.12499941E+03</pdfrwt>
<pdfrwt beam="2">  1       -4 0.52639281E-02 0.12499941E+03</pdfrwt>
<totfact> 0.16062381E+03</totfact>
</mgrwt>
</event>
<event>
 5    1  0.1430314E-002  0.1249991E+03  0.7818608E-02  0.1235071E+00
          4   -1    0    0  501    0  0.00000000000E+00  0.00000000000E+00  0.28760531599E+03  0.28760811999E+03  0.12700000000E+01 0.  1.
         -4   -1    0    0    0  501 -0.00000000000E+00 -0.00000000000E+00 -0.13549227461E+02  0.13608617299E+02  0.12700000000E+01 0.  1.
         25    2    1    2    0    0  0.00000000000E+00  0.00000000000E+00  0.27405608853E+03  0.30121673729E+03  0.12499913265E+03 0.  0.
    9000005    1    3    3    0    0 -0.47081068655E+02 -0.33039299755E+02  0.78150511321E+02  0.97039810252E+02  0.10000000000E+01 0.  0.
    9000005    1    3    3    0    0  0.47081068655E+02  0.33039299755E+02  0.19590557721E+03  0.20417692704E+03  0.10000000000E+01 0.  0.
<mgrwt>
<rscale>  0 0.12499913E+03</rscale>
<asrwt>0</asrwt>
<pdfrwt beam="1">  1        4 0.71909102E-01 0.12499913E+03</pdfrwt>
<pdfrwt beam="2">  1       -4 0.33950812E-02 0.12499913E+03</pdfrwt>
<totfact> 0.12937280E+03</totfact>
</mgrwt>
</event>
<event>
 5    1  0.1430314E-002  0.1249870E+03  0.7818608E-02  0.1235090E+00
          4   -1    0    0  501    0  0.00000000000E+00  0.00000000000E+00  0.11261179248E+03  0.11261895358E+03  0.12700000000E+01 0.  1.
         -4   -1    0    0    0  501 -0.00000000000E+00 -0.00000000000E+00 -0.34660626279E+02  0.34683885510E+02  0.12700000000E+01 0.  1.
         25    2    1    2    0    0  0.00000000000E+00  0.00000000000E+00  0.77951166205E+02  0.14730283909E+03  0.12498696769E+03 0.  0.
    9000005    1    3    3    0    0  0.23440309364E+02  0.57451582861E+02  0.30290809841E+02  0.69055525754E+02  0.10000000000E+01 0.  0.
    9000005    1    3    3    0    0 -0.23440309364E+02 -0.57451582861E+02  0.47660356364E+02  0.78247313340E+02  0.10000000000E+01 0.  0.
<mgrwt>
<rscale>  0 0.12498697E+03</rscale>
<asrwt>0</asrwt>
<pdfrwt beam="1">  1        4 0.28156750E-01 0.12498697E+03</pdfrwt>
<pdfrwt beam="2">  1       -4 0.86689592E-02 0.12498697E+03</pdfrwt>
<totfact> 0.18677866E+03</totfact>
</mgrwt>
</event>
<event>
 5    1  0.1430314E-002  0.1250015E+03  0.7818608E-02  0.1235067E+00
         -4   -1    0    0    0  501 -0.00000000000E+00  0.00000000000E+00  0.55647281232E+01  0.57078103582E+01  0.12700000000E+01 0. -1.
          4   -1    0    0  501    0  0.00000000000E+00 -0.00000000000E+00 -0.69292894305E+03  0.69293010687E+03  0.12700000000E+01 0. -1.
         25    2    1    2    0    0  0.00000000000E+00  0.00000000000E+00 -0.68736421492E+03  0.69863791723E+03  0.12500150174E+03 0.  0.
    9000005    1    3    3    0    0 -0.19309079907E+02 -0.24499899846E+02 -0.64633025960E+03  0.64708337186E+03  0.10000000000E+01 0.  0.
    9000005    1    3    3    0    0  0.19309079907E+02  0.24499899846E+02 -0.41033955325E+02  0.51554545376E+02  0.10000000000E+01 0.  0.
<mgrwt>
<rscale>  0 0.12500150E+03</rscale>
<asrwt>0</asrwt>
<pdfrwt beam="2">  1        4 0.17324998E+00 0.12500150E+03</pdfrwt>
<pdfrwt beam="1">  1       -4 0.14092151E-02 0.12500150E+03</pdfrwt>
<totfact> 0.62205691E+02</totfact>
</mgrwt>
</event>
<event>
 5    1  0.1430314E-002  0.1250027E+03  0.7818608E-02  0.1235065E+00
          4   -1    0    0  501    0  0.00000000000E+00  0.00000000000E+00  0.19010450854E+03  0.19010875063E+03  0.12700000000E+01 0.  1.
         -4   -1    0    0    0  501 -0.00000000000E+00 -0.00000000000E+00 -0.20524701407E+02  0.20563955549E+02  0.12700000000E+01 0.  1.
         25    2    1    2    0    0  0.00000000000E+00  0.00000000000E+00  0.16957980713E+03  0.21067270618E+03  0.12500271254E+03 0.  0.
    9000005    1    3    3    0    0  0.92881213946E+01  0.19517519857E+02 -0.14032511453E+02  0.25789807252E+02  0.10000000000E+01 0.  0.
    9000005    1    3    3    0    0 -0.92881213946E+01 -0.19517519857E+02  0.18361231858E+03  0.18488289893E+03  0.10000000000E+01 0.  0.
<mgrwt>
<rscale>  0 0.12500271E+03</rscale>
<asrwt>0</asrwt>
<pdfrwt beam="1">  1        4 0.47531565E-01 0.12500271E+03</pdfrwt>
<pdfrwt beam="2">  1       -4 0.51366123E-02 0.12500271E+03</pdfrwt>
<totfact> 0.15902430E+03</totfact>
</mgrwt>
</event>
<event>
 5    1  0.1430314E-002  0.1249994E+03  0.7818608E-02  0.1235070E+00
          4   -1    0    0  501    0  0.00000000000E+00  0.00000000000E+00  0.18502865685E+03  0.18503301531E+03  0.12700000000E+01 0. -1.
         -4   -1    0    0    0  501 -0.00000000000E+00 -0.00000000000E+00 -0.21087670786E+02  0.21125878897E+02  0.12700000000E+01 0. -1.
         25    2    1    2    0    0  0.00000000000E+00  0.00000000000E+00  0.16394098606E+03  0.20615889421E+03  0.12499937100E+03 0.  0.
    9000005    1    3    3    0    0  0.25303576572E+02 -0.50134135447E+02  0.36757724655E+02  0.67125500714E+02  0.10000000000E+01 0.  0.
    9000005    1    3    3    0    0 -0.25303576572E+02  0.50134135447E+02  0.12718326140E+03  0.13903339349E+03  0.10000000000E+01 0.  0.
<mgrwt>
<rscale>  0 0.12499937E+03</rscale>
<asrwt>0</asrwt>
<pdfrwt beam="1">  1        4 0.46262485E-01 0.12499937E+03</pdfrwt>
<pdfrwt beam="2">  1       -4 0.52772386E-02 0.12499937E+03</pdfrwt>
<totfact> 0.16078599E+03</totfact>
</mgrwt>
</event>
<event>
 5    1  0.1430314E-002  0.1249974E+03  0.7818608E-02  0.1235073E+00
          4   -1    0    0  501    0  0.00000000000E+00  0.00000000000E+00  0.20603402146E+02  0.20642506630E+02  0.12700000000E+01 0. -1.
         -4   -1    0    0    0  501 -0.00000000000E+00 -0.00000000000E+00 -0.18936349611E+03  0.18936775480E+03  0.12700000000E+01 0. -1.
         25    2    1    2    0    0  0.00000000000E+00  0.00000000000E+00 -0.16876009396E+03  0.21001026143E+03  0.12499736234E+03 0.  0.
    9000005    1    3    3    0    0  0.51040440865E+02  0.24598650432E+02 -0.40091659617E+02  0.69415858258E+02  0.10000000000E+01 0.  0.
    9000005    1    3    3    0    0 -0.51040440865E+02 -0.24598650432E+02 -0.12866843434E+03  0.14059440317E+03  0.10000000000E+01 0.  0.
<mgrwt>
<rscale>  0 0.12499736E+03</rscale>
<asrwt>0</asrwt>
<pdfrwt beam="1">  1        4 0.51562715E-02 0.12499736E+03</pdfrwt>
<pdfrwt beam="2">  1       -4 0.47346289E-01 0.12499736E+03</pdfrwt>
<totfact> 0.15929882E+03</totfact>
</mgrwt>
</event>
<event>
 5    1  0.1430314E-002  0.1250197E+03  0.7818608E-02  0.1235038E+00
          4   -1    0    0  501    0  0.00000000000E+00  0.00000000000E+00  0.62164248691E+02  0.62177220228E+02  0.12700000000E+01 0. -1.
         -4   -1    0    0    0  501 -0.00000000000E+00 -0.00000000000E+00 -0.62831440405E+02  0.62844274229E+02  0.12700000000E+01 0. -1.
         25    2    1    2    0    0  0.00000000000E+00  0.00000000000E+00 -0.66719171423E+00  0.12502149446E+03  0.12501971417E+03 0.  0.
    9000005    1    3    3    0    0 -0.51201081424E+02 -0.34478701829E+02  0.94721857250E+01  0.62458417537E+02  0.10000000000E+01 0.  0.
    9000005    1    3    3    0    0  0.51201081424E+02  0.34478701829E+02 -0.10139377439E+02  0.62563076920E+02  0.10000000000E+01 0.  0.
<mgrwt>
<rscale>  0 0.12501971E+03</rscale>
<asrwt>0</asrwt>
<pdfrwt beam="1">  1        4 0.15544288E-01 0.12501971E+03</pdfrwt>
<pdfrwt beam="2">  1       -4 0.15711086E-01 0.12501971E+03</pdfrwt>
<totfact> 0.19824743E+03</totfact>
</mgrwt>
</event>
<event>
 5    1  0.1430314E-002  0.1250034E+03  0.7818608E-02  0.1235064E+00
         -4   -1    0    0    0  501 -0.00000000000E+00  0.00000000000E+00  0.26494543534E+02  0.26524964412E+02  0.12700000000E+01 0. -1.
          4   -1    0    0  501    0  0.00000000000E+00 -0.00000000000E+00 -0.14732617107E+03  0.14733164487E+03  0.12700000000E+01 0. -1.
         25    2    1    2    0    0  0.00000000000E+00  0.00000000000E+00 -0.12083162753E+03  0.17385660929E+03  0.12500335348E+03 0.  0.
    9000005    1    3    3    0    0 -0.33078086196E+01 -0.17714067974E+02  0.22809476057E+02  0.29086113526E+02  0.10000000000E+01 0.  0.
    9000005    1    3    3    0    0  0.33078086196E+01  0.17714067974E+02 -0.14364110359E+03  0.14477049576E+03  0.10000000000E+01 0.  0.
<mgrwt>
<rscale>  0 0.12500335E+03</rscale>
<asrwt>0</asrwt>
<pdfrwt beam="2">  1        4 0.36836027E-01 0.12500335E+03</pdfrwt>
<pdfrwt beam="1">  1       -4 0.66281231E-02 0.12500335E+03</pdfrwt>
<totfact> 0.17423132E+03</totfact>
</mgrwt>
</event>
<event>
 5    1  0.1430314E-002  0.1250310E+03  0.7818608E-02  0.1235021E+00
          4   -1    0    0  501    0  0.00000000000E+00  0.00000000000E+00  0.25676820346E+03  0.25677134422E+03  0.12700000000E+01 0.  1.
         -4   -1    0    0    0  501 -0.00000000000E+00 -0.00000000000E+00 -0.15190964033E+02  0.15243959074E+02  0.12700000000E+01 0.  1.
         25    2    1    2    0    0  0.00000000000E+00  0.00000000000E+00  0.24157723943E+03  0.27201530329E+03  0.12503104660E+03 0.  0.
    9000005    1    3    3    0    0 -0.51636468494E+02  0.26022979794E+02  0.17244072722E+03  0.18187997350E+03  0.10000000000E+01 0.  0.
    9000005    1    3    3    0    0  0.51636468494E+02 -0.26022979794E+02  0.69136512211E+02  0.90135329791E+02  0.10000000000E+01 0.  0.
<mgrwt>
<rscale>  0 0.12503105E+03</rscale>
<asrwt>0</asrwt>
<pdfrwt beam="1">  1        4 0.64199067E-01 0.12503105E+03</pdfrwt>
<pdfrwt beam="2">  1       -4 0.38047580E-02 0.12503105E+03</pdfrwt>
<totfact> 0.13783462E+03</totfact>
</mgrwt>
</event>
<event>
 5    1  0.1430314E-002  0.1250252E+03  0.7818608E-02  0.1235030E+00
         -4   -1    0    0    0  501 -0.00000000000E+00  0.00000000000E+00  0.60460693970E+01  0.61780138518E+01  0.12700000000E+01 0. -1.
          4   -1    0    0  501    0  0.00000000000E+00 -0.00000000000E+00 -0.63923262055E+03  0.63923388214E+03  0.12700000000E+01 0. -1.
         25    2    1    2    0    0  0.00000000000E+00  0.00000000000E+00 -0.63318655115E+03  0.64541189599E+03  0.12502522516E+03 0.  0.
    9000005    1    3    3    0    0  0.77306718887E+01 -0.32613777648E+02 -0.58894336253E+03  0.58989719956E+03  0.10000000000E+01 0.  0.
    9000005    1    3    3    0    0 -0.77306718887E+01  0.32613777648E+02 -0.44243188621E+02  0.55514696429E+02  0.10000000000E+01 0.  0.
<mgrwt>
<rscale>  0 0.12502523E+03</rscale>
<asrwt>0</asrwt>
<pdfrwt beam="2">  1        4 0.15982458E+00 0.12502523E+03</pdfrwt>
<pdfrwt beam="1">  1       -4 0.15281703E-02 0.12502523E+03</pdfrwt>
<totfact> 0.67999667E+02</totfact>
</mgrwt>
</event>
<event>
 5    1  0.1430314E-002  0.1250006E+03  0.7818608E-02  0.1235068E+00
         -4   -1    0    0    0  501 -0.00000000000E+00  0.00000000000E+00  0.16409978750E+03  0.16410470182E+03  0.12700000000E+01 0.  1.
          4   -1    0    0  501    0  0.00000000000E+00 -0.00000000000E+00 -0.23782142166E+02  0.23816027923E+02  0.12700000000E+01 0.  1.
         25    2    1    2    0    0  0.00000000000E+00  0.00000000000E+00  0.14031764534E+03  0.18792072974E+03  0.12500063629E+03 0.  0.
    9000005    1    3    3    0    0 -0.38506447024E+02 -0.42447066779E+02  0.10761597546E+03  0.12192907002E+03  0.10000000000E+01 0.  0.
    9000005    1    3    3    0    0  0.38506447024E+02  0.42447066779E+02  0.32701669876E+02  0.65991659725E+02  0.10000000000E+01 0.  0.
<mgrwt>
<rscale>  0 0.12500064E+03</rscale>
<asrwt>0</asrwt>
<pdfrwt beam="2">  1        4 0.59503857E-02 0.12500064E+03</pdfrwt>
<pdfrwt beam="1">  1       -4 0.41029796E-01 0.12500064E+03</pdfrwt>
<totfact> 0.16817173E+03</totfact>
</mgrwt>
</event>
<event>
 5    1  0.1430314E-002  0.1250007E+03  0.7818608E-02  0.1235068E+00
          4   -1    0    0  501    0  0.00000000000E+00  0.00000000000E+00  0.90339498864E+02  0.90348425305E+02  0.12700000000E+01 0. -1.
         -4   -1    0    0    0  501 -0.00000000000E+00 -0.00000000000E+00 -0.43219759827E+02  0.43238415091E+02  0.12700000000E+01 0. -1.
         25    2    1    2    0    0  0.00000000000E+00  0.00000000000E+00  0.47119739037E+02  0.13358684040E+03  0.12500069648E+03 0.  0.
    9000005    1    3    3    0    0  0.39791844823E+02 -0.42207037176E+02 -0.12849868477E+01  0.58029958580E+02  0.10000000000E+01 0.  0.
    9000005    1    3    3    0    0 -0.39791844823E+02  0.42207037176E+02  0.48404725884E+02  0.75556881815E+02  0.10000000000E+01 0.  0.
<mgrwt>
<rscale>  0 0.12500070E+03</rscale>
<asrwt>0</asrwt>
<pdfrwt beam="1">  1        4 0.22588322E-01 0.12500070E+03</pdfrwt>
<pdfrwt beam="2">  1       -4 0.10808388E-01 0.12500070E+03</pdfrwt>
<totfact> 0.19373100E+03</totfact>
</mgrwt>
</event>
<event>
 5    1  0.1430314E-002  0.1250013E+03  0.7818608E-02  0.1235067E+00
         -4   -1    0    0    0  501 -0.00000000000E+00  0.00000000000E+00  0.51137495317E+02  0.51153263115E+02  0.12700000000E+01 0. -1.
          4   -1    0    0  501    0  0.00000000000E+00 -0.00000000000E+00 -0.76355965539E+02  0.76366526525E+02  0.12700000000E+01 0. -1.
         25    2    1    2    0    0  0.00000000000E+00  0.00000000000E+00 -0.25218470222E+02  0.12751978964E+03  0.12500130203E+03 0.  0.
    9000005    1    3    3    0    0 -0.61521048287E+02 -0.10213778026E+02 -0.85069304514E+01  0.62948618012E+02  0.10000000000E+01 0.  0.
    9000005    1    3    3    0    0  0.61521048287E+02  0.10213778026E+02 -0.16711539771E+02  0.64571171628E+02  0.10000000000E+01 0.  0.
<mgrwt>
<rscale>  0 0.12500130E+03</rscale>
<asrwt>0</asrwt>
<pdfrwt beam="2">  1        4 0.19092282E-01 0.12500130E+03</pdfrwt>
<pdfrwt beam="1">  1       -4 0.12787665E-01 0.12500130E+03</pdfrwt>
<totfact> 0.19698106E+03</totfact>
</mgrwt>
</event>
<event>
 5    1  0.1430314E-002  0.1249984E+03  0.7818608E-02  0.1235072E+00
          4   -1    0    0  501    0  0.00000000000E+00  0.00000000000E+00  0.39897078497E+02  0.39917286639E+02  0.12700000000E+01 0. -1.
         -4   -1    0    0    0  501 -0.00000000000E+00 -0.00000000000E+00 -0.97856590752E+02  0.97864831546E+02  0.12700000000E+01 0. -1.
         25    2    1    2    0    0  0.00000000000E+00  0.00000000000E+00 -0.57959512254E+02  0.13778211819E+03  0.12499842811E+03 0.  0.
    9000005    1    3    3    0    0 -0.58997560626E+02 -0.47147692045E+01 -0.51086003928E+02  0.78190287158E+02  0.10000000000E+01 0.  0.
    9000005    1    3    3    0    0  0.58997560626E+02  0.47147692045E+01 -0.68735083257E+01  0.59591831027E+02  0.10000000000E+01 0.  0.
<mgrwt>
<rscale>  0 0.12499843E+03</rscale>
<asrwt>0</asrwt>
<pdfrwt beam="1">  1        4 0.99778259E-02 0.12499843E+03</pdfrwt>
<pdfrwt beam="2">  1       -4 0.24467703E-01 0.12499843E+03</pdfrwt>
<totfact> 0.19155089E+03</totfact>
</mgrwt>
</event>
<event>
 5    1  0.1430314E-002  0.1250009E+03  0.7818608E-02  0.1235068E+00
         -4   -1    0    0    0  501 -0.00000000000E+00  0.00000000000E+00  0.44313298391E+02  0.44331493481E+02  0.12700000000E+01 0.  1.
          4   -1    0    0  501    0  0.00000000000E+00 -0.00000000000E+00 -0.88111130154E+02  0.88120282324E+02  0.12700000000E+01 0.  1.
         25    2    1    2    0    0  0.00000000000E+00  0.00000000000E+00 -0.43797831763E+02  0.13245177581E+03  0.12500089138E+03 0.  0.
    9000005    1    3    3    0    0  0.49903351148E+02  0.16124655480E+02 -0.57909281800E+02  0.78133436432E+02  0.10000000000E+01 0.  0.
    9000005    1    3    3    0    0 -0.49903351148E+02 -0.16124655480E+02  0.14111450037E+02  0.54318339373E+02  0.10000000000E+01 0.  0.
<mgrwt>
<rscale>  0 0.12500089E+03</rscale>
<asrwt>0</asrwt>
<pdfrwt beam="2">  1        4 0.22031201E-01 0.12500089E+03</pdfrwt>
<pdfrwt beam="1">  1       -4 0.11081743E-01 0.12500089E+03</pdfrwt>
<totfact> 0.19433054E+03</totfact>
</mgrwt>
</event>
<event>
 5    1  0.1430314E-002  0.1249998E+03  0.7818608E-02  0.1235070E+00
          4   -1    0    0  501    0  0.00000000000E+00  0.00000000000E+00  0.43434437256E+01  0.45253069948E+01  0.12700000000E+01 0.  1.
         -4   -1    0    0    0  501 -0.00000000000E+00 -0.00000000000E+00 -0.88071624962E+03  0.88071716530E+03  0.12700000000E+01 0.  1.
         25    2    1    2    0    0  0.00000000000E+00  0.00000000000E+00 -0.87637280589E+03  0.88524247229E+03  0.12499975934E+03 0.  0.
    9000005    1    3    3    0    0 -0.35788650870E+02 -0.49503621130E+02 -0.34482301450E+03  0.35019330000E+03  0.10000000000E+01 0.  0.
    9000005    1    3    3    0    0  0.35788650870E+02  0.49503621130E+02 -0.53154979139E+03  0.53504917229E+03  0.10000000000E+01 0.  0.
<mgrwt>
<rscale>  0 0.12499976E+03</rscale>
<asrwt>0</asrwt>
<pdfrwt beam="1">  1        4 0.11087113E-02 0.12499976E+03</pdfrwt>
<pdfrwt beam="2">  1       -4 0.22020131E+00 0.12499976E+03</pdfrwt>
<totfact> 0.45413243E+02</totfact>
</mgrwt>
</event>
<event>
 5    1  0.1430314E-002  0.1249985E+03  0.7818608E-02  0.1235072E+00
         -4   -1    0    0    0  501 -0.00000000000E+00  0.00000000000E+00  0.58618040131E+03  0.58618177708E+03  0.12700000000E+01 0. -1.
          4   -1    0    0  501    0  0.00000000000E+00 -0.00000000000E+00 -0.66018360523E+01  0.67228817677E+01  0.12700000000E+01 0. -1.
         25    2    1    2    0    0  0.00000000000E+00  0.00000000000E+00  0.57957856526E+03  0.59290465885E+03  0.12499848470E+03 0.  0.
    9000005    1    3    3    0    0 -0.11250938238E+02 -0.47707367773E+02  0.10592442283E+03  0.11672000644E+03  0.10000000000E+01 0.  0.
    9000005    1    3    3    0    0  0.11250938238E+02  0.47707367773E+02  0.47365414242E+03  0.47618465241E+03  0.10000000000E+01 0.  0.
<mgrwt>
<rscale>  0 0.12499848E+03</rscale>
<asrwt>0</asrwt>
<pdfrwt beam="2">  1        4 0.16657620E-02 0.12499848E+03</pdfrwt>
<pdfrwt beam="1">  1       -4 0.14656037E+00 0.12499848E+03</pdfrwt>
<totfact> 0.74405506E+02</totfact>
</mgrwt>
</event>
<event>
 5    1  0.1430314E-002  0.1250002E+03  0.7818608E-02  0.1235069E+00
          4   -1    0    0  501    0  0.00000000000E+00  0.00000000000E+00  0.90445567044E+01  0.91332856070E+01  0.12700000000E+01 0.  1.
         -4   -1    0    0    0  501 -0.00000000000E+00 -0.00000000000E+00 -0.42969309540E+03  0.42969497220E+03  0.12700000000E+01 0.  1.
         25    2    1    2    0    0  0.00000000000E+00  0.00000000000E+00 -0.42064853870E+03  0.43882825781E+03  0.12500018698E+03 0.  0.
    9000005    1    3    3    0    0  0.19709111048E+02  0.49007531708E+02 -0.93095054010E+02  0.10704147002E+03  0.10000000000E+01 0.  0.
    9000005    1    3    3    0    0 -0.19709111048E+02 -0.49007531708E+02 -0.32755348469E+03  0.33178678779E+03  0.10000000000E+01 0.  0.
<mgrwt>
<rscale>  0 0.12500019E+03</rscale>
<asrwt>0</asrwt>
<pdfrwt beam="1">  1        4 0.22724663E-02 0.12500019E+03</pdfrwt>
<pdfrwt beam="2">  1       -4 0.10743453E+00 0.12500019E+03</pdfrwt>
<totfact> 0.98057528E+02</totfact>
</mgrwt>
</event>
<event>
 5    1  0.1430314E-002  0.1249996E+03  0.7818608E-02  0.1235070E+00
          4   -1    0    0  501    0  0.00000000000E+00  0.00000000000E+00  0.15645827809E+02  0.15697287276E+02  0.12700000000E+01 0. -1.
         -4   -1    0    0    0  501 -0.00000000000E+00 -0.00000000000E+00 -0.24920271656E+03  0.24920595266E+03  0.12700000000E+01 0. -1.
         25    2    1    2    0    0  0.00000000000E+00  0.00000000000E+00 -0.23355688875E+03  0.26490323993E+03  0.12499962498E+03 0.  0.
    9000005    1    3    3    0    0  0.54068815650E+02 -0.15762426970E+02 -0.59389273080E+02  0.81853385310E+02  0.10000000000E+01 0.  0.
    9000005    1    3    3    0    0 -0.54068815650E+02  0.15762426970E+02 -0.17416761567E+03  0.18304985462E+03  0.10000000000E+01 0.  0.
<mgrwt>
<rscale>  0 0.12499962E+03</rscale>
<asrwt>0</asrwt>
<pdfrwt beam="1">  1        4 0.39182947E-02 0.12499962E+03</pdfrwt>
<pdfrwt beam="2">  1       -4 0.62307503E-01 0.12499962E+03</pdfrwt>
<totfact> 0.14015167E+03</totfact>
</mgrwt>
</event>
<event>
 5    1  0.1430314E-002  0.1250007E+03  0.7818608E-02  0.1235068E+00
          4   -1    0    0  501    0  0.00000000000E+00  0.00000000000E+00  0.11530602931E+02  0.11600332062E+02  0.12700000000E+01 0. -1.
         -4   -1    0    0    0  501 -0.00000000000E+00 -0.00000000000E+00 -0.33768413751E+03  0.33768652568E+03  0.12700000000E+01 0. -1.
         25    2    1    2    0    0  0.00000000000E+00  0.00000000000E+00 -0.32615353458E+03  0.34928685775E+03  0.12500072349E+03 0.  0.
    9000005    1    3    3    0    0 -0.31348228271E+02  0.11231724709E+02 -0.31084186413E+03  0.31262202026E+03  0.10000000000E+01 0.  0.
    9000005    1    3    3    0    0  0.31348228271E+02 -0.11231724709E+02 -0.15311670451E+02  0.36664837483E+02  0.10000000000E+01 0.  0.
<mgrwt>
<rscale>  0 0.12500072E+03</rscale>
<asrwt>0</asrwt>
<pdfrwt beam="1">  1        4 0.28916665E-02 0.12500072E+03</pdfrwt>
<pdfrwt beam="2">  1       -4 0.84430016E-01 0.12500072E+03</pdfrwt>
<totfact> 0.11694158E+03</totfact>
</mgrwt>
</event>
<event>
 5    1  0.1430314E-002  0.1249992E+03  0.7818608E-02  0.1235070E+00
         -4   -1    0    0    0  501 -0.00000000000E+00  0.00000000000E+00  0.86058534568E+01  0.86990582088E+01  0.12700000000E+01 0.  1.
          4   -1    0    0  501    0  0.00000000000E+00 -0.00000000000E+00 -0.45136188785E+03  0.45136367455E+03  0.12700000000E+01 0.  1.
         25    2    1    2    0    0  0.00000000000E+00  0.00000000000E+00 -0.44275603439E+03  0.46006273276E+03  0.12499924833E+03 0.  0.
    9000005    1    3    3    0    0  0.39613112399E+02  0.30620444399E+02 -0.83744492392E+02  0.97575357008E+02  0.10000000000E+01 0.  0.
    9000005    1    3    3    0    0 -0.39613112399E+02 -0.30620444399E+02 -0.35901154200E+03  0.36248737575E+03  0.10000000000E+01 0.  0.
<mgrwt>
<rscale>  0 0.12499925E+03</rscale>
<asrwt>0</asrwt>
<pdfrwt beam="2">  1        4 0.11285227E+00 0.12499925E+03</pdfrwt>
<pdfrwt beam="1">  1       -4 0.21633388E-02 0.12499925E+03</pdfrwt>
<totfact> 0.94239693E+02</totfact>
</mgrwt>
</event>
<event>
 5    1  0.1430314E-002  0.1250026E+03  0.7818608E-02  0.1235065E+00
          4   -1    0    0  501    0  0.00000000000E+00  0.00000000000E+00  0.26761697977E+03  0.26761999321E+03  0.12700000000E+01 0.  1.
         -4   -1    0    0    0  501 -0.00000000000E+00 -0.00000000000E+00 -0.14566313321E+02  0.14621572548E+02  0.12700000000E+01 0.  1.
         25    2    1    2    0    0  0.00000000000E+00  0.00000000000E+00  0.25305066645E+03  0.28224156575E+03  0.12500264656E+03 0.  0.
    9000005    1    3    3    0    0 -0.12828409279E+02 -0.18382019613E+02 -0.51879163523E+01  0.23030006638E+02  0.10000000000E+01 0.  0.
    9000005    1    3    3    0    0  0.12828409279E+02  0.18382019613E+02  0.25823858281E+03  0.25921155912E+03  0.10000000000E+01 0.  0.
<mgrwt>
<rscale>  0 0.12500265E+03</rscale>
<asrwt>0</asrwt>
<pdfrwt beam="1">  1        4 0.66911530E-01 0.12500265E+03</pdfrwt>
<pdfrwt beam="2">  1       -4 0.36488624E-02 0.12500265E+03</pdfrwt>
<totfact> 0.13482963E+03</totfact>
</mgrwt>
</event>
<event>
 5    1  0.1430314E-002  0.1250021E+03  0.7818608E-02  0.1235066E+00
          4   -1    0    0  501    0  0.00000000000E+00  0.00000000000E+00  0.16746128202E+03  0.16746609769E+03  0.12700000000E+01 0.  1.
         -4   -1    0    0    0  501 -0.00000000000E+00 -0.00000000000E+00 -0.23304620674E+02  0.23339199745E+02  0.12700000000E+01 0.  1.
         25    2    1    2    0    0  0.00000000000E+00  0.00000000000E+00  0.14415666134E+03  0.19080529743E+03  0.12500207406E+03 0.  0.
    9000005    1    3    3    0    0  0.82113886044E+01  0.80908693872E+01 -0.21675126195E+02  0.24570310658E+02  0.10000000000E+01 0.  0.
    9000005    1    3    3    0    0 -0.82113886044E+01 -0.80908693872E+01  0.16583178754E+03  0.16623498677E+03  0.10000000000E+01 0.  0.
<mgrwt>
<rscale>  0 0.12500207E+03</rscale>
<asrwt>0</asrwt>
<pdfrwt beam="1">  1        4 0.41870245E-01 0.12500207E+03</pdfrwt>
<pdfrwt beam="2">  1       -4 0.58310795E-02 0.12500207E+03</pdfrwt>
<totfact> 0.16696153E+03</totfact>
</mgrwt>
</event>
<event>
 5    1  0.1430314E-002  0.1249992E+03  0.7818608E-02  0.1235070E+00
         -4   -1    0    0    0  501 -0.00000000000E+00  0.00000000000E+00  0.92860459775E+02  0.92869143905E+02  0.12700000000E+01 0. -1.
          4   -1    0    0  501    0  0.00000000000E+00 -0.00000000000E+00 -0.42045051792E+02  0.42064228036E+02  0.12700000000E+01 0. -1.
         25    2    1    2    0    0  0.00000000000E+00  0.00000000000E+00  0.50815407983E+02  0.13493337194E+03  0.12499923670E+03 0.  0.
    9000005    1    3    3    0    0 -0.99447182296E+01  0.61656942021E+02  0.23060904214E+02  0.66582889868E+02  0.10000000000E+01 0.  0.
    9000005    1    3    3    0    0  0.99447182296E+01 -0.61656942021E+02  0.27754503768E+02  0.68350482072E+02  0.10000000000E+01 0.  0.
<mgrwt>
<rscale>  0 0.12499924E+03</rscale>
<asrwt>0</asrwt>
<pdfrwt beam="2">  1        4 0.10514746E-01 0.12499924E+03</pdfrwt>
<pdfrwt beam="1">  1       -4 0.23218597E-01 0.12499924E+03</pdfrwt>
<totfact> 0.19302971E+03</totfact>
</mgrwt>
</event>
<event>
 5    1  0.1430314E-002  0.1250114E+03  0.7818608E-02  0.1235052E+00
          4   -1    0    0  501    0  0.00000000000E+00  0.00000000000E+00  0.10261177740E+03  0.10261963633E+03  0.12700000000E+01 0. -1.
         -4   -1    0    0    0  501 -0.00000000000E+00 -0.00000000000E+00 -0.38055260647E+02  0.38076446301E+02  0.12700000000E+01 0. -1.
         25    2    1    2    0    0  0.00000000000E+00  0.00000000000E+00  0.64556516750E+02  0.14069608263E+03  0.12501137473E+03 0.  0.
    9000005    1    3    3    0    0  0.47559548518E+02  0.34568788790E+02  0.56127765529E+02  0.81291068864E+02  0.10000000000E+01 0.  0.
    9000005    1    3    3    0    0 -0.47559548518E+02 -0.34568788790E+02  0.84287512202E+01  0.59405013768E+02  0.10000000000E+01 0.  0.
<mgrwt>
<rscale>  0 0.12501137E+03</rscale>
<asrwt>0</asrwt>
<pdfrwt beam="1">  1        4 0.25656575E-01 0.12501137E+03</pdfrwt>
<pdfrwt beam="2">  1       -4 0.95174458E-02 0.12501137E+03</pdfrwt>
<totfact> 0.18999749E+03</totfact>
</mgrwt>
</event>
<event>
 5    1  0.1430314E-002  0.1250008E+03  0.7818608E-02  0.1235068E+00
          4   -1    0    0  501    0  0.00000000000E+00  0.00000000000E+00  0.13509646053E+02  0.13569209132E+02  0.12700000000E+01 0.  1.
         -4   -1    0    0    0  501 -0.00000000000E+00 -0.00000000000E+00 -0.28845214378E+03  0.28845493955E+03  0.12700000000E+01 0.  1.
         25    2    1    2    0    0  0.00000000000E+00  0.00000000000E+00 -0.27494249773E+03  0.30202414868E+03  0.12500083732E+03 0.  0.
    9000005    1    3    3    0    0  0.79038006508E+01  0.61457486269E+02 -0.11787046067E+03  0.13316883338E+03  0.10000000000E+01 0.  0.
    9000005    1    3    3    0    0 -0.79038006508E+01 -0.61457486269E+02 -0.15707203705E+03  0.16885531531E+03  0.10000000000E+01 0.  0.
<mgrwt>
<rscale>  0 0.12500084E+03</rscale>
<asrwt>0</asrwt>
<pdfrwt beam="1">  1        4 0.33852073E-02 0.12500084E+03</pdfrwt>
<pdfrwt beam="2">  1       -4 0.72120811E-01 0.12500084E+03</pdfrwt>
<totfact> 0.12914269E+03</totfact>
</mgrwt>
</event>
<event>
 5    1  0.1430314E-002  0.1250022E+03  0.7818608E-02  0.1235066E+00
         -4   -1    0    0    0  501 -0.00000000000E+00  0.00000000000E+00  0.17062803894E+03  0.17063276524E+03  0.12700000000E+01 0. -1.
          4   -1    0    0  501    0  0.00000000000E+00 -0.00000000000E+00 -0.22871514419E+02  0.22906747299E+02  0.12700000000E+01 0. -1.
         25    2    1    2    0    0  0.00000000000E+00  0.00000000000E+00  0.14775652452E+03  0.19353951254E+03  0.12500220948E+03 0.  0.
    9000005    1    3    3    0    0 -0.61457242919E+02 -0.62174451668E+01  0.59211238682E+02  0.85572309294E+02  0.10000000000E+01 0.  0.
    9000005    1    3    3    0    0  0.61457242919E+02  0.62174451668E+01  0.88545285840E+02  0.10796720324E+03  0.10000000000E+01 0.  0.
<mgrwt>
<rscale>  0 0.12500221E+03</rscale>
<asrwt>0</asrwt>
<pdfrwt beam="2">  1        4 0.57228735E-02 0.12500221E+03</pdfrwt>
<pdfrwt beam="1">  1       -4 0.42662004E-01 0.12500221E+03</pdfrwt>
<totfact> 0.16583192E+03</totfact>
</mgrwt>
</event>
<event>
 5    1  0.1430314E-002  0.1249999E+03  0.7818608E-02  0.1235069E+00
          4   -1    0    0  501    0  0.00000000000E+00  0.00000000000E+00  0.31571603740E+03  0.31571859174E+03  0.12700000000E+01 0.  1.
         -4   -1    0    0    0  501 -0.00000000000E+00 -0.00000000000E+00 -0.12337455526E+02  0.12402649267E+02  0.12700000000E+01 0.  1.
         25    2    1    2    0    0  0.00000000000E+00  0.00000000000E+00  0.30337858187E+03  0.32812124101E+03  0.12499993944E+03 0.  0.
    9000005    1    3    3    0    0 -0.48530216404E+02 -0.22040962330E+02  0.23732373289E+03  0.24323762068E+03  0.10000000000E+01 0.  0.
    9000005    1    3    3    0    0  0.48530216404E+02  0.22040962330E+02  0.66054848985E+02  0.84883620322E+02  0.10000000000E+01 0.  0.
<mgrwt>
<rscale>  0 0.12499994E+03</rscale>
<asrwt>0</asrwt>
<pdfrwt beam="1">  1        4 0.78937478E-01 0.12499994E+03</pdfrwt>
<pdfrwt beam="2">  1       -4 0.30928324E-02 0.12499994E+03</pdfrwt>
<totfact> 0.12217980E+03</totfact>
</mgrwt>
</event>
<event>
 5    1  0.1430314E-002  0.1249972E+03  0.7818608E-02  0.1235074E+00
         -4   -1    0    0    0  501 -0.00000000000E+00  0.00000000000E+00  0.63380915593E+03  0.63381042832E+03  0.12700000000E+01 0. -1.
          4   -1    0    0  501    0  0.00000000000E+00 -0.00000000000E+00 -0.60961375000E+01  0.62270211513E+01  0.12700000000E+01 0. -1.
         25    2    1    2    0    0  0.00000000000E+00  0.00000000000E+00  0.62771301843E+03  0.64003744947E+03  0.12499721282E+03 0.  0.
    9000005    1    3    3    0    0 -0.50665991886E+01  0.46934852536E+02  0.10419916859E+03  0.11439850325E+03  0.10000000000E+01 0.  0.
    9000005    1    3    3    0    0  0.50665991886E+01 -0.46934852536E+02  0.52351384984E+03  0.52563894622E+03  0.10000000000E+01 0.  0.
<mgrwt>
<rscale>  0 0.12499721E+03</rscale>
<asrwt>0</asrwt>
<pdfrwt beam="2">  1        4 0.15405541E-02 0.12499721E+03</pdfrwt>
<pdfrwt beam="1">  1       -4 0.15846879E+00 0.12499721E+03</pdfrwt>
<totfact> 0.68666863E+02</totfact>
</mgrwt>
</event>
<event>
 4    1  0.1430314E-002  0.1249236E+03  0.7818608E-02  0.1235189E+00
         -4   -1    0    0    0  501 -0.00000000000E+00  0.00000000000E+00  0.31718689134E+02  0.31744104026E+02  0.12700000000E+01 0. -1.
          4   -1    0    0  501    0  0.00000000000E+00 -0.00000000000E+00 -0.12292446767E+03  0.12293102803E+03  0.12700000000E+01 0. -1.
    9000005    1    1    2    0    0  0.26928253748E+02  0.41032278672E+02  0.22178560308E+01  0.49139572935E+02  0.10000000000E+01 0.  0.
    9000005    1    1    2    0    0 -0.26928253748E+02 -0.41032278672E+02 -0.93423634568E+02  0.10553555912E+03  0.10000000000E+01 0.  0.
<mgrwt>
<rscale>  0 0.12492359E+03</rscale>
<asrwt>0</asrwt>
<pdfrwt beam="2">  1        4 0.30735113E-01 0.12492359E+03</pdfrwt>
<pdfrwt beam="1">  1       -4 0.79336695E-02 0.12492359E+03</pdfrwt>
<totfact> 0.18343848E+03</totfact>
</mgrwt>
</event>
<event>
 5    1  0.1430314E-002  0.1249984E+03  0.7818608E-02  0.1235072E+00
         -4   -1    0    0    0  501 -0.00000000000E+00  0.00000000000E+00  0.43360550890E+02  0.43379145605E+02  0.12700000000E+01 0. -1.
          4   -1    0    0  501    0  0.00000000000E+00 -0.00000000000E+00 -0.90042960184E+02  0.90051916019E+02  0.12700000000E+01 0. -1.
         25    2    1    2    0    0  0.00000000000E+00  0.00000000000E+00 -0.46682409295E+02  0.13343106162E+03  0.12499840346E+03 0.  0.
    9000005    1    3    3    0    0  0.26922182659E+02  0.54867926612E+02 -0.94290592741E+01  0.61848204894E+02  0.10000000000E+01 0.  0.
    9000005    1    3    3    0    0 -0.26922182659E+02 -0.54867926612E+02 -0.37253350021E+02  0.71582856730E+02  0.10000000000E+01 0.  0.
<mgrwt>
<rscale>  0 0.12499840E+03</rscale>
<asrwt>0</asrwt>
<pdfrwt beam="2">  1        4 0.22514184E-01 0.12499840E+03</pdfrwt>
<pdfrwt beam="1">  1       -4 0.10843582E-01 0.12499840E+03</pdfrwt>
<totfact> 0.19382357E+03</totfact>
</mgrwt>
</event>
<event>
 5    1  0.1430314E-002  0.1249989E+03  0.7818608E-02  0.1235071E+00
          4   -1    0    0  501    0  0.00000000000E+00  0.00000000000E+00  0.21204412562E+02  0.21242410694E+02  0.12700000000E+01 0. -1.
         -4   -1    0    0    0  501 -0.00000000000E+00 -0.00000000000E+00 -0.18401045492E+03  0.18401483750E+03  0.12700000000E+01 0. -1.
         25    2    1    2    0    0  0.00000000000E+00  0.00000000000E+00 -0.16280604236E+03  0.20525724819E+03  0.12499892202E+03 0.  0.
    9000005    1    3    3    0    0  0.51016396631E+02  0.24676619881E+02 -0.12464830391E+03  0.13692993815E+03  0.10000000000E+01 0.  0.
    9000005    1    3    3    0    0 -0.51016396631E+02 -0.24676619881E+02 -0.38157738442E+02  0.68327310038E+02  0.10000000000E+01 0.  0.
<mgrwt>
<rscale>  0 0.12499892E+03</rscale>
<asrwt>0</asrwt>
<pdfrwt beam="1">  1        4 0.53064013E-02 0.12499892E+03</pdfrwt>
<pdfrwt beam="2">  1       -4 0.46007907E-01 0.12499892E+03</pdfrwt>
<totfact> 0.16114077E+03</totfact>
</mgrwt>
</event>
<event>
 5    1  0.1430314E-002  0.1250000E+03  0.7818608E-02  0.1235069E+00
          4   -1    0    0  501    0  0.00000000000E+00  0.00000000000E+00  0.12227583244E+03  0.12228242759E+03  0.12700000000E+01 0.  1.
         -4   -1    0    0    0  501 -0.00000000000E+00 -0.00000000000E+00 -0.31926150168E+02  0.31951400040E+02  0.12700000000E+01 0.  1.
         25    2    1    2    0    0  0.00000000000E+00  0.00000000000E+00  0.90349682269E+02  0.15423382763E+03  0.12500003400E+03 0.  0.
    9000005    1    3    3    0    0 -0.24088318738E+02 -0.21709617178E+02  0.11108820503E+03  0.11572875129E+03  0.10000000000E+01 0.  0.
    9000005    1    3    3    0    0  0.24088318738E+02  0.21709617178E+02 -0.20738522765E+02  0.38505076342E+02  0.10000000000E+01 0.  0.
<mgrwt>
<rscale>  0 0.12500003E+03</rscale>
<asrwt>0</asrwt>
<pdfrwt beam="1">  1        4 0.30572938E-01 0.12500003E+03</pdfrwt>
<pdfrwt beam="2">  1       -4 0.79855183E-02 0.12500003E+03</pdfrwt>
<totfact> 0.18332529E+03</totfact>
</mgrwt>
</event>
<event>
 5    1  0.1430314E-002  0.1250000E+03  0.7818608E-02  0.1235069E+00
          4   -1    0    0  501    0  0.00000000000E+00  0.00000000000E+00  0.84079501910E+02  0.84089092880E+02  0.12700000000E+01 0. -1.
         -4   -1    0    0    0  501 -0.00000000000E+00 -0.00000000000E+00 -0.46438051425E+02  0.46455414326E+02  0.12700000000E+01 0. -1.
         25    2    1    2    0    0  0.00000000000E+00  0.00000000000E+00  0.37641450484E+02  0.13054450721E+03  0.12499995827E+03 0.  0.
    9000005    1    3    3    0    0 -0.15794981693E+02 -0.59684406853E+02  0.87202532362E+01  0.62359864372E+02  0.10000000000E+01 0.  0.
    9000005    1    3    3    0    0  0.15794981693E+02  0.59684406853E+02  0.28921197248E+02  0.68184642833E+02  0.10000000000E+01 0.  0.
<mgrwt>
<rscale>  0 0.12499996E+03</rscale>
<asrwt>0</asrwt>
<pdfrwt beam="1">  1        4 0.21023245E-01 0.12499996E+03</pdfrwt>
<pdfrwt beam="2">  1       -4 0.11612882E-01 0.12499996E+03</pdfrwt>
<totfact> 0.19535174E+03</totfact>
</mgrwt>
</event>
<event>
 5    1  0.1430314E-002  0.1249971E+03  0.7818608E-02  0.1235074E+00
          4   -1    0    0  501    0  0.00000000000E+00  0.00000000000E+00  0.75091417475E+03  0.75091524870E+03  0.12700000000E+01 0.  1.
         -4   -1    0    0    0  501 -0.00000000000E+00 -0.00000000000E+00 -0.51231383612E+01  0.52782048717E+01  0.12700000000E+01 0.  1.
         25    2    1    2    0    0  0.00000000000E+00  0.00000000000E+00  0.74579103639E+03  0.75619345358E+03  0.12499707707E+03 0.  0.
    9000005    1    3    3    0    0  0.58553958435E+02 -0.36760853235E+01  0.24272346133E+03  0.24971535462E+03  0.10000000000E+01 0.  0.
    9000005    1    3    3    0    0 -0.58553958435E+02  0.36760853235E+01  0.50306757505E+03  0.50647809896E+03  0.10000000000E+01 0.  0.
<mgrwt>
<rscale>  0 0.12499708E+03</rscale>
<asrwt>0</asrwt>
<pdfrwt beam="1">  1        4 0.18774805E+00 0.12499708E+03</pdfrwt>
<pdfrwt beam="2">  1       -4 0.13003022E-02 0.12499708E+03</pdfrwt>
<totfact> 0.56485669E+02</totfact>
</mgrwt>
</event>
<event>
 5    1  0.1430314E-002  0.1249993E+03  0.7818608E-02  0.1235070E+00
         -4   -1    0    0    0  501 -0.00000000000E+00  0.00000000000E+00  0.14208867765E+02  0.14265511668E+02  0.12700000000E+01 0. -1.
          4   -1    0    0  501    0  0.00000000000E+00 -0.00000000000E+00 -0.27430841840E+03  0.27431135832E+03  0.12700000000E+01 0. -1.
         25    2    1    2    0    0  0.00000000000E+00  0.00000000000E+00 -0.26009955064E+03  0.28857686999E+03  0.12499933461E+03 0.  0.
    9000005    1    3    3    0    0  0.44767676869E+02  0.37185050839E+02 -0.77489297971E+02  0.96914726426E+02  0.10000000000E+01 0.  0.
    9000005    1    3    3    0    0 -0.44767676869E+02 -0.37185050839E+02 -0.18261025267E+03  0.19166214357E+03  0.10000000000E+01 0.  0.
<mgrwt>
<rscale>  0 0.12499933E+03</rscale>
<asrwt>0</asrwt>
<pdfrwt beam="2">  1        4 0.68584536E-01 0.12499933E+03</pdfrwt>
<pdfrwt beam="1">  1       -4 0.35596658E-02 0.12499933E+03</pdfrwt>
<totfact> 0.13297564E+03</totfact>
</mgrwt>
</event>
<event>
 5    1  0.1430314E-002  0.1250013E+03  0.7818608E-02  0.1235067E+00
         -4   -1    0    0    0  501 -0.00000000000E+00  0.00000000000E+00  0.42571204191E+02  0.42590143534E+02  0.12700000000E+01 0.  1.
          4   -1    0    0  501    0  0.00000000000E+00 -0.00000000000E+00 -0.91716179892E+02  0.91724972358E+02  0.12700000000E+01 0.  1.
         25    2    1    2    0    0  0.00000000000E+00  0.00000000000E+00 -0.49144975702E+02  0.13431511589E+03  0.12500128687E+03 0.  0.
    9000005    1    3    3    0    0  0.51569684911E+02  0.15608315234E+02  0.94451865057E+01  0.54710725223E+02  0.10000000000E+01 0.  0.
    9000005    1    3    3    0    0 -0.51569684911E+02 -0.15608315234E+02 -0.58590162207E+02  0.79604390669E+02  0.10000000000E+01 0.  0.
<mgrwt>
<rscale>  0 0.12500129E+03</rscale>
<asrwt>0</asrwt>
<pdfrwt beam="2">  1        4 0.22932511E-01 0.12500129E+03</pdfrwt>
<pdfrwt beam="1">  1       -4 0.10646268E-01 0.12500129E+03</pdfrwt>
<totfact> 0.19334490E+03</totfact>
</mgrwt>
</event>
<event>
 5    1  0.1430314E-002  0.1249998E+03  0.7818608E-02  0.1235070E+00
          4   -1    0    0  501    0  0.00000000000E+00  0.00000000000E+00  0.45477336061E+02  0.45495065614E+02  0.12700000000E+01 0. -1.
         -4   -1    0    0    0  501 -0.00000000000E+00 -0.00000000000E+00 -0.85855021887E+02  0.85864414534E+02  0.12700000000E+01 0. -1.
         25    2    1    2    0    0  0.00000000000E+00  0.00000000000E+00 -0.40377685826E+02  0.13135948015E+03  0.12499982205E+03 0.  0.
    9000005    1    3    3    0    0  0.21691757574E+02 -0.58047912513E+02 -0.28670821752E+02  0.68286957127E+02  0.10000000000E+01 0.  0.
    9000005    1    3    3    0    0 -0.21691757574E+02  0.58047912513E+02 -0.11706864074E+02  0.63072523021E+02  0.10000000000E+01 0.  0.
<mgrwt>
<rscale>  0 0.12499982E+03</rscale>
<asrwt>0</asrwt>
<pdfrwt beam="1">  1        4 0.11372724E-01 0.12499982E+03</pdfrwt>
<pdfrwt beam="2">  1       -4 0.21467146E-01 0.12499982E+03</pdfrwt>
<totfact> 0.19491655E+03</totfact>
</mgrwt>
</event>
<event>
 5    1  0.1430314E-002  0.1249959E+03  0.7818608E-02  0.1235076E+00
         -4   -1    0    0    0  501 -0.00000000000E+00  0.00000000000E+00  0.20915395826E+02  0.20953918072E+02  0.12700000000E+01 0.  1.
          4   -1    0    0  501    0  0.00000000000E+00 -0.00000000000E+00 -0.18653945106E+03  0.18654377422E+03  0.12700000000E+01 0.  1.
         25    2    1    2    0    0  0.00000000000E+00  0.00000000000E+00 -0.16562405523E+03  0.20749769229E+03  0.12499585847E+03 0.  0.
    9000005    1    3    3    0    0  0.44952490398E+02 -0.24270115450E+02 -0.23068554226E+02  0.56061779235E+02  0.10000000000E+01 0.  0.
    9000005    1    3    3    0    0 -0.44952490398E+02  0.24270115450E+02 -0.14255550101E+03  0.15143591306E+03  0.10000000000E+01 0.  0.
<mgrwt>
<rscale>  0 0.12499586E+03</rscale>
<asrwt>0</asrwt>
<pdfrwt beam="2">  1        4 0.46640213E-01 0.12499586E+03</pdfrwt>
<pdfrwt beam="1">  1       -4 0.52342052E-02 0.12499586E+03</pdfrwt>
<totfact> 0.16027695E+03</totfact>
</mgrwt>
</event>
<event>
 5    1  0.1430314E-002  0.1249940E+03  0.7818608E-02  0.1235079E+00
          4   -1    0    0  501    0  0.00000000000E+00  0.00000000000E+00  0.16500651460E+02  0.16549453121E+02  0.12700000000E+01 0. -1.
         -4   -1    0    0    0  501 -0.00000000000E+00 -0.00000000000E+00 -0.23631023433E+03  0.23631364698E+03  0.12700000000E+01 0. -1.
         25    2    1    2    0    0  0.00000000000E+00  0.00000000000E+00 -0.21980958287E+03  0.25286310010E+03  0.12499397854E+03 0.  0.
    9000005    1    3    3    0    0  0.57179721675E+01 -0.48448576799E+02 -0.18890332385E+03  0.19510362775E+03  0.10000000000E+01 0.  0.
    9000005    1    3    3    0    0 -0.57179721675E+01  0.48448576799E+02 -0.30906259018E+02  0.57759472349E+02  0.10000000000E+01 0.  0.
<mgrwt>
<rscale>  0 0.12499398E+03</rscale>
<asrwt>0</asrwt>
<pdfrwt beam="1">  1        4 0.41316904E-02 0.12499398E+03</pdfrwt>
<pdfrwt beam="2">  1       -4 0.59084075E-01 0.12499398E+03</pdfrwt>
<totfact> 0.14405222E+03</totfact>
</mgrwt>
</event>
<event>
 5    1  0.1430314E-002  0.1250009E+03  0.7818608E-02  0.1235068E+00
          4   -1    0    0  501    0  0.00000000000E+00  0.00000000000E+00  0.14073217144E+02  0.14130404835E+02  0.12700000000E+01 0.  1.
         -4   -1    0    0    0  501 -0.00000000000E+00 -0.00000000000E+00 -0.27694886282E+03  0.27695177472E+03  0.12700000000E+01 0.  1.
         25    2    1    2    0    0  0.00000000000E+00  0.00000000000E+00 -0.26287564568E+03  0.29108217955E+03  0.12500092064E+03 0.  0.
    9000005    1    3    3    0    0 -0.61603858789E+02  0.95086646368E+01 -0.14181463158E+03  0.15491236184E+03  0.10000000000E+01 0.  0.
    9000005    1    3    3    0    0  0.61603858789E+02 -0.95086646368E+01 -0.12106101410E+03  0.13616981771E+03  0.10000000000E+01 0.  0.
<mgrwt>
<rscale>  0 0.12500092E+03</rscale>
<asrwt>0</asrwt>
<pdfrwt beam="1">  1        4 0.35258176E-02 0.12500092E+03</pdfrwt>
<pdfrwt beam="2">  1       -4 0.69244711E-01 0.12500092E+03</pdfrwt>
<totfact> 0.13224450E+03</totfact>
</mgrwt>
</event>
<event>
 5    1  0.1430314E-002  0.1249992E+03  0.7818608E-02  0.1235071E+00
          4   -1    0    0  501    0  0.00000000000E+00  0.00000000000E+00  0.46409972245E+02  0.46427345646E+02  0.12700000000E+01 0.  1.
         -4   -1    0    0    0  501 -0.00000000000E+00 -0.00000000000E+00 -0.84129337994E+02  0.84138923283E+02  0.12700000000E+01 0.  1.
         25    2    1    2    0    0  0.00000000000E+00  0.00000000000E+00 -0.37719365749E+02  0.13056626893E+03  0.12499920012E+03 0.  0.
    9000005    1    3    3    0    0 -0.33221312047E+02  0.41410868493E+02 -0.53292731590E+02  0.75230518035E+02  0.10000000000E+01 0.  0.
    9000005    1    3    3    0    0  0.33221312047E+02 -0.41410868493E+02  0.15573365841E+02  0.55335750895E+02  0.10000000000E+01 0.  0.
<mgrwt>
<rscale>  0 0.12499920E+03</rscale>
<asrwt>0</asrwt>
<pdfrwt beam="1">  1        4 0.11605863E-01 0.12499920E+03</pdfrwt>
<pdfrwt beam="2">  1       -4 0.21035704E-01 0.12499920E+03</pdfrwt>
<totfact> 0.19534354E+03</totfact>
</mgrwt>
</event>
<event>
 5    1  0.1430314E-002  0.1249990E+03  0.7818608E-02  0.1235071E+00
         -4   -1    0    0    0  501 -0.00000000000E+00  0.00000000000E+00  0.17468327108E+02  0.17514432676E+02  0.12700000000E+01 0. -1.
          4   -1    0    0  501    0  0.00000000000E+00 -0.00000000000E+00 -0.22327273708E+03  0.22327634900E+03  0.12700000000E+01 0. -1.
         25    2    1    2    0    0  0.00000000000E+00  0.00000000000E+00 -0.20580440997E+03  0.24079078167E+03  0.12499898150E+03 0.  0.
    9000005    1    3    3    0    0  0.54674232209E+02  0.10971784740E+02 -0.15723510963E+03  0.16683384378E+03  0.10000000000E+01 0.  0.
    9000005    1    3    3    0    0 -0.54674232209E+02 -0.10971784740E+02 -0.48569300336E+02  0.73956937897E+02  0.10000000000E+01 0.  0.
<mgrwt>
<rscale>  0 0.12499898E+03</rscale>
<asrwt>0</asrwt>
<pdfrwt beam="2">  1        4 0.55824390E-01 0.12499898E+03</pdfrwt>
<pdfrwt beam="1">  1       -4 0.43732972E-02 0.12499898E+03</pdfrwt>
<totfact> 0.14809595E+03</totfact>
</mgrwt>
</event>
<event>
 5    1  0.1430314E-002  0.1250030E+03  0.7818608E-02  0.1235065E+00
          4   -1    0    0  501    0  0.00000000000E+00  0.00000000000E+00  0.29983725237E+03  0.29983994199E+03  0.12700000000E+01 0. -1.
         -4   -1    0    0    0  501 -0.00000000000E+00 -0.00000000000E+00 -0.12994826797E+02  0.13056738624E+02  0.12700000000E+01 0. -1.
         25    2    1    2    0    0  0.00000000000E+00  0.00000000000E+00  0.28684242558E+03  0.31289668061E+03  0.12500302247E+03 0.  0.
    9000005    1    3    3    0    0 -0.53646017951E+02  0.74301292716E+01  0.65368354224E+02  0.84894780740E+02  0.10000000000E+01 0.  0.
    9000005    1    3    3    0    0  0.53646017951E+02 -0.74301292716E+01  0.22147407135E+03  0.22800189987E+03  0.10000000000E+01 0.  0.
<mgrwt>
<rscale>  0 0.12500302E+03</rscale>
<asrwt>0</asrwt>
<pdfrwt beam="1">  1        4 0.74967385E-01 0.12500302E+03</pdfrwt>
<pdfrwt beam="2">  1       -4 0.32567820E-02 0.12500302E+03</pdfrwt>
<totfact> 0.12616275E+03</totfact>
</mgrwt>
</event>
<event>
 5    1  0.1430314E-002  0.1250004E+03  0.7818608E-02  0.1235069E+00
         -4   -1    0    0    0  501 -0.00000000000E+00  0.00000000000E+00  0.32771312439E+03  0.32771558522E+03  0.12700000000E+01 0. -1.
          4   -1    0    0  501    0  0.00000000000E+00 -0.00000000000E+00 -0.11883467422E+02  0.11951137936E+02  0.12700000000E+01 0. -1.
         25    2    1    2    0    0  0.00000000000E+00  0.00000000000E+00  0.31582965697E+03  0.33966672316E+03  0.12500044240E+03 0.  0.
    9000005    1    3    3    0    0  0.28463390563E+02 -0.52491108799E+02  0.20800481683E+03  0.21640814432E+03  0.10000000000E+01 0.  0.
    9000005    1    3    3    0    0 -0.28463390563E+02  0.52491108799E+02  0.10782484014E+03  0.12325857884E+03  0.10000000000E+01 0.  0.
<mgrwt>
<rscale>  0 0.12500044E+03</rscale>
<asrwt>0</asrwt>
<pdfrwt beam="2">  1        4 0.29796333E-02 0.12500044E+03</pdfrwt>
<pdfrwt beam="1">  1       -4 0.81937047E-01 0.12500044E+03</pdfrwt>
<totfact> 0.11927774E+03</totfact>
</mgrwt>
</event>
<event>
 5    1  0.1430314E-002  0.1249978E+03  0.7818608E-02  0.1235073E+00
          4   -1    0    0  501    0  0.00000000000E+00  0.00000000000E+00  0.32553931433E+02  0.32578694752E+02  0.12700000000E+01 0. -1.
         -4   -1    0    0    0  501 -0.00000000000E+00 -0.00000000000E+00 -0.11991527450E+03  0.11992199947E+03  0.12700000000E+01 0. -1.
         25    2    1    2    0    0  0.00000000000E+00  0.00000000000E+00 -0.87361343065E+02  0.15250069423E+03  0.12499782989E+03 0.  0.
    9000005    1    3    3    0    0 -0.14296189600E+02 -0.27980524318E+02  0.22221369191E+02  0.38497792494E+02  0.10000000000E+01 0.  0.
    9000005    1    3    3    0    0  0.14296189600E+02  0.27980524318E+02 -0.10958271226E+03  0.11400290173E+03  0.10000000000E+01 0.  0.
<mgrwt>
<rscale>  0 0.12499783E+03</rscale>
<asrwt>0</asrwt>
<pdfrwt beam="1">  1        4 0.81424192E-02 0.12499783E+03</pdfrwt>
<pdfrwt beam="2">  1       -4 0.29982754E-01 0.12499783E+03</pdfrwt>
<totfact> 0.18417431E+03</totfact>
</mgrwt>
</event>
<event>
 5    1  0.1430314E-002  0.1249956E+03  0.7818608E-02  0.1235076E+00
         -4   -1    0    0    0  501 -0.00000000000E+00  0.00000000000E+00  0.29603879225E+03  0.29604151637E+03  0.12700000000E+01 0. -1.
          4   -1    0    0  501    0  0.00000000000E+00 -0.00000000000E+00 -0.13160789873E+02  0.13221924598E+02  0.12700000000E+01 0. -1.
         25    2    1    2    0    0  0.00000000000E+00  0.00000000000E+00  0.28287800238E+03  0.30926344097E+03  0.12499564669E+03 0.  0.
    9000005    1    3    3    0    0 -0.34824257542E+02 -0.42536204067E+02  0.67920869793E+02  0.87385937789E+02  0.10000000000E+01 0.  0.
    9000005    1    3    3    0    0  0.34824257542E+02  0.42536204067E+02  0.21495713258E+03  0.22187750318E+03  0.10000000000E+01 0.  0.
<mgrwt>
<rscale>  0 0.12499565E+03</rscale>
<asrwt>0</asrwt>
<pdfrwt beam="2">  1        4 0.32981798E-02 0.12499565E+03</pdfrwt>
<pdfrwt beam="1">  1       -4 0.74017680E-01 0.12499565E+03</pdfrwt>
<totfact> 0.12716613E+03</totfact>
</mgrwt>
</event>
<event>
 5    1  0.1430314E-002  0.1250034E+03  0.7818608E-02  0.1235064E+00
         -4   -1    0    0    0  501 -0.00000000000E+00  0.00000000000E+00  0.13187666368E+02  0.13248677075E+02  0.12700000000E+01 0. -1.
          4   -1    0    0  501    0  0.00000000000E+00 -0.00000000000E+00 -0.29547468525E+03  0.29547741458E+03  0.12700000000E+01 0. -1.
         25    2    1    2    0    0  0.00000000000E+00  0.00000000000E+00 -0.28228701888E+03  0.30872609165E+03  0.12500335450E+03 0.  0.
    9000005    1    3    3    0    0  0.29118365476E+02 -0.31203357766E+02 -0.28399538727E+02  0.51274384870E+02  0.10000000000E+01 0.  0.
    9000005    1    3    3    0    0 -0.29118365476E+02  0.31203357766E+02 -0.25388748016E+03  0.25745170678E+03  0.10000000000E+01 0.  0.
<mgrwt>
<rscale>  0 0.12500335E+03</rscale>
<asrwt>0</asrwt>
<pdfrwt beam="2">  1        4 0.73876617E-01 0.12500335E+03</pdfrwt>
<pdfrwt beam="1">  1       -4 0.33048851E-02 0.12500335E+03</pdfrwt>
<totfact> 0.12728992E+03</totfact>
</mgrwt>
</event>
<event>
 5    1  0.1430314E-002  0.1250020E+03  0.7818608E-02  0.1235066E+00
         -4   -1    0    0    0  501 -0.00000000000E+00  0.00000000000E+00  0.68457854507E+03  0.68457972310E+03  0.12700000000E+01 0. -1.
          4   -1    0    0  501    0  0.00000000000E+00 -0.00000000000E+00 -0.56343823102E+01  0.57757392616E+01  0.12700000000E+01 0. -1.
         25    2    1    2    0    0  0.00000000000E+00  0.00000000000E+00  0.67894416276E+03  0.69035546236E+03  0.12500195301E+03 0.  0.
    9000005    1    3    3    0    0  0.48418612642E+02 -0.18372376807E+02  0.14629665420E+03  0.15519541653E+03  0.10000000000E+01 0.  0.
    9000005    1    3    3    0    0 -0.48418612642E+02  0.18372376807E+02  0.53264750856E+03  0.53516004583E+03  0.10000000000E+01 0.  0.
<mgrwt>
<rscale>  0 0.12500195E+03</rscale>
<asrwt>0</asrwt>
<pdfrwt beam="2">  1        4 0.14264129E-02 0.12500195E+03</pdfrwt>
<pdfrwt beam="1">  1       -4 0.17116240E+00 0.12500195E+03</pdfrwt>
<totfact> 0.63072837E+02</totfact>
</mgrwt>
</event>
<event>
 5    1  0.1430314E-002  0.1250007E+03  0.7818608E-02  0.1235068E+00
         -4   -1    0    0    0  501 -0.00000000000E+00  0.00000000000E+00  0.55108242230E+02  0.55122874215E+02  0.12700000000E+01 0. -1.
          4   -1    0    0  501    0  0.00000000000E+00 -0.00000000000E+00 -0.70854334697E+02  0.70865715585E+02  0.12700000000E+01 0. -1.
         25    2    1    2    0    0  0.00000000000E+00  0.00000000000E+00 -0.15746092467E+02  0.12598858980E+03  0.12500074132E+03 0.  0.
    9000005    1    3    3    0    0 -0.15672464950E+01 -0.18702177721E+02 -0.67951731991E+02  0.70502947411E+02  0.10000000000E+01 0.  0.
    9000005    1    3    3    0    0  0.15672464950E+01  0.18702177721E+02  0.52205639525E+02  0.55485642389E+02  0.10000000000E+01 0.  0.
<mgrwt>
<rscale>  0 0.12500074E+03</rscale>
<asrwt>0</asrwt>
<pdfrwt beam="2">  1        4 0.17716835E-01 0.12500074E+03</pdfrwt>
<pdfrwt beam="1">  1       -4 0.13780312E-01 0.12500074E+03</pdfrwt>
<totfact> 0.19781194E+03</totfact>
</mgrwt>
</event>
<event>
 5    1  0.1430314E-002  0.1250015E+03  0.7818608E-02  0.1235067E+00
         -4   -1    0    0    0  501 -0.00000000000E+00  0.00000000000E+00  0.75394216215E+02  0.75404911900E+02  0.12700000000E+01 0. -1.
          4   -1    0    0  501    0  0.00000000000E+00 -0.00000000000E+00 -0.51790127022E+02  0.51805696183E+02  0.12700000000E+01 0. -1.
         25    2    1    2    0    0  0.00000000000E+00  0.00000000000E+00  0.23604089193E+02  0.12721060808E+03  0.12500154312E+03 0.  0.
    9000005    1    3    3    0    0  0.43850221097E+02 -0.29479558797E+02 -0.22156205081E+02  0.57304307872E+02  0.10000000000E+01 0.  0.
    9000005    1    3    3    0    0 -0.43850221097E+02  0.29479558797E+02  0.45760294274E+02  0.69906300210E+02  0.10000000000E+01 0.  0.
<mgrwt>
<rscale>  0 0.12500154E+03</rscale>
<asrwt>0</asrwt>
<pdfrwt beam="2">  1        4 0.12950815E-01 0.12500154E+03</pdfrwt>
<pdfrwt beam="1">  1       -4 0.18851837E-01 0.12500154E+03</pdfrwt>
<totfact> 0.19714862E+03</totfact>
</mgrwt>
</event>
<event>
 5    1  0.1430314E-002  0.1250035E+03  0.7818608E-02  0.1235064E+00
         -4   -1    0    0    0  501 -0.00000000000E+00  0.00000000000E+00  0.68117009111E+03  0.68117127503E+03  0.12700000000E+01 0. -1.
          4   -1    0    0  501    0  0.00000000000E+00 -0.00000000000E+00 -0.56634267577E+01  0.58040763812E+01  0.12700000000E+01 0. -1.
         25    2    1    2    0    0  0.00000000000E+00  0.00000000000E+00  0.67550666435E+03  0.68697535141E+03  0.12500351939E+03 0.  0.
    9000005    1    3    3    0    0  0.47409498969E+02 -0.15057743407E+02  0.54565114486E+03  0.54791474530E+03  0.10000000000E+01 0.  0.
    9000005    1    3    3    0    0 -0.47409498969E+02  0.15057743407E+02  0.12985551949E+03  0.13906060611E+03  0.10000000000E+01 0.  0.
<mgrwt>
<rscale>  0 0.12500352E+03</rscale>
<asrwt>0</asrwt>
<pdfrwt beam="2">  1        4 0.14335856E-02 0.12500352E+03</pdfrwt>
<pdfrwt beam="1">  1       -4 0.17031028E+00 0.12500352E+03</pdfrwt>
<totfact> 0.63428662E+02</totfact>
</mgrwt>
</event>
<event>
 5    1  0.1430314E-002  0.1249991E+03  0.7818608E-02  0.1235071E+00
         -4   -1    0    0    0  501 -0.00000000000E+00  0.00000000000E+00  0.66318888131E+02  0.66331047202E+02  0.12700000000E+01 0. -1.
          4   -1    0    0  501    0  0.00000000000E+00 -0.00000000000E+00 -0.58875758288E+02  0.58889454183E+02  0.12700000000E+01 0. -1.
         25    2    1    2    0    0  0.00000000000E+00  0.00000000000E+00  0.74431298430E+01  0.12522050139E+03  0.12499909514E+03 0.  0.
    9000005    1    3    3    0    0 -0.40707061519E+02  0.46217428149E+02 -0.68838730551E+01  0.61979861491E+02  0.10000000000E+01 0.  0.
    9000005    1    3    3    0    0  0.40707061519E+02 -0.46217428149E+02  0.14327002898E+02  0.63240639894E+02  0.10000000000E+01 0.  0.
<mgrwt>
<rscale>  0 0.12499910E+03</rscale>
<asrwt>0</asrwt>
<pdfrwt beam="2">  1        4 0.14722171E-01 0.12499910E+03</pdfrwt>
<pdfrwt beam="1">  1       -4 0.16582954E-01 0.12499910E+03</pdfrwt>
<totfact> 0.19823521E+03</totfact>
</mgrwt>
</event>
<event>
 5    1  0.1430314E-002  0.1249996E+03  0.7818608E-02  0.1235070E+00
          4   -1    0    0  501    0  0.00000000000E+00  0.00000000000E+00  0.17889425514E+02  0.17934448562E+02  0.12700000000E+01 0. -1.
         -4   -1    0    0    0  501 -0.00000000000E+00 -0.00000000000E+00 -0.21803256578E+03  0.21803626451E+03  0.12700000000E+01 0. -1.
         25    2    1    2    0    0  0.00000000000E+00  0.00000000000E+00 -0.20014314027E+03  0.23597071307E+03  0.12499960333E+03 0.  0.
    9000005    1    3    3    0    0 -0.29989937657E+02 -0.51579097541E+02 -0.13515699138E+03  0.14774373755E+03  0.10000000000E+01 0.  0.
    9000005    1    3    3    0    0  0.29989937657E+02  0.51579097541E+02 -0.64986148883E+02  0.88226975526E+02  0.10000000000E+01 0.  0.
<mgrwt>
<rscale>  0 0.12499960E+03</rscale>
<asrwt>0</asrwt>
<pdfrwt beam="1">  1        4 0.44784473E-02 0.12499960E+03</pdfrwt>
<pdfrwt beam="2">  1       -4 0.54514223E-01 0.12499960E+03</pdfrwt>
<totfact> 0.14976424E+03</totfact>
</mgrwt>
</event>
<event>
 5    1  0.1430314E-002  0.1249980E+03  0.7818608E-02  0.1235072E+00
         -4   -1    0    0    0  501 -0.00000000000E+00  0.00000000000E+00  0.35887906897E+02  0.35910371224E+02  0.12700000000E+01 0. -1.
          4   -1    0    0  501    0  0.00000000000E+00 -0.00000000000E+00 -0.10878216051E+03  0.10878957370E+03  0.12700000000E+01 0. -1.
         25    2    1    2    0    0  0.00000000000E+00  0.00000000000E+00 -0.72894253617E+02  0.14469994492E+03  0.12499800739E+03 0.  0.
    9000005    1    3    3    0    0 -0.59829726411E+01 -0.55488287820E+02 -0.68992037682E+02  0.88744843852E+02  0.10000000000E+01 0.  0.
    9000005    1    3    3    0    0  0.59829726411E+01  0.55488287820E+02 -0.39022159349E+01  0.55955101072E+02  0.10000000000E+01 0.  0.
<mgrwt>
<rscale>  0 0.12499801E+03</rscale>
<asrwt>0</asrwt>
<pdfrwt beam="2">  1        4 0.27199274E-01 0.12499801E+03</pdfrwt>
<pdfrwt beam="1">  1       -4 0.89757116E-02 0.12499801E+03</pdfrwt>
<totfact> 0.18803294E+03</totfact>
</mgrwt>
</event>
<event>
 5    1  0.1430314E-002  0.1249993E+03  0.7818608E-02  0.1235070E+00
          4   -1    0    0  501    0  0.00000000000E+00  0.00000000000E+00  0.44511265582E+02  0.44529379781E+02  0.12700000000E+01 0. -1.
         -4   -1    0    0    0  501 -0.00000000000E+00 -0.00000000000E+00 -0.87717090524E+02  0.87726283803E+02  0.12700000000E+01 0. -1.
         25    2    1    2    0    0  0.00000000000E+00  0.00000000000E+00 -0.43205824942E+02  0.13225566358E+03  0.12499926896E+03 0.  0.
    9000005    1    3    3    0    0  0.60449018601E+02 -0.25834353844E+01 -0.38145314052E+02  0.71531971679E+02  0.10000000000E+01 0.  0.
    9000005    1    3    3    0    0 -0.60449018601E+02  0.25834353844E+01 -0.50605108893E+01  0.60723691905E+02  0.10000000000E+01 0.  0.
<mgrwt>
<rscale>  0 0.12499927E+03</rscale>
<asrwt>0</asrwt>
<pdfrwt beam="1">  1        4 0.11131230E-01 0.12499927E+03</pdfrwt>
<pdfrwt beam="2">  1       -4 0.21932686E-01 0.12499927E+03</pdfrwt>
<totfact> 0.19444200E+03</totfact>
</mgrwt>
</event>
<event>
 4    1  0.1430314E-002  0.1253094E+03  0.7818608E-02  0.1234586E+00
         -4   -1    0    0    0  501 -0.00000000000E+00  0.00000000000E+00  0.13539472719E+03  0.13540068335E+03  0.12700000000E+01 0. -1.
          4   -1    0    0  501    0  0.00000000000E+00 -0.00000000000E+00 -0.28973338088E+02  0.29001158942E+02  0.12700000000E+01 0. -1.
    9000005    1    1    2    0    0  0.39121474708E+02 -0.46313123770E+02  0.73922254098E+02  0.95608027213E+02  0.10000000000E+01 0.  0.
    9000005    1    1    2    0    0 -0.39121474708E+02  0.46313123770E+02  0.32499135003E+02  0.68793815076E+02  0.10000000000E+01 0.  0.
<mgrwt>
<rscale>  0 0.12530943E+03</rscale>
<asrwt>0</asrwt>
<pdfrwt beam="2">  1        4 0.72475568E-02 0.12530943E+03</pdfrwt>
<pdfrwt beam="1">  1       -4 0.33852903E-01 0.12530943E+03</pdfrwt>
<totfact> 0.17724819E+03</totfact>
</mgrwt>
</event>
<event>
 5    1  0.1430314E-002  0.1249998E+03  0.7818608E-02  0.1235070E+00
          4   -1    0    0  501    0  0.00000000000E+00  0.00000000000E+00  0.69269371005E+03  0.69269487427E+03  0.12700000000E+01 0. -1.
         -4   -1    0    0    0  501 -0.00000000000E+00 -0.00000000000E+00 -0.55665111083E+01  0.57095486616E+01  0.12700000000E+01 0. -1.
         25    2    1    2    0    0  0.00000000000E+00  0.00000000000E+00  0.68712719894E+03  0.69840442293E+03  0.12499980179E+03 0.  0.
    9000005    1    3    3    0    0  0.20785278203E+02  0.44441929304E+02  0.12730586701E+03  0.13643641979E+03  0.10000000000E+01 0.  0.
    9000005    1    3    3    0    0 -0.20785278203E+02 -0.44441929304E+02  0.55982133193E+03  0.56196800314E+03  0.10000000000E+01 0.  0.
<mgrwt>
<rscale>  0 0.12499980E+03</rscale>
<asrwt>0</asrwt>
<pdfrwt beam="1">  1        4 0.17319145E+00 0.12499980E+03</pdfrwt>
<pdfrwt beam="2">  1       -4 0.14096530E-02 0.12499980E+03</pdfrwt>
<totfact> 0.62232246E+02</totfact>
</mgrwt>
</event>
<event>
 5    1  0.1430314E-002  0.1250108E+03  0.7818608E-02  0.1235052E+00
         -4   -1    0    0    0  501 -0.00000000000E+00  0.00000000000E+00  0.33127625783E+02  0.33151960576E+02  0.12700000000E+01 0.  1.
          4   -1    0    0  501    0  0.00000000000E+00 -0.00000000000E+00 -0.11786455287E+03  0.11787139484E+03  0.12700000000E+01 0.  1.
         25    2    1    2    0    0  0.00000000000E+00  0.00000000000E+00 -0.84736927083E+02  0.15102335542E+03  0.12501082781E+03 0.  0.
    9000005    1    3    3    0    0 -0.51950934267E+02  0.92012397785E+01 -0.82841279511E+02  0.98220364363E+02  0.10000000000E+01 0.  0.
    9000005    1    3    3    0    0  0.51950934267E+02 -0.92012397785E+01 -0.18956475723E+01  0.52802991055E+02  0.10000000000E+01 0.  0.
<mgrwt>
<rscale>  0 0.12501083E+03</rscale>
<asrwt>0</asrwt>
<pdfrwt beam="2">  1        4 0.29470034E-01 0.12501083E+03</pdfrwt>
<pdfrwt beam="1">  1       -4 0.82858038E-02 0.12501083E+03</pdfrwt>
<totfact> 0.18483919E+03</totfact>
</mgrwt>
</event>
<event>
 5    1  0.1430314E-002  0.1249988E+03  0.7818608E-02  0.1235071E+00
          4   -1    0    0  501    0  0.00000000000E+00  0.00000000000E+00  0.26209641367E+03  0.26209949057E+03  0.12700000000E+01 0.  1.
         -4   -1    0    0    0  501 -0.00000000000E+00 -0.00000000000E+00 -0.14873357625E+02  0.14927480264E+02  0.12700000000E+01 0.  1.
         25    2    1    2    0    0  0.00000000000E+00  0.00000000000E+00  0.24722305604E+03  0.27702697083E+03  0.12499881252E+03 0.  0.
    9000005    1    3    3    0    0 -0.56930993043E+02 -0.19711020093E+02  0.16039795509E+03  0.17134224896E+03  0.10000000000E+01 0.  0.
    9000005    1    3    3    0    0  0.56930993043E+02  0.19711020093E+02  0.86825100954E+02  0.10568472187E+03  0.10000000000E+01 0.  0.
<mgrwt>
<rscale>  0 0.12499881E+03</rscale>
<asrwt>0</asrwt>
<pdfrwt beam="1">  1        4 0.65531253E-01 0.12499881E+03</pdfrwt>
<pdfrwt beam="2">  1       -4 0.37254894E-02 0.12499881E+03</pdfrwt>
<totfact> 0.13640628E+03</totfact>
</mgrwt>
</event>
<event>
 5    1  0.1430314E-002  0.1249986E+03  0.7818608E-02  0.1235072E+00
         -4   -1    0    0    0  501 -0.00000000000E+00  0.00000000000E+00  0.48840490800E+03  0.48840655919E+03  0.12700000000E+01 0.  1.
          4   -1    0    0  501    0  0.00000000000E+00 -0.00000000000E+00 -0.79456966437E+01  0.80465517555E+01  0.12700000000E+01 0.  1.
         25    2    1    2    0    0  0.00000000000E+00  0.00000000000E+00  0.48045921135E+03  0.49645311094E+03  0.12499855035E+03 0.  0.
    9000005    1    3    3    0    0  0.52493585383E+02 -0.74661638235E+01  0.10887357414E+03  0.12110233381E+03  0.10000000000E+01 0.  0.
    9000005    1    3    3    0    0 -0.52493585383E+02  0.74661638235E+01  0.37158563721E+03  0.37535077713E+03  0.10000000000E+01 0.  0.
<mgrwt>
<rscale>  0 0.12499855E+03</rscale>
<asrwt>0</asrwt>
<pdfrwt beam="2">  1        4 0.19992376E-02 0.12499855E+03</pdfrwt>
<pdfrwt beam="1">  1       -4 0.12211403E+00 0.12499855E+03</pdfrwt>
<totfact> 0.88176711E+02</totfact>
</mgrwt>
</event>
<event>
 5    1  0.1430314E-002  0.1249879E+03  0.7818608E-02  0.1235088E+00
          4   -1    0    0  501    0  0.00000000000E+00  0.00000000000E+00  0.26025346049E+02  0.26056314723E+02  0.12700000000E+01 0. -1.
         -4   -1    0    0    0  501 -0.00000000000E+00 -0.00000000000E+00 -0.14994200584E+03  0.14994738415E+03  0.12700000000E+01 0. -1.
         25    2    1    2    0    0  0.00000000000E+00  0.00000000000E+00 -0.12391665979E+03  0.17600369887E+03  0.12498785319E+03 0.  0.
    9000005    1    3    3    0    0 -0.40074714905E+01  0.62356013088E+02 -0.62519242102E+02  0.88396763679E+02  0.10000000000E+01 0.  0.
    9000005    1    3    3    0    0  0.40074714905E+01 -0.62356013088E+02 -0.61397417685E+02  0.87606935195E+02  0.10000000000E+01 0.  0.
<mgrwt>
<rscale>  0 0.12498785E+03</rscale>
<asrwt>0</asrwt>
<pdfrwt beam="1">  1        4 0.65108803E-02 0.12498785E+03</pdfrwt>
<pdfrwt beam="2">  1       -4 0.37490042E-01 0.12498785E+03</pdfrwt>
<totfact> 0.17334490E+03</totfact>
</mgrwt>
</event>
<event>
 5    1  0.1430314E-002  0.1250044E+03  0.7818608E-02  0.1235062E+00
         -4   -1    0    0    0  501 -0.00000000000E+00  0.00000000000E+00  0.31152829433E+02  0.31178705581E+02  0.12700000000E+01 0.  1.
          4   -1    0    0  501    0  0.00000000000E+00 -0.00000000000E+00 -0.12531757687E+03  0.12532401195E+03  0.12700000000E+01 0.  1.
         25    2    1    2    0    0  0.00000000000E+00  0.00000000000E+00 -0.94164747435E+02  0.15650271753E+03  0.12500440367E+03 0.  0.
    9000005    1    3    3    0    0 -0.22643512587E+02 -0.58173771371E+02 -0.43408956067E+02  0.76041132320E+02  0.10000000000E+01 0.  0.
    9000005    1    3    3    0    0  0.22643512587E+02  0.58173771371E+02 -0.50755791369E+02  0.80461585214E+02  0.10000000000E+01 0.  0.
<mgrwt>
<rscale>  0 0.12500440E+03</rscale>
<asrwt>0</asrwt>
<pdfrwt beam="2">  1        4 0.31333432E-01 0.12500440E+03</pdfrwt>
<pdfrwt beam="1">  1       -4 0.77922466E-02 0.12500440E+03</pdfrwt>
<totfact> 0.18221728E+03</totfact>
</mgrwt>
</event>
<event>
 5    1  0.1430314E-002  0.1250009E+03  0.7818608E-02  0.1235068E+00
         -4   -1    0    0    0  501 -0.00000000000E+00  0.00000000000E+00  0.83164482429E+01  0.84128598809E+01  0.12700000000E+01 0. -1.
          4   -1    0    0  501    0  0.00000000000E+00 -0.00000000000E+00 -0.46690447674E+03  0.46690620397E+03  0.12700000000E+01 0. -1.
         25    2    1    2    0    0  0.00000000000E+00  0.00000000000E+00 -0.45858802850E+03  0.47531906385E+03  0.12500093029E+03 0.  0.
    9000005    1    3    3    0    0 -0.37664327129E+02  0.49866530210E+02 -0.23001318513E+03  0.23835338829E+03  0.10000000000E+01 0.  0.
    9000005    1    3    3    0    0  0.37664327129E+02 -0.49866530210E+02 -0.22857484337E+03  0.23696567556E+03  0.10000000000E+01 0.  0.
<mgrwt>
<rscale>  0 0.12500093E+03</rscale>
<asrwt>0</asrwt>
<pdfrwt beam="2">  1        4 0.11673830E+00 0.12500093E+03</pdfrwt>
<pdfrwt beam="1">  1       -4 0.20913810E-02 0.12500093E+03</pdfrwt>
<totfact> 0.91640157E+02</totfact>
</mgrwt>
</event>
<event>
 5    1  0.1430314E-002  0.1249979E+03  0.7818608E-02  0.1235073E+00
         -4   -1    0    0    0  501 -0.00000000000E+00  0.00000000000E+00  0.16795433905E+03  0.16795914059E+03  0.12700000000E+01 0. -1.
          4   -1    0    0  501    0  0.00000000000E+00 -0.00000000000E+00 -0.23234557272E+02  0.23269240461E+02  0.12700000000E+01 0. -1.
         25    2    1    2    0    0  0.00000000000E+00  0.00000000000E+00  0.14471978178E+03  0.19122838105E+03  0.12499791390E+03 0.  0.
    9000005    1    3    3    0    0 -0.48476692085E+02 -0.11233133459E+02  0.14529305086E+02  0.51848564774E+02  0.10000000000E+01 0.  0.
    9000005    1    3    3    0    0  0.48476692085E+02  0.11233133459E+02  0.13019047670E+03  0.13937981628E+03  0.10000000000E+01 0.  0.
<mgrwt>
<rscale>  0 0.12499791E+03</rscale>
<asrwt>0</asrwt>
<pdfrwt beam="2">  1        4 0.58135749E-02 0.12499791E+03</pdfrwt>
<pdfrwt beam="1">  1       -4 0.41993520E-01 0.12499791E+03</pdfrwt>
<totfact> 0.16680208E+03</totfact>
</mgrwt>
</event>
<event>
 5    1  0.1430314E-002  0.1249960E+03  0.7818608E-02  0.1235076E+00
         -4   -1    0    0    0  501 -0.00000000000E+00  0.00000000000E+00  0.99350843094E+02  0.99358959956E+02  0.12700000000E+01 0.  1.
          4   -1    0    0  501    0  0.00000000000E+00 -0.00000000000E+00 -0.39295227384E+02  0.39315744876E+02  0.12700000000E+01 0.  1.
         25    2    1    2    0    0  0.00000000000E+00  0.00000000000E+00  0.60055615710E+02  0.13867470483E+03  0.12499598706E+03 0.  0.
    9000005    1    3    3    0    0 -0.36411437356E+02  0.42633312644E+02  0.60645092059E+02  0.82596726982E+02  0.10000000000E+01 0.  0.
    9000005    1    3    3    0    0  0.36411437356E+02 -0.42633312644E+02 -0.58947634821E+00  0.56077977850E+02  0.10000000000E+01 0.  0.
<mgrwt>
<rscale>  0 0.12499599E+03</rscale>
<asrwt>0</asrwt>
<pdfrwt beam="2">  1        4 0.98273863E-02 0.12499599E+03</pdfrwt>
<pdfrwt beam="1">  1       -4 0.24841290E-01 0.12499599E+03</pdfrwt>
<totfact> 0.19110137E+03</totfact>
</mgrwt>
</event>
<event>
 5    1  0.1430314E-002  0.1249978E+03  0.7818608E-02  0.1235073E+00
         -4   -1    0    0    0  501 -0.00000000000E+00  0.00000000000E+00  0.72934462879E+01  0.74031924705E+01  0.12700000000E+01 0.  1.
          4   -1    0    0  501    0  0.00000000000E+00 -0.00000000000E+00 -0.53145494518E+03  0.53145646262E+03  0.12700000000E+01 0.  1.
         25    2    1    2    0    0  0.00000000000E+00  0.00000000000E+00 -0.52416149889E+03  0.53885965509E+03  0.12499780382E+03 0.  0.
    9000005    1    3    3    0    0 -0.11129090580E+02 -0.28109432667E+02 -0.49785148873E+03  0.49876958778E+03  0.10000000000E+01 0.  0.
    9000005    1    3    3    0    0  0.11129090580E+02  0.28109432667E+02 -0.26310010161E+02  0.40090067307E+02  0.10000000000E+01 0.  0.
<mgrwt>
<rscale>  0 0.12499780E+03</rscale>
<asrwt>0</asrwt>
<pdfrwt beam="2">  1        4 0.13287751E+00 0.12499780E+03</pdfrwt>
<pdfrwt beam="1">  1       -4 0.18372713E-02 0.12499780E+03</pdfrwt>
<totfact> 0.81744802E+02</totfact>
</mgrwt>
</event>
<event>
 5    1  0.1430314E-002  0.1250029E+03  0.7818608E-02  0.1235065E+00
         -4   -1    0    0    0  501 -0.00000000000E+00  0.00000000000E+00  0.55921538683E+03  0.55921682894E+03  0.12700000000E+01 0.  1.
          4   -1    0    0  501    0  0.00000000000E+00 -0.00000000000E+00 -0.69263733562E+01  0.70418426473E+01  0.12700000000E+01 0.  1.
         25    2    1    2    0    0  0.00000000000E+00  0.00000000000E+00  0.55228901348E+03  0.56625867159E+03  0.12500291493E+03 0.  0.
    9000005    1    3    3    0    0  0.28555171876E+02  0.41861470765E+02  0.44182303716E+03  0.44472056028E+03  0.10000000000E+01 0.  0.
    9000005    1    3    3    0    0 -0.28555171876E+02 -0.41861470765E+02  0.11046597632E+03  0.12153811131E+03  0.10000000000E+01 0.  0.
<mgrwt>
<rscale>  0 0.12500291E+03</rscale>
<asrwt>0</asrwt>
<pdfrwt beam="2">  1        4 0.17462070E-02 0.12500291E+03</pdfrwt>
<pdfrwt beam="1">  1       -4 0.13981848E+00 0.12500291E+03</pdfrwt>
<totfact> 0.77914041E+02</totfact>
</mgrwt>
</event>
<event>
 5    1  0.1430314E-002  0.1250012E+03  0.7818608E-02  0.1235067E+00
          4   -1    0    0  501    0  0.00000000000E+00  0.00000000000E+00  0.18732642199E+03  0.18733072699E+03  0.12700000000E+01 0.  1.
         -4   -1    0    0    0  501 -0.00000000000E+00 -0.00000000000E+00 -0.20829149005E+02  0.20867830464E+02  0.12700000000E+01 0.  1.
         25    2    1    2    0    0  0.00000000000E+00  0.00000000000E+00  0.16649727298E+03  0.20819855746E+03  0.12500118966E+03 0.  0.
    9000005    1    3    3    0    0 -0.27531785870E+00  0.60509440665E+02  0.57239231250E+02  0.83299446599E+02  0.10000000000E+01 0.  0.
    9000005    1    3    3    0    0  0.27531785870E+00 -0.60509440665E+02  0.10925804173E+03  0.12489911086E+03  0.10000000000E+01 0.  0.
<mgrwt>
<rscale>  0 0.12500119E+03</rscale>
<asrwt>0</asrwt>
<pdfrwt beam="1">  1        4 0.46836979E-01 0.12500119E+03</pdfrwt>
<pdfrwt beam="2">  1       -4 0.52126606E-02 0.12500119E+03</pdfrwt>
<totfact> 0.15998499E+03</totfact>
</mgrwt>
</event>
<event>
 5    1  0.1430314E-002  0.1249942E+03  0.7818608E-02  0.1235078E+00
          4   -1    0    0  501    0  0.00000000000E+00  0.00000000000E+00  0.43298405382E+03  0.43298591635E+03  0.12700000000E+01 0. -1.
         -4   -1    0    0    0  501 -0.00000000000E+00 -0.00000000000E+00 -0.89742642010E+01  0.90636812581E+01  0.12700000000E+01 0. -1.
         25    2    1    2    0    0  0.00000000000E+00  0.00000000000E+00  0.42400978962E+03  0.44204959761E+03  0.12499418010E+03 0.  0.
    9000005    1    3    3    0    0  0.17337026194E+02 -0.53051804878E+02  0.31139547187E+03  0.31635929950E+03  0.10000000000E+01 0.  0.
    9000005    1    3    3    0    0 -0.17337026194E+02  0.53051804878E+02  0.11261431774E+03  0.12569029811E+03  0.10000000000E+01 0.  0.
<mgrwt>
<rscale>  0 0.12499418E+03</rscale>
<asrwt>0</asrwt>
<pdfrwt beam="1">  1        4 0.10825742E+00 0.12499418E+03</pdfrwt>
<pdfrwt beam="2">  1       -4 0.22549761E-02 0.12499418E+03</pdfrwt>
<totfact> 0.97475006E+02</totfact>
</mgrwt>
</event>
<event>
 5    1  0.1430314E-002  0.1250049E+03  0.7818608E-02  0.1235062E+00
         -4   -1    0    0    0  501 -0.00000000000E+00  0.00000000000E+00  0.44980389639E+02  0.44998314991E+02  0.12700000000E+01 0.  1.
          4   -1    0    0  501    0  0.00000000000E+00 -0.00000000000E+00 -0.86810298314E+02  0.86819587613E+02  0.12700000000E+01 0.  1.
         25    2    1    2    0    0  0.00000000000E+00  0.00000000000E+00 -0.41829908675E+02  0.13181790260E+03  0.12500487265E+03 0.  0.
    9000005    1    3    3    0    0 -0.48345964846E+02  0.33738744163E+01  0.20692326521E+02  0.52705670685E+02  0.10000000000E+01 0.  0.
    9000005    1    3    3    0    0  0.48345964846E+02 -0.33738744163E+01 -0.62522235196E+02  0.79112231920E+02  0.10000000000E+01 0.  0.
<mgrwt>
<rscale>  0 0.12500487E+03</rscale>
<asrwt>0</asrwt>
<pdfrwt beam="2">  1        4 0.21705976E-01 0.12500487E+03</pdfrwt>
<pdfrwt beam="1">  1       -4 0.11248499E-01 0.12500487E+03</pdfrwt>
<totfact> 0.19464929E+03</totfact>
</mgrwt>
</event>
<event>
 5    1  0.1430314E-002  0.1249993E+03  0.7818608E-02  0.1235070E+00
         -4   -1    0    0    0  501 -0.00000000000E+00  0.00000000000E+00  0.54019791347E+02  0.54034718072E+02  0.12700000000E+01 0. -1.
          4   -1    0    0  501    0  0.00000000000E+00 -0.00000000000E+00 -0.72280118635E+02  0.72291275061E+02  0.12700000000E+01 0. -1.
         25    2    1    2    0    0  0.00000000000E+00  0.00000000000E+00 -0.18260327288E+02  0.12632599313E+03  0.12499926795E+03 0.  0.
    9000005    1    3    3    0    0 -0.42604309815E+00 -0.54239472624E+02 -0.40493443369E+02  0.67696535060E+02  0.10000000000E+01 0.  0.
    9000005    1    3    3    0    0  0.42604309815E+00  0.54239472624E+02  0.22233116081E+02  0.58629458073E+02  0.10000000000E+01 0.  0.
<mgrwt>
<rscale>  0 0.12499927E+03</rscale>
<asrwt>0</asrwt>
<pdfrwt beam="2">  1        4 0.18073290E-01 0.12499927E+03</pdfrwt>
<pdfrwt beam="1">  1       -4 0.13508208E-01 0.12499927E+03</pdfrwt>
<totfact> 0.19763652E+03</totfact>
</mgrwt>
</event>
<event>
 5    1  0.1430314E-002  0.1250002E+03  0.7818608E-02  0.1235069E+00
          4   -1    0    0  501    0  0.00000000000E+00  0.00000000000E+00  0.58172445207E+02  0.58186306649E+02  0.12700000000E+01 0.  1.
         -4   -1    0    0    0  501 -0.00000000000E+00 -0.00000000000E+00 -0.67121846877E+02  0.67133860519E+02  0.12700000000E+01 0.  1.
         25    2    1    2    0    0  0.00000000000E+00  0.00000000000E+00 -0.89494016695E+01  0.12532016717E+03  0.12500021003E+03 0.  0.
    9000005    1    3    3    0    0  0.83239004433E+01 -0.61683894633E+02  0.11138792121E+01  0.62260990216E+02  0.10000000000E+01 0.  0.
    9000005    1    3    3    0    0 -0.83239004433E+01  0.61683894633E+02 -0.10063280882E+02  0.63059176952E+02  0.10000000000E+01 0.  0.
<mgrwt>
<rscale>  0 0.12500021E+03</rscale>
<asrwt>0</asrwt>
<pdfrwt beam="1">  1        4 0.14546346E-01 0.12500021E+03</pdfrwt>
<pdfrwt beam="2">  1       -4 0.16783696E-01 0.12500021E+03</pdfrwt>
<totfact> 0.19817605E+03</totfact>
</mgrwt>
</event>
<event>
 5    1  0.1430314E-002  0.1249997E+03  0.7818608E-02  0.1235070E+00
         -4   -1    0    0    0  501 -0.00000000000E+00  0.00000000000E+00  0.13071473167E+03  0.13072090106E+03  0.12700000000E+01 0. -1.
          4   -1    0    0  501    0  0.00000000000E+00 -0.00000000000E+00 -0.29863268623E+02  0.29890261171E+02  0.12700000000E+01 0. -1.
         25    2    1    2    0    0  0.00000000000E+00  0.00000000000E+00  0.10085146304E+03  0.16061116223E+03  0.12499971134E+03 0.  0.
    9000005    1    3    3    0    0 -0.37482424558E+01  0.23195757618E+02 -0.23977624182E+02  0.33585993426E+02  0.10000000000E+01 0.  0.
    9000005    1    3    3    0    0  0.37482424558E+01 -0.23195757618E+02  0.12482908723E+03  0.12702516881E+03  0.10000000000E+01 0.  0.
<mgrwt>
<rscale>  0 0.12499971E+03</rscale>
<asrwt>0</asrwt>
<pdfrwt beam="2">  1        4 0.74699625E-02 0.12499971E+03</pdfrwt>
<pdfrwt beam="1">  1       -4 0.32682828E-01 0.12499971E+03</pdfrwt>
<totfact> 0.18029151E+03</totfact>
</mgrwt>
</event>
<event>
 5    1  0.1430314E-002  0.1249996E+03  0.7818608E-02  0.1235070E+00
         -4   -1    0    0    0  501 -0.00000000000E+00  0.00000000000E+00  0.46108081838E+03  0.46108256742E+03  0.12700000000E+01 0.  1.
          4   -1    0    0  501    0  0.00000000000E+00 -0.00000000000E+00 -0.84225129805E+01  0.85177241624E+01  0.12700000000E+01 0.  1.
         25    2    1    2    0    0  0.00000000000E+00  0.00000000000E+00  0.45265830540E+03  0.46960029158E+03  0.12499956962E+03 0.  0.
    9000005    1    3    3    0    0  0.61827411620E+02 -0.17419250965E+01  0.25983859099E+03  0.26710064863E+03  0.10000000000E+01 0.  0.
    9000005    1    3    3    0    0 -0.61827411620E+02  0.17419250965E+01  0.19281971441E+03  0.20249964295E+03  0.10000000000E+01 0.  0.
<mgrwt>
<rscale>  0 0.12499957E+03</rscale>
<asrwt>0</asrwt>
<pdfrwt beam="2">  1        4 0.21177486E-02 0.12499957E+03</pdfrwt>
<pdfrwt beam="1">  1       -4 0.11528231E+00 0.12499957E+03</pdfrwt>
<totfact> 0.92602351E+02</totfact>
</mgrwt>
</event>
<event>
 5    1  0.1430314E-002  0.1249991E+03  0.7818608E-02  0.1235071E+00
         -4   -1    0    0    0  501 -0.00000000000E+00  0.00000000000E+00  0.42506017024E+02  0.42524985400E+02  0.12700000000E+01 0.  1.
          4   -1    0    0  501    0  0.00000000000E+00 -0.00000000000E+00 -0.91853511860E+02  0.91862291181E+02  0.12700000000E+01 0.  1.
         25    2    1    2    0    0  0.00000000000E+00  0.00000000000E+00 -0.49347494836E+02  0.13438727658E+03  0.12499905944E+03 0.  0.
    9000005    1    3    3    0    0  0.90975353389E+01 -0.26916663568E+02 -0.84513040876E+02  0.89166843642E+02  0.10000000000E+01 0.  0.
    9000005    1    3    3    0    0 -0.90975353389E+01  0.26916663568E+02  0.35165546041E+02  0.45220432939E+02  0.10000000000E+01 0.  0.
<mgrwt>
<rscale>  0 0.12499906E+03</rscale>
<asrwt>0</asrwt>
<pdfrwt beam="2">  1        4 0.22966846E-01 0.12499906E+03</pdfrwt>
<pdfrwt beam="1">  1       -4 0.10629973E-01 0.12499906E+03</pdfrwt>
<totfact> 0.19331703E+03</totfact>
</mgrwt>
</event>
<event>
 5    1  0.1430314E-002  0.1249985E+03  0.7818608E-02  0.1235072E+00
         -4   -1    0    0    0  501 -0.00000000000E+00  0.00000000000E+00  0.82410489579E+02  0.82420274766E+02  0.12700000000E+01 0.  1.
          4   -1    0    0  501    0  0.00000000000E+00 -0.00000000000E+00 -0.47377630473E+02  0.47394649163E+02  0.12700000000E+01 0.  1.
         25    2    1    2    0    0  0.00000000000E+00  0.00000000000E+00  0.35032859105E+02  0.12981492393E+03  0.12499845302E+03 0.  0.
    9000005    1    3    3    0    0  0.57186275518E+02 -0.24230229051E+02  0.10337834531E+02  0.62970190807E+02  0.10000000000E+01 0.  0.
    9000005    1    3    3    0    0 -0.57186275518E+02  0.24230229051E+02  0.24695024574E+02  0.66844733122E+02  0.10000000000E+01 0.  0.
<mgrwt>
<rscale>  0 0.12499845E+03</rscale>
<asrwt>0</asrwt>
<pdfrwt beam="2">  1        4 0.11847758E-01 0.12499845E+03</pdfrwt>
<pdfrwt beam="1">  1       -4 0.20605973E-01 0.12499845E+03</pdfrwt>
<totfact> 0.19575044E+03</totfact>
</mgrwt>
</event>
<event>
 5    1  0.1430314E-002  0.1249997E+03  0.7818608E-02  0.1235070E+00
          4   -1    0    0  501    0  0.00000000000E+00  0.00000000000E+00  0.71988511209E+02  0.71999712820E+02  0.12700000000E+01 0. -1.
         -4   -1    0    0    0  501 -0.00000000000E+00 -0.00000000000E+00 -0.54238974643E+02  0.54253841066E+02  0.12700000000E+01 0. -1.
         25    2    1    2    0    0  0.00000000000E+00  0.00000000000E+00  0.17749536566E+02  0.12625355389E+03  0.12499965528E+03 0.  0.
    9000005    1    3    3    0    0  0.16059558100E+02 -0.37841446807E+02  0.56414352437E+02  0.69810197419E+02  0.10000000000E+01 0.  0.
    9000005    1    3    3    0    0 -0.16059558100E+02  0.37841446807E+02 -0.38664815871E+02  0.56443356466E+02  0.10000000000E+01 0.  0.
<mgrwt>
<rscale>  0 0.12499966E+03</rscale>
<asrwt>0</asrwt>
<pdfrwt beam="1">  1        4 0.18000386E-01 0.12499966E+03</pdfrwt>
<pdfrwt beam="2">  1       -4 0.13563002E-01 0.12499966E+03</pdfrwt>
<totfact> 0.19767384E+03</totfact>
</mgrwt>
</event>
<event>
 5    1  0.1430314E-002  0.1250003E+03  0.7818608E-02  0.1235069E+00
          4   -1    0    0  501    0  0.00000000000E+00  0.00000000000E+00  0.26789131901E+02  0.26819218631E+02  0.12700000000E+01 0. -1.
         -4   -1    0    0    0  501 -0.00000000000E+00 -0.00000000000E+00 -0.14570075175E+03  0.14570628662E+03  0.12700000000E+01 0. -1.
         25    2    1    2    0    0  0.00000000000E+00  0.00000000000E+00 -0.11891161985E+03  0.17252550525E+03  0.12500030651E+03 0.  0.
    9000005    1    3    3    0    0 -0.59203563887E+02  0.12336830979E+02 -0.37719959608E+02  0.71281517438E+02  0.10000000000E+01 0.  0.
    9000005    1    3    3    0    0  0.59203563887E+02 -0.12336830979E+02 -0.81191660240E+02  0.10124398781E+03  0.10000000000E+01 0.  0.
<mgrwt>
<rscale>  0 0.12500031E+03</rscale>
<asrwt>0</asrwt>
<pdfrwt beam="1">  1        4 0.67017361E-02 0.12500031E+03</pdfrwt>
<pdfrwt beam="2">  1       -4 0.36429638E-01 0.12500031E+03</pdfrwt>
<totfact> 0.17483610E+03</totfact>
</mgrwt>
</event>
<event>
 5    1  0.1430314E-002  0.1249966E+03  0.7818608E-02  0.1235075E+00
          4   -1    0    0  501    0  0.00000000000E+00  0.00000000000E+00  0.54059198968E+03  0.54059348147E+03  0.12700000000E+01 0.  1.
         -4   -1    0    0    0  501 -0.00000000000E+00 -0.00000000000E+00 -0.71681619097E+01  0.72797970552E+01  0.12700000000E+01 0.  1.
         25    2    1    2    0    0  0.00000000000E+00  0.00000000000E+00  0.53342382777E+03  0.54787327853E+03  0.12499659710E+03 0.  0.
    9000005    1    3    3    0    0 -0.22348106765E+02 -0.22485100373E+02  0.50275017344E+03  0.50374969430E+03  0.10000000000E+01 0.  0.
    9000005    1    3    3    0    0  0.22348106765E+02  0.22485100373E+02  0.30673654334E+02  0.44123584226E+02  0.10000000000E+01 0.  0.
<mgrwt>
<rscale>  0 0.12499660E+03</rscale>
<asrwt>0</asrwt>
<pdfrwt beam="1">  1        4 0.13516212E+00 0.12499660E+03</pdfrwt>
<pdfrwt beam="2">  1       -4 0.18061815E-02 0.12499660E+03</pdfrwt>
<totfact> 0.80470040E+02</totfact>
</mgrwt>
</event>
<event>
 5    1  0.1430314E-002  0.1250030E+03  0.7818608E-02  0.1235065E+00
         -4   -1    0    0    0  501 -0.00000000000E+00  0.00000000000E+00  0.16821687454E+03  0.16822166858E+03  0.12700000000E+01 0. -1.
          4   -1    0    0  501    0  0.00000000000E+00 -0.00000000000E+00 -0.23200128657E+02  0.23234863238E+02  0.12700000000E+01 0. -1.
         25    2    1    2    0    0  0.00000000000E+00  0.00000000000E+00  0.14501674588E+03  0.19145653182E+03  0.12500298792E+03 0.  0.
    9000005    1    3    3    0    0  0.52713177784E+02 -0.32027015648E+01  0.21330854557E+02  0.56964390328E+02  0.10000000000E+01 0.  0.
    9000005    1    3    3    0    0 -0.52713177784E+02  0.32027015648E+01  0.12368589132E+03  0.13449214149E+03  0.10000000000E+01 0.  0.
<mgrwt>
<rscale>  0 0.12500299E+03</rscale>
<asrwt>0</asrwt>
<pdfrwt beam="2">  1        4 0.58049733E-02 0.12500299E+03</pdfrwt>
<pdfrwt beam="1">  1       -4 0.42059159E-01 0.12500299E+03</pdfrwt>
<totfact> 0.16668797E+03</totfact>
</mgrwt>
</event>
<event>
 5    1  0.1430314E-002  0.1249986E+03  0.7818608E-02  0.1235071E+00
         -4   -1    0    0    0  501 -0.00000000000E+00  0.00000000000E+00  0.17080766725E+03  0.17081238858E+03  0.12700000000E+01 0.  1.
          4   -1    0    0  501    0  0.00000000000E+00 -0.00000000000E+00 -0.22846118206E+02  0.22881390191E+02  0.12700000000E+01 0.  1.
         25    2    1    2    0    0  0.00000000000E+00  0.00000000000E+00  0.14796154904E+03  0.19369377877E+03  0.12499863974E+03 0.  0.
    9000005    1    3    3    0    0  0.14091984116E+02 -0.37787245112E+02  0.10974481839E-01  0.40341790118E+02  0.10000000000E+01 0.  0.
    9000005    1    3    3    0    0 -0.14091984116E+02  0.37787245112E+02  0.14795057456E+03  0.15335198865E+03  0.10000000000E+01 0.  0.
<mgrwt>
<rscale>  0 0.12499864E+03</rscale>
<asrwt>0</asrwt>
<pdfrwt beam="2">  1        4 0.57165289E-02 0.12499864E+03</pdfrwt>
<pdfrwt beam="1">  1       -4 0.42706915E-01 0.12499864E+03</pdfrwt>
<totfact> 0.16578227E+03</totfact>
</mgrwt>
</event>
<event>
 5    1  0.1430314E-002  0.1250012E+03  0.7818608E-02  0.1235067E+00
         -4   -1    0    0    0  501 -0.00000000000E+00  0.00000000000E+00  0.26760896820E+02  0.26791015259E+02  0.12700000000E+01 0.  1.
          4   -1    0    0  501    0  0.00000000000E+00 -0.00000000000E+00 -0.14585642554E+03  0.14586195450E+03  0.12700000000E+01 0.  1.
         25    2    1    2    0    0  0.00000000000E+00  0.00000000000E+00 -0.11909552872E+03  0.17265296976E+03  0.12500121202E+03 0.  0.
    9000005    1    3    3    0    0  0.51235969844E+02 -0.17326261708E+02 -0.16309000867E+02  0.56500508493E+02  0.10000000000E+01 0.  0.
    9000005    1    3    3    0    0 -0.51235969844E+02  0.17326261708E+02 -0.10278652785E+03  0.11615246127E+03  0.10000000000E+01 0.  0.
<mgrwt>
<rscale>  0 0.12500121E+03</rscale>
<asrwt>0</asrwt>
<pdfrwt beam="2">  1        4 0.36468560E-01 0.12500121E+03</pdfrwt>
<pdfrwt beam="1">  1       -4 0.66946805E-02 0.12500121E+03</pdfrwt>
<totfact> 0.17477555E+03</totfact>
</mgrwt>
</event>
<event>
 5    1  0.1430314E-002  0.1250022E+03  0.7818608E-02  0.1235066E+00
         -4   -1    0    0    0  501 -0.00000000000E+00  0.00000000000E+00  0.74637984899E+02  0.74648788937E+02  0.12700000000E+01 0.  1.
          4   -1    0    0  501    0  0.00000000000E+00 -0.00000000000E+00 -0.52315482272E+02  0.52330895133E+02  0.12700000000E+01 0.  1.
         25    2    1    2    0    0  0.00000000000E+00  0.00000000000E+00  0.22322502626E+02  0.12697968407E+03  0.12500218415E+03 0.  0.
    9000005    1    3    3    0    0  0.59125637609E+01  0.51364914092E+02  0.46817445350E+02  0.69758053291E+02  0.10000000000E+01 0.  0.
    9000005    1    3    3    0    0 -0.59125637609E+01 -0.51364914092E+02 -0.24494942724E+02  0.57221630778E+02  0.10000000000E+01 0.  0.
<mgrwt>
<rscale>  0 0.12500218E+03</rscale>
<asrwt>0</asrwt>
<pdfrwt beam="2">  1        4 0.13082148E-01 0.12500218E+03</pdfrwt>
<pdfrwt beam="1">  1       -4 0.18662773E-01 0.12500218E+03</pdfrwt>
<totfact> 0.19727064E+03</totfact>
</mgrwt>
</event>
<event>
 5    1  0.1430314E-002  0.1249990E+03  0.7818608E-02  0.1235071E+00
         -4   -1    0    0    0  501 -0.00000000000E+00  0.00000000000E+00  0.39373850529E+03  0.39374055347E+03  0.12700000000E+01 0.  1.
          4   -1    0    0  501    0  0.00000000000E+00 -0.00000000000E+00 -0.98780360233E+01  0.99593421307E+01  0.12700000000E+01 0.  1.
         25    2    1    2    0    0  0.00000000000E+00  0.00000000000E+00  0.38386046926E+03  0.40369989560E+03  0.12499898337E+03 0.  0.
    9000005    1    3    3    0    0 -0.22996173509E+02 -0.54808320967E+02  0.12960512274E+03  0.14258774100E+03  0.10000000000E+01 0.  0.
    9000005    1    3    3    0    0  0.22996173509E+02  0.54808320967E+02  0.25425534652E+03  0.26111215459E+03  0.10000000000E+01 0.  0.
<mgrwt>
<rscale>  0 0.12499898E+03</rscale>
<asrwt>0</asrwt>
<pdfrwt beam="2">  1        4 0.24799284E-02 0.12499898E+03</pdfrwt>
<pdfrwt beam="1">  1       -4 0.98445042E-01 0.12499898E+03</pdfrwt>
<totfact> 0.10493626E+03</totfact>
</mgrwt>
</event>
<event>
 5    1  0.1430314E-002  0.1249988E+03  0.7818608E-02  0.1235071E+00
         -4   -1    0    0    0  501 -0.00000000000E+00  0.00000000000E+00  0.40941556221E+02  0.40961249075E+02  0.12700000000E+01 0.  1.
          4   -1    0    0  501    0  0.00000000000E+00 -0.00000000000E+00 -0.95361647442E+02  0.95370103821E+02  0.12700000000E+01 0.  1.
         25    2    1    2    0    0  0.00000000000E+00  0.00000000000E+00 -0.54420091221E+02  0.13633135290E+03  0.12499876581E+03 0.  0.
    9000005    1    3    3    0    0 -0.45516312747E+02 -0.31551664383E+02  0.43613694571E+01  0.55563151413E+02  0.10000000000E+01 0.  0.
    9000005    1    3    3    0    0  0.45516312747E+02  0.31551664383E+02 -0.58781460678E+02  0.80768201483E+02  0.10000000000E+01 0.  0.
<mgrwt>
<rscale>  0 0.12499877E+03</rscale>
<asrwt>0</asrwt>
<pdfrwt beam="2">  1        4 0.23843930E-01 0.12499877E+03</pdfrwt>
<pdfrwt beam="1">  1       -4 0.10238908E-01 0.12499877E+03</pdfrwt>
<totfact> 0.19230181E+03</totfact>
</mgrwt>
</event>
<event>
 5    1  0.1430314E-002  0.1249975E+03  0.7818608E-02  0.1235073E+00
         -4   -1    0    0    0  501 -0.00000000000E+00  0.00000000000E+00  0.78486990628E+02  0.78497264906E+02  0.12700000000E+01 0. -1.
          4   -1    0    0  501    0  0.00000000000E+00 -0.00000000000E+00 -0.49745797343E+02  0.49762006122E+02  0.12700000000E+01 0. -1.
         25    2    1    2    0    0  0.00000000000E+00  0.00000000000E+00  0.28741193285E+02  0.12825927103E+03  0.12499753763E+03 0.  0.
    9000005    1    3    3    0    0 -0.30537971901E+02 -0.48629235635E+02 -0.10924780130E+02  0.58461278699E+02  0.10000000000E+01 0.  0.
    9000005    1    3    3    0    0  0.30537971901E+02  0.48629235635E+02  0.39665973414E+02  0.69797992329E+02  0.10000000000E+01 0.  0.
<mgrwt>
<rscale>  0 0.12499754E+03</rscale>
<asrwt>0</asrwt>
<pdfrwt beam="2">  1        4 0.12439760E-01 0.12499754E+03</pdfrwt>
<pdfrwt beam="1">  1       -4 0.19625058E-01 0.12499754E+03</pdfrwt>
<totfact> 0.19659569E+03</totfact>
</mgrwt>
</event>
<event>
 5    1  0.1430314E-002  0.1249977E+03  0.7818608E-02  0.1235073E+00
         -4   -1    0    0    0  501 -0.00000000000E+00  0.00000000000E+00  0.61583187350E+01  0.62879082088E+01  0.12700000000E+01 0. -1.
          4   -1    0    0  501    0  0.00000000000E+00 -0.00000000000E+00 -0.62754702386E+03  0.62754830894E+03  0.12700000000E+01 0. -1.
         25    2    1    2    0    0  0.00000000000E+00  0.00000000000E+00 -0.62138870513E+03  0.63383621715E+03  0.12499770924E+03 0.  0.
    9000005    1    3    3    0    0  0.19732598868E+02  0.59293513001E+02 -0.31017015548E+03  0.31640420587E+03  0.10000000000E+01 0.  0.
    9000005    1    3    3    0    0 -0.19732598868E+02 -0.59293513001E+02 -0.31121854965E+03  0.31743201129E+03  0.10000000000E+01 0.  0.
<mgrwt>
<rscale>  0 0.12499771E+03</rscale>
<asrwt>0</asrwt>
<pdfrwt beam="2">  1        4 0.15690290E+00 0.12499771E+03</pdfrwt>
<pdfrwt beam="1">  1       -4 0.15559411E-02 0.12499771E+03</pdfrwt>
<totfact> 0.69394969E+02</totfact>
</mgrwt>
</event>
<event>
 5    1  0.1430314E-002  0.1250056E+03  0.7818608E-02  0.1235061E+00
          4   -1    0    0  501    0  0.00000000000E+00  0.00000000000E+00  0.17858912466E+03  0.17859364028E+03  0.12700000000E+01 0. -1.
         -4   -1    0    0    0  501 -0.00000000000E+00 -0.00000000000E+00 -0.21851552082E+02  0.21888426814E+02  0.12700000000E+01 0. -1.
         25    2    1    2    0    0  0.00000000000E+00  0.00000000000E+00  0.15673757258E+03  0.20048206709E+03  0.12500557014E+03 0.  0.
    9000005    1    3    3    0    0  0.30086291581E+02 -0.46383764648E+02  0.31639443568E+02  0.63707871988E+02  0.10000000000E+01 0.  0.
    9000005    1    3    3    0    0 -0.30086291581E+02  0.46383764648E+02  0.12509812901E+03  0.13677419510E+03  0.10000000000E+01 0.  0.
<mgrwt>
<rscale>  0 0.12500557E+03</rscale>
<asrwt>0</asrwt>
<pdfrwt beam="1">  1        4 0.44652455E-01 0.12500557E+03</pdfrwt>
<pdfrwt beam="2">  1       -4 0.54680618E-02 0.12500557E+03</pdfrwt>
<totfact> 0.16300657E+03</totfact>
</mgrwt>
</event>
<event>
 5    1  0.1430314E-002  0.1249989E+03  0.7818608E-02  0.1235071E+00
         -4   -1    0    0    0  501 -0.00000000000E+00  0.00000000000E+00  0.19730936150E+03  0.19731344869E+03  0.12700000000E+01 0. -1.
          4   -1    0    0  501    0  0.00000000000E+00 -0.00000000000E+00 -0.19772573780E+02  0.19813318094E+02  0.12700000000E+01 0. -1.
         25    2    1    2    0    0  0.00000000000E+00  0.00000000000E+00  0.17753678772E+03  0.21712676678E+03  0.12499888744E+03 0.  0.
    9000005    1    3    3    0    0 -0.52749174108E+02 -0.32579697065E+02  0.75171941263E+02  0.97446050629E+02  0.10000000000E+01 0.  0.
    9000005    1    3    3    0    0  0.52749174108E+02  0.32579697065E+02  0.10236484645E+03  0.11968071615E+03  0.10000000000E+01 0.  0.
<mgrwt>
<rscale>  0 0.12499889E+03</rscale>
<asrwt>0</asrwt>
<pdfrwt beam="2">  1        4 0.49487474E-02 0.12499889E+03</pdfrwt>
<pdfrwt beam="1">  1       -4 0.49332944E-01 0.12499889E+03</pdfrwt>
<totfact> 0.15658879E+03</totfact>
</mgrwt>
</event>
<event>
 5    1  0.1430314E-002  0.1250053E+03  0.7818608E-02  0.1235061E+00
         -4   -1    0    0    0  501 -0.00000000000E+00  0.00000000000E+00  0.81149778245E+01  0.82137546282E+01  0.12700000000E+01 0. -1.
          4   -1    0    0  501    0  0.00000000000E+00 -0.00000000000E+00 -0.47839192702E+03  0.47839361276E+03  0.12700000000E+01 0. -1.
         25    2    1    2    0    0  0.00000000000E+00  0.00000000000E+00 -0.47027694919E+03  0.48660736739E+03  0.12500528413E+03 0.  0.
    9000005    1    3    3    0    0 -0.77237527170E+01  0.17145375653E+02 -0.31404207296E+01  0.19091424899E+02  0.10000000000E+01 0.  0.
    9000005    1    3    3    0    0  0.77237527170E+01 -0.17145375653E+02 -0.46713652846E+03  0.46751594249E+03  0.10000000000E+01 0.  0.
<mgrwt>
<rscale>  0 0.12500528E+03</rscale>
<asrwt>0</asrwt>
<pdfrwt beam="2">  1        4 0.11961045E+00 0.12500528E+03</pdfrwt>
<pdfrwt beam="1">  1       -4 0.20413039E-02 0.12500528E+03</pdfrwt>
<totfact> 0.89764992E+02</totfact>
</mgrwt>
</event>
<event>
 5    1  0.1430314E-002  0.1249516E+03  0.7818608E-02  0.1235145E+00
         -4   -1    0    0    0  501 -0.00000000000E+00  0.00000000000E+00  0.97259967185E+02  0.97268258527E+02  0.12700000000E+01 0.  1.
          4   -1    0    0  501    0  0.00000000000E+00 -0.00000000000E+00 -0.40111826464E+02  0.40131926471E+02  0.12700000000E+01 0.  1.
         25    2    1    2    0    0  0.00000000000E+00  0.00000000000E+00  0.57148140722E+02  0.13740018500E+03  0.12495159403E+03 0.  0.
    9000005    1    3    3    0    0  0.38839250487E+02 -0.39976625613E+02  0.59590719653E+02  0.81600685307E+02  0.10000000000E+01 0.  0.
    9000005    1    3    3    0    0 -0.38839250487E+02  0.39976625613E+02 -0.24425789319E+01  0.55799499690E+02  0.10000000000E+01 0.  0.
<mgrwt>
<rscale>  0 0.12495159E+03</rscale>
<asrwt>0</asrwt>
<pdfrwt beam="2">  1        4 0.10031506E-01 0.12495159E+03</pdfrwt>
<pdfrwt beam="1">  1       -4 0.24318541E-01 0.12495159E+03</pdfrwt>
<totfact> 0.19195811E+03</totfact>
</mgrwt>
</event>
<event>
 5    1  0.1430314E-002  0.1249989E+03  0.7818608E-02  0.1235071E+00
         -4   -1    0    0    0  501 -0.00000000000E+00  0.00000000000E+00  0.38287198597E+02  0.38308255982E+02  0.12700000000E+01 0.  1.
          4   -1    0    0  501    0  0.00000000000E+00 -0.00000000000E+00 -0.10197017314E+03  0.10197808151E+03  0.12700000000E+01 0.  1.
         25    2    1    2    0    0  0.00000000000E+00  0.00000000000E+00 -0.63682974539E+02  0.14028633750E+03  0.12499894096E+03 0.  0.
    9000005    1    3    3    0    0 -0.19039505223E+02  0.49923756449E+02  0.45303837415E+01  0.53632160072E+02  0.10000000000E+01 0.  0.
    9000005    1    3    3    0    0  0.19039505223E+02 -0.49923756449E+02 -0.68213358281E+02  0.86654177424E+02  0.10000000000E+01 0.  0.
<mgrwt>
<rscale>  0 0.12499894E+03</rscale>
<asrwt>0</asrwt>
<pdfrwt beam="2">  1        4 0.25496163E-01 0.12499894E+03</pdfrwt>
<pdfrwt beam="1">  1       -4 0.95754206E-02 0.12499894E+03</pdfrwt>
<totfact> 0.19026173E+03</totfact>
</mgrwt>
</event>
<event>
 5    1  0.1430314E-002  0.1250114E+03  0.7818608E-02  0.1235051E+00
          4   -1    0    0  501    0  0.00000000000E+00  0.00000000000E+00  0.74333501800E+01  0.75410605951E+01  0.12700000000E+01 0.  1.
         -4   -1    0    0    0  501 -0.00000000000E+00 -0.00000000000E+00 -0.52171036060E+03  0.52171190638E+03  0.12700000000E+01 0.  1.
         25    2    1    2    0    0  0.00000000000E+00  0.00000000000E+00 -0.51427701042E+03  0.52925296697E+03  0.12501143789E+03 0.  0.
    9000005    1    3    3    0    0  0.50996569052E+02 -0.29426247559E+02 -0.34588453118E+03  0.35086131592E+03  0.10000000000E+01 0.  0.
    9000005    1    3    3    0    0 -0.50996569052E+02  0.29426247559E+02 -0.16839247924E+03  0.17839165105E+03  0.10000000000E+01 0.  0.
<mgrwt>
<rscale>  0 0.12501144E+03</rscale>
<asrwt>0</asrwt>
<pdfrwt beam="1">  1        4 0.18719963E-02 0.12501144E+03</pdfrwt>
<pdfrwt beam="2">  1       -4 0.13044112E+00 0.12501144E+03</pdfrwt>
<totfact> 0.83113084E+02</totfact>
</mgrwt>
</event>
<event>
 5    1  0.1430314E-002  0.1250004E+03  0.7818608E-02  0.1235069E+00
          4   -1    0    0  501    0  0.00000000000E+00  0.00000000000E+00  0.80003700768E+02  0.80013780292E+02  0.12700000000E+01 0. -1.
         -4   -1    0    0    0  501 -0.00000000000E+00 -0.00000000000E+00 -0.48804739654E+02  0.48821260867E+02  0.12700000000E+01 0. -1.
         25    2    1    2    0    0  0.00000000000E+00  0.00000000000E+00  0.31198961115E+02  0.12883504116E+03  0.12500037062E+03 0.  0.
    9000005    1    3    3    0    0  0.46237250888E+01 -0.26047112879E+02  0.73952949370E+02  0.78548517768E+02  0.10000000000E+01 0.  0.
    9000005    1    3    3    0    0 -0.46237250888E+01  0.26047112879E+02 -0.42753988256E+02  0.50286523391E+02  0.10000000000E+01 0.  0.
<mgrwt>
<rscale>  0 0.12500037E+03</rscale>
<asrwt>0</asrwt>
<pdfrwt beam="1">  1        4 0.20004250E-01 0.12500037E+03</pdfrwt>
<pdfrwt beam="2">  1       -4 0.12204510E-01 0.12500037E+03</pdfrwt>
<totfact> 0.19627050E+03</totfact>
</mgrwt>
</event>
<event>
 5    1  0.1430314E-002  0.1249986E+03  0.7818608E-02  0.1235071E+00
          4   -1    0    0  501    0  0.00000000000E+00  0.00000000000E+00  0.33022408797E+02  0.33046821069E+02  0.12700000000E+01 0.  1.
         -4   -1    0    0    0  501 -0.00000000000E+00 -0.00000000000E+00 -0.11821671096E+03  0.11822353256E+03  0.12700000000E+01 0.  1.
         25    2    1    2    0    0  0.00000000000E+00  0.00000000000E+00 -0.85194302162E+02  0.15127035362E+03  0.12499860305E+03 0.  0.
    9000005    1    3    3    0    0  0.27219257054E+02 -0.87721423747E+01 -0.10983902145E+03  0.11350528212E+03  0.10000000000E+01 0.  0.
    9000005    1    3    3    0    0 -0.27219257054E+02  0.87721423747E+01  0.24644719292E+02  0.37765071500E+02  0.10000000000E+01 0.  0.
<mgrwt>
<rscale>  0 0.12499860E+03</rscale>
<asrwt>0</asrwt>
<pdfrwt beam="1">  1        4 0.82595067E-02 0.12499860E+03</pdfrwt>
<pdfrwt beam="2">  1       -4 0.29558081E-01 0.12499860E+03</pdfrwt>
<totfact> 0.18477094E+03</totfact>
</mgrwt>
</event>
<event>
 5    1  0.1430314E-002  0.1250040E+03  0.7818608E-02  0.1235063E+00
          4   -1    0    0  501    0  0.00000000000E+00  0.00000000000E+00  0.12562477336E+04  0.12562483756E+04  0.12700000000E+01 0. -1.
         -4   -1    0    0    0  501 -0.00000000000E+00 -0.00000000000E+00 -0.29793172080E+01  0.32387082342E+01  0.12700000000E+01 0. -1.
         25    2    1    2    0    0  0.00000000000E+00  0.00000000000E+00  0.12532684164E+04  0.12594870838E+04  0.12500396272E+03 0.  0.
    9000005    1    3    3    0    0  0.25445649309E+00 -0.12496766882E+02  0.12435742144E+04  0.12436374313E+04  0.10000000000E+01 0.  0.
    9000005    1    3    3    0    0 -0.25445649309E+00  0.12496766882E+02  0.96942020336E+01  0.15849652478E+02  0.10000000000E+01 0.  0.
<mgrwt>
<rscale>  0 0.12500396E+03</rscale>
<asrwt>0</asrwt>
<pdfrwt beam="1">  1        4 0.31409432E+00 0.12500396E+03</pdfrwt>
<pdfrwt beam="2">  1       -4 0.77733372E-03 0.12500396E+03</pdfrwt>
<totfact> 0.22212743E+02</totfact>
</mgrwt>
</event>
<event>
 5    1  0.1430314E-002  0.1249983E+03  0.7818608E-02  0.1235072E+00
         -4   -1    0    0    0  501 -0.00000000000E+00  0.00000000000E+00  0.71448865539E+01  0.72568797612E+01  0.12700000000E+01 0.  1.
          4   -1    0    0  501    0  0.00000000000E+00 -0.00000000000E+00 -0.54234093084E+03  0.54234241782E+03  0.12700000000E+01 0.  1.
         25    2    1    2    0    0  0.00000000000E+00  0.00000000000E+00 -0.53519604429E+03  0.54959929758E+03  0.12499832831E+03 0.  0.
    9000005    1    3    3    0    0 -0.30191396107E+02  0.20209191178E+02 -0.44040035590E+02  0.57100407544E+02  0.10000000000E+01 0.  0.
    9000005    1    3    3    0    0  0.30191396107E+02 -0.20209191178E+02 -0.49115600870E+03  0.49249889004E+03  0.10000000000E+01 0.  0.
<mgrwt>
<rscale>  0 0.12499833E+03</rscale>
<asrwt>0</asrwt>
<pdfrwt beam="2">  1        4 0.13559928E+00 0.12499833E+03</pdfrwt>
<pdfrwt beam="1">  1       -4 0.18004085E-02 0.12499833E+03</pdfrwt>
<totfact> 0.80225717E+02</totfact>
</mgrwt>
</event>
<event>
 5    1  0.1430314E-002  0.1250024E+03  0.7818608E-02  0.1235066E+00
         -4   -1    0    0    0  501 -0.00000000000E+00  0.00000000000E+00  0.27905597919E+02  0.27934482189E+02  0.12700000000E+01 0. -1.
          4   -1    0    0  501    0  0.00000000000E+00 -0.00000000000E+00 -0.13988198731E+03  0.13988775241E+03  0.12700000000E+01 0. -1.
         25    2    1    2    0    0  0.00000000000E+00  0.00000000000E+00 -0.11197638940E+03  0.16782223460E+03  0.12500236256E+03 0.  0.
    9000005    1    3    3    0    0  0.12610322353E+02 -0.46295888875E+02 -0.22346306346E+01  0.48045011506E+02  0.10000000000E+01 0.  0.
    9000005    1    3    3    0    0 -0.12610322353E+02  0.46295888875E+02 -0.10974175876E+03  0.11977722310E+03  0.10000000000E+01 0.  0.
<mgrwt>
<rscale>  0 0.12500236E+03</rscale>
<asrwt>0</asrwt>
<pdfrwt beam="2">  1        4 0.34974826E-01 0.12500236E+03</pdfrwt>
<pdfrwt beam="1">  1       -4 0.69807310E-02 0.12500236E+03</pdfrwt>
<totfact> 0.17694753E+03</totfact>
</mgrwt>
</event>
<event>
 5    1  0.1430314E-002  0.1249983E+03  0.7818608E-02  0.1235072E+00
          4   -1    0    0  501    0  0.00000000000E+00  0.00000000000E+00  0.26235450882E+02  0.26266171837E+02  0.12700000000E+01 0. -1.
         -4   -1    0    0    0  501 -0.00000000000E+00 -0.00000000000E+00 -0.14876751980E+03  0.14877294057E+03  0.12700000000E+01 0. -1.
         25    2    1    2    0    0  0.00000000000E+00  0.00000000000E+00 -0.12253206892E+03  0.17503911241E+03  0.12499833183E+03 0.  0.
    9000005    1    3    3    0    0 -0.94703091553E+01  0.60937853646E+02 -0.75411253546E+02  0.97421588593E+02  0.10000000000E+01 0.  0.
    9000005    1    3    3    0    0  0.94703091553E+01 -0.60937853646E+02 -0.47120815370E+02  0.77617523818E+02  0.10000000000E+01 0.  0.
<mgrwt>
<rscale>  0 0.12499833E+03</rscale>
<asrwt>0</asrwt>
<pdfrwt beam="1">  1        4 0.65633809E-02 0.12499833E+03</pdfrwt>
<pdfrwt beam="2">  1       -4 0.37196395E-01 0.12499833E+03</pdfrwt>
<totfact> 0.17372800E+03</totfact>
</mgrwt>
</event>
<event>
 5    1  0.1430314E-002  0.1250017E+03  0.7818608E-02  0.1235067E+00
          4   -1    0    0  501    0  0.00000000000E+00  0.00000000000E+00  0.10706134802E+02  0.10781197633E+02  0.12700000000E+01 0.  1.
         -4   -1    0    0    0  501 -0.00000000000E+00 -0.00000000000E+00 -0.36352014906E+03  0.36352236750E+03  0.12700000000E+01 0.  1.
         25    2    1    2    0    0  0.00000000000E+00  0.00000000000E+00 -0.35281401425E+03  0.37430356513E+03  0.12500172084E+03 0.  0.
    9000005    1    3    3    0    0 -0.59509932165E+02  0.86963486240E+01 -0.12556419354E+03  0.13922796129E+03  0.10000000000E+01 0.  0.
    9000005    1    3    3    0    0  0.59509932165E+02 -0.86963486240E+01 -0.22724982071E+03  0.23507560384E+03  0.10000000000E+01 0.  0.
<mgrwt>
<rscale>  0 0.12500172E+03</rscale>
<asrwt>0</asrwt>
<pdfrwt beam="1">  1        4 0.26861951E-02 0.12500172E+03</pdfrwt>
<pdfrwt beam="2">  1       -4 0.90889656E-01 0.12500172E+03</pdfrwt>
<totfact> 0.11117954E+03</totfact>
</mgrwt>
</event>
<event>
 5    1  0.1430314E-002  0.1249999E+03  0.7818608E-02  0.1235069E+00
         -4   -1    0    0    0  501 -0.00000000000E+00  0.00000000000E+00  0.23893260541E+03  0.23893598061E+03  0.12700000000E+01 0. -1.
          4   -1    0    0  501    0  0.00000000000E+00 -0.00000000000E+00 -0.16320575408E+02  0.16369913917E+02  0.12700000000E+01 0. -1.
         25    2    1    2    0    0  0.00000000000E+00  0.00000000000E+00  0.22261203001E+03  0.25530589453E+03  0.12499993551E+03 0.  0.
    9000005    1    3    3    0    0  0.89271717005E+01  0.56020536687E+02  0.57762268351E+02  0.80965885225E+02  0.10000000000E+01 0.  0.
    9000005    1    3    3    0    0 -0.89271717005E+01 -0.56020536687E+02  0.16484976166E+03  0.17434000930E+03  0.10000000000E+01 0.  0.
<mgrwt>
<rscale>  0 0.12499994E+03</rscale>
<asrwt>0</asrwt>
<pdfrwt beam="2">  1        4 0.40867331E-02 0.12499994E+03</pdfrwt>
<pdfrwt beam="1">  1       -4 0.59739740E-01 0.12499994E+03</pdfrwt>
<totfact> 0.14323155E+03</totfact>
</mgrwt>
</event>
<event>
 5    1  0.1430314E-002  0.1250033E+03  0.7818608E-02  0.1235064E+00
          4   -1    0    0  501    0  0.00000000000E+00  0.00000000000E+00  0.23883396414E+02  0.23917138714E+02  0.12700000000E+01 0.  1.
         -4   -1    0    0    0  501 -0.00000000000E+00 -0.00000000000E+00 -0.16341212798E+03  0.16341706297E+03  0.12700000000E+01 0.  1.
         25    2    1    2    0    0  0.00000000000E+00  0.00000000000E+00 -0.13952873157E+03  0.18733420169E+03  0.12500334471E+03 0.  0.
    9000005    1    3    3    0    0 -0.26660255523E+02  0.55176027119E+02 -0.51391836810E+02  0.79983023723E+02  0.10000000000E+01 0.  0.
    9000005    1    3    3    0    0  0.26660255523E+02 -0.55176027119E+02 -0.88136894757E+02  0.10735117797E+03  0.10000000000E+01 0.  0.
<mgrwt>
<rscale>  0 0.12500334E+03</rscale>
<asrwt>0</asrwt>
<pdfrwt beam="1">  1        4 0.59756842E-02 0.12500334E+03</pdfrwt>
<pdfrwt beam="2">  1       -4 0.40857863E-01 0.12500334E+03</pdfrwt>
<totfact> 0.16840782E+03</totfact>
</mgrwt>
</event>
<event>
 5    1  0.1430314E-002  0.1249788E+03  0.7818608E-02  0.1235102E+00
         -4   -1    0    0    0  501 -0.00000000000E+00  0.00000000000E+00  0.54008910337E+02  0.54023840069E+02  0.12700000000E+01 0. -1.
          4   -1    0    0  501    0  0.00000000000E+00 -0.00000000000E+00 -0.72270958410E+02  0.72282116249E+02  0.12700000000E+01 0. -1.
         25    2    1    2    0    0  0.00000000000E+00  0.00000000000E+00 -0.18262048073E+02  0.12630595632E+03  0.12497876700E+03 0.  0.
    9000005    1    3    3    0    0  0.97505973885E+00  0.57736692630E+02  0.14985466579E+02  0.59666076006E+02  0.10000000000E+01 0.  0.
    9000005    1    3    3    0    0 -0.97505973885E+00 -0.57736692630E+02 -0.33247514652E+02  0.66639880312E+02  0.10000000000E+01 0.  0.
<mgrwt>
<rscale>  0 0.12497877E+03</rscale>
<asrwt>0</asrwt>
<pdfrwt beam="2">  1        4 0.18071000E-01 0.12497877E+03</pdfrwt>
<pdfrwt beam="1">  1       -4 0.13505489E-01 0.12497877E+03</pdfrwt>
<totfact> 0.19774214E+03</totfact>
</mgrwt>
</event>
<event>
 5    1  0.1430314E-002  0.1249990E+03  0.7818608E-02  0.1235071E+00
         -4   -1    0    0    0  501 -0.00000000000E+00  0.00000000000E+00  0.19790678420E+03  0.19791085906E+03  0.12700000000E+01 0.  1.
          4   -1    0    0  501    0  0.00000000000E+00 -0.00000000000E+00 -0.19712802512E+02  0.19753670111E+02  0.12700000000E+01 0.  1.
         25    2    1    2    0    0  0.00000000000E+00  0.00000000000E+00  0.17819398169E+03  0.21766452917E+03  0.12499900859E+03 0.  0.
    9000005    1    3    3    0    0 -0.56971111776E+02 -0.12427782696E+02  0.49964276475E+02  0.76795743915E+02  0.10000000000E+01 0.  0.
    9000005    1    3    3    0    0  0.56971111776E+02  0.12427782696E+02  0.12822970522E+03  0.14086878526E+03  0.10000000000E+01 0.  0.
<mgrwt>
<rscale>  0 0.12499901E+03</rscale>
<asrwt>0</asrwt>
<pdfrwt beam="2">  1        4 0.49338185E-02 0.12499901E+03</pdfrwt>
<pdfrwt beam="1">  1       -4 0.49482314E-01 0.12499901E+03</pdfrwt>
<totfact> 0.15638694E+03</totfact>
</mgrwt>
</event>
<event>
 5    1  0.1430314E-002  0.1250006E+03  0.7818608E-02  0.1235068E+00
         -4   -1    0    0    0  501 -0.00000000000E+00  0.00000000000E+00  0.69334278452E+03  0.69334394765E+03  0.12700000000E+01 0. -1.
          4   -1    0    0  501    0  0.00000000000E+00 -0.00000000000E+00 -0.55612402351E+01  0.57044099565E+01  0.12700000000E+01 0. -1.
         25    2    1    2    0    0  0.00000000000E+00  0.00000000000E+00  0.68778154428E+03  0.69904835761E+03  0.12500061446E+03 0.  0.
    9000005    1    3    3    0    0 -0.18896244066E+02  0.11787999919E+02  0.17359070681E+02  0.28255305994E+02  0.10000000000E+01 0.  0.
    9000005    1    3    3    0    0  0.18896244066E+02 -0.11787999919E+02  0.67042247360E+03  0.67079305161E+03  0.10000000000E+01 0.  0.
<mgrwt>
<rscale>  0 0.12500061E+03</rscale>
<asrwt>0</asrwt>
<pdfrwt beam="2">  1        4 0.14083516E-02 0.12500061E+03</pdfrwt>
<pdfrwt beam="1">  1       -4 0.17335375E+00 0.12500061E+03</pdfrwt>
<totfact> 0.62164153E+02</totfact>
</mgrwt>
</event>
<event>
 5    1  0.1430314E-002  0.1249983E+03  0.7818608E-02  0.1235072E+00
          4   -1    0    0  501    0  0.00000000000E+00  0.00000000000E+00  0.39737529219E+02  0.39757818457E+02  0.12700000000E+01 0.  1.
         -4   -1    0    0    0  501 -0.00000000000E+00 -0.00000000000E+00 -0.98249121105E+02  0.98257328978E+02  0.12700000000E+01 0.  1.
         25    2    1    2    0    0  0.00000000000E+00  0.00000000000E+00 -0.58511591885E+02  0.13801514743E+03  0.12499829813E+03 0.  0.
    9000005    1    3    3    0    0  0.38043192176E+02  0.48702869573E+02 -0.39488563089E+02  0.73345760549E+02  0.10000000000E+01 0.  0.
    9000005    1    3    3    0    0 -0.38043192176E+02 -0.48702869573E+02 -0.19023028796E+02  0.64669386886E+02  0.10000000000E+01 0.  0.
<mgrwt>
<rscale>  0 0.12499830E+03</rscale>
<asrwt>0</asrwt>
<pdfrwt beam="1">  1        4 0.99379446E-02 0.12499830E+03</pdfrwt>
<pdfrwt beam="2">  1       -4 0.24565842E-01 0.12499830E+03</pdfrwt>
<totfact> 0.19143109E+03</totfact>
</mgrwt>
</event>
<event>
 5    1  0.1430314E-002  0.1250017E+03  0.7818608E-02  0.1235067E+00
         -4   -1    0    0    0  501 -0.00000000000E+00  0.00000000000E+00  0.27128944743E+03  0.27129242007E+03  0.12700000000E+01 0.  1.
          4   -1    0    0  501    0  0.00000000000E+00 -0.00000000000E+00 -0.14368153252E+02  0.14424171653E+02  0.12700000000E+01 0.  1.
         25    2    1    2    0    0  0.00000000000E+00  0.00000000000E+00  0.25692129418E+03  0.28571659172E+03  0.12500167752E+03 0.  0.
    9000005    1    3    3    0    0  0.30008201267E+02  0.38140477327E+02  0.21845366582E+03  0.22378157267E+03  0.10000000000E+01 0.  0.
    9000005    1    3    3    0    0 -0.30008201267E+02 -0.38140477327E+02  0.38467628356E+02  0.61935019055E+02  0.10000000000E+01 0.  0.
<mgrwt>
<rscale>  0 0.12500168E+03</rscale>
<asrwt>0</asrwt>
<pdfrwt beam="2">  1        4 0.35994121E-02 0.12500168E+03</pdfrwt>
<pdfrwt beam="1">  1       -4 0.67829737E-01 0.12500168E+03</pdfrwt>
<totfact> 0.13380518E+03</totfact>
</mgrwt>
</event>
<event>
 5    1  0.1430314E-002  0.1250081E+03  0.7818608E-02  0.1235057E+00
          4   -1    0    0  501    0  0.00000000000E+00  0.00000000000E+00  0.96339010117E+01  0.97172500587E+01  0.12700000000E+01 0.  1.
         -4   -1    0    0    0  501 -0.00000000000E+00 -0.00000000000E+00 -0.40369066426E+03  0.40369266195E+03  0.12700000000E+01 0.  1.
         25    2    1    2    0    0  0.00000000000E+00  0.00000000000E+00 -0.39405676325E+03  0.41340991201E+03  0.12500809047E+03 0.  0.
    9000005    1    3    3    0    0 -0.44893936467E+02  0.15543563644E+02 -0.33130857929E+03  0.33469903288E+03  0.10000000000E+01 0.  0.
    9000005    1    3    3    0    0  0.44893936467E+02 -0.15543563644E+02 -0.62748183959E+02  0.78710879124E+02  0.10000000000E+01 0.  0.
<mgrwt>
<rscale>  0 0.12500809E+03</rscale>
<asrwt>0</asrwt>
<pdfrwt beam="1">  1        4 0.24191449E-02 0.12500809E+03</pdfrwt>
<pdfrwt beam="2">  1       -4 0.10093328E+00 0.12500809E+03</pdfrwt>
<totfact> 0.10295298E+03</totfact>
</mgrwt>
</event>
<event>
 5    1  0.1430314E-002  0.1250007E+03  0.7818608E-02  0.1235068E+00
          4   -1    0    0  501    0  0.00000000000E+00  0.00000000000E+00  0.76651775593E+02  0.76662295828E+02  0.12700000000E+01 0.  1.
         -4   -1    0    0    0  501 -0.00000000000E+00 -0.00000000000E+00 -0.50939621899E+02  0.50955450927E+02  0.12700000000E+01 0.  1.
         25    2    1    2    0    0  0.00000000000E+00  0.00000000000E+00  0.25712153694E+02  0.12761774676E+03  0.12500069776E+03 0.  0.
    9000005    1    3    3    0    0 -0.33024902712E+02  0.36525477283E+02  0.52139429828E+02  0.71723600249E+02  0.10000000000E+01 0.  0.
    9000005    1    3    3    0    0  0.33024902712E+02 -0.36525477283E+02 -0.26427276134E+02  0.55894146507E+02  0.10000000000E+01 0.  0.
<mgrwt>
<rscale>  0 0.12500070E+03</rscale>
<asrwt>0</asrwt>
<pdfrwt beam="1">  1        4 0.19166237E-01 0.12500070E+03</pdfrwt>
<pdfrwt beam="2">  1       -4 0.12738199E-01 0.12500070E+03</pdfrwt>
<totfact> 0.19693038E+03</totfact>
</mgrwt>
</event>
<event>
 5    1  0.1430314E-002  0.1250201E+03  0.7818608E-02  0.1235038E+00
         -4   -1    0    0    0  501 -0.00000000000E+00  0.00000000000E+00  0.40857665455E+03  0.40857862835E+03  0.12700000000E+01 0. -1.
          4   -1    0    0  501    0  0.00000000000E+00 -0.00000000000E+00 -0.95195391801E+01  0.96038807886E+01  0.12700000000E+01 0. -1.
         25    2    1    2    0    0  0.00000000000E+00  0.00000000000E+00  0.39905711537E+03  0.41818250914E+03  0.12502011687E+03 0.  0.
    9000005    1    3    3    0    0 -0.15876488340E+02 -0.56396224187E+02  0.27234577740E+03  0.27857821065E+03  0.10000000000E+01 0.  0.
    9000005    1    3    3    0    0  0.15876488340E+02  0.56396224187E+02  0.12671133797E+03  0.13960429849E+03  0.10000000000E+01 0.  0.
<mgrwt>
<rscale>  0 0.12502012E+03</rscale>
<asrwt>0</asrwt>
<pdfrwt beam="2">  1        4 0.23906743E-02 0.12502012E+03</pdfrwt>
<pdfrwt beam="1">  1       -4 0.10215495E+00 0.12502012E+03</pdfrwt>
<totfact> 0.10197346E+03</totfact>
</mgrwt>
</event>
<event>
 5    1  0.1430314E-002  0.1250023E+03  0.7818608E-02  0.1235066E+00
         -4   -1    0    0    0  501 -0.00000000000E+00  0.00000000000E+00  0.23258179808E+01  0.26499677885E+01  0.12700000000E+01 0.  1.
          4   -1    0    0  501    0  0.00000000000E+00 -0.00000000000E+00 -0.15698368205E+04  0.15698373342E+04  0.12700000000E+01 0.  1.
         25    2    1    2    0    0  0.00000000000E+00  0.00000000000E+00 -0.15675110025E+04  0.15724873020E+04  0.12500228776E+03 0.  0.
    9000005    1    3    3    0    0 -0.20461104599E+02  0.59008666976E+02 -0.81106644106E+03  0.81346816249E+03  0.10000000000E+01 0.  0.
    9000005    1    3    3    0    0  0.20461104599E+02 -0.59008666976E+02 -0.75644456148E+03  0.75901913953E+03  0.10000000000E+01 0.  0.
<mgrwt>
<rscale>  0 0.12500229E+03</rscale>
<asrwt>0</asrwt>
<pdfrwt beam="2">  1        4 0.39249639E+00 0.12500229E+03</pdfrwt>
<pdfrwt beam="1">  1       -4 0.62204282E-03 0.12500229E+03</pdfrwt>
<totfact> 0.10266052E+02</totfact>
</mgrwt>
</event>
<event>
 5    1  0.1430314E-002  0.1250017E+03  0.7818608E-02  0.1235067E+00
         -4   -1    0    0    0  501 -0.00000000000E+00  0.00000000000E+00  0.52681662470E+02  0.52696968229E+02  0.12700000000E+01 0.  1.
          4   -1    0    0  501    0  0.00000000000E+00 -0.00000000000E+00 -0.74118684815E+02  0.74129564539E+02  0.12700000000E+01 0.  1.
         25    2    1    2    0    0  0.00000000000E+00  0.00000000000E+00 -0.21437022346E+02  0.12682653277E+03  0.12500169394E+03 0.  0.
    9000005    1    3    3    0    0 -0.22225492651E+01 -0.61083575447E+02  0.24795771067E+01  0.61182442067E+02  0.10000000000E+01 0.  0.
    9000005    1    3    3    0    0  0.22225492651E+01  0.61083575447E+02 -0.23916599452E+02  0.65644090701E+02  0.10000000000E+01 0.  0.
<mgrwt>
<rscale>  0 0.12500169E+03</rscale>
<asrwt>0</asrwt>
<pdfrwt beam="2">  1        4 0.18532944E-01 0.12500169E+03</pdfrwt>
<pdfrwt beam="1">  1       -4 0.13173689E-01 0.12500169E+03</pdfrwt>
<totfact> 0.19735539E+03</totfact>
</mgrwt>
</event>
<event>
 5    1  0.1430314E-002  0.1250001E+03  0.7818608E-02  0.1235069E+00
         -4   -1    0    0    0  501 -0.00000000000E+00  0.00000000000E+00  0.27081906512E+02  0.27111668343E+02  0.12700000000E+01 0.  1.
          4   -1    0    0  501    0  0.00000000000E+00 -0.00000000000E+00 -0.14412673823E+03  0.14413233354E+03  0.12700000000E+01 0.  1.
         25    2    1    2    0    0  0.00000000000E+00  0.00000000000E+00 -0.11704483172E+03  0.17124400188E+03  0.12500006220E+03 0.  0.
    9000005    1    3    3    0    0 -0.98112823373E+00  0.56369116310E+02 -0.21589229119E+02  0.60378263474E+02  0.10000000000E+01 0.  0.
    9000005    1    3    3    0    0  0.98112823373E+00 -0.56369116310E+02 -0.95455602597E+02  0.11086573841E+03  0.10000000000E+01 0.  0.
<mgrwt>
<rscale>  0 0.12500006E+03</rscale>
<asrwt>0</asrwt>
<pdfrwt beam="2">  1        4 0.36036102E-01 0.12500006E+03</pdfrwt>
<pdfrwt beam="1">  1       -4 0.67748967E-02 0.12500006E+03</pdfrwt>
<totfact> 0.17541058E+03</totfact>
</mgrwt>
</event>
<event>
 4    1  0.1430314E-002  0.1251063E+03  0.7818608E-02  0.1234903E+00
         -4   -1    0    0    0  501 -0.00000000000E+00  0.00000000000E+00  0.67514529600E+02  0.67526473380E+02  0.12700000000E+01 0. -1.
          4   -1    0    0  501    0  0.00000000000E+00 -0.00000000000E+00 -0.57932375402E+02  0.57946294271E+02  0.12700000000E+01 0. -1.
    9000005    1    1    2    0    0 -0.49940638765E+02  0.19695055620E+02  0.36977701413E+02  0.65194424746E+02  0.10000000000E+01 0.  0.
    9000005    1    1    2    0    0  0.49940638765E+02 -0.19695055620E+02 -0.27395547215E+02  0.60278342905E+02  0.10000000000E+01 0.  0.
<mgrwt>
<rscale>  0 0.12510635E+03</rscale>
<asrwt>0</asrwt>
<pdfrwt beam="2">  1        4 0.14486327E-01 0.12510635E+03</pdfrwt>
<pdfrwt beam="1">  1       -4 0.16881865E-01 0.12510635E+03</pdfrwt>
<totfact> 0.19760230E+03</totfact>
</mgrwt>
</event>
<event>
 5    1  0.1430314E-002  0.1249978E+03  0.7818608E-02  0.1235073E+00
          4   -1    0    0  501    0  0.00000000000E+00  0.00000000000E+00  0.34486409864E+02  0.34509786515E+02  0.12700000000E+01 0. -1.
         -4   -1    0    0    0  501 -0.00000000000E+00 -0.00000000000E+00 -0.11319989968E+03  0.11320702358E+03  0.12700000000E+01 0. -1.
         25    2    1    2    0    0  0.00000000000E+00  0.00000000000E+00 -0.78713489820E+02  0.14771681010E+03  0.12499777000E+03 0.  0.
    9000005    1    3    3    0    0 -0.17691983337E+02  0.28467285072E+02 -0.10168489088E+03  0.10707104943E+03  0.10000000000E+01 0.  0.
    9000005    1    3    3    0    0  0.17691983337E+02 -0.28467285072E+02  0.22971401055E+02  0.40645760667E+02  0.10000000000E+01 0.  0.
<mgrwt>
<rscale>  0 0.12499777E+03</rscale>
<asrwt>0</asrwt>
<pdfrwt beam="1">  1        4 0.86254153E-02 0.12499777E+03</pdfrwt>
<pdfrwt beam="2">  1       -4 0.28303787E-01 0.12499777E+03</pdfrwt>
<totfact> 0.18652586E+03</totfact>
</mgrwt>
</event>
<event>
 5    1  0.1430314E-002  0.1249993E+03  0.7818608E-02  0.1235070E+00
          4   -1    0    0  501    0  0.00000000000E+00  0.00000000000E+00  0.54387330696E+02  0.54402156577E+02  0.12700000000E+01 0. -1.
         -4   -1    0    0    0  501 -0.00000000000E+00 -0.00000000000E+00 -0.71791705082E+02  0.71802937396E+02  0.12700000000E+01 0. -1.
         25    2    1    2    0    0  0.00000000000E+00  0.00000000000E+00 -0.17404374386E+02  0.12620509397E+03  0.12499925399E+03 0.  0.
    9000005    1    3    3    0    0  0.16804643329E+02 -0.32488183970E+02  0.42455382978E+02  0.56047637585E+02  0.10000000000E+01 0.  0.
    9000005    1    3    3    0    0 -0.16804643329E+02  0.32488183970E+02 -0.59859757364E+02  0.70157456388E+02  0.10000000000E+01 0.  0.
<mgrwt>
<rscale>  0 0.12499925E+03</rscale>
<asrwt>0</asrwt>
<pdfrwt beam="1">  1        4 0.13600090E-01 0.12499925E+03</pdfrwt>
<pdfrwt beam="2">  1       -4 0.17951184E-01 0.12499925E+03</pdfrwt>
<totfact> 0.19770186E+03</totfact>
</mgrwt>
</event>
<event>
 5    1  0.1430314E-002  0.1249931E+03  0.7818608E-02  0.1235080E+00
         -4   -1    0    0    0  501 -0.00000000000E+00  0.00000000000E+00  0.92012971906E+01  0.92885289465E+01  0.12700000000E+01 0. -1.
          4   -1    0    0  501    0  0.00000000000E+00 -0.00000000000E+00 -0.42239511909E+03  0.42239702832E+03  0.12700000000E+01 0. -1.
         25    2    1    2    0    0  0.00000000000E+00  0.00000000000E+00 -0.41319382190E+03  0.43168555727E+03  0.12499314339E+03 0.  0.
    9000005    1    3    3    0    0 -0.45901021693E+02  0.39218350347E+02 -0.15092537197E+03  0.16255599251E+03  0.10000000000E+01 0.  0.
    9000005    1    3    3    0    0  0.45901021693E+02 -0.39218350347E+02 -0.26226844994E+03  0.26912956476E+03  0.10000000000E+01 0.  0.
<mgrwt>
<rscale>  0 0.12499314E+03</rscale>
<asrwt>0</asrwt>
<pdfrwt beam="2">  1        4 0.10560986E+00 0.12499314E+03</pdfrwt>
<pdfrwt beam="1">  1       -4 0.23114683E-02 0.12499314E+03</pdfrwt>
<totfact> 0.99415916E+02</totfact>
</mgrwt>
</event>
<event>
 5    1  0.1430314E-002  0.1249975E+03  0.7818608E-02  0.1235073E+00
          4   -1    0    0  501    0  0.00000000000E+00  0.00000000000E+00  0.22272648160E+02  0.22308826864E+02  0.12700000000E+01 0. -1.
         -4   -1    0    0    0  501 -0.00000000000E+00 -0.00000000000E+00 -0.17519542963E+03  0.17520003272E+03  0.12700000000E+01 0. -1.
         25    2    1    2    0    0  0.00000000000E+00  0.00000000000E+00 -0.15292278147E+03  0.19750885958E+03  0.12499749005E+03 0.  0.
    9000005    1    3    3    0    0 -0.45385505737E+02 -0.33619298974E+02 -0.11871227472E+03  0.13146750764E+03  0.10000000000E+01 0.  0.
    9000005    1    3    3    0    0  0.45385505737E+02  0.33619298974E+02 -0.34210506749E+02  0.66041351944E+02  0.10000000000E+01 0.  0.
<mgrwt>
<rscale>  0 0.12499749E+03</rscale>
<asrwt>0</asrwt>
<pdfrwt beam="1">  1        4 0.55732603E-02 0.12499749E+03</pdfrwt>
<pdfrwt beam="2">  1       -4 0.43803951E-01 0.12499749E+03</pdfrwt>
<totfact> 0.16423232E+03</totfact>
</mgrwt>
</event>
<event>
 5    1  0.1430314E-002  0.1250137E+03  0.7818608E-02  0.1235048E+00
         -4   -1    0    0    0  501 -0.00000000000E+00  0.00000000000E+00  0.59750249695E+02  0.59763745185E+02  0.12700000000E+01 0.  1.
          4   -1    0    0  501    0  0.00000000000E+00 -0.00000000000E+00 -0.65363563450E+02  0.65375900199E+02  0.12700000000E+01 0.  1.
         25    2    1    2    0    0  0.00000000000E+00  0.00000000000E+00 -0.56133137554E+01  0.12513964538E+03  0.12501368547E+03 0.  0.
    9000005    1    3    3    0    0  0.44266138294E+02  0.32010981344E+02 -0.33200244647E+02  0.63933169566E+02  0.10000000000E+01 0.  0.
    9000005    1    3    3    0    0 -0.44266138294E+02 -0.32010981344E+02  0.27586930892E+02  0.61206475819E+02  0.10000000000E+01 0.  0.
<mgrwt>
<rscale>  0 0.12501369E+03</rscale>
<asrwt>0</asrwt>
<pdfrwt beam="2">  1        4 0.16344120E-01 0.12501369E+03</pdfrwt>
<pdfrwt beam="1">  1       -4 0.14940791E-01 0.12501369E+03</pdfrwt>
<totfact> 0.19821136E+03</totfact>
</mgrwt>
</event>
<event>
 5    1  0.1430314E-002  0.1250005E+03  0.7818608E-02  0.1235069E+00
         -4   -1    0    0    0  501 -0.00000000000E+00  0.00000000000E+00  0.36450932851E+03  0.36451154093E+03  0.12700000000E+01 0.  1.
          4   -1    0    0  501    0  0.00000000000E+00 -0.00000000000E+00 -0.10676665350E+02  0.10751933919E+02  0.12700000000E+01 0.  1.
         25    2    1    2    0    0  0.00000000000E+00  0.00000000000E+00  0.35383266316E+03  0.37526347485E+03  0.12500048814E+03 0.  0.
    9000005    1    3    3    0    0  0.46611136202E+02  0.35844308549E+02  0.11338329389E+03  0.12772698934E+03  0.10000000000E+01 0.  0.
    9000005    1    3    3    0    0 -0.46611136202E+02 -0.35844308549E+02  0.24044936927E+03  0.24753648550E+03  0.10000000000E+01 0.  0.
<mgrwt>
<rscale>  0 0.12500049E+03</rscale>
<asrwt>0</asrwt>
<pdfrwt beam="2">  1        4 0.26788516E-02 0.12500049E+03</pdfrwt>
<pdfrwt beam="1">  1       -4 0.91137011E-01 0.12500049E+03</pdfrwt>
<totfact> 0.11097006E+03</totfact>
</mgrwt>
</event>
<event>
 5    1  0.1430314E-002  0.1250033E+03  0.7818608E-02  0.1235064E+00
          4   -1    0    0  501    0  0.00000000000E+00  0.00000000000E+00  0.36641744629E+02  0.36663747073E+02  0.12700000000E+01 0. -1.
         -4   -1    0    0    0  501 -0.00000000000E+00 -0.00000000000E+00 -0.10655447058E+03  0.10656203874E+03  0.12700000000E+01 0. -1.
         25    2    1    2    0    0  0.00000000000E+00  0.00000000000E+00 -0.69912725948E+02  0.14322578581E+03  0.12500334584E+03 0.  0.
    9000005    1    3    3    0    0 -0.48687531721E+02  0.37801384662E+02 -0.46754997652E+02  0.77372154118E+02  0.10000000000E+01 0.  0.
    9000005    1    3    3    0    0  0.48687531721E+02 -0.37801384662E+02 -0.23157728296E+02  0.65853631694E+02  0.10000000000E+01 0.  0.
<mgrwt>
<rscale>  0 0.12500335E+03</rscale>
<asrwt>0</asrwt>
<pdfrwt beam="1">  1        4 0.91641327E-02 0.12500335E+03</pdfrwt>
<pdfrwt beam="2">  1       -4 0.26642313E-01 0.12500335E+03</pdfrwt>
<totfact> 0.18875042E+03</totfact>
</mgrwt>
</event>
<event>
 5    1  0.1430314E-002  0.1250015E+03  0.7818608E-02  0.1235067E+00
         -4   -1    0    0    0  501 -0.00000000000E+00  0.00000000000E+00  0.67575631521E+02  0.67587564503E+02  0.12700000000E+01 0. -1.
          4   -1    0    0  501    0  0.00000000000E+00 -0.00000000000E+00 -0.57782965521E+02  0.57796920371E+02  0.12700000000E+01 0. -1.
         25    2    1    2    0    0  0.00000000000E+00  0.00000000000E+00  0.97926660000E+01  0.12538448487E+03  0.12500149095E+03 0.  0.
    9000005    1    3    3    0    0 -0.33695335795E+02  0.20592986462E+02  0.53479187128E+02  0.66486616711E+02  0.10000000000E+01 0.  0.
    9000005    1    3    3    0    0  0.33695335795E+02 -0.20592986462E+02 -0.43686521128E+02  0.58897868163E+02  0.10000000000E+01 0.  0.
<mgrwt>
<rscale>  0 0.12500149E+03</rscale>
<asrwt>0</asrwt>
<pdfrwt beam="2">  1        4 0.14448977E-01 0.12500149E+03</pdfrwt>
<pdfrwt beam="1">  1       -4 0.16897144E-01 0.12500149E+03</pdfrwt>
<totfact> 0.19813527E+03</totfact>
</mgrwt>
</event>
<event>
 5    1  0.1430314E-002  0.1250019E+03  0.7818608E-02  0.1235066E+00
         -4   -1    0    0    0  501 -0.00000000000E+00  0.00000000000E+00  0.89734932836E+02  0.89743919410E+02  0.12700000000E+01 0. -1.
          4   -1    0    0  501    0  0.00000000000E+00 -0.00000000000E+00 -0.43511854543E+02  0.43530384627E+02  0.12700000000E+01 0. -1.
         25    2    1    2    0    0  0.00000000000E+00  0.00000000000E+00  0.46223078293E+02  0.13327430404E+03  0.12500186858E+03 0.  0.
    9000005    1    3    3    0    0 -0.48725248153E+02  0.30595475918E+02 -0.28982743708E+01  0.57616255940E+02  0.10000000000E+01 0.  0.
    9000005    1    3    3    0    0  0.48725248153E+02 -0.30595475918E+02  0.49121352663E+02  0.75658048096E+02  0.10000000000E+01 0.  0.
<mgrwt>
<rscale>  0 0.12500187E+03</rscale>
<asrwt>0</asrwt>
<pdfrwt beam="2">  1        4 0.10881403E-01 0.12500187E+03</pdfrwt>
<pdfrwt beam="1">  1       -4 0.22437173E-01 0.12500187E+03</pdfrwt>
<totfact> 0.19389067E+03</totfact>
</mgrwt>
</event>
<event>
 5    1  0.1430314E-002  0.1249957E+03  0.7818608E-02  0.1235076E+00
         -4   -1    0    0    0  501 -0.00000000000E+00  0.00000000000E+00  0.12244715698E+03  0.12245374291E+03  0.12700000000E+01 0. -1.
          4   -1    0    0  501    0  0.00000000000E+00 -0.00000000000E+00 -0.31879242217E+02  0.31904529214E+02  0.12700000000E+01 0. -1.
         25    2    1    2    0    0  0.00000000000E+00  0.00000000000E+00  0.90567914767E+02  0.15435827213E+03  0.12499571588E+03 0.  0.
    9000005    1    3    3    0    0  0.28422972539E+02 -0.32640192194E+02  0.10094717187E+03  0.10983887756E+03  0.10000000000E+01 0.  0.
    9000005    1    3    3    0    0 -0.28422972539E+02  0.32640192194E+02 -0.10379257108E+02  0.44519394566E+02  0.10000000000E+01 0.  0.
<mgrwt>
<rscale>  0 0.12499572E+03</rscale>
<asrwt>0</asrwt>
<pdfrwt beam="2">  1        4 0.79737948E-02 0.12499572E+03</pdfrwt>
<pdfrwt beam="1">  1       -4 0.30615773E-01 0.12499572E+03</pdfrwt>
<totfact> 0.18328366E+03</totfact>
</mgrwt>
</event>
<event>
 5    1  0.1430314E-002  0.1249824E+03  0.7818608E-02  0.1235097E+00
          4   -1    0    0  501    0  0.00000000000E+00  0.00000000000E+00  0.51161808113E+02  0.51177568420E+02  0.12700000000E+01 0. -1.
         -4   -1    0    0    0  501 -0.00000000000E+00 -0.00000000000E+00 -0.76296548389E+02  0.76307117598E+02  0.12700000000E+01 0. -1.
         25    2    1    2    0    0  0.00000000000E+00  0.00000000000E+00 -0.25134740276E+02  0.12748468602E+03  0.12498235876E+03 0.  0.
    9000005    1    3    3    0    0  0.23447161940E+02  0.46708974222E+02  0.22362218686E+02  0.56855663750E+02  0.10000000000E+01 0.  0.
    9000005    1    3    3    0    0 -0.23447161940E+02 -0.46708974222E+02 -0.47496958962E+02  0.70629022268E+02  0.10000000000E+01 0.  0.
<mgrwt>
<rscale>  0 0.12498236E+03</rscale>
<asrwt>0</asrwt>
<pdfrwt beam="1">  1        4 0.12793743E-01 0.12498236E+03</pdfrwt>
<pdfrwt beam="2">  1       -4 0.19077428E-01 0.12498236E+03</pdfrwt>
<totfact> 0.19708734E+03</totfact>
</mgrwt>
</event>
<event>
 5    1  0.1430314E-002  0.1249994E+03  0.7818608E-02  0.1235070E+00
         -4   -1    0    0    0  501 -0.00000000000E+00  0.00000000000E+00  0.21223843468E+02  0.21261806875E+02  0.12700000000E+01 0. -1.
          4   -1    0    0  501    0  0.00000000000E+00 -0.00000000000E+00 -0.18384376105E+03  0.18384814760E+03  0.12700000000E+01 0. -1.
         25    2    1    2    0    0  0.00000000000E+00  0.00000000000E+00 -0.16261991758E+03  0.20510995447E+03  0.12499942332E+03 0.  0.
    9000005    1    3    3    0    0 -0.23145669835E+02 -0.58047323891E+02 -0.81292377949E+02  0.10254103840E+03  0.10000000000E+01 0.  0.
    9000005    1    3    3    0    0  0.23145669835E+02  0.58047323891E+02 -0.81327539629E+02  0.10256891608E+03  0.10000000000E+01 0.  0.
<mgrwt>
<rscale>  0 0.12499942E+03</rscale>
<asrwt>0</asrwt>
<pdfrwt beam="2">  1        4 0.45966229E-01 0.12499942E+03</pdfrwt>
<pdfrwt beam="1">  1       -4 0.53112552E-02 0.12499942E+03</pdfrwt>
<totfact> 0.16119671E+03</totfact>
</mgrwt>
</event>
<event>
 5    1  0.1430314E-002  0.1250013E+03  0.7818608E-02  0.1235067E+00
          4   -1    0    0  501    0  0.00000000000E+00  0.00000000000E+00  0.23838303018E+03  0.23838641316E+03  0.12700000000E+01 0.  1.
         -4   -1    0    0    0  501 -0.00000000000E+00 -0.00000000000E+00 -0.16358662634E+02  0.16407886615E+02  0.12700000000E+01 0.  1.
         25    2    1    2    0    0  0.00000000000E+00  0.00000000000E+00  0.22202436755E+03  0.25479429978E+03  0.12500126164E+03 0.  0.
    9000005    1    3    3    0    0 -0.32013069501E+02 -0.32284735328E+02  0.19840390366E+03  0.20354913348E+03  0.10000000000E+01 0.  0.
    9000005    1    3    3    0    0  0.32013069501E+02  0.32284735328E+02  0.23620463890E+02  0.51245166293E+02  0.10000000000E+01 0.  0.
<mgrwt>
<rscale>  0 0.12500126E+03</rscale>
<asrwt>0</asrwt>
<pdfrwt beam="1">  1        4 0.59602333E-01 0.12500126E+03</pdfrwt>
<pdfrwt beam="2">  1       -4 0.40962415E-02 0.12500126E+03</pdfrwt>
<totfact> 0.14339435E+03</totfact>
</mgrwt>
</event>
<event>
 5    1  0.1430314E-002  0.1250023E+03  0.7818608E-02  0.1235066E+00
         -4   -1    0    0    0  501 -0.00000000000E+00  0.00000000000E+00  0.19423228295E+02  0.19464703887E+02  0.12700000000E+01 0. -1.
          4   -1    0    0  501    0  0.00000000000E+00 -0.00000000000E+00 -0.20086166630E+03  0.20086568121E+03  0.12700000000E+01 0. -1.
         25    2    1    2    0    0  0.00000000000E+00  0.00000000000E+00 -0.18143843800E+03  0.22033038510E+03  0.12500228723E+03 0.  0.
    9000005    1    3    3    0    0 -0.37399222611E+02 -0.38190985525E+02 -0.33654717895E+02  0.63173517109E+02  0.10000000000E+01 0.  0.
    9000005    1    3    3    0    0  0.37399222611E+02  0.38190985525E+02 -0.14778372011E+03  0.15715686799E+03  0.10000000000E+01 0.  0.
<mgrwt>
<rscale>  0 0.12500229E+03</rscale>
<asrwt>0</asrwt>
<pdfrwt beam="2">  1        4 0.50221097E-01 0.12500229E+03</pdfrwt>
<pdfrwt beam="1">  1       -4 0.48614940E-02 0.12500229E+03</pdfrwt>
<totfact> 0.15538276E+03</totfact>
</mgrwt>
</event>
<event>
 5    1  0.1430314E-002  0.1249982E+03  0.7818608E-02  0.1235072E+00
          4   -1    0    0  501    0  0.00000000000E+00  0.00000000000E+00  0.83083799225E+02  0.83093505123E+02  0.12700000000E+01 0.  1.
         -4   -1    0    0    0  501 -0.00000000000E+00 -0.00000000000E+00 -0.46993418268E+02  0.47010576050E+02  0.12700000000E+01 0.  1.
         25    2    1    2    0    0  0.00000000000E+00  0.00000000000E+00  0.36090380956E+02  0.13010408117E+03  0.12499822535E+03 0.  0.
    9000005    1    3    3    0    0  0.29151241033E+02 -0.46067653102E+02 -0.13749513845E+02  0.56232309637E+02  0.10000000000E+01 0.  0.
    9000005    1    3    3    0    0 -0.29151241033E+02  0.46067653102E+02  0.49839894801E+02  0.73871771536E+02  0.10000000000E+01 0.  0.
<mgrwt>
<rscale>  0 0.12499823E+03</rscale>
<asrwt>0</asrwt>
<pdfrwt beam="1">  1        4 0.20774308E-01 0.12499823E+03</pdfrwt>
<pdfrwt beam="2">  1       -4 0.11751713E-01 0.12499823E+03</pdfrwt>
<totfact> 0.19559599E+03</totfact>
</mgrwt>
</event>
<event>
 5    1  0.1430314E-002  0.1249993E+03  0.7818608E-02  0.1235070E+00
         -4   -1    0    0    0  501 -0.00000000000E+00  0.00000000000E+00  0.18793133510E+03  0.18793562625E+03  0.12700000000E+01 0. -1.
          4   -1    0    0  501    0  0.00000000000E+00 -0.00000000000E+00 -0.20761352420E+02  0.20800159958E+02  0.12700000000E+01 0. -1.
         25    2    1    2    0    0  0.00000000000E+00  0.00000000000E+00  0.16716998268E+03  0.20873578621E+03  0.12499930133E+03 0.  0.
    9000005    1    3    3    0    0  0.59495587176E+02 -0.18881826105E+02  0.88582998365E+02  0.10837064109E+03  0.10000000000E+01 0.  0.
    9000005    1    3    3    0    0 -0.59495587176E+02  0.18881826105E+02  0.78586984320E+02  0.10036514512E+03  0.10000000000E+01 0.  0.
<mgrwt>
<rscale>  0 0.12499930E+03</rscale>
<asrwt>0</asrwt>
<pdfrwt beam="2">  1        4 0.51957256E-02 0.12499930E+03</pdfrwt>
<pdfrwt beam="1">  1       -4 0.46988220E-01 0.12499930E+03</pdfrwt>
<totfact> 0.15978380E+03</totfact>
</mgrwt>
</event>
<event>
 5    1  0.1430314E-002  0.1249916E+03  0.7818608E-02  0.1235082E+00
          4   -1    0    0  501    0  0.00000000000E+00  0.00000000000E+00  0.17038424290E+02  0.17085689986E+02  0.12700000000E+01 0. -1.
         -4   -1    0    0    0  501 -0.00000000000E+00 -0.00000000000E+00 -0.22886373917E+03  0.22886726286E+03  0.12700000000E+01 0. -1.
         25    2    1    2    0    0  0.00000000000E+00  0.00000000000E+00 -0.21182531488E+03  0.24595295284E+03  0.12499156367E+03 0.  0.
    9000005    1    3    3    0    0  0.31398201246E+02  0.49866296385E+02 -0.14682250715E+03  0.15820980741E+03  0.10000000000E+01 0.  0.
    9000005    1    3    3    0    0 -0.31398201246E+02 -0.49866296385E+02 -0.65002807735E+02  0.87743145430E+02  0.10000000000E+01 0.  0.
<mgrwt>
<rscale>  0 0.12499156E+03</rscale>
<asrwt>0</asrwt>
<pdfrwt beam="1">  1        4 0.42659555E-02 0.12499156E+03</pdfrwt>
<pdfrwt beam="2">  1       -4 0.57222274E-01 0.12499156E+03</pdfrwt>
<totfact> 0.14636389E+03</totfact>
</mgrwt>
</event>
<event>
 5    1  0.1430314E-002  0.1249999E+03  0.7818608E-02  0.1235069E+00
          4   -1    0    0  501    0  0.00000000000E+00  0.00000000000E+00  0.24237158082E+03  0.24237490812E+03  0.12700000000E+01 0. -1.
         -4   -1    0    0    0  501 -0.00000000000E+00 -0.00000000000E+00 -0.16088287923E+02  0.16138336603E+02  0.12700000000E+01 0. -1.
         25    2    1    2    0    0  0.00000000000E+00  0.00000000000E+00  0.22628329289E+03  0.25851324473E+03  0.12499987622E+03 0.  0.
    9000005    1    3    3    0    0 -0.52552963449E+01  0.34349890498E+02  0.57252007212E+01  0.35232244325E+02  0.10000000000E+01 0.  0.
    9000005    1    3    3    0    0  0.52552963449E+01 -0.34349890498E+02  0.22055809217E+03  0.22328100040E+03  0.10000000000E+01 0.  0.
<mgrwt>
<rscale>  0 0.12499988E+03</rscale>
<asrwt>0</asrwt>
<pdfrwt beam="1">  1        4 0.60599566E-01 0.12499988E+03</pdfrwt>
<pdfrwt beam="2">  1       -4 0.40287440E-02 0.12499988E+03</pdfrwt>
<totfact> 0.14219058E+03</totfact>
</mgrwt>
</event>
<event>
 5    1  0.1430314E-002  0.1250038E+03  0.7818608E-02  0.1235063E+00
          4   -1    0    0  501    0  0.00000000000E+00  0.00000000000E+00  0.98460054409E+02  0.98468244699E+02  0.12700000000E+01 0.  1.
         -4   -1    0    0    0  501 -0.00000000000E+00 -0.00000000000E+00 -0.39655869373E+02  0.39676200369E+02  0.12700000000E+01 0.  1.
         25    2    1    2    0    0  0.00000000000E+00  0.00000000000E+00  0.58804185036E+02  0.13814444507E+03  0.12500382204E+03 0.  0.
    9000005    1    3    3    0    0  0.26774753691E+02 -0.32574372518E+02 -0.21571602116E+02  0.47374161713E+02  0.10000000000E+01 0.  0.
    9000005    1    3    3    0    0 -0.26774753691E+02  0.32574372518E+02  0.80375787152E+02  0.90770283356E+02  0.10000000000E+01 0.  0.
<mgrwt>
<rscale>  0 0.12500382E+03</rscale>
<asrwt>0</asrwt>
<pdfrwt beam="1">  1        4 0.24618579E-01 0.12500382E+03</pdfrwt>
<pdfrwt beam="2">  1       -4 0.99175326E-02 0.12500382E+03</pdfrwt>
<totfact> 0.19133969E+03</totfact>
</mgrwt>
</event>
<event>
 5    1  0.1430314E-002  0.1249981E+03  0.7818608E-02  0.1235072E+00
         -4   -1    0    0    0  501 -0.00000000000E+00  0.00000000000E+00  0.53287969942E+03  0.53288121280E+03  0.12700000000E+01 0.  1.
          4   -1    0    0  501    0  0.00000000000E+00 -0.00000000000E+00 -0.72736909151E+01  0.73837307324E+01  0.12700000000E+01 0.  1.
         25    2    1    2    0    0  0.00000000000E+00  0.00000000000E+00  0.52560600851E+03  0.54026494354E+03  0.12499813212E+03 0.  0.
    9000005    1    3    3    0    0  0.42285855580E+01  0.21927884465E+01  0.53211510343E+03  0.53213736249E+03  0.10000000000E+01 0.  0.
    9000005    1    3    3    0    0 -0.42285855580E+01 -0.21927884465E+01 -0.65090949211E+01  0.81275810475E+01  0.10000000000E+01 0.  0.
<mgrwt>
<rscale>  0 0.12499813E+03</rscale>
<asrwt>0</asrwt>
<pdfrwt beam="2">  1        4 0.18323671E-02 0.12499813E+03</pdfrwt>
<pdfrwt beam="1">  1       -4 0.13323385E+00 0.12499813E+03</pdfrwt>
<totfact> 0.81543125E+02</totfact>
</mgrwt>
</event>
<event>
 5    1  0.1430314E-002  0.1249975E+03  0.7818608E-02  0.1235073E+00
         -4   -1    0    0    0  501 -0.00000000000E+00  0.00000000000E+00  0.63032388921E+03  0.63032516863E+03  0.12700000000E+01 0.  1.
          4   -1    0    0  501    0  0.00000000000E+00 -0.00000000000E+00 -0.61305940541E+01  0.62607574187E+01  0.12700000000E+01 0.  1.
         25    2    1    2    0    0  0.00000000000E+00  0.00000000000E+00  0.62419329515E+03  0.63658592605E+03  0.12499748608E+03 0.  0.
    9000005    1    3    3    0    0 -0.53088512753E+02  0.32463123368E+02  0.34128518348E+03  0.34691327595E+03  0.10000000000E+01 0.  0.
    9000005    1    3    3    0    0  0.53088512753E+02 -0.32463123368E+02  0.28290811167E+03  0.28967265010E+03  0.10000000000E+01 0.  0.
<mgrwt>
<rscale>  0 0.12499749E+03</rscale>
<asrwt>0</asrwt>
<pdfrwt beam="2">  1        4 0.15490788E-02 0.12499749E+03</pdfrwt>
<pdfrwt beam="1">  1       -4 0.15759741E+00 0.12499749E+03</pdfrwt>
<totfact> 0.69070922E+02</totfact>
</mgrwt>
</event>
<event>
 5    1  0.1430314E-002  0.1249818E+03  0.7818608E-02  0.1235098E+00
          4   -1    0    0  501    0  0.00000000000E+00  0.00000000000E+00  0.27026188589E+02  0.27056011710E+02  0.12700000000E+01 0.  1.
         -4   -1    0    0    0  501 -0.00000000000E+00 -0.00000000000E+00 -0.14438142227E+03  0.14438700772E+03  0.12700000000E+01 0.  1.
         25    2    1    2    0    0  0.00000000000E+00  0.00000000000E+00 -0.11735523368E+03  0.17144301943E+03  0.12498183083E+03 0.  0.
    9000005    1    3    3    0    0  0.18323831579E+02  0.29066415227E+01  0.23167357221E+02  0.29697437756E+02  0.10000000000E+01 0.  0.
    9000005    1    3    3    0    0 -0.18323831579E+02 -0.29066415227E+01 -0.14052259091E+03  0.14174558167E+03  0.10000000000E+01 0.  0.
<mgrwt>
<rscale>  0 0.12498183E+03</rscale>
<asrwt>0</asrwt>
<pdfrwt beam="1">  1        4 0.67609736E-02 0.12498183E+03</pdfrwt>
<pdfrwt beam="2">  1       -4 0.36099780E-01 0.12498183E+03</pdfrwt>
<totfact> 0.17539552E+03</totfact>
</mgrwt>
</event>
<event>
 5    1  0.1430314E-002  0.1249989E+03  0.7818608E-02  0.1235071E+00
          4   -1    0    0  501    0  0.00000000000E+00  0.00000000000E+00  0.89499897184E+02  0.89508907355E+02  0.12700000000E+01 0.  1.
         -4   -1    0    0    0  501 -0.00000000000E+00 -0.00000000000E+00 -0.43624067500E+02  0.43642549940E+02  0.12700000000E+01 0.  1.
         25    2    1    2    0    0  0.00000000000E+00  0.00000000000E+00  0.45875829684E+02  0.13315145730E+03  0.12499887532E+03 0.  0.
    9000005    1    3    3    0    0 -0.21200819251E+02  0.54203082209E+02  0.47175639105E+02  0.74926562599E+02  0.10000000000E+01 0.  0.
    9000005    1    3    3    0    0  0.21200819251E+02 -0.54203082209E+02 -0.12998094209E+01  0.58224894696E+02  0.10000000000E+01 0.  0.
<mgrwt>
<rscale>  0 0.12499888E+03</rscale>
<asrwt>0</asrwt>
<pdfrwt beam="1">  1        4 0.22378411E-01 0.12499888E+03</pdfrwt>
<pdfrwt beam="2">  1       -4 0.10909454E-01 0.12499888E+03</pdfrwt>
<totfact> 0.19396914E+03</totfact>
</mgrwt>
</event>
<event>
 5    1  0.1430314E-002  0.1250008E+03  0.7818608E-02  0.1235068E+00
         -4   -1    0    0    0  501 -0.00000000000E+00  0.00000000000E+00  0.15805089959E+03  0.15805600197E+03  0.12700000000E+01 0. -1.
          4   -1    0    0  501    0  0.00000000000E+00 -0.00000000000E+00 -0.24693641062E+02  0.24726277700E+02  0.12700000000E+01 0. -1.
         25    2    1    2    0    0  0.00000000000E+00  0.00000000000E+00  0.13335725852E+03  0.18278227968E+03  0.12500081345E+03 0.  0.
    9000005    1    3    3    0    0  0.56339529215E+02  0.16270134755E+02  0.98259173557E+02  0.11443218527E+03  0.10000000000E+01 0.  0.
    9000005    1    3    3    0    0 -0.56339529215E+02 -0.16270134755E+02  0.35098084967E+02  0.68350094407E+02  0.10000000000E+01 0.  0.
<mgrwt>
<rscale>  0 0.12500081E+03</rscale>
<asrwt>0</asrwt>
<pdfrwt beam="2">  1        4 0.61781277E-02 0.12500081E+03</pdfrwt>
<pdfrwt beam="1">  1       -4 0.39517442E-01 0.12500081E+03</pdfrwt>
<totfact> 0.17035132E+03</totfact>
</mgrwt>
</event>
<event>
 5    1  0.1430314E-002  0.1249930E+03  0.7818608E-02  0.1235080E+00
         -4   -1    0    0    0  501 -0.00000000000E+00  0.00000000000E+00  0.37350650397E+02  0.37372235485E+02  0.12700000000E+01 0. -1.
          4   -1    0    0  501    0  0.00000000000E+00 -0.00000000000E+00 -0.10451579564E+03  0.10452351141E+03  0.12700000000E+01 0. -1.
         25    2    1    2    0    0  0.00000000000E+00  0.00000000000E+00 -0.67165145240E+02  0.14189574690E+03  0.12499298481E+03 0.  0.
    9000005    1    3    3    0    0 -0.22725576688E+02  0.14183171598E+02 -0.97672269644E+02  0.10128418657E+03  0.10000000000E+01 0.  0.
    9000005    1    3    3    0    0  0.22725576688E+02 -0.14183171598E+02  0.30507124404E+02  0.40611560322E+02  0.10000000000E+01 0.  0.
<mgrwt>
<rscale>  0 0.12499298E+03</rscale>
<asrwt>0</asrwt>
<pdfrwt beam="2">  1        4 0.26132611E-01 0.12499298E+03</pdfrwt>
<pdfrwt beam="1">  1       -4 0.93413254E-02 0.12499298E+03</pdfrwt>
<totfact> 0.18946874E+03</totfact>
</mgrwt>
</event>
<event>
 5    1  0.1430314E-002  0.1250002E+03  0.7818608E-02  0.1235069E+00
         -4   -1    0    0    0  501 -0.00000000000E+00  0.00000000000E+00  0.18275984596E+03  0.18276425853E+03  0.12700000000E+01 0. -1.
          4   -1    0    0  501    0  0.00000000000E+00 -0.00000000000E+00 -0.21350208484E+02  0.21387947594E+02  0.12700000000E+01 0. -1.
         25    2    1    2    0    0  0.00000000000E+00  0.00000000000E+00  0.16140963748E+03  0.20415220612E+03  0.12500020878E+03 0.  0.
    9000005    1    3    3    0    0  0.50577293046E+02  0.14325319736E+02  0.25513131588E+02  0.58439688918E+02  0.10000000000E+01 0.  0.
    9000005    1    3    3    0    0 -0.50577293046E+02 -0.14325319736E+02  0.13589650589E+03  0.14571251721E+03  0.10000000000E+01 0.  0.
<mgrwt>
<rscale>  0 0.12500021E+03</rscale>
<asrwt>0</asrwt>
<pdfrwt beam="2">  1        4 0.53428210E-02 0.12500021E+03</pdfrwt>
<pdfrwt beam="1">  1       -4 0.45695231E-01 0.12500021E+03</pdfrwt>
<totfact> 0.16157042E+03</totfact>
</mgrwt>
</event>
<event>
 5    1  0.1430314E-002  0.1250027E+03  0.7818608E-02  0.1235065E+00
          4   -1    0    0  501    0  0.00000000000E+00  0.00000000000E+00  0.20587059379E+02  0.20626194847E+02  0.12700000000E+01 0.  1.
         -4   -1    0    0    0  501 -0.00000000000E+00 -0.00000000000E+00 -0.18952974321E+03  0.18953399817E+03  0.12700000000E+01 0.  1.
         25    2    1    2    0    0  0.00000000000E+00  0.00000000000E+00 -0.16894268383E+03  0.21016019302E+03  0.12500270520E+03 0.  0.
    9000005    1    3    3    0    0  0.49777244483E+02  0.20995178722E+01 -0.21044999942E+02  0.54093197966E+02  0.10000000000E+01 0.  0.
    9000005    1    3    3    0    0 -0.49777244483E+02 -0.20995178722E+01 -0.14789768389E+03  0.15606699505E+03  0.10000000000E+01 0.  0.
<mgrwt>
<rscale>  0 0.12500271E+03</rscale>
<asrwt>0</asrwt>
<pdfrwt beam="1">  1        4 0.51521892E-02 0.12500271E+03</pdfrwt>
<pdfrwt beam="2">  1       -4 0.47387854E-01 0.12500271E+03</pdfrwt>
<totfact> 0.15922143E+03</totfact>
</mgrwt>
</event>
<event>
 5    1  0.1430314E-002  0.1249929E+03  0.7818608E-02  0.1235080E+00
          4   -1    0    0  501    0  0.00000000000E+00  0.00000000000E+00  0.17348552589E+02  0.17394975623E+02  0.12700000000E+01 0. -1.
         -4   -1    0    0    0  501 -0.00000000000E+00 -0.00000000000E+00 -0.22478815962E+03  0.22479174720E+03  0.12700000000E+01 0. -1.
         25    2    1    2    0    0  0.00000000000E+00  0.00000000000E+00 -0.20743960704E+03  0.24218672282E+03  0.12499287237E+03 0.  0.
    9000005    1    3    3    0    0  0.43733651274E+02 -0.39695947384E+02 -0.14325851855E+03  0.15495936122E+03  0.10000000000E+01 0.  0.
    9000005    1    3    3    0    0 -0.43733651274E+02  0.39695947384E+02 -0.64181088489E+02  0.87227361602E+02  0.10000000000E+01 0.  0.
<mgrwt>
<rscale>  0 0.12499287E+03</rscale>
<asrwt>0</asrwt>
<pdfrwt beam="1">  1        4 0.43433902E-02 0.12499287E+03</pdfrwt>
<pdfrwt beam="2">  1       -4 0.56203282E-01 0.12499287E+03</pdfrwt>
<totfact> 0.14763836E+03</totfact>
</mgrwt>
</event>
<event>
 5    1  0.1430314E-002  0.1249988E+03  0.7818608E-02  0.1235071E+00
          4   -1    0    0  501    0  0.00000000000E+00  0.00000000000E+00  0.88617032900E+03  0.88617123904E+03  0.12700000000E+01 0. -1.
         -4   -1    0    0    0  501 -0.00000000000E+00 -0.00000000000E+00 -0.43155180659E+01  0.44985104398E+01  0.12700000000E+01 0. -1.
         25    2    1    2    0    0  0.00000000000E+00  0.00000000000E+00  0.88185481094E+03  0.89066974948E+03  0.12499878027E+03 0.  0.
    9000005    1    3    3    0    0 -0.42042424470E+02  0.23090562895E+02  0.15551563158E+03  0.16274781478E+03  0.10000000000E+01 0.  0.
    9000005    1    3    3    0    0  0.42042424470E+02 -0.23090562895E+02  0.72633917936E+03  0.72792193470E+03  0.10000000000E+01 0.  0.
<mgrwt>
<rscale>  0 0.12499878E+03</rscale>
<asrwt>0</asrwt>
<pdfrwt beam="1">  1        4 0.22156555E+00 0.12499878E+03</pdfrwt>
<pdfrwt beam="2">  1       -4 0.11018674E-02 0.12499878E+03</pdfrwt>
<totfact> 0.44992726E+02</totfact>
</mgrwt>
</event>
<event>
 5    1  0.1430314E-002  0.1249817E+03  0.7818608E-02  0.1235098E+00
         -4   -1    0    0    0  501 -0.00000000000E+00  0.00000000000E+00  0.93088121957E+01  0.93950457420E+01  0.12700000000E+01 0.  1.
          4   -1    0    0  501    0  0.00000000000E+00 -0.00000000000E+00 -0.41748528822E+03  0.41748721990E+03  0.12700000000E+01 0.  1.
         25    2    1    2    0    0  0.00000000000E+00  0.00000000000E+00 -0.40817647603E+03  0.42688226565E+03  0.12498173123E+03 0.  0.
    9000005    1    3    3    0    0  0.23832807125E+02  0.57439247710E+02 -0.22481884548E+03  0.23326333436E+03  0.10000000000E+01 0.  0.
    9000005    1    3    3    0    0 -0.23832807125E+02 -0.57439247710E+02 -0.18335763055E+03  0.19361893129E+03  0.10000000000E+01 0.  0.
<mgrwt>
<rscale>  0 0.12498173E+03</rscale>
<asrwt>0</asrwt>
<pdfrwt beam="2">  1        4 0.10438228E+00 0.12498173E+03</pdfrwt>
<pdfrwt beam="1">  1       -4 0.23382251E-02 0.12498173E+03</pdfrwt>
<totfact> 0.10036168E+03</totfact>
</mgrwt>
</event>
<event>
 5    1  0.1430314E-002  0.1249987E+03  0.7818608E-02  0.1235071E+00
         -4   -1    0    0    0  501 -0.00000000000E+00  0.00000000000E+00  0.20817347110E+03  0.20817734500E+03  0.12700000000E+01 0. -1.
          4   -1    0    0  501    0  0.00000000000E+00 -0.00000000000E+00 -0.18738452613E+02  0.18781440475E+02  0.12700000000E+01 0. -1.
         25    2    1    2    0    0  0.00000000000E+00  0.00000000000E+00  0.18943501849E+03  0.22695878547E+03  0.12499865629E+03 0.  0.
    9000005    1    3    3    0    0  0.57139588800E+01  0.61219024507E+02  0.74437974762E+02  0.96552733645E+02  0.10000000000E+01 0.  0.
    9000005    1    3    3    0    0 -0.57139588800E+01 -0.61219024507E+02  0.11499704373E+03  0.13040605183E+03  0.10000000000E+01 0.  0.
<mgrwt>
<rscale>  0 0.12499866E+03</rscale>
<asrwt>0</asrwt>
<pdfrwt beam="2">  1        4 0.46904710E-02 0.12499866E+03</pdfrwt>
<pdfrwt beam="1">  1       -4 0.52049224E-01 0.12499866E+03</pdfrwt>
<totfact> 0.15297067E+03</totfact>
</mgrwt>
</event>
<event>
 4    1  0.1430314E-002  0.1250920E+03  0.7818608E-02  0.1234926E+00
         -4   -1    0    0    0  501 -0.00000000000E+00  0.00000000000E+00  0.69209491794E+02  0.69221143117E+02  0.12700000000E+01 0. -1.
          4   -1    0    0  501    0  0.00000000000E+00 -0.00000000000E+00 -0.56500559419E+02  0.56514830926E+02  0.12700000000E+01 0. -1.
    9000005    1    1    2    0    0  0.40760569909E+02 -0.40124510073E+02 -0.19066118015E+02  0.60298567346E+02  0.10000000000E+01 0.  0.
    9000005    1    1    2    0    0 -0.40760569909E+02  0.40124510073E+02  0.31775050390E+02  0.65437406697E+02  0.10000000000E+01 0.  0.
<mgrwt>
<rscale>  0 0.12509204E+03</rscale>
<asrwt>0</asrwt>
<pdfrwt beam="2">  1        4 0.14128380E-01 0.12509204E+03</pdfrwt>
<pdfrwt beam="1">  1       -4 0.17305613E-01 0.12509204E+03</pdfrwt>
<totfact> 0.19752632E+03</totfact>
</mgrwt>
</event>
<event>
 5    1  0.1430314E-002  0.1249992E+03  0.7818608E-02  0.1235070E+00
         -4   -1    0    0    0  501 -0.00000000000E+00  0.00000000000E+00  0.59487665093E+02  0.59501220141E+02  0.12700000000E+01 0. -1.
          4   -1    0    0  501    0  0.00000000000E+00 -0.00000000000E+00 -0.65636893666E+02  0.65649179051E+02  0.12700000000E+01 0. -1.
         25    2    1    2    0    0  0.00000000000E+00  0.00000000000E+00 -0.61492285723E+01  0.12515039919E+03  0.12499923762E+03 0.  0.
    9000005    1    3    3    0    0  0.95191360499E+01 -0.35702984376E+02 -0.53532834505E+02  0.65054449614E+02  0.10000000000E+01 0.  0.
    9000005    1    3    3    0    0 -0.95191360499E+01  0.35702984376E+02  0.47383605933E+02  0.60095949578E+02  0.10000000000E+01 0.  0.
<mgrwt>
<rscale>  0 0.12499924E+03</rscale>
<asrwt>0</asrwt>
<pdfrwt beam="2">  1        4 0.16412453E-01 0.12499924E+03</pdfrwt>
<pdfrwt beam="1">  1       -4 0.14875146E-01 0.12499924E+03</pdfrwt>
<totfact> 0.19827255E+03</totfact>
</mgrwt>
</event>
<event>
 5    1  0.1430314E-002  0.1249993E+03  0.7818608E-02  0.1235070E+00
          4   -1    0    0  501    0  0.00000000000E+00  0.00000000000E+00  0.13706228619E+02  0.13764941081E+02  0.12700000000E+01 0.  1.
         -4   -1    0    0    0  501 -0.00000000000E+00 -0.00000000000E+00 -0.28432556713E+03  0.28432840348E+03  0.12700000000E+01 0.  1.
         25    2    1    2    0    0  0.00000000000E+00  0.00000000000E+00 -0.27061933851E+03  0.29809334456E+03  0.12499926277E+03 0.  0.
    9000005    1    3    3    0    0  0.33466069150E+02 -0.29194537249E+02 -0.24015524236E+03  0.24422907120E+03  0.10000000000E+01 0.  0.
    9000005    1    3    3    0    0 -0.33466069150E+02  0.29194537249E+02 -0.30464096157E+02  0.53864273357E+02  0.10000000000E+01 0.  0.
<mgrwt>
<rscale>  0 0.12499926E+03</rscale>
<asrwt>0</asrwt>
<pdfrwt beam="1">  1        4 0.34342517E-02 0.12499926E+03</pdfrwt>
<pdfrwt beam="2">  1       -4 0.71089066E-01 0.12499926E+03</pdfrwt>
<totfact> 0.13024884E+03</totfact>
</mgrwt>
</event>
<event>
 5    1  0.1430314E-002  0.1249921E+03  0.7818608E-02  0.1235082E+00
         -4   -1    0    0    0  501 -0.00000000000E+00  0.00000000000E+00  0.22251535976E+02  0.22287748951E+02  0.12700000000E+01 0. -1.
          4   -1    0    0  501    0  0.00000000000E+00 -0.00000000000E+00 -0.17534619130E+03  0.17535079043E+03  0.12700000000E+01 0. -1.
         25    2    1    2    0    0  0.00000000000E+00  0.00000000000E+00 -0.15309465532E+03  0.19763853938E+03  0.12499207478E+03 0.  0.
    9000005    1    3    3    0    0  0.18525987886E+02  0.17490142673E+02 -0.16676823099E+03  0.16870613558E+03  0.10000000000E+01 0.  0.
    9000005    1    3    3    0    0 -0.18525987886E+02 -0.17490142673E+02  0.13673575662E+02  0.28932403793E+02  0.10000000000E+01 0.  0.
<mgrwt>
<rscale>  0 0.12499207E+03</rscale>
<asrwt>0</asrwt>
<pdfrwt beam="2">  1        4 0.43841645E-01 0.12499207E+03</pdfrwt>
<pdfrwt beam="1">  1       -4 0.55679860E-02 0.12499207E+03</pdfrwt>
<totfact> 0.16420046E+03</totfact>
</mgrwt>
</event>
<event>
 5    1  0.1430314E-002  0.1250157E+03  0.7818608E-02  0.1235045E+00
          4   -1    0    0  501    0  0.00000000000E+00  0.00000000000E+00  0.88659540202E+02  0.88668635767E+02  0.12700000000E+01 0.  1.
         -4   -1    0    0    0  501 -0.00000000000E+00 -0.00000000000E+00 -0.44049523695E+02  0.44067827695E+02  0.12700000000E+01 0.  1.
         25    2    1    2    0    0  0.00000000000E+00  0.00000000000E+00  0.44610016507E+02  0.13273646346E+03  0.12501565966E+03 0.  0.
    9000005    1    3    3    0    0 -0.20568692099E+02  0.58998531930E+02  0.20683982157E+02  0.65823437942E+02  0.10000000000E+01 0.  0.
    9000005    1    3    3    0    0  0.20568692099E+02 -0.58998531930E+02  0.23926034350E+02  0.66913025520E+02  0.10000000000E+01 0.  0.
<mgrwt>
<rscale>  0 0.12501566E+03</rscale>
<asrwt>0</asrwt>
<pdfrwt beam="1">  1        4 0.22168310E-01 0.12501566E+03</pdfrwt>
<pdfrwt beam="2">  1       -4 0.11015806E-01 0.12501566E+03</pdfrwt>
<totfact> 0.19411271E+03</totfact>
</mgrwt>
</event>
<event>
 5    1  0.1430314E-002  0.1249978E+03  0.7818608E-02  0.1235073E+00
          4   -1    0    0  501    0  0.00000000000E+00  0.00000000000E+00  0.76115481393E+02  0.76126075741E+02  0.12700000000E+01 0.  1.
         -4   -1    0    0    0  501 -0.00000000000E+00 -0.00000000000E+00 -0.51296223322E+02  0.51311942344E+02  0.12700000000E+01 0.  1.
         25    2    1    2    0    0  0.00000000000E+00  0.00000000000E+00  0.24819258071E+02  0.12743801809E+03  0.12499781151E+03 0.  0.
    9000005    1    3    3    0    0 -0.21882575121E+02  0.57945356089E+02  0.20853944777E+02  0.65363586185E+02  0.10000000000E+01 0.  0.
    9000005    1    3    3    0    0  0.21882575121E+02 -0.57945356089E+02  0.39653132941E+01  0.62074431900E+02  0.10000000000E+01 0.  0.
<mgrwt>
<rscale>  0 0.12499781E+03</rscale>
<asrwt>0</asrwt>
<pdfrwt beam="1">  1        4 0.19032159E-01 0.12499781E+03</pdfrwt>
<pdfrwt beam="2">  1       -4 0.12827345E-01 0.12499781E+03</pdfrwt>
<totfact> 0.19704175E+03</totfact>
</mgrwt>
</event>
<event>
 5    1  0.1430314E-002  0.1250374E+03  0.7818608E-02  0.1235011E+00
          4   -1    0    0  501    0  0.00000000000E+00  0.00000000000E+00  0.27972715986E+02  0.28001531023E+02  0.12700000000E+01 0.  1.
         -4   -1    0    0    0  501 -0.00000000000E+00 -0.00000000000E+00 -0.13962490136E+03  0.13963067707E+03  0.12700000000E+01 0.  1.
         25    2    1    2    0    0  0.00000000000E+00  0.00000000000E+00 -0.11165218537E+03  0.16763220809E+03  0.12503738118E+03 0.  0.
    9000005    1    3    3    0    0 -0.27783158201E+02  0.35740280510E+02  0.19671788409E+01  0.45322635881E+02  0.10000000000E+01 0.  0.
    9000005    1    3    3    0    0  0.27783158201E+02 -0.35740280510E+02 -0.11361936421E+03  0.12230957221E+03  0.10000000000E+01 0.  0.
<mgrwt>
<rscale>  0 0.12503738E+03</rscale>
<asrwt>0</asrwt>
<pdfrwt beam="1">  1        4 0.69975032E-02 0.12503738E+03</pdfrwt>
<pdfrwt beam="2">  1       -4 0.34910547E-01 0.12503738E+03</pdfrwt>
<totfact> 0.17689018E+03</totfact>
</mgrwt>
</event>
<event>
 5    1  0.1430314E-002  0.1250000E+03  0.7818608E-02  0.1235069E+00
          4   -1    0    0  501    0  0.00000000000E+00  0.00000000000E+00  0.91060175554E+02  0.91069031355E+02  0.12700000000E+01 0. -1.
         -4   -1    0    0    0  501 -0.00000000000E+00 -0.00000000000E+00 -0.42877102848E+02  0.42895907131E+02  0.12700000000E+01 0. -1.
         25    2    1    2    0    0  0.00000000000E+00  0.00000000000E+00  0.48183072706E+02  0.13396493849E+03  0.12499998499E+03 0.  0.
    9000005    1    3    3    0    0  0.35238353181E+02  0.50082402641E+02  0.10737528098E+02  0.62179442735E+02  0.10000000000E+01 0.  0.
    9000005    1    3    3    0    0 -0.35238353181E+02 -0.50082402641E+02  0.37445544609E+02  0.71785495751E+02  0.10000000000E+01 0.  0.
<mgrwt>
<rscale>  0 0.12499998E+03</rscale>
<asrwt>0</asrwt>
<pdfrwt beam="1">  1        4 0.22768501E-01 0.12499998E+03</pdfrwt>
<pdfrwt beam="2">  1       -4 0.10722733E-01 0.12499998E+03</pdfrwt>
<totfact> 0.19353497E+03</totfact>
</mgrwt>
</event>
<event>
 5    1  0.1430314E-002  0.1250062E+03  0.7818608E-02  0.1235060E+00
          4   -1    0    0  501    0  0.00000000000E+00  0.00000000000E+00  0.50693417164E+02  0.50709323046E+02  0.12700000000E+01 0. -1.
         -4   -1    0    0    0  501 -0.00000000000E+00 -0.00000000000E+00 -0.77030804468E+02  0.77041272945E+02  0.12700000000E+01 0. -1.
         25    2    1    2    0    0  0.00000000000E+00  0.00000000000E+00 -0.26337387303E+02  0.12775059599E+03  0.12500622707E+03 0.  0.
    9000005    1    3    3    0    0 -0.16030861507E+02  0.40127980836E+02 -0.59308476796E+02  0.73387592865E+02  0.10000000000E+01 0.  0.
    9000005    1    3    3    0    0  0.16030861507E+02 -0.40127980836E+02  0.32971089492E+02  0.54363003127E+02  0.10000000000E+01 0.  0.
<mgrwt>
<rscale>  0 0.12500623E+03</rscale>
<asrwt>0</asrwt>
<pdfrwt beam="1">  1        4 0.12676651E-01 0.12500623E+03</pdfrwt>
<pdfrwt beam="2">  1       -4 0.19260998E-01 0.12500623E+03</pdfrwt>
<totfact> 0.19683254E+03</totfact>
</mgrwt>
</event>
<event>
 4    1  0.1430314E-002  0.1255302E+03  0.7818608E-02  0.1234243E+00
          4   -1    0    0  501    0  0.00000000000E+00  0.00000000000E+00  0.85067146585E+02  0.85076626215E+02  0.12700000000E+01 0. -1.
         -4   -1    0    0    0  501 -0.00000000000E+00 -0.00000000000E+00 -0.46289226508E+02  0.46306645211E+02  0.12700000000E+01 0. -1.
    9000005    1    1    2    0    0  0.50461347175E+02  0.21778172994E+02  0.51097131966E+02  0.75050338259E+02  0.10000000000E+01 0.  0.
    9000005    1    1    2    0    0 -0.50461347175E+02 -0.21778172994E+02 -0.12319211889E+02  0.56332933167E+02  0.10000000000E+01 0.  0.
<mgrwt>
<rscale>  0 0.12553022E+03</rscale>
<asrwt>0</asrwt>
<pdfrwt beam="1">  1        4 0.21270149E-01 0.12553022E+03</pdfrwt>
<pdfrwt beam="2">  1       -4 0.11575669E-01 0.12553022E+03</pdfrwt>
<totfact> 0.19251039E+03</totfact>
</mgrwt>
</event>
<event>
 5    1  0.1430314E-002  0.1250030E+03  0.7818608E-02  0.1235065E+00
         -4   -1    0    0    0  501 -0.00000000000E+00  0.00000000000E+00  0.21461592051E+02  0.21499135642E+02  0.12700000000E+01 0. -1.
          4   -1    0    0  501    0  0.00000000000E+00 -0.00000000000E+00 -0.18182121252E+03  0.18182564787E+03  0.12700000000E+01 0. -1.
         25    2    1    2    0    0  0.00000000000E+00  0.00000000000E+00 -0.16035962047E+03  0.20332478351E+03  0.12500303881E+03 0.  0.
    9000005    1    3    3    0    0  0.62425269988E+02 -0.45548440739E+00 -0.75488625098E+02  0.97962514863E+02  0.10000000000E+01 0.  0.
    9000005    1    3    3    0    0 -0.62425269988E+02  0.45548440739E+00 -0.84870995374E+02  0.10536226865E+03  0.10000000000E+01 0.  0.
<mgrwt>
<rscale>  0 0.12500304E+03</rscale>
<asrwt>0</asrwt>
<pdfrwt beam="2">  1        4 0.45460546E-01 0.12500304E+03</pdfrwt>
<pdfrwt beam="1">  1       -4 0.53706459E-02 0.12500304E+03</pdfrwt>
<totfact> 0.16188635E+03</totfact>
</mgrwt>
</event>
<event>
 5    1  0.1430314E-002  0.1250019E+03  0.7818608E-02  0.1235066E+00
          4   -1    0    0  501    0  0.00000000000E+00  0.00000000000E+00  0.55357675901E+01  0.56795794572E+01  0.12700000000E+01 0.  1.
         -4   -1    0    0    0  501 -0.00000000000E+00 -0.00000000000E+00 -0.69646696101E+03  0.69646811893E+03  0.12700000000E+01 0.  1.
         25    2    1    2    0    0  0.00000000000E+00  0.00000000000E+00 -0.69093119342E+03  0.70214769838E+03  0.12500190520E+03 0.  0.
    9000005    1    3    3    0    0  0.22845091623E+02  0.47005265299E+02 -0.53792601920E+03  0.54045979990E+03  0.10000000000E+01 0.  0.
    9000005    1    3    3    0    0 -0.22845091623E+02 -0.47005265299E+02 -0.15300517422E+03  0.16168789849E+03  0.10000000000E+01 0.  0.
<mgrwt>
<rscale>  0 0.12500191E+03</rscale>
<asrwt>0</asrwt>
<pdfrwt beam="1">  1        4 0.14020655E-02 0.12500191E+03</pdfrwt>
<pdfrwt beam="2">  1       -4 0.17413457E+00 0.12500191E+03</pdfrwt>
<totfact> 0.61839338E+02</totfact>
</mgrwt>
</event>
<event>
 5    1  0.1430314E-002  0.1250011E+03  0.7818608E-02  0.1235068E+00
         -4   -1    0    0    0  501 -0.00000000000E+00  0.00000000000E+00  0.43037432135E+01  0.44872158013E+01  0.12700000000E+01 0.  1.
          4   -1    0    0  501    0  0.00000000000E+00 -0.00000000000E+00 -0.88852885077E+03  0.88852975840E+03  0.12700000000E+01 0.  1.
         25    2    1    2    0    0  0.00000000000E+00  0.00000000000E+00 -0.88422510756E+03  0.89301697420E+03  0.12500110146E+03 0.  0.
    9000005    1    3    3    0    0  0.11615402717E+02  0.33992212292E+02 -0.76790432001E+02  0.84783008461E+02  0.10000000000E+01 0.  0.
    9000005    1    3    3    0    0 -0.11615402717E+02 -0.33992212292E+02 -0.80743467556E+03  0.80823396574E+03  0.10000000000E+01 0.  0.
<mgrwt>
<rscale>  0 0.12500110E+03</rscale>
<asrwt>0</asrwt>
<pdfrwt beam="2">  1        4 0.22215465E+00 0.12500110E+03</pdfrwt>
<pdfrwt beam="1">  1       -4 0.10989864E-02 0.12500110E+03</pdfrwt>
<totfact> 0.44809337E+02</totfact>
</mgrwt>
</event>
<event>
 5    1  0.1430314E-002  0.1250010E+03  0.7818608E-02  0.1235068E+00
         -4   -1    0    0    0  501 -0.00000000000E+00  0.00000000000E+00  0.77696974602E+02  0.77707353335E+02  0.12700000000E+01 0.  1.
          4   -1    0    0  501    0  0.00000000000E+00 -0.00000000000E+00 -0.50254453599E+02  0.50270498371E+02  0.12700000000E+01 0.  1.
         25    2    1    2    0    0  0.00000000000E+00  0.00000000000E+00  0.27442521003E+02  0.12797785171E+03  0.12500095427E+03 0.  0.
    9000005    1    3    3    0    0  0.25731048031E+02 -0.55939509029E+02  0.27901886657E+01  0.61644956452E+02  0.10000000000E+01 0.  0.
    9000005    1    3    3    0    0 -0.25731048031E+02  0.55939509029E+02  0.24652332338E+02  0.66332895254E+02  0.10000000000E+01 0.  0.
<mgrwt>
<rscale>  0 0.12500095E+03</rscale>
<asrwt>0</asrwt>
<pdfrwt beam="2">  1        4 0.12566916E-01 0.12500095E+03</pdfrwt>
<pdfrwt beam="1">  1       -4 0.19427546E-01 0.12500095E+03</pdfrwt>
<totfact> 0.19673301E+03</totfact>
</mgrwt>
</event>
<event>
 5    1  0.1430314E-002  0.1249997E+03  0.7818608E-02  0.1235070E+00
         -4   -1    0    0    0  501 -0.00000000000E+00  0.00000000000E+00  0.18145366784E+03  0.18145811217E+03  0.12700000000E+01 0.  1.
          4   -1    0    0  501    0  0.00000000000E+00 -0.00000000000E+00 -0.21503999463E+02  0.21541469144E+02  0.12700000000E+01 0.  1.
         25    2    1    2    0    0  0.00000000000E+00  0.00000000000E+00  0.15994966838E+03  0.20299958132E+03  0.12499973440E+03 0.  0.
    9000005    1    3    3    0    0  0.58646734852E+02  0.19321116757E+02  0.95592982440E+02  0.11380581423E+03  0.10000000000E+01 0.  0.
    9000005    1    3    3    0    0 -0.58646734852E+02 -0.19321116757E+02  0.64356685937E+02  0.89193767082E+02  0.10000000000E+01 0.  0.
<mgrwt>
<rscale>  0 0.12499973E+03</rscale>
<asrwt>0</asrwt>
<pdfrwt beam="2">  1        4 0.53812391E-02 0.12499973E+03</pdfrwt>
<pdfrwt beam="1">  1       -4 0.45368656E-01 0.12499973E+03</pdfrwt>
<totfact> 0.16202733E+03</totfact>
</mgrwt>
</event>
<event>
 5    1  0.1430314E-002  0.1250000E+03  0.7818608E-02  0.1235069E+00
          4   -1    0    0  501    0  0.00000000000E+00  0.00000000000E+00  0.44451945602E+01  0.46230568543E+01  0.12700000000E+01 0.  1.
         -4   -1    0    0    0  501 -0.00000000000E+00 -0.00000000000E+00 -0.86134369230E+03  0.86134462857E+03  0.12700000000E+01 0.  1.
         25    2    1    2    0    0  0.00000000000E+00  0.00000000000E+00 -0.85689849774E+03  0.86596768543E+03  0.12499998708E+03 0.  0.
    9000005    1    3    3    0    0 -0.30346046767E+02 -0.48022731967E+02 -0.24803724077E+03  0.25446127043E+03  0.10000000000E+01 0.  0.
    9000005    1    3    3    0    0  0.30346046767E+02  0.48022731967E+02 -0.60886125697E+03  0.61150641500E+03  0.10000000000E+01 0.  0.
<mgrwt>
<rscale>  0 0.12499999E+03</rscale>
<asrwt>0</asrwt>
<pdfrwt beam="1">  1        4 0.11336514E-02 0.12499999E+03</pdfrwt>
<pdfrwt beam="2">  1       -4 0.21535771E+00 0.12499999E+03</pdfrwt>
<totfact> 0.46936252E+02</totfact>
</mgrwt>
</event>
<event>
 5    1  0.1430314E-002  0.1250005E+03  0.7818608E-02  0.1235068E+00
          4   -1    0    0  501    0  0.00000000000E+00  0.00000000000E+00  0.17959733555E+02  0.18004580788E+02  0.12700000000E+01 0.  1.
         -4   -1    0    0    0  501 -0.00000000000E+00 -0.00000000000E+00 -0.21718427556E+03  0.21718798873E+03  0.12700000000E+01 0.  1.
         25    2    1    2    0    0  0.00000000000E+00  0.00000000000E+00 -0.19922454200E+03  0.23519256952E+03  0.12500050648E+03 0.  0.
    9000005    1    3    3    0    0 -0.50801213786E+02 -0.16335726240E+02 -0.16080296137E+03  0.16942907560E+03  0.10000000000E+01 0.  0.
    9000005    1    3    3    0    0  0.50801213786E+02  0.16335726240E+02 -0.38421580631E+02  0.65763493916E+02  0.10000000000E+01 0.  0.
<mgrwt>
<rscale>  0 0.12500051E+03</rscale>
<asrwt>0</asrwt>
<pdfrwt beam="1">  1        4 0.44960041E-02 0.12500051E+03</pdfrwt>
<pdfrwt beam="2">  1       -4 0.54302131E-01 0.12500051E+03</pdfrwt>
<totfact> 0.15003353E+03</totfact>
</mgrwt>
</event>
<event>
 5    1  0.1430314E-002  0.1249841E+03  0.7818608E-02  0.1235094E+00
         -4   -1    0    0    0  501 -0.00000000000E+00  0.00000000000E+00  0.65756043687E+02  0.65768306815E+02  0.12700000000E+01 0. -1.
          4   -1    0    0  501    0  0.00000000000E+00 -0.00000000000E+00 -0.59365506440E+02  0.59379089374E+02  0.12700000000E+01 0. -1.
         25    2    1    2    0    0  0.00000000000E+00  0.00000000000E+00  0.63905372462E+01  0.12514739619E+03  0.12498412622E+03 0.  0.
    9000005    1    3    3    0    0  0.27130263461E+02  0.50268931378E+02 -0.22160553756E+02  0.61278926232E+02  0.10000000000E+01 0.  0.
    9000005    1    3    3    0    0 -0.27130263461E+02 -0.50268931378E+02  0.28551091002E+02  0.63868469958E+02  0.10000000000E+01 0.  0.
<mgrwt>
<rscale>  0 0.12498413E+03</rscale>
<asrwt>0</asrwt>
<pdfrwt beam="2">  1        4 0.14844607E-01 0.12498413E+03</pdfrwt>
<pdfrwt beam="1">  1       -4 0.16442242E-01 0.12498413E+03</pdfrwt>
<totfact> 0.19834430E+03</totfact>
</mgrwt>
</event>
<event>
 5    1  0.1430314E-002  0.1250007E+03  0.7818608E-02  0.1235068E+00
          4   -1    0    0  501    0  0.00000000000E+00  0.00000000000E+00  0.56118371457E+01  0.57537480089E+01  0.12700000000E+01 0.  1.
         -4   -1    0    0    0  501 -0.00000000000E+00 -0.00000000000E+00 -0.68724761209E+03  0.68724878554E+03  0.12700000000E+01 0.  1.
         25    2    1    2    0    0  0.00000000000E+00  0.00000000000E+00 -0.68163577494E+03  0.69300253355E+03  0.12500072727E+03 0.  0.
    9000005    1    3    3    0    0  0.15127918874E+02 -0.47614500337E+02 -0.54894283652E+03  0.55121251105E+03  0.10000000000E+01 0.  0.
    9000005    1    3    3    0    0 -0.15127918874E+02  0.47614500337E+02 -0.13269293842E+03  0.14179002249E+03  0.10000000000E+01 0.  0.
<mgrwt>
<rscale>  0 0.12500073E+03</rscale>
<asrwt>0</asrwt>
<pdfrwt beam="1">  1        4 0.14208472E-02 0.12500073E+03</pdfrwt>
<pdfrwt beam="2">  1       -4 0.17182951E+00 0.12500073E+03</pdfrwt>
<totfact> 0.62795832E+02</totfact>
</mgrwt>
</event>
<event>
 5    1  0.1430314E-002  0.1250055E+03  0.7818608E-02  0.1235061E+00
          4   -1    0    0  501    0  0.00000000000E+00  0.00000000000E+00  0.46467157014E+03  0.46467330567E+03  0.12700000000E+01 0. -1.
         -4   -1    0    0    0  501 -0.00000000000E+00 -0.00000000000E+00 -0.83574945372E+01  0.84534380544E+01  0.12700000000E+01 0. -1.
         25    2    1    2    0    0  0.00000000000E+00  0.00000000000E+00  0.45631407561E+03  0.47312674372E+03  0.12500551999E+03 0.  0.
    9000005    1    3    3    0    0  0.36644535980E+02 -0.49367994367E+02  0.27056997813E+03  0.27746915856E+03  0.10000000000E+01 0.  0.
    9000005    1    3    3    0    0 -0.36644535980E+02  0.49367994367E+02  0.18574409747E+03  0.19565758516E+03  0.10000000000E+01 0.  0.
<mgrwt>
<rscale>  0 0.12500552E+03</rscale>
<asrwt>0</asrwt>
<pdfrwt beam="1">  1        4 0.11618010E+00 0.12500552E+03</pdfrwt>
<pdfrwt beam="2">  1       -4 0.21015835E-02 0.12500552E+03</pdfrwt>
<totfact> 0.91996412E+02</totfact>
</mgrwt>
</event>
<event>
 5    1  0.1430314E-002  0.1250015E+03  0.7818608E-02  0.1235067E+00
          4   -1    0    0  501    0  0.00000000000E+00  0.00000000000E+00  0.53126377480E+03  0.53126529278E+03  0.12700000000E+01 0.  1.
         -4   -1    0    0    0  501 -0.00000000000E+00 -0.00000000000E+00 -0.72965535991E+01  0.74062537375E+01  0.12700000000E+01 0.  1.
         25    2    1    2    0    0  0.00000000000E+00  0.00000000000E+00  0.52396722120E+03  0.53867154652E+03  0.12500154454E+03 0.  0.
    9000005    1    3    3    0    0  0.15598963713E+02 -0.16158463151E+02  0.51329203781E+03  0.51378413724E+03  0.10000000000E+01 0.  0.
    9000005    1    3    3    0    0 -0.15598963713E+02  0.16158463151E+02  0.10675183395E+02  0.24887409283E+02  0.10000000000E+01 0.  0.
<mgrwt>
<rscale>  0 0.12500154E+03</rscale>
<asrwt>0</asrwt>
<pdfrwt beam="1">  1        4 0.13282984E+00 0.12500154E+03</pdfrwt>
<pdfrwt beam="2">  1       -4 0.18380408E-02 0.12500154E+03</pdfrwt>
<totfact> 0.81764763E+02</totfact>
</mgrwt>
</event>
<event>
 5    1  0.1430314E-002  0.1250014E+03  0.7818608E-02  0.1235067E+00
          4   -1    0    0  501    0  0.00000000000E+00  0.00000000000E+00  0.96476901473E+02  0.96485260107E+02  0.12700000000E+01 0. -1.
         -4   -1    0    0    0  501 -0.00000000000E+00 -0.00000000000E+00 -0.40469820059E+02  0.40489742351E+02  0.12700000000E+01 0. -1.
         25    2    1    2    0    0  0.00000000000E+00  0.00000000000E+00  0.56007081414E+02  0.13697500246E+03  0.12500143251E+03 0.  0.
    9000005    1    3    3    0    0  0.61648288729E+02 -0.90477117406E+01  0.33254974677E+02  0.70634736013E+02  0.10000000000E+01 0.  0.
    9000005    1    3    3    0    0 -0.61648288729E+02  0.90477117406E+01  0.22752106737E+02  0.66340266444E+02  0.10000000000E+01 0.  0.
<mgrwt>
<rscale>  0 0.12500143E+03</rscale>
<asrwt>0</asrwt>
<pdfrwt beam="1">  1        4 0.24122760E-01 0.12500143E+03</pdfrwt>
<pdfrwt beam="2">  1       -4 0.10120990E-01 0.12500143E+03</pdfrwt>
<totfact> 0.19195541E+03</totfact>
</mgrwt>
</event>
<event>
 5    1  0.1430314E-002  0.1249972E+03  0.7818608E-02  0.1235074E+00
          4   -1    0    0  501    0  0.00000000000E+00  0.00000000000E+00  0.22449624198E+03  0.22449983421E+03  0.12700000000E+01 0. -1.
         -4   -1    0    0    0  501 -0.00000000000E+00 -0.00000000000E+00 -0.17372389807E+02  0.17418749312E+02  0.12700000000E+01 0. -1.
         25    2    1    2    0    0  0.00000000000E+00  0.00000000000E+00  0.20712385217E+03  0.24191858352E+03  0.12499724364E+03 0.  0.
    9000005    1    3    3    0    0  0.58150382158E+02  0.22739613141E+02  0.98619746553E+02  0.11672793736E+03  0.10000000000E+01 0.  0.
    9000005    1    3    3    0    0 -0.58150382158E+02 -0.22739613141E+02  0.10850410562E+03  0.12519064616E+03  0.10000000000E+01 0.  0.
<mgrwt>
<rscale>  0 0.12499724E+03</rscale>
<asrwt>0</asrwt>
<pdfrwt beam="1">  1        4 0.56130304E-01 0.12499724E+03</pdfrwt>
<pdfrwt beam="2">  1       -4 0.43493415E-02 0.12499724E+03</pdfrwt>
<totfact> 0.14771519E+03</totfact>
</mgrwt>
</event>
<event>
 5    1  0.1430314E-002  0.1249973E+03  0.7818608E-02  0.1235074E+00
         -4   -1    0    0    0  501 -0.00000000000E+00  0.00000000000E+00  0.51623059579E+02  0.51638679111E+02  0.12700000000E+01 0.  1.
          4   -1    0    0  501    0  0.00000000000E+00 -0.00000000000E+00 -0.75633013290E+02  0.75643675210E+02  0.12700000000E+01 0.  1.
         25    2    1    2    0    0  0.00000000000E+00  0.00000000000E+00 -0.24009953711E+02  0.12728235432E+03  0.12499727935E+03 0.  0.
    9000005    1    3    3    0    0 -0.52958926038E+02 -0.16232325000E+02  0.17453871977E+02  0.58084196379E+02  0.10000000000E+01 0.  0.
    9000005    1    3    3    0    0  0.52958926038E+02  0.16232325000E+02 -0.41463825688E+02  0.69198157943E+02  0.10000000000E+01 0.  0.
<mgrwt>
<rscale>  0 0.12499728E+03</rscale>
<asrwt>0</asrwt>
<pdfrwt beam="2">  1        4 0.18911538E-01 0.12499728E+03</pdfrwt>
<pdfrwt beam="1">  1       -4 0.12909050E-01 0.12499728E+03</pdfrwt>
<totfact> 0.19712927E+03</totfact>
</mgrwt>
</event>
<event>
 5    1  0.1430314E-002  0.1249907E+03  0.7818608E-02  0.1235084E+00
          4   -1    0    0  501    0  0.00000000000E+00  0.00000000000E+00  0.17032195753E+03  0.17032669233E+03  0.12700000000E+01 0. -1.
         -4   -1    0    0    0  501 -0.00000000000E+00 -0.00000000000E+00 -0.22908459689E+02  0.22943635835E+02  0.12700000000E+01 0. -1.
         25    2    1    2    0    0  0.00000000000E+00  0.00000000000E+00  0.14741349785E+03  0.19327032816E+03  0.12499072126E+03 0.  0.
    9000005    1    3    3    0    0 -0.49677865630E+02 -0.14564083642E+02  0.12781910692E+03  0.13790840062E+03  0.10000000000E+01 0.  0.
    9000005    1    3    3    0    0  0.49677865630E+02  0.14564083642E+02  0.19594390924E+02  0.55361927545E+02  0.10000000000E+01 0.  0.
<mgrwt>
<rscale>  0 0.12499072E+03</rscale>
<asrwt>0</asrwt>
<pdfrwt beam="1">  1        4 0.42585478E-01 0.12499072E+03</pdfrwt>
<pdfrwt beam="2">  1       -4 0.57321038E-02 0.12499072E+03</pdfrwt>
<totfact> 0.16598666E+03</totfact>
</mgrwt>
</event>
<event>
 5    1  0.1430314E-002  0.1249975E+03  0.7818608E-02  0.1235073E+00
          4   -1    0    0  501    0  0.00000000000E+00  0.00000000000E+00  0.44341670911E+01  0.46124546385E+01  0.12700000000E+01 0.  1.
         -4   -1    0    0    0  501 -0.00000000000E+00 -0.00000000000E+00 -0.86336849265E+03  0.86336942673E+03  0.12700000000E+01 0.  1.
         25    2    1    2    0    0  0.00000000000E+00  0.00000000000E+00 -0.85893432556E+03  0.86798188137E+03  0.12499748297E+03 0.  0.
    9000005    1    3    3    0    0 -0.59792230179E+02 -0.17625542253E+02 -0.45999086476E+03  0.46419647370E+03  0.10000000000E+01 0.  0.
    9000005    1    3    3    0    0  0.59792230179E+02  0.17625542253E+02 -0.39894346080E+03  0.40378540767E+03  0.10000000000E+01 0.  0.
<mgrwt>
<rscale>  0 0.12499748E+03</rscale>
<asrwt>0</asrwt>
<pdfrwt beam="1">  1        4 0.11309474E-02 0.12499748E+03</pdfrwt>
<pdfrwt beam="2">  1       -4 0.21586396E+00 0.12499748E+03</pdfrwt>
<totfact> 0.46777720E+02</totfact>
</mgrwt>
</event>
<event>
 5    1  0.1430314E-002  0.1250045E+03  0.7818608E-02  0.1235062E+00
         -4   -1    0    0    0  501 -0.00000000000E+00  0.00000000000E+00  0.23545357043E+02  0.23579583081E+02  0.12700000000E+01 0. -1.
          4   -1    0    0  501    0  0.00000000000E+00 -0.00000000000E+00 -0.16575807062E+03  0.16576293577E+03  0.12700000000E+01 0. -1.
         25    2    1    2    0    0  0.00000000000E+00  0.00000000000E+00 -0.14221271357E+03  0.18934251885E+03  0.12500453409E+03 0.  0.
    9000005    1    3    3    0    0  0.11858193915E+01  0.31656874652E+02 -0.15270234504E+03  0.15595694938E+03  0.10000000000E+01 0.  0.
    9000005    1    3    3    0    0 -0.11858193915E+01 -0.31656874652E+02  0.10489631465E+02  0.33385569467E+02  0.10000000000E+01 0.  0.
<mgrwt>
<rscale>  0 0.12500453E+03</rscale>
<asrwt>0</asrwt>
<pdfrwt beam="2">  1        4 0.41444401E-01 0.12500453E+03</pdfrwt>
<pdfrwt beam="1">  1       -4 0.58912261E-02 0.12500453E+03</pdfrwt>
<totfact> 0.16756112E+03</totfact>
</mgrwt>
</event>
<event>
 5    1  0.1430314E-002  0.1249996E+03  0.7818608E-02  0.1235070E+00
         -4   -1    0    0    0  501 -0.00000000000E+00  0.00000000000E+00  0.38417000230E+02  0.38437986506E+02  0.12700000000E+01 0. -1.
          4   -1    0    0  501    0  0.00000000000E+00 -0.00000000000E+00 -0.10162684004E+03  0.10163477514E+03  0.12700000000E+01 0. -1.
         25    2    1    2    0    0  0.00000000000E+00  0.00000000000E+00 -0.63209839812E+02  0.14007276164E+03  0.12499957882E+03 0.  0.
    9000005    1    3    3    0    0  0.22515202844E+02  0.20112197009E+02  0.29708525985E+02  0.42367810232E+02  0.10000000000E+01 0.  0.
    9000005    1    3    3    0    0 -0.22515202844E+02 -0.20112197009E+02 -0.92918365797E+02  0.97704951410E+02  0.10000000000E+01 0.  0.
<mgrwt>
<rscale>  0 0.12499958E+03</rscale>
<asrwt>0</asrwt>
<pdfrwt beam="2">  1        4 0.25410325E-01 0.12499958E+03</pdfrwt>
<pdfrwt beam="1">  1       -4 0.96078654E-02 0.12499958E+03</pdfrwt>
<totfact> 0.19036807E+03</totfact>
</mgrwt>
</event>
<event>
 5    1  0.1430314E-002  0.1250011E+03  0.7818608E-02  0.1235068E+00
         -4   -1    0    0    0  501 -0.00000000000E+00  0.00000000000E+00  0.66965722226E+02  0.66977763872E+02  0.12700000000E+01 0.  1.
          4   -1    0    0  501    0  0.00000000000E+00 -0.00000000000E+00 -0.58308862636E+02  0.58322691655E+02  0.12700000000E+01 0.  1.
         25    2    1    2    0    0  0.00000000000E+00  0.00000000000E+00  0.86568595904E+01  0.12530045553E+03  0.12500105174E+03 0.  0.
    9000005    1    3    3    0    0 -0.38697548857E+02  0.27145894825E+02  0.45303175872E+02  0.65481124284E+02  0.10000000000E+01 0.  0.
    9000005    1    3    3    0    0  0.38697548857E+02 -0.27145894825E+02 -0.36646316281E+02  0.59819331243E+02  0.10000000000E+01 0.  0.
<mgrwt>
<rscale>  0 0.12500105E+03</rscale>
<asrwt>0</asrwt>
<pdfrwt beam="2">  1        4 0.14580449E-01 0.12500105E+03</pdfrwt>
<pdfrwt beam="1">  1       -4 0.16744664E-01 0.12500105E+03</pdfrwt>
<totfact> 0.19818282E+03</totfact>
</mgrwt>
</event>
<event>
 5    1  0.1430314E-002  0.1249995E+03  0.7818608E-02  0.1235070E+00
         -4   -1    0    0    0  501 -0.00000000000E+00  0.00000000000E+00  0.38802881147E+02  0.38823658835E+02  0.12700000000E+01 0. -1.
          4   -1    0    0  501    0  0.00000000000E+00 -0.00000000000E+00 -0.10061647259E+03  0.10062448736E+03  0.12700000000E+01 0. -1.
         25    2    1    2    0    0  0.00000000000E+00  0.00000000000E+00 -0.61813591444E+02  0.13944814620E+03  0.12499946156E+03 0.  0.
    9000005    1    3    3    0    0 -0.17569086043E+02 -0.14230578027E+02  0.34085624655E+02  0.40914691047E+02  0.10000000000E+01 0.  0.
    9000005    1    3    3    0    0  0.17569086043E+02  0.14230578027E+02 -0.95899216098E+02  0.98533455149E+02  0.10000000000E+01 0.  0.
<mgrwt>
<rscale>  0 0.12499946E+03</rscale>
<asrwt>0</asrwt>
<pdfrwt beam="2">  1        4 0.25157717E-01 0.12499946E+03</pdfrwt>
<pdfrwt beam="1">  1       -4 0.97043195E-02 0.12499946E+03</pdfrwt>
<totfact> 0.19068849E+03</totfact>
</mgrwt>
</event>
<event>
 5    1  0.1430314E-002  0.1249969E+03  0.7818608E-02  0.1235074E+00
         -4   -1    0    0    0  501 -0.00000000000E+00  0.00000000000E+00  0.53127731449E+01  0.54624590149E+01  0.12700000000E+01 0. -1.
          4   -1    0    0  501    0  0.00000000000E+00 -0.00000000000E+00 -0.72485561538E+03  0.72485672795E+03  0.12700000000E+01 0. -1.
         25    2    1    2    0    0  0.00000000000E+00  0.00000000000E+00 -0.71954284224E+03  0.73031918696E+03  0.12499685208E+03 0.  0.
    9000005    1    3    3    0    0 -0.33026131280E+02  0.18845769071E+02 -0.64951075697E+03  0.65062363297E+03  0.10000000000E+01 0.  0.
    9000005    1    3    3    0    0  0.33026131280E+02 -0.18845769071E+02 -0.70032085262E+02  0.79695553987E+02  0.10000000000E+01 0.  0.
<mgrwt>
<rscale>  0 0.12499685E+03</rscale>
<asrwt>0</asrwt>
<pdfrwt beam="2">  1        4 0.18123242E+00 0.12499685E+03</pdfrwt>
<pdfrwt beam="1">  1       -4 0.13470456E-02 0.12499685E+03</pdfrwt>
<totfact> 0.58987449E+02</totfact>
</mgrwt>
</event>
<event>
 5    1  0.1430314E-002  0.1250008E+03  0.7818608E-02  0.1235068E+00
         -4   -1    0    0    0  501 -0.00000000000E+00  0.00000000000E+00  0.22027654246E+02  0.22064234670E+02  0.12700000000E+01 0. -1.
          4   -1    0    0  501    0  0.00000000000E+00 -0.00000000000E+00 -0.17715021036E+03  0.17715476266E+03  0.12700000000E+01 0. -1.
         25    2    1    2    0    0  0.00000000000E+00  0.00000000000E+00 -0.15512255612E+03  0.19921899733E+03  0.12500080591E+03 0.  0.
    9000005    1    3    3    0    0 -0.49977140032E+02  0.18513398582E+02 -0.25554482118E+02  0.59114228483E+02  0.10000000000E+01 0.  0.
    9000005    1    3    3    0    0  0.49977140032E+02 -0.18513398582E+02 -0.12956807400E+03  0.14010476884E+03  0.10000000000E+01 0.  0.
<mgrwt>
<rscale>  0 0.12500081E+03</rscale>
<asrwt>0</asrwt>
<pdfrwt beam="2">  1        4 0.44292690E-01 0.12500081E+03</pdfrwt>
<pdfrwt beam="1">  1       -4 0.55120557E-02 0.12500081E+03</pdfrwt>
<totfact> 0.16353057E+03</totfact>
</mgrwt>
</event>
<event>
 5    1  0.1430314E-002  0.1250010E+03  0.7818608E-02  0.1235068E+00
          4   -1    0    0  501    0  0.00000000000E+00  0.00000000000E+00  0.26482926692E+02  0.26513360899E+02  0.12700000000E+01 0.  1.
         -4   -1    0    0    0  501 -0.00000000000E+00 -0.00000000000E+00 -0.14738528125E+03  0.14739075287E+03  0.12700000000E+01 0.  1.
         25    2    1    2    0    0  0.00000000000E+00  0.00000000000E+00 -0.12090235456E+03  0.17390411376E+03  0.12500104578E+03 0.  0.
    9000005    1    3    3    0    0 -0.11928381485E+02  0.38391606183E+02 -0.12701371738E+03  0.13322794795E+03  0.10000000000E+01 0.  0.
    9000005    1    3    3    0    0  0.11928381485E+02 -0.38391606183E+02  0.61113628222E+01  0.40676165819E+02  0.10000000000E+01 0.  0.
<mgrwt>
<rscale>  0 0.12500105E+03</rscale>
<asrwt>0</asrwt>
<pdfrwt beam="1">  1        4 0.66252203E-02 0.12500105E+03</pdfrwt>
<pdfrwt beam="2">  1       -4 0.36850806E-01 0.12500105E+03</pdfrwt>
<totfact> 0.17421957E+03</totfact>
</mgrwt>
</event>
<event>
 5    1  0.1430314E-002  0.1250032E+03  0.7818608E-02  0.1235064E+00
         -4   -1    0    0    0  501 -0.00000000000E+00  0.00000000000E+00  0.34091112050E+02  0.34114759575E+02  0.12700000000E+01 0. -1.
          4   -1    0    0  501    0  0.00000000000E+00 -0.00000000000E+00 -0.11452153834E+03  0.11452858003E+03  0.12700000000E+01 0. -1.
         25    2    1    2    0    0  0.00000000000E+00  0.00000000000E+00 -0.80430426294E+02  0.14864333961E+03  0.12500315571E+03 0.  0.
    9000005    1    3    3    0    0 -0.14256886070E+02  0.56429971307E+02 -0.67275046267E+02  0.88963657256E+02  0.10000000000E+01 0.  0.
    9000005    1    3    3    0    0  0.14256886070E+02 -0.56429971307E+02 -0.13155380027E+02  0.59679682353E+02  0.10000000000E+01 0.  0.
<mgrwt>
<rscale>  0 0.12500316E+03</rscale>
<asrwt>0</asrwt>
<pdfrwt beam="2">  1        4 0.28634220E-01 0.12500316E+03</pdfrwt>
<pdfrwt beam="1">  1       -4 0.85266144E-02 0.12500316E+03</pdfrwt>
<totfact> 0.18604323E+03</totfact>
</mgrwt>
</event>
<event>
 5    1  0.1430314E-002  0.1249973E+03  0.7818608E-02  0.1235074E+00
         -4   -1    0    0    0  501 -0.00000000000E+00  0.00000000000E+00  0.20758959465E+03  0.20759347945E+03  0.12700000000E+01 0. -1.
          4   -1    0    0  501    0  0.00000000000E+00 -0.00000000000E+00 -0.18790856767E+02  0.18833725017E+02  0.12700000000E+01 0. -1.
         25    2    1    2    0    0  0.00000000000E+00  0.00000000000E+00  0.18879873789E+03  0.22642720446E+03  0.12499726194E+03 0.  0.
    9000005    1    3    3    0    0  0.42594972306E+02 -0.42920045597E+02  0.12296168513E+03  0.13702933259E+03  0.10000000000E+01 0.  0.
    9000005    1    3    3    0    0 -0.42594972306E+02  0.42920045597E+02  0.65837052754E+02  0.89397871871E+02  0.10000000000E+01 0.  0.
<mgrwt>
<rscale>  0 0.12499726E+03</rscale>
<asrwt>0</asrwt>
<pdfrwt beam="2">  1        4 0.47035584E-02 0.12499726E+03</pdfrwt>
<pdfrwt beam="1">  1       -4 0.51903242E-01 0.12499726E+03</pdfrwt>
<totfact> 0.15316788E+03</totfact>
</mgrwt>
</event>
<event>
 5    1  0.1430314E-002  0.1250012E+03  0.7818608E-02  0.1235067E+00
          4   -1    0    0  501    0  0.00000000000E+00  0.00000000000E+00  0.86549489639E+02  0.86558806928E+02  0.12700000000E+01 0. -1.
         -4   -1    0    0    0  501 -0.00000000000E+00 -0.00000000000E+00 -0.45113303520E+02  0.45131176082E+02  0.12700000000E+01 0. -1.
         25    2    1    2    0    0  0.00000000000E+00  0.00000000000E+00  0.41436186119E+02  0.13168998301E+03  0.12500117641E+03 0.  0.
    9000005    1    3    3    0    0  0.21699355913E+02  0.23320472037E+02 -0.35923299522E+02  0.48022806162E+02  0.10000000000E+01 0.  0.
    9000005    1    3    3    0    0 -0.21699355913E+02 -0.23320472037E+02  0.77359485641E+02  0.83667176848E+02  0.10000000000E+01 0.  0.
<mgrwt>
<rscale>  0 0.12500118E+03</rscale>
<asrwt>0</asrwt>
<pdfrwt beam="1">  1        4 0.21640771E-01 0.12500118E+03</pdfrwt>
<pdfrwt beam="2">  1       -4 0.11281725E-01 0.12500118E+03</pdfrwt>
<totfact> 0.19473419E+03</totfact>
</mgrwt>
</event>
<event>
 5    1  0.1430314E-002  0.1249985E+03  0.7818608E-02  0.1235072E+00
          4   -1    0    0  501    0  0.00000000000E+00  0.00000000000E+00  0.18897852358E+03  0.18898279095E+03  0.12700000000E+01 0.  1.
         -4   -1    0    0    0  501 -0.00000000000E+00 -0.00000000000E+00 -0.20645841329E+02  0.20684865583E+02  0.12700000000E+01 0.  1.
         25    2    1    2    0    0  0.00000000000E+00  0.00000000000E+00  0.16833268226E+03  0.20966765653E+03  0.12499853712E+03 0.  0.
    9000005    1    3    3    0    0  0.10178808701E+02  0.38796377696E+02  0.37860682603E+01  0.40300141213E+02  0.10000000000E+01 0.  0.
    9000005    1    3    3    0    0 -0.10178808701E+02 -0.38796377696E+02  0.16454661400E+03  0.16936751532E+03  0.10000000000E+01 0.  0.
<mgrwt>
<rscale>  0 0.12499854E+03</rscale>
<asrwt>0</asrwt>
<pdfrwt beam="1">  1        4 0.47250043E-01 0.12499854E+03</pdfrwt>
<pdfrwt beam="2">  1       -4 0.51668717E-02 0.12499854E+03</pdfrwt>
<totfact> 0.15942655E+03</totfact>
</mgrwt>
</event>
<event>
 5    1  0.1430314E-002  0.1250170E+03  0.7818608E-02  0.1235043E+00
         -4   -1    0    0    0  501 -0.00000000000E+00  0.00000000000E+00  0.47580436241E+01  0.49246196938E+01  0.12700000000E+01 0.  1.
          4   -1    0    0  501    0  0.00000000000E+00 -0.00000000000E+00 -0.80690716555E+03  0.80690816498E+03  0.12700000000E+01 0.  1.
         25    2    1    2    0    0  0.00000000000E+00  0.00000000000E+00 -0.80214912192E+03  0.81183278467E+03  0.12501702472E+03 0.  0.
    9000005    1    3    3    0    0  0.22995775867E+02  0.15000726546E+02 -0.36468358565E+02  0.45659267198E+02  0.10000000000E+01 0.  0.
    9000005    1    3    3    0    0 -0.22995775867E+02 -0.15000726546E+02 -0.76568076336E+03  0.76617351748E+03  0.10000000000E+01 0.  0.
<mgrwt>
<rscale>  0 0.12501702E+03</rscale>
<asrwt>0</asrwt>
<pdfrwt beam="2">  1        4 0.20174728E+00 0.12501702E+03</pdfrwt>
<pdfrwt beam="1">  1       -4 0.12104606E-02 0.12501702E+03</pdfrwt>
<totfact> 0.51423480E+02</totfact>
</mgrwt>
</event>
<event>
 5    1  0.1430314E-002  0.1249929E+03  0.7818608E-02  0.1235080E+00
          4   -1    0    0  501    0  0.00000000000E+00  0.00000000000E+00  0.41073984348E+03  0.41074180688E+03  0.12700000000E+01 0.  1.
         -4   -1    0    0    0  501 -0.00000000000E+00 -0.00000000000E+00 -0.94647959002E+01  0.95496210099E+01  0.12700000000E+01 0.  1.
         25    2    1    2    0    0  0.00000000000E+00  0.00000000000E+00  0.40127504758E+03  0.42029142789E+03  0.12499288200E+03 0.  0.
    9000005    1    3    3    0    0 -0.22681769521E+02 -0.49923736490E+02  0.30139898865E+03  0.30634815569E+03  0.10000000000E+01 0.  0.
    9000005    1    3    3    0    0  0.22681769521E+02  0.49923736490E+02  0.99876058932E+02  0.11394327221E+03  0.10000000000E+01 0.  0.
<mgrwt>
<rscale>  0 0.12499288E+03</rscale>
<asrwt>0</asrwt>
<pdfrwt beam="1">  1        4 0.10269580E+00 0.12499288E+03</pdfrwt>
<pdfrwt beam="2">  1       -4 0.23770477E-02 0.12499288E+03</pdfrwt>
<totfact> 0.10162034E+03</totfact>
</mgrwt>
</event>
<event>
 5    1  0.1430314E-002  0.1249969E+03  0.7818608E-02  0.1235074E+00
          4   -1    0    0  501    0  0.00000000000E+00  0.00000000000E+00  0.20227923231E+03  0.20228321908E+03  0.12700000000E+01 0.  1.
         -4   -1    0    0    0  501 -0.00000000000E+00 -0.00000000000E+00 -0.19285143800E+02  0.19326915724E+02  0.12700000000E+01 0.  1.
         25    2    1    2    0    0  0.00000000000E+00  0.00000000000E+00  0.18299408851E+03  0.22161013481E+03  0.12499686164E+03 0.  0.
    9000005    1    3    3    0    0  0.57285928839E+02 -0.20366323683E+02  0.11710272254E+03  0.13194890075E+03  0.10000000000E+01 0.  0.
    9000005    1    3    3    0    0 -0.57285928839E+02  0.20366323683E+02  0.65891365966E+02  0.89661234055E+02  0.10000000000E+01 0.  0.
<mgrwt>
<rscale>  0 0.12499686E+03</rscale>
<asrwt>0</asrwt>
<pdfrwt beam="1">  1        4 0.50575529E-01 0.12499686E+03</pdfrwt>
<pdfrwt beam="2">  1       -4 0.48270057E-02 0.12499686E+03</pdfrwt>
<totfact> 0.15492928E+03</totfact>
</mgrwt>
</event>
<event>
 5    1  0.1430314E-002  0.1249995E+03  0.7818608E-02  0.1235070E+00
         -4   -1    0    0    0  501 -0.00000000000E+00  0.00000000000E+00  0.50092765899E+02  0.50108862444E+02  0.12700000000E+01 0. -1.
          4   -1    0    0  501    0  0.00000000000E+00 -0.00000000000E+00 -0.77945947114E+02  0.77956292699E+02  0.12700000000E+01 0. -1.
         25    2    1    2    0    0  0.00000000000E+00  0.00000000000E+00 -0.27853181215E+02  0.12806515514E+03  0.12499953703E+03 0.  0.
    9000005    1    3    3    0    0 -0.33276645458E+02 -0.23894317994E+02 -0.62274484995E+02  0.74547870839E+02  0.10000000000E+01 0.  0.
    9000005    1    3    3    0    0  0.33276645458E+02  0.23894317994E+02  0.34421303780E+02  0.53517284304E+02  0.10000000000E+01 0.  0.
<mgrwt>
<rscale>  0 0.12499954E+03</rscale>
<asrwt>0</asrwt>
<pdfrwt beam="2">  1        4 0.19489792E-01 0.12499954E+03</pdfrwt>
<pdfrwt beam="1">  1       -4 0.12526497E-01 0.12499954E+03</pdfrwt>
<totfact> 0.19669202E+03</totfact>
</mgrwt>
</event>
<event>
 5    1  0.1430314E-002  0.1250098E+03  0.7818608E-02  0.1235054E+00
         -4   -1    0    0    0  501 -0.00000000000E+00  0.00000000000E+00  0.29161002507E+03  0.29161279056E+03  0.12700000000E+01 0. -1.
          4   -1    0    0  501    0  0.00000000000E+00 -0.00000000000E+00 -0.13364620128E+02  0.13424826671E+02  0.12700000000E+01 0. -1.
         25    2    1    2    0    0  0.00000000000E+00  0.00000000000E+00  0.27824540494E+03  0.30503761723E+03  0.12500976985E+03 0.  0.
    9000005    1    3    3    0    0 -0.53727898339E+02  0.28604896170E+02  0.17371151185E+03  0.18406959688E+03  0.10000000000E+01 0.  0.
    9000005    1    3    3    0    0  0.53727898339E+02 -0.28604896170E+02  0.10453389308E+03  0.12096802035E+03  0.10000000000E+01 0.  0.
<mgrwt>
<rscale>  0 0.12500977E+03</rscale>
<asrwt>0</asrwt>
<pdfrwt beam="2">  1        4 0.33490264E-02 0.12500977E+03</pdfrwt>
<pdfrwt beam="1">  1       -4 0.72910380E-01 0.12500977E+03</pdfrwt>
<totfact> 0.12828162E+03</totfact>
</mgrwt>
</event>
<event>
 5    1  0.1430314E-002  0.1250000E+03  0.7818608E-02  0.1235069E+00
         -4   -1    0    0    0  501 -0.00000000000E+00  0.00000000000E+00  0.27078378624E+03  0.27078676443E+03  0.12700000000E+01 0.  1.
          4   -1    0    0  501    0  0.00000000000E+00 -0.00000000000E+00 -0.14394704277E+02  0.14450619752E+02  0.12700000000E+01 0.  1.
         25    2    1    2    0    0  0.00000000000E+00  0.00000000000E+00  0.25638908196E+03  0.28523738418E+03  0.12500001594E+03 0.  0.
    9000005    1    3    3    0    0  0.19438049246E+02 -0.30240006365E+02  0.24483852987E+03  0.24746555609E+03  0.10000000000E+01 0.  0.
    9000005    1    3    3    0    0 -0.19438049246E+02  0.30240006365E+02  0.11550552093E+02  0.37771828088E+02  0.10000000000E+01 0.  0.
<mgrwt>
<rscale>  0 0.12500002E+03</rscale>
<asrwt>0</asrwt>
<pdfrwt beam="2">  1        4 0.36060378E-02 0.12500002E+03</pdfrwt>
<pdfrwt beam="1">  1       -4 0.67703308E-01 0.12500002E+03</pdfrwt>
<totfact> 0.13395126E+03</totfact>
</mgrwt>
</event>
<event>
 5    1  0.1430314E-002  0.1249995E+03  0.7818608E-02  0.1235070E+00
          4   -1    0    0  501    0  0.00000000000E+00  0.00000000000E+00  0.20999091553E+02  0.21037460542E+02  0.12700000000E+01 0. -1.
         -4   -1    0    0    0  501 -0.00000000000E+00 -0.00000000000E+00 -0.18580807015E+03  0.18581241033E+03  0.12700000000E+01 0. -1.
         25    2    1    2    0    0  0.00000000000E+00  0.00000000000E+00 -0.16480897860E+03  0.20684987087E+03  0.12499947861E+03 0.  0.
    9000005    1    3    3    0    0 -0.20270799679E+02 -0.58330474564E+02 -0.98265424250E+02  0.11606223841E+03  0.10000000000E+01 0.  0.
    9000005    1    3    3    0    0  0.20270799679E+02  0.58330474564E+02 -0.66543554349E+02  0.90787632461E+02  0.10000000000E+01 0.  0.
<mgrwt>
<rscale>  0 0.12499948E+03</rscale>
<asrwt>0</asrwt>
<pdfrwt beam="1">  1        4 0.52551121E-02 0.12499948E+03</pdfrwt>
<pdfrwt beam="2">  1       -4 0.46457351E-01 0.12499948E+03</pdfrwt>
<totfact> 0.16051582E+03</totfact>
</mgrwt>
</event>
<event>
 5    1  0.1430314E-002  0.1249944E+03  0.7818608E-02  0.1235078E+00
         -4   -1    0    0    0  501 -0.00000000000E+00  0.00000000000E+00  0.39715614991E+02  0.39735915419E+02  0.12700000000E+01 0. -1.
          4   -1    0    0  501    0  0.00000000000E+00 -0.00000000000E+00 -0.98297253333E+02  0.98305457187E+02  0.12700000000E+01 0. -1.
         25    2    1    2    0    0  0.00000000000E+00  0.00000000000E+00 -0.58581638341E+02  0.13804137261E+03  0.12499444868E+03 0.  0.
    9000005    1    3    3    0    0 -0.33482225523E+02 -0.34753094034E+02  0.14552735183E+02  0.50414472845E+02  0.10000000000E+01 0.  0.
    9000005    1    3    3    0    0  0.33482225523E+02  0.34753094034E+02 -0.73134373524E+02  0.87626899761E+02  0.10000000000E+01 0.  0.
<mgrwt>
<rscale>  0 0.12499445E+03</rscale>
<asrwt>0</asrwt>
<pdfrwt beam="2">  1        4 0.24577876E-01 0.12499445E+03</pdfrwt>
<pdfrwt beam="1">  1       -4 0.99324670E-02 0.12499445E+03</pdfrwt>
<totfact> 0.19143473E+03</totfact>
</mgrwt>
</event>
<event>
 5    1  0.1430314E-002  0.1249985E+03  0.7818608E-02  0.1235072E+00
         -4   -1    0    0    0  501 -0.00000000000E+00  0.00000000000E+00  0.63229989908E+02  0.63242742854E+02  0.12700000000E+01 0.  1.
          4   -1    0    0  501    0  0.00000000000E+00 -0.00000000000E+00 -0.61751464900E+02  0.61764523129E+02  0.12700000000E+01 0.  1.
         25    2    1    2    0    0  0.00000000000E+00  0.00000000000E+00  0.14785250074E+01  0.12500726598E+03  0.12499852204E+03 0.  0.
    9000005    1    3    3    0    0 -0.54651269135E+02  0.27256932909E+02 -0.12507645301E+02  0.62346955023E+02  0.10000000000E+01 0.  0.
    9000005    1    3    3    0    0  0.54651269135E+02 -0.27256932909E+02  0.13986170308E+02  0.62660310960E+02  0.10000000000E+01 0.  0.
<mgrwt>
<rscale>  0 0.12499852E+03</rscale>
<asrwt>0</asrwt>
<pdfrwt beam="2">  1        4 0.15441093E-01 0.12499852E+03</pdfrwt>
<pdfrwt beam="1">  1       -4 0.15810724E-01 0.12499852E+03</pdfrwt>
<totfact> 0.19835347E+03</totfact>
</mgrwt>
</event>
<event>
 5    1  0.1430314E-002  0.1249955E+03  0.7818608E-02  0.1235076E+00
         -4   -1    0    0    0  501 -0.00000000000E+00  0.00000000000E+00  0.11447096655E+03  0.11447801135E+03  0.12700000000E+01 0.  1.
          4   -1    0    0  501    0  0.00000000000E+00 -0.00000000000E+00 -0.34102015797E+02  0.34125655765E+02  0.12700000000E+01 0.  1.
         25    2    1    2    0    0  0.00000000000E+00  0.00000000000E+00  0.80368950753E+02  0.14860366712E+03  0.12499552646E+03 0.  0.
    9000005    1    3    3    0    0  0.16727454509E+02  0.69609752732E+00  0.11176086360E+03  0.11301231313E+03  0.10000000000E+01 0.  0.
    9000005    1    3    3    0    0 -0.16727454509E+02 -0.69609752732E+00 -0.31391912850E+02  0.35591353985E+02  0.10000000000E+01 0.  0.
<mgrwt>
<rscale>  0 0.12499553E+03</rscale>
<asrwt>0</asrwt>
<pdfrwt beam="2">  1        4 0.85293397E-02 0.12499553E+03</pdfrwt>
<pdfrwt beam="1">  1       -4 0.28621577E-01 0.12499553E+03</pdfrwt>
<totfact> 0.18609590E+03</totfact>
</mgrwt>
</event>
<event>
 5    1  0.1430314E-002  0.1250022E+03  0.7818608E-02  0.1235066E+00
         -4   -1    0    0    0  501 -0.00000000000E+00  0.00000000000E+00  0.57758839909E+02  0.57772800587E+02  0.12700000000E+01 0. -1.
          4   -1    0    0  501    0  0.00000000000E+00 -0.00000000000E+00 -0.67604665275E+02  0.67616593133E+02  0.12700000000E+01 0. -1.
         25    2    1    2    0    0  0.00000000000E+00  0.00000000000E+00 -0.98458253659E+01  0.12538939372E+03  0.12500223910E+03 0.  0.
    9000005    1    3    3    0    0  0.12809385371E+02 -0.51077608770E+02 -0.38678101252E+02  0.65345221613E+02  0.10000000000E+01 0.  0.
    9000005    1    3    3    0    0 -0.12809385371E+02  0.51077608770E+02  0.28832275886E+02  0.60044172107E+02  0.10000000000E+01 0.  0.
<mgrwt>
<rscale>  0 0.12500224E+03</rscale>
<asrwt>0</asrwt>
<pdfrwt beam="2">  1        4 0.16904402E-01 0.12500224E+03</pdfrwt>
<pdfrwt beam="1">  1       -4 0.14442946E-01 0.12500224E+03</pdfrwt>
<totfact> 0.19812914E+03</totfact>
</mgrwt>
</event>
<event>
 5    1  0.1430314E-002  0.1249999E+03  0.7818608E-02  0.1235069E+00
          4   -1    0    0  501    0  0.00000000000E+00  0.00000000000E+00  0.87420028995E+02  0.87429253511E+02  0.12700000000E+01 0. -1.
         -4   -1    0    0    0  501 -0.00000000000E+00 -0.00000000000E+00 -0.44663037571E+02  0.44681090241E+02  0.12700000000E+01 0. -1.
         25    2    1    2    0    0  0.00000000000E+00  0.00000000000E+00  0.42756991424E+02  0.13211034375E+03  0.12499993044E+03 0.  0.
    9000005    1    3    3    0    0 -0.58884297640E+02  0.55577725724E+01  0.42700218182E+02  0.72955863214E+02  0.10000000000E+01 0.  0.
    9000005    1    3    3    0    0  0.58884297640E+02 -0.55577725724E+01  0.56773241862E-01  0.59154480538E+02  0.10000000000E+01 0.  0.
<mgrwt>
<rscale>  0 0.12499993E+03</rscale>
<asrwt>0</asrwt>
<pdfrwt beam="1">  1        4 0.21858417E-01 0.12499993E+03</pdfrwt>
<pdfrwt beam="2">  1       -4 0.11169169E-01 0.12499993E+03</pdfrwt>
<totfact> 0.19451620E+03</totfact>
</mgrwt>
</event>
<event>
 5    1  0.1430314E-002  0.1249942E+03  0.7818608E-02  0.1235078E+00
         -4   -1    0    0    0  501 -0.00000000000E+00  0.00000000000E+00  0.13614912414E+02  0.13674016968E+02  0.12700000000E+01 0. -1.
          4   -1    0    0  501    0  0.00000000000E+00 -0.00000000000E+00 -0.28620132012E+03  0.28620413788E+03  0.12700000000E+01 0. -1.
         25    2    1    2    0    0  0.00000000000E+00  0.00000000000E+00 -0.27258640770E+03  0.29987815484E+03  0.12499423222E+03 0.  0.
    9000005    1    3    3    0    0  0.60280425290E+02  0.16452452137E+02 -0.13463681368E+03  0.14843343442E+03  0.10000000000E+01 0.  0.
    9000005    1    3    3    0    0 -0.60280425290E+02 -0.16452452137E+02 -0.13794959402E+03  0.15144472043E+03  0.10000000000E+01 0.  0.
<mgrwt>
<rscale>  0 0.12499423E+03</rscale>
<asrwt>0</asrwt>
<pdfrwt beam="2">  1        4 0.71558051E-01 0.12499423E+03</pdfrwt>
<pdfrwt beam="1">  1       -4 0.34114693E-02 0.12499423E+03</pdfrwt>
<totfact> 0.12976188E+03</totfact>
</mgrwt>
</event>
<event>
 5    1  0.1430314E-002  0.1249975E+03  0.7818608E-02  0.1235073E+00
         -4   -1    0    0    0  501 -0.00000000000E+00  0.00000000000E+00  0.19940144915E+02  0.19980547521E+02  0.12700000000E+01 0.  1.
          4   -1    0    0  501    0  0.00000000000E+00 -0.00000000000E+00 -0.19565022955E+03  0.19565435140E+03  0.12700000000E+01 0.  1.
         25    2    1    2    0    0  0.00000000000E+00  0.00000000000E+00 -0.17571008464E+03  0.21563489893E+03  0.12499750314E+03 0.  0.
    9000005    1    3    3    0    0 -0.11795346442E+02 -0.58819024188E+02 -0.11804631264E+03  0.13241880430E+03  0.10000000000E+01 0.  0.
    9000005    1    3    3    0    0  0.11795346442E+02  0.58819024188E+02 -0.57663771996E+02  0.83216094627E+02  0.10000000000E+01 0.  0.
<mgrwt>
<rscale>  0 0.12499750E+03</rscale>
<asrwt>0</asrwt>
<pdfrwt beam="2">  1        4 0.48918117E-01 0.12499750E+03</pdfrwt>
<pdfrwt beam="1">  1       -4 0.49906024E-02 0.12499750E+03</pdfrwt>
<totfact> 0.15715471E+03</totfact>
</mgrwt>
</event>
<event>
 5    1  0.1430314E-002  0.1250099E+03  0.7818608E-02  0.1235054E+00
          4   -1    0    0  501    0  0.00000000000E+00  0.00000000000E+00  0.27886455547E+02  0.27915359625E+02  0.12700000000E+01 0. -1.
         -4   -1    0    0    0  501 -0.00000000000E+00 -0.00000000000E+00 -0.13999472398E+03  0.14000048443E+03  0.12700000000E+01 0. -1.
         25    2    1    2    0    0  0.00000000000E+00  0.00000000000E+00 -0.11210826843E+03  0.16791584406E+03  0.12500986695E+03 0.  0.
    9000005    1    3    3    0    0 -0.59785984157E+02  0.15445804608E+02 -0.43105463635E+02  0.75312799555E+02  0.10000000000E+01 0.  0.
    9000005    1    3    3    0    0  0.59785984157E+02 -0.15445804608E+02 -0.69002804793E+02  0.92603044501E+02  0.10000000000E+01 0.  0.
<mgrwt>
<rscale>  0 0.12500987E+03</rscale>
<asrwt>0</asrwt>
<pdfrwt beam="1">  1        4 0.69759473E-02 0.12500987E+03</pdfrwt>
<pdfrwt beam="2">  1       -4 0.35003012E-01 0.12500987E+03</pdfrwt>
<totfact> 0.17687411E+03</totfact>
</mgrwt>
</event>
<event>
 5    1  0.1430314E-002  0.1250013E+03  0.7818608E-02  0.1235067E+00
          4   -1    0    0  501    0  0.00000000000E+00  0.00000000000E+00  0.17987432753E+02  0.18032211097E+02  0.12700000000E+01 0.  1.
         -4   -1    0    0    0  501 -0.00000000000E+00 -0.00000000000E+00 -0.21685342920E+03  0.21685714803E+03  0.12700000000E+01 0.  1.
         25    2    1    2    0    0  0.00000000000E+00  0.00000000000E+00 -0.19886599644E+03  0.23488935913E+03  0.12500130596E+03 0.  0.
    9000005    1    3    3    0    0  0.33033892819E+02 -0.37373799646E+02 -0.28690798534E+02  0.57551723651E+02  0.10000000000E+01 0.  0.
    9000005    1    3    3    0    0 -0.33033892819E+02  0.37373799646E+02 -0.17017519791E+03  0.17733763548E+03  0.10000000000E+01 0.  0.
<mgrwt>
<rscale>  0 0.12500131E+03</rscale>
<asrwt>0</asrwt>
<pdfrwt beam="1">  1        4 0.45029210E-02 0.12500131E+03</pdfrwt>
<pdfrwt beam="2">  1       -4 0.54219411E-01 0.12500131E+03</pdfrwt>
<totfact> 0.15013713E+03</totfact>
</mgrwt>
</event>
<event>
 5    1  0.1430314E-002  0.1249995E+03  0.7818608E-02  0.1235070E+00
         -4   -1    0    0    0  501 -0.00000000000E+00  0.00000000000E+00  0.99201448968E+02  0.99209578053E+02  0.12700000000E+01 0. -1.
          4   -1    0    0  501    0  0.00000000000E+00 -0.00000000000E+00 -0.39356659202E+02  0.39377144685E+02  0.12700000000E+01 0. -1.
         25    2    1    2    0    0  0.00000000000E+00  0.00000000000E+00  0.59844789766E+02  0.13858672274E+03  0.12499952343E+03 0.  0.
    9000005    1    3    3    0    0  0.46254482249E+02 -0.30025095878E+02 -0.26710016905E+01  0.55218817089E+02  0.10000000000E+01 0.  0.
    9000005    1    3    3    0    0 -0.46254482249E+02  0.30025095878E+02  0.62515791457E+02  0.83367905648E+02  0.10000000000E+01 0.  0.
<mgrwt>
<rscale>  0 0.12499952E+03</rscale>
<asrwt>0</asrwt>
<pdfrwt beam="2">  1        4 0.98427417E-02 0.12499952E+03</pdfrwt>
<pdfrwt beam="1">  1       -4 0.24803939E-01 0.12499952E+03</pdfrwt>
<totfact> 0.19113090E+03</totfact>
</mgrwt>
</event>
<event>
 5    1  0.1430314E-002  0.1249992E+03  0.7818608E-02  0.1235071E+00
         -4   -1    0    0    0  501 -0.00000000000E+00  0.00000000000E+00  0.69514516453E+03  0.69514632465E+03  0.12700000000E+01 0.  1.
          4   -1    0    0  501    0  0.00000000000E+00 -0.00000000000E+00 -0.55463182017E+01  0.56898634074E+01  0.12700000000E+01 0.  1.
         25    2    1    2    0    0  0.00000000000E+00  0.00000000000E+00  0.68959884633E+03  0.70083618805E+03  0.12499917451E+03 0.  0.
    9000005    1    3    3    0    0 -0.12186268075E+02  0.60307153858E+02  0.40615158283E+03  0.41078652141E+03  0.10000000000E+01 0.  0.
    9000005    1    3    3    0    0  0.12186268075E+02 -0.60307153858E+02  0.28344726349E+03  0.29004966664E+03  0.10000000000E+01 0.  0.
<mgrwt>
<rscale>  0 0.12499917E+03</rscale>
<asrwt>0</asrwt>
<pdfrwt beam="2">  1        4 0.14046676E-02 0.12499917E+03</pdfrwt>
<pdfrwt beam="1">  1       -4 0.17380439E+00 0.12499917E+03</pdfrwt>
<totfact> 0.61979697E+02</totfact>
</mgrwt>
</event>
<event>
 5    1  0.1430314E-002  0.1250019E+03  0.7818608E-02  0.1235066E+00
         -4   -1    0    0    0  501 -0.00000000000E+00  0.00000000000E+00  0.41414696555E+03  0.41414891280E+03  0.12700000000E+01 0.  1.
          4   -1    0    0  501    0  0.00000000000E+00 -0.00000000000E+00 -0.93875951908E+01  0.94731116042E+01  0.12700000000E+01 0.  1.
         25    2    1    2    0    0  0.00000000000E+00  0.00000000000E+00  0.40475937036E+03  0.42362202440E+03  0.12500188666E+03 0.  0.
    9000005    1    3    3    0    0 -0.89359469967E+01  0.56252199936E+02  0.11523706593E+03  0.12854859980E+03  0.10000000000E+01 0.  0.
    9000005    1    3    3    0    0  0.89359469967E+01 -0.56252199936E+02  0.28952230443E+03  0.29507342460E+03  0.10000000000E+01 0.  0.
<mgrwt>
<rscale>  0 0.12500189E+03</rscale>
<asrwt>0</asrwt>
<pdfrwt beam="2">  1        4 0.23578317E-02 0.12500189E+03</pdfrwt>
<pdfrwt beam="1">  1       -4 0.10354768E+00 0.12500189E+03</pdfrwt>
<totfact> 0.10094751E+03</totfact>
</mgrwt>
</event>
<event>
 5    1  0.1430314E-002  0.1249995E+03  0.7818608E-02  0.1235070E+00
         -4   -1    0    0    0  501 -0.00000000000E+00  0.00000000000E+00  0.29156235201E+02  0.29183881700E+02  0.12700000000E+01 0.  1.
          4   -1    0    0  501    0  0.00000000000E+00 -0.00000000000E+00 -0.13388135569E+03  0.13388737917E+03  0.12700000000E+01 0.  1.
         25    2    1    2    0    0  0.00000000000E+00  0.00000000000E+00 -0.10472512049E+03  0.16307126087E+03  0.12499954104E+03 0.  0.
    9000005    1    3    3    0    0 -0.20373692014E+02 -0.53064388421E+02 -0.18486172535E+02  0.59780057040E+02  0.10000000000E+01 0.  0.
    9000005    1    3    3    0    0  0.20373692014E+02  0.53064388421E+02 -0.86238947950E+02  0.10329120383E+03  0.10000000000E+01 0.  0.
<mgrwt>
<rscale>  0 0.12499954E+03</rscale>
<asrwt>0</asrwt>
<pdfrwt beam="2">  1        4 0.33474546E-01 0.12499954E+03</pdfrwt>
<pdfrwt beam="1">  1       -4 0.72932679E-02 0.12499954E+03</pdfrwt>
<totfact> 0.17914358E+03</totfact>
</mgrwt>
</event>
<event>
 5    1  0.1430314E-002  0.1249981E+03  0.7818608E-02  0.1235072E+00
         -4   -1    0    0    0  501 -0.00000000000E+00  0.00000000000E+00  0.47040375624E+02  0.47057516284E+02  0.12700000000E+01 0.  1.
          4   -1    0    0  501    0  0.00000000000E+00 -0.00000000000E+00 -0.83000758669E+02  0.83010474276E+02  0.12700000000E+01 0.  1.
         25    2    1    2    0    0  0.00000000000E+00  0.00000000000E+00 -0.35960383045E+02  0.13006799056E+03  0.12499813207E+03 0.  0.
    9000005    1    3    3    0    0 -0.20812030099E+02 -0.54104665176E+02  0.63047337071E+01  0.58319851318E+02  0.10000000000E+01 0.  0.
    9000005    1    3    3    0    0  0.20812030099E+02  0.54104665176E+02 -0.42265116752E+02  0.71748139242E+02  0.10000000000E+01 0.  0.
<mgrwt>
<rscale>  0 0.12499813E+03</rscale>
<asrwt>0</asrwt>
<pdfrwt beam="2">  1        4 0.20753546E-01 0.12499813E+03</pdfrwt>
<pdfrwt beam="1">  1       -4 0.11763451E-01 0.12499813E+03</pdfrwt>
<totfact> 0.19561581E+03</totfact>
</mgrwt>
</event>
<event>
 5    1  0.1430314E-002  0.1249926E+03  0.7818608E-02  0.1235081E+00
          4   -1    0    0  501    0  0.00000000000E+00  0.00000000000E+00  0.43093953838E+02  0.43112663538E+02  0.12700000000E+01 0. -1.
         -4   -1    0    0    0  501 -0.00000000000E+00 -0.00000000000E+00 -0.90591433619E+02  0.90600335237E+02  0.12700000000E+01 0. -1.
         25    2    1    2    0    0  0.00000000000E+00  0.00000000000E+00 -0.47497479781E+02  0.13371299878E+03  0.12499262161E+03 0.  0.
    9000005    1    3    3    0    0  0.94300010727E+01 -0.85504060476E+01  0.41697533520E+02  0.43608699424E+02  0.10000000000E+01 0.  0.
    9000005    1    3    3    0    0 -0.94300010727E+01  0.85504060476E+01 -0.89195013301E+02  0.90104299351E+02  0.10000000000E+01 0.  0.
<mgrwt>
<rscale>  0 0.12499262E+03</rscale>
<asrwt>0</asrwt>
<pdfrwt beam="1">  1        4 0.10776940E-01 0.12499262E+03</pdfrwt>
<pdfrwt beam="2">  1       -4 0.22651309E-01 0.12499262E+03</pdfrwt>
<totfact> 0.19370097E+03</totfact>
</mgrwt>
</event>
<event>
 5    1  0.1430314E-002  0.1249734E+03  0.7818608E-02  0.1235111E+00
          4   -1    0    0  501    0  0.00000000000E+00  0.00000000000E+00  0.13772043885E+04  0.13772049741E+04  0.12700000000E+01 0. -1.
         -4   -1    0    0    0  501 -0.00000000000E+00 -0.00000000000E+00 -0.26923150572E+01  0.29768205131E+01  0.12700000000E+01 0. -1.
         25    2    1    2    0    0  0.00000000000E+00  0.00000000000E+00  0.13745120734E+04  0.13801817946E+04  0.12497338140E+03 0.  0.
    9000005    1    3    3    0    0 -0.41481363749E+02 -0.37756805392E+02  0.99117279715E+03  0.99275918212E+03  0.10000000000E+01 0.  0.
    9000005    1    3    3    0    0  0.41481363749E+02  0.37756805392E+02  0.38333927629E+03  0.38742261245E+03  0.10000000000E+01 0.  0.
<mgrwt>
<rscale>  0 0.12497338E+03</rscale>
<asrwt>0</asrwt>
<pdfrwt beam="1">  1        4 0.34433635E+00 0.12497338E+03</pdfrwt>
<pdfrwt beam="2">  1       -4 0.70871593E-03 0.12497338E+03</pdfrwt>
<totfact> 0.16885618E+02</totfact>
</mgrwt>
</event>
<event>
 5    1  0.1430314E-002  0.1250510E+03  0.7818608E-02  0.1234990E+00
          4   -1    0    0  501    0  0.00000000000E+00  0.00000000000E+00  0.11781661702E+03  0.11782346178E+03  0.12700000000E+01 0.  1.
         -4   -1    0    0    0  501 -0.00000000000E+00 -0.00000000000E+00 -0.33162446534E+02  0.33186755794E+02  0.12700000000E+01 0.  1.
         25    2    1    2    0    0  0.00000000000E+00  0.00000000000E+00  0.84654170484E+02  0.15101021757E+03  0.12505101851E+03 0.  0.
    9000005    1    3    3    0    0 -0.29343585442E+02  0.30482667532E+02 -0.13250875884E+02  0.44348897824E+02  0.10000000000E+01 0.  0.
    9000005    1    3    3    0    0  0.29343585442E+02 -0.30482667532E+02  0.97905046368E+02  0.10666131975E+03  0.10000000000E+01 0.  0.
<mgrwt>
<rscale>  0 0.12505102E+03</rscale>
<asrwt>0</asrwt>
<pdfrwt beam="1">  1        4 0.29458048E-01 0.12505102E+03</pdfrwt>
<pdfrwt beam="2">  1       -4 0.82945060E-02 0.12505102E+03</pdfrwt>
<totfact> 0.18467288E+03</totfact>
</mgrwt>
</event>
<event>
 5    1  0.1430314E-002  0.1249993E+03  0.7818608E-02  0.1235070E+00
          4   -1    0    0  501    0  0.00000000000E+00  0.00000000000E+00  0.28832220742E+03  0.28832500445E+03  0.12700000000E+01 0. -1.
         -4   -1    0    0    0  501 -0.00000000000E+00 -0.00000000000E+00 -0.13515436121E+02  0.13574973795E+02  0.12700000000E+01 0. -1.
         25    2    1    2    0    0  0.00000000000E+00  0.00000000000E+00  0.27480677130E+03  0.30189997824E+03  0.12499934125E+03 0.  0.
    9000005    1    3    3    0    0 -0.55983278472E+02 -0.25385617886E+02  0.11022266422E+03  0.12620852892E+03  0.10000000000E+01 0.  0.
    9000005    1    3    3    0    0  0.55983278472E+02  0.25385617886E+02  0.16458410707E+03  0.17569144932E+03  0.10000000000E+01 0.  0.
<mgrwt>
<rscale>  0 0.12499934E+03</rscale>
<asrwt>0</asrwt>
<pdfrwt beam="1">  1        4 0.72088340E-01 0.12499934E+03</pdfrwt>
<pdfrwt beam="2">  1       -4 0.33866511E-02 0.12499934E+03</pdfrwt>
<totfact> 0.12918168E+03</totfact>
</mgrwt>
</event>
<event>
 5    1  0.1430314E-002  0.1249985E+03  0.7818608E-02  0.1235072E+00
         -4   -1    0    0    0  501 -0.00000000000E+00  0.00000000000E+00  0.63207932274E+03  0.63208059861E+03  0.12700000000E+01 0.  1.
          4   -1    0    0  501    0  0.00000000000E+00 -0.00000000000E+00 -0.61133072895E+01  0.62438310368E+01  0.12700000000E+01 0.  1.
         25    2    1    2    0    0  0.00000000000E+00  0.00000000000E+00  0.62596601545E+03  0.63832442965E+03  0.12499849992E+03 0.  0.
    9000005    1    3    3    0    0  0.28726988905E+02  0.41588989676E+02  0.12533353753E+03  0.13514577161E+03  0.10000000000E+01 0.  0.
    9000005    1    3    3    0    0 -0.28726988905E+02 -0.41588989676E+02  0.50063247792E+03  0.50317865803E+03  0.10000000000E+01 0.  0.
<mgrwt>
<rscale>  0 0.12499850E+03</rscale>
<asrwt>0</asrwt>
<pdfrwt beam="2">  1        4 0.15448016E-02 0.12499850E+03</pdfrwt>
<pdfrwt beam="1">  1       -4 0.15803632E+00 0.12499850E+03</pdfrwt>
<totfact> 0.68865241E+02</totfact>
</mgrwt>
</event>
<event>
 5    1  0.1430314E-002  0.1249885E+03  0.7818608E-02  0.1235087E+00
          4   -1    0    0  501    0  0.00000000000E+00  0.00000000000E+00  0.22216183119E+03  0.22216546117E+03  0.12700000000E+01 0. -1.
         -4   -1    0    0    0  501 -0.00000000000E+00 -0.00000000000E+00 -0.17552941654E+02  0.17598825549E+02  0.12700000000E+01 0. -1.
         25    2    1    2    0    0  0.00000000000E+00  0.00000000000E+00  0.20460888954E+03  0.23976428672E+03  0.12498846150E+03 0.  0.
    9000005    1    3    3    0    0 -0.57513302114E+02  0.23562140156E+02  0.89935628620E+02  0.10932690275E+03  0.10000000000E+01 0.  0.
    9000005    1    3    3    0    0  0.57513302114E+02 -0.23562140156E+02  0.11467326092E+03  0.13043738397E+03  0.10000000000E+01 0.  0.
<mgrwt>
<rscale>  0 0.12498846E+03</rscale>
<asrwt>0</asrwt>
<pdfrwt beam="1">  1        4 0.55546647E-01 0.12498846E+03</pdfrwt>
<pdfrwt beam="2">  1       -4 0.43944246E-02 0.12498846E+03</pdfrwt>
<totfact> 0.14848521E+03</totfact>
</mgrwt>
</event>
<event>
 5    1  0.1430314E-002  0.1249999E+03  0.7818608E-02  0.1235069E+00
          4   -1    0    0  501    0  0.00000000000E+00  0.00000000000E+00  0.96871443793E+02  0.96879768386E+02  0.12700000000E+01 0. -1.
         -4   -1    0    0    0  501 -0.00000000000E+00 -0.00000000000E+00 -0.40303920678E+02  0.40323924933E+02  0.12700000000E+01 0. -1.
         25    2    1    2    0    0  0.00000000000E+00  0.00000000000E+00  0.56567523116E+02  0.13720369332E+03  0.12499987516E+03 0.  0.
    9000005    1    3    3    0    0 -0.61744002673E+02 -0.93665934274E+01  0.25783846916E+02  0.67571160270E+02  0.10000000000E+01 0.  0.
    9000005    1    3    3    0    0  0.61744002673E+02  0.93665934274E+01  0.30783676199E+02  0.69632533049E+02  0.10000000000E+01 0.  0.
<mgrwt>
<rscale>  0 0.12499988E+03</rscale>
<asrwt>0</asrwt>
<pdfrwt beam="1">  1        4 0.24221402E-01 0.12499988E+03</pdfrwt>
<pdfrwt beam="2">  1       -4 0.10079521E-01 0.12499988E+03</pdfrwt>
<totfact> 0.19184379E+03</totfact>
</mgrwt>
</event>
<event>
 5    1  0.1430314E-002  0.1250090E+03  0.7818608E-02  0.1235055E+00
         -4   -1    0    0    0  501 -0.00000000000E+00  0.00000000000E+00  0.32064972347E+03  0.32065223851E+03  0.12700000000E+01 0. -1.
          4   -1    0    0  501    0  0.00000000000E+00 -0.00000000000E+00 -0.12148386043E+02  0.12214588959E+02  0.12700000000E+01 0. -1.
         25    2    1    2    0    0  0.00000000000E+00  0.00000000000E+00  0.30850133743E+03  0.33286682747E+03  0.12500899822E+03 0.  0.
    9000005    1    3    3    0    0 -0.36149540027E+02  0.49573575656E+02  0.12257815446E+03  0.13707929310E+03  0.10000000000E+01 0.  0.
    9000005    1    3    3    0    0  0.36149540027E+02 -0.49573575656E+02  0.18592318297E+03  0.19578753437E+03  0.10000000000E+01 0.  0.
<mgrwt>
<rscale>  0 0.12500900E+03</rscale>
<asrwt>0</asrwt>
<pdfrwt beam="2">  1        4 0.30456863E-02 0.12500900E+03</pdfrwt>
<pdfrwt beam="1">  1       -4 0.80171019E-01 0.12500900E+03</pdfrwt>
<totfact> 0.12094965E+03</totfact>
</mgrwt>
</event>
<event>
 5    1  0.1430314E-002  0.1249943E+03  0.7818608E-02  0.1235078E+00
          4   -1    0    0  501    0  0.00000000000E+00  0.00000000000E+00  0.23826775916E+02  0.23860598286E+02  0.12700000000E+01 0.  1.
         -4   -1    0    0    0  501 -0.00000000000E+00 -0.00000000000E+00 -0.16377623879E+03  0.16378116281E+03  0.12700000000E+01 0.  1.
         25    2    1    2    0    0  0.00000000000E+00  0.00000000000E+00 -0.13994946287E+03  0.18764176110E+03  0.12499431327E+03 0.  0.
    9000005    1    3    3    0    0 -0.28356516208E+02  0.11969244675E+02 -0.15161502191E+03  0.15471092301E+03  0.10000000000E+01 0.  0.
    9000005    1    3    3    0    0  0.28356516208E+02 -0.11969244675E+02  0.11665559037E+02  0.32930838088E+02  0.10000000000E+01 0.  0.
<mgrwt>
<rscale>  0 0.12499431E+03</rscale>
<asrwt>0</asrwt>
<pdfrwt beam="1">  1        4 0.59615378E-02 0.12499431E+03</pdfrwt>
<pdfrwt beam="2">  1       -4 0.40948900E-01 0.12499431E+03</pdfrwt>
<totfact> 0.16831361E+03</totfact>
</mgrwt>
</event>
<event>
 5    1  0.1430314E-002  0.1250002E+03  0.7818608E-02  0.1235069E+00
         -4   -1    0    0    0  501 -0.00000000000E+00  0.00000000000E+00  0.53526355559E+01  0.55012368968E+01  0.12700000000E+01 0.  1.
          4   -1    0    0  501    0  0.00000000000E+00 -0.00000000000E+00 -0.71964285907E+03  0.71964397969E+03  0.12700000000E+01 0.  1.
         25    2    1    2    0    0  0.00000000000E+00  0.00000000000E+00 -0.71429022351E+03  0.72514521659E+03  0.12500024695E+03 0.  0.
    9000005    1    3    3    0    0  0.26440678560E+02 -0.21488396303E+02 -0.66105035902E+03  0.66192857456E+03  0.10000000000E+01 0.  0.
    9000005    1    3    3    0    0 -0.26440678560E+02  0.21488396303E+02 -0.53239864494E+02  0.63216642031E+02  0.10000000000E+01 0.  0.
<mgrwt>
<rscale>  0 0.12500025E+03</rscale>
<asrwt>0</asrwt>
<pdfrwt beam="2">  1        4 0.17992910E+00 0.12500025E+03</pdfrwt>
<pdfrwt beam="1">  1       -4 0.13568766E-02 0.12500025E+03</pdfrwt>
<totfact> 0.59497099E+02</totfact>
</mgrwt>
</event>
<event>
 5    1  0.1430314E-002  0.1249972E+03  0.7818608E-02  0.1235074E+00
          4   -1    0    0  501    0  0.00000000000E+00  0.00000000000E+00  0.18800232836E+02  0.18843079756E+02  0.12700000000E+01 0. -1.
         -4   -1    0    0    0  501 -0.00000000000E+00 -0.00000000000E+00 -0.20748601354E+03  0.20748990027E+03  0.12700000000E+01 0. -1.
         25    2    1    2    0    0  0.00000000000E+00  0.00000000000E+00 -0.18868578070E+03  0.22633298002E+03  0.12499717600E+03 0.  0.
    9000005    1    3    3    0    0 -0.58914130575E+02  0.16532488401E+02 -0.71376504350E+02  0.94020228288E+02  0.10000000000E+01 0.  0.
    9000005    1    3    3    0    0  0.58914130575E+02 -0.16532488401E+02 -0.11730927635E+03  0.13231275173E+03  0.10000000000E+01 0.  0.
<mgrwt>
<rscale>  0 0.12499718E+03</rscale>
<asrwt>0</asrwt>
<pdfrwt beam="1">  1        4 0.47059006E-02 0.12499718E+03</pdfrwt>
<pdfrwt beam="2">  1       -4 0.51877338E-01 0.12499718E+03</pdfrwt>
<totfact> 0.15320232E+03</totfact>
</mgrwt>
</event>
<event>
 5    1  0.1430314E-002  0.1249982E+03  0.7818608E-02  0.1235072E+00
          4   -1    0    0  501    0  0.00000000000E+00  0.00000000000E+00  0.16378845513E+03  0.16379337878E+03  0.12700000000E+01 0. -1.
         -4   -1    0    0    0  501 -0.00000000000E+00 -0.00000000000E+00 -0.23826485426E+02  0.23860308207E+02  0.12700000000E+01 0. -1.
         25    2    1    2    0    0  0.00000000000E+00  0.00000000000E+00  0.13996196970E+03  0.18765368699E+03  0.12499821310E+03 0.  0.
    9000005    1    3    3    0    0  0.41751067315E+02  0.50168215533E+01  0.13937740761E+03  0.14558633821E+03  0.10000000000E+01 0.  0.
    9000005    1    3    3    0    0 -0.41751067315E+02 -0.50168215533E+01  0.58456208665E+00  0.42067348779E+02  0.10000000000E+01 0.  0.
<mgrwt>
<rscale>  0 0.12499821E+03</rscale>
<asrwt>0</asrwt>
<pdfrwt beam="1">  1        4 0.40951957E-01 0.12499821E+03</pdfrwt>
<pdfrwt beam="2">  1       -4 0.59614647E-02 0.12499821E+03</pdfrwt>
<totfact> 0.16829340E+03</totfact>
</mgrwt>
</event>
<event>
 5    1  0.1430314E-002  0.1250006E+03  0.7818608E-02  0.1235068E+00
          4   -1    0    0  501    0  0.00000000000E+00  0.00000000000E+00  0.42917175179E+01  0.44756831047E+01  0.12700000000E+01 0.  1.
         -4   -1    0    0    0  501 -0.00000000000E+00 -0.00000000000E+00 -0.89090917761E+03  0.89091008281E+03  0.12700000000E+01 0.  1.
         25    2    1    2    0    0  0.00000000000E+00  0.00000000000E+00 -0.88661746010E+03  0.89538576592E+03  0.12500059704E+03 0.  0.
    9000005    1    3    3    0    0 -0.37600461521E+02  0.21790607286E+02 -0.76498176809E+03  0.76621585130E+03  0.10000000000E+01 0.  0.
    9000005    1    3    3    0    0  0.37600461521E+02 -0.21790607286E+02 -0.12163569200E+03  0.12916991461E+03  0.10000000000E+01 0.  0.
<mgrwt>
<rscale>  0 0.12500060E+03</rscale>
<asrwt>0</asrwt>
<pdfrwt beam="1">  1        4 0.10960413E-02 0.12500060E+03</pdfrwt>
<pdfrwt beam="2">  1       -4 0.22274978E+00 0.12500060E+03</pdfrwt>
<totfact> 0.44627582E+02</totfact>
</mgrwt>
</event>
<event>
 5    1  0.1430314E-002  0.1250009E+03  0.7818608E-02  0.1235068E+00
          4   -1    0    0  501    0  0.00000000000E+00  0.00000000000E+00  0.39174715127E+02  0.39195295703E+02  0.12700000000E+01 0.  1.
         -4   -1    0    0    0  501 -0.00000000000E+00 -0.00000000000E+00 -0.99664129673E+02  0.99672221022E+02  0.12700000000E+01 0.  1.
         25    2    1    2    0    0  0.00000000000E+00  0.00000000000E+00 -0.60489414546E+02  0.13886751673E+03  0.12500087171E+03 0.  0.
    9000005    1    3    3    0    0  0.54077220857E+00 -0.36968366441E+02  0.25726354444E+02  0.45053278070E+02  0.10000000000E+01 0.  0.
    9000005    1    3    3    0    0 -0.54077220857E+00  0.36968366441E+02 -0.86215768990E+02  0.93814238655E+02  0.10000000000E+01 0.  0.
<mgrwt>
<rscale>  0 0.12500087E+03</rscale>
<asrwt>0</asrwt>
<pdfrwt beam="1">  1        4 0.97972630E-02 0.12500087E+03</pdfrwt>
<pdfrwt beam="2">  1       -4 0.24919616E-01 0.12500087E+03</pdfrwt>
<totfact> 0.19098040E+03</totfact>
</mgrwt>
</event>
<event>
 5    1  0.1430314E-002  0.1250012E+03  0.7818608E-02  0.1235067E+00
          4   -1    0    0  501    0  0.00000000000E+00  0.00000000000E+00  0.14095539360E+03  0.14096111479E+03  0.12700000000E+01 0.  1.
         -4   -1    0    0    0  501 -0.00000000000E+00 -0.00000000000E+00 -0.27692377208E+02  0.27721483644E+02  0.12700000000E+01 0.  1.
         25    2    1    2    0    0  0.00000000000E+00  0.00000000000E+00  0.11326301639E+03  0.16868259844E+03  0.12500123253E+03 0.  0.
    9000005    1    3    3    0    0 -0.57909302556E+02  0.10429448280E+02  0.28226798432E+02  0.65268774032E+02  0.10000000000E+01 0.  0.
    9000005    1    3    3    0    0  0.57909302556E+02 -0.10429448280E+02  0.85036217956E+02  0.10341382441E+03  0.10000000000E+01 0.  0.
<mgrwt>
<rscale>  0 0.12500123E+03</rscale>
<asrwt>0</asrwt>
<pdfrwt beam="1">  1        4 0.35243201E-01 0.12500123E+03</pdfrwt>
<pdfrwt beam="2">  1       -4 0.69274479E-02 0.12500123E+03</pdfrwt>
<totfact> 0.17656126E+03</totfact>
</mgrwt>
</event>
<event>
 5    1  0.1430314E-002  0.1249975E+03  0.7818608E-02  0.1235073E+00
         -4   -1    0    0    0  501 -0.00000000000E+00  0.00000000000E+00  0.65340647366E+02  0.65352988441E+02  0.12700000000E+01 0. -1.
          4   -1    0    0  501    0  0.00000000000E+00 -0.00000000000E+00 -0.59755702917E+02  0.59769197176E+02  0.12700000000E+01 0. -1.
         25    2    1    2    0    0  0.00000000000E+00  0.00000000000E+00  0.55849444487E+01  0.12512218562E+03  0.12499747889E+03 0.  0.
    9000005    1    3    3    0    0  0.26068435946E+01  0.35091503068E+02 -0.48900924118E+02  0.60253710265E+02  0.10000000000E+01 0.  0.
    9000005    1    3    3    0    0 -0.26068435946E+01 -0.35091503068E+02  0.54485868566E+02  0.64868475352E+02  0.10000000000E+01 0.  0.
<mgrwt>
<rscale>  0 0.12499748E+03</rscale>
<asrwt>0</asrwt>
<pdfrwt beam="2">  1        4 0.14942155E-01 0.12499748E+03</pdfrwt>
<pdfrwt beam="1">  1       -4 0.16338391E-01 0.12499748E+03</pdfrwt>
<totfact> 0.19829600E+03</totfact>
</mgrwt>
</event>
<event>
 5    1  0.1430314E-002  0.1250001E+03  0.7818608E-02  0.1235069E+00
          4   -1    0    0  501    0  0.00000000000E+00  0.00000000000E+00  0.51968530671E+03  0.51968685852E+03  0.12700000000E+01 0.  1.
         -4   -1    0    0    0  501 -0.00000000000E+00 -0.00000000000E+00 -0.74613573935E+01  0.75686692458E+01  0.12700000000E+01 0.  1.
         25    2    1    2    0    0  0.00000000000E+00  0.00000000000E+00  0.51222394932E+03  0.52725552776E+03  0.12500006919E+03 0.  0.
    9000005    1    3    3    0    0  0.22609440685E+02  0.51601593729E+02  0.37018197815E+03  0.37444573470E+03  0.10000000000E+01 0.  0.
    9000005    1    3    3    0    0 -0.22609440685E+02 -0.51601593729E+02  0.14204197117E+03  0.15280979307E+03  0.10000000000E+01 0.  0.
<mgrwt>
<rscale>  0 0.12500007E+03</rscale>
<asrwt>0</asrwt>
<pdfrwt beam="1">  1        4 0.12993491E+00 0.12500007E+03</pdfrwt>
<pdfrwt beam="2">  1       -4 0.18789477E-02 0.12500007E+03</pdfrwt>
<totfact> 0.83428723E+02</totfact>
</mgrwt>
</event>
<event>
 5    1  0.1430314E-002  0.1249977E+03  0.7818608E-02  0.1235073E+00
          4   -1    0    0  501    0  0.00000000000E+00  0.00000000000E+00  0.20292857535E+03  0.20293254936E+03  0.12700000000E+01 0. -1.
         -4   -1    0    0    0  501 -0.00000000000E+00 -0.00000000000E+00 -0.19223565033E+02  0.19265470474E+02  0.12700000000E+01 0. -1.
         25    2    1    2    0    0  0.00000000000E+00  0.00000000000E+00  0.18370501031E+03  0.22219801984E+03  0.12499771680E+03 0.  0.
    9000005    1    3    3    0    0 -0.22795757919E+02  0.36672118714E+02  0.17215310578E+03  0.17748854245E+03  0.10000000000E+01 0.  0.
    9000005    1    3    3    0    0  0.22795757919E+02 -0.36672118714E+02  0.11551904528E+02  0.44709477388E+02  0.10000000000E+01 0.  0.
<mgrwt>
<rscale>  0 0.12499772E+03</rscale>
<asrwt>0</asrwt>
<pdfrwt beam="1">  1        4 0.50737878E-01 0.12499772E+03</pdfrwt>
<pdfrwt beam="2">  1       -4 0.48116263E-02 0.12499772E+03</pdfrwt>
<totfact> 0.15470974E+03</totfact>
</mgrwt>
</event>
<event>
 5    1  0.1430314E-002  0.1249980E+03  0.7818608E-02  0.1235072E+00
         -4   -1    0    0    0  501 -0.00000000000E+00  0.00000000000E+00  0.53053928756E+03  0.53054080761E+03  0.12700000000E+01 0. -1.
          4   -1    0    0  501    0  0.00000000000E+00 -0.00000000000E+00 -0.73062411669E+01  0.74157980008E+01  0.12700000000E+01 0. -1.
         25    2    1    2    0    0  0.00000000000E+00  0.00000000000E+00  0.52323304639E+03  0.53795660561E+03  0.12499795473E+03 0.  0.
    9000005    1    3    3    0    0  0.17811383075E+02  0.59777737977E+02  0.24522908472E+03  0.25303937898E+03  0.10000000000E+01 0.  0.
    9000005    1    3    3    0    0 -0.17811383075E+02 -0.59777737977E+02  0.27800396167E+03  0.28491722663E+03  0.10000000000E+01 0.  0.
<mgrwt>
<rscale>  0 0.12499795E+03</rscale>
<asrwt>0</asrwt>
<pdfrwt beam="2">  1        4 0.18404453E-02 0.12499795E+03</pdfrwt>
<pdfrwt beam="1">  1       -4 0.13264868E+00 0.12499795E+03</pdfrwt>
<totfact> 0.81874016E+02</totfact>
</mgrwt>
</event>
<event>
 5    1  0.1430314E-002  0.1250010E+03  0.7818608E-02  0.1235068E+00
         -4   -1    0    0    0  501 -0.00000000000E+00  0.00000000000E+00  0.68480740724E+02  0.68492516015E+02  0.12700000000E+01 0. -1.
          4   -1    0    0  501    0  0.00000000000E+00 -0.00000000000E+00 -0.57018711253E+02  0.57032853102E+02  0.12700000000E+01 0. -1.
         25    2    1    2    0    0  0.00000000000E+00  0.00000000000E+00  0.11462029471E+02  0.12552536912E+03  0.12500096069E+03 0.  0.
    9000005    1    3    3    0    0 -0.49544286067E+02  0.37782189508E+02  0.10565765563E+02  0.63204157520E+02  0.10000000000E+01 0.  0.
    9000005    1    3    3    0    0  0.49544286067E+02 -0.37782189508E+02  0.89626390864E+00  0.62321211597E+02  0.10000000000E+01 0.  0.
<mgrwt>
<rscale>  0 0.12500096E+03</rscale>
<asrwt>0</asrwt>
<pdfrwt beam="2">  1        4 0.14257918E-01 0.12500096E+03</pdfrwt>
<pdfrwt beam="1">  1       -4 0.17123425E-01 0.12500096E+03</pdfrwt>
<totfact> 0.19806145E+03</totfact>
</mgrwt>
</event>
<event>
 5    1  0.1430314E-002  0.1249939E+03  0.7818608E-02  0.1235079E+00
         -4   -1    0    0    0  501 -0.00000000000E+00  0.00000000000E+00  0.85503867833E+02  0.85513299050E+02  0.12700000000E+01 0. -1.
          4   -1    0    0  501    0  0.00000000000E+00 -0.00000000000E+00 -0.45659838624E+02  0.45677497339E+02  0.12700000000E+01 0. -1.
         25    2    1    2    0    0  0.00000000000E+00  0.00000000000E+00  0.39844029209E+02  0.13119079639E+03  0.12499391343E+03 0.  0.
    9000005    1    3    3    0    0 -0.48146845266E+02  0.38560464715E+02  0.94345636379E+01  0.62410248671E+02  0.10000000000E+01 0.  0.
    9000005    1    3    3    0    0  0.48146845266E+02 -0.38560464715E+02  0.30409465571E+02  0.68780547718E+02  0.10000000000E+01 0.  0.
<mgrwt>
<rscale>  0 0.12499391E+03</rscale>
<asrwt>0</asrwt>
<pdfrwt beam="2">  1        4 0.11418346E-01 0.12499391E+03</pdfrwt>
<pdfrwt beam="1">  1       -4 0.21379353E-01 0.12499391E+03</pdfrwt>
<totfact> 0.19503349E+03</totfact>
</mgrwt>
</event>
<event>
 5    1  0.1430314E-002  0.1249972E+03  0.7818608E-02  0.1235074E+00
          4   -1    0    0  501    0  0.00000000000E+00  0.00000000000E+00  0.26005331717E+02  0.26036324197E+02  0.12700000000E+01 0. -1.
         -4   -1    0    0    0  501 -0.00000000000E+00 -0.00000000000E+00 -0.15007970660E+03  0.15008507999E+03  0.12700000000E+01 0. -1.
         25    2    1    2    0    0  0.00000000000E+00  0.00000000000E+00 -0.12407437489E+03  0.17612140418E+03  0.12499719400E+03 0.  0.
    9000005    1    3    3    0    0  0.28586646834E+02 -0.45883531476E+02 -0.17870402267E+02  0.56945992968E+02  0.10000000000E+01 0.  0.
    9000005    1    3    3    0    0 -0.28586646834E+02  0.45883531476E+02 -0.10620397262E+03  0.11917541121E+03  0.10000000000E+01 0.  0.
<mgrwt>
<rscale>  0 0.12499719E+03</rscale>
<asrwt>0</asrwt>
<pdfrwt beam="1">  1        4 0.65058791E-02 0.12499719E+03</pdfrwt>
<pdfrwt beam="2">  1       -4 0.37524470E-01 0.12499719E+03</pdfrwt>
<totfact> 0.17325556E+03</totfact>
</mgrwt>
</event>
<event>
 5    1  0.1430314E-002  0.1250023E+03  0.7818608E-02  0.1235066E+00
         -4   -1    0    0    0  501 -0.00000000000E+00  0.00000000000E+00  0.14433672221E+02  0.14489437318E+02  0.12700000000E+01 0.  1.
          4   -1    0    0  501    0  0.00000000000E+00 -0.00000000000E+00 -0.27006528064E+03  0.27006826675E+03  0.12700000000E+01 0.  1.
         25    2    1    2    0    0  0.00000000000E+00  0.00000000000E+00 -0.25563160842E+03  0.28455770407E+03  0.12500227087E+03 0.  0.
    9000005    1    3    3    0    0 -0.58757609731E+01  0.53674148179E+02 -0.19944000238E+03  0.20662224784E+03  0.10000000000E+01 0.  0.
    9000005    1    3    3    0    0  0.58757609731E+01 -0.53674148179E+02 -0.56191606033E+02  0.77935456234E+02  0.10000000000E+01 0.  0.
<mgrwt>
<rscale>  0 0.12500227E+03</rscale>
<asrwt>0</asrwt>
<pdfrwt beam="2">  1        4 0.67523648E-01 0.12500227E+03</pdfrwt>
<pdfrwt beam="1">  1       -4 0.36157628E-02 0.12500227E+03</pdfrwt>
<totfact> 0.13414468E+03</totfact>
</mgrwt>
</event>
<event>
 5    1  0.1430314E-002  0.1250007E+03  0.7818608E-02  0.1235068E+00
         -4   -1    0    0    0  501 -0.00000000000E+00  0.00000000000E+00  0.64375135703E+01  0.65615913442E+01  0.12700000000E+01 0.  1.
          4   -1    0    0  501    0  0.00000000000E+00 -0.00000000000E+00 -0.60088445270E+03  0.60088579480E+03  0.12700000000E+01 0.  1.
         25    2    1    2    0    0  0.00000000000E+00  0.00000000000E+00 -0.59444693913E+03  0.60744738615E+03  0.12500065399E+03 0.  0.
    9000005    1    3    3    0    0  0.17833818249E+02  0.34379297942E+02 -0.58891730796E+02  0.70492674487E+02  0.10000000000E+01 0.  0.
    9000005    1    3    3    0    0 -0.17833818249E+02 -0.34379297942E+02 -0.53555520833E+03  0.53695471166E+03  0.10000000000E+01 0.  0.
<mgrwt>
<rscale>  0 0.12500065E+03</rscale>
<asrwt>0</asrwt>
<pdfrwt beam="2">  1        4 0.15023660E+00 0.12500065E+03</pdfrwt>
<pdfrwt beam="1">  1       -4 0.16250579E-02 0.12500065E+03</pdfrwt>
<totfact> 0.72572751E+02</totfact>
</mgrwt>
</event>
<event>
 5    1  0.1430314E-002  0.1249891E+03  0.7818608E-02  0.1235086E+00
          4   -1    0    0  501    0  0.00000000000E+00  0.00000000000E+00  0.27452972183E+01  0.30248234357E+01  0.12700000000E+01 0. -1.
         -4   -1    0    0    0  501 -0.00000000000E+00 -0.00000000000E+00 -0.13534416612E+04  0.13534422571E+04  0.12700000000E+01 0. -1.
         25    2    1    2    0    0  0.00000000000E+00  0.00000000000E+00 -0.13506963640E+04  0.13564670805E+04  0.12498909061E+03 0.  0.
    9000005    1    3    3    0    0 -0.45853588784E+02 -0.30326603368E+02 -0.35298260116E+03  0.35723937520E+03  0.10000000000E+01 0.  0.
    9000005    1    3    3    0    0  0.45853588784E+02  0.30326603368E+02 -0.99771376284E+03  0.99922770530E+03  0.10000000000E+01 0.  0.
<mgrwt>
<rscale>  0 0.12498909E+03</rscale>
<asrwt>0</asrwt>
<pdfrwt beam="1">  1        4 0.72134421E-03 0.12498909E+03</pdfrwt>
<pdfrwt beam="2">  1       -4 0.33839325E+00 0.12498909E+03</pdfrwt>
<totfact> 0.17854783E+02</totfact>
</mgrwt>
</event>
<event>
 5    1  0.1430314E-002  0.1249603E+03  0.7818608E-02  0.1235131E+00
         -4   -1    0    0    0  501 -0.00000000000E+00  0.00000000000E+00  0.29858086355E+02  0.29885083583E+02  0.12700000000E+01 0. -1.
          4   -1    0    0  501    0  0.00000000000E+00 -0.00000000000E+00 -0.13065495745E+03  0.13066112967E+03  0.12700000000E+01 0. -1.
         25    2    1    2    0    0  0.00000000000E+00  0.00000000000E+00 -0.10079687110E+03  0.16054621326E+03  0.12496030317E+03 0.  0.
    9000005    1    3    3    0    0  0.38864530269E+00 -0.34403854796E+02 -0.11739183978E+03  0.12233405216E+03  0.10000000000E+01 0.  0.
    9000005    1    3    3    0    0 -0.38864530269E+00  0.34403854796E+02  0.16594968685E+02  0.38212161096E+02  0.10000000000E+01 0.  0.
<mgrwt>
<rscale>  0 0.12496030E+03</rscale>
<asrwt>0</asrwt>
<pdfrwt beam="2">  1        4 0.32667884E-01 0.12496030E+03</pdfrwt>
<pdfrwt beam="1">  1       -4 0.74686681E-02 0.12496030E+03</pdfrwt>
<totfact> 0.18048725E+03</totfact>
</mgrwt>
</event>
<event>
 5    1  0.1430314E-002  0.1250177E+03  0.7818608E-02  0.1235042E+00
          4   -1    0    0  501    0  0.00000000000E+00  0.00000000000E+00  0.51538743622E+01  0.53080430425E+01  0.12700000000E+01 0. -1.
         -4   -1    0    0    0  501 -0.00000000000E+00 -0.00000000000E+00 -0.74681265967E+03  0.74681373953E+03  0.12700000000E+01 0. -1.
         25    2    1    2    0    0  0.00000000000E+00  0.00000000000E+00 -0.74165878531E+03  0.75212178257E+03  0.12501768670E+03 0.  0.
    9000005    1    3    3    0    0 -0.48930170274E+02  0.18106943151E+02 -0.57786904977E+03  0.58022035610E+03  0.10000000000E+01 0.  0.
    9000005    1    3    3    0    0  0.48930170274E+02 -0.18106943151E+02 -0.16378973554E+03  0.17190142647E+03  0.10000000000E+01 0.  0.
<mgrwt>
<rscale>  0 0.12501769E+03</rscale>
<asrwt>0</asrwt>
<pdfrwt beam="1">  1        4 0.13078772E-02 0.12501769E+03</pdfrwt>
<pdfrwt beam="2">  1       -4 0.18672221E+00 0.12501769E+03</pdfrwt>
<totfact> 0.56845421E+02</totfact>
</mgrwt>
</event>
<event>
 5    1  0.1430314E-002  0.1250009E+03  0.7818608E-02  0.1235068E+00
          4   -1    0    0  501    0  0.00000000000E+00  0.00000000000E+00  0.35157868938E+02  0.35180799426E+02  0.12700000000E+01 0.  1.
         -4   -1    0    0    0  501 -0.00000000000E+00 -0.00000000000E+00 -0.11104478264E+03  0.11105204479E+03  0.12700000000E+01 0.  1.
         25    2    1    2    0    0  0.00000000000E+00  0.00000000000E+00 -0.75886913701E+02  0.14623284421E+03  0.12500088422E+03 0.  0.
    9000005    1    3    3    0    0  0.92812057305E+01  0.55680161709E+02 -0.69309611100E+02  0.89393754696E+02  0.10000000000E+01 0.  0.
    9000005    1    3    3    0    0 -0.92812057305E+01 -0.55680161709E+02 -0.65773026010E+01  0.56839089518E+02  0.10000000000E+01 0.  0.
<mgrwt>
<rscale>  0 0.12500088E+03</rscale>
<asrwt>0</asrwt>
<pdfrwt beam="1">  1        4 0.87932416E-02 0.12500088E+03</pdfrwt>
<pdfrwt beam="2">  1       -4 0.27764969E-01 0.12500088E+03</pdfrwt>
<totfact> 0.18725191E+03</totfact>
</mgrwt>
</event>
<event>
 5    1  0.1430314E-002  0.1250043E+03  0.7818608E-02  0.1235063E+00
         -4   -1    0    0    0  501 -0.00000000000E+00  0.00000000000E+00  0.26106144796E+03  0.26106453706E+03  0.12700000000E+01 0. -1.
          4   -1    0    0  501    0  0.00000000000E+00 -0.00000000000E+00 -0.14933850526E+02  0.14987754720E+02  0.12700000000E+01 0. -1.
         25    2    1    2    0    0  0.00000000000E+00  0.00000000000E+00  0.24612759743E+03  0.27605229178E+03  0.12500429424E+03 0.  0.
    9000005    1    3    3    0    0  0.54342065560E+02  0.13606127599E+02  0.18423654322E+03  0.19256762618E+03  0.10000000000E+01 0.  0.
    9000005    1    3    3    0    0 -0.54342065560E+02 -0.13606127599E+02  0.61891054213E+02  0.83484665593E+02  0.10000000000E+01 0.  0.
<mgrwt>
<rscale>  0 0.12500429E+03</rscale>
<asrwt>0</asrwt>
<pdfrwt beam="2">  1        4 0.37405869E-02 0.12500429E+03</pdfrwt>
<pdfrwt beam="1">  1       -4 0.65272483E-01 0.12500429E+03</pdfrwt>
<totfact> 0.13668466E+03</totfact>
</mgrwt>
</event>
<event>
 5    1  0.1430314E-002  0.1250215E+03  0.7818608E-02  0.1235036E+00
         -4   -1    0    0    0  501 -0.00000000000E+00  0.00000000000E+00  0.10733136481E+03  0.10733887819E+03  0.12700000000E+01 0.  1.
          4   -1    0    0  501    0  0.00000000000E+00 -0.00000000000E+00 -0.36386937233E+02  0.36409093661E+02  0.12700000000E+01 0.  1.
         25    2    1    2    0    0  0.00000000000E+00  0.00000000000E+00  0.70944427574E+02  0.14374797185E+03  0.12502146859E+03 0.  0.
    9000005    1    3    3    0    0 -0.33775540264E+02  0.68426621921E+00  0.95935413684E+02  0.10171459551E+03  0.10000000000E+01 0.  0.
    9000005    1    3    3    0    0  0.33775540264E+02 -0.68426621921E+00 -0.24990986110E+02  0.42033376346E+02  0.10000000000E+01 0.  0.
<mgrwt>
<rscale>  0 0.12502147E+03</rscale>
<asrwt>0</asrwt>
<pdfrwt beam="2">  1        4 0.91004431E-02 0.12502147E+03</pdfrwt>
<pdfrwt beam="1">  1       -4 0.26836550E-01 0.12502147E+03</pdfrwt>
<totfact> 0.18840787E+03</totfact>
</mgrwt>
</event>
<event>
 5    1  0.1430314E-002  0.1249996E+03  0.7818608E-02  0.1235070E+00
         -4   -1    0    0    0  501 -0.00000000000E+00  0.00000000000E+00  0.35301942907E+02  0.35324779872E+02  0.12700000000E+01 0. -1.
          4   -1    0    0  501    0  0.00000000000E+00 -0.00000000000E+00 -0.11058963783E+03  0.11059692987E+03  0.12700000000E+01 0. -1.
         25    2    1    2    0    0  0.00000000000E+00  0.00000000000E+00 -0.75287694928E+02  0.14592170974E+03  0.12499963346E+03 0.  0.
    9000005    1    3    3    0    0 -0.25598017691E+02 -0.49702321139E+02 -0.50481397912E+01  0.56143236028E+02  0.10000000000E+01 0.  0.
    9000005    1    3    3    0    0  0.25598017691E+02  0.49702321139E+02 -0.70239555137E+02  0.89778473713E+02  0.10000000000E+01 0.  0.
<mgrwt>
<rscale>  0 0.12499963E+03</rscale>
<asrwt>0</asrwt>
<pdfrwt beam="2">  1        4 0.27651175E-01 0.12499963E+03</pdfrwt>
<pdfrwt beam="1">  1       -4 0.88292521E-02 0.12499963E+03</pdfrwt>
<totfact> 0.18741305E+03</totfact>
</mgrwt>
</event>
<event>
 5    1  0.1430314E-002  0.1249980E+03  0.7818608E-02  0.1235072E+00
         -4   -1    0    0    0  501 -0.00000000000E+00  0.00000000000E+00  0.30128954899E+02  0.30155709631E+02  0.12700000000E+01 0.  1.
          4   -1    0    0  501    0  0.00000000000E+00 -0.00000000000E+00 -0.12955942056E+03  0.12956564497E+03  0.12700000000E+01 0.  1.
         25    2    1    2    0    0  0.00000000000E+00  0.00000000000E+00 -0.99430465659E+02  0.15972135460E+03  0.12499797444E+03 0.  0.
    9000005    1    3    3    0    0 -0.48744303589E+02 -0.29205692628E+02 -0.82941346068E+02  0.10054474875E+03  0.10000000000E+01 0.  0.
    9000005    1    3    3    0    0  0.48744303589E+02  0.29205692628E+02 -0.16489119591E+02  0.59176605843E+02  0.10000000000E+01 0.  0.
<mgrwt>
<rscale>  0 0.12499797E+03</rscale>
<asrwt>0</asrwt>
<pdfrwt beam="2">  1        4 0.32393976E-01 0.12499797E+03</pdfrwt>
<pdfrwt beam="1">  1       -4 0.75363615E-02 0.12499797E+03</pdfrwt>
<totfact> 0.18071727E+03</totfact>
</mgrwt>
</event>
<event>
 5    1  0.1430314E-002  0.1249990E+03  0.7818608E-02  0.1235071E+00
         -4   -1    0    0    0  501 -0.00000000000E+00  0.00000000000E+00  0.14643762899E+03  0.14644313601E+03  0.12700000000E+01 0.  1.
          4   -1    0    0  501    0  0.00000000000E+00 -0.00000000000E+00 -0.26653627197E+02  0.26683866712E+02  0.12700000000E+01 0.  1.
         25    2    1    2    0    0  0.00000000000E+00  0.00000000000E+00  0.11978400179E+03  0.17312700272E+03  0.12499900794E+03 0.  0.
    9000005    1    3    3    0    0  0.21648611516E+02 -0.41608084013E+02  0.26970431144E+01  0.46991159566E+02  0.10000000000E+01 0.  0.
    9000005    1    3    3    0    0 -0.21648611516E+02  0.41608084013E+02  0.11708695868E+03  0.12613584315E+03  0.10000000000E+01 0.  0.
<mgrwt>
<rscale>  0 0.12499901E+03</rscale>
<asrwt>0</asrwt>
<pdfrwt beam="2">  1        4 0.66678753E-02 0.12499901E+03</pdfrwt>
<pdfrwt beam="1">  1       -4 0.36613875E-01 0.12499901E+03</pdfrwt>
<totfact> 0.17457323E+03</totfact>
</mgrwt>
</event>
<event>
 5    1  0.1430314E-002  0.1250019E+03  0.7818608E-02  0.1235066E+00
         -4   -1    0    0    0  501 -0.00000000000E+00  0.00000000000E+00  0.13606632195E+03  0.13607224871E+03  0.12700000000E+01 0.  1.
          4   -1    0    0  501    0  0.00000000000E+00 -0.00000000000E+00 -0.28688698445E+02  0.28716795059E+02  0.12700000000E+01 0.  1.
         25    2    1    2    0    0  0.00000000000E+00  0.00000000000E+00  0.10737762350E+03  0.16478904377E+03  0.12500189965E+03 0.  0.
    9000005    1    3    3    0    0  0.37556729880E+02 -0.45815554583E+02  0.79915730565E+02  0.99484154481E+02  0.10000000000E+01 0.  0.
    9000005    1    3    3    0    0 -0.37556729880E+02  0.45815554583E+02  0.27461892938E+02  0.65304889287E+02  0.10000000000E+01 0.  0.
<mgrwt>
<rscale>  0 0.12500190E+03</rscale>
<asrwt>0</asrwt>
<pdfrwt beam="2">  1        4 0.71764276E-02 0.12500190E+03</pdfrwt>
<pdfrwt beam="1">  1       -4 0.34020833E-01 0.12500190E+03</pdfrwt>
<totfact> 0.17833890E+03</totfact>
</mgrwt>
</event>
<event>
 5    1  0.1430314E-002  0.1249936E+03  0.7818608E-02  0.1235079E+00
         -4   -1    0    0    0  501 -0.00000000000E+00  0.00000000000E+00  0.90998433275E+02  0.91007295084E+02  0.12700000000E+01 0. -1.
          4   -1    0    0  501    0  0.00000000000E+00 -0.00000000000E+00 -0.42901815824E+02  0.42920609280E+02  0.12700000000E+01 0. -1.
         25    2    1    2    0    0  0.00000000000E+00  0.00000000000E+00  0.48096617451E+02  0.13392790436E+03  0.12499359566E+03 0.  0.
    9000005    1    3    3    0    0  0.12488492034E+02  0.59268119684E+02  0.75817675703E+01  0.61050435246E+02  0.10000000000E+01 0.  0.
    9000005    1    3    3    0    0 -0.12488492034E+02 -0.59268119684E+02  0.40514849881E+02  0.72877469118E+02  0.10000000000E+01 0.  0.
<mgrwt>
<rscale>  0 0.12499360E+03</rscale>
<asrwt>0</asrwt>
<pdfrwt beam="2">  1        4 0.10728911E-01 0.12499360E+03</pdfrwt>
<pdfrwt beam="1">  1       -4 0.22753065E-01 0.12499360E+03</pdfrwt>
<totfact> 0.19358333E+03</totfact>
</mgrwt>
</event>
<event>
 5    1  0.1430314E-002  0.1250008E+03  0.7818608E-02  0.1235068E+00
         -4   -1    0    0    0  501 -0.00000000000E+00  0.00000000000E+00  0.40914054969E+01  0.42839816690E+01  0.12700000000E+01 0. -1.
          4   -1    0    0  501    0  0.00000000000E+00 -0.00000000000E+00 -0.93261182504E+03  0.93261268976E+03  0.12700000000E+01 0. -1.
         25    2    1    2    0    0  0.00000000000E+00  0.00000000000E+00 -0.92852041954E+03  0.93689667143E+03  0.12500081371E+03 0.  0.
    9000005    1    3    3    0    0 -0.11830354347E+01  0.62448502600E+02 -0.47941039022E+03  0.48346306715E+03  0.10000000000E+01 0.  0.
    9000005    1    3    3    0    0  0.11830354347E+01 -0.62448502600E+02 -0.44911002932E+03  0.45343360428E+03  0.10000000000E+01 0.  0.
<mgrwt>
<rscale>  0 0.12500081E+03</rscale>
<asrwt>0</asrwt>
<pdfrwt beam="2">  1        4 0.23317643E+00 0.12500081E+03</pdfrwt>
<pdfrwt beam="1">  1       -4 0.10470347E-02 0.12500081E+03</pdfrwt>
<totfact> 0.41523043E+02</totfact>
</mgrwt>
</event>
<event>
 5    1  0.1430314E-002  0.1249997E+03  0.7818608E-02  0.1235070E+00
         -4   -1    0    0    0  501 -0.00000000000E+00  0.00000000000E+00  0.14964779060E+02  0.15018572246E+02  0.12700000000E+01 0.  1.
          4   -1    0    0  501    0  0.00000000000E+00 -0.00000000000E+00 -0.26050483479E+03  0.26050793049E+03  0.12700000000E+01 0.  1.
         25    2    1    2    0    0  0.00000000000E+00  0.00000000000E+00 -0.24554005573E+03  0.27552650274E+03  0.12499973897E+03 0.  0.
    9000005    1    3    3    0    0  0.12944439628E+02  0.60084106719E+02 -0.97873570561E+02  0.11557635663E+03  0.10000000000E+01 0.  0.
    9000005    1    3    3    0    0 -0.12944439628E+02 -0.60084106719E+02 -0.14766648517E+03  0.15995014611E+03  0.10000000000E+01 0.  0.
<mgrwt>
<rscale>  0 0.12499974E+03</rscale>
<asrwt>0</asrwt>
<pdfrwt beam="2">  1        4 0.65133305E-01 0.12499974E+03</pdfrwt>
<pdfrwt beam="1">  1       -4 0.37483067E-02 0.12499974E+03</pdfrwt>
<totfact> 0.13685882E+03</totfact>
</mgrwt>
</event>
<event>
 5    1  0.1430314E-002  0.1250141E+03  0.7818608E-02  0.1235047E+00
         -4   -1    0    0    0  501 -0.00000000000E+00  0.00000000000E+00  0.19404095754E+03  0.19404511358E+03  0.12700000000E+01 0. -1.
          4   -1    0    0  501    0  0.00000000000E+00 -0.00000000000E+00 -0.20111213946E+02  0.20151273567E+02  0.12700000000E+01 0. -1.
         25    2    1    2    0    0  0.00000000000E+00  0.00000000000E+00  0.17392974359E+03  0.21419638714E+03  0.12501414543E+03 0.  0.
    9000005    1    3    3    0    0 -0.46276736174E+02 -0.35649559044E+02  0.48894464291E+02  0.76184617931E+02  0.10000000000E+01 0.  0.
    9000005    1    3    3    0    0  0.46276736174E+02  0.35649559044E+02  0.12503527930E+03  0.13801176921E+03  0.10000000000E+01 0.  0.
<mgrwt>
<rscale>  0 0.12501415E+03</rscale>
<asrwt>0</asrwt>
<pdfrwt beam="2">  1        4 0.50333303E-02 0.12501415E+03</pdfrwt>
<pdfrwt beam="1">  1       -4 0.48515767E-01 0.12501415E+03</pdfrwt>
<totfact> 0.15763799E+03</totfact>
</mgrwt>
</event>
<event>
 5    1  0.1430314E-002  0.1250000E+03  0.7818608E-02  0.1235069E+00
          4   -1    0    0  501    0  0.00000000000E+00  0.00000000000E+00  0.25475215322E+02  0.25506851936E+02  0.12700000000E+01 0.  1.
         -4   -1    0    0    0  501 -0.00000000000E+00 -0.00000000000E+00 -0.15320589415E+03  0.15321115790E+03  0.12700000000E+01 0.  1.
         25    2    1    2    0    0  0.00000000000E+00  0.00000000000E+00 -0.12773067883E+03  0.17871800983E+03  0.12500000289E+03 0.  0.
    9000005    1    3    3    0    0 -0.58183330306E+02 -0.48913988600E+01 -0.95708036722E+02  0.11211714410E+03  0.10000000000E+01 0.  0.
    9000005    1    3    3    0    0  0.58183330306E+02  0.48913988600E+01 -0.32022642111E+02  0.66600865731E+02  0.10000000000E+01 0.  0.
<mgrwt>
<rscale>  0 0.12500000E+03</rscale>
<asrwt>0</asrwt>
<pdfrwt beam="1">  1        4 0.63734168E-02 0.12500000E+03</pdfrwt>
<pdfrwt beam="2">  1       -4 0.38306084E-01 0.12500000E+03</pdfrwt>
<totfact> 0.17210847E+03</totfact>
</mgrwt>
</event>
<event>
 5    1  0.1430314E-002  0.1249992E+03  0.7818608E-02  0.1235070E+00
         -4   -1    0    0    0  501 -0.00000000000E+00  0.00000000000E+00  0.15840355389E+02  0.15891184942E+02  0.12700000000E+01 0. -1.
          4   -1    0    0  501    0  0.00000000000E+00 -0.00000000000E+00 -0.24615067884E+03  0.24615395506E+03  0.12700000000E+01 0. -1.
         25    2    1    2    0    0  0.00000000000E+00  0.00000000000E+00 -0.23031032345E+03  0.26204514000E+03  0.12499924125E+03 0.  0.
    9000005    1    3    3    0    0  0.22509882688E+02 -0.51675548555E+02 -0.58586253101E+02  0.81304404490E+02  0.10000000000E+01 0.  0.
    9000005    1    3    3    0    0 -0.22509882688E+02  0.51675548555E+02 -0.17172407035E+03  0.18074073551E+03  0.10000000000E+01 0.  0.
<mgrwt>
<rscale>  0 0.12499924E+03</rscale>
<asrwt>0</asrwt>
<pdfrwt beam="2">  1        4 0.61544421E-01 0.12499924E+03</pdfrwt>
<pdfrwt beam="1">  1       -4 0.39668529E-02 0.12499924E+03</pdfrwt>
<totfact> 0.14105961E+03</totfact>
</mgrwt>
</event>
<event>
 5    1  0.1430314E-002  0.1250014E+03  0.7818608E-02  0.1235067E+00
         -4   -1    0    0    0  501 -0.00000000000E+00  0.00000000000E+00  0.20032977166E+02  0.20073192923E+02  0.12700000000E+01 0. -1.
          4   -1    0    0  501    0  0.00000000000E+00 -0.00000000000E+00 -0.19475765106E+03  0.19476179180E+03  0.12700000000E+01 0. -1.
         25    2    1    2    0    0  0.00000000000E+00  0.00000000000E+00 -0.17472467389E+03  0.21483498472E+03  0.12500143597E+03 0.  0.
    9000005    1    3    3    0    0 -0.10215691574E+02  0.14981933832E+02  0.15420451613E+02  0.23824546661E+02  0.10000000000E+01 0.  0.
    9000005    1    3    3    0    0  0.10215691574E+02 -0.14981933832E+02 -0.19014512550E+03  0.19101043806E+03  0.10000000000E+01 0.  0.
<mgrwt>
<rscale>  0 0.12500144E+03</rscale>
<asrwt>0</asrwt>
<pdfrwt beam="2">  1        4 0.48694952E-01 0.12500144E+03</pdfrwt>
<pdfrwt beam="1">  1       -4 0.50137894E-02 0.12500144E+03</pdfrwt>
<totfact> 0.15744248E+03</totfact>
</mgrwt>
</event>
<event>
 5    1  0.1430314E-002  0.1249893E+03  0.7818608E-02  0.1235086E+00
          4   -1    0    0  501    0  0.00000000000E+00  0.00000000000E+00  0.48011400892E+01  0.49662708501E+01  0.12700000000E+01 0.  1.
         -4   -1    0    0    0  501 -0.00000000000E+00 -0.00000000000E+00 -0.79955126692E+03  0.79955227555E+03  0.12700000000E+01 0.  1.
         25    2    1    2    0    0  0.00000000000E+00  0.00000000000E+00 -0.79475012683E+03  0.80451854640E+03  0.12498930914E+03 0.  0.
    9000005    1    3    3    0    0  0.30410293631E+02 -0.54433148383E+02 -0.37097027752E+03  0.37617509275E+03  0.10000000000E+01 0.  0.
    9000005    1    3    3    0    0 -0.30410293631E+02  0.54433148383E+02 -0.42377984932E+03  0.42834345366E+03  0.10000000000E+01 0.  0.
<mgrwt>
<rscale>  0 0.12498931E+03</rscale>
<asrwt>0</asrwt>
<pdfrwt beam="1">  1        4 0.12210552E-02 0.12498931E+03</pdfrwt>
<pdfrwt beam="2">  1       -4 0.19990814E+00 0.12498931E+03</pdfrwt>
<totfact> 0.52093399E+02</totfact>
</mgrwt>
</event>
<event>
 5    1  0.1430314E-002  0.1249974E+03  0.7818608E-02  0.1235073E+00
          4   -1    0    0  501    0  0.00000000000E+00  0.00000000000E+00  0.27898190247E+02  0.27927082179E+02  0.12700000000E+01 0. -1.
         -4   -1    0    0    0  501 -0.00000000000E+00 -0.00000000000E+00 -0.13990790080E+03  0.13991366483E+03  0.12700000000E+01 0. -1.
         25    2    1    2    0    0  0.00000000000E+00  0.00000000000E+00 -0.11200971055E+03  0.16784074701E+03  0.12499736437E+03 0.  0.
    9000005    1    3    3    0    0  0.32378569602E+02 -0.20240062992E+02  0.10418111185E+02  0.39592536671E+02  0.10000000000E+01 0.  0.
    9000005    1    3    3    0    0 -0.32378569602E+02  0.20240062992E+02 -0.12242782174E+03  0.12824821034E+03  0.10000000000E+01 0.  0.
<mgrwt>
<rscale>  0 0.12499736E+03</rscale>
<asrwt>0</asrwt>
<pdfrwt beam="1">  1        4 0.69788799E-02 0.12499736E+03</pdfrwt>
<pdfrwt beam="2">  1       -4 0.34981305E-01 0.12499736E+03</pdfrwt>
<totfact> 0.17695964E+03</totfact>
</mgrwt>
</event>
<event>
 5    1  0.1430314E-002  0.1250040E+03  0.7818608E-02  0.1235063E+00
          4   -1    0    0  501    0  0.00000000000E+00  0.00000000000E+00  0.22992111144E+01  0.26266464834E+01  0.12700000000E+01 0.  1.
         -4   -1    0    0    0  501 -0.00000000000E+00 -0.00000000000E+00 -0.15857931206E+04  0.15857936292E+04  0.12700000000E+01 0.  1.
         25    2    1    2    0    0  0.00000000000E+00  0.00000000000E+00 -0.15834939095E+04  0.15884202757E+04  0.12500404256E+03 0.  0.
    9000005    1    3    3    0    0 -0.24532929063E+02  0.34106586109E+02 -0.13796242513E+04  0.13802641771E+04  0.10000000000E+01 0.  0.
    9000005    1    3    3    0    0  0.24532929063E+02 -0.34106586109E+02 -0.20386965818E+03  0.20815609852E+03  0.10000000000E+01 0.  0.
<mgrwt>
<rscale>  0 0.12500404E+03</rscale>
<asrwt>0</asrwt>
<pdfrwt beam="1">  1        4 0.61580121E-03 0.12500404E+03</pdfrwt>
<pdfrwt beam="2">  1       -4 0.39648577E+00 0.12500404E+03</pdfrwt>
<totfact> 0.98174421E+01</totfact>
</mgrwt>
</event>
<event>
 5    1  0.1430314E-002  0.1250031E+03  0.7818608E-02  0.1235064E+00
         -4   -1    0    0    0  501 -0.00000000000E+00  0.00000000000E+00  0.12792632292E+03  0.12793262678E+03  0.12700000000E+01 0. -1.
          4   -1    0    0  501    0  0.00000000000E+00 -0.00000000000E+00 -0.30516422747E+02  0.30542838069E+02  0.12700000000E+01 0. -1.
         25    2    1    2    0    0  0.00000000000E+00  0.00000000000E+00  0.97409900173E+02  0.15847546485E+03  0.12500313719E+03 0.  0.
    9000005    1    3    3    0    0  0.27035846956E+02  0.50342190620E+02  0.80781656154E+02  0.98954278069E+02  0.10000000000E+01 0.  0.
    9000005    1    3    3    0    0 -0.27035846956E+02 -0.50342190620E+02  0.16628244018E+02  0.59521186784E+02  0.10000000000E+01 0.  0.
<mgrwt>
<rscale>  0 0.12500314E+03</rscale>
<asrwt>0</asrwt>
<pdfrwt beam="2">  1        4 0.76331957E-02 0.12500314E+03</pdfrwt>
<pdfrwt beam="1">  1       -4 0.31985670E-01 0.12500314E+03</pdfrwt>
<totfact> 0.18128416E+03</totfact>
</mgrwt>
</event>
<event>
 5    1  0.1430314E-002  0.1249980E+03  0.7818608E-02  0.1235072E+00
          4   -1    0    0  501    0  0.00000000000E+00  0.00000000000E+00  0.11671833874E+03  0.11672524791E+03  0.12700000000E+01 0.  1.
         -4   -1    0    0    0  501 -0.00000000000E+00 -0.00000000000E+00 -0.33446273312E+02  0.33470376432E+02  0.12700000000E+01 0.  1.
         25    2    1    2    0    0  0.00000000000E+00  0.00000000000E+00  0.83272065430E+02  0.15019562434E+03  0.12499795474E+03 0.  0.
    9000005    1    3    3    0    0  0.12909277679E+02  0.26577693440E+02 -0.24528623054E+02  0.38414536151E+02  0.10000000000E+01 0.  0.
    9000005    1    3    3    0    0 -0.12909277679E+02 -0.26577693440E+02  0.10780068848E+03  0.11178108819E+03  0.10000000000E+01 0.  0.
<mgrwt>
<rscale>  0 0.12499795E+03</rscale>
<asrwt>0</asrwt>
<pdfrwt beam="1">  1        4 0.29183461E-01 0.12499795E+03</pdfrwt>
<pdfrwt beam="2">  1       -4 0.83654449E-02 0.12499795E+03</pdfrwt>
<totfact> 0.18530048E+03</totfact>
</mgrwt>
</event>
<event>
 5    1  0.1430314E-002  0.1249981E+03  0.7818608E-02  0.1235072E+00
         -4   -1    0    0    0  501 -0.00000000000E+00  0.00000000000E+00  0.93654643430E+02  0.93663253926E+02  0.12700000000E+01 0. -1.
          4   -1    0    0  501    0  0.00000000000E+00 -0.00000000000E+00 -0.41687595153E+02  0.41706935749E+02  0.12700000000E+01 0. -1.
         25    2    1    2    0    0  0.00000000000E+00  0.00000000000E+00  0.51967048277E+02  0.13537018968E+03  0.12499805657E+03 0.  0.
    9000005    1    3    3    0    0 -0.47005438009E+01  0.61998913570E+02  0.32761285200E+02  0.70286998825E+02  0.10000000000E+01 0.  0.
    9000005    1    3    3    0    0  0.47005438009E+01 -0.61998913570E+02  0.19205763078E+02  0.65083190850E+02  0.10000000000E+01 0.  0.
<mgrwt>
<rscale>  0 0.12499806E+03</rscale>
<asrwt>0</asrwt>
<pdfrwt beam="2">  1        4 0.10425393E-01 0.12499806E+03</pdfrwt>
<pdfrwt beam="1">  1       -4 0.23417155E-01 0.12499806E+03</pdfrwt>
<totfact> 0.19280639E+03</totfact>
</mgrwt>
</event>
<event>
 5    1  0.1430314E-002  0.1249923E+03  0.7818608E-02  0.1235081E+00
         -4   -1    0    0    0  501 -0.00000000000E+00  0.00000000000E+00  0.42554354174E+02  0.42573301014E+02  0.12700000000E+01 0. -1.
          4   -1    0    0  501    0  0.00000000000E+00 -0.00000000000E+00 -0.91739342686E+02  0.91748132932E+02  0.12700000000E+01 0. -1.
         25    2    1    2    0    0  0.00000000000E+00  0.00000000000E+00 -0.49184988511E+02  0.13432143395E+03  0.12499233785E+03 0.  0.
    9000005    1    3    3    0    0 -0.37410481610E+02 -0.28372741961E+02  0.19718733902E+02  0.50935106630E+02  0.10000000000E+01 0.  0.
    9000005    1    3    3    0    0  0.37410481610E+02  0.28372741961E+02 -0.68903722413E+02  0.83386327315E+02  0.10000000000E+01 0.  0.
<mgrwt>
<rscale>  0 0.12499234E+03</rscale>
<asrwt>0</asrwt>
<pdfrwt beam="2">  1        4 0.22938302E-01 0.12499234E+03</pdfrwt>
<pdfrwt beam="1">  1       -4 0.10642056E-01 0.12499234E+03</pdfrwt>
<totfact> 0.19338196E+03</totfact>
</mgrwt>
</event>
<event>
 5    1  0.1430314E-002  0.1250013E+03  0.7818608E-02  0.1235067E+00
          4   -1    0    0  501    0  0.00000000000E+00  0.00000000000E+00  0.25311878029E+02  0.25343718538E+02  0.12700000000E+01 0. -1.
         -4   -1    0    0    0  501 -0.00000000000E+00 -0.00000000000E+00 -0.15419655835E+03  0.15420178828E+03  0.12700000000E+01 0. -1.
         25    2    1    2    0    0  0.00000000000E+00  0.00000000000E+00 -0.12888468032E+03  0.17954550682E+03  0.12500131277E+03 0.  0.
    9000005    1    3    3    0    0 -0.41038712106E+02 -0.41161801170E+02 -0.31473131628E+02  0.66106185651E+02  0.10000000000E+01 0.  0.
    9000005    1    3    3    0    0  0.41038712106E+02  0.41161801170E+02 -0.97411548696E+02  0.11343932116E+03  0.10000000000E+01 0.  0.
<mgrwt>
<rscale>  0 0.12500131E+03</rscale>
<asrwt>0</asrwt>
<pdfrwt beam="1">  1        4 0.63326037E-02 0.12500131E+03</pdfrwt>
<pdfrwt beam="2">  1       -4 0.38553771E-01 0.12500131E+03</pdfrwt>
<totfact> 0.17174382E+03</totfact>
</mgrwt>
</event>
<event>
 5    1  0.1430314E-002  0.1249998E+03  0.7818608E-02  0.1235070E+00
          4   -1    0    0  501    0  0.00000000000E+00  0.00000000000E+00  0.82210390735E+02  0.82220199737E+02  0.12700000000E+01 0.  1.
         -4   -1    0    0    0  501 -0.00000000000E+00 -0.00000000000E+00 -0.47494030003E+02  0.47511006997E+02  0.12700000000E+01 0.  1.
         25    2    1    2    0    0  0.00000000000E+00  0.00000000000E+00  0.34716360733E+02  0.12973120673E+03  0.12499984119E+03 0.  0.
    9000005    1    3    3    0    0  0.56359827960E+02  0.25485813710E+02  0.26599319093E+02  0.67338552735E+02  0.10000000000E+01 0.  0.
    9000005    1    3    3    0    0 -0.56359827960E+02 -0.25485813710E+02  0.81170416399E+01  0.62392654000E+02  0.10000000000E+01 0.  0.
<mgrwt>
<rscale>  0 0.12499984E+03</rscale>
<asrwt>0</asrwt>
<pdfrwt beam="1">  1        4 0.20555946E-01 0.12499984E+03</pdfrwt>
<pdfrwt beam="2">  1       -4 0.11876856E-01 0.12499984E+03</pdfrwt>
<totfact> 0.19578916E+03</totfact>
</mgrwt>
</event>
<event>
 5    1  0.1430314E-002  0.1250008E+03  0.7818608E-02  0.1235068E+00
          4   -1    0    0  501    0  0.00000000000E+00  0.00000000000E+00  0.32813702134E+02  0.32838269561E+02  0.12700000000E+01 0. -1.
         -4   -1    0    0    0  501 -0.00000000000E+00 -0.00000000000E+00 -0.11897233083E+03  0.11897910910E+03  0.12700000000E+01 0. -1.
         25    2    1    2    0    0  0.00000000000E+00  0.00000000000E+00 -0.86158628691E+02  0.15181737866E+03  0.12500082866E+03 0.  0.
    9000005    1    3    3    0    0  0.12313833542E+02  0.29661923487E+02  0.22029533343E+02  0.38958446334E+02  0.10000000000E+01 0.  0.
    9000005    1    3    3    0    0 -0.12313833542E+02 -0.29661923487E+02 -0.10818816203E+03  0.11285893233E+03  0.10000000000E+01 0.  0.
<mgrwt>
<rscale>  0 0.12500083E+03</rscale>
<asrwt>0</asrwt>
<pdfrwt beam="1">  1        4 0.82073440E-02 0.12500083E+03</pdfrwt>
<pdfrwt beam="2">  1       -4 0.29747000E-01 0.12500083E+03</pdfrwt>
<totfact> 0.18449424E+03</totfact>
</mgrwt>
</event>
<event>
 4    1  0.1430314E-002  0.1248841E+03  0.7818608E-02  0.1235251E+00
          4   -1    0    0  501    0  0.00000000000E+00  0.00000000000E+00  0.20389547814E+03  0.20389943331E+03  0.12700000000E+01 0.  1.
         -4   -1    0    0    0  501 -0.00000000000E+00 -0.00000000000E+00 -0.19097362421E+02  0.19139544180E+02  0.12700000000E+01 0.  1.
    9000005    1    1    2    0    0 -0.49284023841E+01 -0.17931747529E+02  0.19884293118E+03  0.19971316431E+03  0.10000000000E+01 0.  0.
    9000005    1    1    2    0    0  0.49284023841E+01  0.17931747529E+02 -0.14044815458E+02  0.23325813185E+02  0.10000000000E+01 0.  0.
<mgrwt>
<rscale>  0 0.12488411E+03</rscale>
<asrwt>0</asrwt>
<pdfrwt beam="1">  1        4 0.50979638E-01 0.12488411E+03</pdfrwt>
<pdfrwt beam="2">  1       -4 0.47801076E-02 0.12488411E+03</pdfrwt>
<totfact> 0.15480619E+03</totfact>
</mgrwt>
</event>
<event>
 5    1  0.1430314E-002  0.1250012E+03  0.7818608E-02  0.1235067E+00
         -4   -1    0    0    0  501 -0.00000000000E+00  0.00000000000E+00  0.94391094557E+03  0.94391179994E+03  0.12700000000E+01 0. -1.
          4   -1    0    0  501    0  0.00000000000E+00 -0.00000000000E+00 -0.40401367784E+01  0.42350448862E+01  0.12700000000E+01 0. -1.
         25    2    1    2    0    0  0.00000000000E+00  0.00000000000E+00  0.93987080879E+03  0.94814684483E+03  0.12500120854E+03 0.  0.
    9000005    1    3    3    0    0  0.51441283438E+02 -0.32186067202E+02  0.58325005947E+03  0.58639899423E+03  0.10000000000E+01 0.  0.
    9000005    1    3    3    0    0 -0.51441283438E+02  0.32186067202E+02  0.35662074932E+03  0.36174785060E+03  0.10000000000E+01 0.  0.
<mgrwt>
<rscale>  0 0.12500121E+03</rscale>
<asrwt>0</asrwt>
<pdfrwt beam="2">  1        4 0.10345041E-02 0.12500121E+03</pdfrwt>
<pdfrwt beam="1">  1       -4 0.23600229E+00 0.12500121E+03</pdfrwt>
<totfact> 0.40708812E+02</totfact>
</mgrwt>
</event>
<event>
 5    1  0.1430314E-002  0.1249992E+03  0.7818608E-02  0.1235071E+00
         -4   -1    0    0    0  501 -0.00000000000E+00  0.00000000000E+00  0.11138189715E+02  0.11210359947E+02  0.12700000000E+01 0.  1.
          4   -1    0    0  501    0  0.00000000000E+00 -0.00000000000E+00 -0.34949719003E+03  0.34949949748E+03  0.12700000000E+01 0.  1.
         25    2    1    2    0    0  0.00000000000E+00  0.00000000000E+00 -0.33835900031E+03  0.36070985742E+03  0.12499915260E+03 0.  0.
    9000005    1    3    3    0    0 -0.41127126709E+02 -0.30767156104E+02 -0.66457610284E+02  0.83998050041E+02  0.10000000000E+01 0.  0.
    9000005    1    3    3    0    0  0.41127126709E+02  0.30767156104E+02 -0.27190139003E+03  0.27671180738E+03  0.10000000000E+01 0.  0.
<mgrwt>
<rscale>  0 0.12499915E+03</rscale>
<asrwt>0</asrwt>
<pdfrwt beam="2">  1        4 0.87383571E-01 0.12499915E+03</pdfrwt>
<pdfrwt beam="1">  1       -4 0.27938583E-02 0.12499915E+03</pdfrwt>
<totfact> 0.11426213E+03</totfact>
</mgrwt>
</event>
<event>
 5    1  0.1430314E-002  0.1250041E+03  0.7818608E-02  0.1235063E+00
         -4   -1    0    0    0  501 -0.00000000000E+00  0.00000000000E+00  0.27893689612E+02  0.27922586202E+02  0.12700000000E+01 0.  1.
          4   -1    0    0  501    0  0.00000000000E+00 -0.00000000000E+00 -0.13994542940E+03  0.13995119189E+03  0.12700000000E+01 0.  1.
         25    2    1    2    0    0  0.00000000000E+00  0.00000000000E+00 -0.11205173979E+03  0.16787377809E+03  0.12500405185E+03 0.  0.
    9000005    1    3    3    0    0 -0.60777107563E+02 -0.74812183766E+01 -0.72781938699E+02  0.95121165010E+02  0.10000000000E+01 0.  0.
    9000005    1    3    3    0    0  0.60777107563E+02  0.74812183766E+01 -0.39269801092E+02  0.72752613079E+02  0.10000000000E+01 0.  0.
<mgrwt>
<rscale>  0 0.12500405E+03</rscale>
<asrwt>0</asrwt>
<pdfrwt beam="2">  1        4 0.34990688E-01 0.12500405E+03</pdfrwt>
<pdfrwt beam="1">  1       -4 0.69777552E-02 0.12500405E+03</pdfrwt>
<totfact> 0.17691713E+03</totfact>
</mgrwt>
</event>
<event>
 4    1  0.1430314E-002  0.1250979E+03  0.7818608E-02  0.1234916E+00
          4   -1    0    0  501    0  0.00000000000E+00  0.00000000000E+00  0.93210409153E+02  0.93219060682E+02  0.12700000000E+01 0. -1.
         -4   -1    0    0    0  501 -0.00000000000E+00 -0.00000000000E+00 -0.41953314129E+02  0.41972532285E+02  0.12700000000E+01 0. -1.
    9000005    1    1    2    0    0 -0.38129918529E+02  0.14592002279E+02  0.76827916707E+02  0.87007735306E+02  0.10000000000E+01 0.  0.
    9000005    1    1    2    0    0  0.38129918529E+02 -0.14592002279E+02 -0.25570821683E+02  0.48183857661E+02  0.10000000000E+01 0.  0.
<mgrwt>
<rscale>  0 0.12509787E+03</rscale>
<asrwt>0</asrwt>
<pdfrwt beam="1">  1        4 0.23306086E-01 0.12509787E+03</pdfrwt>
<pdfrwt beam="2">  1       -4 0.10491812E-01 0.12509787E+03</pdfrwt>
<totfact> 0.19245125E+03</totfact>
</mgrwt>
</event>
<event>
 5    1  0.1430314E-002  0.1250002E+03  0.7818608E-02  0.1235069E+00
         -4   -1    0    0    0  501 -0.00000000000E+00  0.00000000000E+00  0.63198186984E+02  0.63210946347E+02  0.12700000000E+01 0. -1.
          4   -1    0    0  501    0  0.00000000000E+00 -0.00000000000E+00 -0.61784220033E+02  0.61797271340E+02  0.12700000000E+01 0. -1.
         25    2    1    2    0    0  0.00000000000E+00  0.00000000000E+00  0.14139669512E+01  0.12500821769E+03  0.12500022075E+03 0.  0.
    9000005    1    3    3    0    0  0.18639304381E+02  0.20556201049E+02  0.56704161102E+02  0.63137492472E+02  0.10000000000E+01 0.  0.
    9000005    1    3    3    0    0 -0.18639304381E+02 -0.20556201049E+02 -0.55290194151E+02  0.61870725215E+02  0.10000000000E+01 0.  0.
<mgrwt>
<rscale>  0 0.12500022E+03</rscale>
<asrwt>0</asrwt>
<pdfrwt beam="2">  1        4 0.15449281E-01 0.12500022E+03</pdfrwt>
<pdfrwt beam="1">  1       -4 0.15802773E-01 0.12500022E+03</pdfrwt>
<totfact> 0.19834507E+03</totfact>
</mgrwt>
</event>
<event>
 5    1  0.1430314E-002  0.1249995E+03  0.7818608E-02  0.1235070E+00
         -4   -1    0    0    0  501 -0.00000000000E+00  0.00000000000E+00  0.48549209413E+01  0.50182823103E+01  0.12700000000E+01 0.  1.
          4   -1    0    0  501    0  0.00000000000E+00 -0.00000000000E+00 -0.79111273288E+03  0.79111375227E+03  0.12700000000E+01 0.  1.
         25    2    1    2    0    0  0.00000000000E+00  0.00000000000E+00 -0.78625781194E+03  0.79613203458E+03  0.12499947858E+03 0.  0.
    9000005    1    3    3    0    0  0.56175716521E+02 -0.18689820335E+02 -0.26571590108E+03  0.27223328341E+03  0.10000000000E+01 0.  0.
    9000005    1    3    3    0    0 -0.56175716521E+02  0.18689820335E+02 -0.52054191086E+03  0.52389875117E+03  0.10000000000E+01 0.  0.
<mgrwt>
<rscale>  0 0.12499948E+03</rscale>
<asrwt>0</asrwt>
<pdfrwt beam="2">  1        4 0.19779830E+00 0.12499948E+03</pdfrwt>
<pdfrwt beam="1">  1       -4 0.12342805E-02 0.12499948E+03</pdfrwt>
<totfact> 0.52821781E+02</totfact>
</mgrwt>
</event>
<event>
 5    1  0.1430314E-002  0.1249940E+03  0.7818608E-02  0.1235079E+00
         -4   -1    0    0    0  501 -0.00000000000E+00  0.00000000000E+00  0.67053432782E+01  0.68245533537E+01  0.12700000000E+01 0. -1.
          4   -1    0    0  501    0  0.00000000000E+00 -0.00000000000E+00 -0.57724988534E+03  0.57725128239E+03  0.12700000000E+01 0. -1.
         25    2    1    2    0    0  0.00000000000E+00  0.00000000000E+00 -0.57054454206E+03  0.58407583574E+03  0.12499402957E+03 0.  0.
    9000005    1    3    3    0    0 -0.10655995491E+02 -0.40374361166E+02 -0.68036557391E+02  0.79834907284E+02  0.10000000000E+01 0.  0.
    9000005    1    3    3    0    0  0.10655995491E+02  0.40374361166E+02 -0.50250798467E+03  0.50424092846E+03  0.10000000000E+01 0.  0.
<mgrwt>
<rscale>  0 0.12499403E+03</rscale>
<asrwt>0</asrwt>
<pdfrwt beam="2">  1        4 0.14432738E+00 0.12499403E+03</pdfrwt>
<pdfrwt beam="1">  1       -4 0.16914137E-02 0.12499403E+03</pdfrwt>
<totfact> 0.75554045E+02</totfact>
</mgrwt>
</event>
<event>
 5    1  0.1430314E-002  0.1249995E+03  0.7818608E-02  0.1235070E+00
          4   -1    0    0  501    0  0.00000000000E+00  0.00000000000E+00  0.20935613365E+03  0.20935998566E+03  0.12700000000E+01 0. -1.
         -4   -1    0    0    0  501 -0.00000000000E+00 -0.00000000000E+00 -0.18632615736E+02  0.18675847215E+02  0.12700000000E+01 0. -1.
         25    2    1    2    0    0  0.00000000000E+00  0.00000000000E+00  0.19072351791E+03  0.22803583288E+03  0.12499952316E+03 0.  0.
    9000005    1    3    3    0    0  0.51426322681E+02 -0.70108823268E+01  0.31866877767E+02  0.60912371765E+02  0.10000000000E+01 0.  0.
    9000005    1    3    3    0    0 -0.51426322681E+02  0.70108823268E+01  0.15885664015E+03  0.16712346111E+03  0.10000000000E+01 0.  0.
<mgrwt>
<rscale>  0 0.12499952E+03</rscale>
<asrwt>0</asrwt>
<pdfrwt beam="1">  1        4 0.52344919E-01 0.12499952E+03</pdfrwt>
<pdfrwt beam="2">  1       -4 0.46640394E-02 0.12499952E+03</pdfrwt>
<totfact> 0.15257918E+03</totfact>
</mgrwt>
</event>
<event>
 5    1  0.1430314E-002  0.1249999E+03  0.7818608E-02  0.1235069E+00
          4   -1    0    0  501    0  0.00000000000E+00  0.00000000000E+00  0.66533242611E+02  0.66545362515E+02  0.12700000000E+01 0.  1.
         -4   -1    0    0    0  501 -0.00000000000E+00 -0.00000000000E+00 -0.58686842276E+02  0.58700582248E+02  0.12700000000E+01 0.  1.
         25    2    1    2    0    0  0.00000000000E+00  0.00000000000E+00  0.78464003351E+01  0.12524594476E+03  0.12499992273E+03 0.  0.
    9000005    1    3    3    0    0 -0.33962019046E+02  0.24261469779E+02  0.50525035425E+02  0.65542481325E+02  0.10000000000E+01 0.  0.
    9000005    1    3    3    0    0  0.33962019046E+02 -0.24261469779E+02 -0.42678635090E+02  0.59703463439E+02  0.10000000000E+01 0.  0.
<mgrwt>
<rscale>  0 0.12499992E+03</rscale>
<asrwt>0</asrwt>
<pdfrwt beam="1">  1        4 0.16636543E-01 0.12499992E+03</pdfrwt>
<pdfrwt beam="2">  1       -4 0.14674943E-01 0.12499992E+03</pdfrwt>
<totfact> 0.19821759E+03</totfact>
</mgrwt>
</event>
<event>
 5    1  0.1430314E-002  0.1250002E+03  0.7818608E-02  0.1235069E+00
          4   -1    0    0  501    0  0.00000000000E+00  0.00000000000E+00  0.17840593016E+02  0.17885738988E+02  0.12700000000E+01 0. -1.
         -4   -1    0    0    0  501 -0.00000000000E+00 -0.00000000000E+00 -0.21862993425E+03  0.21863362287E+03  0.12700000000E+01 0. -1.
         25    2    1    2    0    0  0.00000000000E+00  0.00000000000E+00 -0.20078934124E+03  0.23651936186E+03  0.12500019593E+03 0.  0.
    9000005    1    3    3    0    0  0.19031051259E+02 -0.42511293570E+02 -0.17922888795E+03  0.18518473282E+03  0.10000000000E+01 0.  0.
    9000005    1    3    3    0    0 -0.19031051259E+02  0.42511293570E+02 -0.21560453282E+02  0.51334629041E+02  0.10000000000E+01 0.  0.
<mgrwt>
<rscale>  0 0.12500020E+03</rscale>
<asrwt>0</asrwt>
<pdfrwt beam="1">  1        4 0.44662533E-02 0.12500020E+03</pdfrwt>
<pdfrwt beam="2">  1       -4 0.54663579E-01 0.12500020E+03</pdfrwt>
<totfact> 0.14957058E+03</totfact>
</mgrwt>
</event>
<event>
 5    1  0.1430314E-002  0.1250090E+03  0.7818608E-02  0.1235055E+00
         -4   -1    0    0    0  501 -0.00000000000E+00  0.00000000000E+00  0.12656297101E+02  0.12719856772E+02  0.12700000000E+01 0. -1.
          4   -1    0    0  501    0  0.00000000000E+00 -0.00000000000E+00 -0.30784711796E+03  0.30784973759E+03  0.12700000000E+01 0. -1.
         25    2    1    2    0    0  0.00000000000E+00  0.00000000000E+00 -0.29519082086E+03  0.32056959437E+03  0.12500897613E+03 0.  0.
    9000005    1    3    3    0    0  0.29617350075E+02  0.54862730918E+02 -0.13650487430E+03  0.15007227384E+03  0.10000000000E+01 0.  0.
    9000005    1    3    3    0    0 -0.29617350075E+02 -0.54862730918E+02 -0.15868594656E+03  0.17049732052E+03  0.10000000000E+01 0.  0.
<mgrwt>
<rscale>  0 0.12500898E+03</rscale>
<asrwt>0</asrwt>
<pdfrwt beam="2">  1        4 0.76970027E-01 0.12500898E+03</pdfrwt>
<pdfrwt beam="1">  1       -4 0.31723477E-02 0.12500898E+03</pdfrwt>
<totfact> 0.12410980E+03</totfact>
</mgrwt>
</event>
<event>
 5    1  0.1430314E-002  0.1249973E+03  0.7818608E-02  0.1235074E+00
         -4   -1    0    0    0  501 -0.00000000000E+00  0.00000000000E+00  0.73112710727E+02  0.73123740125E+02  0.12700000000E+01 0.  1.
          4   -1    0    0  501    0  0.00000000000E+00 -0.00000000000E+00 -0.53402855817E+02  0.53417954934E+02  0.12700000000E+01 0.  1.
         25    2    1    2    0    0  0.00000000000E+00  0.00000000000E+00  0.19709854910E+02  0.12654169506E+03  0.12499728880E+03 0.  0.
    9000005    1    3    3    0    0 -0.41766748548E+02 -0.18688680948E+02  0.52940764888E+02  0.69981802398E+02  0.10000000000E+01 0.  0.
    9000005    1    3    3    0    0  0.41766748548E+02  0.18688680948E+02 -0.33230909978E+02  0.56559892661E+02  0.10000000000E+01 0.  0.
<mgrwt>
<rscale>  0 0.12499729E+03</rscale>
<asrwt>0</asrwt>
<pdfrwt beam="2">  1        4 0.13353980E-01 0.12499729E+03</pdfrwt>
<pdfrwt beam="1">  1       -4 0.18281444E-01 0.12499729E+03</pdfrwt>
<totfact> 0.19752928E+03</totfact>
</mgrwt>
</event>
<event>
 5    1  0.1430314E-002  0.1250015E+03  0.7818608E-02  0.1235067E+00
         -4   -1    0    0    0  501 -0.00000000000E+00  0.00000000000E+00  0.73374164713E+03  0.73374274622E+03  0.12700000000E+01 0. -1.
          4   -1    0    0  501    0  0.00000000000E+00 -0.00000000000E+00 -0.52470073583E+01  0.53985170388E+01  0.12700000000E+01 0. -1.
         25    2    1    2    0    0  0.00000000000E+00  0.00000000000E+00  0.72849463977E+03  0.73914126326E+03  0.12500146750E+03 0.  0.
    9000005    1    3    3    0    0  0.48702047459E+02 -0.28888635144E+02  0.52056912524E+03  0.52364077078E+03  0.10000000000E+01 0.  0.
    9000005    1    3    3    0    0 -0.48702047459E+02  0.28888635144E+02  0.20792551453E+03  0.21550049249E+03  0.10000000000E+01 0.  0.
<mgrwt>
<rscale>  0 0.12500147E+03</rscale>
<asrwt>0</asrwt>
<pdfrwt beam="2">  1        4 0.13308280E-02 0.12500147E+03</pdfrwt>
<pdfrwt beam="1">  1       -4 0.18345448E+00 0.12500147E+03</pdfrwt>
<totfact> 0.58115449E+02</totfact>
</mgrwt>
</event>
<event>
 5    1  0.1430314E-002  0.1250028E+03  0.7818608E-02  0.1235065E+00
          4   -1    0    0  501    0  0.00000000000E+00  0.00000000000E+00  0.34149395681E+02  0.34173002873E+02  0.12700000000E+01 0.  1.
         -4   -1    0    0    0  501 -0.00000000000E+00 -0.00000000000E+00 -0.11432561573E+03  0.11433266949E+03  0.12700000000E+01 0.  1.
         25    2    1    2    0    0  0.00000000000E+00  0.00000000000E+00 -0.80176220052E+02  0.14850567236E+03  0.12500283382E+03 0.  0.
    9000005    1    3    3    0    0 -0.59457879692E+02 -0.18754751160E+02 -0.34985578820E+02  0.71498048042E+02  0.10000000000E+01 0.  0.
    9000005    1    3    3    0    0  0.59457879692E+02  0.18754751160E+02 -0.45190641233E+02  0.77007624321E+02  0.10000000000E+01 0.  0.
<mgrwt>
<rscale>  0 0.12500283E+03</rscale>
<asrwt>0</asrwt>
<pdfrwt beam="1">  1        4 0.85411818E-02 0.12500283E+03</pdfrwt>
<pdfrwt beam="2">  1       -4 0.28585236E-01 0.12500283E+03</pdfrwt>
<totfact> 0.18611274E+03</totfact>
</mgrwt>
</event>
<event>
 4    1  0.1430314E-002  0.1253996E+03  0.7818608E-02  0.1234446E+00
         -4   -1    0    0    0  501 -0.00000000000E+00  0.00000000000E+00  0.10204420103E+02  0.10283145902E+02  0.12700000000E+01 0. -1.
          4   -1    0    0  501    0  0.00000000000E+00 -0.00000000000E+00 -0.38369114281E+03  0.38369324462E+03  0.12700000000E+01 0. -1.
    9000005    1    1    2    0    0 -0.33985956915E+02 -0.22022604488E+02 -0.33709671635E+03  0.33952207078E+03  0.10000000000E+01 0.  0.
    9000005    1    1    2    0    0  0.33985956915E+02  0.22022604488E+02 -0.36390006354E+02  0.54454319740E+02  0.10000000000E+01 0.  0.
<mgrwt>
<rscale>  0 0.12539962E+03</rscale>
<asrwt>0</asrwt>
<pdfrwt beam="2">  1        4 0.95932841E-01 0.12539962E+03</pdfrwt>
<pdfrwt beam="1">  1       -4 0.25612098E-02 0.12539962E+03</pdfrwt>
<totfact> 0.10597570E+03</totfact>
</mgrwt>
</event>
<event>
 5    1  0.1430314E-002  0.1250035E+03  0.7818608E-02  0.1235064E+00
          4   -1    0    0  501    0  0.00000000000E+00  0.00000000000E+00  0.33704198750E+02  0.33728117549E+02  0.12700000000E+01 0. -1.
         -4   -1    0    0    0  501 -0.00000000000E+00 -0.00000000000E+00 -0.11583607289E+03  0.11584303467E+03  0.12700000000E+01 0. -1.
         25    2    1    2    0    0  0.00000000000E+00  0.00000000000E+00 -0.82131874139E+02  0.14957115222E+03  0.12500353926E+03 0.  0.
    9000005    1    3    3    0    0 -0.51422106036E+02  0.92122828485E+01 -0.82105042053E+02  0.97320794669E+02  0.10000000000E+01 0.  0.
    9000005    1    3    3    0    0  0.51422106036E+02 -0.92122828485E+01 -0.26832085488E-01  0.52250357553E+02  0.10000000000E+01 0.  0.
<mgrwt>
<rscale>  0 0.12500354E+03</rscale>
<asrwt>0</asrwt>
<pdfrwt beam="1">  1        4 0.84299100E-02 0.12500354E+03</pdfrwt>
<pdfrwt beam="2">  1       -4 0.28962877E-01 0.12500354E+03</pdfrwt>
<totfact> 0.18558359E+03</totfact>
</mgrwt>
</event>
<event>
 5    1  0.1430314E-002  0.1249985E+03  0.7818608E-02  0.1235072E+00
         -4   -1    0    0    0  501 -0.00000000000E+00  0.00000000000E+00  0.94653824597E+03  0.94653909797E+03  0.12700000000E+01 0.  1.
          4   -1    0    0  501    0  0.00000000000E+00 -0.00000000000E+00 -0.40281959838E+01  0.42236551568E+01  0.12700000000E+01 0.  1.
         25    2    1    2    0    0  0.00000000000E+00  0.00000000000E+00  0.94251004999E+03  0.95076275313E+03  0.12499847362E+03 0.  0.
    9000005    1    3    3    0    0 -0.55594735151E+02 -0.27636485719E+02  0.52536318931E+03  0.52901987732E+03  0.10000000000E+01 0.  0.
    9000005    1    3    3    0    0  0.55594735151E+02  0.27636485719E+02  0.41714686068E+03  0.42174287581E+03  0.10000000000E+01 0.  0.
<mgrwt>
<rscale>  0 0.12499847E+03</rscale>
<asrwt>0</asrwt>
<pdfrwt beam="2">  1        4 0.10315880E-02 0.12499847E+03</pdfrwt>
<pdfrwt beam="1">  1       -4 0.23665908E+00 0.12499847E+03</pdfrwt>
<totfact> 0.40523896E+02</totfact>
</mgrwt>
</event>
<event>
 5    1  0.1430314E-002  0.1249983E+03  0.7818608E-02  0.1235072E+00
          4   -1    0    0  501    0  0.00000000000E+00  0.00000000000E+00  0.13046627586E+03  0.13047245701E+03  0.12700000000E+01 0.  1.
         -4   -1    0    0    0  501 -0.00000000000E+00 -0.00000000000E+00 -0.29919512249E+02  0.29946454101E+02  0.12700000000E+01 0.  1.
         25    2    1    2    0    0  0.00000000000E+00  0.00000000000E+00  0.10054676361E+03  0.16041891111E+03  0.12499830146E+03 0.  0.
    9000005    1    3    3    0    0  0.56824418782E+02  0.25373372406E+02  0.42977202608E+02  0.75636383713E+02  0.10000000000E+01 0.  0.
    9000005    1    3    3    0    0 -0.56824418782E+02 -0.25373372406E+02  0.57569561005E+02  0.84782527395E+02  0.10000000000E+01 0.  0.
<mgrwt>
<rscale>  0 0.12499830E+03</rscale>
<asrwt>0</asrwt>
<pdfrwt beam="1">  1        4 0.32620709E-01 0.12499830E+03</pdfrwt>
<pdfrwt beam="2">  1       -4 0.74840186E-02 0.12499830E+03</pdfrwt>
<totfact> 0.18038770E+03</totfact>
</mgrwt>
</event>
<event>
 5    1  0.1430314E-002  0.1249926E+03  0.7818608E-02  0.1235081E+00
          4   -1    0    0  501    0  0.00000000000E+00  0.00000000000E+00  0.90669980721E+02  0.90678874629E+02  0.12700000000E+01 0.  1.
         -4   -1    0    0    0  501 -0.00000000000E+00 -0.00000000000E+00 -0.43056614068E+02  0.43075339987E+02  0.12700000000E+01 0.  1.
         25    2    1    2    0    0  0.00000000000E+00  0.00000000000E+00  0.47613366653E+02  0.13375421462E+03  0.12499262876E+03 0.  0.
    9000005    1    3    3    0    0 -0.13723812737E+02  0.44395075291E+02 -0.20901387655E+02  0.50962081512E+02  0.10000000000E+01 0.  0.
    9000005    1    3    3    0    0  0.13723812737E+02 -0.44395075291E+02  0.68514754308E+02  0.82792133105E+02  0.10000000000E+01 0.  0.
<mgrwt>
<rscale>  0 0.12499263E+03</rscale>
<asrwt>0</asrwt>
<pdfrwt beam="1">  1        4 0.22670947E-01 0.12499263E+03</pdfrwt>
<pdfrwt beam="2">  1       -4 0.10767606E-01 0.12499263E+03</pdfrwt>
<totfact> 0.19367921E+03</totfact>
</mgrwt>
</event>
<event>
 5    1  0.1430314E-002  0.1249814E+03  0.7818608E-02  0.1235098E+00
         -4   -1    0    0    0  501 -0.00000000000E+00  0.00000000000E+00  0.19908146361E+03  0.19908551442E+03  0.12700000000E+01 0. -1.
          4   -1    0    0  501    0  0.00000000000E+00 -0.00000000000E+00 -0.19590710014E+02  0.19631831776E+02  0.12700000000E+01 0. -1.
         25    2    1    2    0    0  0.00000000000E+00  0.00000000000E+00  0.17949075359E+03  0.21871734620E+03  0.12498138622E+03 0.  0.
    9000005    1    3    3    0    0  0.28808701668E+02 -0.48475437266E+02  0.42648689347E+02  0.70708698283E+02  0.10000000000E+01 0.  0.
    9000005    1    3    3    0    0 -0.28808701668E+02  0.48475437266E+02  0.13684206424E+03  0.14800864791E+03  0.10000000000E+01 0.  0.
<mgrwt>
<rscale>  0 0.12498139E+03</rscale>
<asrwt>0</asrwt>
<pdfrwt beam="2">  1        4 0.49033241E-02 0.12498139E+03</pdfrwt>
<pdfrwt beam="1">  1       -4 0.49776012E-01 0.12498139E+03</pdfrwt>
<totfact> 0.15605727E+03</totfact>
</mgrwt>
</event>
<event>
 5    1  0.1430314E-002  0.1249958E+03  0.7818608E-02  0.1235076E+00
         -4   -1    0    0    0  501 -0.00000000000E+00  0.00000000000E+00  0.13228599770E+03  0.13229209382E+03  0.12700000000E+01 0.  1.
          4   -1    0    0  501    0  0.00000000000E+00 -0.00000000000E+00 -0.29506391970E+02  0.29533710689E+02  0.12700000000E+01 0.  1.
         25    2    1    2    0    0  0.00000000000E+00  0.00000000000E+00  0.10277960573E+03  0.16182580451E+03  0.12499577453E+03 0.  0.
    9000005    1    3    3    0    0  0.97849789875E+01 -0.56764119230E+02  0.20020910286E+02  0.60989735976E+02  0.10000000000E+01 0.  0.
    9000005    1    3    3    0    0 -0.97849789875E+01  0.56764119230E+02  0.82758695445E+02  0.10083606853E+03  0.10000000000E+01 0.  0.
<mgrwt>
<rscale>  0 0.12499577E+03</rscale>
<asrwt>0</asrwt>
<pdfrwt beam="2">  1        4 0.73807749E-02 0.12499577E+03</pdfrwt>
<pdfrwt beam="1">  1       -4 0.33075676E-01 0.12499577E+03</pdfrwt>
<totfact> 0.17973931E+03</totfact>
</mgrwt>
</event>
<event>
 5    1  0.1430314E-002  0.1249979E+03  0.7818608E-02  0.1235073E+00
          4   -1    0    0  501    0  0.00000000000E+00  0.00000000000E+00  0.11477350183E+03  0.11478052807E+03  0.12700000000E+01 0.  1.
         -4   -1    0    0    0  501 -0.00000000000E+00 -0.00000000000E+00 -0.34013352454E+02  0.34037054002E+02  0.12700000000E+01 0.  1.
         25    2    1    2    0    0  0.00000000000E+00  0.00000000000E+00  0.80760149381E+02  0.14881758207E+03  0.12499788400E+03 0.  0.
    9000005    1    3    3    0    0  0.58874933253E+02  0.19194629797E+02  0.50371297094E+02  0.79830815789E+02  0.10000000000E+01 0.  0.
    9000005    1    3    3    0    0 -0.58874933253E+02 -0.19194629797E+02  0.30388852287E+02  0.68986766281E+02  0.10000000000E+01 0.  0.
<mgrwt>
<rscale>  0 0.12499788E+03</rscale>
<asrwt>0</asrwt>
<pdfrwt beam="1">  1        4 0.28697216E-01 0.12499788E+03</pdfrwt>
<pdfrwt beam="2">  1       -4 0.85071792E-02 0.12499788E+03</pdfrwt>
<totfact> 0.18597989E+03</totfact>
</mgrwt>
</event>
<event>
 5    1  0.1430314E-002  0.1250040E+03  0.7818608E-02  0.1235063E+00
          4   -1    0    0  501    0  0.00000000000E+00  0.00000000000E+00  0.72585787955E+01  0.73688442873E+01  0.12700000000E+01 0. -1.
         -4   -1    0    0    0  501 -0.00000000000E+00 -0.00000000000E+00 -0.53402312414E+03  0.53402463428E+03  0.12700000000E+01 0. -1.
         25    2    1    2    0    0  0.00000000000E+00  0.00000000000E+00 -0.52676454534E+03  0.54139347857E+03  0.12500404954E+03 0.  0.
    9000005    1    3    3    0    0  0.16326639000E+01 -0.61093112189E+02 -0.31992956811E+03  0.32571607652E+03  0.10000000000E+01 0.  0.
    9000005    1    3    3    0    0 -0.16326639000E+01  0.61093112189E+02 -0.20683497723E+03  0.21567740205E+03  0.10000000000E+01 0.  0.
<mgrwt>
<rscale>  0 0.12500405E+03</rscale>
<asrwt>0</asrwt>
<pdfrwt beam="1">  1        4 0.18286185E-02 0.12500405E+03</pdfrwt>
<pdfrwt beam="2">  1       -4 0.13351962E+00 0.12500405E+03</pdfrwt>
<totfact> 0.81371381E+02</totfact>
</mgrwt>
</event>
<event>
 5    1  0.1430314E-002  0.1249826E+03  0.7818608E-02  0.1235096E+00
          4   -1    0    0  501    0  0.00000000000E+00  0.00000000000E+00  0.14035332190E+02  0.14092673617E+02  0.12700000000E+01 0.  1.
         -4   -1    0    0    0  501 -0.00000000000E+00 -0.00000000000E+00 -0.27761200823E+03  0.27761491317E+03  0.12700000000E+01 0.  1.
         25    2    1    2    0    0  0.00000000000E+00  0.00000000000E+00 -0.26357667604E+03  0.29170758678E+03  0.12498260693E+03 0.  0.
    9000005    1    3    3    0    0  0.47104985498E+02 -0.28248853718E+02 -0.20131155593E+03  0.20867251843E+03  0.10000000000E+01 0.  0.
    9000005    1    3    3    0    0 -0.47104985498E+02  0.28248853718E+02 -0.62265120107E+02  0.83035068357E+02  0.10000000000E+01 0.  0.
<mgrwt>
<rscale>  0 0.12498261E+03</rscale>
<asrwt>0</asrwt>
<pdfrwt beam="1">  1        4 0.35163647E-02 0.12498261E+03</pdfrwt>
<pdfrwt beam="2">  1       -4 0.69410515E-01 0.12498261E+03</pdfrwt>
<totfact> 0.13211959E+03</totfact>
</mgrwt>
</event>
<event>
 5    1  0.1430314E-002  0.1250027E+03  0.7818608E-02  0.1235065E+00
         -4   -1    0    0    0  501 -0.00000000000E+00  0.00000000000E+00  0.33252368757E+02  0.33276612327E+02  0.12700000000E+01 0.  1.
          4   -1    0    0  501    0  0.00000000000E+00 -0.00000000000E+00 -0.11740741538E+03  0.11741428399E+03  0.12700000000E+01 0.  1.
         25    2    1    2    0    0  0.00000000000E+00  0.00000000000E+00 -0.84155046621E+02  0.15069089632E+03  0.12500269742E+03 0.  0.
    9000005    1    3    3    0    0  0.20257504662E+02  0.16489912687E+01 -0.11331777588E+03  0.11513037826E+03  0.10000000000E+01 0.  0.
    9000005    1    3    3    0    0 -0.20257504662E+02 -0.16489912687E+01  0.29162729257E+02  0.35560518065E+02  0.10000000000E+01 0.  0.
<mgrwt>
<rscale>  0 0.12500270E+03</rscale>
<asrwt>0</asrwt>
<pdfrwt beam="2">  1        4 0.29355742E-01 0.12500270E+03</pdfrwt>
<pdfrwt beam="1">  1       -4 0.83169815E-02 0.12500270E+03</pdfrwt>
<totfact> 0.18503700E+03</totfact>
</mgrwt>
</event>
<event>
 5    1  0.1430314E-002  0.1250021E+03  0.7818608E-02  0.1235066E+00
         -4   -1    0    0    0  501 -0.00000000000E+00  0.00000000000E+00  0.10429622592E+02  0.10506661097E+02  0.12700000000E+01 0.  1.
          4   -1    0    0  501    0  0.00000000000E+00 -0.00000000000E+00 -0.37309043453E+03  0.37309259607E+03  0.12700000000E+01 0.  1.
         25    2    1    2    0    0  0.00000000000E+00  0.00000000000E+00 -0.36266081194E+03  0.38359925716E+03  0.12500210230E+03 0.  0.
    9000005    1    3    3    0    0 -0.36749351683E+02 -0.44018017816E+02 -0.10508709056E+03  0.11971799090E+03  0.10000000000E+01 0.  0.
    9000005    1    3    3    0    0  0.36749351683E+02  0.44018017816E+02 -0.25757372138E+03  0.26388126627E+03  0.10000000000E+01 0.  0.
<mgrwt>
<rscale>  0 0.12500210E+03</rscale>
<asrwt>0</asrwt>
<pdfrwt beam="2">  1        4 0.93282464E-01 0.12500210E+03</pdfrwt>
<pdfrwt beam="1">  1       -4 0.26173069E-02 0.12500210E+03</pdfrwt>
<totfact> 0.10914494E+03</totfact>
</mgrwt>
</event>
<event>
 5    1  0.1430314E-002  0.1250001E+03  0.7818608E-02  0.1235069E+00
          4   -1    0    0  501    0  0.00000000000E+00  0.00000000000E+00  0.16050202233E+02  0.16100369304E+02  0.12700000000E+01 0.  1.
         -4   -1    0    0    0  501 -0.00000000000E+00 -0.00000000000E+00 -0.24294572518E+03  0.24294904462E+03  0.12700000000E+01 0.  1.
         25    2    1    2    0    0  0.00000000000E+00  0.00000000000E+00 -0.22689552295E+03  0.25904941393E+03  0.12500008209E+03 0.  0.
    9000005    1    3    3    0    0  0.36520953516E+02  0.50659155791E+02 -0.11813935173E+03  0.13363396477E+03  0.10000000000E+01 0.  0.
    9000005    1    3    3    0    0 -0.36520953516E+02 -0.50659155791E+02 -0.10875617121E+03  0.12541544916E+03  0.10000000000E+01 0.  0.
<mgrwt>
<rscale>  0 0.12500008E+03</rscale>
<asrwt>0</asrwt>
<pdfrwt beam="1">  1        4 0.40192371E-02 0.12500008E+03</pdfrwt>
<pdfrwt beam="2">  1       -4 0.60743105E-01 0.12500008E+03</pdfrwt>
<totfact> 0.14201701E+03</totfact>
</mgrwt>
</event>
<event>
 5    1  0.1430314E-002  0.1249885E+03  0.7818608E-02  0.1235087E+00
          4   -1    0    0  501    0  0.00000000000E+00  0.00000000000E+00  0.15364153692E+02  0.15416553398E+02  0.12700000000E+01 0.  1.
         -4   -1    0    0    0  501 -0.00000000000E+00 -0.00000000000E+00 -0.25371075815E+03  0.25371393675E+03  0.12700000000E+01 0.  1.
         25    2    1    2    0    0  0.00000000000E+00  0.00000000000E+00 -0.23834660446E+03  0.26913049015E+03  0.12498846695E+03 0.  0.
    9000005    1    3    3    0    0 -0.55808527421E+01  0.50803240990E+02 -0.19658271785E+03  0.20312035883E+03  0.10000000000E+01 0.  0.
    9000005    1    3    3    0    0  0.55808527421E+01 -0.50803240990E+02 -0.41763886608E+02  0.66010131321E+02  0.10000000000E+01 0.  0.
<mgrwt>
<rscale>  0 0.12498847E+03</rscale>
<asrwt>0</asrwt>
<pdfrwt beam="1">  1        4 0.38479865E-02 0.12498847E+03</pdfrwt>
<pdfrwt beam="2">  1       -4 0.63434623E-01 0.12498847E+03</pdfrwt>
<totfact> 0.13886260E+03</totfact>
</mgrwt>
</event>
<event>
 5    1  0.1430314E-002  0.1249996E+03  0.7818608E-02  0.1235070E+00
         -4   -1    0    0    0  501 -0.00000000000E+00  0.00000000000E+00  0.15142537904E+03  0.15143070468E+03  0.12700000000E+01 0. -1.
          4   -1    0    0  501    0  0.00000000000E+00 -0.00000000000E+00 -0.25774972931E+02  0.25806242066E+02  0.12700000000E+01 0. -1.
         25    2    1    2    0    0  0.00000000000E+00  0.00000000000E+00  0.12565040611E+03  0.17723694674E+03  0.12499964294E+03 0.  0.
    9000005    1    3    3    0    0  0.46525880272E+02 -0.54438533169E+01  0.12147441664E+03  0.13019726177E+03  0.10000000000E+01 0.  0.
    9000005    1    3    3    0    0 -0.46525880272E+02  0.54438533169E+01  0.41759894688E+01  0.47039684970E+02  0.10000000000E+01 0.  0.
<mgrwt>
<rscale>  0 0.12499964E+03</rscale>
<asrwt>0</asrwt>
<pdfrwt beam="2">  1        4 0.64483177E-02 0.12499964E+03</pdfrwt>
<pdfrwt beam="1">  1       -4 0.37860918E-01 0.12499964E+03</pdfrwt>
<totfact> 0.17275628E+03</totfact>
</mgrwt>
</event>
<event>
 5    1  0.1430314E-002  0.1249960E+03  0.7818608E-02  0.1235076E+00
         -4   -1    0    0    0  501 -0.00000000000E+00  0.00000000000E+00  0.44035464315E+03  0.44035647452E+03  0.12700000000E+01 0.  1.
          4   -1    0    0  501    0  0.00000000000E+00 -0.00000000000E+00 -0.88228039370E+01  0.89137404781E+01  0.12700000000E+01 0.  1.
         25    2    1    2    0    0  0.00000000000E+00  0.00000000000E+00  0.43153183922E+03  0.44927021499E+03  0.12499599122E+03 0.  0.
    9000005    1    3    3    0    0 -0.56599250701E+02  0.21142444101E+02  0.27310802533E+03  0.27971319529E+03  0.10000000000E+01 0.  0.
    9000005    1    3    3    0    0  0.56599250701E+02 -0.21142444101E+02  0.15842381389E+03  0.16955701970E+03  0.10000000000E+01 0.  0.
<mgrwt>
<rscale>  0 0.12499599E+03</rscale>
<asrwt>0</asrwt>
<pdfrwt beam="2">  1        4 0.22172967E-02 0.12499599E+03</pdfrwt>
<pdfrwt beam="1">  1       -4 0.11010027E+00 0.12499599E+03</pdfrwt>
<totfact> 0.96156875E+02</totfact>
</mgrwt>
</event>
<event>
 5    1  0.1430314E-002  0.1250016E+03  0.7818608E-02  0.1235067E+00
          4   -1    0    0  501    0  0.00000000000E+00  0.00000000000E+00  0.35115422988E+02  0.35138381176E+02  0.12700000000E+01 0.  1.
         -4   -1    0    0    0  501 -0.00000000000E+00 -0.00000000000E+00 -0.11118025641E+03  0.11118750971E+03  0.12700000000E+01 0.  1.
         25    2    1    2    0    0  0.00000000000E+00  0.00000000000E+00 -0.76064833418E+02  0.14632589088E+03  0.12500162983E+03 0.  0.
    9000005    1    3    3    0    0 -0.65135592795E+01 -0.54449090317E+02 -0.29493669798E+01  0.54925664824E+02  0.10000000000E+01 0.  0.
    9000005    1    3    3    0    0  0.65135592795E+01  0.54449090317E+02 -0.73115466438E+02  0.91400226057E+02  0.10000000000E+01 0.  0.
<mgrwt>
<rscale>  0 0.12500163E+03</rscale>
<asrwt>0</asrwt>
<pdfrwt beam="1">  1        4 0.87826324E-02 0.12500163E+03</pdfrwt>
<pdfrwt beam="2">  1       -4 0.27798840E-01 0.12500163E+03</pdfrwt>
<totfact> 0.18720214E+03</totfact>
</mgrwt>
</event>
<event>
 5    1  0.1430314E-002  0.1249981E+03  0.7818608E-02  0.1235072E+00
          4   -1    0    0  501    0  0.00000000000E+00  0.00000000000E+00  0.41657452931E+02  0.41676807516E+02  0.12700000000E+01 0. -1.
         -4   -1    0    0    0  501 -0.00000000000E+00 -0.00000000000E+00 -0.93722480371E+02  0.93731084635E+02  0.12700000000E+01 0. -1.
         25    2    1    2    0    0  0.00000000000E+00  0.00000000000E+00 -0.52065027440E+02  0.13540789215E+03  0.12499812068E+03 0.  0.
    9000005    1    3    3    0    0  0.28591810997E+02  0.55384335827E+02 -0.21161822408E+02  0.65831140342E+02  0.10000000000E+01 0.  0.
    9000005    1    3    3    0    0 -0.28591810997E+02 -0.55384335827E+02 -0.30903205032E+02  0.69576751809E+02  0.10000000000E+01 0.  0.
<mgrwt>
<rscale>  0 0.12499812E+03</rscale>
<asrwt>0</asrwt>
<pdfrwt beam="1">  1        4 0.10417858E-01 0.12499812E+03</pdfrwt>
<pdfrwt beam="2">  1       -4 0.23434115E-01 0.12499812E+03</pdfrwt>
<totfact> 0.19278639E+03</totfact>
</mgrwt>
</event>
<event>
 5    1  0.1430314E-002  0.1249935E+03  0.7818608E-02  0.1235079E+00
          4   -1    0    0  501    0  0.00000000000E+00  0.00000000000E+00  0.19986948071E+02  0.20027256258E+02  0.12700000000E+01 0.  1.
         -4   -1    0    0    0  501 -0.00000000000E+00 -0.00000000000E+00 -0.19518056500E+03  0.19518469677E+03  0.12700000000E+01 0.  1.
         25    2    1    2    0    0  0.00000000000E+00  0.00000000000E+00 -0.17519361692E+03  0.21521195302E+03  0.12499352509E+03 0.  0.
    9000005    1    3    3    0    0 -0.11372549884E+02  0.27138480345E+02  0.73204474999E+01  0.30338440268E+02  0.10000000000E+01 0.  0.
    9000005    1    3    3    0    0  0.11372549884E+02 -0.27138480345E+02 -0.18251406442E+03  0.18487351276E+03  0.10000000000E+01 0.  0.
<mgrwt>
<rscale>  0 0.12499353E+03</rscale>
<asrwt>0</asrwt>
<pdfrwt beam="1">  1        4 0.50022926E-02 0.12499353E+03</pdfrwt>
<pdfrwt beam="2">  1       -4 0.48800690E-01 0.12499353E+03</pdfrwt>
<totfact> 0.15732876E+03</totfact>
</mgrwt>
</event>
<event>
 5    1  0.1430314E-002  0.1249992E+03  0.7818608E-02  0.1235070E+00
         -4   -1    0    0    0  501 -0.00000000000E+00  0.00000000000E+00  0.34137379709E+02  0.34160995205E+02  0.12700000000E+01 0.  1.
          4   -1    0    0  501    0  0.00000000000E+00 -0.00000000000E+00 -0.11435924773E+03  0.11436629941E+03  0.12700000000E+01 0.  1.
         25    2    1    2    0    0  0.00000000000E+00  0.00000000000E+00 -0.80221868021E+02  0.14852729462E+03  0.12499923655E+03 0.  0.
    9000005    1    3    3    0    0  0.59224873781E+02 -0.24214707995E+01 -0.63629190639E+02  0.86966218134E+02  0.10000000000E+01 0.  0.
    9000005    1    3    3    0    0 -0.59224873781E+02  0.24214707995E+01 -0.16592677383E+02  0.61561076484E+02  0.10000000000E+01 0.  0.
<mgrwt>
<rscale>  0 0.12499924E+03</rscale>
<asrwt>0</asrwt>
<pdfrwt beam="2">  1        4 0.28593644E-01 0.12499924E+03</pdfrwt>
<pdfrwt beam="1">  1       -4 0.85381786E-02 0.12499924E+03</pdfrwt>
<totfact> 0.18611762E+03</totfact>
</mgrwt>
</event>
<event>
 5    1  0.1430314E-002  0.1250010E+03  0.7818608E-02  0.1235068E+00
          4   -1    0    0  501    0  0.00000000000E+00  0.00000000000E+00  0.81715352900E+01  0.82696365698E+01  0.12700000000E+01 0. -1.
         -4   -1    0    0    0  501 -0.00000000000E+00 -0.00000000000E+00 -0.47508779060E+03  0.47508948807E+03  0.12700000000E+01 0. -1.
         25    2    1    2    0    0  0.00000000000E+00  0.00000000000E+00 -0.46691625531E+03  0.48335912464E+03  0.12500101561E+03 0.  0.
    9000005    1    3    3    0    0 -0.36605192467E+02  0.46176411539E+02 -0.15298392592E+03  0.16394292509E+03  0.10000000000E+01 0.  0.
    9000005    1    3    3    0    0  0.36605192467E+02 -0.46176411539E+02 -0.31393232939E+03  0.31941619955E+03  0.10000000000E+01 0.  0.
<mgrwt>
<rscale>  0 0.12500102E+03</rscale>
<asrwt>0</asrwt>
<pdfrwt beam="1">  1        4 0.20553603E-02 0.12500102E+03</pdfrwt>
<pdfrwt beam="2">  1       -4 0.11878433E+00 0.12500102E+03</pdfrwt>
<totfact> 0.90311468E+02</totfact>
</mgrwt>
</event>
<event>
 5    1  0.1430314E-002  0.1249996E+03  0.7818608E-02  0.1235070E+00
         -4   -1    0    0    0  501 -0.00000000000E+00  0.00000000000E+00  0.46226087559E+02  0.46243530045E+02  0.12700000000E+01 0.  1.
          4   -1    0    0  501    0  0.00000000000E+00 -0.00000000000E+00 -0.84464450152E+02  0.84473997417E+02  0.12700000000E+01 0.  1.
         25    2    1    2    0    0  0.00000000000E+00  0.00000000000E+00 -0.38238362593E+02  0.13071752746E+03  0.12499959845E+03 0.  0.
    9000005    1    3    3    0    0 -0.38054423930E+02 -0.38922408748E+02  0.12979045597E+02  0.55969176410E+02  0.10000000000E+01 0.  0.
    9000005    1    3    3    0    0  0.38054423930E+02  0.38922408748E+02 -0.51217408189E+02  0.74748351052E+02  0.10000000000E+01 0.  0.
<mgrwt>
<rscale>  0 0.12499960E+03</rscale>
<asrwt>0</asrwt>
<pdfrwt beam="2">  1        4 0.21119486E-01 0.12499960E+03</pdfrwt>
<pdfrwt beam="1">  1       -4 0.11559896E-01 0.12499960E+03</pdfrwt>
<totfact> 0.19526070E+03</totfact>
</mgrwt>
</event>
<event>
 5    1  0.1430314E-002  0.1249919E+03  0.7818608E-02  0.1235082E+00
          4   -1    0    0  501    0  0.00000000000E+00  0.00000000000E+00  0.43045644384E+03  0.43045831731E+03  0.12700000000E+01 0. -1.
         -4   -1    0    0    0  501 -0.00000000000E+00 -0.00000000000E+00 -0.90271539002E+01  0.91160521903E+01  0.12700000000E+01 0. -1.
         25    2    1    2    0    0  0.00000000000E+00  0.00000000000E+00  0.42142928994E+03  0.43957436950E+03  0.12499191936E+03 0.  0.
    9000005    1    3    3    0    0 -0.60187786730E+02  0.16416447162E+02  0.22323550396E+03  0.23179119836E+03  0.10000000000E+01 0.  0.
    9000005    1    3    3    0    0  0.60187786730E+02 -0.16416447162E+02  0.19819378597E+03  0.20778317113E+03  0.10000000000E+01 0.  0.
<mgrwt>
<rscale>  0 0.12499192E+03</rscale>
<asrwt>0</asrwt>
<pdfrwt beam="1">  1        4 0.10762544E+00 0.12499192E+03</pdfrwt>
<pdfrwt beam="2">  1       -4 0.22681352E-02 0.12499192E+03</pdfrwt>
<totfact> 0.97937370E+02</totfact>
</mgrwt>
</event>
<event>
 5    1  0.1430314E-002  0.1249990E+03  0.7818608E-02  0.1235071E+00
          4   -1    0    0  501    0  0.00000000000E+00  0.00000000000E+00  0.37158719156E+02  0.37180415669E+02  0.12700000000E+01 0. -1.
         -4   -1    0    0    0  501 -0.00000000000E+00 -0.00000000000E+00 -0.10506552567E+03  0.10507320108E+03  0.12700000000E+01 0. -1.
         25    2    1    2    0    0  0.00000000000E+00  0.00000000000E+00 -0.67906806516E+02  0.14225361675E+03  0.12499902842E+03 0.  0.
    9000005    1    3    3    0    0  0.49820578128E+02 -0.26794652767E+02 -0.37332850897E+01  0.56700801047E+02  0.10000000000E+01 0.  0.
    9000005    1    3    3    0    0 -0.49820578128E+02  0.26794652767E+02 -0.64173521426E+02  0.85552815699E+02  0.10000000000E+01 0.  0.
<mgrwt>
<rscale>  0 0.12499903E+03</rscale>
<asrwt>0</asrwt>
<pdfrwt beam="1">  1        4 0.92933515E-02 0.12499903E+03</pdfrwt>
<pdfrwt beam="2">  1       -4 0.26270052E-01 0.12499903E+03</pdfrwt>
<totfact> 0.18926067E+03</totfact>
</mgrwt>
</event>
<event>
 5    1  0.1430314E-002  0.1250022E+03  0.7818608E-02  0.1235066E+00
          4   -1    0    0  501    0  0.00000000000E+00  0.00000000000E+00  0.45854624445E+03  0.45854800316E+03  0.12700000000E+01 0. -1.
         -4   -1    0    0    0  501 -0.00000000000E+00 -0.00000000000E+00 -0.84699480357E+01  0.85646319085E+01  0.12700000000E+01 0. -1.
         25    2    1    2    0    0  0.00000000000E+00  0.00000000000E+00  0.45007629641E+03  0.46711263507E+03  0.12500216496E+03 0.  0.
    9000005    1    3    3    0    0  0.23100218388E+02  0.27998223988E+02  0.34941324130E+02  0.50392626127E+02  0.10000000000E+01 0.  0.
    9000005    1    3    3    0    0 -0.23100218388E+02 -0.27998223988E+02  0.41513497228E+03  0.41672000894E+03  0.10000000000E+01 0.  0.
<mgrwt>
<rscale>  0 0.12500216E+03</rscale>
<asrwt>0</asrwt>
<pdfrwt beam="1">  1        4 0.11464862E+00 0.12500216E+03</pdfrwt>
<pdfrwt beam="2">  1       -4 0.21295423E-02 0.12500216E+03</pdfrwt>
<totfact> 0.93019240E+02</totfact>
</mgrwt>
</event>
<event>
 5    1  0.1430314E-002  0.1249992E+03  0.7818608E-02  0.1235071E+00
          4   -1    0    0  501    0  0.00000000000E+00  0.00000000000E+00  0.14260806219E+03  0.14261371709E+03  0.12700000000E+01 0. -1.
         -4   -1    0    0    0  501 -0.00000000000E+00 -0.00000000000E+00 -0.27370229204E+02  0.27399677857E+02  0.12700000000E+01 0. -1.
         25    2    1    2    0    0  0.00000000000E+00  0.00000000000E+00  0.11523783299E+03  0.17001339494E+03  0.12499918523E+03 0.  0.
    9000005    1    3    3    0    0 -0.23214541250E+02 -0.56132223597E+02  0.37654487533E+02  0.71474484137E+02  0.10000000000E+01 0.  0.
    9000005    1    3    3    0    0  0.23214541250E+02  0.56132223597E+02  0.77583345453E+02  0.98538910807E+02  0.10000000000E+01 0.  0.
<mgrwt>
<rscale>  0 0.12499919E+03</rscale>
<asrwt>0</asrwt>
<pdfrwt beam="1">  1        4 0.35656403E-01 0.12499919E+03</pdfrwt>
<pdfrwt beam="2">  1       -4 0.68469453E-02 0.12499919E+03</pdfrwt>
<totfact> 0.17596776E+03</totfact>
</mgrwt>
</event>
<event>
 5    1  0.1430314E-002  0.1250009E+03  0.7818608E-02  0.1235068E+00
          4   -1    0    0  501    0  0.00000000000E+00  0.00000000000E+00  0.73253905418E+01  0.74346651969E+01  0.12700000000E+01 0.  1.
         -4   -1    0    0    0  501 -0.00000000000E+00 -0.00000000000E+00 -0.52919735156E+03  0.52919887547E+03  0.12700000000E+01 0.  1.
         25    2    1    2    0    0  0.00000000000E+00  0.00000000000E+00 -0.52187196101E+03  0.53663354066E+03  0.12500085308E+03 0.  0.
    9000005    1    3    3    0    0  0.21734724711E+02 -0.57281276715E+02 -0.31382238766E+03  0.31974839158E+03  0.10000000000E+01 0.  0.
    9000005    1    3    3    0    0 -0.21734724711E+02  0.57281276715E+02 -0.20804957336E+03  0.21688514909E+03  0.10000000000E+01 0.  0.
<mgrwt>
<rscale>  0 0.12500085E+03</rscale>
<asrwt>0</asrwt>
<pdfrwt beam="1">  1        4 0.18451992E-02 0.12500085E+03</pdfrwt>
<pdfrwt beam="2">  1       -4 0.13231306E+00 0.12500085E+03</pdfrwt>
<totfact> 0.82059043E+02</totfact>
</mgrwt>
</event>
<event>
 5    1  0.1430314E-002  0.1249978E+03  0.7818608E-02  0.1235073E+00
          4   -1    0    0  501    0  0.00000000000E+00  0.00000000000E+00  0.12282382198E+03  0.12283038772E+03  0.12700000000E+01 0.  1.
         -4   -1    0    0    0  501 -0.00000000000E+00 -0.00000000000E+00 -0.31782462795E+02  0.31807826731E+02  0.12700000000E+01 0.  1.
         25    2    1    2    0    0  0.00000000000E+00  0.00000000000E+00  0.91041359189E+02  0.15463821445E+03  0.12499779312E+03 0.  0.
    9000005    1    3    3    0    0  0.47140637568E+02  0.31993897595E+02  0.13756050263E+02  0.58618069846E+02  0.10000000000E+01 0.  0.
    9000005    1    3    3    0    0 -0.47140637568E+02 -0.31993897595E+02  0.77285308926E+02  0.96020144602E+02  0.10000000000E+01 0.  0.
<mgrwt>
<rscale>  0 0.12499779E+03</rscale>
<asrwt>0</asrwt>
<pdfrwt beam="1">  1        4 0.30709946E-01 0.12499779E+03</pdfrwt>
<pdfrwt beam="2">  1       -4 0.79496070E-02 0.12499779E+03</pdfrwt>
<totfact> 0.18313986E+03</totfact>
</mgrwt>
</event>
<event>
 5    1  0.1430314E-002  0.1249983E+03  0.7818608E-02  0.1235072E+00
          4   -1    0    0  501    0  0.00000000000E+00  0.00000000000E+00  0.16437439607E+02  0.16486428383E+02  0.12700000000E+01 0.  1.
         -4   -1    0    0    0  501 -0.00000000000E+00 -0.00000000000E+00 -0.23723272705E+03  0.23723612643E+03  0.12700000000E+01 0.  1.
         25    2    1    2    0    0  0.00000000000E+00  0.00000000000E+00 -0.22079528744E+03  0.25372255481E+03  0.12499830344E+03 0.  0.
    9000005    1    3    3    0    0 -0.23647358675E+02  0.41137706830E+02 -0.27855670470E+02  0.55031326287E+02  0.10000000000E+01 0.  0.
    9000005    1    3    3    0    0  0.23647358675E+02 -0.41137706830E+02 -0.19293961697E+03  0.19869122853E+03  0.10000000000E+01 0.  0.
<mgrwt>
<rscale>  0 0.12499830E+03</rscale>
<asrwt>0</asrwt>
<pdfrwt beam="1">  1        4 0.41159092E-02 0.12499830E+03</pdfrwt>
<pdfrwt beam="2">  1       -4 0.59314719E-01 0.12499830E+03</pdfrwt>
<totfact> 0.14375531E+03</totfact>
</mgrwt>
</event>
<event>
 5    1  0.1430314E-002  0.1250149E+03  0.7818608E-02  0.1235046E+00
         -4   -1    0    0    0  501 -0.00000000000E+00  0.00000000000E+00  0.15262734778E+03  0.15263263148E+03  0.12700000000E+01 0.  1.
          4   -1    0    0  501    0  0.00000000000E+00 -0.00000000000E+00 -0.25577993994E+02  0.25609503642E+02  0.12700000000E+01 0.  1.
         25    2    1    2    0    0  0.00000000000E+00  0.00000000000E+00  0.12704935379E+03  0.17824213512E+03  0.12501488085E+03 0.  0.
    9000005    1    3    3    0    0  0.10613506644E+02 -0.60760887373E+02  0.77899364170E+02  0.99367212378E+02  0.10000000000E+01 0.  0.
    9000005    1    3    3    0    0 -0.10613506644E+02  0.60760887373E+02  0.49149989620E+02  0.78874922741E+02  0.10000000000E+01 0.  0.
<mgrwt>
<rscale>  0 0.12501488E+03</rscale>
<asrwt>0</asrwt>
<pdfrwt beam="2">  1        4 0.63990978E-02 0.12501488E+03</pdfrwt>
<pdfrwt beam="1">  1       -4 0.38161436E-01 0.12501488E+03</pdfrwt>
<totfact> 0.17225629E+03</totfact>
</mgrwt>
</event>
<event>
 5    1  0.1430314E-002  0.1250021E+03  0.7818608E-02  0.1235066E+00
          4   -1    0    0  501    0  0.00000000000E+00  0.00000000000E+00  0.13449106382E+02  0.13508936393E+02  0.12700000000E+01 0.  1.
         -4   -1    0    0    0  501 -0.00000000000E+00 -0.00000000000E+00 -0.28975056680E+03  0.28975335004E+03  0.12700000000E+01 0.  1.
         25    2    1    2    0    0  0.00000000000E+00  0.00000000000E+00 -0.27630146041E+03  0.30326228643E+03  0.12500206936E+03 0.  0.
    9000005    1    3    3    0    0 -0.42061371788E+02 -0.29891198969E+02 -0.52626191480E+02  0.73709964063E+02  0.10000000000E+01 0.  0.
    9000005    1    3    3    0    0  0.42061371788E+02  0.29891198969E+02 -0.22367526893E+03  0.22955232237E+03  0.10000000000E+01 0.  0.
<mgrwt>
<rscale>  0 0.12500207E+03</rscale>
<asrwt>0</asrwt>
<pdfrwt beam="1">  1        4 0.33701042E-02 0.12500207E+03</pdfrwt>
<pdfrwt beam="2">  1       -4 0.72445448E-01 0.12500207E+03</pdfrwt>
<totfact> 0.12879506E+03</totfact>
</mgrwt>
</event>
<event>
 5    1  0.1430314E-002  0.1250452E+03  0.7818608E-02  0.1234999E+00
         -4   -1    0    0    0  501 -0.00000000000E+00  0.00000000000E+00  0.47952063535E+01  0.49605346458E+01  0.12700000000E+01 0. -1.
          4   -1    0    0  501    0  0.00000000000E+00 -0.00000000000E+00 -0.80122406863E+03  0.80122507515E+03  0.12700000000E+01 0. -1.
         25    2    1    2    0    0  0.00000000000E+00  0.00000000000E+00 -0.79642886227E+03  0.80618560980E+03  0.12504521093E+03 0.  0.
    9000005    1    3    3    0    0 -0.32234630051E+02 -0.53077918031E+02 -0.44458888727E+03  0.44890602072E+03  0.10000000000E+01 0.  0.
    9000005    1    3    3    0    0  0.32234630051E+02  0.53077918031E+02 -0.35183997500E+03  0.35727958907E+03  0.10000000000E+01 0.  0.
<mgrwt>
<rscale>  0 0.12504521E+03</rscale>
<asrwt>0</asrwt>
<pdfrwt beam="2">  1        4 0.20032636E+00 0.12504521E+03</pdfrwt>
<pdfrwt beam="1">  1       -4 0.12195962E-02 0.12504521E+03</pdfrwt>
<totfact> 0.51881834E+02</totfact>
</mgrwt>
</event>
<event>
 5    1  0.1430314E-002  0.1250015E+03  0.7818608E-02  0.1235067E+00
          4   -1    0    0  501    0  0.00000000000E+00  0.00000000000E+00  0.14510063459E+03  0.14510619235E+03  0.12700000000E+01 0. -1.
         -4   -1    0    0    0  501 -0.00000000000E+00 -0.00000000000E+00 -0.26900582317E+02  0.26930544536E+02  0.12700000000E+01 0. -1.
         25    2    1    2    0    0  0.00000000000E+00  0.00000000000E+00  0.11820005227E+03  0.17203673688E+03  0.12500154591E+03 0.  0.
    9000005    1    3    3    0    0  0.56012610906E+02  0.27663445920E+02  0.61347954159E+02  0.87562836296E+02  0.10000000000E+01 0.  0.
    9000005    1    3    3    0    0 -0.56012610906E+02 -0.27663445920E+02  0.56852098111E+02  0.84473900587E+02  0.10000000000E+01 0.  0.
<mgrwt>
<rscale>  0 0.12500155E+03</rscale>
<asrwt>0</asrwt>
<pdfrwt beam="1">  1        4 0.36279599E-01 0.12500155E+03</pdfrwt>
<pdfrwt beam="2">  1       -4 0.67295855E-02 0.12500155E+03</pdfrwt>
<totfact> 0.17504943E+03</totfact>
</mgrwt>
</event>
<event>
 5    1  0.1430314E-002  0.1250001E+03  0.7818608E-02  0.1235069E+00
         -4   -1    0    0    0  501 -0.00000000000E+00  0.00000000000E+00  0.72859605396E+02  0.72870673103E+02  0.12700000000E+01 0.  1.
          4   -1    0    0  501    0  0.00000000000E+00 -0.00000000000E+00 -0.53590838231E+02  0.53605884400E+02  0.12700000000E+01 0.  1.
         25    2    1    2    0    0  0.00000000000E+00  0.00000000000E+00  0.19268767165E+02  0.12647655750E+03  0.12500013684E+03 0.  0.
    9000005    1    3    3    0    0  0.12677038983E+02  0.49179242601E+01 -0.52080844416E+02  0.53835932717E+02  0.10000000000E+01 0.  0.
    9000005    1    3    3    0    0 -0.12677038983E+02 -0.49179242601E+01  0.71349611581E+02  0.72640624785E+02  0.10000000000E+01 0.  0.
<mgrwt>
<rscale>  0 0.12500014E+03</rscale>
<asrwt>0</asrwt>
<pdfrwt beam="2">  1        4 0.13400974E-01 0.12500014E+03</pdfrwt>
<pdfrwt beam="1">  1       -4 0.18218165E-01 0.12500014E+03</pdfrwt>
<totfact> 0.19755126E+03</totfact>
</mgrwt>
</event>
<event>
 4    1  0.1430314E-002  0.1233736E+03  0.7818608E-02  0.1237633E+00
         -4   -1    0    0    0  501 -0.00000000000E+00  0.00000000000E+00  0.25790042881E+03  0.25790355578E+03  0.12700000000E+01 0.  1.
          4   -1    0    0  501    0  0.00000000000E+00 -0.00000000000E+00 -0.14724214282E+02  0.14778883118E+02  0.12700000000E+01 0.  1.
    9000005    1    1    2    0    0  0.61008720992E+02 -0.23755868355E+01  0.10224992504E+03  0.11909556927E+03  0.10000000000E+01 0.  0.
    9000005    1    1    2    0    0 -0.61008720992E+02  0.23755868355E+01  0.14092628949E+03  0.15358686962E+03  0.10000000000E+01 0.  0.
<mgrwt>
<rscale>  0 0.12337358E+03</rscale>
<asrwt>0</asrwt>
<pdfrwt beam="2">  1        4 0.36882779E-02 0.12337358E+03</pdfrwt>
<pdfrwt beam="1">  1       -4 0.64482334E-01 0.12337358E+03</pdfrwt>
<totfact> 0.14299808E+03</totfact>
</mgrwt>
</event>
<event>
 5    1  0.1430314E-002  0.1250008E+03  0.7818608E-02  0.1235068E+00
          4   -1    0    0  501    0  0.00000000000E+00  0.00000000000E+00  0.10100272245E+02  0.10179803506E+02  0.12700000000E+01 0.  1.
         -4   -1    0    0    0  501 -0.00000000000E+00 -0.00000000000E+00 -0.38515467715E+03  0.38515677097E+03  0.12700000000E+01 0.  1.
         25    2    1    2    0    0  0.00000000000E+00  0.00000000000E+00 -0.37505440490E+03  0.39533657448E+03  0.12500080194E+03 0.  0.
    9000005    1    3    3    0    0  0.13052544835E+01  0.56900720375E+02 -0.10591404970E+03  0.12024217892E+03  0.10000000000E+01 0.  0.
    9000005    1    3    3    0    0 -0.13052544835E+01 -0.56900720375E+02 -0.26914035521E+03  0.27509439556E+03  0.10000000000E+01 0.  0.
<mgrwt>
<rscale>  0 0.12500080E+03</rscale>
<asrwt>0</asrwt>
<pdfrwt beam="1">  1        4 0.25352725E-02 0.12500080E+03</pdfrwt>
<pdfrwt beam="2">  1       -4 0.96298824E-01 0.12500080E+03</pdfrwt>
<totfact> 0.10665702E+03</totfact>
</mgrwt>
</event>
<event>
 5    1  0.1430314E-002  0.1250033E+03  0.7818608E-02  0.1235064E+00
          4   -1    0    0  501    0  0.00000000000E+00  0.00000000000E+00  0.10087844578E+03  0.10088643974E+03  0.12700000000E+01 0. -1.
         -4   -1    0    0    0  501 -0.00000000000E+00 -0.00000000000E+00 -0.38704437653E+02  0.38725268160E+02  0.12700000000E+01 0. -1.
         25    2    1    2    0    0  0.00000000000E+00  0.00000000000E+00  0.62174008125E+02  0.13961170790E+03  0.12500328674E+03 0.  0.
    9000005    1    3    3    0    0  0.18840446708E+02  0.56762251260E+02  0.51330914983E+02  0.78821180105E+02  0.10000000000E+01 0.  0.
    9000005    1    3    3    0    0 -0.18840446708E+02 -0.56762251260E+02  0.10843093142E+02  0.60790527791E+02  0.10000000000E+01 0.  0.
<mgrwt>
<rscale>  0 0.12500329E+03</rscale>
<asrwt>0</asrwt>
<pdfrwt beam="1">  1        4 0.25223214E-01 0.12500329E+03</pdfrwt>
<pdfrwt beam="2">  1       -4 0.96797126E-02 0.12500329E+03</pdfrwt>
<totfact> 0.19058763E+03</totfact>
</mgrwt>
</event>
<event>
 5    1  0.1430314E-002  0.1250061E+03  0.7818608E-02  0.1235060E+00
         -4   -1    0    0    0  501 -0.00000000000E+00  0.00000000000E+00  0.16367282456E+03  0.16367775169E+03  0.12700000000E+01 0.  1.
          4   -1    0    0  501    0  0.00000000000E+00 -0.00000000000E+00 -0.23846344912E+02  0.23880139565E+02  0.12700000000E+01 0.  1.
         25    2    1    2    0    0  0.00000000000E+00  0.00000000000E+00  0.13982647964E+03  0.18755789126E+03  0.12500607250E+03 0.  0.
    9000005    1    3    3    0    0 -0.14744024695E+02 -0.50441657097E+02  0.19168043185E+02  0.55947841017E+02  0.10000000000E+01 0.  0.
    9000005    1    3    3    0    0  0.14744024695E+02  0.50441657097E+02  0.12065843646E+03  0.13161005024E+03  0.10000000000E+01 0.  0.
<mgrwt>
<rscale>  0 0.12500607E+03</rscale>
<asrwt>0</asrwt>
<pdfrwt beam="2">  1        4 0.59664265E-02 0.12500607E+03</pdfrwt>
<pdfrwt beam="1">  1       -4 0.40923046E-01 0.12500607E+03</pdfrwt>
<totfact> 0.16830306E+03</totfact>
</mgrwt>
</event>
<event>
 5    1  0.1430314E-002  0.1249992E+03  0.7818608E-02  0.1235070E+00
          4   -1    0    0  501    0  0.00000000000E+00  0.00000000000E+00  0.70126695265E+02  0.70138194223E+02  0.12700000000E+01 0. -1.
         -4   -1    0    0    0  501 -0.00000000000E+00 -0.00000000000E+00 -0.55678755394E+02  0.55693237491E+02  0.12700000000E+01 0. -1.
         25    2    1    2    0    0  0.00000000000E+00  0.00000000000E+00  0.14447939871E+02  0.12583143171E+03  0.12499922496E+03 0.  0.
    9000005    1    3    3    0    0  0.62340810457E+01 -0.60695470716E+02 -0.63714119532E+01  0.61354696822E+02  0.10000000000E+01 0.  0.
    9000005    1    3    3    0    0 -0.62340810457E+01  0.60695470716E+02  0.20819351824E+02  0.64476734891E+02  0.10000000000E+01 0.  0.
<mgrwt>
<rscale>  0 0.12499922E+03</rscale>
<asrwt>0</asrwt>
<pdfrwt beam="1">  1        4 0.17534921E-01 0.12499922E+03</pdfrwt>
<pdfrwt beam="2">  1       -4 0.13922937E-01 0.12499922E+03</pdfrwt>
<totfact> 0.19790391E+03</totfact>
</mgrwt>
</event>
<event>
 5    1  0.1430314E-002  0.1250048E+03  0.7818608E-02  0.1235062E+00
          4   -1    0    0  501    0  0.00000000000E+00  0.00000000000E+00  0.73315634324E+01  0.74407474331E+01  0.12700000000E+01 0.  1.
         -4   -1    0    0    0  501 -0.00000000000E+00 -0.00000000000E+00 -0.52879185697E+03  0.52879338205E+03  0.12700000000E+01 0.  1.
         25    2    1    2    0    0  0.00000000000E+00  0.00000000000E+00 -0.52146029354E+03  0.53623412948E+03  0.12500481544E+03 0.  0.
    9000005    1    3    3    0    0 -0.10831360468E+02  0.13776754954E+02 -0.51805661343E+03  0.51835390619E+03  0.10000000000E+01 0.  0.
    9000005    1    3    3    0    0  0.10831360468E+02 -0.13776754954E+02 -0.34036801103E+01  0.17880223291E+02  0.10000000000E+01 0.  0.
<mgrwt>
<rscale>  0 0.12500482E+03</rscale>
<asrwt>0</asrwt>
<pdfrwt beam="1">  1        4 0.18467313E-02 0.12500482E+03</pdfrwt>
<pdfrwt beam="2">  1       -4 0.13221167E+00 0.12500482E+03</pdfrwt>
<totfact> 0.82109261E+02</totfact>
</mgrwt>
</event>
<event>
 5    1  0.1430314E-002  0.1250002E+03  0.7818608E-02  0.1235069E+00
          4   -1    0    0  501    0  0.00000000000E+00  0.00000000000E+00  0.17762629268E+03  0.17763083277E+03  0.12700000000E+01 0.  1.
         -4   -1    0    0    0  501 -0.00000000000E+00 -0.00000000000E+00 -0.21968299461E+02  0.22004978555E+02  0.12700000000E+01 0.  1.
         25    2    1    2    0    0  0.00000000000E+00  0.00000000000E+00  0.15565799322E+03  0.19963581133E+03  0.12500018524E+03 0.  0.
    9000005    1    3    3    0    0 -0.76824564258E+01  0.25575248971E+02  0.16806280912E+03  0.17017409118E+03  0.10000000000E+01 0.  0.
    9000005    1    3    3    0    0  0.76824564258E+01 -0.25575248971E+02 -0.12404815905E+02  0.29461720152E+02  0.10000000000E+01 0.  0.
<mgrwt>
<rscale>  0 0.12500019E+03</rscale>
<asrwt>0</asrwt>
<pdfrwt beam="1">  1        4 0.44411725E-01 0.12500019E+03</pdfrwt>
<pdfrwt beam="2">  1       -4 0.54972273E-02 0.12500019E+03</pdfrwt>
<totfact> 0.16336564E+03</totfact>
</mgrwt>
</event>
<event>
 5    1  0.1430314E-002  0.1250032E+03  0.7818608E-02  0.1235064E+00
          4   -1    0    0  501    0  0.00000000000E+00  0.00000000000E+00  0.32107582667E+02  0.32132689970E+02  0.12700000000E+01 0.  1.
         -4   -1    0    0    0  501 -0.00000000000E+00 -0.00000000000E+00 -0.12159146549E+03  0.12159809777E+03  0.12700000000E+01 0.  1.
         25    2    1    2    0    0  0.00000000000E+00  0.00000000000E+00 -0.89483882826E+02  0.15373078774E+03  0.12500315921E+03 0.  0.
    9000005    1    3    3    0    0  0.45945231642E+02  0.40896482015E+02 -0.58323517665E+02  0.84770981265E+02  0.10000000000E+01 0.  0.
    9000005    1    3    3    0    0 -0.45945231642E+02 -0.40896482015E+02 -0.31160365162E+02  0.68959806473E+02  0.10000000000E+01 0.  0.
<mgrwt>
<rscale>  0 0.12500316E+03</rscale>
<asrwt>0</asrwt>
<pdfrwt beam="1">  1        4 0.80308634E-02 0.12500316E+03</pdfrwt>
<pdfrwt beam="2">  1       -4 0.30401833E-01 0.12500316E+03</pdfrwt>
<totfact> 0.18355498E+03</totfact>
</mgrwt>
</event>
<event>
 5    1  0.1430314E-002  0.1250040E+03  0.7818608E-02  0.1235063E+00
          4   -1    0    0  501    0  0.00000000000E+00  0.00000000000E+00  0.10141684619E+03  0.10142479772E+03  0.12700000000E+01 0.  1.
         -4   -1    0    0    0  501 -0.00000000000E+00 -0.00000000000E+00 -0.38499321676E+02  0.38520263103E+02  0.12700000000E+01 0.  1.
         25    2    1    2    0    0  0.00000000000E+00  0.00000000000E+00  0.62917524518E+02  0.13994506082E+03  0.12500402056E+03 0.  0.
    9000005    1    3    3    0    0  0.40292067385E+02  0.21996253220E+02  0.78932612410E+02  0.91316171360E+02  0.10000000000E+01 0.  0.
    9000005    1    3    3    0    0 -0.40292067385E+02 -0.21996253220E+02 -0.16015087892E+02  0.48628889460E+02  0.10000000000E+01 0.  0.
<mgrwt>
<rscale>  0 0.12500402E+03</rscale>
<asrwt>0</asrwt>
<pdfrwt beam="1">  1        4 0.25357823E-01 0.12500402E+03</pdfrwt>
<pdfrwt beam="2">  1       -4 0.96284421E-02 0.12500402E+03</pdfrwt>
<totfact> 0.19041368E+03</totfact>
</mgrwt>
</event>
<event>
 5    1  0.1430314E-002  0.1250010E+03  0.7818608E-02  0.1235068E+00
         -4   -1    0    0    0  501 -0.00000000000E+00  0.00000000000E+00  0.17434740706E+02  0.17480934858E+02  0.12700000000E+01 0.  1.
          4   -1    0    0  501    0  0.00000000000E+00 -0.00000000000E+00 -0.22370908111E+03  0.22371268598E+03  0.12700000000E+01 0.  1.
         25    2    1    2    0    0  0.00000000000E+00  0.00000000000E+00 -0.20627434040E+03  0.24119362084E+03  0.12500103690E+03 0.  0.
    9000005    1    3    3    0    0 -0.15821418952E+02 -0.38206495693E+02 -0.19354276380E+03  0.19791375654E+03  0.10000000000E+01 0.  0.
    9000005    1    3    3    0    0  0.15821418952E+02  0.38206495693E+02 -0.12731576604E+02  0.43279864298E+02  0.10000000000E+01 0.  0.
<mgrwt>
<rscale>  0 0.12500104E+03</rscale>
<asrwt>0</asrwt>
<pdfrwt beam="2">  1        4 0.55933486E-01 0.12500104E+03</pdfrwt>
<pdfrwt beam="1">  1       -4 0.43649108E-02 0.12500104E+03</pdfrwt>
<totfact> 0.14795066E+03</totfact>
</mgrwt>
</event>
<event>
 5    1  0.1430314E-002  0.1250022E+03  0.7818608E-02  0.1235066E+00
          4   -1    0    0  501    0  0.00000000000E+00  0.00000000000E+00  0.11105191724E+02  0.11177575015E+02  0.12700000000E+01 0.  1.
         -4   -1    0    0    0  501 -0.00000000000E+00 -0.00000000000E+00 -0.35054606565E+03  0.35054836620E+03  0.12700000000E+01 0.  1.
         25    2    1    2    0    0  0.00000000000E+00  0.00000000000E+00 -0.33944087393E+03  0.36172594121E+03  0.12500219859E+03 0.  0.
    9000005    1    3    3    0    0 -0.39517750551E+02 -0.60186580081E+01 -0.30872653490E+03  0.31130523639E+03  0.10000000000E+01 0.  0.
    9000005    1    3    3    0    0  0.39517750551E+02  0.60186580081E+01 -0.30714339027E+02  0.50420704821E+02  0.10000000000E+01 0.  0.
<mgrwt>
<rscale>  0 0.12500220E+03</rscale>
<asrwt>0</asrwt>
<pdfrwt beam="1">  1        4 0.27856346E-02 0.12500220E+03</pdfrwt>
<pdfrwt beam="2">  1       -4 0.87645815E-01 0.12500220E+03</pdfrwt>
<totfact> 0.11401994E+03</totfact>
</mgrwt>
</event>
<event>
 5    1  0.1430314E-002  0.1250040E+03  0.7818608E-02  0.1235063E+00
          4   -1    0    0  501    0  0.00000000000E+00  0.00000000000E+00  0.26825095827E+03  0.26825396458E+03  0.12700000000E+01 0.  1.
         -4   -1    0    0    0  501 -0.00000000000E+00 -0.00000000000E+00 -0.14532066169E+02  0.14587455129E+02  0.12700000000E+01 0.  1.
         25    2    1    2    0    0  0.00000000000E+00  0.00000000000E+00  0.25371889210E+03  0.28284141971E+03  0.12500396991E+03 0.  0.
    9000005    1    3    3    0    0  0.55582066988E+02  0.22639558110E+02  0.87435737989E+02  0.10605623056E+03  0.10000000000E+01 0.  0.
    9000005    1    3    3    0    0 -0.55582066988E+02 -0.22639558110E+02  0.16628315411E+03  0.17678518915E+03  0.10000000000E+01 0.  0.
<mgrwt>
<rscale>  0 0.12500397E+03</rscale>
<asrwt>0</asrwt>
<pdfrwt beam="1">  1        4 0.67070041E-01 0.12500397E+03</pdfrwt>
<pdfrwt beam="2">  1       -4 0.36403159E-02 0.12500397E+03</pdfrwt>
<totfact> 0.13464733E+03</totfact>
</mgrwt>
</event>
<event>
 5    1  0.1430314E-002  0.1249510E+03  0.7818608E-02  0.1235146E+00
         -4   -1    0    0    0  501 -0.00000000000E+00  0.00000000000E+00  0.11773565285E+02  0.11841863853E+02  0.12700000000E+01 0. -1.
          4   -1    0    0  501    0  0.00000000000E+00 -0.00000000000E+00 -0.33049305832E+03  0.33049549845E+03  0.12700000000E+01 0. -1.
         25    2    1    2    0    0  0.00000000000E+00  0.00000000000E+00 -0.31871949303E+03  0.34233736230E+03  0.12495100796E+03 0.  0.
    9000005    1    3    3    0    0  0.48786418821E+02  0.37544618585E+02 -0.18841626670E+03  0.19822059076E+03  0.10000000000E+01 0.  0.
    9000005    1    3    3    0    0 -0.48786418821E+02 -0.37544618585E+02 -0.13030322633E+03  0.14411677154E+03  0.10000000000E+01 0.  0.
<mgrwt>
<rscale>  0 0.12495101E+03</rscale>
<asrwt>0</asrwt>
<pdfrwt beam="2">  1        4 0.82632076E-01 0.12495101E+03</pdfrwt>
<pdfrwt beam="1">  1       -4 0.29522347E-02 0.12495101E+03</pdfrwt>
<totfact> 0.11875575E+03</totfact>
</mgrwt>
</event>
<event>
 5    1  0.1430314E-002  0.1250024E+03  0.7818608E-02  0.1235065E+00
         -4   -1    0    0    0  501 -0.00000000000E+00  0.00000000000E+00  0.39180401511E+03  0.39180607340E+03  0.12700000000E+01 0.  1.
          4   -1    0    0  501    0  0.00000000000E+00 -0.00000000000E+00 -0.99277586301E+01  0.10008660820E+02  0.12700000000E+01 0.  1.
         25    2    1    2    0    0  0.00000000000E+00  0.00000000000E+00  0.38187625648E+03  0.40181473422E+03  0.12500242148E+03 0.  0.
    9000005    1    3    3    0    0 -0.54025761140E+02  0.78355422876E+01  0.28871374957E+03  0.29383125733E+03  0.10000000000E+01 0.  0.
    9000005    1    3    3    0    0  0.54025761140E+02 -0.78355422876E+01  0.93162506903E+02  0.10798347689E+03  0.10000000000E+01 0.  0.
<mgrwt>
<rscale>  0 0.12500242E+03</rscale>
<asrwt>0</asrwt>
<pdfrwt beam="2">  1        4 0.24923100E-02 0.12500242E+03</pdfrwt>
<pdfrwt beam="1">  1       -4 0.97961365E-01 0.12500242E+03</pdfrwt>
<totfact> 0.10531335E+03</totfact>
</mgrwt>
</event>
<event>
 5    1  0.1430314E-002  0.1250007E+03  0.7818608E-02  0.1235068E+00
          4   -1    0    0  501    0  0.00000000000E+00  0.00000000000E+00  0.65304437576E+02  0.65316785493E+02  0.12700000000E+01 0. -1.
         -4   -1    0    0    0  501 -0.00000000000E+00 -0.00000000000E+00 -0.59791909546E+02  0.59805395636E+02  0.12700000000E+01 0. -1.
         25    2    1    2    0    0  0.00000000000E+00  0.00000000000E+00  0.55125280299E+01  0.12512218113E+03  0.12500068898E+03 0.  0.
    9000005    1    3    3    0    0 -0.17456478621E+02 -0.49353401327E+02 -0.31406164436E+02  0.61055990967E+02  0.10000000000E+01 0.  0.
    9000005    1    3    3    0    0  0.17456478621E+02  0.49353401327E+02  0.36918692466E+02  0.64066190162E+02  0.10000000000E+01 0.  0.
<mgrwt>
<rscale>  0 0.12500069E+03</rscale>
<asrwt>0</asrwt>
<pdfrwt beam="1">  1        4 0.16329339E-01 0.12500069E+03</pdfrwt>
<pdfrwt beam="2">  1       -4 0.14951207E-01 0.12500069E+03</pdfrwt>
<totfact> 0.19828111E+03</totfact>
</mgrwt>
</event>
<event>
 5    1  0.1430314E-002  0.1249977E+03  0.7818608E-02  0.1235073E+00
          4   -1    0    0  501    0  0.00000000000E+00  0.00000000000E+00  0.29955521009E+03  0.29955790224E+03  0.12700000000E+01 0.  1.
         -4   -1    0    0    0  501 -0.00000000000E+00 -0.00000000000E+00 -0.13006011573E+02  0.13067870410E+02  0.12700000000E+01 0.  1.
         25    2    1    2    0    0  0.00000000000E+00  0.00000000000E+00  0.28654919852E+03  0.31262577265E+03  0.12499772219E+03 0.  0.
    9000005    1    3    3    0    0 -0.17259753638E+02 -0.44641897196E+02  0.42786163003E+02  0.64206337891E+02  0.10000000000E+01 0.  0.
    9000005    1    3    3    0    0  0.17259753638E+02  0.44641897196E+02  0.24376303551E+03  0.24841943476E+03  0.10000000000E+01 0.  0.
<mgrwt>
<rscale>  0 0.12499772E+03</rscale>
<asrwt>0</asrwt>
<pdfrwt beam="1">  1        4 0.74896870E-01 0.12499772E+03</pdfrwt>
<pdfrwt beam="2">  1       -4 0.32595718E-02 0.12499772E+03</pdfrwt>
<totfact> 0.12625088E+03</totfact>
</mgrwt>
</event>
<event>
 5    1  0.1430314E-002  0.1249983E+03  0.7818608E-02  0.1235072E+00
         -4   -1    0    0    0  501 -0.00000000000E+00  0.00000000000E+00  0.49897800862E+02  0.49913960280E+02  0.12700000000E+01 0.  1.
          4   -1    0    0  501    0  0.00000000000E+00 -0.00000000000E+00 -0.78248910692E+02  0.78259216227E+02  0.12700000000E+01 0.  1.
         25    2    1    2    0    0  0.00000000000E+00  0.00000000000E+00 -0.28351109830E+02  0.12817317651E+03  0.12499831098E+03 0.  0.
    9000005    1    3    3    0    0 -0.43272150543E+01 -0.21481053709E+02  0.45834258295E+02  0.50812790634E+02  0.10000000000E+01 0.  0.
    9000005    1    3    3    0    0  0.43272150543E+01  0.21481053709E+02 -0.74185368125E+02  0.77360385873E+02  0.10000000000E+01 0.  0.
<mgrwt>
<rscale>  0 0.12499831E+03</rscale>
<asrwt>0</asrwt>
<pdfrwt beam="2">  1        4 0.19565536E-01 0.12499831E+03</pdfrwt>
<pdfrwt beam="1">  1       -4 0.12477758E-01 0.12499831E+03</pdfrwt>
<totfact> 0.19663892E+03</totfact>
</mgrwt>
</event>
<event>
 5    1  0.1430314E-002  0.1249968E+03  0.7818608E-02  0.1235074E+00
          4   -1    0    0  501    0  0.00000000000E+00  0.00000000000E+00  0.20427528901E+03  0.20427923683E+03  0.12700000000E+01 0.  1.
         -4   -1    0    0    0  501 -0.00000000000E+00 -0.00000000000E+00 -0.19096260375E+02  0.19138444563E+02  0.12700000000E+01 0.  1.
         25    2    1    2    0    0  0.00000000000E+00  0.00000000000E+00  0.18517902864E+03  0.22341768140E+03  0.12499675081E+03 0.  0.
    9000005    1    3    3    0    0  0.97587401847E+01 -0.81898357430E-01 -0.17734566096E+02  0.20267080499E+02  0.10000000000E+01 0.  0.
    9000005    1    3    3    0    0 -0.97587401847E+01  0.81898357430E-01  0.20291359474E+03  0.20315060090E+03  0.10000000000E+01 0.  0.
<mgrwt>
<rscale>  0 0.12499675E+03</rscale>
<asrwt>0</asrwt>
<pdfrwt beam="1">  1        4 0.51074590E-01 0.12499675E+03</pdfrwt>
<pdfrwt beam="2">  1       -4 0.47798315E-02 0.12499675E+03</pdfrwt>
<totfact> 0.15426555E+03</totfact>
</mgrwt>
</event>
<event>
 5    1  0.1430314E-002  0.1250008E+03  0.7818608E-02  0.1235068E+00
          4   -1    0    0  501    0  0.00000000000E+00  0.00000000000E+00  0.31763102920E+02  0.31788482303E+02  0.12700000000E+01 0.  1.
         -4   -1    0    0    0  501 -0.00000000000E+00 -0.00000000000E+00 -0.12290462995E+03  0.12291119137E+03  0.12700000000E+01 0.  1.
         25    2    1    2    0    0  0.00000000000E+00  0.00000000000E+00 -0.91141527030E+02  0.15469967367E+03  0.12500084433E+03 0.  0.
    9000005    1    3    3    0    0 -0.50060231827E+02  0.37356759170E+02 -0.47966866537E+02  0.78761504249E+02  0.10000000000E+01 0.  0.
    9000005    1    3    3    0    0  0.50060231827E+02 -0.37356759170E+02 -0.43174660492E+02  0.75938169420E+02  0.10000000000E+01 0.  0.
<mgrwt>
<rscale>  0 0.12500084E+03</rscale>
<asrwt>0</asrwt>
<pdfrwt beam="1">  1        4 0.79447686E-02 0.12500084E+03</pdfrwt>
<pdfrwt beam="2">  1       -4 0.30730149E-01 0.12500084E+03</pdfrwt>
<totfact> 0.18309726E+03</totfact>
</mgrwt>
</event>
<event>
 5    1  0.1430314E-002  0.1250012E+03  0.7818608E-02  0.1235067E+00
         -4   -1    0    0    0  501 -0.00000000000E+00  0.00000000000E+00  0.28399052263E+03  0.28399336232E+03  0.12700000000E+01 0.  1.
          4   -1    0    0  501    0  0.00000000000E+00 -0.00000000000E+00 -0.13722896789E+02  0.13781538240E+02  0.12700000000E+01 0.  1.
         25    2    1    2    0    0  0.00000000000E+00  0.00000000000E+00  0.27026762584E+03  0.29777490056E+03  0.12500120731E+03 0.  0.
    9000005    1    3    3    0    0  0.12099249659E+02  0.60532624100E+02  0.11194763368E+03  0.12784311913E+03  0.10000000000E+01 0.  0.
    9000005    1    3    3    0    0 -0.12099249659E+02 -0.60532624100E+02  0.15831999216E+03  0.16993178143E+03  0.10000000000E+01 0.  0.
<mgrwt>
<rscale>  0 0.12500121E+03</rscale>
<asrwt>0</asrwt>
<pdfrwt beam="2">  1        4 0.34384093E-02 0.12500121E+03</pdfrwt>
<pdfrwt beam="1">  1       -4 0.71005316E-01 0.12500121E+03</pdfrwt>
<totfact> 0.13033288E+03</totfact>
</mgrwt>
</event>
<event>
 5    1  0.1430314E-002  0.1250057E+03  0.7818608E-02  0.1235060E+00
         -4   -1    0    0    0  501 -0.00000000000E+00  0.00000000000E+00  0.66183260226E+02  0.66195444210E+02  0.12700000000E+01 0.  1.
          4   -1    0    0  501    0  0.00000000000E+00 -0.00000000000E+00 -0.59002660106E+02  0.59016326551E+02  0.12700000000E+01 0.  1.
         25    2    1    2    0    0  0.00000000000E+00  0.00000000000E+00  0.71806001199E+01  0.12521177076E+03  0.12500570595E+03 0.  0.
    9000005    1    3    3    0    0 -0.58610243118E+02 -0.31148959302E+01 -0.17910019140E+02  0.61372892718E+02  0.10000000000E+01 0.  0.
    9000005    1    3    3    0    0  0.58610243118E+02  0.31148959302E+01  0.25090619260E+02  0.63838878043E+02  0.10000000000E+01 0.  0.
<mgrwt>
<rscale>  0 0.12500571E+03</rscale>
<asrwt>0</asrwt>
<pdfrwt beam="2">  1        4 0.14753896E-01 0.12500571E+03</pdfrwt>
<pdfrwt beam="1">  1       -4 0.16549046E-01 0.12500571E+03</pdfrwt>
<totfact> 0.19820929E+03</totfact>
</mgrwt>
</event>
<event>
 5    1  0.1430314E-002  0.1249992E+03  0.7818608E-02  0.1235070E+00
          4   -1    0    0  501    0  0.00000000000E+00  0.00000000000E+00  0.13745551641E+03  0.13746138327E+03  0.12700000000E+01 0. -1.
         -4   -1    0    0    0  501 -0.00000000000E+00 -0.00000000000E+00 -0.28397274656E+02  0.28425659322E+02  0.12700000000E+01 0. -1.
         25    2    1    2    0    0  0.00000000000E+00  0.00000000000E+00  0.10905824175E+03  0.16588704259E+03  0.12499924322E+03 0.  0.
    9000005    1    3    3    0    0 -0.20348481228E+02 -0.58968069344E+02  0.49579749006E+02  0.79689681904E+02  0.10000000000E+01 0.  0.
    9000005    1    3    3    0    0  0.20348481228E+02  0.58968069344E+02  0.59478492745E+02  0.86197360688E+02  0.10000000000E+01 0.  0.
<mgrwt>
<rscale>  0 0.12499924E+03</rscale>
<asrwt>0</asrwt>
<pdfrwt beam="1">  1        4 0.34368160E-01 0.12499924E+03</pdfrwt>
<pdfrwt beam="2">  1       -4 0.71036002E-02 0.12499924E+03</pdfrwt>
<totfact> 0.17784483E+03</totfact>
</mgrwt>
</event>
<event>
 5    1  0.1430314E-002  0.1249982E+03  0.7818608E-02  0.1235072E+00
          4   -1    0    0  501    0  0.00000000000E+00  0.00000000000E+00  0.79464669535E+01  0.80473124112E+01  0.12700000000E+01 0.  1.
         -4   -1    0    0    0  501 -0.00000000000E+00 -0.00000000000E+00 -0.48835519298E+03  0.48835684433E+03  0.12700000000E+01 0.  1.
         25    2    1    2    0    0  0.00000000000E+00  0.00000000000E+00 -0.48040872602E+03  0.49640415674E+03  0.12499817116E+03 0.  0.
    9000005    1    3    3    0    0  0.13195159278E+02 -0.39954457851E+02 -0.42368768382E+03  0.42577309021E+03  0.10000000000E+01 0.  0.
    9000005    1    3    3    0    0 -0.13195159278E+02  0.39954457851E+02 -0.56721042205E+02  0.70631066531E+02  0.10000000000E+01 0.  0.
<mgrwt>
<rscale>  0 0.12499817E+03</rscale>
<asrwt>0</asrwt>
<pdfrwt beam="1">  1        4 0.19994305E-02 0.12499817E+03</pdfrwt>
<pdfrwt beam="2">  1       -4 0.12210151E+00 0.12499817E+03</pdfrwt>
<totfact> 0.88185390E+02</totfact>
</mgrwt>
</event>
<event>
 5    1  0.1430314E-002  0.1249964E+03  0.7818608E-02  0.1235075E+00
          4   -1    0    0  501    0  0.00000000000E+00  0.00000000000E+00  0.59474423563E+03  0.59474559159E+03  0.12700000000E+01 0.  1.
         -4   -1    0    0    0  501 -0.00000000000E+00 -0.00000000000E+00 -0.65047962005E+01  0.66276144735E+01  0.12700000000E+01 0.  1.
         25    2    1    2    0    0  0.00000000000E+00  0.00000000000E+00  0.58823943943E+03  0.60137320607E+03  0.12499637943E+03 0.  0.
    9000005    1    3    3    0    0 -0.59268608961E+02  0.18906454631E+02  0.26573747360E+03  0.27292421459E+03  0.10000000000E+01 0.  0.
    9000005    1    3    3    0    0  0.59268608961E+02 -0.18906454631E+02  0.32250196583E+03  0.32844899147E+03  0.10000000000E+01 0.  0.
<mgrwt>
<rscale>  0 0.12499638E+03</rscale>
<asrwt>0</asrwt>
<pdfrwt beam="1">  1        4 0.14870157E+00 0.12499638E+03</pdfrwt>
<pdfrwt beam="2">  1       -4 0.16417210E-02 0.12499638E+03</pdfrwt>
<totfact> 0.73336397E+02</totfact>
</mgrwt>
</event>
<event>
 5    1  0.1430314E-002  0.1250001E+03  0.7818608E-02  0.1235069E+00
          4   -1    0    0  501    0  0.00000000000E+00  0.00000000000E+00  0.83697685039E+02  0.83707319757E+02  0.12700000000E+01 0.  1.
         -4   -1    0    0    0  501 -0.00000000000E+00 -0.00000000000E+00 -0.46650033512E+02  0.46667317544E+02  0.12700000000E+01 0.  1.
         25    2    1    2    0    0  0.00000000000E+00  0.00000000000E+00  0.37047651527E+02  0.13037463730E+03  0.12500007027E+03 0.  0.
    9000005    1    3    3    0    0  0.61979005626E+02 -0.63698405289E+01  0.23556474175E+02  0.66617411255E+02  0.10000000000E+01 0.  0.
    9000005    1    3    3    0    0 -0.61979005626E+02  0.63698405289E+01  0.13491177351E+02  0.63757226046E+02  0.10000000000E+01 0.  0.
<mgrwt>
<rscale>  0 0.12500007E+03</rscale>
<asrwt>0</asrwt>
<pdfrwt beam="1">  1        4 0.20927786E-01 0.12500007E+03</pdfrwt>
<pdfrwt beam="2">  1       -4 0.11665873E-01 0.12500007E+03</pdfrwt>
<totfact> 0.19544232E+03</totfact>
</mgrwt>
</event>
<event>
 5    1  0.1430314E-002  0.1249992E+03  0.7818608E-02  0.1235071E+00
          4   -1    0    0  501    0  0.00000000000E+00  0.00000000000E+00  0.48459022795E+01  0.50095577552E+01  0.12700000000E+01 0.  1.
         -4   -1    0    0    0  501 -0.00000000000E+00 -0.00000000000E+00 -0.79253309092E+03  0.79253410848E+03  0.12700000000E+01 0.  1.
         25    2    1    2    0    0  0.00000000000E+00  0.00000000000E+00 -0.78768718864E+03  0.79754366624E+03  0.12499916961E+03 0.  0.
    9000005    1    3    3    0    0 -0.40917303014E+02 -0.21717713944E+02 -0.66146382293E+03  0.66308466566E+03  0.10000000000E+01 0.  0.
    9000005    1    3    3    0    0  0.40917303014E+02  0.21717713944E+02 -0.12622336571E+03  0.13445900058E+03  0.10000000000E+01 0.  0.
<mgrwt>
<rscale>  0 0.12499917E+03</rscale>
<asrwt>0</asrwt>
<pdfrwt beam="1">  1        4 0.12320624E-02 0.12499917E+03</pdfrwt>
<pdfrwt beam="2">  1       -4 0.19815342E+00 0.12499917E+03</pdfrwt>
<totfact> 0.52696826E+02</totfact>
</mgrwt>
</event>
<event>
 5    1  0.1430314E-002  0.1249942E+03  0.7818608E-02  0.1235078E+00
         -4   -1    0    0    0  501 -0.00000000000E+00  0.00000000000E+00  0.28412451471E+03  0.28412735307E+03  0.12700000000E+01 0.  1.
          4   -1    0    0  501    0  0.00000000000E+00 -0.00000000000E+00 -0.13714843849E+02  0.13773519587E+02  0.12700000000E+01 0.  1.
         25    2    1    2    0    0  0.00000000000E+00  0.00000000000E+00  0.27040967086E+03  0.29790087265E+03  0.12499415919E+03 0.  0.
    9000005    1    3    3    0    0 -0.36240188766E+02 -0.50512510136E+02  0.12012763960E+03  0.13526461015E+03  0.10000000000E+01 0.  0.
    9000005    1    3    3    0    0  0.36240188766E+02  0.50512510136E+02  0.15028203126E+03  0.16263626250E+03  0.10000000000E+01 0.  0.
<mgrwt>
<rscale>  0 0.12499416E+03</rscale>
<asrwt>0</asrwt>
<pdfrwt beam="2">  1        4 0.34364002E-02 0.12499416E+03</pdfrwt>
<pdfrwt beam="1">  1       -4 0.71038818E-01 0.12499416E+03</pdfrwt>
<totfact> 0.13031837E+03</totfact>
</mgrwt>
</event>
<event>
 5    1  0.1430314E-002  0.1249976E+03  0.7818608E-02  0.1235073E+00
         -4   -1    0    0    0  501 -0.00000000000E+00  0.00000000000E+00  0.14925300056E+02  0.14979235019E+02  0.12700000000E+01 0.  1.
          4   -1    0    0  501    0  0.00000000000E+00 -0.00000000000E+00 -0.26118263507E+03  0.26118572274E+03  0.12700000000E+01 0.  1.
         25    2    1    2    0    0  0.00000000000E+00  0.00000000000E+00 -0.24625733502E+03  0.27616495776E+03  0.12499763536E+03 0.  0.
    9000005    1    3    3    0    0  0.55995036807E+02  0.12151000369E+02 -0.17823048127E+03  0.18721697415E+03  0.10000000000E+01 0.  0.
    9000005    1    3    3    0    0 -0.55995036807E+02 -0.12151000369E+02 -0.68026853744E+02  0.88947983605E+02  0.10000000000E+01 0.  0.
<mgrwt>
<rscale>  0 0.12499764E+03</rscale>
<asrwt>0</asrwt>
<pdfrwt beam="2">  1        4 0.65302772E-01 0.12499764E+03</pdfrwt>
<pdfrwt beam="1">  1       -4 0.37384537E-02 0.12499764E+03</pdfrwt>
<totfact> 0.13667135E+03</totfact>
</mgrwt>
</event>
<event>
 5    1  0.1430314E-002  0.1249979E+03  0.7818608E-02  0.1235073E+00
          4   -1    0    0  501    0  0.00000000000E+00  0.00000000000E+00  0.89394550671E+02  0.89403571459E+02  0.12700000000E+01 0.  1.
         -4   -1    0    0    0  501 -0.00000000000E+00 -0.00000000000E+00 -0.43674789014E+02  0.43693249998E+02  0.12700000000E+01 0.  1.
         25    2    1    2    0    0  0.00000000000E+00  0.00000000000E+00  0.45719761657E+02  0.13309682146E+03  0.12499786909E+03 0.  0.
    9000005    1    3    3    0    0  0.43459673360E+02  0.35765552792E+02  0.51770500296E+02  0.76479426488E+02  0.10000000000E+01 0.  0.
    9000005    1    3    3    0    0 -0.43459673360E+02 -0.35765552792E+02 -0.60507386390E+01  0.56617394969E+02  0.10000000000E+01 0.  0.
<mgrwt>
<rscale>  0 0.12499787E+03</rscale>
<asrwt>0</asrwt>
<pdfrwt beam="1">  1        4 0.22352073E-01 0.12499787E+03</pdfrwt>
<pdfrwt beam="2">  1       -4 0.10922133E-01 0.12499787E+03</pdfrwt>
<totfact> 0.19400258E+03</totfact>
</mgrwt>
</event>
<event>
 5    1  0.1430314E-002  0.1249991E+03  0.7818608E-02  0.1235071E+00
          4   -1    0    0  501    0  0.00000000000E+00  0.00000000000E+00  0.29528649829E+03  0.29528922935E+03  0.12700000000E+01 0. -1.
         -4   -1    0    0    0  501 -0.00000000000E+00 -0.00000000000E+00 -0.13195212208E+02  0.13256188186E+02  0.12700000000E+01 0. -1.
         25    2    1    2    0    0  0.00000000000E+00  0.00000000000E+00  0.28209128608E+03  0.30854541754E+03  0.12499912400E+03 0.  0.
    9000005    1    3    3    0    0  0.56665615745E+02 -0.11638695365E+02  0.19939264861E+03  0.20761714659E+03  0.10000000000E+01 0.  0.
    9000005    1    3    3    0    0 -0.56665615745E+02  0.11638695365E+02  0.82698637467E+02  0.10092827095E+03  0.10000000000E+01 0.  0.
<mgrwt>
<rscale>  0 0.12499912E+03</rscale>
<asrwt>0</asrwt>
<pdfrwt beam="1">  1        4 0.73829585E-01 0.12499912E+03</pdfrwt>
<pdfrwt beam="2">  1       -4 0.33067665E-02 0.12499912E+03</pdfrwt>
<totfact> 0.12735146E+03</totfact>
</mgrwt>
</event>
<event>
 5    1  0.1430314E-002  0.1250019E+03  0.7818608E-02  0.1235066E+00
          4   -1    0    0  501    0  0.00000000000E+00  0.00000000000E+00  0.14544827622E+02  0.14600168169E+02  0.12700000000E+01 0. -1.
         -4   -1    0    0    0  501 -0.00000000000E+00 -0.00000000000E+00 -0.26800755575E+03  0.26801056479E+03  0.12700000000E+01 0. -1.
         25    2    1    2    0    0  0.00000000000E+00  0.00000000000E+00 -0.25346272812E+03  0.28261073296E+03  0.12500188732E+03 0.  0.
    9000005    1    3    3    0    0  0.58774523166E+02  0.15251863628E+02 -0.93327018439E+02  0.11134628996E+03  0.10000000000E+01 0.  0.
    9000005    1    3    3    0    0 -0.58774523166E+02 -0.15251863628E+02 -0.16013570969E+03  0.17126444299E+03  0.10000000000E+01 0.  0.
<mgrwt>
<rscale>  0 0.12500189E+03</rscale>
<asrwt>0</asrwt>
<pdfrwt beam="1">  1        4 0.36435015E-02 0.12500189E+03</pdfrwt>
<pdfrwt beam="2">  1       -4 0.67009167E-01 0.12500189E+03</pdfrwt>
<totfact> 0.13472228E+03</totfact>
</mgrwt>
</event>
<event>
 5    1  0.1430314E-002  0.1250012E+03  0.7818608E-02  0.1235067E+00
          4   -1    0    0  501    0  0.00000000000E+00  0.00000000000E+00  0.13815174651E+03  0.13815758381E+03  0.12700000000E+01 0. -1.
         -4   -1    0    0    0  501 -0.00000000000E+00 -0.00000000000E+00 -0.28254919349E+02  0.28283446880E+02  0.12700000000E+01 0. -1.
         25    2    1    2    0    0  0.00000000000E+00  0.00000000000E+00  0.10989682716E+03  0.16644103069E+03  0.12500121630E+03 0.  0.
    9000005    1    3    3    0    0  0.48290225391E+02  0.17273656809E+02  0.10249303665E+03  0.11461303438E+03  0.10000000000E+01 0.  0.
    9000005    1    3    3    0    0 -0.48290225391E+02 -0.17273656809E+02  0.74037905142E+01  0.51827996313E+02  0.10000000000E+01 0.  0.
<mgrwt>
<rscale>  0 0.12500122E+03</rscale>
<asrwt>0</asrwt>
<pdfrwt beam="1">  1        4 0.34542232E-01 0.12500122E+03</pdfrwt>
<pdfrwt beam="2">  1       -4 0.70680254E-02 0.12500122E+03</pdfrwt>
<totfact> 0.17758275E+03</totfact>
</mgrwt>
</event>
<event>
 5    1  0.1430314E-002  0.1249963E+03  0.7818608E-02  0.1235075E+00
         -4   -1    0    0    0  501 -0.00000000000E+00  0.00000000000E+00  0.19540534153E+02  0.19581761284E+02  0.12700000000E+01 0.  1.
          4   -1    0    0  501    0  0.00000000000E+00 -0.00000000000E+00 -0.19963921487E+03  0.19964325436E+03  0.12700000000E+01 0.  1.
         25    2    1    2    0    0  0.00000000000E+00  0.00000000000E+00 -0.18009868071E+03  0.21922501565E+03  0.12499629071E+03 0.  0.
    9000005    1    3    3    0    0  0.73172912024E+01 -0.60974367525E+02 -0.69777212083E+02  0.92958461539E+02  0.10000000000E+01 0.  0.
    9000005    1    3    3    0    0 -0.73172912024E+01  0.60974367525E+02 -0.11032146863E+03  0.12626655411E+03  0.10000000000E+01 0.  0.
<mgrwt>
<rscale>  0 0.12499629E+03</rscale>
<asrwt>0</asrwt>
<pdfrwt beam="2">  1        4 0.49915456E-01 0.12499629E+03</pdfrwt>
<pdfrwt beam="1">  1       -4 0.48907925E-02 0.12499629E+03</pdfrwt>
<totfact> 0.15581458E+03</totfact>
</mgrwt>
</event>
<event>
 5    1  0.1430314E-002  0.1249995E+03  0.7818608E-02  0.1235070E+00
          4   -1    0    0  501    0  0.00000000000E+00  0.00000000000E+00  0.81453332656E+02  0.81463232815E+02  0.12700000000E+01 0.  1.
         -4   -1    0    0    0  501 -0.00000000000E+00 -0.00000000000E+00 -0.47935301080E+02  0.47952121847E+02  0.12700000000E+01 0.  1.
         25    2    1    2    0    0  0.00000000000E+00  0.00000000000E+00  0.33518031576E+02  0.12941535466E+03  0.12499950233E+03 0.  0.
    9000005    1    3    3    0    0 -0.44378226433E+02  0.34884935799E+02  0.44517233455E+02  0.71896938750E+02  0.10000000000E+01 0.  0.
    9000005    1    3    3    0    0  0.44378226433E+02 -0.34884935799E+02 -0.10999201879E+02  0.57518415912E+02  0.10000000000E+01 0.  0.
<mgrwt>
<rscale>  0 0.12499950E+03</rscale>
<asrwt>0</asrwt>
<pdfrwt beam="1">  1        4 0.20366673E-01 0.12499950E+03</pdfrwt>
<pdfrwt beam="2">  1       -4 0.11987166E-01 0.12499950E+03</pdfrwt>
<totfact> 0.19596092E+03</totfact>
</mgrwt>
</event>
<event>
 5    1  0.1430314E-002  0.1249984E+03  0.7818608E-02  0.1235072E+00
          4   -1    0    0  501    0  0.00000000000E+00  0.00000000000E+00  0.95823338275E+01  0.96661275380E+01  0.12700000000E+01 0.  1.
         -4   -1    0    0    0  501 -0.00000000000E+00 -0.00000000000E+00 -0.40578132842E+03  0.40578331582E+03  0.12700000000E+01 0.  1.
         25    2    1    2    0    0  0.00000000000E+00  0.00000000000E+00 -0.39619899459E+03  0.41544944335E+03  0.12499838666E+03 0.  0.
    9000005    1    3    3    0    0  0.29799184821E+01  0.61517682643E+02 -0.16294992296E+03  0.17420385353E+03  0.10000000000E+01 0.  0.
    9000005    1    3    3    0    0 -0.29799184821E+01 -0.61517682643E+02 -0.23324907164E+03  0.24124558983E+03  0.10000000000E+01 0.  0.
<mgrwt>
<rscale>  0 0.12499839E+03</rscale>
<asrwt>0</asrwt>
<pdfrwt beam="1">  1        4 0.24063075E-02 0.12499839E+03</pdfrwt>
<pdfrwt beam="2">  1       -4 0.10145600E+00 0.12499839E+03</pdfrwt>
<totfact> 0.10256732E+03</totfact>
</mgrwt>
</event>
<event>
 5    1  0.1430314E-002  0.1249992E+03  0.7818608E-02  0.1235071E+00
         -4   -1    0    0    0  501 -0.00000000000E+00  0.00000000000E+00  0.75790286750E+02  0.75800926549E+02  0.12700000000E+01 0.  1.
          4   -1    0    0  501    0  0.00000000000E+00 -0.00000000000E+00 -0.51517485461E+02  0.51533136992E+02  0.12700000000E+01 0.  1.
         25    2    1    2    0    0  0.00000000000E+00  0.00000000000E+00  0.24272801289E+02  0.12733406354E+03  0.12499917942E+03 0.  0.
    9000005    1    3    3    0    0  0.56616419102E+02  0.15989938227E+02  0.33603760848E+02  0.67759204390E+02  0.10000000000E+01 0.  0.
    9000005    1    3    3    0    0 -0.56616419102E+02 -0.15989938227E+02 -0.93309595583E+01  0.59574859150E+02  0.10000000000E+01 0.  0.
<mgrwt>
<rscale>  0 0.12499918E+03</rscale>
<asrwt>0</asrwt>
<pdfrwt beam="2">  1        4 0.12882658E-01 0.12499918E+03</pdfrwt>
<pdfrwt beam="1">  1       -4 0.18950858E-01 0.12499918E+03</pdfrwt>
<totfact> 0.19709226E+03</totfact>
</mgrwt>
</event>
<event>
 5    1  0.1430314E-002  0.1249992E+03  0.7818608E-02  0.1235071E+00
         -4   -1    0    0    0  501 -0.00000000000E+00  0.00000000000E+00  0.15066919737E+03  0.15067454973E+03  0.12700000000E+01 0. -1.
          4   -1    0    0  501    0  0.00000000000E+00 -0.00000000000E+00 -0.25904284029E+02  0.25935397261E+02  0.12700000000E+01 0. -1.
         25    2    1    2    0    0  0.00000000000E+00  0.00000000000E+00  0.12476491334E+03  0.17660994699E+03  0.12499915910E+03 0.  0.
    9000005    1    3    3    0    0 -0.24357300379E+02 -0.10434953133E+02  0.14234537717E+03  0.14479424274E+03  0.10000000000E+01 0.  0.
    9000005    1    3    3    0    0  0.24357300379E+02  0.10434953133E+02 -0.17580463828E+02  0.31815704252E+02  0.10000000000E+01 0.  0.
<mgrwt>
<rscale>  0 0.12499916E+03</rscale>
<asrwt>0</asrwt>
<pdfrwt beam="2">  1        4 0.64806294E-02 0.12499916E+03</pdfrwt>
<pdfrwt beam="1">  1       -4 0.37671857E-01 0.12499916E+03</pdfrwt>
<totfact> 0.17303304E+03</totfact>
</mgrwt>
</event>
<event>
 5    1  0.1430314E-002  0.1250047E+03  0.7818608E-02  0.1235062E+00
          4   -1    0    0  501    0  0.00000000000E+00  0.00000000000E+00  0.15684697123E+02  0.15736029481E+02  0.12700000000E+01 0.  1.
         -4   -1    0    0    0  501 -0.00000000000E+00 -0.00000000000E+00 -0.24860715546E+03  0.24861039931E+03  0.12700000000E+01 0.  1.
         25    2    1    2    0    0  0.00000000000E+00  0.00000000000E+00 -0.23292245833E+03  0.26434642879E+03  0.12500465118E+03 0.  0.
    9000005    1    3    3    0    0  0.14768292892E+02  0.33423142571E+02 -0.22367285134E+03  0.22664014067E+03  0.10000000000E+01 0.  0.
    9000005    1    3    3    0    0 -0.14768292892E+02 -0.33423142571E+02 -0.92496069884E+01  0.37706288119E+02  0.10000000000E+01 0.  0.
<mgrwt>
<rscale>  0 0.12500465E+03</rscale>
<asrwt>0</asrwt>
<pdfrwt beam="1">  1        4 0.39279971E-02 0.12500465E+03</pdfrwt>
<pdfrwt beam="2">  1       -4 0.62158598E-01 0.12500465E+03</pdfrwt>
<totfact> 0.14031140E+03</totfact>
</mgrwt>
</event>
<event>
 5    1  0.1430314E-002  0.1250015E+03  0.7818608E-02  0.1235067E+00
         -4   -1    0    0    0  501 -0.00000000000E+00  0.00000000000E+00  0.70289242334E+02  0.70300714704E+02  0.12700000000E+01 0.  1.
          4   -1    0    0  501    0  0.00000000000E+00 -0.00000000000E+00 -0.55552030814E+02  0.55566545938E+02  0.12700000000E+01 0.  1.
         25    2    1    2    0    0  0.00000000000E+00  0.00000000000E+00  0.14737211520E+02  0.12586726064E+03  0.12500152758E+03 0.  0.
    9000005    1    3    3    0    0 -0.57978865077E+02 -0.22846257117E+02  0.12074862533E+02  0.63484664015E+02  0.10000000000E+01 0.  0.
    9000005    1    3    3    0    0  0.57978865077E+02  0.22846257117E+02  0.26623489876E+01  0.62382596628E+02  0.10000000000E+01 0.  0.
<mgrwt>
<rscale>  0 0.12500153E+03</rscale>
<asrwt>0</asrwt>
<pdfrwt beam="2">  1        4 0.13891256E-01 0.12500153E+03</pdfrwt>
<pdfrwt beam="1">  1       -4 0.17575559E-01 0.12500153E+03</pdfrwt>
<totfact> 0.19787388E+03</totfact>
</mgrwt>
</event>
<event>
 5    1  0.1430314E-002  0.1249949E+03  0.7818608E-02  0.1235077E+00
          4   -1    0    0  501    0  0.00000000000E+00  0.00000000000E+00  0.10623155798E+03  0.10623914914E+03  0.12700000000E+01 0.  1.
         -4   -1    0    0    0  501 -0.00000000000E+00 -0.00000000000E+00 -0.36748201079E+02  0.36770139822E+02  0.12700000000E+01 0.  1.
         25    2    1    2    0    0  0.00000000000E+00  0.00000000000E+00  0.69483356901E+02  0.14300928897E+03  0.12499487927E+03 0.  0.
    9000005    1    3    3    0    0 -0.28180491746E+01  0.10460345693E+02 -0.35671239866E+02  0.37293398702E+02  0.10000000000E+01 0.  0.
    9000005    1    3    3    0    0  0.28180491746E+01 -0.10460345693E+02  0.10515459677E+03  0.10571589026E+03  0.10000000000E+01 0.  0.
<mgrwt>
<rscale>  0 0.12499488E+03</rscale>
<asrwt>0</asrwt>
<pdfrwt beam="1">  1        4 0.26561580E-01 0.12499488E+03</pdfrwt>
<pdfrwt beam="2">  1       -4 0.91907416E-02 0.12499488E+03</pdfrwt>
<totfact> 0.18889690E+03</totfact>
</mgrwt>
</event>
<event>
 5    1  0.1430314E-002  0.1249489E+03  0.7818608E-02  0.1235149E+00
          4   -1    0    0  501    0  0.00000000000E+00  0.00000000000E+00  0.14214373485E+03  0.14214940822E+03  0.12700000000E+01 0. -1.
         -4   -1    0    0    0  501 -0.00000000000E+00 -0.00000000000E+00 -0.27437632861E+02  0.27467009248E+02  0.12700000000E+01 0. -1.
         25    2    1    2    0    0  0.00000000000E+00  0.00000000000E+00  0.11470610199E+03  0.16961641747E+03  0.12494894654E+03 0.  0.
    9000005    1    3    3    0    0 -0.48635824763E+02  0.25983184569E+02  0.17509271460E+02  0.57863148184E+02  0.10000000000E+01 0.  0.
    9000005    1    3    3    0    0  0.48635824763E+02 -0.25983184569E+02  0.97196830530E+02  0.11175326928E+03  0.10000000000E+01 0.  0.
<mgrwt>
<rscale>  0 0.12494895E+03</rscale>
<asrwt>0</asrwt>
<pdfrwt beam="1">  1        4 0.35540315E-01 0.12494895E+03</pdfrwt>
<pdfrwt beam="2">  1       -4 0.68637894E-02 0.12494895E+03</pdfrwt>
<totfact> 0.17635254E+03</totfact>
</mgrwt>
</event>
<event>
 5    1  0.1430314E-002  0.1249985E+03  0.7818608E-02  0.1235072E+00
         -4   -1    0    0    0  501 -0.00000000000E+00  0.00000000000E+00  0.25332369001E+03  0.25332687346E+03  0.12700000000E+01 0. -1.
          4   -1    0    0  501    0  0.00000000000E+00 -0.00000000000E+00 -0.15390184525E+02  0.15442495903E+02  0.12700000000E+01 0. -1.
         25    2    1    2    0    0  0.00000000000E+00  0.00000000000E+00  0.23793350548E+03  0.26876936937E+03  0.12499848351E+03 0.  0.
    9000005    1    3    3    0    0  0.41215689388E+02 -0.25092088122E+02  0.33585089231E+02  0.58798844858E+02  0.10000000000E+01 0.  0.
    9000005    1    3    3    0    0 -0.41215689388E+02  0.25092088122E+02  0.20434841625E+03  0.20997052451E+03  0.10000000000E+01 0.  0.
<mgrwt>
<rscale>  0 0.12499848E+03</rscale>
<asrwt>0</asrwt>
<pdfrwt beam="2">  1        4 0.38544831E-02 0.12499848E+03</pdfrwt>
<pdfrwt beam="1">  1       -4 0.63337858E-01 0.12499848E+03</pdfrwt>
<totfact> 0.13894306E+03</totfact>
</mgrwt>
</event>
<event>
 5    1  0.1430314E-002  0.1249753E+03  0.7818608E-02  0.1235108E+00
          4   -1    0    0  501    0  0.00000000000E+00  0.00000000000E+00  0.98758696797E+02  0.98766862323E+02  0.12700000000E+01 0. -1.
         -4   -1    0    0    0  501 -0.00000000000E+00 -0.00000000000E+00 -0.39517850820E+02  0.39538252787E+02  0.12700000000E+01 0. -1.
         25    2    1    2    0    0  0.00000000000E+00  0.00000000000E+00  0.59240845978E+02  0.13830511511E+03  0.12497530569E+03 0.  0.
    9000005    1    3    3    0    0 -0.46202182133E+01 -0.33744783178E+02 -0.28346251408E+02  0.44323433722E+02  0.10000000000E+01 0.  0.
    9000005    1    3    3    0    0  0.46202182133E+01  0.33744783178E+02  0.87587097385E+02  0.93981681387E+02  0.10000000000E+01 0.  0.
<mgrwt>
<rscale>  0 0.12497531E+03</rscale>
<asrwt>0</asrwt>
<pdfrwt beam="1">  1        4 0.24693245E-01 0.12497531E+03</pdfrwt>
<pdfrwt beam="2">  1       -4 0.98830337E-02 0.12497531E+03</pdfrwt>
<totfact> 0.19138409E+03</totfact>
</mgrwt>
</event>
<event>
 5    1  0.1430314E-002  0.1250009E+03  0.7818608E-02  0.1235068E+00
          4   -1    0    0  501    0  0.00000000000E+00  0.00000000000E+00  0.85094498037E+02  0.85103974620E+02  0.12700000000E+01 0. -1.
         -4   -1    0    0    0  501 -0.00000000000E+00 -0.00000000000E+00 -0.45884678076E+02  0.45902250295E+02  0.12700000000E+01 0. -1.
         25    2    1    2    0    0  0.00000000000E+00  0.00000000000E+00  0.39209819961E+02  0.13100622491E+03  0.12500088394E+03 0.  0.
    9000005    1    3    3    0    0 -0.33695052748E+02  0.36961872822E+02  0.58871809729E+02  0.77255592697E+02  0.10000000000E+01 0.  0.
    9000005    1    3    3    0    0  0.33695052748E+02 -0.36961872822E+02 -0.19661989768E+02  0.53750632218E+02  0.10000000000E+01 0.  0.
<mgrwt>
<rscale>  0 0.12500088E+03</rscale>
<asrwt>0</asrwt>
<pdfrwt beam="1">  1        4 0.21277005E-01 0.12500088E+03</pdfrwt>
<pdfrwt beam="2">  1       -4 0.11474551E-01 0.12500088E+03</pdfrwt>
<totfact> 0.19510038E+03</totfact>
</mgrwt>
</event>
<event>
 5    1  0.1430314E-002  0.1249990E+03  0.7818608E-02  0.1235071E+00
          4   -1    0    0  501    0  0.00000000000E+00  0.00000000000E+00  0.36060295841E+02  0.36082652842E+02  0.12700000000E+01 0.  1.
         -4   -1    0    0    0  501 -0.00000000000E+00 -0.00000000000E+00 -0.10826413765E+03  0.10827158631E+03  0.12700000000E+01 0.  1.
         25    2    1    2    0    0  0.00000000000E+00  0.00000000000E+00 -0.72203841814E+02  0.14435423915E+03  0.12499900635E+03 0.  0.
    9000005    1    3    3    0    0 -0.39722336935E+02  0.20286342943E+02  0.14445234589E+02  0.46894184755E+02  0.10000000000E+01 0.  0.
    9000005    1    3    3    0    0  0.39722336935E+02 -0.20286342943E+02 -0.86649076402E+02  0.97460054396E+02  0.10000000000E+01 0.  0.
<mgrwt>
<rscale>  0 0.12499901E+03</rscale>
<asrwt>0</asrwt>
<pdfrwt beam="1">  1        4 0.90187999E-02 0.12499901E+03</pdfrwt>
<pdfrwt beam="2">  1       -4 0.27069759E-01 0.12499901E+03</pdfrwt>
<totfact> 0.18820193E+03</totfact>
</mgrwt>
</event>
<event>
 5    1  0.1430314E-002  0.1250034E+03  0.7818608E-02  0.1235064E+00
          4   -1    0    0  501    0  0.00000000000E+00  0.00000000000E+00  0.48236190078E+02  0.48252905957E+02  0.12700000000E+01 0.  1.
         -4   -1    0    0    0  501 -0.00000000000E+00 -0.00000000000E+00 -0.80950430113E+02  0.80960391770E+02  0.12700000000E+01 0.  1.
         25    2    1    2    0    0  0.00000000000E+00  0.00000000000E+00 -0.32714240035E+02  0.12921329773E+03  0.12500341919E+03 0.  0.
    9000005    1    3    3    0    0  0.40443631259E+02  0.30536426564E+02 -0.54157854200E+02  0.74177043810E+02  0.10000000000E+01 0.  0.
    9000005    1    3    3    0    0 -0.40443631259E+02 -0.30536426564E+02  0.21443614165E+02  0.55036253917E+02  0.10000000000E+01 0.  0.
<mgrwt>
<rscale>  0 0.12500342E+03</rscale>
<asrwt>0</asrwt>
<pdfrwt beam="1">  1        4 0.12062382E-01 0.12500342E+03</pdfrwt>
<pdfrwt beam="2">  1       -4 0.20240942E-01 0.12500342E+03</pdfrwt>
<totfact> 0.19605205E+03</totfact>
</mgrwt>
</event>
<event>
 5    1  0.1430314E-002  0.1249965E+03  0.7818608E-02  0.1235075E+00
         -4   -1    0    0    0  501 -0.00000000000E+00  0.00000000000E+00  0.40253989314E+03  0.40254189654E+03  0.12700000000E+01 0.  1.
          4   -1    0    0  501    0  0.00000000000E+00 -0.00000000000E+00 -0.96598757839E+01  0.97430026255E+01  0.12700000000E+01 0.  1.
         25    2    1    2    0    0  0.00000000000E+00  0.00000000000E+00  0.39288001736E+03  0.41228489916E+03  0.12499652012E+03 0.  0.
    9000005    1    3    3    0    0  0.38135721524E+02  0.38367071224E+02  0.93254906156E+02  0.10781392736E+03  0.10000000000E+01 0.  0.
    9000005    1    3    3    0    0 -0.38135721524E+02 -0.38367071224E+02  0.29962511120E+03  0.30447097180E+03  0.10000000000E+01 0.  0.
<mgrwt>
<rscale>  0 0.12499652E+03</rscale>
<asrwt>0</asrwt>
<pdfrwt beam="2">  1        4 0.24256104E-02 0.12499652E+03</pdfrwt>
<pdfrwt beam="1">  1       -4 0.10064561E+00 0.12499652E+03</pdfrwt>
<totfact> 0.10320637E+03</totfact>
</mgrwt>
</event>
<event>
 5    1  0.1430314E-002  0.1249940E+03  0.7818608E-02  0.1235079E+00
         -4   -1    0    0    0  501 -0.00000000000E+00  0.00000000000E+00  0.19751450905E+03  0.19751859200E+03  0.12700000000E+01 0.  1.
          4   -1    0    0  501    0  0.00000000000E+00 -0.00000000000E+00 -0.19750461973E+02  0.19791251809E+02  0.12700000000E+01 0.  1.
         25    2    1    2    0    0  0.00000000000E+00  0.00000000000E+00  0.17776404708E+03  0.21730984381E+03  0.12499404699E+03 0.  0.
    9000005    1    3    3    0    0  0.56571221371E+02 -0.26017500347E+02  0.79737696516E+02  0.10117466905E+03  0.10000000000E+01 0.  0.
    9000005    1    3    3    0    0 -0.56571221371E+02  0.26017500347E+02  0.98026350562E+02  0.11613517476E+03  0.10000000000E+01 0.  0.
<mgrwt>
<rscale>  0 0.12499405E+03</rscale>
<asrwt>0</asrwt>
<pdfrwt beam="2">  1        4 0.49432247E-02 0.12499405E+03</pdfrwt>
<pdfrwt beam="1">  1       -4 0.49384236E-01 0.12499405E+03</pdfrwt>
<totfact> 0.15653766E+03</totfact>
</mgrwt>
</event>
<event>
 5    1  0.1430314E-002  0.1249975E+03  0.7818608E-02  0.1235073E+00
          4   -1    0    0  501    0  0.00000000000E+00  0.00000000000E+00  0.17813057152E+03  0.17813509876E+03  0.12700000000E+01 0.  1.
         -4   -1    0    0    0  501 -0.00000000000E+00 -0.00000000000E+00 -0.21905073561E+02  0.21941858347E+02  0.12700000000E+01 0.  1.
         25    2    1    2    0    0  0.00000000000E+00  0.00000000000E+00  0.15622549796E+03  0.20007695711E+03  0.12499753019E+03 0.  0.
    9000005    1    3    3    0    0  0.34779130998E+02 -0.18566977825E+02  0.50569897360E+00  0.39440795504E+02  0.10000000000E+01 0.  0.
    9000005    1    3    3    0    0 -0.34779130998E+02  0.18566977825E+02  0.15571979899E+03  0.16063616160E+03  0.10000000000E+01 0.  0.
<mgrwt>
<rscale>  0 0.12499753E+03</rscale>
<asrwt>0</asrwt>
<pdfrwt beam="1">  1        4 0.44537806E-01 0.12499753E+03</pdfrwt>
<pdfrwt beam="2">  1       -4 0.54814325E-02 0.12499753E+03</pdfrwt>
<totfact> 0.16319892E+03</totfact>
</mgrwt>
</event>
<event>
 5    1  0.1430314E-002  0.1249999E+03  0.7818608E-02  0.1235069E+00
         -4   -1    0    0    0  501 -0.00000000000E+00  0.00000000000E+00  0.38679866037E+02  0.38700709769E+02  0.12700000000E+01 0.  1.
          4   -1    0    0  501    0  0.00000000000E+00 -0.00000000000E+00 -0.10093698113E+03  0.10094497046E+03  0.12700000000E+01 0.  1.
         25    2    1    2    0    0  0.00000000000E+00  0.00000000000E+00 -0.62257115096E+02  0.13964568022E+03  0.12499987050E+03 0.  0.
    9000005    1    3    3    0    0  0.40614647237E+02  0.42647381206E+02 -0.54479563339E+02  0.80233231990E+02  0.10000000000E+01 0.  0.
    9000005    1    3    3    0    0 -0.40614647237E+02 -0.42647381206E+02 -0.77775517572E+01  0.59412448235E+02  0.10000000000E+01 0.  0.
<mgrwt>
<rscale>  0 0.12499987E+03</rscale>
<asrwt>0</asrwt>
<pdfrwt beam="2">  1        4 0.25237849E-01 0.12499987E+03</pdfrwt>
<pdfrwt beam="1">  1       -4 0.96735708E-02 0.12499987E+03</pdfrwt>
<totfact> 0.19058541E+03</totfact>
</mgrwt>
</event>
<event>
 5    1  0.1430314E-002  0.1250145E+03  0.7818608E-02  0.1235047E+00
          4   -1    0    0  501    0  0.00000000000E+00  0.00000000000E+00  0.70507477231E+02  0.70518914098E+02  0.12700000000E+01 0. -1.
         -4   -1    0    0    0  501 -0.00000000000E+00 -0.00000000000E+00 -0.55391580426E+02  0.55406137585E+02  0.12700000000E+01 0. -1.
         25    2    1    2    0    0  0.00000000000E+00  0.00000000000E+00  0.15115896805E+02  0.12592505168E+03  0.12501451238E+03 0.  0.
    9000005    1    3    3    0    0 -0.59750713869E+01  0.62109256334E+02  0.11175186772E+02  0.63396734930E+02  0.10000000000E+01 0.  0.
    9000005    1    3    3    0    0  0.59750713869E+01 -0.62109256334E+02  0.39407100328E+01  0.62528316753E+02  0.10000000000E+01 0.  0.
<mgrwt>
<rscale>  0 0.12501451E+03</rscale>
<asrwt>0</asrwt>
<pdfrwt beam="1">  1        4 0.17630119E-01 0.12501451E+03</pdfrwt>
<pdfrwt beam="2">  1       -4 0.13851144E-01 0.12501451E+03</pdfrwt>
<totfact> 0.19778255E+03</totfact>
</mgrwt>
</event>
<event>
 5    1  0.1430314E-002  0.1249990E+03  0.7818608E-02  0.1235071E+00
         -4   -1    0    0    0  501 -0.00000000000E+00  0.00000000000E+00  0.18588645997E+03  0.18589079832E+03  0.12700000000E+01 0. -1.
          4   -1    0    0  501    0  0.00000000000E+00 -0.00000000000E+00 -0.20990068183E+02  0.21028453636E+02  0.12700000000E+01 0. -1.
         25    2    1    2    0    0  0.00000000000E+00  0.00000000000E+00  0.16489639179E+03  0.20691925196E+03  0.12499902722E+03 0.  0.
    9000005    1    3    3    0    0  0.37179846205E+02  0.38636607281E+02  0.29319922785E+02  0.61121078673E+02  0.10000000000E+01 0.  0.
    9000005    1    3    3    0    0 -0.37179846205E+02 -0.38636607281E+02  0.13557646900E+03  0.14579817329E+03  0.10000000000E+01 0.  0.
<mgrwt>
<rscale>  0 0.12499903E+03</rscale>
<asrwt>0</asrwt>
<pdfrwt beam="2">  1        4 0.52528576E-02 0.12499903E+03</pdfrwt>
<pdfrwt beam="1">  1       -4 0.46476955E-01 0.12499903E+03</pdfrwt>
<totfact> 0.16049044E+03</totfact>
</mgrwt>
</event>
<event>
 5    1  0.1430314E-002  0.1250010E+03  0.7818608E-02  0.1235068E+00
          4   -1    0    0  501    0  0.00000000000E+00  0.00000000000E+00  0.84957044563E+01  0.85901044353E+01  0.12700000000E+01 0. -1.
         -4   -1    0    0    0  501 -0.00000000000E+00 -0.00000000000E+00 -0.45716288278E+03  0.45716464681E+03  0.12700000000E+01 0. -1.
         25    2    1    2    0    0  0.00000000000E+00  0.00000000000E+00 -0.44866717833E+03  0.46575475125E+03  0.12500100560E+03 0.  0.
    9000005    1    3    3    0    0 -0.62238897409E+02  0.51123937235E+01 -0.21559855941E+03  0.22446281594E+03  0.10000000000E+01 0.  0.
    9000005    1    3    3    0    0  0.62238897409E+02 -0.51123937235E+01 -0.23306861892E+03  0.24129193531E+03  0.10000000000E+01 0.  0.
<mgrwt>
<rscale>  0 0.12500101E+03</rscale>
<asrwt>0</asrwt>
<pdfrwt beam="1">  1        4 0.21359482E-02 0.12500101E+03</pdfrwt>
<pdfrwt beam="2">  1       -4 0.11430266E+00 0.12500101E+03</pdfrwt>
<totfact> 0.93253616E+02</totfact>
</mgrwt>
</event>
<event>
 5    1  0.1430314E-002  0.1249992E+03  0.7818608E-02  0.1235070E+00
          4   -1    0    0  501    0  0.00000000000E+00  0.00000000000E+00  0.37009109313E+02  0.37030893483E+02  0.12700000000E+01 0. -1.
         -4   -1    0    0    0  501 -0.00000000000E+00 -0.00000000000E+00 -0.10549039535E+03  0.10549803985E+03  0.12700000000E+01 0. -1.
         25    2    1    2    0    0  0.00000000000E+00  0.00000000000E+00 -0.68481286038E+02  0.14252893333E+03  0.12499924119E+03 0.  0.
    9000005    1    3    3    0    0 -0.23743821622E+02  0.55971310396E+02 -0.17770377191E+02  0.63350950728E+02  0.10000000000E+01 0.  0.
    9000005    1    3    3    0    0  0.23743821622E+02 -0.55971310396E+02 -0.50710908847E+02  0.79177982601E+02  0.10000000000E+01 0.  0.
<mgrwt>
<rscale>  0 0.12499924E+03</rscale>
<asrwt>0</asrwt>
<pdfrwt beam="1">  1        4 0.92559561E-02 0.12499924E+03</pdfrwt>
<pdfrwt beam="2">  1       -4 0.26376277E-01 0.12499924E+03</pdfrwt>
<totfact> 0.18912039E+03</totfact>
</mgrwt>
</event>
<event>
 5    1  0.1430314E-002  0.1249912E+03  0.7818608E-02  0.1235083E+00
          4   -1    0    0  501    0  0.00000000000E+00  0.00000000000E+00  0.82614896954E+02  0.82624657934E+02  0.12700000000E+01 0. -1.
         -4   -1    0    0    0  501 -0.00000000000E+00 -0.00000000000E+00 -0.47254872679E+02  0.47271935564E+02  0.12700000000E+01 0. -1.
         25    2    1    2    0    0  0.00000000000E+00  0.00000000000E+00  0.35360024275E+02  0.12989659350E+03  0.12499117443E+03 0.  0.
    9000005    1    3    3    0    0  0.27374359625E+02  0.49752422483E+02  0.44781018824E+02  0.72325643825E+02  0.10000000000E+01 0.  0.
    9000005    1    3    3    0    0 -0.27374359625E+02 -0.49752422483E+02 -0.94209945490E+01  0.57570949672E+02  0.10000000000E+01 0.  0.
<mgrwt>
<rscale>  0 0.12499117E+03</rscale>
<asrwt>0</asrwt>
<pdfrwt beam="1">  1        4 0.20657077E-01 0.12499117E+03</pdfrwt>
<pdfrwt beam="2">  1       -4 0.11817071E-01 0.12499117E+03</pdfrwt>
<totfact> 0.19573975E+03</totfact>
</mgrwt>
</event>
<event>
 5    1  0.1430314E-002  0.1250173E+03  0.7818608E-02  0.1235042E+00
          4   -1    0    0  501    0  0.00000000000E+00  0.00000000000E+00  0.13703236911E+03  0.13703825409E+03  0.12700000000E+01 0.  1.
         -4   -1    0    0    0  501 -0.00000000000E+00 -0.00000000000E+00 -0.28493285377E+02  0.28521574494E+02  0.12700000000E+01 0.  1.
         25    2    1    2    0    0  0.00000000000E+00  0.00000000000E+00  0.10853908373E+03  0.16555982858E+03  0.12501729537E+03 0.  0.
    9000005    1    3    3    0    0 -0.56182667726E+02  0.73091314072E+01  0.19321803377E+02  0.59868586425E+02  0.10000000000E+01 0.  0.
    9000005    1    3    3    0    0  0.56182667726E+02 -0.73091314072E+01  0.89217280351E+02  0.10569124215E+03  0.10000000000E+01 0.  0.
<mgrwt>
<rscale>  0 0.12501730E+03</rscale>
<asrwt>0</asrwt>
<pdfrwt beam="1">  1        4 0.34262364E-01 0.12501730E+03</pdfrwt>
<pdfrwt beam="2">  1       -4 0.71275932E-02 0.12501730E+03</pdfrwt>
<totfact> 0.17792049E+03</totfact>
</mgrwt>
</event>
<event>
 5    1  0.1430314E-002  0.1250004E+03  0.7818608E-02  0.1235069E+00
         -4   -1    0    0    0  501 -0.00000000000E+00  0.00000000000E+00  0.73592671620E+01  0.74680461408E+01  0.12700000000E+01 0.  1.
          4   -1    0    0  501    0  0.00000000000E+00 -0.00000000000E+00 -0.52679342562E+03  0.52679495648E+03  0.12700000000E+01 0.  1.
         25    2    1    2    0    0  0.00000000000E+00  0.00000000000E+00 -0.51943415846E+03  0.53426300262E+03  0.12500044400E+03 0.  0.
    9000005    1    3    3    0    0  0.48948656656E+02 -0.13911230415E+02 -0.10467987918E+03  0.11639746743E+03  0.10000000000E+01 0.  0.
    9000005    1    3    3    0    0 -0.48948656656E+02  0.13911230415E+02 -0.41475427928E+03  0.41786553519E+03  0.10000000000E+01 0.  0.
<mgrwt>
<rscale>  0 0.12500044E+03</rscale>
<asrwt>0</asrwt>
<pdfrwt beam="2">  1        4 0.13171202E+00 0.12500044E+03</pdfrwt>
<pdfrwt beam="1">  1       -4 0.18536073E-02 0.12500044E+03</pdfrwt>
<totfact> 0.82402489E+02</totfact>
</mgrwt>
</event>
<event>
 5    1  0.1430314E-002  0.1250127E+03  0.7818608E-02  0.1235049E+00
         -4   -1    0    0    0  501 -0.00000000000E+00  0.00000000000E+00  0.31865906207E+01  0.34303439746E+01  0.12700000000E+01 0. -1.
          4   -1    0    0  501    0  0.00000000000E+00 -0.00000000000E+00 -0.11806794153E+04  0.11806800983E+04  0.12700000000E+01 0. -1.
         25    2    1    2    0    0  0.00000000000E+00  0.00000000000E+00 -0.11774928246E+04  0.11841104423E+04  0.12501274904E+03 0.  0.
    9000005    1    3    3    0    0 -0.57229324123E+02  0.21841235426E+02 -0.70621795284E+03  0.70887025049E+03  0.10000000000E+01 0.  0.
    9000005    1    3    3    0    0  0.57229324123E+02 -0.21841235426E+02 -0.47127487179E+03  0.47524019178E+03  0.10000000000E+01 0.  0.
<mgrwt>
<rscale>  0 0.12501275E+03</rscale>
<asrwt>0</asrwt>
<pdfrwt beam="2">  1        4 0.29519896E+00 0.12501275E+03</pdfrwt>
<pdfrwt beam="1">  1       -4 0.82720625E-03 0.12501275E+03</pdfrwt>
<totfact> 0.26035087E+02</totfact>
</mgrwt>
</event>
<event>
 5    1  0.1430314E-002  0.1249962E+03  0.7818608E-02  0.1235075E+00
         -4   -1    0    0    0  501 -0.00000000000E+00  0.00000000000E+00  0.31245823109E+02  0.31271622307E+02  0.12700000000E+01 0.  1.
          4   -1    0    0  501    0  0.00000000000E+00 -0.00000000000E+00 -0.12492858269E+03  0.12493503781E+03  0.12700000000E+01 0.  1.
         25    2    1    2    0    0  0.00000000000E+00  0.00000000000E+00 -0.93682759583E+02  0.15620666012E+03  0.12499624484E+03 0.  0.
    9000005    1    3    3    0    0  0.17098717951E+02  0.57734841667E+02 -0.67727942518E+02  0.90629753920E+02  0.10000000000E+01 0.  0.
    9000005    1    3    3    0    0 -0.17098717951E+02 -0.57734841667E+02 -0.25954817065E+02  0.65576906200E+02  0.10000000000E+01 0.  0.
<mgrwt>
<rscale>  0 0.12499624E+03</rscale>
<asrwt>0</asrwt>
<pdfrwt beam="2">  1        4 0.31236176E-01 0.12499624E+03</pdfrwt>
<pdfrwt beam="1">  1       -4 0.78154879E-02 0.12499624E+03</pdfrwt>
<totfact> 0.18239342E+03</totfact>
</mgrwt>
</event>
<event>
 5    1  0.1430314E-002  0.1249956E+03  0.7818608E-02  0.1235076E+00
          4   -1    0    0  501    0  0.00000000000E+00  0.00000000000E+00  0.53363850750E+02  0.53378960901E+02  0.12700000000E+01 0.  1.
         -4   -1    0    0    0  501 -0.00000000000E+00 -0.00000000000E+00 -0.73164211910E+02  0.73175233545E+02  0.12700000000E+01 0.  1.
         25    2    1    2    0    0  0.00000000000E+00  0.00000000000E+00 -0.19800361159E+02  0.12655419445E+03  0.12499563924E+03 0.  0.
    9000005    1    3    3    0    0 -0.12539892238E+00  0.19927197411E+02  0.50065578602E+02  0.53895000532E+02  0.10000000000E+01 0.  0.
    9000005    1    3    3    0    0  0.12539892238E+00 -0.19927197411E+02 -0.69865939761E+02  0.72659193914E+02  0.10000000000E+01 0.  0.
<mgrwt>
<rscale>  0 0.12499564E+03</rscale>
<asrwt>0</asrwt>
<pdfrwt beam="1">  1        4 0.13344229E-01 0.12499564E+03</pdfrwt>
<pdfrwt beam="2">  1       -4 0.18294319E-01 0.12499564E+03</pdfrwt>
<totfact> 0.19753016E+03</totfact>
</mgrwt>
</event>
<event>
 5    1  0.1430314E-002  0.1249994E+03  0.7818608E-02  0.1235070E+00
         -4   -1    0    0    0  501 -0.00000000000E+00  0.00000000000E+00  0.12919778566E+03  0.12920402749E+03  0.12700000000E+01 0. -1.
          4   -1    0    0  501    0  0.00000000000E+00 -0.00000000000E+00 -0.30214028727E+02  0.30240708192E+02  0.12700000000E+01 0. -1.
         25    2    1    2    0    0  0.00000000000E+00  0.00000000000E+00  0.98983756934E+02  0.15944473568E+03  0.12499935840E+03 0.  0.
    9000005    1    3    3    0    0  0.43297914227E+02 -0.34633493019E+02  0.12720612734E+02  0.56894658830E+02  0.10000000000E+01 0.  0.
    9000005    1    3    3    0    0 -0.43297914227E+02  0.34633493019E+02  0.86263144200E+02  0.10255007685E+03  0.10000000000E+01 0.  0.
<mgrwt>
<rscale>  0 0.12499936E+03</rscale>
<asrwt>0</asrwt>
<pdfrwt beam="2">  1        4 0.75576224E-02 0.12499936E+03</pdfrwt>
<pdfrwt beam="1">  1       -4 0.32303561E-01 0.12499936E+03</pdfrwt>
<totfact> 0.18084187E+03</totfact>
</mgrwt>
</event>
<event>
 5    1  0.1430314E-002  0.1250139E+03  0.7818608E-02  0.1235048E+00
         -4   -1    0    0    0  501 -0.00000000000E+00  0.00000000000E+00  0.54540060033E+02  0.54554844408E+02  0.12700000000E+01 0. -1.
          4   -1    0    0  501    0  0.00000000000E+00 -0.00000000000E+00 -0.71607436951E+02  0.71618698164E+02  0.12700000000E+01 0. -1.
         25    2    1    2    0    0  0.00000000000E+00  0.00000000000E+00 -0.17067376918E+02  0.12617354257E+03  0.12501386919E+03 0.  0.
    9000005    1    3    3    0    0  0.43526593944E+02  0.38056534616E+02 -0.32486788468E+02  0.66326884687E+02  0.10000000000E+01 0.  0.
    9000005    1    3    3    0    0 -0.43526593944E+02 -0.38056534616E+02  0.15419411550E+02  0.59846657884E+02  0.10000000000E+01 0.  0.
<mgrwt>
<rscale>  0 0.12501387E+03</rscale>
<asrwt>0</asrwt>
<pdfrwt beam="2">  1        4 0.17905115E-01 0.12501387E+03</pdfrwt>
<pdfrwt beam="1">  1       -4 0.13638271E-01 0.12501387E+03</pdfrwt>
<totfact> 0.19765132E+03</totfact>
</mgrwt>
</event>
<event>
 5    1  0.1430314E-002  0.1250023E+03  0.7818608E-02  0.1235066E+00
          4   -1    0    0  501    0  0.00000000000E+00  0.00000000000E+00  0.23461261553E+02  0.23495610093E+02  0.12700000000E+01 0. -1.
         -4   -1    0    0    0  501 -0.00000000000E+00 -0.00000000000E+00 -0.16634539936E+03  0.16635024733E+03  0.12700000000E+01 0. -1.
         25    2    1    2    0    0  0.00000000000E+00  0.00000000000E+00 -0.14288413781E+03  0.18984585743E+03  0.12500229096E+03 0.  0.
    9000005    1    3    3    0    0  0.85993520927E+01  0.45958503935E+02 -0.13441500795E+03  0.14231840114E+03  0.10000000000E+01 0.  0.
    9000005    1    3    3    0    0 -0.85993520927E+01 -0.45958503935E+02 -0.84691298508E+01  0.47527456283E+02  0.10000000000E+01 0.  0.
<mgrwt>
<rscale>  0 0.12500229E+03</rscale>
<asrwt>0</asrwt>
<pdfrwt beam="1">  1        4 0.58702154E-02 0.12500229E+03</pdfrwt>
<pdfrwt beam="2">  1       -4 0.41591246E-01 0.12500229E+03</pdfrwt>
<totfact> 0.16735982E+03</totfact>
</mgrwt>
</event>
<event>
 5    1  0.1430314E-002  0.1249979E+03  0.7818608E-02  0.1235073E+00
         -4   -1    0    0    0  501 -0.00000000000E+00  0.00000000000E+00  0.44458967638E+03  0.44459149030E+03  0.12700000000E+01 0.  1.
          4   -1    0    0  501    0  0.00000000000E+00 -0.00000000000E+00 -0.87381650565E+01  0.88299733043E+01  0.12700000000E+01 0.  1.
         25    2    1    2    0    0  0.00000000000E+00  0.00000000000E+00  0.43585151132E+03  0.45342146360E+03  0.12499793491E+03 0.  0.
    9000005    1    3    3    0    0 -0.35347542569E+01  0.30920085541E+02  0.41449690043E+03  0.41566480083E+03  0.10000000000E+01 0.  0.
    9000005    1    3    3    0    0  0.35347542569E+01 -0.30920085541E+02  0.21354610890E+02  0.37756662773E+02  0.10000000000E+01 0.  0.
<mgrwt>
<rscale>  0 0.12499793E+03</rscale>
<asrwt>0</asrwt>
<pdfrwt beam="2">  1        4 0.21962442E-02 0.12499793E+03</pdfrwt>
<pdfrwt beam="1">  1       -4 0.11115912E+00 0.12499793E+03</pdfrwt>
<totfact> 0.95410386E+02</totfact>
</mgrwt>
</event>
<event>
 5    1  0.1430314E-002  0.1249997E+03  0.7818608E-02  0.1235070E+00
          4   -1    0    0  501    0  0.00000000000E+00  0.00000000000E+00  0.45714216897E+03  0.45714393307E+03  0.12700000000E+01 0.  1.
         -4   -1    0    0    0  501 -0.00000000000E+00 -0.00000000000E+00 -0.84959206387E+01  0.85903182421E+01  0.12700000000E+01 0.  1.
         25    2    1    2    0    0  0.00000000000E+00  0.00000000000E+00  0.44864624833E+03  0.46573425132E+03  0.12499974685E+03 0.  0.
    9000005    1    3    3    0    0  0.43549556438E+01 -0.49110271432E+02  0.36739162856E+03  0.37068638110E+03  0.10000000000E+01 0.  0.
    9000005    1    3    3    0    0 -0.43549556438E+01  0.49110271432E+02  0.81254619767E+02  0.95047870214E+02  0.10000000000E+01 0.  0.
<mgrwt>
<rscale>  0 0.12499975E+03</rscale>
<asrwt>0</asrwt>
<pdfrwt beam="1">  1        4 0.11429755E+00 0.12499975E+03</pdfrwt>
<pdfrwt beam="2">  1       -4 0.21360006E-02 0.12499975E+03</pdfrwt>
<totfact> 0.93259743E+02</totfact>
</mgrwt>
</event>
<event>
 5    1  0.1430314E-002  0.1249992E+03  0.7818608E-02  0.1235071E+00
         -4   -1    0    0    0  501 -0.00000000000E+00  0.00000000000E+00  0.27004697637E+02  0.27034544466E+02  0.12700000000E+01 0.  1.
          4   -1    0    0  501    0  0.00000000000E+00 -0.00000000000E+00 -0.14453639751E+03  0.14454197697E+03  0.12700000000E+01 0.  1.
         25    2    1    2    0    0  0.00000000000E+00  0.00000000000E+00 -0.11753169988E+03  0.17157652143E+03  0.12499920893E+03 0.  0.
    9000005    1    3    3    0    0 -0.12385681564E+02  0.57124379292E+02 -0.28425006139E+02  0.65004467471E+02  0.10000000000E+01 0.  0.
    9000005    1    3    3    0    0  0.12385681564E+02 -0.57124379292E+02 -0.89106693737E+02  0.10657205396E+03  0.10000000000E+01 0.  0.
<mgrwt>
<rscale>  0 0.12499921E+03</rscale>
<asrwt>0</asrwt>
<pdfrwt beam="2">  1        4 0.36138526E-01 0.12499921E+03</pdfrwt>
<pdfrwt beam="1">  1       -4 0.67556031E-02 0.12499921E+03</pdfrwt>
<totfact> 0.17526495E+03</totfact>
</mgrwt>
</event>
<event>
 5    1  0.1430314E-002  0.1250015E+03  0.7818608E-02  0.1235067E+00
         -4   -1    0    0    0  501 -0.00000000000E+00  0.00000000000E+00  0.21185812133E+02  0.21223843567E+02  0.12700000000E+01 0. -1.
          4   -1    0    0  501    0  0.00000000000E+00 -0.00000000000E+00 -0.18417932728E+03  0.18418370584E+03  0.12700000000E+01 0. -1.
         25    2    1    2    0    0  0.00000000000E+00  0.00000000000E+00 -0.16299351514E+03  0.20540754941E+03  0.12500150148E+03 0.  0.
    9000005    1    3    3    0    0 -0.26240751282E+02  0.32820437282E+02 -0.15750593212E+03  0.16301802595E+03  0.10000000000E+01 0.  0.
    9000005    1    3    3    0    0  0.26240751282E+02 -0.32820437282E+02 -0.54875830218E+01  0.42389523454E+02  0.10000000000E+01 0.  0.
<mgrwt>
<rscale>  0 0.12500150E+03</rscale>
<asrwt>0</asrwt>
<pdfrwt beam="2">  1        4 0.46050128E-01 0.12500150E+03</pdfrwt>
<pdfrwt beam="1">  1       -4 0.53017548E-02 0.12500150E+03</pdfrwt>
<totfact> 0.16107222E+03</totfact>
</mgrwt>
</event>
<event>
 5    1  0.1430314E-002  0.1250040E+03  0.7818608E-02  0.1235063E+00
         -4   -1    0    0    0  501 -0.00000000000E+00  0.00000000000E+00  0.38520559771E+02  0.38541489658E+02  0.12700000000E+01 0.  1.
          4   -1    0    0  501    0  0.00000000000E+00 -0.00000000000E+00 -0.10136095715E+03  0.10136891306E+03  0.12700000000E+01 0.  1.
         25    2    1    2    0    0  0.00000000000E+00  0.00000000000E+00 -0.62840397383E+02  0.13991040272E+03  0.12500402092E+03 0.  0.
    9000005    1    3    3    0    0 -0.42080278241E+02  0.44655736345E+02 -0.18147950821E+02  0.63994005378E+02  0.10000000000E+01 0.  0.
    9000005    1    3    3    0    0  0.42080278241E+02 -0.44655736345E+02 -0.44692446562E+02  0.75916397340E+02  0.10000000000E+01 0.  0.
<mgrwt>
<rscale>  0 0.12500402E+03</rscale>
<asrwt>0</asrwt>
<pdfrwt beam="2">  1        4 0.25343850E-01 0.12500402E+03</pdfrwt>
<pdfrwt beam="1">  1       -4 0.96337509E-02 0.12500402E+03</pdfrwt>
<totfact> 0.19043141E+03</totfact>
</mgrwt>
</event>
<event>
 5    1  0.1430314E-002  0.1250023E+03  0.7818608E-02  0.1235066E+00
         -4   -1    0    0    0  501 -0.00000000000E+00  0.00000000000E+00  0.86859076280E+01  0.87782624318E+01  0.12700000000E+01 0.  1.
          4   -1    0    0  501    0  0.00000000000E+00 -0.00000000000E+00 -0.44726755976E+03  0.44726936282E+03  0.12700000000E+01 0.  1.
         25    2    1    2    0    0  0.00000000000E+00  0.00000000000E+00 -0.43858165213E+03  0.45604762525E+03  0.12500228361E+03 0.  0.
    9000005    1    3    3    0    0  0.85959581258E+00  0.20895247797E+02 -0.43414037855E+03  0.43464493391E+03  0.10000000000E+01 0.  0.
    9000005    1    3    3    0    0 -0.85959581258E+00 -0.20895247797E+02 -0.44412735809E+01  0.21402691337E+02  0.10000000000E+01 0.  0.
<mgrwt>
<rscale>  0 0.12500228E+03</rscale>
<asrwt>0</asrwt>
<pdfrwt beam="2">  1        4 0.11182858E+00 0.12500228E+03</pdfrwt>
<pdfrwt beam="1">  1       -4 0.21832482E-02 0.12500228E+03</pdfrwt>
<totfact> 0.94936375E+02</totfact>
</mgrwt>
</event>
<event>
 5    1  0.1430314E-002  0.1250028E+03  0.7818608E-02  0.1235065E+00
         -4   -1    0    0    0  501 -0.00000000000E+00  0.00000000000E+00  0.10876936487E+04  0.10876943901E+04  0.12700000000E+01 0.  1.
          4   -1    0    0  501    0  0.00000000000E+00 -0.00000000000E+00 -0.34784344433E+01  0.37030266237E+01  0.12700000000E+01 0.  1.
         25    2    1    2    0    0  0.00000000000E+00  0.00000000000E+00  0.10842152142E+04  0.10913974167E+04  0.12500276186E+03 0.  0.
    9000005    1    3    3    0    0  0.60603365316E+02  0.97736503906E+01  0.43986537445E+03  0.44412930523E+03  0.10000000000E+01 0.  0.
    9000005    1    3    3    0    0 -0.60603365316E+02 -0.97736503906E+01  0.64434983978E+03  0.64726811149E+03  0.10000000000E+01 0.  0.
<mgrwt>
<rscale>  0 0.12500276E+03</rscale>
<asrwt>0</asrwt>
<pdfrwt beam="2">  1        4 0.89777566E-03 0.12500276E+03</pdfrwt>
<pdfrwt beam="1">  1       -4 0.27195147E+00 0.12500276E+03</pdfrwt>
<totfact> 0.31294973E+02</totfact>
</mgrwt>
</event>
<event>
 5    1  0.1430314E-002  0.1249924E+03  0.7818608E-02  0.1235081E+00
         -4   -1    0    0    0  501 -0.00000000000E+00  0.00000000000E+00  0.34947458541E+02  0.34970526997E+02  0.12700000000E+01 0. -1.
          4   -1    0    0  501    0  0.00000000000E+00 -0.00000000000E+00 -0.11169783169E+03  0.11170505138E+03  0.12700000000E+01 0. -1.
         25    2    1    2    0    0  0.00000000000E+00  0.00000000000E+00 -0.76750373149E+02  0.14667557838E+03  0.12499242183E+03 0.  0.
    9000005    1    3    3    0    0 -0.65276035066E+01 -0.35356759799E+02 -0.98349629840E+02  0.10472038847E+03  0.10000000000E+01 0.  0.
    9000005    1    3    3    0    0  0.65276035066E+01  0.35356759799E+02  0.21599256691E+02  0.41955189913E+02  0.10000000000E+01 0.  0.
<mgrwt>
<rscale>  0 0.12499242E+03</rscale>
<asrwt>0</asrwt>
<pdfrwt beam="2">  1        4 0.27928243E-01 0.12499242E+03</pdfrwt>
<pdfrwt beam="1">  1       -4 0.87406509E-02 0.12499242E+03</pdfrwt>
<totfact> 0.18706760E+03</totfact>
</mgrwt>
</event>
<event>
 5    1  0.1430314E-002  0.1249991E+03  0.7818608E-02  0.1235071E+00
         -4   -1    0    0    0  501 -0.00000000000E+00  0.00000000000E+00  0.17426214794E+02  0.17472431486E+02  0.12700000000E+01 0. -1.
          4   -1    0    0  501    0  0.00000000000E+00 -0.00000000000E+00 -0.22381118234E+03  0.22381478557E+03  0.12700000000E+01 0. -1.
         25    2    1    2    0    0  0.00000000000E+00  0.00000000000E+00 -0.20638496755E+03  0.24128721706E+03  0.12499906514E+03 0.  0.
    9000005    1    3    3    0    0 -0.61167329745E+02 -0.12083462386E+02 -0.11132257741E+03  0.12759768232E+03  0.10000000000E+01 0.  0.
    9000005    1    3    3    0    0  0.61167329745E+02  0.12083462386E+02 -0.95062390133E+02  0.11368953474E+03  0.10000000000E+01 0.  0.
<mgrwt>
<rscale>  0 0.12499907E+03</rscale>
<asrwt>0</asrwt>
<pdfrwt beam="2">  1        4 0.55959014E-01 0.12499907E+03</pdfrwt>
<pdfrwt beam="1">  1       -4 0.43627819E-02 0.12499907E+03</pdfrwt>
<totfact> 0.14792527E+03</totfact>
</mgrwt>
</event>
<event>
 5    1  0.1430314E-002  0.1250000E+03  0.7818608E-02  0.1235069E+00
         -4   -1    0    0    0  501 -0.00000000000E+00  0.00000000000E+00  0.26556895053E+02  0.26587244590E+02  0.12700000000E+01 0.  1.
          4   -1    0    0  501    0  0.00000000000E+00 -0.00000000000E+00 -0.14697285470E+03  0.14697834167E+03  0.12700000000E+01 0.  1.
         25    2    1    2    0    0  0.00000000000E+00  0.00000000000E+00 -0.12041595965E+03  0.17356558626E+03  0.12500003758E+03 0.  0.
    9000005    1    3    3    0    0 -0.41215946507E+02 -0.10990159844E+02 -0.12362136024E+03  0.13077759199E+03  0.10000000000E+01 0.  0.
    9000005    1    3    3    0    0  0.41215946507E+02  0.10990159844E+02  0.32054005944E+01  0.42787994261E+02  0.10000000000E+01 0.  0.
<mgrwt>
<rscale>  0 0.12500004E+03</rscale>
<asrwt>0</asrwt>
<pdfrwt beam="2">  1        4 0.36747691E-01 0.12500004E+03</pdfrwt>
<pdfrwt beam="1">  1       -4 0.66437037E-02 0.12500004E+03</pdfrwt>
<totfact> 0.17437398E+03</totfact>
</mgrwt>
</event>
<event>
 5    1  0.1430314E-002  0.1249988E+03  0.7818608E-02  0.1235071E+00
          4   -1    0    0  501    0  0.00000000000E+00  0.00000000000E+00  0.12977140068E+02  0.13039135875E+02  0.12700000000E+01 0. -1.
         -4   -1    0    0    0  501 -0.00000000000E+00 -0.00000000000E+00 -0.30022348368E+03  0.30022616983E+03  0.12700000000E+01 0. -1.
         25    2    1    2    0    0  0.00000000000E+00  0.00000000000E+00 -0.28724634361E+03  0.31326530570E+03  0.12499875936E+03 0.  0.
    9000005    1    3    3    0    0  0.42545370103E+02  0.43826293747E+02 -0.17671190231E+03  0.18697312363E+03  0.10000000000E+01 0.  0.
    9000005    1    3    3    0    0 -0.42545370103E+02 -0.43826293747E+02 -0.11053444129E+03  0.12629218207E+03  0.10000000000E+01 0.  0.
<mgrwt>
<rscale>  0 0.12499876E+03</rscale>
<asrwt>0</asrwt>
<pdfrwt beam="1">  1        4 0.32523712E-02 0.12499876E+03</pdfrwt>
<pdfrwt beam="2">  1       -4 0.75063933E-01 0.12499876E+03</pdfrwt>
<totfact> 0.12607610E+03</totfact>
</mgrwt>
</event>
<event>
 5    1  0.1430314E-002  0.1249989E+03  0.7818608E-02  0.1235071E+00
          4   -1    0    0  501    0  0.00000000000E+00  0.00000000000E+00  0.63214375530E+02  0.63227131626E+02  0.12700000000E+01 0. -1.
         -4   -1    0    0    0  501 -0.00000000000E+00 -0.00000000000E+00 -0.61767101835E+02  0.61780156758E+02  0.12700000000E+01 0. -1.
         25    2    1    2    0    0  0.00000000000E+00  0.00000000000E+00  0.14472736947E+01  0.12500728838E+03  0.12499891019E+03 0.  0.
    9000005    1    3    3    0    0  0.56703412628E+02 -0.24796271447E+02 -0.79400729010E+01  0.62403339967E+02  0.10000000000E+01 0.  0.
    9000005    1    3    3    0    0 -0.56703412628E+02  0.24796271447E+02  0.93873465956E+01  0.62603948417E+02  0.10000000000E+01 0.  0.
<mgrwt>
<rscale>  0 0.12499891E+03</rscale>
<asrwt>0</asrwt>
<pdfrwt beam="1">  1        4 0.15806820E-01 0.12499891E+03</pdfrwt>
<pdfrwt beam="2">  1       -4 0.15445002E-01 0.12499891E+03</pdfrwt>
<totfact> 0.19835166E+03</totfact>
</mgrwt>
</event>
<event>
 5    1  0.1430314E-002  0.1249999E+03  0.7818608E-02  0.1235069E+00
          4   -1    0    0  501    0  0.00000000000E+00  0.00000000000E+00  0.13916321645E+03  0.13916901132E+03  0.12700000000E+01 0.  1.
         -4   -1    0    0    0  501 -0.00000000000E+00 -0.00000000000E+00 -0.28048756205E+02  0.28077493204E+02  0.12700000000E+01 0.  1.
         25    2    1    2    0    0  0.00000000000E+00  0.00000000000E+00  0.11111446024E+03  0.16724650452E+03  0.12499988000E+03 0.  0.
    9000005    1    3    3    0    0 -0.34987015055E+01  0.39075524508E+02  0.12063976469E+03  0.12686248599E+03  0.10000000000E+01 0.  0.
    9000005    1    3    3    0    0  0.34987015055E+01 -0.39075524508E+02 -0.95253044491E+01  0.40384018530E+02  0.10000000000E+01 0.  0.
<mgrwt>
<rscale>  0 0.12499988E+03</rscale>
<asrwt>0</asrwt>
<pdfrwt beam="1">  1        4 0.34795120E-01 0.12499988E+03</pdfrwt>
<pdfrwt beam="2">  1       -4 0.70165056E-02 0.12499988E+03</pdfrwt>
<totfact> 0.17722011E+03</totfact>
</mgrwt>
</event>
<event>
 5    1  0.1430314E-002  0.1250014E+03  0.7818608E-02  0.1235067E+00
          4   -1    0    0  501    0  0.00000000000E+00  0.00000000000E+00  0.19477677404E+03  0.19478091438E+03  0.12700000000E+01 0.  1.
         -4   -1    0    0    0  501 -0.00000000000E+00 -0.00000000000E+00 -0.20030991817E+02  0.20071211552E+02  0.12700000000E+01 0.  1.
         25    2    1    2    0    0  0.00000000000E+00  0.00000000000E+00  0.17474578222E+03  0.21485212593E+03  0.12500139044E+03 0.  0.
    9000005    1    3    3    0    0 -0.59213995041E+02  0.19938091082E+02  0.89486536125E+02  0.10914515487E+03  0.10000000000E+01 0.  0.
    9000005    1    3    3    0    0  0.59213995041E+02 -0.19938091082E+02  0.85259246099E+02  0.10570697106E+03  0.10000000000E+01 0.  0.
<mgrwt>
<rscale>  0 0.12500139E+03</rscale>
<asrwt>0</asrwt>
<pdfrwt beam="1">  1        4 0.48699739E-01 0.12500139E+03</pdfrwt>
<pdfrwt beam="2">  1       -4 0.50132929E-02 0.12500139E+03</pdfrwt>
<totfact> 0.15743615E+03</totfact>
</mgrwt>
</event>
<event>
 5    1  0.1430314E-002  0.1250002E+03  0.7818608E-02  0.1235069E+00
         -4   -1    0    0    0  501 -0.00000000000E+00  0.00000000000E+00  0.28337431928E+03  0.28337716514E+03  0.12700000000E+01 0.  1.
          4   -1    0    0  501    0  0.00000000000E+00 -0.00000000000E+00 -0.13752631850E+02  0.13811147049E+02  0.12700000000E+01 0.  1.
         25    2    1    2    0    0  0.00000000000E+00  0.00000000000E+00  0.26962168743E+03  0.29718831219E+03  0.12500015429E+03 0.  0.
    9000005    1    3    3    0    0  0.48366367615E+02 -0.33563293190E+02  0.84970549904E+02  0.10337695351E+03  0.10000000000E+01 0.  0.
    9000005    1    3    3    0    0 -0.48366367615E+02  0.33563293190E+02  0.18465113752E+03  0.19381135868E+03  0.10000000000E+01 0.  0.
<mgrwt>
<rscale>  0 0.12500015E+03</rscale>
<asrwt>0</asrwt>
<pdfrwt beam="2">  1        4 0.34458281E-02 0.12500015E+03</pdfrwt>
<pdfrwt beam="1">  1       -4 0.70851249E-01 0.12500015E+03</pdfrwt>
<totfact> 0.13050180E+03</totfact>
</mgrwt>
</event>
<event>
 5    1  0.1430314E-002  0.1249943E+03  0.7818608E-02  0.1235078E+00
         -4   -1    0    0    0  501 -0.00000000000E+00  0.00000000000E+00  0.10513474456E+02  0.10589902981E+02  0.12700000000E+01 0. -1.
          4   -1    0    0  501    0  0.00000000000E+00 -0.00000000000E+00 -0.37009032040E+03  0.37009249946E+03  0.12700000000E+01 0. -1.
         25    2    1    2    0    0  0.00000000000E+00  0.00000000000E+00 -0.35957684595E+03  0.38068240244E+03  0.12499433342E+03 0.  0.
    9000005    1    3    3    0    0  0.10532003888E+02  0.61353095646E+02 -0.16317095774E+03  0.17464503114E+03  0.10000000000E+01 0.  0.
    9000005    1    3    3    0    0 -0.10532003888E+02 -0.61353095646E+02 -0.19640588821E+03  0.20603737131E+03  0.10000000000E+01 0.  0.
<mgrwt>
<rscale>  0 0.12499433E+03</rscale>
<asrwt>0</asrwt>
<pdfrwt beam="2">  1        4 0.92532363E-01 0.12499433E+03</pdfrwt>
<pdfrwt beam="1">  1       -4 0.26381958E-02 0.12499433E+03</pdfrwt>
<totfact> 0.10979660E+03</totfact>
</mgrwt>
</event>
<event>
 5    1  0.1430314E-002  0.1250024E+03  0.7818608E-02  0.1235066E+00
          4   -1    0    0  501    0  0.00000000000E+00  0.00000000000E+00  0.18059591806E+02  0.18104191675E+02  0.12700000000E+01 0.  1.
         -4   -1    0    0    0  501 -0.00000000000E+00 -0.00000000000E+00 -0.21599285590E+03  0.21599658956E+03  0.12700000000E+01 0.  1.
         25    2    1    2    0    0  0.00000000000E+00  0.00000000000E+00 -0.19793326410E+03  0.23410078123E+03  0.12500239493E+03 0.  0.
    9000005    1    3    3    0    0 -0.13000204380E+02 -0.60300784826E+02 -0.80219300770E+02  0.10119943765E+03  0.10000000000E+01 0.  0.
    9000005    1    3    3    0    0  0.13000204380E+02  0.60300784826E+02 -0.11771396333E+03  0.13290134359E+03  0.10000000000E+01 0.  0.
<mgrwt>
<rscale>  0 0.12500239E+03</rscale>
<asrwt>0</asrwt>
<pdfrwt beam="1">  1        4 0.45209403E-02 0.12500239E+03</pdfrwt>
<pdfrwt beam="2">  1       -4 0.54004247E-01 0.12500239E+03</pdfrwt>
<totfact> 0.15041051E+03</totfact>
</mgrwt>
</event>
<event>
 5    1  0.1430314E-002  0.1249981E+03  0.7818608E-02  0.1235072E+00
         -4   -1    0    0    0  501 -0.00000000000E+00  0.00000000000E+00  0.60466933762E+02  0.60480269333E+02  0.12700000000E+01 0. -1.
          4   -1    0    0  501    0  0.00000000000E+00 -0.00000000000E+00 -0.64572801765E+02  0.64585289561E+02  0.12700000000E+01 0. -1.
         25    2    1    2    0    0  0.00000000000E+00  0.00000000000E+00 -0.41058680025E+01  0.12506555889E+03  0.12499814346E+03 0.  0.
    9000005    1    3    3    0    0 -0.46232478844E+02  0.41508488142E+02 -0.87451346036E+01  0.62752482558E+02  0.10000000000E+01 0.  0.
    9000005    1    3    3    0    0  0.46232478844E+02 -0.41508488142E+02  0.46392666011E+01  0.62313076337E+02  0.10000000000E+01 0.  0.
<mgrwt>
<rscale>  0 0.12499814E+03</rscale>
<asrwt>0</asrwt>
<pdfrwt beam="2">  1        4 0.16146428E-01 0.12499814E+03</pdfrwt>
<pdfrwt beam="1">  1       -4 0.15119961E-01 0.12499814E+03</pdfrwt>
<totfact> 0.19832362E+03</totfact>
</mgrwt>
</event>
<event>
 5    1  0.1430314E-002  0.1249957E+03  0.7818608E-02  0.1235076E+00
         -4   -1    0    0    0  501 -0.00000000000E+00  0.00000000000E+00  0.69275504928E+02  0.69287145150E+02  0.12700000000E+01 0.  1.
          4   -1    0    0  501    0  0.00000000000E+00 -0.00000000000E+00 -0.56359770679E+02  0.56374077828E+02  0.12700000000E+01 0.  1.
         25    2    1    2    0    0  0.00000000000E+00  0.00000000000E+00  0.12915734249E+02  0.12566122298E+03  0.12499570700E+03 0.  0.
    9000005    1    3    3    0    0  0.32368487397E+02  0.49791596878E+02  0.26005146400E+02  0.64839723436E+02  0.10000000000E+01 0.  0.
    9000005    1    3    3    0    0 -0.32368487397E+02 -0.49791596878E+02 -0.13089412150E+02  0.60821499542E+02  0.10000000000E+01 0.  0.
<mgrwt>
<rscale>  0 0.12499571E+03</rscale>
<asrwt>0</asrwt>
<pdfrwt beam="2">  1        4 0.14093186E-01 0.12499571E+03</pdfrwt>
<pdfrwt beam="1">  1       -4 0.17322120E-01 0.12499571E+03</pdfrwt>
<totfact> 0.19801227E+03</totfact>
</mgrwt>
</event>
<event>
 5    1  0.1430314E-002  0.1250081E+03  0.7818608E-02  0.1235057E+00
          4   -1    0    0  501    0  0.00000000000E+00  0.00000000000E+00  0.53079560473E+02  0.53094751530E+02  0.12700000000E+01 0.  1.
         -4   -1    0    0    0  501 -0.00000000000E+00 -0.00000000000E+00 -0.73570741286E+02  0.73581702028E+02  0.12700000000E+01 0.  1.
         25    2    1    2    0    0  0.00000000000E+00  0.00000000000E+00 -0.20491180813E+02  0.12667645356E+03  0.12500814131E+03 0.  0.
    9000005    1    3    3    0    0 -0.36987921353E+02  0.37454234272E+02  0.23891267887E+02  0.57816249205E+02  0.10000000000E+01 0.  0.
    9000005    1    3    3    0    0  0.36987921353E+02 -0.37454234272E+02 -0.44382448701E+02  0.68860204353E+02  0.10000000000E+01 0.  0.
<mgrwt>
<rscale>  0 0.12500814E+03</rscale>
<asrwt>0</asrwt>
<pdfrwt beam="1">  1        4 0.13273159E-01 0.12500814E+03</pdfrwt>
<pdfrwt beam="2">  1       -4 0.18395954E-01 0.12500814E+03</pdfrwt>
<totfact> 0.19740650E+03</totfact>
</mgrwt>
</event>
<event>
 5    1  0.1430314E-002  0.1249998E+03  0.7818608E-02  0.1235070E+00
          4   -1    0    0  501    0  0.00000000000E+00  0.00000000000E+00  0.32196956576E+03  0.32197207049E+03  0.12700000000E+01 0. -1.
         -4   -1    0    0    0  501 -0.00000000000E+00 -0.00000000000E+00 -0.12096517020E+02  0.12163002262E+02  0.12700000000E+01 0. -1.
         25    2    1    2    0    0  0.00000000000E+00  0.00000000000E+00  0.30987304874E+03  0.33413507276E+03  0.12499976203E+03 0.  0.
    9000005    1    3    3    0    0 -0.28947165183E+01 -0.53383634690E+02  0.24143235965E+03  0.24728278574E+03  0.10000000000E+01 0.  0.
    9000005    1    3    3    0    0  0.28947165183E+01  0.53383634690E+02  0.68440689090E+02  0.86852287014E+02  0.10000000000E+01 0.  0.
<mgrwt>
<rscale>  0 0.12499976E+03</rscale>
<asrwt>0</asrwt>
<pdfrwt beam="1">  1        4 0.80501015E-01 0.12499976E+03</pdfrwt>
<pdfrwt beam="2">  1       -4 0.30327530E-02 0.12499976E+03</pdfrwt>
<totfact> 0.12065618E+03</totfact>
</mgrwt>
</event>
<event>
 5    1  0.1430314E-002  0.1250017E+03  0.7818608E-02  0.1235067E+00
         -4   -1    0    0    0  501 -0.00000000000E+00  0.00000000000E+00  0.18935608247E+03  0.18936034133E+03  0.12700000000E+01 0. -1.
          4   -1    0    0  501    0  0.00000000000E+00 -0.00000000000E+00 -0.20605655799E+02  0.20644756015E+02  0.12700000000E+01 0. -1.
         25    2    1    2    0    0  0.00000000000E+00  0.00000000000E+00  0.16875042667E+03  0.21000509735E+03  0.12500173762E+03 0.  0.
    9000005    1    3    3    0    0 -0.26943404944E+02 -0.49051438488E+02  0.13109564656E+03  0.14254493760E+03  0.10000000000E+01 0.  0.
    9000005    1    3    3    0    0  0.26943404944E+02  0.49051438488E+02  0.37654780108E+02  0.67460159745E+02  0.10000000000E+01 0.  0.
<mgrwt>
<rscale>  0 0.12500174E+03</rscale>
<asrwt>0</asrwt>
<pdfrwt beam="2">  1        4 0.51568338E-02 0.12500174E+03</pdfrwt>
<pdfrwt beam="1">  1       -4 0.47344441E-01 0.12500174E+03</pdfrwt>
<totfact> 0.15928470E+03</totfact>
</mgrwt>
</event>
<event>
 5    1  0.1430314E-002  0.1250011E+03  0.7818608E-02  0.1235068E+00
         -4   -1    0    0    0  501 -0.00000000000E+00  0.00000000000E+00  0.17716425936E+02  0.17761887511E+02  0.12700000000E+01 0.  1.
          4   -1    0    0  501    0  0.00000000000E+00 -0.00000000000E+00 -0.22016141713E+03  0.22016508009E+03  0.12700000000E+01 0.  1.
         25    2    1    2    0    0  0.00000000000E+00  0.00000000000E+00 -0.20244499119E+03  0.23792696760E+03  0.12500106981E+03 0.  0.
    9000005    1    3    3    0    0 -0.14782558549E+02  0.55551104107E+01 -0.21631024248E+03  0.21688822995E+03  0.10000000000E+01 0.  0.
    9000005    1    3    3    0    0  0.14782558549E+02 -0.55551104107E+01  0.13865251285E+02  0.21038737656E+02  0.10000000000E+01 0.  0.
<mgrwt>
<rscale>  0 0.12500107E+03</rscale>
<asrwt>0</asrwt>
<pdfrwt beam="2">  1        4 0.55046486E-01 0.12500107E+03</pdfrwt>
<pdfrwt beam="1">  1       -4 0.44352477E-02 0.12500107E+03</pdfrwt>
<totfact> 0.14907773E+03</totfact>
</mgrwt>
</event>
<event>
 5    1  0.1430314E-002  0.1249968E+03  0.7818608E-02  0.1235074E+00
          4   -1    0    0  501    0  0.00000000000E+00  0.00000000000E+00  0.13050742238E+03  0.13051360157E+03  0.12700000000E+01 0.  1.
         -4   -1    0    0    0  501 -0.00000000000E+00 -0.00000000000E+00 -0.29909344480E+02  0.29936295483E+02  0.12700000000E+01 0.  1.
         25    2    1    2    0    0  0.00000000000E+00  0.00000000000E+00  0.10059807790E+03  0.16044989705E+03  0.12499678471E+03 0.  0.
    9000005    1    3    3    0    0 -0.25401560243E+02 -0.26918794726E+02 -0.14332680473E+02  0.39702474757E+02  0.10000000000E+01 0.  0.
    9000005    1    3    3    0    0  0.25401560243E+02  0.26918794726E+02  0.11493075837E+03  0.12074742230E+03  0.10000000000E+01 0.  0.
<mgrwt>
<rscale>  0 0.12499678E+03</rscale>
<asrwt>0</asrwt>
<pdfrwt beam="1">  1        4 0.32630996E-01 0.12499678E+03</pdfrwt>
<pdfrwt beam="2">  1       -4 0.74814775E-02 0.12499678E+03</pdfrwt>
<totfact> 0.18037950E+03</totfact>
</mgrwt>
</event>
<event>
 5    1  0.1430314E-002  0.1249991E+03  0.7818608E-02  0.1235071E+00
         -4   -1    0    0    0  501 -0.00000000000E+00  0.00000000000E+00  0.10323268553E+03  0.10324049720E+03  0.12700000000E+01 0.  1.
          4   -1    0    0  501    0  0.00000000000E+00 -0.00000000000E+00 -0.37818855583E+02  0.37840173593E+02  0.12700000000E+01 0.  1.
         25    2    1    2    0    0  0.00000000000E+00  0.00000000000E+00  0.65413829947E+02  0.14108067079E+03  0.12499914609E+03 0.  0.
    9000005    1    3    3    0    0 -0.14335445679E+02  0.35261911924E+02  0.88644049952E+02  0.96476292566E+02  0.10000000000E+01 0.  0.
    9000005    1    3    3    0    0  0.14335445679E+02 -0.35261911924E+02 -0.23230220005E+02  0.44604378225E+02  0.10000000000E+01 0.  0.
<mgrwt>
<rscale>  0 0.12499915E+03</rscale>
<asrwt>0</asrwt>
<pdfrwt beam="2">  1        4 0.94583552E-02 0.12499915E+03</pdfrwt>
<pdfrwt beam="1">  1       -4 0.25811812E-01 0.12499915E+03</pdfrwt>
<totfact> 0.18985571E+03</totfact>
</mgrwt>
</event>
<event>
 5    1  0.1430314E-002  0.1250034E+03  0.7818608E-02  0.1235064E+00
          4   -1    0    0  501    0  0.00000000000E+00  0.00000000000E+00  0.23432466164E+02  0.23466856852E+02  0.12700000000E+01 0.  1.
         -4   -1    0    0    0  501 -0.00000000000E+00 -0.00000000000E+00 -0.16655261120E+03  0.16655745314E+03  0.12700000000E+01 0.  1.
         25    2    1    2    0    0  0.00000000000E+00  0.00000000000E+00 -0.14312014504E+03  0.19002431000E+03  0.12500344985E+03 0.  0.
    9000005    1    3    3    0    0 -0.27608278295E+02 -0.67512279107E+01 -0.15616676273E+03  0.15873516904E+03  0.10000000000E+01 0.  0.
    9000005    1    3    3    0    0  0.27608278295E+02  0.67512279107E+01  0.13046617691E+02  0.31289140958E+02  0.10000000000E+01 0.  0.
<mgrwt>
<rscale>  0 0.12500345E+03</rscale>
<asrwt>0</asrwt>
<pdfrwt beam="1">  1        4 0.58630211E-02 0.12500345E+03</pdfrwt>
<pdfrwt beam="2">  1       -4 0.41643053E-01 0.12500345E+03</pdfrwt>
<totfact> 0.16728098E+03</totfact>
</mgrwt>
</event>
<event>
 5    1  0.1430314E-002  0.1250007E+03  0.7818608E-02  0.1235068E+00
          4   -1    0    0  501    0  0.00000000000E+00  0.00000000000E+00  0.81173838319E+02  0.81183772563E+02  0.12700000000E+01 0. -1.
         -4   -1    0    0    0  501 -0.00000000000E+00 -0.00000000000E+00 -0.48101279924E+02  0.48118042669E+02  0.12700000000E+01 0. -1.
         25    2    1    2    0    0  0.00000000000E+00  0.00000000000E+00  0.33072558396E+02  0.12930181523E+03  0.12500066121E+03 0.  0.
    9000005    1    3    3    0    0 -0.60139473852E+02  0.13926894599E+02  0.64765984031E+01  0.62077862683E+02  0.10000000000E+01 0.  0.
    9000005    1    3    3    0    0  0.60139473852E+02 -0.13926894599E+02  0.26595959993E+02  0.67223952549E+02  0.10000000000E+01 0.  0.
<mgrwt>
<rscale>  0 0.12500066E+03</rscale>
<asrwt>0</asrwt>
<pdfrwt beam="1">  1        4 0.20296797E-01 0.12500066E+03</pdfrwt>
<pdfrwt beam="2">  1       -4 0.12028657E-01 0.12500066E+03</pdfrwt>
<totfact> 0.19601688E+03</totfact>
</mgrwt>
</event>
<event>
 5    1  0.1430314E-002  0.1250003E+03  0.7818608E-02  0.1235069E+00
          4   -1    0    0  501    0  0.00000000000E+00  0.00000000000E+00  0.11927972940E+03  0.11928649021E+03  0.12700000000E+01 0.  1.
         -4   -1    0    0    0  501 -0.00000000000E+00 -0.00000000000E+00 -0.32728797273E+02  0.32753428384E+02  0.12700000000E+01 0.  1.
         25    2    1    2    0    0  0.00000000000E+00  0.00000000000E+00  0.86550932127E+02  0.15203991859E+03  0.12500029197E+03 0.  0.
    9000005    1    3    3    0    0  0.28507818587E+00  0.43502427919E+02  0.97843574773E+02  0.10708364781E+03  0.10000000000E+01 0.  0.
    9000005    1    3    3    0    0 -0.28507818587E+00 -0.43502427919E+02 -0.11292642645E+02  0.44956270779E+02  0.10000000000E+01 0.  0.
<mgrwt>
<rscale>  0 0.12500029E+03</rscale>
<asrwt>0</asrwt>
<pdfrwt beam="1">  1        4 0.29823856E-01 0.12500029E+03</pdfrwt>
<pdfrwt beam="2">  1       -4 0.81861234E-02 0.12500029E+03</pdfrwt>
<totfact> 0.18438806E+03</totfact>
</mgrwt>
</event>
<event>
 5    1  0.1430314E-002  0.1249995E+03  0.7818608E-02  0.1235070E+00
         -4   -1    0    0    0  501 -0.00000000000E+00  0.00000000000E+00  0.73067812298E+02  0.73078848472E+02  0.12700000000E+01 0. -1.
          4   -1    0    0  501    0  0.00000000000E+00 -0.00000000000E+00 -0.53437552681E+02  0.53452641997E+02  0.12700000000E+01 0. -1.
         25    2    1    2    0    0  0.00000000000E+00  0.00000000000E+00  0.19630259617E+02  0.12653149047E+03  0.12499948395E+03 0.  0.
    9000005    1    3    3    0    0 -0.82621631921E+01  0.32094817198E+02 -0.43814167136E+02  0.54945626518E+02  0.10000000000E+01 0.  0.
    9000005    1    3    3    0    0  0.82621631921E+01 -0.32094817198E+02  0.63444426753E+02  0.71585863951E+02  0.10000000000E+01 0.  0.
<mgrwt>
<rscale>  0 0.12499948E+03</rscale>
<asrwt>0</asrwt>
<pdfrwt beam="2">  1        4 0.13362654E-01 0.12499948E+03</pdfrwt>
<pdfrwt beam="1">  1       -4 0.18270219E-01 0.12499948E+03</pdfrwt>
<totfact> 0.19752465E+03</totfact>
</mgrwt>
</event>
<event>
 5    1  0.1430314E-002  0.1250000E+03  0.7818608E-02  0.1235069E+00
         -4   -1    0    0    0  501 -0.00000000000E+00  0.00000000000E+00  0.97878030573E+03  0.97878112966E+03  0.12700000000E+01 0. -1.
          4   -1    0    0  501    0  0.00000000000E+00 -0.00000000000E+00 -0.38890565232E+01  0.40911686155E+01  0.12700000000E+01 0. -1.
         25    2    1    2    0    0  0.00000000000E+00  0.00000000000E+00  0.97489124921E+03  0.98287229828E+03  0.12500002778E+03 0.  0.
    9000005    1    3    3    0    0 -0.49165087248E+02  0.78339268732E+01  0.19045031523E+03  0.19685247975E+03  0.10000000000E+01 0.  0.
    9000005    1    3    3    0    0  0.49165087248E+02 -0.78339268732E+01  0.78444093398E+03  0.78601981853E+03  0.10000000000E+01 0.  0.
<mgrwt>
<rscale>  0 0.12500003E+03</rscale>
<asrwt>0</asrwt>
<pdfrwt beam="2">  1        4 0.99763132E-03 0.12500003E+03</pdfrwt>
<pdfrwt beam="1">  1       -4 0.24472040E+00 0.12500003E+03</pdfrwt>
<totfact> 0.38273153E+02</totfact>
</mgrwt>
</event>
<event>
 5    1  0.1430314E-002  0.1250009E+03  0.7818608E-02  0.1235068E+00
         -4   -1    0    0    0  501 -0.00000000000E+00  0.00000000000E+00  0.66817591786E+02  0.66829660122E+02  0.12700000000E+01 0.  1.
          4   -1    0    0  501    0  0.00000000000E+00 -0.00000000000E+00 -0.58437967430E+02  0.58451765904E+02  0.12700000000E+01 0.  1.
         25    2    1    2    0    0  0.00000000000E+00  0.00000000000E+00  0.83796243560E+01  0.12528142603E+03  0.12500087041E+03 0.  0.
    9000005    1    3    3    0    0  0.59598332057E+02  0.17642232317E+02  0.10692428997E+02  0.63075649683E+02  0.10000000000E+01 0.  0.
    9000005    1    3    3    0    0 -0.59598332057E+02 -0.17642232317E+02 -0.23128046405E+01  0.62205776343E+02  0.10000000000E+01 0.  0.
<mgrwt>
<rscale>  0 0.12500087E+03</rscale>
<asrwt>0</asrwt>
<pdfrwt beam="2">  1        4 0.14612725E-01 0.12500087E+03</pdfrwt>
<pdfrwt beam="1">  1       -4 0.16707631E-01 0.12500087E+03</pdfrwt>
<totfact> 0.19819397E+03</totfact>
</mgrwt>
</event>
<event>
 5    1  0.1430314E-002  0.1249992E+03  0.7818608E-02  0.1235071E+00
         -4   -1    0    0    0  501 -0.00000000000E+00  0.00000000000E+00  0.60265147820E+02  0.60278528032E+02  0.12700000000E+01 0.  1.
          4   -1    0    0  501    0  0.00000000000E+00 -0.00000000000E+00 -0.64790060033E+02  0.64802505963E+02  0.12700000000E+01 0.  1.
         25    2    1    2    0    0  0.00000000000E+00  0.00000000000E+00 -0.45249122138E+01  0.12508103400E+03  0.12499916094E+03 0.  0.
    9000005    1    3    3    0    0 -0.55066294465E+02  0.15350154606E+02 -0.27523267925E+02  0.63454348234E+02  0.10000000000E+01 0.  0.
    9000005    1    3    3    0    0  0.55066294465E+02 -0.15350154606E+02  0.22998355711E+02  0.61626685762E+02  0.10000000000E+01 0.  0.
<mgrwt>
<rscale>  0 0.12499916E+03</rscale>
<asrwt>0</asrwt>
<pdfrwt beam="2">  1        4 0.16200743E-01 0.12499916E+03</pdfrwt>
<pdfrwt beam="1">  1       -4 0.15069515E-01 0.12499916E+03</pdfrwt>
<totfact> 0.19831051E+03</totfact>
</mgrwt>
</event>
<event>
 5    1  0.1430314E-002  0.1249989E+03  0.7818608E-02  0.1235071E+00
          4   -1    0    0  501    0  0.00000000000E+00  0.00000000000E+00  0.75006361444E+01  0.76073939408E+01  0.12700000000E+01 0.  1.
         -4   -1    0    0    0  501 -0.00000000000E+00 -0.00000000000E+00 -0.51699236622E+03  0.51699392611E+03  0.12700000000E+01 0.  1.
         25    2    1    2    0    0  0.00000000000E+00  0.00000000000E+00 -0.50949173008E+03  0.52460132005E+03  0.12499888791E+03 0.  0.
    9000005    1    3    3    0    0  0.61318817195E+02  0.82593439390E+01 -0.29156501764E+03  0.29805934580E+03  0.10000000000E+01 0.  0.
    9000005    1    3    3    0    0 -0.61318817195E+02 -0.82593439390E+01 -0.21792671244E+03  0.22654197425E+03  0.10000000000E+01 0.  0.
<mgrwt>
<rscale>  0 0.12499889E+03</rscale>
<asrwt>0</asrwt>
<pdfrwt beam="1">  1        4 0.18887005E-02 0.12499889E+03</pdfrwt>
<pdfrwt beam="2">  1       -4 0.12926151E+00 0.12499889E+03</pdfrwt>
<totfact> 0.83824497E+02</totfact>
</mgrwt>
</event>
<event>
 5    1  0.1430314E-002  0.1250176E+03  0.7818608E-02  0.1235042E+00
          4   -1    0    0  501    0  0.00000000000E+00  0.00000000000E+00  0.20406223452E+02  0.20445705065E+02  0.12700000000E+01 0.  1.
         -4   -1    0    0    0  501 -0.00000000000E+00 -0.00000000000E+00 -0.19125168851E+03  0.19125590516E+03  0.12700000000E+01 0.  1.
         25    2    1    2    0    0  0.00000000000E+00  0.00000000000E+00 -0.17084546506E+03  0.21170161023E+03  0.12501759412E+03 0.  0.
    9000005    1    3    3    0    0 -0.38120284650E+02 -0.13993992438E+02 -0.49676270496E+01  0.40922673968E+02  0.10000000000E+01 0.  0.
    9000005    1    3    3    0    0  0.38120284650E+02  0.13993992438E+02 -0.16587783801E+03  0.17077893626E+03  0.10000000000E+01 0.  0.
<mgrwt>
<rscale>  0 0.12501759E+03</rscale>
<asrwt>0</asrwt>
<pdfrwt beam="1">  1        4 0.51070187E-02 0.12501759E+03</pdfrwt>
<pdfrwt beam="2">  1       -4 0.47818379E-01 0.12501759E+03</pdfrwt>
<totfact> 0.15857528E+03</totfact>
</mgrwt>
</event>
<event>
 5    1  0.1430314E-002  0.1249985E+03  0.7818608E-02  0.1235072E+00
         -4   -1    0    0    0  501 -0.00000000000E+00  0.00000000000E+00  0.51002765158E+02  0.51018574596E+02  0.12700000000E+01 0. -1.
          4   -1    0    0  501    0  0.00000000000E+00 -0.00000000000E+00 -0.76554228043E+02  0.76564761681E+02  0.12700000000E+01 0. -1.
         25    2    1    2    0    0  0.00000000000E+00  0.00000000000E+00 -0.25551462884E+02  0.12758333628E+03  0.12499852175E+03 0.  0.
    9000005    1    3    3    0    0 -0.11180311966E+02  0.98196314992E+01 -0.74724567966E+02  0.76198330665E+02  0.10000000000E+01 0.  0.
    9000005    1    3    3    0    0  0.11180311966E+02 -0.98196314992E+01  0.49173105081E+02  0.51385005612E+02  0.10000000000E+01 0.  0.
<mgrwt>
<rscale>  0 0.12499852E+03</rscale>
<asrwt>0</asrwt>
<pdfrwt beam="2">  1        4 0.19141850E-01 0.12499852E+03</pdfrwt>
<pdfrwt beam="1">  1       -4 0.12753984E-01 0.12499852E+03</pdfrwt>
<totfact> 0.19695916E+03</totfact>
</mgrwt>
</event>
<event>
 5    1  0.1430314E-002  0.1249993E+03  0.7818608E-02  0.1235070E+00
         -4   -1    0    0    0  501 -0.00000000000E+00  0.00000000000E+00  0.12018691998E+03  0.12019362976E+03  0.12700000000E+01 0.  1.
          4   -1    0    0  501    0  0.00000000000E+00 -0.00000000000E+00 -0.32481063339E+02  0.32505882170E+02  0.12700000000E+01 0.  1.
         25    2    1    2    0    0  0.00000000000E+00  0.00000000000E+00  0.87705856639E+02  0.15269951193E+03  0.12499929461E+03 0.  0.
    9000005    1    3    3    0    0 -0.13294414592E+02  0.49404788314E+02  0.17439186987E-01  0.51172012583E+02  0.10000000000E+01 0.  0.
    9000005    1    3    3    0    0  0.13294414592E+02 -0.49404788314E+02  0.87688417452E+02  0.10152749934E+03  0.10000000000E+01 0.  0.
<mgrwt>
<rscale>  0 0.12499929E+03</rscale>
<asrwt>0</asrwt>
<pdfrwt beam="2">  1        4 0.81242070E-02 0.12499929E+03</pdfrwt>
<pdfrwt beam="1">  1       -4 0.30050671E-01 0.12499929E+03</pdfrwt>
<totfact> 0.18407140E+03</totfact>
</mgrwt>
</event>
<event>
 5    1  0.1430314E-002  0.1249991E+03  0.7818608E-02  0.1235071E+00
          4   -1    0    0  501    0  0.00000000000E+00  0.00000000000E+00  0.98914750351E+01  0.99726715764E+01  0.12700000000E+01 0.  1.
         -4   -1    0    0    0  501 -0.00000000000E+00 -0.00000000000E+00 -0.39320853641E+03  0.39321058735E+03  0.12700000000E+01 0.  1.
         25    2    1    2    0    0  0.00000000000E+00  0.00000000000E+00 -0.38331706137E+03  0.40318325893E+03  0.12499908295E+03 0.  0.
    9000005    1    3    3    0    0  0.36417619297E+02  0.31347278093E+02 -0.62788293499E+02  0.79071263045E+02  0.10000000000E+01 0.  0.
    9000005    1    3    3    0    0 -0.36417619297E+02 -0.31347278093E+02 -0.32052876787E+03  0.32411199588E+03  0.10000000000E+01 0.  0.
<mgrwt>
<rscale>  0 0.12499908E+03</rscale>
<asrwt>0</asrwt>
<pdfrwt beam="1">  1        4 0.24832760E-02 0.12499908E+03</pdfrwt>
<pdfrwt beam="2">  1       -4 0.98312488E-01 0.12499908E+03</pdfrwt>
<totfact> 0.10504146E+03</totfact>
</mgrwt>
</event>
<event>
 5    1  0.1430314E-002  0.1249975E+03  0.7818608E-02  0.1235073E+00
          4   -1    0    0  501    0  0.00000000000E+00  0.00000000000E+00  0.12100041737E+03  0.12100708204E+03  0.12700000000E+01 0. -1.
         -4   -1    0    0    0  501 -0.00000000000E+00 -0.00000000000E+00 -0.32261627283E+02  0.32286614795E+02  0.12700000000E+01 0. -1.
         25    2    1    2    0    0  0.00000000000E+00  0.00000000000E+00  0.88738790085E+02  0.15329369683E+03  0.12499753847E+03 0.  0.
    9000005    1    3    3    0    0 -0.33199901724E+02 -0.41097975364E+02  0.34404860631E+01  0.52953885578E+02  0.10000000000E+01 0.  0.
    9000005    1    3    3    0    0  0.33199901724E+02  0.41097975364E+02  0.85298304022E+02  0.10033981125E+03  0.10000000000E+01 0.  0.
<mgrwt>
<rscale>  0 0.12499754E+03</rscale>
<asrwt>0</asrwt>
<pdfrwt beam="1">  1        4 0.30254061E-01 0.12499754E+03</pdfrwt>
<pdfrwt beam="2">  1       -4 0.80693634E-02 0.12499754E+03</pdfrwt>
<totfact> 0.18379059E+03</totfact>
</mgrwt>
</event>
<event>
 5    1  0.1430314E-002  0.1250026E+03  0.7818608E-02  0.1235065E+00
          4   -1    0    0  501    0  0.00000000000E+00  0.00000000000E+00  0.98351115948E+02  0.98359315309E+02  0.12700000000E+01 0. -1.
         -4   -1    0    0    0  501 -0.00000000000E+00 -0.00000000000E+00 -0.39699048213E+02  0.39719357107E+02  0.12700000000E+01 0. -1.
         25    2    1    2    0    0  0.00000000000E+00  0.00000000000E+00  0.58652067735E+02  0.13807867242E+03  0.12500261888E+03 0.  0.
    9000005    1    3    3    0    0 -0.10266064665E+02 -0.50976859710E+02  0.67612734088E+02  0.85302486015E+02  0.10000000000E+01 0.  0.
    9000005    1    3    3    0    0  0.10266064665E+02  0.50976859710E+02 -0.89606663532E+01  0.52776186401E+02  0.10000000000E+01 0.  0.
<mgrwt>
<rscale>  0 0.12500262E+03</rscale>
<asrwt>0</asrwt>
<pdfrwt beam="1">  1        4 0.24591342E-01 0.12500262E+03</pdfrwt>
<pdfrwt beam="2">  1       -4 0.99283257E-02 0.12500262E+03</pdfrwt>
<totfact> 0.19137900E+03</totfact>
</mgrwt>
</event>
<event>
 5    1  0.1430314E-002  0.1249979E+03  0.7818608E-02  0.1235073E+00
         -4   -1    0    0    0  501 -0.00000000000E+00  0.00000000000E+00  0.24919786862E+03  0.24920110478E+03  0.12700000000E+01 0. -1.
          4   -1    0    0  501    0  0.00000000000E+00 -0.00000000000E+00 -0.15645688912E+02  0.15697148834E+02  0.12700000000E+01 0. -1.
         25    2    1    2    0    0  0.00000000000E+00  0.00000000000E+00  0.23355217970E+03  0.26489825361E+03  0.12499785647E+03 0.  0.
    9000005    1    3    3    0    0 -0.19576150827E+02  0.50134123759E+02  0.49477515442E+02  0.73114161286E+02  0.10000000000E+01 0.  0.
    9000005    1    3    3    0    0  0.19576150827E+02 -0.50134123759E+02  0.18407466426E+03  0.19178409233E+03  0.10000000000E+01 0.  0.
<mgrwt>
<rscale>  0 0.12499786E+03</rscale>
<asrwt>0</asrwt>
<pdfrwt beam="2">  1        4 0.39182594E-02 0.12499786E+03</pdfrwt>
<pdfrwt beam="1">  1       -4 0.62306301E-01 0.12499786E+03</pdfrwt>
<totfact> 0.14015892E+03</totfact>
</mgrwt>
</event>
<event>
 5    1  0.1430314E-002  0.1250079E+03  0.7818608E-02  0.1235057E+00
         -4   -1    0    0    0  501 -0.00000000000E+00  0.00000000000E+00  0.81131664085E+02  0.81141603492E+02  0.12700000000E+01 0.  1.
          4   -1    0    0  501    0  0.00000000000E+00 -0.00000000000E+00 -0.48131844317E+02  0.48148596422E+02  0.12700000000E+01 0.  1.
         25    2    1    2    0    0  0.00000000000E+00  0.00000000000E+00  0.32999819768E+02  0.12929019991E+03  0.12500787051E+03 0.  0.
    9000005    1    3    3    0    0  0.77201490452E+01  0.53113125036E+02  0.49614489048E+02  0.73097211137E+02  0.10000000000E+01 0.  0.
    9000005    1    3    3    0    0 -0.77201490452E+01 -0.53113125036E+02 -0.16614669281E+02  0.56192988777E+02  0.10000000000E+01 0.  0.
<mgrwt>
<rscale>  0 0.12500787E+03</rscale>
<asrwt>0</asrwt>
<pdfrwt beam="2">  1        4 0.12036298E-01 0.12500787E+03</pdfrwt>
<pdfrwt beam="1">  1       -4 0.20286252E-01 0.12500787E+03</pdfrwt>
<totfact> 0.19599017E+03</totfact>
</mgrwt>
</event>
<event>
 5    1  0.1430314E-002  0.1250001E+03  0.7818608E-02  0.1235069E+00
          4   -1    0    0  501    0  0.00000000000E+00  0.00000000000E+00  0.46206168509E+02  0.46223618512E+02  0.12700000000E+01 0. -1.
         -4   -1    0    0    0  501 -0.00000000000E+00 -0.00000000000E+00 -0.84501508887E+02  0.84511051965E+02  0.12700000000E+01 0. -1.
         25    2    1    2    0    0  0.00000000000E+00  0.00000000000E+00 -0.38295340378E+02  0.13073467048E+03  0.12500008388E+03 0.  0.
    9000005    1    3    3    0    0  0.10496593044E+02  0.60407436836E+02 -0.65095001812E+01  0.61665310210E+02  0.10000000000E+01 0.  0.
    9000005    1    3    3    0    0 -0.10496593044E+02 -0.60407436836E+02 -0.31785840196E+02  0.69069360267E+02  0.10000000000E+01 0.  0.
<mgrwt>
<rscale>  0 0.12500008E+03</rscale>
<asrwt>0</asrwt>
<pdfrwt beam="1">  1        4 0.11554916E-01 0.12500008E+03</pdfrwt>
<pdfrwt beam="2">  1       -4 0.21128751E-01 0.12500008E+03</pdfrwt>
<totfact> 0.19524931E+03</totfact>
</mgrwt>
</event>
<event>
 5    1  0.1430314E-002  0.1250009E+03  0.7818608E-02  0.1235068E+00
          4   -1    0    0  501    0  0.00000000000E+00  0.00000000000E+00  0.83598569572E+02  0.83608215711E+02  0.12700000000E+01 0.  1.
         -4   -1    0    0    0  501 -0.00000000000E+00 -0.00000000000E+00 -0.46705969886E+02  0.46723233225E+02  0.12700000000E+01 0.  1.
         25    2    1    2    0    0  0.00000000000E+00  0.00000000000E+00  0.36892599686E+02  0.13033144894E+03  0.12500089068E+03 0.  0.
    9000005    1    3    3    0    0  0.63420529622E+01  0.17577233832E+02  0.80622563125E+02  0.82765804955E+02  0.10000000000E+01 0.  0.
    9000005    1    3    3    0    0 -0.63420529622E+01 -0.17577233832E+02 -0.43729963440E+02  0.47565643982E+02  0.10000000000E+01 0.  0.
<mgrwt>
<rscale>  0 0.12500089E+03</rscale>
<asrwt>0</asrwt>
<pdfrwt beam="1">  1        4 0.20903006E-01 0.12500089E+03</pdfrwt>
<pdfrwt beam="2">  1       -4 0.11679856E-01 0.12500089E+03</pdfrwt>
<totfact> 0.19546174E+03</totfact>
</mgrwt>
</event>
<event>
 5    1  0.1430314E-002  0.1250030E+03  0.7818608E-02  0.1235065E+00
          4   -1    0    0  501    0  0.00000000000E+00  0.00000000000E+00  0.23429433887E+03  0.23429778088E+03  0.12700000000E+01 0. -1.
         -4   -1    0    0    0  501 -0.00000000000E+00 -0.00000000000E+00 -0.16645460474E+02  0.16693838816E+02  0.12700000000E+01 0. -1.
         25    2    1    2    0    0  0.00000000000E+00  0.00000000000E+00  0.21764887839E+03  0.25099161970E+03  0.12500303553E+03 0.  0.
    9000005    1    3    3    0    0  0.12584292573E+02  0.28215412780E+02 -0.24943743582E+00  0.30911747879E+02  0.10000000000E+01 0.  0.
    9000005    1    3    3    0    0 -0.12584292573E+02 -0.28215412780E+02  0.21789831583E+03  0.22007987182E+03  0.10000000000E+01 0.  0.
<mgrwt>
<rscale>  0 0.12500304E+03</rscale>
<asrwt>0</asrwt>
<pdfrwt beam="1">  1        4 0.58580062E-01 0.12500304E+03</pdfrwt>
<pdfrwt beam="2">  1       -4 0.41678426E-02 0.12500304E+03</pdfrwt>
<totfact> 0.14464048E+03</totfact>
</mgrwt>
</event>
<event>
 5    1  0.1430314E-002  0.1250083E+03  0.7818608E-02  0.1235056E+00
         -4   -1    0    0    0  501 -0.00000000000E+00  0.00000000000E+00  0.55756720213E+02  0.55771182065E+02  0.12700000000E+01 0. -1.
          4   -1    0    0  501    0  0.00000000000E+00 -0.00000000000E+00 -0.70038768680E+02  0.70050282071E+02  0.12700000000E+01 0. -1.
         25    2    1    2    0    0  0.00000000000E+00  0.00000000000E+00 -0.14282048467E+02  0.12582146414E+03  0.12500825544E+03 0.  0.
    9000005    1    3    3    0    0  0.30619637521E+01  0.12301338433E+02 -0.68736081191E+02  0.69902413454E+02  0.10000000000E+01 0.  0.
    9000005    1    3    3    0    0 -0.30619637521E+01 -0.12301338433E+02  0.54454032723E+02  0.55919050681E+02  0.10000000000E+01 0.  0.
<mgrwt>
<rscale>  0 0.12500826E+03</rscale>
<asrwt>0</asrwt>
<pdfrwt beam="2">  1        4 0.17512939E-01 0.12500826E+03</pdfrwt>
<pdfrwt beam="1">  1       -4 0.13942427E-01 0.12500826E+03</pdfrwt>
<totfact> 0.19786749E+03</totfact>
</mgrwt>
</event>
<event>
 5    1  0.1430314E-002  0.1250022E+03  0.7818608E-02  0.1235066E+00
         -4   -1    0    0    0  501 -0.00000000000E+00  0.00000000000E+00  0.87076250574E+02  0.87085511504E+02  0.12700000000E+01 0. -1.
          4   -1    0    0  501    0  0.00000000000E+00 -0.00000000000E+00 -0.44841020640E+02  0.44859001684E+02  0.12700000000E+01 0. -1.
         25    2    1    2    0    0  0.00000000000E+00  0.00000000000E+00  0.42235229934E+02  0.13194451319E+03  0.12500215963E+03 0.  0.
    9000005    1    3    3    0    0 -0.37941918600E+01  0.48913127604E+02  0.61977907626E+02  0.79051571633E+02  0.10000000000E+01 0.  0.
    9000005    1    3    3    0    0  0.37941918600E+01 -0.48913127604E+02 -0.19742677693E+02  0.52892941555E+02  0.10000000000E+01 0.  0.
<mgrwt>
<rscale>  0 0.12500216E+03</rscale>
<asrwt>0</asrwt>
<pdfrwt beam="2">  1        4 0.11213661E-01 0.12500216E+03</pdfrwt>
<pdfrwt beam="1">  1       -4 0.21772468E-01 0.12500216E+03</pdfrwt>
<totfact> 0.19459425E+03</totfact>
</mgrwt>
</event>
<event>
 5    1  0.1430314E-002  0.1249939E+03  0.7818608E-02  0.1235079E+00
          4   -1    0    0  501    0  0.00000000000E+00  0.00000000000E+00  0.40500901805E+02  0.40520808815E+02  0.12700000000E+01 0.  1.
         -4   -1    0    0    0  501 -0.00000000000E+00 -0.00000000000E+00 -0.96391289488E+02  0.96399655544E+02  0.12700000000E+01 0.  1.
         25    2    1    2    0    0  0.00000000000E+00  0.00000000000E+00 -0.55890387682E+02  0.13692046436E+03  0.12499391235E+03 0.  0.
    9000005    1    3    3    0    0  0.24737726631E+01 -0.28886827062E+02  0.32692856232E+02  0.43708021889E+02  0.10000000000E+01 0.  0.
    9000005    1    3    3    0    0 -0.24737726631E+01  0.28886827062E+02 -0.88583243914E+02  0.93212442470E+02  0.10000000000E+01 0.  0.
<mgrwt>
<rscale>  0 0.12499391E+03</rscale>
<asrwt>0</asrwt>
<pdfrwt beam="1">  1        4 0.10128760E-01 0.12499391E+03</pdfrwt>
<pdfrwt beam="2">  1       -4 0.24101356E-01 0.12499391E+03</pdfrwt>
<totfact> 0.19201739E+03</totfact>
</mgrwt>
</event>
<event>
 5    1  0.1430314E-002  0.1249993E+03  0.7818608E-02  0.1235070E+00
         -4   -1    0    0    0  501 -0.00000000000E+00  0.00000000000E+00  0.23173246321E+03  0.23173594328E+03  0.12700000000E+01 0.  1.
          4   -1    0    0  501    0  0.00000000000E+00 -0.00000000000E+00 -0.16829008732E+02  0.16876860932E+02  0.12700000000E+01 0.  1.
         25    2    1    2    0    0  0.00000000000E+00  0.00000000000E+00  0.21490345448E+03  0.24861280421E+03  0.12499932667E+03 0.  0.
    9000005    1    3    3    0    0  0.14032771735E+02 -0.60362229951E+02  0.12344862751E+03  0.13813428655E+03  0.10000000000E+01 0.  0.
    9000005    1    3    3    0    0 -0.14032771735E+02  0.60362229951E+02  0.91454826969E+02  0.11047851765E+03  0.10000000000E+01 0.  0.
<mgrwt>
<rscale>  0 0.12499933E+03</rscale>
<asrwt>0</asrwt>
<pdfrwt beam="2">  1        4 0.42136687E-02 0.12499933E+03</pdfrwt>
<pdfrwt beam="1">  1       -4 0.57939533E-01 0.12499933E+03</pdfrwt>
<totfact> 0.14544473E+03</totfact>
</mgrwt>
</event>
<event>
 5    1  0.1430314E-002  0.1249973E+03  0.7818608E-02  0.1235074E+00
          4   -1    0    0  501    0  0.00000000000E+00  0.00000000000E+00  0.51379287117E+02  0.51394980734E+02  0.12700000000E+01 0. -1.
         -4   -1    0    0    0  501 -0.00000000000E+00 -0.00000000000E+00 -0.75991811297E+02  0.76002422884E+02  0.12700000000E+01 0. -1.
         25    2    1    2    0    0  0.00000000000E+00  0.00000000000E+00 -0.24612524180E+02  0.12739740362E+03  0.12499728838E+03 0.  0.
    9000005    1    3    3    0    0 -0.28890146486E+02 -0.12068893106E+02  0.42813421983E+02  0.53049861891E+02  0.10000000000E+01 0.  0.
    9000005    1    3    3    0    0  0.28890146486E+02  0.12068893106E+02 -0.67425946163E+02  0.74347541726E+02  0.10000000000E+01 0.  0.
<mgrwt>
<rscale>  0 0.12499729E+03</rscale>
<asrwt>0</asrwt>
<pdfrwt beam="1">  1        4 0.12848110E-01 0.12499729E+03</pdfrwt>
<pdfrwt beam="2">  1       -4 0.19001241E-01 0.12499729E+03</pdfrwt>
<totfact> 0.19706635E+03</totfact>
</mgrwt>
</event>
<event>
 5    1  0.1430314E-002  0.1250057E+03  0.7818608E-02  0.1235060E+00
         -4   -1    0    0    0  501 -0.00000000000E+00  0.00000000000E+00  0.22499361178E+02  0.22535175913E+02  0.12700000000E+01 0. -1.
          4   -1    0    0  501    0  0.00000000000E+00 -0.00000000000E+00 -0.17345565629E+03  0.17346030554E+03  0.12700000000E+01 0. -1.
         25    2    1    2    0    0  0.00000000000E+00  0.00000000000E+00 -0.15095629511E+03  0.19599548145E+03  0.12500570274E+03 0.  0.
    9000005    1    3    3    0    0  0.39178051086E+02 -0.20882870284E+02 -0.14444032725E+03  0.15111261395E+03  0.10000000000E+01 0.  0.
    9000005    1    3    3    0    0 -0.39178051086E+02  0.20882870284E+02 -0.65159678584E+01  0.44882867504E+02  0.10000000000E+01 0.  0.
<mgrwt>
<rscale>  0 0.12500570E+03</rscale>
<asrwt>0</asrwt>
<pdfrwt beam="2">  1        4 0.43368968E-01 0.12500570E+03</pdfrwt>
<pdfrwt beam="1">  1       -4 0.56298988E-02 0.12500570E+03</pdfrwt>
<totfact> 0.16481480E+03</totfact>
</mgrwt>
</event>
<event>
 5    1  0.1430314E-002  0.1249954E+03  0.7818608E-02  0.1235076E+00
         -4   -1    0    0    0  501 -0.00000000000E+00  0.00000000000E+00  0.75637478451E+03  0.75637585071E+03  0.12700000000E+01 0. -1.
          4   -1    0    0  501    0  0.00000000000E+00 -0.00000000000E+00 -0.50848886125E+01  0.52410869294E+01  0.12700000000E+01 0. -1.
         25    2    1    2    0    0  0.00000000000E+00  0.00000000000E+00  0.75128989589E+03  0.76161693764E+03  0.12499540802E+03 0.  0.
    9000005    1    3    3    0    0 -0.54333797088E+02  0.30739001433E+02  0.39278752041E+03  0.39771859889E+03  0.10000000000E+01 0.  0.
    9000005    1    3    3    0    0  0.54333797088E+02 -0.30739001433E+02  0.35850237548E+03  0.36389833875E+03  0.10000000000E+01 0.  0.
<mgrwt>
<rscale>  0 0.12499541E+03</rscale>
<asrwt>0</asrwt>
<pdfrwt beam="2">  1        4 0.12908797E-02 0.12499541E+03</pdfrwt>
<pdfrwt beam="1">  1       -4 0.18911343E+00 0.12499541E+03</pdfrwt>
<totfact> 0.55977672E+02</totfact>
</mgrwt>
</event>
<event>
 5    1  0.1430314E-002  0.1249959E+03  0.7818608E-02  0.1235076E+00
          4   -1    0    0  501    0  0.00000000000E+00  0.00000000000E+00  0.78039610202E+01  0.79066242863E+01  0.12700000000E+01 0. -1.
         -4   -1    0    0    0  501 -0.00000000000E+00 -0.00000000000E+00 -0.49714034307E+03  0.49714196524E+03  0.12700000000E+01 0. -1.
         25    2    1    2    0    0  0.00000000000E+00  0.00000000000E+00 -0.48933638205E+03  0.50504858953E+03  0.12499593189E+03 0.  0.
    9000005    1    3    3    0    0 -0.19636921541E+02 -0.51593269032E+02 -0.36298864593E+03  0.36716376615E+03  0.10000000000E+01 0.  0.
    9000005    1    3    3    0    0  0.19636921541E+02  0.51593269032E+02 -0.12634773611E+03  0.13788482338E+03  0.10000000000E+01 0.  0.
<mgrwt>
<rscale>  0 0.12499593E+03</rscale>
<asrwt>0</asrwt>
<pdfrwt beam="1">  1        4 0.19640276E-02 0.12499593E+03</pdfrwt>
<pdfrwt beam="2">  1       -4 0.12429802E+00 0.12499593E+03</pdfrwt>
<totfact> 0.86817582E+02</totfact>
</mgrwt>
</event>
<event>
 5    1  0.1430314E-002  0.1249992E+03  0.7818608E-02  0.1235071E+00
          4   -1    0    0  501    0  0.00000000000E+00  0.00000000000E+00  0.13006727850E+03  0.13007347860E+03  0.12700000000E+01 0.  1.
         -4   -1    0    0    0  501 -0.00000000000E+00 -0.00000000000E+00 -0.30011786419E+02  0.30038645510E+02  0.12700000000E+01 0.  1.
         25    2    1    2    0    0  0.00000000000E+00  0.00000000000E+00  0.10005549208E+03  0.16011212411E+03  0.12499916317E+03 0.  0.
    9000005    1    3    3    0    0 -0.34087640385E+02  0.18050066269E+02  0.11300644290E+03  0.11941201052E+03  0.10000000000E+01 0.  0.
    9000005    1    3    3    0    0  0.34087640385E+02 -0.18050066269E+02 -0.12950950821E+02  0.40700113593E+02  0.10000000000E+01 0.  0.
<mgrwt>
<rscale>  0 0.12499916E+03</rscale>
<asrwt>0</asrwt>
<pdfrwt beam="1">  1        4 0.32520952E-01 0.12499916E+03</pdfrwt>
<pdfrwt beam="2">  1       -4 0.75070791E-02 0.12499916E+03</pdfrwt>
<totfact> 0.18052830E+03</totfact>
</mgrwt>
</event>
<event>
 5    1  0.1430314E-002  0.1250006E+03  0.7818608E-02  0.1235068E+00
          4   -1    0    0  501    0  0.00000000000E+00  0.00000000000E+00  0.78004521583E+03  0.78004624968E+03  0.12700000000E+01 0.  1.
         -4   -1    0    0    0  501 -0.00000000000E+00 -0.00000000000E+00 -0.49261943060E+01  0.50872674729E+01  0.12700000000E+01 0.  1.
         25    2    1    2    0    0  0.00000000000E+00  0.00000000000E+00  0.77511902152E+03  0.78513351715E+03  0.12500056891E+03 0.  0.
    9000005    1    3    3    0    0 -0.29354394783E+02 -0.34035449456E+01  0.41701669312E+02  0.51120385706E+02  0.10000000000E+01 0.  0.
    9000005    1    3    3    0    0  0.29354394783E+02  0.34035449456E+01  0.73341735221E+03  0.73401313144E+03  0.10000000000E+01 0.  0.
<mgrwt>
<rscale>  0 0.12500057E+03</rscale>
<asrwt>0</asrwt>
<pdfrwt beam="1">  1        4 0.19503156E+00 0.12500057E+03</pdfrwt>
<pdfrwt beam="2">  1       -4 0.12518120E-02 0.12500057E+03</pdfrwt>
<totfact> 0.53806674E+02</totfact>
</mgrwt>
</event>
<event>
 5    1  0.1430314E-002  0.1249990E+03  0.7818608E-02  0.1235071E+00
          4   -1    0    0  501    0  0.00000000000E+00  0.00000000000E+00  0.42198070266E+03  0.42198261377E+03  0.12700000000E+01 0. -1.
         -4   -1    0    0    0  501 -0.00000000000E+00 -0.00000000000E+00 -0.92112932493E+01  0.92984312293E+01  0.12700000000E+01 0. -1.
         25    2    1    2    0    0  0.00000000000E+00  0.00000000000E+00  0.41276940941E+03  0.43128104499E+03  0.12499901769E+03 0.  0.
    9000005    1    3    3    0    0  0.17548662762E+02 -0.28107324995E+02  0.23578334894E+02  0.40680648465E+02  0.10000000000E+01 0.  0.
    9000005    1    3    3    0    0 -0.17548662762E+02  0.28107324995E+02  0.38919107452E+03  0.39060039653E+03  0.10000000000E+01 0.  0.
<mgrwt>
<rscale>  0 0.12499902E+03</rscale>
<asrwt>0</asrwt>
<pdfrwt beam="1">  1        4 0.10550629E+00 0.12499902E+03</pdfrwt>
<pdfrwt beam="2">  1       -4 0.23139547E-02 0.12499902E+03</pdfrwt>
<totfact> 0.99479520E+02</totfact>
</mgrwt>
</event>
<event>
 5    1  0.1430314E-002  0.1250260E+03  0.7818608E-02  0.1235029E+00
          4   -1    0    0  501    0  0.00000000000E+00  0.00000000000E+00  0.21179113466E+02  0.21217156907E+02  0.12700000000E+01 0. -1.
         -4   -1    0    0    0  501 -0.00000000000E+00 -0.00000000000E+00 -0.18430968407E+03  0.18431405953E+03  0.12700000000E+01 0. -1.
         25    2    1    2    0    0  0.00000000000E+00  0.00000000000E+00 -0.16313057060E+03  0.20553121644E+03  0.12502598876E+03 0.  0.
    9000005    1    3    3    0    0  0.39139706346E+02  0.82061167048E+01 -0.16053478869E+03  0.16544387370E+03  0.10000000000E+01 0.  0.
    9000005    1    3    3    0    0 -0.39139706346E+02 -0.82061167048E+01 -0.25957819103E+01  0.40087342740E+02  0.10000000000E+01 0.  0.
<mgrwt>
<rscale>  0 0.12502599E+03</rscale>
<asrwt>0</asrwt>
<pdfrwt beam="1">  1        4 0.53000813E-02 0.12502599E+03</pdfrwt>
<pdfrwt beam="2">  1       -4 0.46082719E-01 0.12502599E+03</pdfrwt>
<totfact> 0.16093267E+03</totfact>
</mgrwt>
</event>
<event>
 5    1  0.1430314E-002  0.1249943E+03  0.7818608E-02  0.1235078E+00
         -4   -1    0    0    0  501 -0.00000000000E+00  0.00000000000E+00  0.21486688486E+03  0.21487063808E+03  0.12700000000E+01 0.  1.
          4   -1    0    0  501    0  0.00000000000E+00 -0.00000000000E+00 -0.18152095253E+02  0.18196468396E+02  0.12700000000E+01 0.  1.
         25    2    1    2    0    0  0.00000000000E+00  0.00000000000E+00  0.19671478961E+03  0.23306710648E+03  0.12499427055E+03 0.  0.
    9000005    1    3    3    0    0 -0.20570473520E+02  0.44765099370E+02  0.17003832280E+03  0.17703414846E+03  0.10000000000E+01 0.  0.
    9000005    1    3    3    0    0  0.20570473520E+02 -0.44765099370E+02  0.26676466812E+02  0.56032958016E+02  0.10000000000E+01 0.  0.
<mgrwt>
<rscale>  0 0.12499427E+03</rscale>
<asrwt>0</asrwt>
<pdfrwt beam="2">  1        4 0.45440396E-02 0.12499427E+03</pdfrwt>
<pdfrwt beam="1">  1       -4 0.53722737E-01 0.12499427E+03</pdfrwt>
<totfact> 0.15080324E+03</totfact>
</mgrwt>
</event>
<event>
 5    1  0.1430314E-002  0.1249935E+03  0.7818608E-02  0.1235080E+00
          4   -1    0    0  501    0  0.00000000000E+00  0.00000000000E+00  0.37141834113E+03  0.37142051240E+03  0.12700000000E+01 0.  1.
         -4   -1    0    0    0  501 -0.00000000000E+00 -0.00000000000E+00 -0.10475461031E+02  0.10552164888E+02  0.12700000000E+01 0.  1.
         25    2    1    2    0    0  0.00000000000E+00  0.00000000000E+00  0.36094288010E+03  0.38197267729E+03  0.12499345382E+03 0.  0.
    9000005    1    3    3    0    0  0.62118486756E+02  0.67291453899E+01  0.17764890192E+03  0.18831919750E+03  0.10000000000E+01 0.  0.
    9000005    1    3    3    0    0 -0.62118486756E+02 -0.67291453899E+01  0.18329397818E+03  0.19365347978E+03  0.10000000000E+01 0.  0.
<mgrwt>
<rscale>  0 0.12499345E+03</rscale>
<asrwt>0</asrwt>
<pdfrwt beam="1">  1        4 0.92864443E-01 0.12499345E+03</pdfrwt>
<pdfrwt beam="2">  1       -4 0.26287247E-02 0.12499345E+03</pdfrwt>
<totfact> 0.10951839E+03</totfact>
</mgrwt>
</event>
<event>
 5    1  0.1430314E-002  0.1250006E+03  0.7818608E-02  0.1235068E+00
         -4   -1    0    0    0  501 -0.00000000000E+00  0.00000000000E+00  0.16960153965E+03  0.16960629456E+03  0.12700000000E+01 0. -1.
          4   -1    0    0  501    0  0.00000000000E+00 -0.00000000000E+00 -0.23009541480E+02  0.23044563331E+02  0.12700000000E+01 0. -1.
         25    2    1    2    0    0  0.00000000000E+00  0.00000000000E+00  0.14659199817E+03  0.19265085789E+03  0.12500055646E+03 0.  0.
    9000005    1    3    3    0    0 -0.21427420727E+02  0.32914956718E+02  0.14821094018E+03  0.15332974768E+03  0.10000000000E+01 0.  0.
    9000005    1    3    3    0    0  0.21427420727E+02 -0.32914956718E+02 -0.16189420043E+01  0.39321110208E+02  0.10000000000E+01 0.  0.
<mgrwt>
<rscale>  0 0.12500056E+03</rscale>
<asrwt>0</asrwt>
<pdfrwt beam="2">  1        4 0.57573575E-02 0.12500056E+03</pdfrwt>
<pdfrwt beam="1">  1       -4 0.42405357E-01 0.12500056E+03</pdfrwt>
<totfact> 0.16620390E+03</totfact>
</mgrwt>
</event>
<event>
 5    1  0.1430314E-002  0.1249987E+03  0.7818608E-02  0.1235071E+00
          4   -1    0    0  501    0  0.00000000000E+00  0.00000000000E+00  0.56735577388E+02  0.56749789793E+02  0.12700000000E+01 0.  1.
         -4   -1    0    0    0  501 -0.00000000000E+00 -0.00000000000E+00 -0.68819964471E+02  0.68831681730E+02  0.12700000000E+01 0.  1.
         25    2    1    2    0    0  0.00000000000E+00  0.00000000000E+00 -0.12084387083E+02  0.12558147152E+03  0.12499869431E+03 0.  0.
    9000005    1    3    3    0    0  0.16765399951E+02 -0.60180935292E+02 -0.45037847547E+01  0.62642698579E+02  0.10000000000E+01 0.  0.
    9000005    1    3    3    0    0 -0.16765399951E+02  0.60180935292E+02 -0.75806023285E+01  0.62938772945E+02  0.10000000000E+01 0.  0.
<mgrwt>
<rscale>  0 0.12499869E+03</rscale>
<asrwt>0</asrwt>
<pdfrwt beam="1">  1        4 0.14187136E-01 0.12499869E+03</pdfrwt>
<pdfrwt beam="2">  1       -4 0.17208232E-01 0.12499869E+03</pdfrwt>
<totfact> 0.19804159E+03</totfact>
</mgrwt>
</event>
<event>
 5    1  0.1430314E-002  0.1250052E+03  0.7818608E-02  0.1235061E+00
         -4   -1    0    0    0  501 -0.00000000000E+00  0.00000000000E+00  0.88301536600E+03  0.88301627929E+03  0.12700000000E+01 0. -1.
          4   -1    0    0  501    0  0.00000000000E+00 -0.00000000000E+00 -0.43320537049E+01  0.45143758486E+01  0.12700000000E+01 0. -1.
         25    2    1    2    0    0  0.00000000000E+00  0.00000000000E+00  0.87868331230E+03  0.88753065514E+03  0.12500520191E+03 0.  0.
    9000005    1    3    3    0    0 -0.21484155767E+02  0.58658774498E+02  0.45195151839E+03  0.45624948849E+03  0.10000000000E+01 0.  0.
    9000005    1    3    3    0    0  0.21484155767E+02 -0.58658774498E+02  0.42673179391E+03  0.43128116665E+03  0.10000000000E+01 0.  0.
<mgrwt>
<rscale>  0 0.12500520E+03</rscale>
<asrwt>0</asrwt>
<pdfrwt beam="2">  1        4 0.11059180E-02 0.12500520E+03</pdfrwt>
<pdfrwt beam="1">  1       -4 0.22077672E+00 0.12500520E+03</pdfrwt>
<totfact> 0.45229466E+02</totfact>
</mgrwt>
</event>
<event>
 5    1  0.1430314E-002  0.1249903E+03  0.7818608E-02  0.1235084E+00
          4   -1    0    0  501    0  0.00000000000E+00  0.00000000000E+00  0.16382134462E+02  0.16431288128E+02  0.12700000000E+01 0. -1.
         -4   -1    0    0    0  501 -0.00000000000E+00 -0.00000000000E+00 -0.23800075649E+03  0.23800414490E+03  0.12700000000E+01 0. -1.
         25    2    1    2    0    0  0.00000000000E+00  0.00000000000E+00 -0.22161862203E+03  0.25443543303E+03  0.12499030343E+03 0.  0.
    9000005    1    3    3    0    0 -0.24698713636E+02  0.40179526105E+02 -0.19425132151E+03  0.19989746542E+03  0.10000000000E+01 0.  0.
    9000005    1    3    3    0    0  0.24698713636E+02 -0.40179526105E+02 -0.27367300520E+02  0.54537967610E+02  0.10000000000E+01 0.  0.
<mgrwt>
<rscale>  0 0.12499030E+03</rscale>
<asrwt>0</asrwt>
<pdfrwt beam="1">  1        4 0.41021021E-02 0.12499030E+03</pdfrwt>
<pdfrwt beam="2">  1       -4 0.59506746E-01 0.12499030E+03</pdfrwt>
<totfact> 0.14354796E+03</totfact>
</mgrwt>
</event>
<event>
 5    1  0.1430314E-002  0.1250045E+03  0.7818608E-02  0.1235062E+00
          4   -1    0    0  501    0  0.00000000000E+00  0.00000000000E+00  0.15019672243E+03  0.15020209163E+03  0.12700000000E+01 0. -1.
         -4   -1    0    0    0  501 -0.00000000000E+00 -0.00000000000E+00 -0.25988107899E+02  0.26019120895E+02  0.12700000000E+01 0. -1.
         25    2    1    2    0    0  0.00000000000E+00  0.00000000000E+00  0.12420861453E+03  0.17622121252E+03  0.12500454319E+03 0.  0.
    9000005    1    3    3    0    0 -0.59023136752E+02 -0.64927969080E+01  0.89572007564E+02  0.10747107342E+03  0.10000000000E+01 0.  0.
    9000005    1    3    3    0    0  0.59023136752E+02  0.64927969080E+01  0.34636606967E+02  0.68750139097E+02  0.10000000000E+01 0.  0.
<mgrwt>
<rscale>  0 0.12500454E+03</rscale>
<asrwt>0</asrwt>
<pdfrwt beam="1">  1        4 0.37553728E-01 0.12500454E+03</pdfrwt>
<pdfrwt beam="2">  1       -4 0.65015749E-02 0.12500454E+03</pdfrwt>
<totfact> 0.17318215E+03</totfact>
</mgrwt>
</event>
<event>
 5    1  0.1430314E-002  0.1250009E+03  0.7818608E-02  0.1235068E+00
         -4   -1    0    0    0  501 -0.00000000000E+00  0.00000000000E+00  0.22832115534E+02  0.22867409117E+02  0.12700000000E+01 0. -1.
          4   -1    0    0  501    0  0.00000000000E+00 -0.00000000000E+00 -0.17091857637E+03  0.17092329464E+03  0.12700000000E+01 0. -1.
         25    2    1    2    0    0  0.00000000000E+00  0.00000000000E+00 -0.14808646084E+03  0.19379070375E+03  0.12500094791E+03 0.  0.
    9000005    1    3    3    0    0  0.28252326158E+01 -0.51856495172E+02 -0.12793155224E+03  0.13807447298E+03  0.10000000000E+01 0.  0.
    9000005    1    3    3    0    0 -0.28252326158E+01  0.51856495172E+02 -0.20154908601E+02  0.55716230773E+02  0.10000000000E+01 0.  0.
<mgrwt>
<rscale>  0 0.12500095E+03</rscale>
<asrwt>0</asrwt>
<pdfrwt beam="2">  1        4 0.42734642E-01 0.12500095E+03</pdfrwt>
<pdfrwt beam="1">  1       -4 0.57130309E-02 0.12500095E+03</pdfrwt>
<totfact> 0.16573365E+03</totfact>
</mgrwt>
</event>
<event>
 5    1  0.1430314E-002  0.1250009E+03  0.7818608E-02  0.1235068E+00
         -4   -1    0    0    0  501 -0.00000000000E+00  0.00000000000E+00  0.22537147459E+02  0.22572902241E+02  0.12700000000E+01 0.  1.
          4   -1    0    0  501    0  0.00000000000E+00 -0.00000000000E+00 -0.17315203431E+03  0.17315669172E+03  0.12700000000E+01 0.  1.
         25    2    1    2    0    0  0.00000000000E+00  0.00000000000E+00 -0.15061488686E+03  0.19572959396E+03  0.12500091923E+03 0.  0.
    9000005    1    3    3    0    0 -0.48433812031E+02  0.34311540717E+02 -0.10591888541E+03  0.12142045240E+03  0.10000000000E+01 0.  0.
    9000005    1    3    3    0    0  0.48433812031E+02 -0.34311540717E+02 -0.44696001446E+02  0.74309141561E+02  0.10000000000E+01 0.  0.
<mgrwt>
<rscale>  0 0.12500092E+03</rscale>
<asrwt>0</asrwt>
<pdfrwt beam="2">  1        4 0.43293056E-01 0.12500092E+03</pdfrwt>
<pdfrwt beam="1">  1       -4 0.56393389E-02 0.12500092E+03</pdfrwt>
<totfact> 0.16494125E+03</totfact>
</mgrwt>
</event>
<event>
 5    1  0.1430314E-002  0.1250010E+03  0.7818608E-02  0.1235068E+00
         -4   -1    0    0    0  501 -0.00000000000E+00  0.00000000000E+00  0.12593030187E+03  0.12593670565E+03  0.12700000000E+01 0.  1.
          4   -1    0    0  501    0  0.00000000000E+00 -0.00000000000E+00 -0.30999421560E+02  0.31025425654E+02  0.12700000000E+01 0.  1.
         25    2    1    2    0    0  0.00000000000E+00  0.00000000000E+00  0.94930880315E+02  0.15696213131E+03  0.12500095450E+03 0.  0.
    9000005    1    3    3    0    0  0.30585283962E+01  0.52481424979E+02  0.89893094015E+02  0.10414136025E+03  0.10000000000E+01 0.  0.
    9000005    1    3    3    0    0 -0.30585283962E+01 -0.52481424979E+02  0.50377862999E+01  0.52820771052E+02  0.10000000000E+01 0.  0.
<mgrwt>
<rscale>  0 0.12500095E+03</rscale>
<asrwt>0</asrwt>
<pdfrwt beam="2">  1        4 0.77539065E-02 0.12500095E+03</pdfrwt>
<pdfrwt beam="1">  1       -4 0.31486626E-01 0.12500095E+03</pdfrwt>
<totfact> 0.18201261E+03</totfact>
</mgrwt>
</event>
<event>
 5    1  0.1430314E-002  0.1250016E+03  0.7818608E-02  0.1235067E+00
          4   -1    0    0  501    0  0.00000000000E+00  0.00000000000E+00  0.23313681059E+02  0.23348246711E+02  0.12700000000E+01 0. -1.
         -4   -1    0    0    0  501 -0.00000000000E+00 -0.00000000000E+00 -0.16739495957E+03  0.16739977715E+03  0.12700000000E+01 0. -1.
         25    2    1    2    0    0  0.00000000000E+00  0.00000000000E+00 -0.14408127851E+03  0.19074802386E+03  0.12500157515E+03 0.  0.
    9000005    1    3    3    0    0 -0.21010189276E+01  0.29441121177E+02  0.12014333381E+02  0.31883194685E+02  0.10000000000E+01 0.  0.
    9000005    1    3    3    0    0  0.21010189276E+01 -0.29441121177E+02 -0.15609561189E+03  0.15886482918E+03  0.10000000000E+01 0.  0.
<mgrwt>
<rscale>  0 0.12500158E+03</rscale>
<asrwt>0</asrwt>
<pdfrwt beam="1">  1        4 0.58333437E-02 0.12500158E+03</pdfrwt>
<pdfrwt beam="2">  1       -4 0.41853659E-01 0.12500158E+03</pdfrwt>
<totfact> 0.16698725E+03</totfact>
</mgrwt>
</event>
<event>
 5    1  0.1430314E-002  0.1250022E+03  0.7818608E-02  0.1235066E+00
          4   -1    0    0  501    0  0.00000000000E+00  0.00000000000E+00  0.13226923188E+03  0.13227532877E+03  0.12700000000E+01 0. -1.
         -4   -1    0    0    0  501 -0.00000000000E+00 -0.00000000000E+00 -0.29513195724E+02  0.29540508151E+02  0.12700000000E+01 0. -1.
         25    2    1    2    0    0  0.00000000000E+00  0.00000000000E+00  0.10275603615E+03  0.16181583692E+03  0.12500224843E+03 0.  0.
    9000005    1    3    3    0    0 -0.29895436699E+02  0.54145559224E+02  0.62950024877E+02  0.88256355868E+02  0.10000000000E+01 0.  0.
    9000005    1    3    3    0    0  0.29895436699E+02 -0.54145559224E+02  0.39806011276E+02  0.73559481053E+02  0.10000000000E+01 0.  0.
<mgrwt>
<rscale>  0 0.12500225E+03</rscale>
<asrwt>0</asrwt>
<pdfrwt beam="1">  1        4 0.33071484E-01 0.12500225E+03</pdfrwt>
<pdfrwt beam="2">  1       -4 0.73824751E-02 0.12500225E+03</pdfrwt>
<totfact> 0.17971693E+03</totfact>
</mgrwt>
</event>
<event>
 5    1  0.1430314E-002  0.1249997E+03  0.7818608E-02  0.1235070E+00
         -4   -1    0    0    0  501 -0.00000000000E+00  0.00000000000E+00  0.14184723953E+02  0.14241463887E+02  0.12700000000E+01 0.  1.
          4   -1    0    0  501    0  0.00000000000E+00 -0.00000000000E+00 -0.27477490212E+03  0.27477783705E+03  0.12700000000E+01 0.  1.
         25    2    1    2    0    0  0.00000000000E+00  0.00000000000E+00 -0.26059017817E+03  0.28901930094E+03  0.12499966143E+03 0.  0.
    9000005    1    3    3    0    0  0.30026238455E+02 -0.39982126541E+02 -0.21696514189E+03  0.22265448173E+03  0.10000000000E+01 0.  0.
    9000005    1    3    3    0    0 -0.30026238455E+02  0.39982126541E+02 -0.43625036273E+02  0.66364819207E+02  0.10000000000E+01 0.  0.
<mgrwt>
<rscale>  0 0.12499966E+03</rscale>
<asrwt>0</asrwt>
<pdfrwt beam="2">  1        4 0.68701168E-01 0.12499966E+03</pdfrwt>
<pdfrwt beam="1">  1       -4 0.35536412E-02 0.12499966E+03</pdfrwt>
<totfact> 0.13284593E+03</totfact>
</mgrwt>
</event>
<event>
 5    1  0.1430314E-002  0.1249894E+03  0.7818608E-02  0.1235086E+00
         -4   -1    0    0    0  501 -0.00000000000E+00  0.00000000000E+00  0.94120960422E+02  0.94129528262E+02  0.12700000000E+01 0. -1.
          4   -1    0    0  501    0  0.00000000000E+00 -0.00000000000E+00 -0.41475228815E+02  0.41494668395E+02  0.12700000000E+01 0. -1.
         25    2    1    2    0    0  0.00000000000E+00  0.00000000000E+00  0.52645731607E+02  0.13562419666E+03  0.12498939820E+03 0.  0.
    9000005    1    3    3    0    0  0.21489456871E+02  0.37530162224E+02 -0.22617713793E+02  0.48814657742E+02  0.10000000000E+01 0.  0.
    9000005    1    3    3    0    0 -0.21489456871E+02 -0.37530162224E+02  0.75263445401E+02  0.86809538916E+02  0.10000000000E+01 0.  0.
<mgrwt>
<rscale>  0 0.12498940E+03</rscale>
<asrwt>0</asrwt>
<pdfrwt beam="2">  1        4 0.10372308E-01 0.12498940E+03</pdfrwt>
<pdfrwt beam="1">  1       -4 0.23533741E-01 0.12498940E+03</pdfrwt>
<totfact> 0.19271259E+03</totfact>
</mgrwt>
</event>
<event>
 5    1  0.1430314E-002  0.1249972E+03  0.7818608E-02  0.1235074E+00
         -4   -1    0    0    0  501 -0.00000000000E+00  0.00000000000E+00  0.55807325198E+02  0.55821773940E+02  0.12700000000E+01 0.  1.
          4   -1    0    0  501    0  0.00000000000E+00 -0.00000000000E+00 -0.69962863824E+02  0.69974389704E+02  0.12700000000E+01 0.  1.
         25    2    1    2    0    0  0.00000000000E+00  0.00000000000E+00 -0.14155538626E+02  0.12579616364E+03  0.12499718202E+03 0.  0.
    9000005    1    3    3    0    0  0.46715481070E+01 -0.46890774320E+02 -0.48382845727E+02  0.67546042362E+02  0.10000000000E+01 0.  0.
    9000005    1    3    3    0    0 -0.46715481070E+01  0.46890774320E+02  0.34227307101E+02  0.58250121283E+02  0.10000000000E+01 0.  0.
<mgrwt>
<rscale>  0 0.12499718E+03</rscale>
<asrwt>0</asrwt>
<pdfrwt beam="2">  1        4 0.17493963E-01 0.12499718E+03</pdfrwt>
<pdfrwt beam="1">  1       -4 0.13955078E-01 0.12499718E+03</pdfrwt>
<totfact> 0.19793244E+03</totfact>
</mgrwt>
</event>
<event>
 5    1  0.1430314E-002  0.1249765E+03  0.7818608E-02  0.1235106E+00
          4   -1    0    0  501    0  0.00000000000E+00  0.00000000000E+00  0.39922315639E+01  0.41893690289E+01  0.12700000000E+01 0. -1.
         -4   -1    0    0    0  501 -0.00000000000E+00 -0.00000000000E+00 -0.95433045964E+03  0.95433130468E+03  0.12700000000E+01 0. -1.
         25    2    1    2    0    0  0.00000000000E+00  0.00000000000E+00 -0.95033822807E+03  0.95852067371E+03  0.12497653455E+03 0.  0.
    9000005    1    3    3    0    0  0.55615219901E+01 -0.12416376022E+02 -0.94286957427E+03  0.94296825557E+03  0.10000000000E+01 0.  0.
    9000005    1    3    3    0    0 -0.55615219901E+01  0.12416376022E+02 -0.74686537972E+01  0.15552418137E+02  0.10000000000E+01 0.  0.
<mgrwt>
<rscale>  0 0.12497653E+03</rscale>
<asrwt>0</asrwt>
<pdfrwt beam="1">  1        4 0.10228090E-02 0.12497653E+03</pdfrwt>
<pdfrwt beam="2">  1       -4 0.23860660E+00 0.12497653E+03</pdfrwt>
<totfact> 0.39991779E+02</totfact>
</mgrwt>
</event>
<event>
 5    1  0.1430314E-002  0.1249997E+03  0.7818608E-02  0.1235070E+00
         -4   -1    0    0    0  501 -0.00000000000E+00  0.00000000000E+00  0.20379542446E+02  0.20419075648E+02  0.12700000000E+01 0.  1.
          4   -1    0    0  501    0  0.00000000000E+00 -0.00000000000E+00 -0.19144674935E+03  0.19145096170E+03  0.12700000000E+01 0.  1.
         25    2    1    2    0    0  0.00000000000E+00  0.00000000000E+00 -0.17106720690E+03  0.21187003735E+03  0.12499969380E+03 0.  0.
    9000005    1    3    3    0    0 -0.37608206213E+02  0.47762363507E+02 -0.60994034814E+02  0.86121384251E+02  0.10000000000E+01 0.  0.
    9000005    1    3    3    0    0  0.37608206213E+02 -0.47762363507E+02 -0.11007317209E+03  0.12574865310E+03  0.10000000000E+01 0.  0.
<mgrwt>
<rscale>  0 0.12499969E+03</rscale>
<asrwt>0</asrwt>
<pdfrwt beam="2">  1        4 0.47867150E-01 0.12499969E+03</pdfrwt>
<pdfrwt beam="1">  1       -4 0.51003544E-02 0.12499969E+03</pdfrwt>
<totfact> 0.15857641E+03</totfact>
</mgrwt>
</event>
<event>
 5    1  0.1430314E-002  0.1250044E+03  0.7818608E-02  0.1235062E+00
         -4   -1    0    0    0  501 -0.00000000000E+00  0.00000000000E+00  0.39206550838E+02  0.39227114712E+02  0.12700000000E+01 0.  1.
          4   -1    0    0  501    0  0.00000000000E+00 -0.00000000000E+00 -0.99588818327E+02  0.99596915795E+02  0.12700000000E+01 0.  1.
         25    2    1    2    0    0  0.00000000000E+00  0.00000000000E+00 -0.60382267489E+02  0.13882403051E+03  0.12500437280E+03 0.  0.
    9000005    1    3    3    0    0 -0.12906336342E+02 -0.44549532593E+02 -0.76705810321E+02  0.89643826943E+02  0.10000000000E+01 0.  0.
    9000005    1    3    3    0    0  0.12906336342E+02  0.44549532593E+02  0.16323542832E+02  0.49180203564E+02  0.10000000000E+01 0.  0.
<mgrwt>
<rscale>  0 0.12500437E+03</rscale>
<asrwt>0</asrwt>
<pdfrwt beam="2">  1        4 0.24900787E-01 0.12500437E+03</pdfrwt>
<pdfrwt beam="1">  1       -4 0.98052206E-02 0.12500437E+03</pdfrwt>
<totfact> 0.19098717E+03</totfact>
</mgrwt>
</event>
<event>
 5    1  0.1430314E-002  0.1250072E+03  0.7818608E-02  0.1235058E+00
          4   -1    0    0  501    0  0.00000000000E+00  0.00000000000E+00  0.38768588462E+01  0.40795752859E+01  0.12700000000E+01 0. -1.
         -4   -1    0    0    0  501 -0.00000000000E+00 -0.00000000000E+00 -0.98182034125E+03  0.98182116263E+03  0.12700000000E+01 0. -1.
         25    2    1    2    0    0  0.00000000000E+00  0.00000000000E+00 -0.97794348240E+03  0.98590073792E+03  0.12500724080E+03 0.  0.
    9000005    1    3    3    0    0  0.35706067956E+02 -0.34361478280E+02 -0.78929724845E+03  0.79085193361E+03  0.10000000000E+01 0.  0.
    9000005    1    3    3    0    0 -0.35706067956E+02  0.34361478280E+02 -0.18864623395E+03  0.19504880431E+03  0.10000000000E+01 0.  0.
<mgrwt>
<rscale>  0 0.12500724E+03</rscale>
<asrwt>0</asrwt>
<pdfrwt beam="1">  1        4 0.99466030E-03 0.12500724E+03</pdfrwt>
<pdfrwt beam="2">  1       -4 0.24547970E+00 0.12500724E+03</pdfrwt>
<totfact> 0.38059799E+02</totfact>
</mgrwt>
</event>
<event>
 5    1  0.1430314E-002  0.1249998E+03  0.7818608E-02  0.1235070E+00
         -4   -1    0    0    0  501 -0.00000000000E+00  0.00000000000E+00  0.17543233920E+02  0.17589143140E+02  0.12700000000E+01 0. -1.
          4   -1    0    0  501    0  0.00000000000E+00 -0.00000000000E+00 -0.22232493768E+03  0.22232856500E+03  0.12700000000E+01 0. -1.
         25    2    1    2    0    0  0.00000000000E+00  0.00000000000E+00 -0.20478170376E+03  0.23991770814E+03  0.12499984194E+03 0.  0.
    9000005    1    3    3    0    0  0.19777219128E+02 -0.45083551343E+02 -0.17626877516E+03  0.18301733823E+03  0.10000000000E+01 0.  0.
    9000005    1    3    3    0    0 -0.19777219128E+02  0.45083551343E+02 -0.28512928605E+02  0.56900369909E+02  0.10000000000E+01 0.  0.
<mgrwt>
<rscale>  0 0.12499984E+03</rscale>
<asrwt>0</asrwt>
<pdfrwt beam="2">  1        4 0.55587418E-01 0.12499984E+03</pdfrwt>
<pdfrwt beam="1">  1       -4 0.43920012E-02 0.12499984E+03</pdfrwt>
<totfact> 0.14839342E+03</totfact>
</mgrwt>
</event>
<event>
 5    1  0.1430314E-002  0.1249974E+03  0.7818608E-02  0.1235073E+00
          4   -1    0    0  501    0  0.00000000000E+00  0.00000000000E+00  0.40891360326E+03  0.40891557543E+03  0.12700000000E+01 0. -1.
         -4   -1    0    0    0  501 -0.00000000000E+00 -0.00000000000E+00 -0.95081320480E+01  0.95925739529E+01  0.12700000000E+01 0. -1.
         25    2    1    2    0    0  0.00000000000E+00  0.00000000000E+00  0.39940547121E+03  0.41850814939E+03  0.12499736264E+03 0.  0.
    9000005    1    3    3    0    0  0.63910223768E+01  0.61779454630E+02  0.22278763702E+03  0.23128527275E+03  0.10000000000E+01 0.  0.
    9000005    1    3    3    0    0 -0.63910223768E+01 -0.61779454630E+02  0.17661783419E+03  0.18722287663E+03  0.10000000000E+01 0.  0.
<mgrwt>
<rscale>  0 0.12499736E+03</rscale>
<asrwt>0</asrwt>
<pdfrwt beam="1">  1        4 0.10223920E+00 0.12499736E+03</pdfrwt>
<pdfrwt beam="2">  1       -4 0.23878348E-02 0.12499736E+03</pdfrwt>
<totfact> 0.10196181E+03</totfact>
</mgrwt>
</event>
<event>
 5    1  0.1430314E-002  0.1250018E+03  0.7818608E-02  0.1235066E+00
         -4   -1    0    0    0  501 -0.00000000000E+00  0.00000000000E+00  0.12231565239E+02  0.12297320366E+02  0.12700000000E+01 0. -1.
          4   -1    0    0  501    0  0.00000000000E+00 -0.00000000000E+00 -0.31844409264E+03  0.31844662510E+03  0.12700000000E+01 0. -1.
         25    2    1    2    0    0  0.00000000000E+00  0.00000000000E+00 -0.30621252740E+03  0.33074394546E+03  0.12500178209E+03 0.  0.
    9000005    1    3    3    0    0 -0.57452391185E+02 -0.21136204480E+02 -0.11986396120E+03  0.13459526584E+03  0.10000000000E+01 0.  0.
    9000005    1    3    3    0    0  0.57452391185E+02  0.21136204480E+02 -0.18634856620E+03  0.19614867963E+03  0.10000000000E+01 0.  0.
<mgrwt>
<rscale>  0 0.12500178E+03</rscale>
<asrwt>0</asrwt>
<pdfrwt beam="2">  1        4 0.79619532E-01 0.12500178E+03</pdfrwt>
<pdfrwt beam="1">  1       -4 0.30664283E-02 0.12500178E+03</pdfrwt>
<totfact> 0.12150645E+03</totfact>
</mgrwt>
</event>
<event>
 5    1  0.1430314E-002  0.1250018E+03  0.7818608E-02  0.1235066E+00
          4   -1    0    0  501    0  0.00000000000E+00  0.00000000000E+00  0.13783003577E+02  0.13841390378E+02  0.12700000000E+01 0.  1.
         -4   -1    0    0    0  501 -0.00000000000E+00 -0.00000000000E+00 -0.28275989944E+03  0.28276275150E+03  0.12700000000E+01 0.  1.
         25    2    1    2    0    0  0.00000000000E+00  0.00000000000E+00 -0.26897689587E+03  0.29660414187E+03  0.12500178585E+03 0.  0.
    9000005    1    3    3    0    0 -0.62068175733E+02 -0.69860458157E+01 -0.13929202844E+03  0.15265822107E+03  0.10000000000E+01 0.  0.
    9000005    1    3    3    0    0  0.62068175733E+02  0.69860458157E+01 -0.12968486743E+03  0.14394592080E+03  0.10000000000E+01 0.  0.
<mgrwt>
<rscale>  0 0.12500179E+03</rscale>
<asrwt>0</asrwt>
<pdfrwt beam="1">  1        4 0.34534067E-02 0.12500179E+03</pdfrwt>
<pdfrwt beam="2">  1       -4 0.70697611E-01 0.12500179E+03</pdfrwt>
<totfact> 0.13066235E+03</totfact>
</mgrwt>
</event>
<event>
 5    1  0.1430314E-002  0.1249971E+03  0.7818608E-02  0.1235074E+00
          4   -1    0    0  501    0  0.00000000000E+00  0.00000000000E+00  0.30031925273E+03  0.30032193802E+03  0.12700000000E+01 0. -1.
         -4   -1    0    0    0  501 -0.00000000000E+00 -0.00000000000E+00 -0.12972630245E+02  0.13034647500E+02  0.12700000000E+01 0. -1.
         25    2    1    2    0    0  0.00000000000E+00  0.00000000000E+00  0.28734662248E+03  0.31335658552E+03  0.12499707292E+03 0.  0.
    9000005    1    3    3    0    0  0.35971253016E+02  0.43029506176E+02  0.21276579088E+03  0.22003579530E+03  0.10000000000E+01 0.  0.
    9000005    1    3    3    0    0 -0.35971253016E+02 -0.43029506176E+02  0.74580831604E+02  0.93320790224E+02  0.10000000000E+01 0.  0.
<mgrwt>
<rscale>  0 0.12499707E+03</rscale>
<asrwt>0</asrwt>
<pdfrwt beam="1">  1        4 0.75087901E-01 0.12499707E+03</pdfrwt>
<pdfrwt beam="2">  1       -4 0.32512454E-02 0.12499707E+03</pdfrwt>
<totfact> 0.12605645E+03</totfact>
</mgrwt>
</event>
<event>
 5    1  0.1430314E-002  0.1249935E+03  0.7818608E-02  0.1235079E+00
         -4   -1    0    0    0  501 -0.00000000000E+00  0.00000000000E+00  0.14606137837E+02  0.14661246963E+02  0.12700000000E+01 0. -1.
          4   -1    0    0  501    0  0.00000000000E+00 -0.00000000000E+00 -0.26685101098E+03  0.26685403306E+03  0.12700000000E+01 0. -1.
         25    2    1    2    0    0  0.00000000000E+00  0.00000000000E+00 -0.25224487314E+03  0.28151528002E+03  0.12499350727E+03 0.  0.
    9000005    1    3    3    0    0 -0.22372186537E+02 -0.53576627665E+02 -0.74082820055E+02  0.94128815937E+02  0.10000000000E+01 0.  0.
    9000005    1    3    3    0    0  0.22372186537E+02  0.53576627665E+02 -0.17816205308E+03  0.18738646408E+03  0.10000000000E+01 0.  0.
<mgrwt>
<rscale>  0 0.12499351E+03</rscale>
<asrwt>0</asrwt>
<pdfrwt beam="2">  1        4 0.66720003E-01 0.12499351E+03</pdfrwt>
<pdfrwt beam="1">  1       -4 0.36588017E-02 0.12499351E+03</pdfrwt>
<totfact> 0.13507423E+03</totfact>
</mgrwt>
</event>
<event>
 5    1  0.1430314E-002  0.1250003E+03  0.7818608E-02  0.1235069E+00
          4   -1    0    0  501    0  0.00000000000E+00  0.00000000000E+00  0.90642102906E+03  0.90642191877E+03  0.12700000000E+01 0.  1.
         -4   -1    0    0    0  501 -0.00000000000E+00 -0.00000000000E+00 -0.42150722139E+01  0.44022419025E+01  0.12700000000E+01 0.  1.
         25    2    1    2    0    0  0.00000000000E+00  0.00000000000E+00  0.90220595685E+03  0.91082416067E+03  0.12500025237E+03 0.  0.
    9000005    1    3    3    0    0  0.15370851143E+02 -0.54264115568E+02  0.25498590124E+03  0.26115065984E+03  0.10000000000E+01 0.  0.
    9000005    1    3    3    0    0 -0.15370851143E+02  0.54264115568E+02  0.64722005561E+03  0.64967350084E+03  0.10000000000E+01 0.  0.
<mgrwt>
<rscale>  0 0.12500025E+03</rscale>
<asrwt>0</asrwt>
<pdfrwt beam="1">  1        4 0.22662868E+00 0.12500025E+03</pdfrwt>
<pdfrwt beam="2">  1       -4 0.10772759E-02 0.12500025E+03</pdfrwt>
<totfact> 0.43454522E+02</totfact>
</mgrwt>
</event>
<event>
 5    1  0.1430314E-002  0.1249999E+03  0.7818608E-02  0.1235070E+00
         -4   -1    0    0    0  501 -0.00000000000E+00  0.00000000000E+00  0.63823744762E+02  0.63836379091E+02  0.12700000000E+01 0. -1.
          4   -1    0    0  501    0  0.00000000000E+00 -0.00000000000E+00 -0.61178290382E+02  0.61191470925E+02  0.12700000000E+01 0. -1.
         25    2    1    2    0    0  0.00000000000E+00  0.00000000000E+00  0.26454543802E+01  0.12502785002E+03  0.12499985940E+03 0.  0.
    9000005    1    3    3    0    0  0.27559781184E+02  0.30711243724E+02  0.48264240715E+02  0.63507156777E+02  0.10000000000E+01 0.  0.
    9000005    1    3    3    0    0 -0.27559781184E+02 -0.30711243724E+02 -0.45618786335E+02  0.61520693240E+02  0.10000000000E+01 0.  0.
<mgrwt>
<rscale>  0 0.12499986E+03</rscale>
<asrwt>0</asrwt>
<pdfrwt beam="2">  1        4 0.15297799E-01 0.12499986E+03</pdfrwt>
<pdfrwt beam="1">  1       -4 0.15959163E-01 0.12499986E+03</pdfrwt>
<totfact> 0.19833610E+03</totfact>
</mgrwt>
</event>
<event>
 5    1  0.1430314E-002  0.1250022E+03  0.7818608E-02  0.1235066E+00
          4   -1    0    0  501    0  0.00000000000E+00  0.00000000000E+00  0.16214579977E+03  0.16215077330E+03  0.12700000000E+01 0. -1.
         -4   -1    0    0    0  501 -0.00000000000E+00 -0.00000000000E+00 -0.24069734686E+02  0.24103216131E+02  0.12700000000E+01 0. -1.
         25    2    1    2    0    0  0.00000000000E+00  0.00000000000E+00  0.13807606508E+03  0.18625398943E+03  0.12500219530E+03 0.  0.
    9000005    1    3    3    0    0 -0.29919416180E+02  0.24166851479E+02 -0.43540761911E+01  0.38719067065E+02  0.10000000000E+01 0.  0.
    9000005    1    3    3    0    0  0.29919416180E+02 -0.24166851479E+02  0.14243014127E+03  0.14753492237E+03  0.10000000000E+01 0.  0.
<mgrwt>
<rscale>  0 0.12500220E+03</rscale>
<asrwt>0</asrwt>
<pdfrwt beam="1">  1        4 0.40541256E-01 0.12500220E+03</pdfrwt>
<pdfrwt beam="2">  1       -4 0.60222406E-02 0.12500220E+03</pdfrwt>
<totfact> 0.16886806E+03</totfact>
</mgrwt>
</event>
<event>
 5    1  0.1430314E-002  0.1249992E+03  0.7818608E-02  0.1235071E+00
         -4   -1    0    0    0  501 -0.00000000000E+00  0.00000000000E+00  0.22234800380E+03  0.22235163074E+03  0.12700000000E+01 0.  1.
          4   -1    0    0  501    0  0.00000000000E+00 -0.00000000000E+00 -0.17541232020E+02  0.17587146465E+02  0.12700000000E+01 0.  1.
         25    2    1    2    0    0  0.00000000000E+00  0.00000000000E+00  0.20480677178E+03  0.23993877721E+03  0.12499921216E+03 0.  0.
    9000005    1    3    3    0    0  0.16055277431E+02  0.31557978904E+02  0.35615398600E+01  0.35600035563E+02  0.10000000000E+01 0.  0.
    9000005    1    3    3    0    0 -0.16055277431E+02 -0.31557978904E+02  0.20124523192E+03  0.20433874164E+03  0.10000000000E+01 0.  0.
<mgrwt>
<rscale>  0 0.12499921E+03</rscale>
<asrwt>0</asrwt>
<pdfrwt beam="2">  1        4 0.43915007E-02 0.12499921E+03</pdfrwt>
<pdfrwt beam="1">  1       -4 0.55593193E-01 0.12499921E+03</pdfrwt>
<totfact> 0.14838830E+03</totfact>
</mgrwt>
</event>
<event>
 5    1  0.1430314E-002  0.1250054E+03  0.7818608E-02  0.1235061E+00
         -4   -1    0    0    0  501 -0.00000000000E+00  0.00000000000E+00  0.24868989479E+03  0.24869313756E+03  0.12700000000E+01 0.  1.
          4   -1    0    0  501    0  0.00000000000E+00 -0.00000000000E+00 -0.15679649333E+02  0.15730998163E+02  0.12700000000E+01 0.  1.
         25    2    1    2    0    0  0.00000000000E+00  0.00000000000E+00  0.23301024545E+03  0.26442413572E+03  0.12500539615E+03 0.  0.
    9000005    1    3    3    0    0  0.17801762418E+02 -0.21097029990E-01 -0.10213354859E+02  0.20547890591E+02  0.10000000000E+01 0.  0.
    9000005    1    3    3    0    0 -0.17801762418E+02  0.21097029990E-01  0.24322360031E+03  0.24387624513E+03  0.10000000000E+01 0.  0.
<mgrwt>
<rscale>  0 0.12500540E+03</rscale>
<asrwt>0</asrwt>
<pdfrwt beam="2">  1        4 0.39267363E-02 0.12500540E+03</pdfrwt>
<pdfrwt beam="1">  1       -4 0.62179297E-01 0.12500540E+03</pdfrwt>
<totfact> 0.14028442E+03</totfact>
</mgrwt>
</event>
<event>
 5    1  0.1430314E-002  0.1250040E+03  0.7818608E-02  0.1235063E+00
          4   -1    0    0  501    0  0.00000000000E+00  0.00000000000E+00  0.18523018420E+02  0.18566505094E+02  0.12700000000E+01 0. -1.
         -4   -1    0    0    0  501 -0.00000000000E+00 -0.00000000000E+00 -0.21060700657E+03  0.21061083571E+03  0.12700000000E+01 0. -1.
         25    2    1    2    0    0  0.00000000000E+00  0.00000000000E+00 -0.19208398815E+03  0.22917734080E+03  0.12500398007E+03 0.  0.
    9000005    1    3    3    0    0  0.23683919074E+02 -0.45887333691E+02 -0.31510747794E+02  0.60502087918E+02  0.10000000000E+01 0.  0.
    9000005    1    3    3    0    0 -0.23683919074E+02  0.45887333691E+02 -0.16057324036E+03  0.16867525288E+03  0.10000000000E+01 0.  0.
<mgrwt>
<rscale>  0 0.12500398E+03</rscale>
<asrwt>0</asrwt>
<pdfrwt beam="1">  1        4 0.46366697E-02 0.12500398E+03</pdfrwt>
<pdfrwt beam="2">  1       -4 0.52657659E-01 0.12500398E+03</pdfrwt>
<totfact> 0.15215356E+03</totfact>
</mgrwt>
</event>
<event>
 5    1  0.1430314E-002  0.1249986E+03  0.7818608E-02  0.1235071E+00
          4   -1    0    0  501    0  0.00000000000E+00  0.00000000000E+00  0.58010110420E+01  0.59384029090E+01  0.12700000000E+01 0. -1.
         -4   -1    0    0    0  501 -0.00000000000E+00 -0.00000000000E+00 -0.66534045671E+03  0.66534166879E+03  0.12700000000E+01 0. -1.
         25    2    1    2    0    0  0.00000000000E+00  0.00000000000E+00 -0.65953944566E+03  0.67128007170E+03  0.12499861709E+03 0.  0.
    9000005    1    3    3    0    0 -0.18106504915E+02 -0.38684530174E+02 -0.57474166359E+03  0.57632744014E+03  0.10000000000E+01 0.  0.
    9000005    1    3    3    0    0  0.18106504915E+02  0.38684530174E+02 -0.84797782072E+02  0.94952631556E+02  0.10000000000E+01 0.  0.
<mgrwt>
<rscale>  0 0.12499862E+03</rscale>
<asrwt>0</asrwt>
<pdfrwt beam="1">  1        4 0.14675805E-02 0.12499862E+03</pdfrwt>
<pdfrwt beam="2">  1       -4 0.16635218E+00 0.12499862E+03</pdfrwt>
<totfact> 0.65129899E+02</totfact>
</mgrwt>
</event>
<event>
 5    1  0.1430314E-002  0.1249947E+03  0.7818608E-02  0.1235078E+00
         -4   -1    0    0    0  501 -0.00000000000E+00  0.00000000000E+00  0.37645872907E+02  0.37667288818E+02  0.12700000000E+01 0.  1.
          4   -1    0    0  501    0  0.00000000000E+00 -0.00000000000E+00 -0.10369936141E+03  0.10370713792E+03  0.12700000000E+01 0.  1.
         25    2    1    2    0    0  0.00000000000E+00  0.00000000000E+00 -0.66053488500E+02  0.14137442674E+03  0.12499466066E+03 0.  0.
    9000005    1    3    3    0    0  0.34030124129E+02  0.24011616354E+02  0.19664712282E+02  0.46068513947E+02  0.10000000000E+01 0.  0.
    9000005    1    3    3    0    0 -0.34030124129E+02 -0.24011616354E+02 -0.85718200782E+02  0.95305912794E+02  0.10000000000E+01 0.  0.
<mgrwt>
<rscale>  0 0.12499466E+03</rscale>
<asrwt>0</asrwt>
<pdfrwt beam="2">  1        4 0.25928489E-01 0.12499466E+03</pdfrwt>
<pdfrwt beam="1">  1       -4 0.94151175E-02 0.12499466E+03</pdfrwt>
<totfact> 0.18972610E+03</totfact>
</mgrwt>
</event>
<event>
 5    1  0.1430314E-002  0.1250213E+03  0.7818608E-02  0.1235036E+00
         -4   -1    0    0    0  501 -0.00000000000E+00  0.00000000000E+00  0.69257219214E+03  0.69257335657E+03  0.12700000000E+01 0. -1.
          4   -1    0    0  501    0  0.00000000000E+00 -0.00000000000E+00 -0.55694804815E+01  0.57124436832E+01  0.12700000000E+01 0. -1.
         25    2    1    2    0    0  0.00000000000E+00  0.00000000000E+00  0.68700271166E+03  0.69828580025E+03  0.12502133020E+03 0.  0.
    9000005    1    3    3    0    0 -0.55029756754E+02  0.62987146595E+01  0.18175456640E+03  0.19000965855E+03  0.10000000000E+01 0.  0.
    9000005    1    3    3    0    0  0.55029756754E+02 -0.62987146595E+01  0.50524814526E+03  0.50827614170E+03  0.10000000000E+01 0.  0.
<mgrwt>
<rscale>  0 0.12502133E+03</rscale>
<asrwt>0</asrwt>
<pdfrwt beam="2">  1        4 0.14103857E-02 0.12502133E+03</pdfrwt>
<pdfrwt beam="1">  1       -4 0.17316112E+00 0.12502133E+03</pdfrwt>
<totfact> 0.62214289E+02</totfact>
</mgrwt>
</event>
<event>
 5    1  0.1430314E-002  0.1249977E+03  0.7818608E-02  0.1235073E+00
          4   -1    0    0  501    0  0.00000000000E+00  0.00000000000E+00  0.13647785460E+03  0.13648376349E+03  0.12700000000E+01 0.  1.
         -4   -1    0    0    0  501 -0.00000000000E+00 -0.00000000000E+00 -0.28600189730E+02  0.28628373209E+02  0.12700000000E+01 0.  1.
         25    2    1    2    0    0  0.00000000000E+00  0.00000000000E+00  0.10787766487E+03  0.16511213670E+03  0.12499770841E+03 0.  0.
    9000005    1    3    3    0    0 -0.12133621264E+02 -0.60176990331E+02  0.38499762753E+02  0.72468797853E+02  0.10000000000E+01 0.  0.
    9000005    1    3    3    0    0  0.12133621264E+02  0.60176990331E+02  0.69377902121E+02  0.92643338849E+02  0.10000000000E+01 0.  0.
<mgrwt>
<rscale>  0 0.12499771E+03</rscale>
<asrwt>0</asrwt>
<pdfrwt beam="1">  1        4 0.34123725E-01 0.12499771E+03</pdfrwt>
<pdfrwt beam="2">  1       -4 0.71543091E-02 0.12499771E+03</pdfrwt>
<totfact> 0.17820739E+03</totfact>
</mgrwt>
</event>
<event>
 5    1  0.1430314E-002  0.1249997E+03  0.7818608E-02  0.1235070E+00
         -4   -1    0    0    0  501 -0.00000000000E+00  0.00000000000E+00  0.15949244562E+04  0.15949249618E+04  0.12700000000E+01 0. -1.
          4   -1    0    0  501    0  0.00000000000E+00 -0.00000000000E+00 -0.22839840729E+01  0.26133280018E+01  0.12700000000E+01 0. -1.
         25    2    1    2    0    0  0.00000000000E+00  0.00000000000E+00  0.15926404721E+04  0.15975382898E+04  0.12499965615E+03 0.  0.
    9000005    1    3    3    0    0  0.29755128230E+02  0.50011051519E+02  0.10874079318E+04  0.10889644085E+04  0.10000000000E+01 0.  0.
    9000005    1    3    3    0    0 -0.29755128230E+02 -0.50011051519E+02  0.50523254035E+03  0.50857388132E+03  0.10000000000E+01 0.  0.
<mgrwt>
<rscale>  0 0.12499966E+03</rscale>
<asrwt>0</asrwt>
<pdfrwt beam="2">  1        4 0.61222630E-03 0.12499966E+03</pdfrwt>
<pdfrwt beam="1">  1       -4 0.39877294E+00 0.12499966E+03</pdfrwt>
<totfact> 0.95679632E+01</totfact>
</mgrwt>
</event>
<event>
 5    1  0.1430314E-002  0.1249994E+03  0.7818608E-02  0.1235070E+00
          4   -1    0    0  501    0  0.00000000000E+00  0.00000000000E+00  0.23062983105E+03  0.23063332775E+03  0.12700000000E+01 0.  1.
         -4   -1    0    0    0  501 -0.00000000000E+00 -0.00000000000E+00 -0.16909701611E+02  0.16957326104E+02  0.12700000000E+01 0.  1.
         25    2    1    2    0    0  0.00000000000E+00  0.00000000000E+00  0.21372012944E+03  0.24759065386E+03  0.12499935260E+03 0.  0.
    9000005    1    3    3    0    0 -0.24100721278E+02  0.25593848037E+02  0.45244553408E+01  0.35459279739E+02  0.10000000000E+01 0.  0.
    9000005    1    3    3    0    0  0.24100721278E+02 -0.25593848037E+02  0.20919567410E+03  0.21213137412E+03  0.10000000000E+01 0.  0.
<mgrwt>
<rscale>  0 0.12499935E+03</rscale>
<asrwt>0</asrwt>
<pdfrwt beam="1">  1        4 0.57663849E-01 0.12499935E+03</pdfrwt>
<pdfrwt beam="2">  1       -4 0.42338155E-02 0.12499935E+03</pdfrwt>
<totfact> 0.14578693E+03</totfact>
</mgrwt>
</event>
<event>
 5    1  0.1430314E-002  0.1249992E+03  0.7818608E-02  0.1235071E+00
         -4   -1    0    0    0  501 -0.00000000000E+00  0.00000000000E+00  0.91699652760E+03  0.91699740705E+03  0.12700000000E+01 0. -1.
          4   -1    0    0  501    0  0.00000000000E+00 -0.00000000000E+00 -0.41642153480E+01  0.43535720351E+01  0.12700000000E+01 0. -1.
         25    2    1    2    0    0  0.00000000000E+00  0.00000000000E+00  0.91283231226E+03  0.92135097909E+03  0.12499918545E+03 0.  0.
    9000005    1    3    3    0    0  0.21963904024E+02 -0.43253308615E+02  0.74678833609E+03  0.74836293381E+03  0.10000000000E+01 0.  0.
    9000005    1    3    3    0    0 -0.21963904024E+02  0.43253308615E+02  0.16604397617E+03  0.17298804527E+03  0.10000000000E+01 0.  0.
<mgrwt>
<rscale>  0 0.12499919E+03</rscale>
<asrwt>0</asrwt>
<pdfrwt beam="2">  1        4 0.10648334E-02 0.12499919E+03</pdfrwt>
<pdfrwt beam="1">  1       -4 0.22927289E+00 0.12499919E+03</pdfrwt>
<totfact> 0.42668935E+02</totfact>
</mgrwt>
</event>
<event>
 5    1  0.1430314E-002  0.1249990E+03  0.7818608E-02  0.1235071E+00
         -4   -1    0    0    0  501 -0.00000000000E+00  0.00000000000E+00  0.70350766792E+02  0.70362229131E+02  0.12700000000E+01 0. -1.
          4   -1    0    0  501    0  0.00000000000E+00 -0.00000000000E+00 -0.55501235410E+02  0.55515763815E+02  0.12700000000E+01 0. -1.
         25    2    1    2    0    0  0.00000000000E+00  0.00000000000E+00  0.14849531382E+02  0.12587799295E+03  0.12499904210E+03 0.  0.
    9000005    1    3    3    0    0 -0.43883510717E+01  0.13584566564E+02 -0.53842100852E+02  0.55711488025E+02  0.10000000000E+01 0.  0.
    9000005    1    3    3    0    0  0.43883510717E+01 -0.13584566564E+02  0.68691632234E+02  0.70166504921E+02  0.10000000000E+01 0.  0.
<mgrwt>
<rscale>  0 0.12499904E+03</rscale>
<asrwt>0</asrwt>
<pdfrwt beam="2">  1        4 0.13878558E-01 0.12499904E+03</pdfrwt>
<pdfrwt beam="1">  1       -4 0.17590941E-01 0.12499904E+03</pdfrwt>
<totfact> 0.19787958E+03</totfact>
</mgrwt>
</event>
<event>
 5    1  0.1430314E-002  0.1249983E+03  0.7818608E-02  0.1235072E+00
          4   -1    0    0  501    0  0.00000000000E+00  0.00000000000E+00  0.61035564119E+01  0.62342843113E+01  0.12700000000E+01 0. -1.
         -4   -1    0    0    0  501 -0.00000000000E+00 -0.00000000000E+00 -0.63306542741E+03  0.63306670129E+03  0.12700000000E+01 0. -1.
         25    2    1    2    0    0  0.00000000000E+00  0.00000000000E+00 -0.62696187100E+03  0.63930098560E+03  0.12499825001E+03 0.  0.
    9000005    1    3    3    0    0 -0.16943767222E+01 -0.21426156396E+02 -0.61359193000E+03  0.61396906083E+03  0.10000000000E+01 0.  0.
    9000005    1    3    3    0    0  0.16943767222E+01  0.21426156396E+02 -0.13369940992E+02  0.25331924769E+02  0.10000000000E+01 0.  0.
<mgrwt>
<rscale>  0 0.12499825E+03</rscale>
<asrwt>0</asrwt>
<pdfrwt beam="1">  1        4 0.15423915E-02 0.12499825E+03</pdfrwt>
<pdfrwt beam="2">  1       -4 0.15828264E+00 0.12499825E+03</pdfrwt>
<totfact> 0.68751413E+02</totfact>
</mgrwt>
</event>
<event>
 5    1  0.1430314E-002  0.1250052E+03  0.7818608E-02  0.1235061E+00
         -4   -1    0    0    0  501 -0.00000000000E+00  0.00000000000E+00  0.17005076730E+03  0.17005550964E+03  0.12700000000E+01 0. -1.
          4   -1    0    0  501    0  0.00000000000E+00 -0.00000000000E+00 -0.22950389938E+02  0.22985501915E+02  0.12700000000E+01 0. -1.
         25    2    1    2    0    0  0.00000000000E+00  0.00000000000E+00  0.14710037736E+03  0.19304101155E+03  0.12500524438E+03 0.  0.
    9000005    1    3    3    0    0  0.50219086268E+02 -0.37185374883E+02  0.74989794831E+02  0.97617508980E+02  0.10000000000E+01 0.  0.
    9000005    1    3    3    0    0 -0.50219086268E+02  0.37185374883E+02  0.72110582527E+02  0.95423502572E+02  0.10000000000E+01 0.  0.
<mgrwt>
<rscale>  0 0.12500524E+03</rscale>
<asrwt>0</asrwt>
<pdfrwt beam="2">  1        4 0.57425795E-02 0.12500524E+03</pdfrwt>
<pdfrwt beam="1">  1       -4 0.42517672E-01 0.12500524E+03</pdfrwt>
<totfact> 0.16602520E+03</totfact>
</mgrwt>
</event>
<event>
 5    1  0.1430314E-002  0.1249998E+03  0.7818608E-02  0.1235070E+00
         -4   -1    0    0    0  501 -0.00000000000E+00  0.00000000000E+00  0.12475260939E+02  0.12539738254E+02  0.12700000000E+01 0.  1.
          4   -1    0    0  501    0  0.00000000000E+00 -0.00000000000E+00 -0.31224592275E+03  0.31224850548E+03  0.12700000000E+01 0.  1.
         25    2    1    2    0    0  0.00000000000E+00  0.00000000000E+00 -0.29977066181E+03  0.32478824373E+03  0.12499981434E+03 0.  0.
    9000005    1    3    3    0    0  0.32004275634E+02  0.64806736237E+01 -0.11442331936E+02  0.34615022023E+02  0.10000000000E+01 0.  0.
    9000005    1    3    3    0    0 -0.32004275634E+02 -0.64806736237E+01 -0.28832832988E+03  0.29017322171E+03  0.10000000000E+01 0.  0.
<mgrwt>
<rscale>  0 0.12499981E+03</rscale>
<asrwt>0</asrwt>
<pdfrwt beam="2">  1        4 0.78069838E-01 0.12499981E+03</pdfrwt>
<pdfrwt beam="1">  1       -4 0.31271988E-02 0.12499981E+03</pdfrwt>
<totfact> 0.12303750E+03</totfact>
</mgrwt>
</event>
<event>
 5    1  0.1430314E-002  0.1250021E+03  0.7818608E-02  0.1235066E+00
         -4   -1    0    0    0  501 -0.00000000000E+00  0.00000000000E+00  0.48497126289E+03  0.48497292577E+03  0.12700000000E+01 0.  1.
          4   -1    0    0  501    0  0.00000000000E+00 -0.00000000000E+00 -0.80031214076E+01  0.81032618287E+01  0.12700000000E+01 0.  1.
         25    2    1    2    0    0  0.00000000000E+00  0.00000000000E+00  0.47696814148E+03  0.49307618760E+03  0.12500207513E+03 0.  0.
    9000005    1    3    3    0    0  0.24449702828E+02  0.40427721470E+02  0.77133845835E+02  0.90458934357E+02  0.10000000000E+01 0.  0.
    9000005    1    3    3    0    0 -0.24449702828E+02 -0.40427721470E+02  0.39983429565E+03  0.40261725324E+03  0.10000000000E+01 0.  0.
<mgrwt>
<rscale>  0 0.12500208E+03</rscale>
<asrwt>0</asrwt>
<pdfrwt beam="2">  1        4 0.20135058E-02 0.12500208E+03</pdfrwt>
<pdfrwt beam="1">  1       -4 0.12125554E+00 0.12500208E+03</pdfrwt>
<totfact> 0.88714347E+02</totfact>
</mgrwt>
</event>
<event>
 5    1  0.1430314E-002  0.1249926E+03  0.7818608E-02  0.1235081E+00
         -4   -1    0    0    0  501 -0.00000000000E+00  0.00000000000E+00  0.36705065847E+03  0.36705285557E+03  0.12700000000E+01 0. -1.
          4   -1    0    0  501    0  0.00000000000E+00 -0.00000000000E+00 -0.10600879607E+02  0.10676682464E+02  0.12700000000E+01 0. -1.
         25    2    1    2    0    0  0.00000000000E+00  0.00000000000E+00  0.35644977886E+03  0.37772953803E+03  0.12499263599E+03 0.  0.
    9000005    1    3    3    0    0  0.42722484109E-01 -0.19004448672E+02  0.35812027484E+03  0.35862557375E+03  0.10000000000E+01 0.  0.
    9000005    1    3    3    0    0 -0.42722484109E-01  0.19004448672E+02 -0.16704959807E+01  0.19103964284E+02  0.10000000000E+01 0.  0.
<mgrwt>
<rscale>  0 0.12499264E+03</rscale>
<asrwt>0</asrwt>
<pdfrwt beam="2">  1        4 0.26599699E-02 0.12499264E+03</pdfrwt>
<pdfrwt beam="1">  1       -4 0.91772416E-01 0.12499264E+03</pdfrwt>
<totfact> 0.11044645E+03</totfact>
</mgrwt>
</event>
<event>
 5    1  0.1430314E-002  0.1249992E+03  0.7818608E-02  0.1235071E+00
         -4   -1    0    0    0  501 -0.00000000000E+00  0.00000000000E+00  0.39554865740E+02  0.39575248625E+02  0.12700000000E+01 0.  1.
          4   -1    0    0  501    0  0.00000000000E+00 -0.00000000000E+00 -0.98704051668E+02  0.98712221714E+02  0.12700000000E+01 0.  1.
         25    2    1    2    0    0  0.00000000000E+00  0.00000000000E+00 -0.59149185929E+02  0.13828747034E+03  0.12499919302E+03 0.  0.
    9000005    1    3    3    0    0 -0.40239278840E+01 -0.16402915897E+02  0.36987508380E+02  0.40673374850E+02  0.10000000000E+01 0.  0.
    9000005    1    3    3    0    0  0.40239278840E+01  0.16402915897E+02 -0.96136694308E+02  0.97614095489E+02  0.10000000000E+01 0.  0.
<mgrwt>
<rscale>  0 0.12499919E+03</rscale>
<asrwt>0</asrwt>
<pdfrwt beam="2">  1        4 0.24679582E-01 0.12499919E+03</pdfrwt>
<pdfrwt beam="1">  1       -4 0.98922857E-02 0.12499919E+03</pdfrwt>
<totfact> 0.19128658E+03</totfact>
</mgrwt>
</event>
<event>
 5    1  0.1430314E-002  0.1249971E+03  0.7818608E-02  0.1235074E+00
          4   -1    0    0  501    0  0.00000000000E+00  0.00000000000E+00  0.58900875920E+01  0.60254486838E+01  0.12700000000E+01 0. -1.
         -4   -1    0    0    0  501 -0.00000000000E+00 -0.00000000000E+00 -0.65549019897E+03  0.65549142927E+03  0.12700000000E+01 0. -1.
         25    2    1    2    0    0  0.00000000000E+00  0.00000000000E+00 -0.64960011138E+03  0.66151687796E+03  0.12499710043E+03 0.  0.
    9000005    1    3    3    0    0 -0.21007397326E+02 -0.13107663411E+02 -0.62844595521E+03  0.62893436876E+03  0.10000000000E+01 0.  0.
    9000005    1    3    3    0    0  0.21007397326E+02  0.13107663411E+02 -0.21154156172E+02  0.32582509201E+02  0.10000000000E+01 0.  0.
<mgrwt>
<rscale>  0 0.12499710E+03</rscale>
<asrwt>0</asrwt>
<pdfrwt beam="1">  1        4 0.14895981E-02 0.12499710E+03</pdfrwt>
<pdfrwt beam="2">  1       -4 0.16388938E+00 0.12499710E+03</pdfrwt>
<totfact> 0.66212869E+02</totfact>
</mgrwt>
</event>
<event>
 4    1  0.1430314E-002  0.1249389E+03  0.7818608E-02  0.1235165E+00
          4   -1    0    0  501    0  0.00000000000E+00  0.00000000000E+00  0.18989333169E+03  0.18989757850E+03  0.12700000000E+01 0. -1.
         -4   -1    0    0    0  501 -0.00000000000E+00 -0.00000000000E+00 -0.20526567480E+02  0.20565818061E+02  0.12700000000E+01 0. -1.
    9000005    1    1    2    0    0 -0.43009998438E+02 -0.25460014832E+02  0.21578390489E+02  0.54449051938E+02  0.10000000000E+01 0.  0.
    9000005    1    1    2    0    0  0.43009998438E+02  0.25460014832E+02  0.14778837372E+03  0.15601434462E+03  0.10000000000E+01 0.  0.
<mgrwt>
<rscale>  0 0.12493895E+03</rscale>
<asrwt>0</asrwt>
<pdfrwt beam="1">  1        4 0.47478770E-01 0.12493895E+03</pdfrwt>
<pdfrwt beam="2">  1       -4 0.51370791E-02 0.12493895E+03</pdfrwt>
<totfact> 0.15933929E+03</totfact>
</mgrwt>
</event>
<event>
 5    1  0.1430314E-002  0.1249582E+03  0.7818608E-02  0.1235135E+00
          4   -1    0    0  501    0  0.00000000000E+00  0.00000000000E+00  0.40730126540E+02  0.40749921570E+02  0.12700000000E+01 0. -1.
         -4   -1    0    0    0  501 -0.00000000000E+00 -0.00000000000E+00 -0.95794230889E+02  0.95802649084E+02  0.12700000000E+01 0. -1.
         25    2    1    2    0    0  0.00000000000E+00  0.00000000000E+00 -0.55064104349E+02  0.13655257065E+03  0.12495818886E+03 0.  0.
    9000005    1    3    3    0    0  0.59612974288E+02 -0.17398002982E+02 -0.34962999991E+02  0.71272775865E+02  0.10000000000E+01 0.  0.
    9000005    1    3    3    0    0 -0.59612974288E+02  0.17398002982E+02 -0.20101104358E+02  0.65279794789E+02  0.10000000000E+01 0.  0.
<mgrwt>
<rscale>  0 0.12495819E+03</rscale>
<asrwt>0</asrwt>
<pdfrwt beam="1">  1        4 0.10186058E-01 0.12495819E+03</pdfrwt>
<pdfrwt beam="2">  1       -4 0.23952084E-01 0.12495819E+03</pdfrwt>
<totfact> 0.19236878E+03</totfact>
</mgrwt>
</event>
<event>
 5    1  0.1430314E-002  0.1250085E+03  0.7818608E-02  0.1235056E+00
         -4   -1    0    0    0  501 -0.00000000000E+00  0.00000000000E+00  0.43687871179E+01  0.45496374451E+01  0.12700000000E+01 0. -1.
          4   -1    0    0  501    0  0.00000000000E+00 -0.00000000000E+00 -0.87593328922E+03  0.87593420990E+03  0.12700000000E+01 0. -1.
         25    2    1    2    0    0  0.00000000000E+00  0.00000000000E+00 -0.87156450210E+03  0.88048384734E+03  0.12500849612E+03 0.  0.
    9000005    1    3    3    0    0  0.55943395635E+02  0.17677050133E+02 -0.28412190790E+03  0.29011790735E+03  0.10000000000E+01 0.  0.
    9000005    1    3    3    0    0 -0.55943395635E+02 -0.17677050133E+02 -0.58744259421E+03  0.59036594000E+03  0.10000000000E+01 0.  0.
<mgrwt>
<rscale>  0 0.12500850E+03</rscale>
<asrwt>0</asrwt>
<pdfrwt beam="2">  1        4 0.21900546E+00 0.12500850E+03</pdfrwt>
<pdfrwt beam="1">  1       -4 0.11149211E-02 0.12500850E+03</pdfrwt>
<totfact> 0.45776331E+02</totfact>
</mgrwt>
</event>
<event>
 5    1  0.1430314E-002  0.1249998E+03  0.7818608E-02  0.1235070E+00
         -4   -1    0    0    0  501 -0.00000000000E+00  0.00000000000E+00  0.68479030638E+03  0.68479148404E+03  0.12700000000E+01 0.  1.
          4   -1    0    0  501    0  0.00000000000E+00 -0.00000000000E+00 -0.56323951398E+01  0.57738007422E+01  0.12700000000E+01 0.  1.
         25    2    1    2    0    0  0.00000000000E+00  0.00000000000E+00  0.67915791124E+03  0.69056528478E+03  0.12499977658E+03 0.  0.
    9000005    1    3    3    0    0 -0.39069483528E+02  0.43888402609E+02  0.22204531512E+03  0.22969052744E+03  0.10000000000E+01 0.  0.
    9000005    1    3    3    0    0  0.39069483528E+02 -0.43888402609E+02  0.45711259612E+03  0.46087475734E+03  0.10000000000E+01 0.  0.
<mgrwt>
<rscale>  0 0.12499978E+03</rscale>
<asrwt>0</asrwt>
<pdfrwt beam="2">  1        4 0.14259214E-02 0.12499978E+03</pdfrwt>
<pdfrwt beam="1">  1       -4 0.17121543E+00 0.12499978E+03</pdfrwt>
<totfact> 0.63053750E+02</totfact>
</mgrwt>
</event>
<event>
 5    1  0.1430314E-002  0.1249974E+03  0.7818608E-02  0.1235073E+00
         -4   -1    0    0    0  501 -0.00000000000E+00  0.00000000000E+00  0.42820753912E+02  0.42839582930E+02  0.12700000000E+01 0. -1.
          4   -1    0    0  501    0  0.00000000000E+00 -0.00000000000E+00 -0.91176240501E+02  0.91185085030E+02  0.12700000000E+01 0. -1.
         25    2    1    2    0    0  0.00000000000E+00  0.00000000000E+00 -0.48355486589E+02  0.13402466796E+03  0.12499743413E+03 0.  0.
    9000005    1    3    3    0    0 -0.12488845466E+02  0.56997993356E+02 -0.19386857438E+00  0.58359061787E+02  0.10000000000E+01 0.  0.
    9000005    1    3    3    0    0  0.12488845466E+02 -0.56997993356E+02 -0.48161618015E+02  0.75665606173E+02  0.10000000000E+01 0.  0.
<mgrwt>
<rscale>  0 0.12499743E+03</rscale>
<asrwt>0</asrwt>
<pdfrwt beam="2">  1        4 0.22797519E-01 0.12499743E+03</pdfrwt>
<pdfrwt beam="1">  1       -4 0.10708648E-01 0.12499743E+03</pdfrwt>
<totfact> 0.19351505E+03</totfact>
</mgrwt>
</event>
<event>
 5    1  0.1430314E-002  0.1249989E+03  0.7818608E-02  0.1235071E+00
         -4   -1    0    0    0  501 -0.00000000000E+00  0.00000000000E+00  0.22389391381E+03  0.22389751571E+03  0.12700000000E+01 0.  1.
          4   -1    0    0  501    0  0.00000000000E+00 -0.00000000000E+00 -0.17419725934E+02  0.17465959796E+02  0.12700000000E+01 0.  1.
         25    2    1    2    0    0  0.00000000000E+00  0.00000000000E+00  0.20647418787E+03  0.24136347550E+03  0.12499894819E+03 0.  0.
    9000005    1    3    3    0    0 -0.30679269344E+02  0.51682901142E+02  0.70193774258E+02  0.92414856936E+02  0.10000000000E+01 0.  0.
    9000005    1    3    3    0    0  0.30679269344E+02 -0.51682901142E+02  0.13628041361E+03  0.14894861857E+03  0.10000000000E+01 0.  0.
<mgrwt>
<rscale>  0 0.12499895E+03</rscale>
<asrwt>0</asrwt>
<pdfrwt beam="2">  1        4 0.43611610E-02 0.12499895E+03</pdfrwt>
<pdfrwt beam="1">  1       -4 0.55979707E-01 0.12499895E+03</pdfrwt>
<totfact> 0.14789951E+03</totfact>
</mgrwt>
</event>
<event>
 5    1  0.1430314E-002  0.1250014E+03  0.7818608E-02  0.1235067E+00
         -4   -1    0    0    0  501 -0.00000000000E+00  0.00000000000E+00  0.40680168422E+02  0.40699987750E+02  0.12700000000E+01 0. -1.
          4   -1    0    0  501    0  0.00000000000E+00 -0.00000000000E+00 -0.95978195704E+02  0.95986597766E+02  0.12700000000E+01 0. -1.
         25    2    1    2    0    0  0.00000000000E+00  0.00000000000E+00 -0.55298027282E+02  0.13668658552E+03  0.12500140335E+03 0.  0.
    9000005    1    3    3    0    0 -0.27178197226E+02  0.92705790009E+01 -0.88341999913E+02  0.92897292684E+02  0.10000000000E+01 0.  0.
    9000005    1    3    3    0    0  0.27178197226E+02 -0.92705790009E+01  0.33043972631E+02  0.43789292831E+02  0.10000000000E+01 0.  0.
<mgrwt>
<rscale>  0 0.12500140E+03</rscale>
<asrwt>0</asrwt>
<pdfrwt beam="2">  1        4 0.23998076E-01 0.12500140E+03</pdfrwt>
<pdfrwt beam="1">  1       -4 0.10173570E-01 0.12500140E+03</pdfrwt>
<totfact> 0.19210528E+03</totfact>
</mgrwt>
</event>
<event>
 5    1  0.1430314E-002  0.1250027E+03  0.7818608E-02  0.1235065E+00
         -4   -1    0    0    0  501 -0.00000000000E+00  0.00000000000E+00  0.49242046620E+02  0.49258421162E+02  0.12700000000E+01 0. -1.
          4   -1    0    0  501    0  0.00000000000E+00 -0.00000000000E+00 -0.79296268664E+02  0.79306438099E+02  0.12700000000E+01 0. -1.
         25    2    1    2    0    0  0.00000000000E+00  0.00000000000E+00 -0.30054222044E+02  0.12856485926E+03  0.12500266707E+03 0.  0.
    9000005    1    3    3    0    0  0.91984782673E+01 -0.46701714371E+02 -0.56674945422E+02  0.74018319125E+02  0.10000000000E+01 0.  0.
    9000005    1    3    3    0    0 -0.91984782673E+01  0.46701714371E+02  0.26620723378E+02  0.54546540136E+02  0.10000000000E+01 0.  0.
<mgrwt>
<rscale>  0 0.12500267E+03</rscale>
<asrwt>0</asrwt>
<pdfrwt beam="2">  1        4 0.19827385E-01 0.12500267E+03</pdfrwt>
<pdfrwt beam="1">  1       -4 0.12313830E-01 0.12500267E+03</pdfrwt>
<totfact> 0.19640633E+03</totfact>
</mgrwt>
</event>
<event>
 5    1  0.1430314E-002  0.1250016E+03  0.7818608E-02  0.1235067E+00
          4   -1    0    0  501    0  0.00000000000E+00  0.00000000000E+00  0.22786239646E+03  0.22786593563E+03  0.12700000000E+01 0.  1.
         -4   -1    0    0    0  501 -0.00000000000E+00 -0.00000000000E+00 -0.17116262996E+02  0.17163314335E+02  0.12700000000E+01 0.  1.
         25    2    1    2    0    0  0.00000000000E+00  0.00000000000E+00  0.21074613346E+03  0.24502924996E+03  0.12500160226E+03 0.  0.
    9000005    1    3    3    0    0  0.12515039881E+02  0.39041434878E+02  0.12920790716E+02  0.42997752189E+02  0.10000000000E+01 0.  0.
    9000005    1    3    3    0    0 -0.12515039881E+02 -0.39041434878E+02  0.19782534275E+03  0.20203149777E+03  0.10000000000E+01 0.  0.
<mgrwt>
<rscale>  0 0.12500160E+03</rscale>
<asrwt>0</asrwt>
<pdfrwt beam="1">  1        4 0.56971923E-01 0.12500160E+03</pdfrwt>
<pdfrwt beam="2">  1       -4 0.42853895E-02 0.12500160E+03</pdfrwt>
<totfact> 0.14664206E+03</totfact>
</mgrwt>
</event>
<event>
 5    1  0.1430314E-002  0.1250188E+03  0.7818608E-02  0.1235040E+00
          4   -1    0    0  501    0  0.00000000000E+00  0.00000000000E+00  0.90046588084E+01  0.90937770072E+01  0.12700000000E+01 0. -1.
         -4   -1    0    0    0  501 -0.00000000000E+00 -0.00000000000E+00 -0.43170695630E+03  0.43170882434E+03  0.12700000000E+01 0. -1.
         25    2    1    2    0    0  0.00000000000E+00  0.00000000000E+00 -0.42270229749E+03  0.44080260135E+03  0.12501880280E+03 0.  0.
    9000005    1    3    3    0    0  0.28061864211E+02 -0.36825776281E+02 -0.35938897665E+03  0.36236037664E+03  0.10000000000E+01 0.  0.
    9000005    1    3    3    0    0 -0.28061864211E+02  0.36825776281E+02 -0.63313320837E+02  0.78442224708E+02  0.10000000000E+01 0.  0.
<mgrwt>
<rscale>  0 0.12501880E+03</rscale>
<asrwt>0</asrwt>
<pdfrwt beam="1">  1        4 0.22625394E-02 0.12501880E+03</pdfrwt>
<pdfrwt beam="2">  1       -4 0.10793804E+00 0.12501880E+03</pdfrwt>
<totfact> 0.97650341E+02</totfact>
</mgrwt>
</event>
<event>
 5    1  0.1430314E-002  0.1249986E+03  0.7818608E-02  0.1235072E+00
         -4   -1    0    0    0  501 -0.00000000000E+00  0.00000000000E+00  0.20428983092E+02  0.20468420803E+02  0.12700000000E+01 0. -1.
          4   -1    0    0  501    0  0.00000000000E+00 -0.00000000000E+00 -0.19098090290E+03  0.19098512553E+03  0.12700000000E+01 0. -1.
         25    2    1    2    0    0  0.00000000000E+00  0.00000000000E+00 -0.17055191981E+03  0.21145354633E+03  0.12499857961E+03 0.  0.
    9000005    1    3    3    0    0 -0.69159313683E+01  0.54465514892E+02 -0.13576643520E+03  0.14645083594E+03  0.10000000000E+01 0.  0.
    9000005    1    3    3    0    0  0.69159313683E+01 -0.54465514892E+02 -0.34785484605E+02  0.65002710393E+02  0.10000000000E+01 0.  0.
<mgrwt>
<rscale>  0 0.12499858E+03</rscale>
<asrwt>0</asrwt>
<pdfrwt beam="2">  1        4 0.47750678E-01 0.12499858E+03</pdfrwt>
<pdfrwt beam="1">  1       -4 0.51127039E-02 0.12499858E+03</pdfrwt>
<totfact> 0.15873991E+03</totfact>
</mgrwt>
</event>
<event>
 5    1  0.1430314E-002  0.1249979E+03  0.7818608E-02  0.1235073E+00
          4   -1    0    0  501    0  0.00000000000E+00  0.00000000000E+00  0.42865588304E+01  0.44707366962E+01  0.12700000000E+01 0.  1.
         -4   -1    0    0    0  501 -0.00000000000E+00 -0.00000000000E+00 -0.89189927377E+03  0.89190017797E+03  0.12700000000E+01 0.  1.
         25    2    1    2    0    0  0.00000000000E+00  0.00000000000E+00 -0.88761271494E+03  0.89637091466E+03  0.12499793969E+03 0.  0.
    9000005    1    3    3    0    0 -0.33070651386E+02 -0.50480732860E+02 -0.56013472845E+03  0.56337721501E+03  0.10000000000E+01 0.  0.
    9000005    1    3    3    0    0  0.33070651386E+02  0.50480732860E+02 -0.32747798649E+03  0.33299369966E+03  0.10000000000E+01 0.  0.
<mgrwt>
<rscale>  0 0.12499794E+03</rscale>
<asrwt>0</asrwt>
<pdfrwt beam="1">  1        4 0.10947780E-02 0.12499794E+03</pdfrwt>
<pdfrwt beam="2">  1       -4 0.22299733E+00 0.12499794E+03</pdfrwt>
<totfact> 0.44554635E+02</totfact>
</mgrwt>
</event>
<event>
 5    1  0.1430314E-002  0.1250042E+03  0.7818608E-02  0.1235063E+00
         -4   -1    0    0    0  501 -0.00000000000E+00  0.00000000000E+00  0.17068951081E+03  0.17069423541E+03  0.12700000000E+01 0.  1.
          4   -1    0    0  501    0  0.00000000000E+00 -0.00000000000E+00 -0.22863981691E+02  0.22899226161E+02  0.12700000000E+01 0.  1.
         25    2    1    2    0    0  0.00000000000E+00  0.00000000000E+00  0.14782552912E+03  0.19359346157E+03  0.12500416514E+03 0.  0.
    9000005    1    3    3    0    0 -0.36128841639E+02 -0.45200841002E+02  0.37358907487E+02  0.68884665886E+02  0.10000000000E+01 0.  0.
    9000005    1    3    3    0    0  0.36128841639E+02  0.45200841002E+02  0.11046662163E+03  0.12470879568E+03  0.10000000000E+01 0.  0.
<mgrwt>
<rscale>  0 0.12500417E+03</rscale>
<asrwt>0</asrwt>
<pdfrwt beam="2">  1        4 0.57209916E-02 0.12500417E+03</pdfrwt>
<pdfrwt beam="1">  1       -4 0.42677373E-01 0.12500417E+03</pdfrwt>
<totfact> 0.16580226E+03</totfact>
</mgrwt>
</event>
<event>
 5    1  0.1430314E-002  0.1250174E+03  0.7818608E-02  0.1235042E+00
          4   -1    0    0  501    0  0.00000000000E+00  0.00000000000E+00  0.17309661780E+03  0.17310127670E+03  0.12700000000E+01 0.  1.
         -4   -1    0    0    0  501 -0.00000000000E+00 -0.00000000000E+00 -0.22550337834E+02  0.22586071735E+02  0.12700000000E+01 0.  1.
         25    2    1    2    0    0  0.00000000000E+00  0.00000000000E+00  0.15054627997E+03  0.19568734843E+03  0.12501742248E+03 0.  0.
    9000005    1    3    3    0    0 -0.26530867058E+02 -0.53913536458E+02  0.48352922531E+02  0.77133400272E+02  0.10000000000E+01 0.  0.
    9000005    1    3    3    0    0  0.26530867058E+02  0.53913536458E+02  0.10219335744E+03  0.11855394816E+03  0.10000000000E+01 0.  0.
<mgrwt>
<rscale>  0 0.12501742E+03</rscale>
<asrwt>0</asrwt>
<pdfrwt beam="1">  1        4 0.43279203E-01 0.12501742E+03</pdfrwt>
<pdfrwt beam="2">  1       -4 0.56426337E-02 0.12501742E+03</pdfrwt>
<totfact> 0.16489548E+03</totfact>
</mgrwt>
</event>
<event>
 5    1  0.1430314E-002  0.1249975E+03  0.7818608E-02  0.1235073E+00
         -4   -1    0    0    0  501 -0.00000000000E+00  0.00000000000E+00  0.35346392405E+02  0.35369200670E+02  0.12700000000E+01 0.  1.
          4   -1    0    0  501    0  0.00000000000E+00 -0.00000000000E+00 -0.11044679785E+03  0.11045409932E+03  0.12700000000E+01 0.  1.
         25    2    1    2    0    0  0.00000000000E+00  0.00000000000E+00 -0.75100405448E+02  0.14582329999E+03  0.12499745566E+03 0.  0.
    9000005    1    3    3    0    0 -0.61634808802E+02  0.58485859474E+01 -0.47451648980E+02  0.78010990280E+02  0.10000000000E+01 0.  0.
    9000005    1    3    3    0    0  0.61634808802E+02 -0.58485859474E+01 -0.27648756468E+02  0.67812309707E+02  0.10000000000E+01 0.  0.
<mgrwt>
<rscale>  0 0.12499746E+03</rscale>
<asrwt>0</asrwt>
<pdfrwt beam="2">  1        4 0.27615462E-01 0.12499746E+03</pdfrwt>
<pdfrwt beam="1">  1       -4 0.88403621E-02 0.12499746E+03</pdfrwt>
<totfact> 0.18747185E+03</totfact>
</mgrwt>
</event>
<event>
 5    1  0.1430314E-002  0.1249927E+03  0.7818608E-02  0.1235081E+00
         -4   -1    0    0    0  501 -0.00000000000E+00  0.00000000000E+00  0.71270437111E+02  0.71281751564E+02  0.12700000000E+01 0. -1.
          4   -1    0    0  501    0  0.00000000000E+00 -0.00000000000E+00 -0.54779423333E+02  0.54794143124E+02  0.12700000000E+01 0. -1.
         25    2    1    2    0    0  0.00000000000E+00  0.00000000000E+00  0.16491013778E+02  0.12607589469E+03  0.12499271053E+03 0.  0.
    9000005    1    3    3    0    0  0.43732420851E+02  0.44518647008E+02  0.49989408253E+01  0.62613289119E+02  0.10000000000E+01 0.  0.
    9000005    1    3    3    0    0 -0.43732420851E+02 -0.44518647008E+02  0.11492072952E+02  0.63462605569E+02  0.10000000000E+01 0.  0.
<mgrwt>
<rscale>  0 0.12499271E+03</rscale>
<asrwt>0</asrwt>
<pdfrwt beam="2">  1        4 0.13698110E-01 0.12499271E+03</pdfrwt>
<pdfrwt beam="1">  1       -4 0.17820863E-01 0.12499271E+03</pdfrwt>
<totfact> 0.19780192E+03</totfact>
</mgrwt>
</event>
<event>
 5    1  0.1430314E-002  0.1249990E+03  0.7818608E-02  0.1235071E+00
         -4   -1    0    0    0  501 -0.00000000000E+00  0.00000000000E+00  0.64165090257E+02  0.64177657387E+02  0.12700000000E+01 0. -1.
          4   -1    0    0  501    0  0.00000000000E+00 -0.00000000000E+00 -0.60851995351E+02  0.60865246555E+02  0.12700000000E+01 0. -1.
         25    2    1    2    0    0  0.00000000000E+00  0.00000000000E+00  0.33130949062E+01  0.12504290394E+03  0.12499900491E+03 0.  0.
    9000005    1    3    3    0    0 -0.46566659210E+02 -0.24269337529E+01 -0.39961477379E+02  0.61418754723E+02  0.10000000000E+01 0.  0.
    9000005    1    3    3    0    0  0.46566659210E+02  0.24269337529E+01  0.43274572285E+02  0.63624149219E+02  0.10000000000E+01 0.  0.
<mgrwt>
<rscale>  0 0.12499900E+03</rscale>
<asrwt>0</asrwt>
<pdfrwt beam="2">  1        4 0.15216226E-01 0.12499900E+03</pdfrwt>
<pdfrwt beam="1">  1       -4 0.16044500E-01 0.12499900E+03</pdfrwt>
<totfact> 0.19833191E+03</totfact>
</mgrwt>
</event>
<event>
 5    1  0.1430314E-002  0.1249944E+03  0.7818608E-02  0.1235078E+00
          4   -1    0    0  501    0  0.00000000000E+00  0.00000000000E+00  0.10626136412E+03  0.10626895316E+03  0.12700000000E+01 0. -1.
         -4   -1    0    0    0  501 -0.00000000000E+00 -0.00000000000E+00 -0.36737614239E+02  0.36759559301E+02  0.12700000000E+01 0. -1.
         25    2    1    2    0    0  0.00000000000E+00  0.00000000000E+00  0.69523749884E+02  0.14302851246E+03  0.12499441419E+03 0.  0.
    9000005    1    3    3    0    0 -0.19183106999E+02 -0.59233322574E+02  0.40851633692E+02  0.74474385346E+02  0.10000000000E+01 0.  0.
    9000005    1    3    3    0    0  0.19183106999E+02  0.59233322574E+02  0.28672116192E+02  0.68554127113E+02  0.10000000000E+01 0.  0.
<mgrwt>
<rscale>  0 0.12499441E+03</rscale>
<asrwt>0</asrwt>
<pdfrwt beam="1">  1        4 0.26569033E-01 0.12499441E+03</pdfrwt>
<pdfrwt beam="2">  1       -4 0.91880954E-02 0.12499441E+03</pdfrwt>
<totfact> 0.18888924E+03</totfact>
</mgrwt>
</event>
<event>
 5    1  0.1430314E-002  0.1250049E+03  0.7818608E-02  0.1235062E+00
         -4   -1    0    0    0  501 -0.00000000000E+00  0.00000000000E+00  0.26506587003E+01  0.29391991334E+01  0.12700000000E+01 0.  1.
          4   -1    0    0  501    0  0.00000000000E+00 -0.00000000000E+00 -0.13974416073E+04  0.13974421844E+04  0.12700000000E+01 0.  1.
         25    2    1    2    0    0  0.00000000000E+00  0.00000000000E+00 -0.13947909486E+04  0.14003813835E+04  0.12500491600E+03 0.  0.
    9000005    1    3    3    0    0  0.54293719091E+02 -0.30425880367E+02 -0.63400896270E+03  0.63705722421E+03  0.10000000000E+01 0.  0.
    9000005    1    3    3    0    0 -0.54293719091E+02  0.30425880367E+02 -0.76078198590E+03  0.76332415932E+03  0.10000000000E+01 0.  0.
<mgrwt>
<rscale>  0 0.12500492E+03</rscale>
<asrwt>0</asrwt>
<pdfrwt beam="2">  1        4 0.34939415E+00 0.12500492E+03</pdfrwt>
<pdfrwt beam="1">  1       -4 0.69880916E-03 0.12500492E+03</pdfrwt>
<totfact> 0.16072059E+02</totfact>
</mgrwt>
</event>
<event>
 5    1  0.1430314E-002  0.1250001E+03  0.7818608E-02  0.1235069E+00
          4   -1    0    0  501    0  0.00000000000E+00  0.00000000000E+00  0.12199394338E+03  0.12200055378E+03  0.12700000000E+01 0. -1.
         -4   -1    0    0    0  501 -0.00000000000E+00 -0.00000000000E+00 -0.32000027933E+02  0.32025219558E+02  0.12700000000E+01 0. -1.
         25    2    1    2    0    0  0.00000000000E+00  0.00000000000E+00  0.89993915448E+02  0.15402577333E+03  0.12500013613E+03 0.  0.
    9000005    1    3    3    0    0  0.13206590962E+02  0.29904564609E+02 -0.20629507426E+02  0.38668767836E+02  0.10000000000E+01 0.  0.
    9000005    1    3    3    0    0 -0.13206590962E+02 -0.29904564609E+02  0.11062342287E+03  0.11535700550E+03  0.10000000000E+01 0.  0.
<mgrwt>
<rscale>  0 0.12500014E+03</rscale>
<asrwt>0</asrwt>
<pdfrwt beam="1">  1        4 0.30502461E-01 0.12500014E+03</pdfrwt>
<pdfrwt beam="2">  1       -4 0.80039823E-02 0.12500014E+03</pdfrwt>
<totfact> 0.18342531E+03</totfact>
</mgrwt>
</event>
<event>
 5    1  0.1430314E-002  0.1250006E+03  0.7818608E-02  0.1235068E+00
         -4   -1    0    0    0  501 -0.00000000000E+00  0.00000000000E+00  0.83980722229E+03  0.83980818257E+03  0.12700000000E+01 0. -1.
          4   -1    0    0  501    0  0.00000000000E+00 -0.00000000000E+00 -0.45637395463E+01  0.47371530106E+01  0.12700000000E+01 0. -1.
         25    2    1    2    0    0  0.00000000000E+00  0.00000000000E+00  0.83524348274E+03  0.84454533558E+03  0.12500059353E+03 0.  0.
    9000005    1    3    3    0    0 -0.14800745810E+02  0.24237716240E+02  0.41520530048E+02  0.50313848795E+02  0.10000000000E+01 0.  0.
    9000005    1    3    3    0    0  0.14800745810E+02 -0.24237716240E+02  0.79372295269E+03  0.79423148678E+03  0.10000000000E+01 0.  0.
<mgrwt>
<rscale>  0 0.12500059E+03</rscale>
<asrwt>0</asrwt>
<pdfrwt beam="2">  1        4 0.11627314E-02 0.12500059E+03</pdfrwt>
<pdfrwt beam="1">  1       -4 0.20997365E+00 0.12500059E+03</pdfrwt>
<totfact> 0.48679144E+02</totfact>
</mgrwt>
</event>
<event>
 5    1  0.1430314E-002  0.1249949E+03  0.7818608E-02  0.1235077E+00
          4   -1    0    0  501    0  0.00000000000E+00  0.00000000000E+00  0.26036945483E+02  0.26067900377E+02  0.12700000000E+01 0.  1.
         -4   -1    0    0    0  501 -0.00000000000E+00 -0.00000000000E+00 -0.14989217077E+03  0.14989755088E+03  0.12700000000E+01 0.  1.
         25    2    1    2    0    0  0.00000000000E+00  0.00000000000E+00 -0.12385522529E+03  0.17596545125E+03  0.12499489271E+03 0.  0.
    9000005    1    3    3    0    0 -0.52255096419E+02 -0.26132463731E+02 -0.30719608932E+02  0.66016627719E+02  0.10000000000E+01 0.  0.
    9000005    1    3    3    0    0  0.52255096419E+02  0.26132463731E+02 -0.93135616356E+02  0.10994882353E+03  0.10000000000E+01 0.  0.
<mgrwt>
<rscale>  0 0.12499489E+03</rscale>
<asrwt>0</asrwt>
<pdfrwt beam="1">  1        4 0.65137787E-02 0.12499489E+03</pdfrwt>
<pdfrwt beam="2">  1       -4 0.37477582E-01 0.12499489E+03</pdfrwt>
<totfact> 0.17333342E+03</totfact>
</mgrwt>
</event>
<event>
 5    1  0.1430314E-002  0.1249982E+03  0.7818608E-02  0.1235072E+00
          4   -1    0    0  501    0  0.00000000000E+00  0.00000000000E+00  0.51465244405E+02  0.51480911818E+02  0.12700000000E+01 0. -1.
         -4   -1    0    0    0  501 -0.00000000000E+00 -0.00000000000E+00 -0.75866043364E+02  0.75876672540E+02  0.12700000000E+01 0. -1.
         25    2    1    2    0    0  0.00000000000E+00  0.00000000000E+00 -0.24400798959E+02  0.12735758436E+03  0.12499822120E+03 0.  0.
    9000005    1    3    3    0    0 -0.22691979382E+02 -0.19929558889E+01 -0.71490189697E+02  0.75038290388E+02  0.10000000000E+01 0.  0.
    9000005    1    3    3    0    0  0.22691979382E+02  0.19929558889E+01  0.47089390738E+02  0.52319293970E+02  0.10000000000E+01 0.  0.
<mgrwt>
<rscale>  0 0.12499822E+03</rscale>
<asrwt>0</asrwt>
<pdfrwt beam="1">  1        4 0.12869598E-01 0.12499822E+03</pdfrwt>
<pdfrwt beam="2">  1       -4 0.18969798E-01 0.12499822E+03</pdfrwt>
<totfact> 0.19708382E+03</totfact>
</mgrwt>
</event>
<event>
 5    1  0.1430314E-002  0.1250012E+03  0.7818608E-02  0.1235067E+00
          4   -1    0    0  501    0  0.00000000000E+00  0.00000000000E+00  0.21068099090E+02  0.21106342631E+02  0.12700000000E+01 0.  1.
         -4   -1    0    0    0  501 -0.00000000000E+00 -0.00000000000E+00 -0.18520574873E+03  0.18521010303E+03  0.12700000000E+01 0.  1.
         25    2    1    2    0    0  0.00000000000E+00  0.00000000000E+00 -0.16413764964E+03  0.20631644566E+03  0.12500123087E+03 0.  0.
    9000005    1    3    3    0    0  0.28762278902E+02 -0.47747656851E+02 -0.12870046878E+03  0.14025661513E+03  0.10000000000E+01 0.  0.
    9000005    1    3    3    0    0 -0.28762278902E+02  0.47747656851E+02 -0.35437180860E+02  0.66059830531E+02  0.10000000000E+01 0.  0.
<mgrwt>
<rscale>  0 0.12500123E+03</rscale>
<asrwt>0</asrwt>
<pdfrwt beam="1">  1        4 0.52723501E-02 0.12500123E+03</pdfrwt>
<pdfrwt beam="2">  1       -4 0.46306757E-01 0.12500123E+03</pdfrwt>
<totfact> 0.16071751E+03</totfact>
</mgrwt>
</event>
<event>
 5    1  0.1430314E-002  0.1249992E+03  0.7818608E-02  0.1235071E+00
          4   -1    0    0  501    0  0.00000000000E+00  0.00000000000E+00  0.11593735162E+03  0.11594430732E+03  0.12700000000E+01 0.  1.
         -4   -1    0    0    0  501 -0.00000000000E+00 -0.00000000000E+00 -0.33672378747E+02  0.33696320133E+02  0.12700000000E+01 0.  1.
         25    2    1    2    0    0  0.00000000000E+00  0.00000000000E+00  0.82264972872E+02  0.14964062746E+03  0.12499916649E+03 0.  0.
    9000005    1    3    3    0    0 -0.93587798363E+01  0.58835713993E+02  0.18545980885E+02  0.62403376576E+02  0.10000000000E+01 0.  0.
    9000005    1    3    3    0    0  0.93587798363E+01 -0.58835713993E+02  0.63718991987E+02  0.87237250879E+02  0.10000000000E+01 0.  0.
<mgrwt>
<rscale>  0 0.12499917E+03</rscale>
<asrwt>0</asrwt>
<pdfrwt beam="1">  1        4 0.28988200E-01 0.12499917E+03</pdfrwt>
<pdfrwt beam="2">  1       -4 0.84219569E-02 0.12499917E+03</pdfrwt>
<totfact> 0.18556825E+03</totfact>
</mgrwt>
</event>
<event>
 5    1  0.1430314E-002  0.1250007E+03  0.7818608E-02  0.1235068E+00
          4   -1    0    0  501    0  0.00000000000E+00  0.00000000000E+00  0.94069717526E+02  0.94078290033E+02  0.12700000000E+01 0. -1.
         -4   -1    0    0    0  501 -0.00000000000E+00 -0.00000000000E+00 -0.41505363068E+02  0.41524788542E+02  0.12700000000E+01 0. -1.
         25    2    1    2    0    0  0.00000000000E+00  0.00000000000E+00  0.52564354458E+02  0.13560307857E+03  0.12500073423E+03 0.  0.
    9000005    1    3    3    0    0  0.48195038692E+02  0.35707843488E+01  0.69263213679E+02  0.84462447422E+02  0.10000000000E+01 0.  0.
    9000005    1    3    3    0    0 -0.48195038692E+02 -0.35707843488E+01 -0.16698859221E+02  0.51140631152E+02  0.10000000000E+01 0.  0.
<mgrwt>
<rscale>  0 0.12500073E+03</rscale>
<asrwt>0</asrwt>
<pdfrwt beam="1">  1        4 0.23520929E-01 0.12500073E+03</pdfrwt>
<pdfrwt beam="2">  1       -4 0.10379841E-01 0.12500073E+03</pdfrwt>
<totfact> 0.19267265E+03</totfact>
</mgrwt>
</event>
<event>
 5    1  0.1430314E-002  0.1250314E+03  0.7818608E-02  0.1235020E+00
         -4   -1    0    0    0  501 -0.00000000000E+00  0.00000000000E+00  0.23878812992E+03  0.23879150716E+03  0.12700000000E+01 0. -1.
          4   -1    0    0  501    0  0.00000000000E+00 -0.00000000000E+00 -0.16338728177E+02  0.16388012034E+02  0.12700000000E+01 0. -1.
         25    2    1    2    0    0  0.00000000000E+00  0.00000000000E+00  0.22244940175E+03  0.25517951920E+03  0.12503139877E+03 0.  0.
    9000005    1    3    3    0    0  0.60635369678E+02  0.37592585421E+01  0.81199352685E+02  0.10141555580E+03  0.10000000000E+01 0.  0.
    9000005    1    3    3    0    0 -0.60635369678E+02 -0.37592585421E+01  0.14125004906E+03  0.15376396340E+03  0.10000000000E+01 0.  0.
<mgrwt>
<rscale>  0 0.12503140E+03</rscale>
<asrwt>0</asrwt>
<pdfrwt beam="2">  1        4 0.40912647E-02 0.12503140E+03</pdfrwt>
<pdfrwt beam="1">  1       -4 0.59703614E-01 0.12503140E+03</pdfrwt>
<totfact> 0.14316923E+03</totfact>
</mgrwt>
</event>
<event>
 5    1  0.1430314E-002  0.1250073E+03  0.7818608E-02  0.1235058E+00
          4   -1    0    0  501    0  0.00000000000E+00  0.00000000000E+00  0.20096536511E+02  0.20136625331E+02  0.12700000000E+01 0. -1.
         -4   -1    0    0    0  501 -0.00000000000E+00 -0.00000000000E+00 -0.19416126881E+03  0.19416542227E+03  0.12700000000E+01 0. -1.
         25    2    1    2    0    0  0.00000000000E+00  0.00000000000E+00 -0.17406473230E+03  0.21430204760E+03  0.12500734609E+03 0.  0.
    9000005    1    3    3    0    0 -0.13824663453E+02 -0.12333078690E+02  0.15289201534E+02  0.24041335926E+02  0.10000000000E+01 0.  0.
    9000005    1    3    3    0    0  0.13824663453E+02  0.12333078690E+02 -0.18935393383E+03  0.19026071168E+03  0.10000000000E+01 0.  0.
<mgrwt>
<rscale>  0 0.12500735E+03</rscale>
<asrwt>0</asrwt>
<pdfrwt beam="1">  1        4 0.50296650E-02 0.12500735E+03</pdfrwt>
<pdfrwt beam="2">  1       -4 0.48545842E-01 0.12500735E+03</pdfrwt>
<totfact> 0.15762271E+03</totfact>
</mgrwt>
</event>
<event>
 5    1  0.1430314E-002  0.1250021E+03  0.7818608E-02  0.1235066E+00
         -4   -1    0    0    0  501 -0.00000000000E+00  0.00000000000E+00  0.46829332787E+02  0.46846550665E+02  0.12700000000E+01 0.  1.
          4   -1    0    0  501    0  0.00000000000E+00 -0.00000000000E+00 -0.83379991366E+02  0.83389662790E+02  0.12700000000E+01 0.  1.
         25    2    1    2    0    0  0.00000000000E+00  0.00000000000E+00 -0.36550658579E+02  0.13023621346E+03  0.12500208259E+03 0.  0.
    9000005    1    3    3    0    0 -0.49463605501E+02 -0.11337668446E+02  0.19723587422E+02  0.54453750062E+02  0.10000000000E+01 0.  0.
    9000005    1    3    3    0    0  0.49463605501E+02  0.11337668446E+02 -0.56274246002E+02  0.75782463394E+02  0.10000000000E+01 0.  0.
<mgrwt>
<rscale>  0 0.12500208E+03</rscale>
<asrwt>0</asrwt>
<pdfrwt beam="2">  1        4 0.20848359E-01 0.12500208E+03</pdfrwt>
<pdfrwt beam="1">  1       -4 0.11710694E-01 0.12500208E+03</pdfrwt>
<totfact> 0.19550742E+03</totfact>
</mgrwt>
</event>
<event>
 5    1  0.1430314E-002  0.1250008E+03  0.7818608E-02  0.1235068E+00
          4   -1    0    0  501    0  0.00000000000E+00  0.00000000000E+00  0.16182277112E+03  0.16182775459E+03  0.12700000000E+01 0. -1.
         -4   -1    0    0    0  501 -0.00000000000E+00 -0.00000000000E+00 -0.24117291499E+02  0.24150707013E+02  0.12700000000E+01 0. -1.
         25    2    1    2    0    0  0.00000000000E+00  0.00000000000E+00  0.13770547963E+03  0.18597846160E+03  0.12500075624E+03 0.  0.
    9000005    1    3    3    0    0 -0.53725882846E+02  0.12392452135E+02  0.25088257549E+02  0.60584354617E+02  0.10000000000E+01 0.  0.
    9000005    1    3    3    0    0  0.53725882846E+02 -0.12392452135E+02  0.11261722208E+03  0.12539410698E+03  0.10000000000E+01 0.  0.
<mgrwt>
<rscale>  0 0.12500076E+03</rscale>
<asrwt>0</asrwt>
<pdfrwt beam="1">  1        4 0.40460493E-01 0.12500076E+03</pdfrwt>
<pdfrwt beam="2">  1       -4 0.60341228E-02 0.12500076E+03</pdfrwt>
<totfact> 0.16899026E+03</totfact>
</mgrwt>
</event>
<event>
 5    1  0.1430314E-002  0.1250025E+03  0.7818608E-02  0.1235065E+00
         -4   -1    0    0    0  501 -0.00000000000E+00  0.00000000000E+00  0.40278515098E+02  0.40298531965E+02  0.12700000000E+01 0.  1.
          4   -1    0    0  501    0  0.00000000000E+00 -0.00000000000E+00 -0.96936594499E+02  0.96944913497E+02  0.12700000000E+01 0.  1.
         25    2    1    2    0    0  0.00000000000E+00  0.00000000000E+00 -0.56658079400E+02  0.13724344546E+03  0.12500250142E+03 0.  0.
    9000005    1    3    3    0    0  0.27400948156E+02 -0.42906261598E+02 -0.68122551145E+02  0.85049639733E+02  0.10000000000E+01 0.  0.
    9000005    1    3    3    0    0 -0.27400948156E+02  0.42906261598E+02  0.11464471745E+02  0.52193805729E+02  0.10000000000E+01 0.  0.
<mgrwt>
<rscale>  0 0.12500250E+03</rscale>
<asrwt>0</asrwt>
<pdfrwt beam="2">  1        4 0.24237690E-01 0.12500250E+03</pdfrwt>
<pdfrwt beam="1">  1       -4 0.10073171E-01 0.12500250E+03</pdfrwt>
<totfact> 0.19181144E+03</totfact>
</mgrwt>
</event>
<event>
 5    1  0.1430314E-002  0.1249957E+03  0.7818608E-02  0.1235076E+00
         -4   -1    0    0    0  501 -0.00000000000E+00  0.00000000000E+00  0.18843996976E+02  0.18886744612E+02  0.12700000000E+01 0.  1.
          4   -1    0    0  501    0  0.00000000000E+00 -0.00000000000E+00 -0.20700020739E+03  0.20700410325E+03  0.12700000000E+01 0.  1.
         25    2    1    2    0    0  0.00000000000E+00  0.00000000000E+00 -0.18815621042E+03  0.22589084786E+03  0.12499566244E+03 0.  0.
    9000005    1    3    3    0    0  0.46939110969E+02  0.38992767781E+02 -0.11840899940E+03  0.13321188842E+03  0.10000000000E+01 0.  0.
    9000005    1    3    3    0    0 -0.46939110969E+02 -0.38992767781E+02 -0.69747211019E+02  0.92678959439E+02  0.10000000000E+01 0.  0.
<mgrwt>
<rscale>  0 0.12499566E+03</rscale>
<asrwt>0</asrwt>
<pdfrwt beam="2">  1        4 0.51755875E-01 0.12499566E+03</pdfrwt>
<pdfrwt beam="1">  1       -4 0.47168303E-02 0.12499566E+03</pdfrwt>
<totfact> 0.15336795E+03</totfact>
</mgrwt>
</event>
<event>
 5    1  0.1430314E-002  0.1249966E+03  0.7818608E-02  0.1235075E+00
         -4   -1    0    0    0  501 -0.00000000000E+00  0.00000000000E+00  0.40295072820E+03  0.40295272956E+03  0.12700000000E+01 0.  1.
          4   -1    0    0  501    0  0.00000000000E+00 -0.00000000000E+00 -0.96499616218E+01  0.97331731363E+01  0.12700000000E+01 0.  1.
         25    2    1    2    0    0  0.00000000000E+00  0.00000000000E+00  0.39330076658E+03  0.41268590270E+03  0.12499664512E+03 0.  0.
    9000005    1    3    3    0    0 -0.14711579786E+02  0.59867455414E+02  0.16290034428E+03  0.17417825629E+03  0.10000000000E+01 0.  0.
    9000005    1    3    3    0    0  0.14711579786E+02 -0.59867455414E+02  0.23040042231E+03  0.23850764641E+03  0.10000000000E+01 0.  0.
<mgrwt>
<rscale>  0 0.12499665E+03</rscale>
<asrwt>0</asrwt>
<pdfrwt beam="2">  1        4 0.24231421E-02 0.12499665E+03</pdfrwt>
<pdfrwt beam="1">  1       -4 0.10074833E+00 0.12499665E+03</pdfrwt>
<totfact> 0.10312532E+03</totfact>
</mgrwt>
</event>
<event>
 5    1  0.1430314E-002  0.1250134E+03  0.7818608E-02  0.1235048E+00
         -4   -1    0    0    0  501 -0.00000000000E+00  0.00000000000E+00  0.66660025029E+01  0.67859037253E+01  0.12700000000E+01 0.  1.
          4   -1    0    0  501    0  0.00000000000E+00 -0.00000000000E+00 -0.58077618671E+03  0.58077757528E+03  0.12700000000E+01 0.  1.
         25    2    1    2    0    0  0.00000000000E+00  0.00000000000E+00 -0.57411018421E+03  0.58756347901E+03  0.12501335229E+03 0.  0.
    9000005    1    3    3    0    0  0.22384056104E+02  0.93268871798E+01 -0.16323018468E+02  0.29248550802E+02  0.10000000000E+01 0.  0.
    9000005    1    3    3    0    0 -0.22384056104E+02 -0.93268871798E+01 -0.55778716574E+03  0.55831492821E+03  0.10000000000E+01 0.  0.
<mgrwt>
<rscale>  0 0.12501335E+03</rscale>
<asrwt>0</asrwt>
<pdfrwt beam="2">  1        4 0.14520904E+00 0.12501335E+03</pdfrwt>
<pdfrwt beam="1">  1       -4 0.16816638E-02 0.12501335E+03</pdfrwt>
<totfact> 0.75067686E+02</totfact>
</mgrwt>
</event>
<event>
 5    1  0.1430314E-002  0.1250019E+03  0.7818608E-02  0.1235066E+00
         -4   -1    0    0    0  501 -0.00000000000E+00  0.00000000000E+00  0.77367822360E+02  0.77378245242E+02  0.12700000000E+01 0. -1.
          4   -1    0    0  501    0  0.00000000000E+00 -0.00000000000E+00 -0.50469041095E+02  0.50485017669E+02  0.12700000000E+01 0. -1.
         25    2    1    2    0    0  0.00000000000E+00  0.00000000000E+00  0.26898781265E+02  0.12786326291E+03  0.12500187826E+03 0.  0.
    9000005    1    3    3    0    0 -0.96898612453E+01 -0.55752909257E+02 -0.13673364690E+02  0.58225777826E+02  0.10000000000E+01 0.  0.
    9000005    1    3    3    0    0  0.96898612453E+01  0.55752909257E+02  0.40572145955E+02  0.69637485085E+02  0.10000000000E+01 0.  0.
<mgrwt>
<rscale>  0 0.12500188E+03</rscale>
<asrwt>0</asrwt>
<pdfrwt beam="2">  1        4 0.12620560E-01 0.12500188E+03</pdfrwt>
<pdfrwt beam="1">  1       -4 0.19345255E-01 0.12500188E+03</pdfrwt>
<totfact> 0.19679114E+03</totfact>
</mgrwt>
</event>
<event>
 5    1  0.1430314E-002  0.1250005E+03  0.7818608E-02  0.1235068E+00
          4   -1    0    0  501    0  0.00000000000E+00  0.00000000000E+00  0.32743167526E+03  0.32743413821E+03  0.12700000000E+01 0.  1.
         -4   -1    0    0    0  501 -0.00000000000E+00 -0.00000000000E+00 -0.11893753993E+02  0.11961366312E+02  0.12700000000E+01 0.  1.
         25    2    1    2    0    0  0.00000000000E+00  0.00000000000E+00  0.31553792127E+03  0.33939550452E+03  0.12500051492E+03 0.  0.
    9000005    1    3    3    0    0 -0.59100908889E+01  0.28295300734E+02  0.30820237043E+03  0.30955654469E+03  0.10000000000E+01 0.  0.
    9000005    1    3    3    0    0  0.59100908889E+01 -0.28295300734E+02  0.73355508363E+01  0.29838959835E+02  0.10000000000E+01 0.  0.
<mgrwt>
<rscale>  0 0.12500051E+03</rscale>
<asrwt>0</asrwt>
<pdfrwt beam="1">  1        4 0.81866678E-01 0.12500051E+03</pdfrwt>
<pdfrwt beam="2">  1       -4 0.29821979E-02 0.12500051E+03</pdfrwt>
<totfact> 0.11934448E+03</totfact>
</mgrwt>
</event>
<event>
 5    1  0.1430314E-002  0.1249957E+03  0.7818608E-02  0.1235076E+00
          4   -1    0    0  501    0  0.00000000000E+00  0.00000000000E+00  0.27755810904E+03  0.27756101454E+03  0.12700000000E+01 0.  1.
         -4   -1    0    0    0  501 -0.00000000000E+00 -0.00000000000E+00 -0.14041017554E+02  0.14098335858E+02  0.12700000000E+01 0.  1.
         25    2    1    2    0    0  0.00000000000E+00  0.00000000000E+00  0.26351709149E+03  0.29165935040E+03  0.12499567661E+03 0.  0.
    9000005    1    3    3    0    0 -0.20603723361E+02  0.18261922319E+01  0.26935000091E+03  0.27014490812E+03  0.10000000000E+01 0.  0.
    9000005    1    3    3    0    0  0.20603723361E+02 -0.18261922319E+01 -0.58329094202E+01  0.21514442282E+02  0.10000000000E+01 0.  0.
<mgrwt>
<rscale>  0 0.12499568E+03</rscale>
<asrwt>0</asrwt>
<pdfrwt beam="1">  1        4 0.69397055E-01 0.12499568E+03</pdfrwt>
<pdfrwt beam="2">  1       -4 0.35177824E-02 0.12499568E+03</pdfrwt>
<totfact> 0.13209389E+03</totfact>
</mgrwt>
</event>
<event>
 5    1  0.1430314E-002  0.1249917E+03  0.7818608E-02  0.1235082E+00
         -4   -1    0    0    0  501 -0.00000000000E+00  0.00000000000E+00  0.58268688097E+01  0.59636649911E+01  0.12700000000E+01 0. -1.
          4   -1    0    0  501    0  0.00000000000E+00 -0.00000000000E+00 -0.66238211952E+03  0.66238333702E+03  0.12700000000E+01 0. -1.
         25    2    1    2    0    0  0.00000000000E+00  0.00000000000E+00 -0.65655525071E+03  0.66834700201E+03  0.12499167116E+03 0.  0.
    9000005    1    3    3    0    0 -0.60354126286E+02  0.98540745072E+01 -0.39696405733E+03  0.40164808745E+03  0.10000000000E+01 0.  0.
    9000005    1    3    3    0    0  0.60354126286E+02 -0.98540745072E+01 -0.25959119338E+03  0.26669891456E+03  0.10000000000E+01 0.  0.
<mgrwt>
<rscale>  0 0.12499167E+03</rscale>
<asrwt>0</asrwt>
<pdfrwt beam="2">  1        4 0.16561253E+00 0.12499167E+03</pdfrwt>
<pdfrwt beam="1">  1       -4 0.14739712E-02 0.12499167E+03</pdfrwt>
<totfact> 0.65462623E+02</totfact>
</mgrwt>
</event>
<event>
 5    1  0.1430314E-002  0.1249990E+03  0.7818608E-02  0.1235071E+00
         -4   -1    0    0    0  501 -0.00000000000E+00  0.00000000000E+00  0.35658773324E+02  0.35681381910E+02  0.12700000000E+01 0.  1.
          4   -1    0    0  501    0  0.00000000000E+00 -0.00000000000E+00 -0.10948250752E+03  0.10948987329E+03  0.12700000000E+01 0.  1.
         25    2    1    2    0    0  0.00000000000E+00  0.00000000000E+00 -0.73823734192E+02  0.14517125520E+03  0.12499899842E+03 0.  0.
    9000005    1    3    3    0    0 -0.58214514211E+01  0.29343343480E+02 -0.10063198298E+03  0.10498912849E+03  0.10000000000E+01 0.  0.
    9000005    1    3    3    0    0  0.58214514211E+01 -0.29343343480E+02  0.26808248788E+02  0.40182126702E+02  0.10000000000E+01 0.  0.
<mgrwt>
<rscale>  0 0.12499900E+03</rscale>
<asrwt>0</asrwt>
<pdfrwt beam="2">  1        4 0.27374373E-01 0.12499900E+03</pdfrwt>
<pdfrwt beam="1">  1       -4 0.89184404E-02 0.12499900E+03</pdfrwt>
<totfact> 0.18779209E+03</totfact>
</mgrwt>
</event>
<event>
 5    1  0.1430314E-002  0.1250039E+03  0.7818608E-02  0.1235063E+00
          4   -1    0    0  501    0  0.00000000000E+00  0.00000000000E+00  0.52924221564E+01  0.54426677541E+01  0.12700000000E+01 0.  1.
         -4   -1    0    0    0  501 -0.00000000000E+00 -0.00000000000E+00 -0.72764862975E+03  0.72764973804E+03  0.12700000000E+01 0.  1.
         25    2    1    2    0    0  0.00000000000E+00  0.00000000000E+00 -0.72235620759E+03  0.73309240580E+03  0.12500393910E+03 0.  0.
    9000005    1    3    3    0    0  0.10574806123E+02  0.61454169927E+02 -0.38539713157E+03  0.39041054104E+03  0.10000000000E+01 0.  0.
    9000005    1    3    3    0    0 -0.10574806123E+02 -0.61454169927E+02 -0.33695907602E+03  0.34268186476E+03  0.10000000000E+01 0.  0.
<mgrwt>
<rscale>  0 0.12500394E+03</rscale>
<asrwt>0</asrwt>
<pdfrwt beam="1">  1        4 0.13420273E-02 0.12500394E+03</pdfrwt>
<pdfrwt beam="2">  1       -4 0.18193074E+00 0.12500394E+03</pdfrwt>
<totfact> 0.58704402E+02</totfact>
</mgrwt>
</event>
<event>
 5    1  0.1430314E-002  0.1249994E+03  0.7818608E-02  0.1235070E+00
         -4   -1    0    0    0  501 -0.00000000000E+00  0.00000000000E+00  0.67442403443E+03  0.67442523019E+03  0.12700000000E+01 0. -1.
          4   -1    0    0  501    0  0.00000000000E+00 -0.00000000000E+00 -0.57210853932E+01  0.58603513611E+01  0.12700000000E+01 0. -1.
         25    2    1    2    0    0  0.00000000000E+00  0.00000000000E+00  0.66870294903E+03  0.68028558155E+03  0.12499935366E+03 0.  0.
    9000005    1    3    3    0    0 -0.25856564729E+02  0.18067245309E+02  0.40757876103E+02  0.51547955895E+02  0.10000000000E+01 0.  0.
    9000005    1    3    3    0    0  0.25856564729E+02 -0.18067245309E+02  0.62794507293E+03  0.62873762565E+03  0.10000000000E+01 0.  0.
<mgrwt>
<rscale>  0 0.12499935E+03</rscale>
<asrwt>0</asrwt>
<pdfrwt beam="2">  1        4 0.14478289E-02 0.12499935E+03</pdfrwt>
<pdfrwt beam="1">  1       -4 0.16862359E+00 0.12499935E+03</pdfrwt>
<totfact> 0.64150336E+02</totfact>
</mgrwt>
</event>
<event>
 5    1  0.1430314E-002  0.1249996E+03  0.7818608E-02  0.1235070E+00
         -4   -1    0    0    0  501 -0.00000000000E+00  0.00000000000E+00  0.17000979018E+03  0.17001453366E+03  0.12700000000E+01 0.  1.
          4   -1    0    0  501    0  0.00000000000E+00 -0.00000000000E+00 -0.22953867844E+02  0.22988974510E+02  0.12700000000E+01 0.  1.
         25    2    1    2    0    0  0.00000000000E+00  0.00000000000E+00  0.14705592233E+03  0.19300350817E+03  0.12499963949E+03 0.  0.
    9000005    1    3    3    0    0 -0.15362629339E+02  0.48888370925E+02  0.12875047957E+03  0.13857766480E+03  0.10000000000E+01 0.  0.
    9000005    1    3    3    0    0  0.15362629339E+02 -0.48888370925E+02  0.18305442763E+02  0.54425843372E+02  0.10000000000E+01 0.  0.
<mgrwt>
<rscale>  0 0.12499964E+03</rscale>
<asrwt>0</asrwt>
<pdfrwt beam="2">  1        4 0.57434483E-02 0.12499964E+03</pdfrwt>
<pdfrwt beam="1">  1       -4 0.42507428E-01 0.12499964E+03</pdfrwt>
<totfact> 0.16606217E+03</totfact>
</mgrwt>
</event>
<event>
 5    1  0.1430314E-002  0.1250056E+03  0.7818608E-02  0.1235061E+00
          4   -1    0    0  501    0  0.00000000000E+00  0.00000000000E+00  0.24362828999E+02  0.24395908199E+02  0.12700000000E+01 0. -1.
         -4   -1    0    0    0  501 -0.00000000000E+00 -0.00000000000E+00 -0.16020643561E+03  0.16021146935E+03  0.12700000000E+01 0. -1.
         25    2    1    2    0    0  0.00000000000E+00  0.00000000000E+00 -0.13584360661E+03  0.18460737754E+03  0.12500559342E+03 0.  0.
    9000005    1    3    3    0    0 -0.27325298986E+02  0.12245684545E+02  0.13086324735E+02  0.32693740222E+02  0.10000000000E+01 0.  0.
    9000005    1    3    3    0    0  0.27325298986E+02 -0.12245684545E+02 -0.14892993134E+03  0.15191363732E+03  0.10000000000E+01 0.  0.
<mgrwt>
<rscale>  0 0.12500559E+03</rscale>
<asrwt>0</asrwt>
<pdfrwt beam="1">  1        4 0.60954718E-02 0.12500559E+03</pdfrwt>
<pdfrwt beam="2">  1       -4 0.40056370E-01 0.12500559E+03</pdfrwt>
<totfact> 0.16955327E+03</totfact>
</mgrwt>
</event>
<event>
 5    1  0.1430314E-002  0.1250001E+03  0.7818608E-02  0.1235069E+00
          4   -1    0    0  501    0  0.00000000000E+00  0.00000000000E+00  0.50997559446E+02  0.51013370497E+02  0.12700000000E+01 0. -1.
         -4   -1    0    0    0  501 -0.00000000000E+00 -0.00000000000E+00 -0.76564012336E+02  0.76574544628E+02  0.12700000000E+01 0. -1.
         25    2    1    2    0    0  0.00000000000E+00  0.00000000000E+00 -0.25566452890E+02  0.12758791512E+03  0.12500013029E+03 0.  0.
    9000005    1    3    3    0    0 -0.38166897995E+02  0.11555003628E+02  0.36327594372E+02  0.53952982533E+02  0.10000000000E+01 0.  0.
    9000005    1    3    3    0    0  0.38166897995E+02 -0.11555003628E+02 -0.61894047262E+02  0.73634932592E+02  0.10000000000E+01 0.  0.
<mgrwt>
<rscale>  0 0.12500013E+03</rscale>
<asrwt>0</asrwt>
<pdfrwt beam="1">  1        4 0.12752683E-01 0.12500013E+03</pdfrwt>
<pdfrwt beam="2">  1       -4 0.19144296E-01 0.12500013E+03</pdfrwt>
<totfact> 0.19694926E+03</totfact>
</mgrwt>
</event>
<event>
 5    1  0.1430314E-002  0.1249995E+03  0.7818608E-02  0.1235070E+00
         -4   -1    0    0    0  501 -0.00000000000E+00  0.00000000000E+00  0.38642017282E+02  0.38662881419E+02  0.12700000000E+01 0.  1.
          4   -1    0    0  501    0  0.00000000000E+00 -0.00000000000E+00 -0.10103527220E+03  0.10104325375E+03  0.12700000000E+01 0.  1.
         25    2    1    2    0    0  0.00000000000E+00  0.00000000000E+00 -0.62393254915E+02  0.13970613517E+03  0.12499954378E+03 0.  0.
    9000005    1    3    3    0    0  0.57035516471E+02  0.24570994785E+02 -0.38975169248E+02  0.73326991905E+02  0.10000000000E+01 0.  0.
    9000005    1    3    3    0    0 -0.57035516471E+02 -0.24570994785E+02 -0.23418085668E+02  0.66379143262E+02  0.10000000000E+01 0.  0.
<mgrwt>
<rscale>  0 0.12499954E+03</rscale>
<asrwt>0</asrwt>
<pdfrwt beam="2">  1        4 0.25262423E-01 0.12499954E+03</pdfrwt>
<pdfrwt beam="1">  1       -4 0.96641102E-02 0.12499954E+03</pdfrwt>
<totfact> 0.19055589E+03</totfact>
</mgrwt>
</event>
<event>
 5    1  0.1430314E-002  0.1249802E+03  0.7818608E-02  0.1235100E+00
          4   -1    0    0  501    0  0.00000000000E+00  0.00000000000E+00  0.26338326316E+02  0.26368927417E+02  0.12700000000E+01 0. -1.
         -4   -1    0    0    0  501 -0.00000000000E+00 -0.00000000000E+00 -0.14814403266E+03  0.14814947625E+03  0.12700000000E+01 0. -1.
         25    2    1    2    0    0  0.00000000000E+00  0.00000000000E+00 -0.12180570635E+03  0.17451840367E+03  0.12498017091E+03 0.  0.
    9000005    1    3    3    0    0 -0.18605639890E+02  0.17352011318E+02 -0.14059072679E+03  0.14287762103E+03  0.10000000000E+01 0.  0.
    9000005    1    3    3    0    0  0.18605639890E+02 -0.17352011318E+02  0.18785020446E+02  0.31640782633E+02  0.10000000000E+01 0.  0.
<mgrwt>
<rscale>  0 0.12498017E+03</rscale>
<asrwt>0</asrwt>
<pdfrwt beam="1">  1        4 0.65890876E-02 0.12498017E+03</pdfrwt>
<pdfrwt beam="2">  1       -4 0.37040511E-01 0.12498017E+03</pdfrwt>
<totfact> 0.17403158E+03</totfact>
</mgrwt>
</event>
<event>
 5    1  0.1430314E-002  0.1250029E+03  0.7818608E-02  0.1235065E+00
          4   -1    0    0  501    0  0.00000000000E+00  0.00000000000E+00  0.16997066049E+02  0.17044446435E+02  0.12700000000E+01 0. -1.
         -4   -1    0    0    0  501 -0.00000000000E+00 -0.00000000000E+00 -0.22946078969E+03  0.22946430421E+03  0.12700000000E+01 0. -1.
         25    2    1    2    0    0  0.00000000000E+00  0.00000000000E+00 -0.21246372365E+03  0.24650875065E+03  0.12500292109E+03 0.  0.
    9000005    1    3    3    0    0  0.19432776846E+02 -0.58389428213E+02 -0.12769654522E+03  0.14175459712E+03  0.10000000000E+01 0.  0.
    9000005    1    3    3    0    0 -0.19432776846E+02  0.58389428213E+02 -0.84767178422E+02  0.10475415352E+03  0.10000000000E+01 0.  0.
<mgrwt>
<rscale>  0 0.12500292E+03</rscale>
<asrwt>0</asrwt>
<pdfrwt beam="1">  1        4 0.42556291E-02 0.12500292E+03</pdfrwt>
<pdfrwt beam="2">  1       -4 0.57371550E-01 0.12500292E+03</pdfrwt>
<totfact> 0.14613839E+03</totfact>
</mgrwt>
</event>
<event>
 5    1  0.1430314E-002  0.1250014E+03  0.7818608E-02  0.1235067E+00
         -4   -1    0    0    0  501 -0.00000000000E+00  0.00000000000E+00  0.64689988596E+02  0.64702453775E+02  0.12700000000E+01 0.  1.
          4   -1    0    0  501    0  0.00000000000E+00 -0.00000000000E+00 -0.60360559750E+02  0.60373918817E+02  0.12700000000E+01 0.  1.
         25    2    1    2    0    0  0.00000000000E+00  0.00000000000E+00  0.43294288458E+01  0.12507637259E+03  0.12500142010E+03 0.  0.
    9000005    1    3    3    0    0  0.59720609990E+02 -0.16856958665E+02  0.95603873135E+01  0.62794182204E+02  0.10000000000E+01 0.  0.
    9000005    1    3    3    0    0 -0.59720609990E+02  0.16856958665E+02 -0.52309584677E+01  0.62282190388E+02  0.10000000000E+01 0.  0.
<mgrwt>
<rscale>  0 0.12500142E+03</rscale>
<asrwt>0</asrwt>
<pdfrwt beam="2">  1        4 0.15093368E-01 0.12500142E+03</pdfrwt>
<pdfrwt beam="1">  1       -4 0.16175725E-01 0.12500142E+03</pdfrwt>
<totfact> 0.19830255E+03</totfact>
</mgrwt>
</event>
<event>
 5    1  0.1430314E-002  0.1250004E+03  0.7818608E-02  0.1235069E+00
         -4   -1    0    0    0  501 -0.00000000000E+00  0.00000000000E+00  0.77827286007E+02  0.77837647364E+02  0.12700000000E+01 0.  1.
          4   -1    0    0  501    0  0.00000000000E+00 -0.00000000000E+00 -0.50169873711E+02  0.50185945524E+02  0.12700000000E+01 0.  1.
         25    2    1    2    0    0  0.00000000000E+00  0.00000000000E+00  0.27657412296E+02  0.12802359289E+03  0.12500043152E+03 0.  0.
    9000005    1    3    3    0    0  0.44842175841E+02  0.38730715566E+02  0.34168207165E+02  0.68405814397E+02  0.10000000000E+01 0.  0.
    9000005    1    3    3    0    0 -0.44842175841E+02 -0.38730715566E+02 -0.65107948687E+01  0.59617778492E+02  0.10000000000E+01 0.  0.
<mgrwt>
<rscale>  0 0.12500043E+03</rscale>
<asrwt>0</asrwt>
<pdfrwt beam="2">  1        4 0.12545773E-01 0.12500043E+03</pdfrwt>
<pdfrwt beam="1">  1       -4 0.19460126E-01 0.12500043E+03</pdfrwt>
<totfact> 0.19671052E+03</totfact>
</mgrwt>
</event>
<event>
 5    1  0.1430314E-002  0.1250005E+03  0.7818608E-02  0.1235069E+00
         -4   -1    0    0    0  501 -0.00000000000E+00  0.00000000000E+00  0.23695358692E+02  0.23729368376E+02  0.12700000000E+01 0. -1.
          4   -1    0    0  501    0  0.00000000000E+00 -0.00000000000E+00 -0.16469957119E+03  0.16470446760E+03  0.12700000000E+01 0. -1.
         25    2    1    2    0    0  0.00000000000E+00  0.00000000000E+00 -0.14100421249E+03  0.18843383598E+03  0.12500049040E+03 0.  0.
    9000005    1    3    3    0    0 -0.60607195125E+02  0.10242605366E+02 -0.53504641432E+02  0.81497789666E+02  0.10000000000E+01 0.  0.
    9000005    1    3    3    0    0  0.60607195125E+02 -0.10242605366E+02 -0.87499571062E+02  0.10693604632E+03  0.10000000000E+01 0.  0.
<mgrwt>
<rscale>  0 0.12500049E+03</rscale>
<asrwt>0</asrwt>
<pdfrwt beam="2">  1        4 0.41179753E-01 0.12500049E+03</pdfrwt>
<pdfrwt beam="1">  1       -4 0.59287034E-02 0.12500049E+03</pdfrwt>
<totfact> 0.16795700E+03</totfact>
</mgrwt>
</event>
<event>
 5    1  0.1430314E-002  0.1250001E+03  0.7818608E-02  0.1235069E+00
         -4   -1    0    0    0  501 -0.00000000000E+00  0.00000000000E+00  0.30992485382E+03  0.30992745589E+03  0.12700000000E+01 0.  1.
          4   -1    0    0  501    0  0.00000000000E+00 -0.00000000000E+00 -0.12569237228E+02  0.12633234918E+02  0.12700000000E+01 0.  1.
         25    2    1    2    0    0  0.00000000000E+00  0.00000000000E+00  0.29735561659E+03  0.32256069081E+03  0.12500014615E+03 0.  0.
    9000005    1    3    3    0    0 -0.34573002699E+02  0.33347231670E+02  0.25183027700E+03  0.25637242206E+03  0.10000000000E+01 0.  0.
    9000005    1    3    3    0    0  0.34573002699E+02 -0.33347231670E+02  0.45525339584E+02  0.66188268748E+02  0.10000000000E+01 0.  0.
<mgrwt>
<rscale>  0 0.12500015E+03</rscale>
<asrwt>0</asrwt>
<pdfrwt beam="2">  1        4 0.31506343E-02 0.12500015E+03</pdfrwt>
<pdfrwt beam="1">  1       -4 0.77489539E-01 0.12500015E+03</pdfrwt>
<totfact> 0.12361462E+03</totfact>
</mgrwt>
</event>
<event>
 5    1  0.1430314E-002  0.1250054E+03  0.7818608E-02  0.1235061E+00
          4   -1    0    0  501    0  0.00000000000E+00  0.00000000000E+00  0.90549999203E+03  0.90550088264E+03  0.12700000000E+01 0.  1.
         -4   -1    0    0    0  501 -0.00000000000E+00 -0.00000000000E+00 -0.42199147005E+01  0.44068787231E+01  0.12700000000E+01 0.  1.
         25    2    1    2    0    0  0.00000000000E+00  0.00000000000E+00  0.90128007733E+03  0.90990776137E+03  0.12500542549E+03 0.  0.
    9000005    1    3    3    0    0 -0.52093523226E+02 -0.25609838484E+02  0.28212180613E+03  0.28803352666E+03  0.10000000000E+01 0.  0.
    9000005    1    3    3    0    0  0.52093523226E+02  0.25609838484E+02  0.61915827120E+03  0.62187423471E+03  0.10000000000E+01 0.  0.
<mgrwt>
<rscale>  0 0.12500543E+03</rscale>
<asrwt>0</asrwt>
<pdfrwt beam="1">  1        4 0.22639854E+00 0.12500543E+03</pdfrwt>
<pdfrwt beam="2">  1       -4 0.10784602E-02 0.12500543E+03</pdfrwt>
<totfact> 0.43518335E+02</totfact>
</mgrwt>
</event>
<event>
 5    1  0.1430314E-002  0.1250010E+03  0.7818608E-02  0.1235068E+00
         -4   -1    0    0    0  501 -0.00000000000E+00  0.00000000000E+00  0.36768211626E+03  0.36768430959E+03  0.12700000000E+01 0.  1.
          4   -1    0    0  501    0  0.00000000000E+00 -0.00000000000E+00 -0.10583963061E+02  0.10659886213E+02  0.12700000000E+01 0.  1.
         25    2    1    2    0    0  0.00000000000E+00  0.00000000000E+00  0.35709815320E+03  0.37834419580E+03  0.12500095791E+03 0.  0.
    9000005    1    3    3    0    0 -0.22450671640E+02 -0.22484121519E+02  0.15674376440E+02  0.35443680034E+02  0.10000000000E+01 0.  0.
    9000005    1    3    3    0    0  0.22450671640E+02  0.22484121519E+02  0.34142377676E+03  0.34290051577E+03  0.10000000000E+01 0.  0.
<mgrwt>
<rscale>  0 0.12500096E+03</rscale>
<asrwt>0</asrwt>
<pdfrwt beam="2">  1        4 0.26557554E-02 0.12500096E+03</pdfrwt>
<pdfrwt beam="1">  1       -4 0.91930292E-01 0.12500096E+03</pdfrwt>
<totfact> 0.11029067E+03</totfact>
</mgrwt>
</event>
<event>
 5    1  0.1430314E-002  0.1250181E+03  0.7818608E-02  0.1235041E+00
         -4   -1    0    0    0  501 -0.00000000000E+00  0.00000000000E+00  0.97492597641E+02  0.97500869200E+02  0.12700000000E+01 0.  1.
          4   -1    0    0  501    0  0.00000000000E+00 -0.00000000000E+00 -0.40058740460E+02  0.40078867090E+02  0.12700000000E+01 0.  1.
         25    2    1    2    0    0  0.00000000000E+00  0.00000000000E+00  0.57433857182E+02  0.13757973629E+03  0.12501814223E+03 0.  0.
    9000005    1    3    3    0    0 -0.57257444100E+02  0.25055646946E+02  0.29188497330E+02  0.68986728616E+02  0.10000000000E+01 0.  0.
    9000005    1    3    3    0    0  0.57257444100E+02 -0.25055646946E+02  0.28245359851E+02  0.68593007675E+02  0.10000000000E+01 0.  0.
<mgrwt>
<rscale>  0 0.12501814E+03</rscale>
<asrwt>0</asrwt>
<pdfrwt beam="2">  1        4 0.10018235E-01 0.12501814E+03</pdfrwt>
<pdfrwt beam="1">  1       -4 0.24376699E-01 0.12501814E+03</pdfrwt>
<totfact> 0.19156744E+03</totfact>
</mgrwt>
</event>
<event>
 5    1  0.1430314E-002  0.1250029E+03  0.7818608E-02  0.1235065E+00
         -4   -1    0    0    0  501 -0.00000000000E+00  0.00000000000E+00  0.13502153001E+03  0.13502750263E+03  0.12700000000E+01 0. -1.
          4   -1    0    0  501    0  0.00000000000E+00 -0.00000000000E+00 -0.28911360198E+02  0.28939240635E+02  0.12700000000E+01 0. -1.
         25    2    1    2    0    0  0.00000000000E+00  0.00000000000E+00  0.10611016981E+03  0.16396674327E+03  0.12500289900E+03 0.  0.
    9000005    1    3    3    0    0 -0.48267677633E+02  0.39628615147E+02  0.50053791643E+02  0.80041101319E+02  0.10000000000E+01 0.  0.
    9000005    1    3    3    0    0  0.48267677633E+02 -0.39628615147E+02  0.56056378171E+02  0.83925641947E+02  0.10000000000E+01 0.  0.
<mgrwt>
<rscale>  0 0.12500290E+03</rscale>
<asrwt>0</asrwt>
<pdfrwt beam="2">  1        4 0.72320718E-02 0.12500290E+03</pdfrwt>
<pdfrwt beam="1">  1       -4 0.33759614E-01 0.12500290E+03</pdfrwt>
<totfact> 0.17871452E+03</totfact>
</mgrwt>
</event>
<event>
 5    1  0.1430314E-002  0.1250006E+03  0.7818608E-02  0.1235068E+00
         -4   -1    0    0    0  501 -0.00000000000E+00  0.00000000000E+00  0.47562429265E+01  0.49228799270E+01  0.12700000000E+01 0.  1.
          4   -1    0    0  501    0  0.00000000000E+00 -0.00000000000E+00 -0.80699061718E+03  0.80699161651E+03  0.12700000000E+01 0.  1.
         25    2    1    2    0    0  0.00000000000E+00  0.00000000000E+00 -0.80223437425E+03  0.81191449644E+03  0.12500063316E+03 0.  0.
    9000005    1    3    3    0    0  0.16284348902E+02  0.17523097164E+01 -0.94005119028E+01  0.18910849598E+02  0.10000000000E+01 0.  0.
    9000005    1    3    3    0    0 -0.16284348902E+02 -0.17523097164E+01 -0.79283386235E+03  0.79300364684E+03  0.10000000000E+01 0.  0.
<mgrwt>
<rscale>  0 0.12500063E+03</rscale>
<asrwt>0</asrwt>
<pdfrwt beam="2">  1        4 0.20176815E+00 0.12500063E+03</pdfrwt>
<pdfrwt beam="1">  1       -4 0.12100180E-02 0.12500063E+03</pdfrwt>
<totfact> 0.51435445E+02</totfact>
</mgrwt>
</event>
<event>
 5    1  0.1430314E-002  0.1250014E+03  0.7818608E-02  0.1235067E+00
         -4   -1    0    0    0  501 -0.00000000000E+00  0.00000000000E+00  0.47780034849E+03  0.47780203633E+03  0.12700000000E+01 0. -1.
          4   -1    0    0  501    0  0.00000000000E+00 -0.00000000000E+00 -0.81246365844E+01  0.82232973695E+01  0.12700000000E+01 0. -1.
         25    2    1    2    0    0  0.00000000000E+00  0.00000000000E+00  0.46967571191E+03  0.48602533370E+03  0.12500140255E+03 0.  0.
    9000005    1    3    3    0    0 -0.44501455360E+02 -0.35163418901E+02  0.13281593360E+03  0.14442270520E+03  0.10000000000E+01 0.  0.
    9000005    1    3    3    0    0  0.44501455360E+02  0.35163418901E+02  0.33685977831E+03  0.34160262850E+03  0.10000000000E+01 0.  0.
<mgrwt>
<rscale>  0 0.12500140E+03</rscale>
<asrwt>0</asrwt>
<pdfrwt beam="2">  1        4 0.20437028E-02 0.12500140E+03</pdfrwt>
<pdfrwt beam="1">  1       -4 0.11946263E+00 0.12500140E+03</pdfrwt>
<totfact> 0.89868858E+02</totfact>
</mgrwt>
</event>
<event>
 5    1  0.1430314E-002  0.1249992E+03  0.7818608E-02  0.1235070E+00
          4   -1    0    0  501    0  0.00000000000E+00  0.00000000000E+00  0.17190573177E+02  0.17237421679E+02  0.12700000000E+01 0.  1.
         -4   -1    0    0    0  501 -0.00000000000E+00 -0.00000000000E+00 -0.22687151850E+03  0.22687507313E+03  0.12700000000E+01 0.  1.
         25    2    1    2    0    0  0.00000000000E+00  0.00000000000E+00 -0.20968094533E+03  0.24411249481E+03  0.12499924515E+03 0.  0.
    9000005    1    3    3    0    0 -0.13767370820E+02 -0.18602472792E+02 -0.21820376730E+03  0.21942988985E+03  0.10000000000E+01 0.  0.
    9000005    1    3    3    0    0  0.13767370820E+02  0.18602472792E+02  0.85228219772E+01  0.24682604962E+02  0.10000000000E+01 0.  0.
<mgrwt>
<rscale>  0 0.12499925E+03</rscale>
<asrwt>0</asrwt>
<pdfrwt beam="1">  1        4 0.43039444E-02 0.12499925E+03</pdfrwt>
<pdfrwt beam="2">  1       -4 0.56724170E-01 0.12499925E+03</pdfrwt>
<totfact> 0.14696071E+03</totfact>
</mgrwt>
</event>
<event>
 5    1  0.1430314E-002  0.1250000E+03  0.7818608E-02  0.1235069E+00
         -4   -1    0    0    0  501 -0.00000000000E+00  0.00000000000E+00  0.58580256393E+02  0.58594021359E+02  0.12700000000E+01 0.  1.
          4   -1    0    0  501    0  0.00000000000E+00 -0.00000000000E+00 -0.66654392589E+02  0.66666490469E+02  0.12700000000E+01 0.  1.
         25    2    1    2    0    0  0.00000000000E+00  0.00000000000E+00 -0.80741361964E+01  0.12526051183E+03  0.12500001659E+03 0.  0.
    9000005    1    3    3    0    0  0.42746031992E+02 -0.40489060840E+02 -0.25025016070E+02  0.63983112835E+02  0.10000000000E+01 0.  0.
    9000005    1    3    3    0    0 -0.42746031992E+02  0.40489060840E+02  0.16950879874E+02  0.61277398992E+02  0.10000000000E+01 0.  0.
<mgrwt>
<rscale>  0 0.12500002E+03</rscale>
<asrwt>0</asrwt>
<pdfrwt beam="2">  1        4 0.16666831E-01 0.12500002E+03</pdfrwt>
<pdfrwt beam="1">  1       -4 0.14648297E-01 0.12500002E+03</pdfrwt>
<totfact> 0.19820926E+03</totfact>
</mgrwt>
</event>
<event>
 5    1  0.1430314E-002  0.1250013E+03  0.7818608E-02  0.1235067E+00
         -4   -1    0    0    0  501 -0.00000000000E+00  0.00000000000E+00  0.12514309023E+02  0.12578586181E+02  0.12700000000E+01 0. -1.
          4   -1    0    0  501    0  0.00000000000E+00 -0.00000000000E+00 -0.31128379718E+03  0.31128638789E+03  0.12700000000E+01 0. -1.
         25    2    1    2    0    0  0.00000000000E+00  0.00000000000E+00 -0.29876948815E+03  0.32386497407E+03  0.12500125751E+03 0.  0.
    9000005    1    3    3    0    0 -0.75003735002E+01  0.39934972721E+02 -0.26371277725E+02  0.48451026178E+02  0.10000000000E+01 0.  0.
    9000005    1    3    3    0    0  0.75003735002E+01 -0.39934972721E+02 -0.27239821043E+03  0.27541394789E+03  0.10000000000E+01 0.  0.
<mgrwt>
<rscale>  0 0.12500126E+03</rscale>
<asrwt>0</asrwt>
<pdfrwt beam="2">  1        4 0.77829282E-01 0.12500126E+03</pdfrwt>
<pdfrwt beam="1">  1       -4 0.31369368E-02 0.12500126E+03</pdfrwt>
<totfact> 0.12327254E+03</totfact>
</mgrwt>
</event>
<event>
 5    1  0.1430314E-002  0.1250017E+03  0.7818608E-02  0.1235067E+00
         -4   -1    0    0    0  501 -0.00000000000E+00  0.00000000000E+00  0.10892864849E+02  0.10966649654E+02  0.12700000000E+01 0. -1.
          4   -1    0    0  501    0  0.00000000000E+00 -0.00000000000E+00 -0.35733082167E+03  0.35733307854E+03  0.12700000000E+01 0. -1.
         25    2    1    2    0    0  0.00000000000E+00  0.00000000000E+00 -0.34643795682E+03  0.36829972819E+03  0.12500172742E+03 0.  0.
    9000005    1    3    3    0    0 -0.49404444186E+02  0.15881240887E+02 -0.70630519715E+02  0.87650916896E+02  0.10000000000E+01 0.  0.
    9000005    1    3    3    0    0  0.49404444186E+02 -0.15881240887E+02 -0.27580743711E+03  0.28064881129E+03  0.10000000000E+01 0.  0.
<mgrwt>
<rscale>  0 0.12500173E+03</rscale>
<asrwt>0</asrwt>
<pdfrwt beam="2">  1        4 0.89342172E-01 0.12500173E+03</pdfrwt>
<pdfrwt beam="1">  1       -4 0.27327226E-02 0.12500173E+03</pdfrwt>
<totfact> 0.11252275E+03</totfact>
</mgrwt>
</event>
<event>
 5    1  0.1430314E-002  0.1250022E+03  0.7818608E-02  0.1235066E+00
          4   -1    0    0  501    0  0.00000000000E+00  0.00000000000E+00  0.23404721781E+03  0.23405066345E+03  0.12700000000E+01 0. -1.
         -4   -1    0    0    0  501 -0.00000000000E+00 -0.00000000000E+00 -0.16662873136E+02  0.16711201068E+02  0.12700000000E+01 0. -1.
         25    2    1    2    0    0  0.00000000000E+00  0.00000000000E+00  0.21738434467E+03  0.25076186452E+03  0.12500223754E+03 0.  0.
    9000005    1    3    3    0    0  0.32209742206E+02 -0.12995126566E+02  0.44726469302E+01  0.35033489378E+02  0.10000000000E+01 0.  0.
    9000005    1    3    3    0    0 -0.32209742206E+02  0.12995126566E+02  0.21291169774E+03  0.21572837514E+03  0.10000000000E+01 0.  0.
<mgrwt>
<rscale>  0 0.12500224E+03</rscale>
<asrwt>0</asrwt>
<pdfrwt beam="1">  1        4 0.58518275E-01 0.12500224E+03</pdfrwt>
<pdfrwt beam="2">  1       -4 0.41721901E-02 0.12500224E+03</pdfrwt>
<totfact> 0.14471933E+03</totfact>
</mgrwt>
</event>
<event>
 5    1  0.1430314E-002  0.1249969E+03  0.7818608E-02  0.1235074E+00
          4   -1    0    0  501    0  0.00000000000E+00  0.00000000000E+00  0.18915135730E+03  0.18915562077E+03  0.12700000000E+01 0.  1.
         -4   -1    0    0    0  501 -0.00000000000E+00 -0.00000000000E+00 -0.20626407225E+02  0.20665468178E+02  0.12700000000E+01 0.  1.
         25    2    1    2    0    0  0.00000000000E+00  0.00000000000E+00  0.16852495008E+03  0.20982108895E+03  0.12499692224E+03 0.  0.
    9000005    1    3    3    0    0  0.46741496576E+02  0.19150137858E+02  0.14601986760E+03  0.15451309658E+03  0.10000000000E+01 0.  0.
    9000005    1    3    3    0    0 -0.46741496576E+02 -0.19150137858E+02  0.22505082478E+02  0.55307992365E+02  0.10000000000E+01 0.  0.
<mgrwt>
<rscale>  0 0.12499692E+03</rscale>
<asrwt>0</asrwt>
<pdfrwt beam="1">  1        4 0.47293254E-01 0.12499692E+03</pdfrwt>
<pdfrwt beam="2">  1       -4 0.51620174E-02 0.12499692E+03</pdfrwt>
<totfact> 0.15937333E+03</totfact>
</mgrwt>
</event>
<event>
 4    1  0.1430314E-002  0.1248806E+03  0.7818608E-02  0.1235256E+00
         -4   -1    0    0    0  501 -0.00000000000E+00  0.00000000000E+00  0.48008081646E+02  0.48024876921E+02  0.12700000000E+01 0.  1.
          4   -1    0    0  501    0  0.00000000000E+00 -0.00000000000E+00 -0.81175114410E+02  0.81185048497E+02  0.12700000000E+01 0.  1.
    9000005    1    1    2    0    0 -0.15057269551E+02 -0.59339521231E+02 -0.39162017885E+01  0.61353376294E+02  0.10000000000E+01 0.  0.
    9000005    1    1    2    0    0  0.15057269551E+02  0.59339521231E+02 -0.29250830976E+02  0.67856549124E+02  0.10000000000E+01 0.  0.
<mgrwt>
<rscale>  0 0.12488055E+03</rscale>
<asrwt>0</asrwt>
<pdfrwt beam="2">  1        4 0.20297120E-01 0.12488055E+03</pdfrwt>
<pdfrwt beam="1">  1       -4 0.12005362E-01 0.12488055E+03</pdfrwt>
<totfact> 0.19661716E+03</totfact>
</mgrwt>
</event>
<event>
 5    1  0.1430314E-002  0.1249980E+03  0.7818608E-02  0.1235072E+00
          4   -1    0    0  501    0  0.00000000000E+00  0.00000000000E+00  0.51446297140E+02  0.51461970322E+02  0.12700000000E+01 0. -1.
         -4   -1    0    0    0  501 -0.00000000000E+00 -0.00000000000E+00 -0.75893674085E+02  0.75904299392E+02  0.12700000000E+01 0. -1.
         25    2    1    2    0    0  0.00000000000E+00  0.00000000000E+00 -0.24447376945E+02  0.12736626971E+03  0.12499796967E+03 0.  0.
    9000005    1    3    3    0    0  0.20636644681E+02  0.27164670902E+02 -0.65573432550E+02  0.73923375906E+02  0.10000000000E+01 0.  0.
    9000005    1    3    3    0    0 -0.20636644681E+02 -0.27164670902E+02  0.41126055605E+02  0.53442893808E+02  0.10000000000E+01 0.  0.
<mgrwt>
<rscale>  0 0.12499797E+03</rscale>
<asrwt>0</asrwt>
<pdfrwt beam="1">  1        4 0.12864862E-01 0.12499797E+03</pdfrwt>
<pdfrwt beam="2">  1       -4 0.18976706E-01 0.12499797E+03</pdfrwt>
<totfact> 0.19708023E+03</totfact>
</mgrwt>
</event>
<event>
 5    1  0.1430314E-002  0.1250021E+03  0.7818608E-02  0.1235066E+00
          4   -1    0    0  501    0  0.00000000000E+00  0.00000000000E+00  0.13470075660E+02  0.13529812943E+02  0.12700000000E+01 0. -1.
         -4   -1    0    0    0  501 -0.00000000000E+00 -0.00000000000E+00 -0.28930150538E+03  0.28930429294E+03  0.12700000000E+01 0. -1.
         25    2    1    2    0    0  0.00000000000E+00  0.00000000000E+00 -0.27583142972E+03  0.30283410588E+03  0.12500207225E+03 0.  0.
    9000005    1    3    3    0    0 -0.29708970641E+02  0.47826102579E+02 -0.20361421208E+03  0.21125744102E+03  0.10000000000E+01 0.  0.
    9000005    1    3    3    0    0  0.29708970641E+02 -0.47826102579E+02 -0.72217217633E+02  0.91576664862E+02  0.10000000000E+01 0.  0.
<mgrwt>
<rscale>  0 0.12500207E+03</rscale>
<asrwt>0</asrwt>
<pdfrwt beam="1">  1        4 0.33753355E-02 0.12500207E+03</pdfrwt>
<pdfrwt beam="2">  1       -4 0.72333172E-01 0.12500207E+03</pdfrwt>
<totfact> 0.12891385E+03</totfact>
</mgrwt>
</event>
<event>
 5    1  0.1430314E-002  0.1249984E+03  0.7818608E-02  0.1235072E+00
         -4   -1    0    0    0  501 -0.00000000000E+00  0.00000000000E+00  0.11447766526E+03  0.11448470965E+03  0.12700000000E+01 0. -1.
          4   -1    0    0  501    0  0.00000000000E+00 -0.00000000000E+00 -0.34101606876E+02  0.34125247128E+02  0.12700000000E+01 0. -1.
         25    2    1    2    0    0  0.00000000000E+00  0.00000000000E+00  0.80376058384E+02  0.14860995678E+03  0.12499843396E+03 0.  0.
    9000005    1    3    3    0    0 -0.60017693739E+02 -0.13495798540E+02  0.27116027765E+02  0.67234954464E+02  0.10000000000E+01 0.  0.
    9000005    1    3    3    0    0  0.60017693739E+02  0.13495798540E+02  0.53260030619E+02  0.81375002314E+02  0.10000000000E+01 0.  0.
<mgrwt>
<rscale>  0 0.12499843E+03</rscale>
<asrwt>0</asrwt>
<pdfrwt beam="2">  1        4 0.85292374E-02 0.12499843E+03</pdfrwt>
<pdfrwt beam="1">  1       -4 0.28623252E-01 0.12499843E+03</pdfrwt>
<totfact> 0.18608019E+03</totfact>
</mgrwt>
</event>
<event>
 5    1  0.1430314E-002  0.1250070E+03  0.7818608E-02  0.1235058E+00
          4   -1    0    0  501    0  0.00000000000E+00  0.00000000000E+00  0.10562564042E+03  0.10563327513E+03  0.12700000000E+01 0. -1.
         -4   -1    0    0    0  501 -0.00000000000E+00 -0.00000000000E+00 -0.36966265428E+02  0.36988074831E+02  0.12700000000E+01 0. -1.
         25    2    1    2    0    0  0.00000000000E+00  0.00000000000E+00  0.68659374992E+02  0.14262134996E+03  0.12500695856E+03 0.  0.
    9000005    1    3    3    0    0 -0.34263875194E+02 -0.48389107642E+02  0.11793778134E+02  0.60461657969E+02  0.10000000000E+01 0.  0.
    9000005    1    3    3    0    0  0.34263875194E+02  0.48389107642E+02  0.56865596858E+02  0.82159691989E+02  0.10000000000E+01 0.  0.
<mgrwt>
<rscale>  0 0.12500696E+03</rscale>
<asrwt>0</asrwt>
<pdfrwt beam="1">  1        4 0.26410090E-01 0.12500696E+03</pdfrwt>
<pdfrwt beam="2">  1       -4 0.92452470E-02 0.12500696E+03</pdfrwt>
<totfact> 0.18903965E+03</totfact>
</mgrwt>
</event>
<event>
 5    1  0.1430314E-002  0.1250286E+03  0.7818608E-02  0.1235025E+00
         -4   -1    0    0    0  501 -0.00000000000E+00  0.00000000000E+00  0.20495684644E+02  0.20534994255E+02  0.12700000000E+01 0. -1.
          4   -1    0    0  501    0  0.00000000000E+00 -0.00000000000E+00 -0.19045216640E+03  0.19045640075E+03  0.12700000000E+01 0. -1.
         25    2    1    2    0    0  0.00000000000E+00  0.00000000000E+00 -0.16995648176E+03  0.21099139500E+03  0.12502864902E+03 0.  0.
    9000005    1    3    3    0    0  0.56392996656E+02 -0.26900759630E+02 -0.81950131508E+02  0.10305651360E+03  0.10000000000E+01 0.  0.
    9000005    1    3    3    0    0 -0.56392996656E+02  0.26900759630E+02 -0.88006350248E+02  0.10793488141E+03  0.10000000000E+01 0.  0.
<mgrwt>
<rscale>  0 0.12502865E+03</rscale>
<asrwt>0</asrwt>
<pdfrwt beam="2">  1        4 0.47618479E-01 0.12502865E+03</pdfrwt>
<pdfrwt beam="1">  1       -4 0.51293647E-02 0.12502865E+03</pdfrwt>
<totfact> 0.15880680E+03</totfact>
</mgrwt>
</event>
<event>
 5    1  0.1430314E-002  0.1249999E+03  0.7818608E-02  0.1235069E+00
          4   -1    0    0  501    0  0.00000000000E+00  0.00000000000E+00  0.64971813158E+01  0.66201408633E+01  0.12700000000E+01 0.  1.
         -4   -1    0    0    0  501 -0.00000000000E+00 -0.00000000000E+00 -0.59546152878E+03  0.59546288311E+03  0.12700000000E+01 0.  1.
         25    2    1    2    0    0  0.00000000000E+00  0.00000000000E+00 -0.58896434747E+03  0.60208302397E+03  0.12499986067E+03 0.  0.
    9000005    1    3    3    0    0  0.76320630172E+01  0.59726664767E+01  0.28792102634E+01  0.10159280608E+02  0.10000000000E+01 0.  0.
    9000005    1    3    3    0    0 -0.76320630172E+01 -0.59726664767E+01 -0.59184355773E+03  0.59192374336E+03  0.10000000000E+01 0.  0.
<mgrwt>
<rscale>  0 0.12499986E+03</rscale>
<asrwt>0</asrwt>
<pdfrwt beam="1">  1        4 0.16398366E-02 0.12499986E+03</pdfrwt>
<pdfrwt beam="2">  1       -4 0.14888074E+00 0.12499986E+03</pdfrwt>
<totfact> 0.73241745E+02</totfact>
</mgrwt>
</event>
<event>
 5    1  0.1430314E-002  0.1249998E+03  0.7818608E-02  0.1235070E+00
         -4   -1    0    0    0  501 -0.00000000000E+00  0.00000000000E+00  0.85676256348E+02  0.85685668590E+02  0.12700000000E+01 0. -1.
          4   -1    0    0  501    0  0.00000000000E+00 -0.00000000000E+00 -0.45572266112E+02  0.45589958747E+02  0.12700000000E+01 0. -1.
         25    2    1    2    0    0  0.00000000000E+00  0.00000000000E+00  0.40103990236E+02  0.13127562734E+03  0.12499984120E+03 0.  0.
    9000005    1    3    3    0    0  0.29903865561E+02  0.37764946775E+02 -0.21756345115E+02  0.52865593094E+02  0.10000000000E+01 0.  0.
    9000005    1    3    3    0    0 -0.29903865561E+02 -0.37764946775E+02  0.61860335351E+02  0.78410034244E+02  0.10000000000E+01 0.  0.
<mgrwt>
<rscale>  0 0.12499984E+03</rscale>
<asrwt>0</asrwt>
<pdfrwt beam="2">  1        4 0.11396455E-01 0.12499984E+03</pdfrwt>
<pdfrwt beam="1">  1       -4 0.21422452E-01 0.12499984E+03</pdfrwt>
<totfact> 0.19496121E+03</totfact>
</mgrwt>
</event>
<event>
 5    1  0.1430314E-002  0.1249893E+03  0.7818608E-02  0.1235086E+00
          4   -1    0    0  501    0  0.00000000000E+00  0.00000000000E+00  0.68912814040E+02  0.68924515514E+02  0.12700000000E+01 0.  1.
         -4   -1    0    0    0  501 -0.00000000000E+00 -0.00000000000E+00 -0.56650601450E+02  0.56664835169E+02  0.12700000000E+01 0.  1.
         25    2    1    2    0    0  0.00000000000E+00  0.00000000000E+00  0.12262212590E+02  0.12558935068E+03  0.12498929213E+03 0.  0.
    9000005    1    3    3    0    0  0.35874038182E+01 -0.47911843468E+02  0.46274964762E+02  0.66714215685E+02  0.10000000000E+01 0.  0.
    9000005    1    3    3    0    0 -0.35874038182E+01  0.47911843468E+02 -0.34012752173E+02  0.58875134998E+02  0.10000000000E+01 0.  0.
<mgrwt>
<rscale>  0 0.12498929E+03</rscale>
<asrwt>0</asrwt>
<pdfrwt beam="1">  1        4 0.17231445E-01 0.12498929E+03</pdfrwt>
<pdfrwt beam="2">  1       -4 0.14165892E-01 0.12498929E+03</pdfrwt>
<totfact> 0.19808089E+03</totfact>
</mgrwt>
</event>
<event>
 5    1  0.1430314E-002  0.1250024E+03  0.7818608E-02  0.1235065E+00
          4   -1    0    0  501    0  0.00000000000E+00  0.00000000000E+00  0.57402521972E+01  0.58790641507E+01  0.12700000000E+01 0. -1.
         -4   -1    0    0    0  501 -0.00000000000E+00 -0.00000000000E+00 -0.67225842585E+03  0.67225962546E+03  0.12700000000E+01 0. -1.
         25    2    1    2    0    0  0.00000000000E+00  0.00000000000E+00 -0.66651817365E+03  0.67813868961E+03  0.12500242614E+03 0.  0.
    9000005    1    3    3    0    0  0.32388135061E+02  0.15726663253E+02 -0.56154331553E+02  0.66713028577E+02  0.10000000000E+01 0.  0.
    9000005    1    3    3    0    0 -0.32388135061E+02 -0.15726663253E+02 -0.61036384210E+03  0.61142566103E+03  0.10000000000E+01 0.  0.
<mgrwt>
<rscale>  0 0.12500243E+03</rscale>
<asrwt>0</asrwt>
<pdfrwt beam="1">  1        4 0.14525668E-02 0.12500243E+03</pdfrwt>
<pdfrwt beam="2">  1       -4 0.16808184E+00 0.12500243E+03</pdfrwt>
<totfact> 0.64377651E+02</totfact>
</mgrwt>
</event>
<event>
 5    1  0.1430314E-002  0.1250037E+03  0.7818608E-02  0.1235063E+00
          4   -1    0    0  501    0  0.00000000000E+00  0.00000000000E+00  0.12665204962E+02  0.12728720153E+02  0.12700000000E+01 0. -1.
         -4   -1    0    0    0  501 -0.00000000000E+00 -0.00000000000E+00 -0.30760589394E+03  0.30760851563E+03  0.12700000000E+01 0. -1.
         25    2    1    2    0    0  0.00000000000E+00  0.00000000000E+00 -0.29494068898E+03  0.32033723578E+03  0.12500373839E+03 0.  0.
    9000005    1    3    3    0    0 -0.53082615709E+01 -0.44431109269E+02 -0.35674761536E+02  0.57236262303E+02  0.10000000000E+01 0.  0.
    9000005    1    3    3    0    0  0.53082615709E+01  0.44431109269E+02 -0.25926592744E+03  0.26310097348E+03  0.10000000000E+01 0.  0.
<mgrwt>
<rscale>  0 0.12500374E+03</rscale>
<asrwt>0</asrwt>
<pdfrwt beam="1">  1        4 0.31745694E-02 0.12500374E+03</pdfrwt>
<pdfrwt beam="2">  1       -4 0.76909716E-01 0.12500374E+03</pdfrwt>
<totfact> 0.12418559E+03</totfact>
</mgrwt>
</event>
<event>
 4    1  0.1430314E-002  0.1249256E+03  0.7818608E-02  0.1235186E+00
          4   -1    0    0  501    0  0.00000000000E+00  0.00000000000E+00  0.46204998702E+01  0.47918596652E+01  0.12700000000E+01 0.  1.
         -4   -1    0    0    0  501 -0.00000000000E+00 -0.00000000000E+00 -0.82886583448E+03  0.82886680743E+03  0.12700000000E+01 0.  1.
    9000005    1    1    2    0    0 -0.63833929283E+00  0.46383276012E+02 -0.69118745722E+03  0.69274303807E+03  0.10000000000E+01 0.  0.
    9000005    1    1    2    0    0  0.63833929283E+00 -0.46383276012E+02 -0.13305787739E+03  0.14091562903E+03  0.10000000000E+01 0.  0.
<mgrwt>
<rscale>  0 0.12492558E+03</rscale>
<asrwt>0</asrwt>
<pdfrwt beam="1">  1        4 0.11766694E-02 0.12492558E+03</pdfrwt>
<pdfrwt beam="2">  1       -4 0.20723750E+00 0.12492558E+03</pdfrwt>
<totfact> 0.49667597E+02</totfact>
</mgrwt>
</event>
<event>
 5    1  0.1430314E-002  0.1249796E+03  0.7818608E-02  0.1235101E+00
         -4   -1    0    0    0  501 -0.00000000000E+00  0.00000000000E+00  0.10576888723E+03  0.10577651160E+03  0.12700000000E+01 0. -1.
          4   -1    0    0  501    0  0.00000000000E+00 -0.00000000000E+00 -0.36899976699E+02  0.36921825258E+02  0.12700000000E+01 0. -1.
         25    2    1    2    0    0  0.00000000000E+00  0.00000000000E+00  0.68868910534E+02  0.14269833686E+03  0.12497955235E+03 0.  0.
    9000005    1    3    3    0    0  0.78807671215E+01  0.38357456192E+01 -0.36200201878E+02  0.37259549794E+02  0.10000000000E+01 0.  0.
    9000005    1    3    3    0    0 -0.78807671215E+01 -0.38357456192E+01  0.10506911241E+03  0.10543878707E+03  0.10000000000E+01 0.  0.
<mgrwt>
<rscale>  0 0.12497955E+03</rscale>
<asrwt>0</asrwt>
<pdfrwt beam="2">  1        4 0.92286784E-02 0.12497955E+03</pdfrwt>
<pdfrwt beam="1">  1       -4 0.26445906E-01 0.12497955E+03</pdfrwt>
<totfact> 0.18912152E+03</totfact>
</mgrwt>
</event>
<event>
 5    1  0.1430314E-002  0.1250174E+03  0.7818608E-02  0.1235042E+00
         -4   -1    0    0    0  501 -0.00000000000E+00  0.00000000000E+00  0.20082395438E+02  0.20122512431E+02  0.12700000000E+01 0.  1.
          4   -1    0    0  501    0  0.00000000000E+00 -0.00000000000E+00 -0.19432912409E+03  0.19433327397E+03  0.12700000000E+01 0.  1.
         25    2    1    2    0    0  0.00000000000E+00  0.00000000000E+00 -0.17424672866E+03  0.21445578640E+03  0.12501744627E+03 0.  0.
    9000005    1    3    3    0    0  0.13890700067E+02 -0.60174565021E+02 -0.70633079974E+02  0.93829429341E+02  0.10000000000E+01 0.  0.
    9000005    1    3    3    0    0 -0.13890700067E+02  0.60174565021E+02 -0.10361364868E+03  0.12062635706E+03  0.10000000000E+01 0.  0.
<mgrwt>
<rscale>  0 0.12501745E+03</rscale>
<asrwt>0</asrwt>
<pdfrwt beam="2">  1        4 0.48587809E-01 0.12501745E+03</pdfrwt>
<pdfrwt beam="1">  1       -4 0.50261328E-02 0.12501745E+03</pdfrwt>
<totfact> 0.15752774E+03</totfact>
</mgrwt>
</event>
<event>
 5    1  0.1430314E-002  0.1250017E+03  0.7818608E-02  0.1235067E+00
         -4   -1    0    0    0  501 -0.00000000000E+00  0.00000000000E+00  0.14856316934E+03  0.14856859757E+03  0.12700000000E+01 0.  1.
          4   -1    0    0  501    0  0.00000000000E+00 -0.00000000000E+00 -0.26272984819E+02  0.26303661937E+02  0.12700000000E+01 0.  1.
         25    2    1    2    0    0  0.00000000000E+00  0.00000000000E+00  0.12229018452E+03  0.17487225951E+03  0.12500167165E+03 0.  0.
    9000005    1    3    3    0    0  0.20739725482E+02 -0.40379218902E+02  0.12123095809E+03  0.12945486754E+03  0.10000000000E+01 0.  0.
    9000005    1    3    3    0    0 -0.20739725482E+02  0.40379218902E+02  0.10592264343E+01  0.45417391964E+02  0.10000000000E+01 0.  0.
<mgrwt>
<rscale>  0 0.12500167E+03</rscale>
<asrwt>0</asrwt>
<pdfrwt beam="2">  1        4 0.65727594E-02 0.12500167E+03</pdfrwt>
<pdfrwt beam="1">  1       -4 0.37145306E-01 0.12500167E+03</pdfrwt>
<totfact> 0.17378826E+03</totfact>
</mgrwt>
</event>
<event>
 5    1  0.1430314E-002  0.1250002E+03  0.7818608E-02  0.1235069E+00
         -4   -1    0    0    0  501 -0.00000000000E+00  0.00000000000E+00  0.56312587322E+02  0.56326906456E+02  0.12700000000E+01 0.  1.
          4   -1    0    0  501    0  0.00000000000E+00 -0.00000000000E+00 -0.69338569670E+02  0.69350199307E+02  0.12700000000E+01 0.  1.
         25    2    1    2    0    0  0.00000000000E+00  0.00000000000E+00 -0.13025982348E+02  0.12567710576E+03  0.12500023479E+03 0.  0.
    9000005    1    3    3    0    0 -0.42465870651E+02  0.44008119497E+01  0.39369055790E+02  0.58083042877E+02  0.10000000000E+01 0.  0.
    9000005    1    3    3    0    0  0.42465870651E+02 -0.44008119497E+01 -0.52395038139E+02  0.67594062887E+02  0.10000000000E+01 0.  0.
<mgrwt>
<rscale>  0 0.12500023E+03</rscale>
<asrwt>0</asrwt>
<pdfrwt beam="2">  1        4 0.17337886E-01 0.12500023E+03</pdfrwt>
<pdfrwt beam="1">  1       -4 0.14081390E-01 0.12500023E+03</pdfrwt>
<totfact> 0.19798270E+03</totfact>
</mgrwt>
</event>
<event>
 5    1  0.1430314E-002  0.1249958E+03  0.7818608E-02  0.1235076E+00
         -4   -1    0    0    0  501 -0.00000000000E+00  0.00000000000E+00  0.32815403487E+02  0.32839969641E+02  0.12700000000E+01 0. -1.
          4   -1    0    0  501    0  0.00000000000E+00 -0.00000000000E+00 -0.11895657053E+03  0.11896334970E+03  0.12700000000E+01 0. -1.
         25    2    1    2    0    0  0.00000000000E+00  0.00000000000E+00 -0.86141167039E+02  0.15180331934E+03  0.12499578834E+03 0.  0.
    9000005    1    3    3    0    0 -0.59876654455E+02 -0.24777542666E+01 -0.21562719060E+02  0.63696969066E+02  0.10000000000E+01 0.  0.
    9000005    1    3    3    0    0  0.59876654455E+02  0.24777542666E+01 -0.64578447979E+02  0.88106350273E+02  0.10000000000E+01 0.  0.
<mgrwt>
<rscale>  0 0.12499579E+03</rscale>
<asrwt>0</asrwt>
<pdfrwt beam="2">  1        4 0.29743060E-01 0.12499579E+03</pdfrwt>
<pdfrwt beam="1">  1       -4 0.82077693E-02 0.12499579E+03</pdfrwt>
<totfact> 0.18452274E+03</totfact>
</mgrwt>
</event>
<event>
 5    1  0.1430314E-002  0.1249860E+03  0.7818608E-02  0.1235091E+00
          4   -1    0    0  501    0  0.00000000000E+00  0.00000000000E+00  0.11140432676E+03  0.11141156547E+03  0.12700000000E+01 0.  1.
         -4   -1    0    0    0  501 -0.00000000000E+00 -0.00000000000E+00 -0.35036002687E+02  0.35059012882E+02  0.12700000000E+01 0.  1.
         25    2    1    2    0    0  0.00000000000E+00  0.00000000000E+00  0.76368324070E+02  0.14647057835E+03  0.12498603683E+03 0.  0.
    9000005    1    3    3    0    0  0.36640751699E+02 -0.48078984987E+02  0.56722492567E+02  0.82900993030E+02  0.10000000000E+01 0.  0.
    9000005    1    3    3    0    0 -0.36640751699E+02  0.48078984987E+02  0.19645831503E+02  0.63569585321E+02  0.10000000000E+01 0.  0.
<mgrwt>
<rscale>  0 0.12498604E+03</rscale>
<asrwt>0</asrwt>
<pdfrwt beam="1">  1        4 0.27854862E-01 0.12498604E+03</pdfrwt>
<pdfrwt beam="2">  1       -4 0.87627819E-02 0.12498604E+03</pdfrwt>
<totfact> 0.18719780E+03</totfact>
</mgrwt>
</event>
<event>
 5    1  0.1430314E-002  0.1250038E+03  0.7818608E-02  0.1235063E+00
         -4   -1    0    0    0  501 -0.00000000000E+00  0.00000000000E+00  0.79873881231E+01  0.80877233526E+01  0.12700000000E+01 0.  1.
          4   -1    0    0  501    0  0.00000000000E+00 -0.00000000000E+00 -0.48592789471E+03  0.48592955432E+03  0.12700000000E+01 0.  1.
         25    2    1    2    0    0  0.00000000000E+00  0.00000000000E+00 -0.47794050659E+03  0.49401727767E+03  0.12500377114E+03 0.  0.
    9000005    1    3    3    0    0  0.46652977557E+02  0.39000196734E+02 -0.29596297666E+03  0.30214665183E+03  0.10000000000E+01 0.  0.
    9000005    1    3    3    0    0 -0.46652977557E+02 -0.39000196734E+02 -0.18197752992E+03  0.19187062583E+03  0.10000000000E+01 0.  0.
<mgrwt>
<rscale>  0 0.12500377E+03</rscale>
<asrwt>0</asrwt>
<pdfrwt beam="2">  1        4 0.12149462E+00 0.12500377E+03</pdfrwt>
<pdfrwt beam="1">  1       -4 0.20095980E-02 0.12500377E+03</pdfrwt>
<totfact> 0.88558739E+02</totfact>
</mgrwt>
</event>
<event>
 5    1  0.1430314E-002  0.1250019E+03  0.7818608E-02  0.1235066E+00
          4   -1    0    0  501    0  0.00000000000E+00  0.00000000000E+00  0.12515517435E+04  0.12515523878E+04  0.12700000000E+01 0. -1.
         -4   -1    0    0    0  501 -0.00000000000E+00 -0.00000000000E+00 -0.29913575958E+01  0.32497877263E+01  0.12700000000E+01 0. -1.
         25    2    1    2    0    0  0.00000000000E+00  0.00000000000E+00  0.12485603859E+04  0.12548021756E+04  0.12500185041E+03 0.  0.
    9000005    1    3    3    0    0  0.39713329502E+02  0.47649419633E+02  0.70056437868E+03  0.70330581144E+03  0.10000000000E+01 0.  0.
    9000005    1    3    3    0    0 -0.39713329502E+02 -0.47649419633E+02  0.54799600720E+03  0.55149636412E+03  0.10000000000E+01 0.  0.
<mgrwt>
<rscale>  0 0.12500185E+03</rscale>
<asrwt>0</asrwt>
<pdfrwt beam="1">  1        4 0.31291982E+00 0.12500185E+03</pdfrwt>
<pdfrwt beam="2">  1       -4 0.78022496E-03 0.12500185E+03</pdfrwt>
<totfact> 0.22440484E+02</totfact>
</mgrwt>
</event>
<event>
 5    1  0.1430314E-002  0.1249995E+03  0.7818608E-02  0.1235070E+00
          4   -1    0    0  501    0  0.00000000000E+00  0.00000000000E+00  0.18472626633E+02  0.18516231655E+02  0.12700000000E+01 0. -1.
         -4   -1    0    0    0  501 -0.00000000000E+00 -0.00000000000E+00 -0.21116506155E+03  0.21116888057E+03  0.12700000000E+01 0. -1.
         25    2    1    2    0    0  0.00000000000E+00  0.00000000000E+00 -0.19269243492E+03  0.22968511222E+03  0.12499950521E+03 0.  0.
    9000005    1    3    3    0    0 -0.12154399967E+02 -0.60616013468E+02 -0.11310553479E+03  0.12890264748E+03  0.10000000000E+01 0.  0.
    9000005    1    3    3    0    0  0.12154399967E+02  0.60616013468E+02 -0.79586900130E+02  0.10078246474E+03  0.10000000000E+01 0.  0.
<mgrwt>
<rscale>  0 0.12499951E+03</rscale>
<asrwt>0</asrwt>
<pdfrwt beam="1">  1        4 0.46240853E-02 0.12499951E+03</pdfrwt>
<pdfrwt beam="2">  1       -4 0.52797186E-01 0.12499951E+03</pdfrwt>
<totfact> 0.15198744E+03</totfact>
</mgrwt>
</event>
<event>
 5    1  0.1430314E-002  0.1250004E+03  0.7818608E-02  0.1235069E+00
          4   -1    0    0  501    0  0.00000000000E+00  0.00000000000E+00  0.31220828207E+03  0.31221086511E+03  0.12700000000E+01 0. -1.
         -4   -1    0    0    0  501 -0.00000000000E+00 -0.00000000000E+00 -0.12476899381E+02  0.12541368273E+02  0.12700000000E+01 0. -1.
         25    2    1    2    0    0  0.00000000000E+00  0.00000000000E+00  0.29973138269E+03  0.32475223339E+03  0.12500044528E+03 0.  0.
    9000005    1    3    3    0    0 -0.38987877145E+01 -0.20077426430E+02  0.30327967789E+03  0.30397017390E+03  0.10000000000E+01 0.  0.
    9000005    1    3    3    0    0  0.38987877145E+01  0.20077426430E+02 -0.35482952013E+01  0.20782059487E+02  0.10000000000E+01 0.  0.
<mgrwt>
<rscale>  0 0.12500045E+03</rscale>
<asrwt>0</asrwt>
<pdfrwt beam="1">  1        4 0.78060456E-01 0.12500045E+03</pdfrwt>
<pdfrwt beam="2">  1       -4 0.31276062E-02 0.12500045E+03</pdfrwt>
<totfact> 0.12304501E+03</totfact>
</mgrwt>
</event>
<event>
 5    1  0.1430314E-002  0.1249877E+03  0.7818608E-02  0.1235088E+00
         -4   -1    0    0    0  501 -0.00000000000E+00  0.00000000000E+00  0.35037584170E+01  0.37268247939E+01  0.12700000000E+01 0.  1.
          4   -1    0    0  501    0  0.00000000000E+00 -0.00000000000E+00 -0.10800442872E+04  0.10800450339E+04  0.12700000000E+01 0.  1.
         25    2    1    2    0    0  0.00000000000E+00  0.00000000000E+00 -0.10765405288E+04  0.10837718587E+04  0.12498772558E+03 0.  0.
    9000005    1    3    3    0    0  0.24286761205E+02 -0.57314950635E+02 -0.49106884911E+03  0.49499945950E+03  0.10000000000E+01 0.  0.
    9000005    1    3    3    0    0 -0.24286761205E+02  0.57314950635E+02 -0.58547167971E+03  0.58877239921E+03  0.10000000000E+01 0.  0.
<mgrwt>
<rscale>  0 0.12498773E+03</rscale>
<asrwt>0</asrwt>
<pdfrwt beam="2">  1        4 0.27003794E+00 0.12498773E+03</pdfrwt>
<pdfrwt beam="1">  1       -4 0.90391994E-03 0.12498773E+03</pdfrwt>
<totfact> 0.31766306E+02</totfact>
</mgrwt>
</event>
<event>
 5    1  0.1430314E-002  0.1249965E+03  0.7818608E-02  0.1235075E+00
         -4   -1    0    0    0  501 -0.00000000000E+00  0.00000000000E+00  0.65700129946E+03  0.65700252693E+03  0.12700000000E+01 0. -1.
          4   -1    0    0  501    0  0.00000000000E+00 -0.00000000000E+00 -0.58761717458E+01  0.60118461712E+01  0.12700000000E+01 0. -1.
         25    2    1    2    0    0  0.00000000000E+00  0.00000000000E+00  0.65112512771E+03  0.66301437310E+03  0.12499650794E+03 0.  0.
    9000005    1    3    3    0    0  0.25375114691E+01 -0.49127999211E+02  0.52996828122E+03  0.53224747851E+03  0.10000000000E+01 0.  0.
    9000005    1    3    3    0    0 -0.25375114691E+01  0.49127999211E+02  0.12115684649E+03  0.13076689459E+03  0.10000000000E+01 0.  0.
<mgrwt>
<rscale>  0 0.12499651E+03</rscale>
<asrwt>0</asrwt>
<pdfrwt beam="2">  1        4 0.14861558E-02 0.12499651E+03</pdfrwt>
<pdfrwt beam="1">  1       -4 0.16426742E+00 0.12499651E+03</pdfrwt>
<totfact> 0.66046505E+02</totfact>
</mgrwt>
</event>
<event>
 5    1  0.1430314E-002  0.1249912E+03  0.7818608E-02  0.1235083E+00
         -4   -1    0    0    0  501 -0.00000000000E+00  0.00000000000E+00  0.26209825272E+02  0.26240576228E+02  0.12700000000E+01 0. -1.
          4   -1    0    0  501    0  0.00000000000E+00 -0.00000000000E+00 -0.14889572761E+03  0.14890114371E+03  0.12700000000E+01 0. -1.
         25    2    1    2    0    0  0.00000000000E+00  0.00000000000E+00 -0.12268590233E+03  0.17514171994E+03  0.12499116542E+03 0.  0.
    9000005    1    3    3    0    0  0.41765364531E+02 -0.57484575700E+01 -0.12597165117E+03  0.13284294237E+03  0.10000000000E+01 0.  0.
    9000005    1    3    3    0    0 -0.41765364531E+02  0.57484575700E+01  0.32857488353E+01  0.42298777574E+02  0.10000000000E+01 0.  0.
<mgrwt>
<rscale>  0 0.12499117E+03</rscale>
<asrwt>0</asrwt>
<pdfrwt beam="2">  1        4 0.37228450E-01 0.12499117E+03</pdfrwt>
<pdfrwt beam="1">  1       -4 0.65569776E-02 0.12499117E+03</pdfrwt>
<totfact> 0.17371157E+03</totfact>
</mgrwt>
</event>
<event>
 5    1  0.1430314E-002  0.1250088E+03  0.7818608E-02  0.1235056E+00
         -4   -1    0    0    0  501 -0.00000000000E+00  0.00000000000E+00  0.15556254124E+03  0.15556772524E+03  0.12700000000E+01 0. -1.
          4   -1    0    0  501    0  0.00000000000E+00 -0.00000000000E+00 -0.25092344965E+02  0.25124463692E+02  0.12700000000E+01 0. -1.
         25    2    1    2    0    0  0.00000000000E+00  0.00000000000E+00  0.13047019627E+03  0.18069218893E+03  0.12500877979E+03 0.  0.
    9000005    1    3    3    0    0  0.43204487096E+02  0.54143480965E+01  0.13003604055E+03  0.13713611746E+03  0.10000000000E+01 0.  0.
    9000005    1    3    3    0    0 -0.43204487096E+02 -0.54143480965E+01  0.43415572043E+00  0.43556071468E+02  0.10000000000E+01 0.  0.
<mgrwt>
<rscale>  0 0.12500878E+03</rscale>
<asrwt>0</asrwt>
<pdfrwt beam="2">  1        4 0.62777492E-02 0.12500878E+03</pdfrwt>
<pdfrwt beam="1">  1       -4 0.38895298E-01 0.12500878E+03</pdfrwt>
<totfact> 0.17121810E+03</totfact>
</mgrwt>
</event>
<event>
 5    1  0.1430314E-002  0.1250001E+03  0.7818608E-02  0.1235069E+00
         -4   -1    0    0    0  501 -0.00000000000E+00  0.00000000000E+00  0.14269574218E+03  0.14270139360E+03  0.12700000000E+01 0.  1.
          4   -1    0    0  501    0  0.00000000000E+00 -0.00000000000E+00 -0.27353783643E+02  0.27383249982E+02  0.12700000000E+01 0.  1.
         25    2    1    2    0    0  0.00000000000E+00  0.00000000000E+00  0.11534195853E+03  0.17008464358E+03  0.12500007434E+03 0.  0.
    9000005    1    3    3    0    0  0.28445038513E+02 -0.55496481615E+02  0.63160251577E+02  0.88764841390E+02  0.10000000000E+01 0.  0.
    9000005    1    3    3    0    0 -0.28445038513E+02  0.55496481615E+02  0.52181706956E+02  0.81319802192E+02  0.10000000000E+01 0.  0.
<mgrwt>
<rscale>  0 0.12500007E+03</rscale>
<asrwt>0</asrwt>
<pdfrwt beam="2">  1        4 0.68428357E-02 0.12500007E+03</pdfrwt>
<pdfrwt beam="1">  1       -4 0.35678325E-01 0.12500007E+03</pdfrwt>
<totfact> 0.17593200E+03</totfact>
</mgrwt>
</event>
<event>
 5    1  0.1430314E-002  0.1249969E+03  0.7818608E-02  0.1235074E+00
          4   -1    0    0  501    0  0.00000000000E+00  0.00000000000E+00  0.29257102685E+02  0.29284653959E+02  0.12700000000E+01 0. -1.
         -4   -1    0    0    0  501 -0.00000000000E+00 -0.00000000000E+00 -0.13341445408E+03  0.13342049864E+03  0.12700000000E+01 0. -1.
         25    2    1    2    0    0  0.00000000000E+00  0.00000000000E+00 -0.10415735140E+03  0.16270515260E+03  0.12499685129E+03 0.  0.
    9000005    1    3    3    0    0 -0.37878800453E+02  0.79550313790E+01 -0.11593991112E+03  0.12223399297E+03  0.10000000000E+01 0.  0.
    9000005    1    3    3    0    0  0.37878800453E+02 -0.79550313790E+01  0.11782559722E+02  0.40471159628E+02  0.10000000000E+01 0.  0.
<mgrwt>
<rscale>  0 0.12499685E+03</rscale>
<asrwt>0</asrwt>
<pdfrwt beam="1">  1        4 0.73184755E-02 0.12499685E+03</pdfrwt>
<pdfrwt beam="2">  1       -4 0.33357811E-01 0.12499685E+03</pdfrwt>
<totfact> 0.17932496E+03</totfact>
</mgrwt>
</event>
<event>
 5    1  0.1430314E-002  0.1249994E+03  0.7818608E-02  0.1235070E+00
         -4   -1    0    0    0  501 -0.00000000000E+00  0.00000000000E+00  0.41029053259E+03  0.41029249814E+03  0.12700000000E+01 0. -1.
          4   -1    0    0  501    0  0.00000000000E+00 -0.00000000000E+00 -0.94762565849E+01  0.95609800158E+01  0.12700000000E+01 0. -1.
         25    2    1    2    0    0  0.00000000000E+00  0.00000000000E+00  0.40081427600E+03  0.41985347816E+03  0.12499943709E+03 0.  0.
    9000005    1    3    3    0    0 -0.17876819931E+02 -0.52886842061E+02  0.10608307324E+03  0.11988001160E+03  0.10000000000E+01 0.  0.
    9000005    1    3    3    0    0  0.17876819931E+02  0.52886842061E+02  0.29473120277E+03  0.29997346656E+03  0.10000000000E+01 0.  0.
<mgrwt>
<rscale>  0 0.12499944E+03</rscale>
<asrwt>0</asrwt>
<pdfrwt beam="2">  1        4 0.23799004E-02 0.12499944E+03</pdfrwt>
<pdfrwt beam="1">  1       -4 0.10258346E+00 0.12499944E+03</pdfrwt>
<totfact> 0.10169141E+03</totfact>
</mgrwt>
</event>
<event>
 5    1  0.1430314E-002  0.1250142E+03  0.7818608E-02  0.1235047E+00
          4   -1    0    0  501    0  0.00000000000E+00  0.00000000000E+00  0.74737936325E+02  0.74748725916E+02  0.12700000000E+01 0. -1.
         -4   -1    0    0    0  501 -0.00000000000E+00 -0.00000000000E+00 -0.52255585793E+02  0.52271016315E+02  0.12700000000E+01 0. -1.
         25    2    1    2    0    0  0.00000000000E+00  0.00000000000E+00  0.22482350532E+02  0.12701974223E+03  0.12501423451E+03 0.  0.
    9000005    1    3    3    0    0 -0.69898988611E+01  0.62068596425E+02  0.90220219063E+01  0.63117083484E+02  0.10000000000E+01 0.  0.
    9000005    1    3    3    0    0  0.69898988611E+01 -0.62068596425E+02  0.13460328625E+02  0.63902658747E+02  0.10000000000E+01 0.  0.
<mgrwt>
<rscale>  0 0.12501423E+03</rscale>
<asrwt>0</asrwt>
<pdfrwt beam="1">  1        4 0.18687762E-01 0.12501423E+03</pdfrwt>
<pdfrwt beam="2">  1       -4 0.13067174E-01 0.12501423E+03</pdfrwt>
<totfact> 0.19719350E+03</totfact>
</mgrwt>
</event>
<event>
 5    1  0.1430314E-002  0.1249998E+03  0.7818608E-02  0.1235070E+00
          4   -1    0    0  501    0  0.00000000000E+00  0.00000000000E+00  0.15824218610E+03  0.15824728232E+03  0.12700000000E+01 0. -1.
         -4   -1    0    0    0  501 -0.00000000000E+00 -0.00000000000E+00 -0.24663333290E+02  0.24696009981E+02  0.12700000000E+01 0. -1.
         25    2    1    2    0    0  0.00000000000E+00  0.00000000000E+00  0.13357885281E+03  0.18294329231E+03  0.12499975312E+03 0.  0.
    9000005    1    3    3    0    0 -0.37337843239E+02 -0.35309528931E+02  0.14748834436E+02  0.53473409170E+02  0.10000000000E+01 0.  0.
    9000005    1    3    3    0    0  0.37337843239E+02  0.35309528931E+02  0.11883001838E+03  0.12946988313E+03  0.10000000000E+01 0.  0.
<mgrwt>
<rscale>  0 0.12499975E+03</rscale>
<asrwt>0</asrwt>
<pdfrwt beam="1">  1        4 0.39565268E-01 0.12499975E+03</pdfrwt>
<pdfrwt beam="2">  1       -4 0.61705550E-02 0.12499975E+03</pdfrwt>
<totfact> 0.17028657E+03</totfact>
</mgrwt>
</event>
<event>
 5    1  0.1430314E-002  0.1250018E+03  0.7818608E-02  0.1235066E+00
         -4   -1    0    0    0  501 -0.00000000000E+00  0.00000000000E+00  0.26598621658E+02  0.26628923638E+02  0.12700000000E+01 0. -1.
          4   -1    0    0  501    0  0.00000000000E+00 -0.00000000000E+00 -0.14674665827E+03  0.14675215369E+03  0.12700000000E+01 0. -1.
         25    2    1    2    0    0  0.00000000000E+00  0.00000000000E+00 -0.12014803661E+03  0.17338107733E+03  0.12500178909E+03 0.  0.
    9000005    1    3    3    0    0  0.13443225249E+02  0.49541751239E+02 -0.10639402443E+02  0.52433789728E+02  0.10000000000E+01 0.  0.
    9000005    1    3    3    0    0 -0.13443225249E+02 -0.49541751239E+02 -0.10950863417E+03  0.12094728760E+03  0.10000000000E+01 0.  0.
<mgrwt>
<rscale>  0 0.12500179E+03</rscale>
<asrwt>0</asrwt>
<pdfrwt beam="2">  1        4 0.36691137E-01 0.12500179E+03</pdfrwt>
<pdfrwt beam="1">  1       -4 0.66541305E-02 0.12500179E+03</pdfrwt>
<totfact> 0.17444892E+03</totfact>
</mgrwt>
</event>
<event>
 5    1  0.1430314E-002  0.1249996E+03  0.7818608E-02  0.1235070E+00
          4   -1    0    0  501    0  0.00000000000E+00  0.00000000000E+00  0.34721494204E+03  0.34721726466E+03  0.12700000000E+01 0. -1.
         -4   -1    0    0    0  501 -0.00000000000E+00 -0.00000000000E+00 -0.11211954875E+02  0.11283653314E+02  0.12700000000E+01 0. -1.
         25    2    1    2    0    0  0.00000000000E+00  0.00000000000E+00  0.33600298717E+03  0.35850091797E+03  0.12499960321E+03 0.  0.
    9000005    1    3    3    0    0  0.30411804092E+02 -0.42638341577E+02  0.26578021265E+03  0.27089301843E+03  0.10000000000E+01 0.  0.
    9000005    1    3    3    0    0 -0.30411804092E+02  0.42638341577E+02  0.70222774519E+02  0.87607899540E+02  0.10000000000E+01 0.  0.
<mgrwt>
<rscale>  0 0.12499960E+03</rscale>
<asrwt>0</asrwt>
<pdfrwt beam="1">  1        4 0.86812987E-01 0.12499960E+03</pdfrwt>
<pdfrwt beam="2">  1       -4 0.28122414E-02 0.12499960E+03</pdfrwt>
<totfact> 0.11477266E+03</totfact>
</mgrwt>
</event>
<event>
 5    1  0.1430314E-002  0.1249984E+03  0.7818608E-02  0.1235072E+00
         -4   -1    0    0    0  501 -0.00000000000E+00  0.00000000000E+00  0.58121836503E+03  0.58121975255E+03  0.12700000000E+01 0.  1.
          4   -1    0    0  501    0  0.00000000000E+00 -0.00000000000E+00 -0.66592195189E+01  0.67792407098E+01  0.12700000000E+01 0.  1.
         25    2    1    2    0    0  0.00000000000E+00  0.00000000000E+00  0.57455914551E+03  0.58799899326E+03  0.12499841750E+03 0.  0.
    9000005    1    3    3    0    0 -0.16062008021E+01 -0.54685580737E+02  0.42934336672E+03  0.43281614939E+03  0.10000000000E+01 0.  0.
    9000005    1    3    3    0    0  0.16062008021E+01  0.54685580737E+02  0.14521577879E+03  0.15518284387E+03  0.10000000000E+01 0.  0.
<mgrwt>
<rscale>  0 0.12499842E+03</rscale>
<asrwt>0</asrwt>
<pdfrwt beam="2">  1        4 0.16799806E-02 0.12499842E+03</pdfrwt>
<pdfrwt beam="1">  1       -4 0.14531980E+00 0.12499842E+03</pdfrwt>
<totfact> 0.75036592E+02</totfact>
</mgrwt>
</event>
<event>
 4    1  0.1430314E-002  0.1249241E+03  0.7818608E-02  0.1235188E+00
          4   -1    0    0  501    0  0.00000000000E+00  0.00000000000E+00  0.12031924585E+02  0.12098764781E+02  0.12700000000E+01 0. -1.
         -4   -1    0    0    0  501 -0.00000000000E+00 -0.00000000000E+00 -0.32329687282E+03  0.32329936727E+03  0.12700000000E+01 0. -1.
    9000005    1    1    2    0    0  0.46230765976E+02 -0.27491143997E+02 -0.70414961470E+02  0.88613280719E+02  0.10000000000E+01 0.  0.
    9000005    1    1    2    0    0 -0.46230765976E+02  0.27491143997E+02 -0.24084998676E+03  0.24678485133E+03  0.10000000000E+01 0.  0.
<mgrwt>
<rscale>  0 0.12492413E+03</rscale>
<asrwt>0</asrwt>
<pdfrwt beam="1">  1        4 0.30166490E-02 0.12492413E+03</pdfrwt>
<pdfrwt beam="2">  1       -4 0.80832856E-01 0.12492413E+03</pdfrwt>
<totfact> 0.12054803E+03</totfact>
</mgrwt>
</event>
<event>
 5    1  0.1430314E-002  0.1250002E+03  0.7818608E-02  0.1235069E+00
         -4   -1    0    0    0  501 -0.00000000000E+00  0.00000000000E+00  0.50880640538E+02  0.50896487910E+02  0.12700000000E+01 0.  1.
          4   -1    0    0  501    0  0.00000000000E+00 -0.00000000000E+00 -0.76740052790E+02  0.76750560924E+02  0.12700000000E+01 0.  1.
         25    2    1    2    0    0  0.00000000000E+00  0.00000000000E+00 -0.25859412252E+02  0.12764704883E+03  0.12500023950E+03 0.  0.
    9000005    1    3    3    0    0  0.29533335980E+02 -0.28767208084E+02 -0.60886810181E+02  0.73538927440E+02  0.10000000000E+01 0.  0.
    9000005    1    3    3    0    0 -0.29533335980E+02  0.28767208084E+02  0.35027397929E+02  0.54108121394E+02  0.10000000000E+01 0.  0.
<mgrwt>
<rscale>  0 0.12500024E+03</rscale>
<asrwt>0</asrwt>
<pdfrwt beam="2">  1        4 0.19188308E-01 0.12500024E+03</pdfrwt>
<pdfrwt beam="1">  1       -4 0.12723455E-01 0.12500024E+03</pdfrwt>
<totfact> 0.19691651E+03</totfact>
</mgrwt>
</event>
<event>
 5    1  0.1430314E-002  0.1250028E+03  0.7818608E-02  0.1235065E+00
          4   -1    0    0  501    0  0.00000000000E+00  0.00000000000E+00  0.65362065826E+02  0.65374402858E+02  0.12700000000E+01 0. -1.
         -4   -1    0    0    0  501 -0.00000000000E+00 -0.00000000000E+00 -0.59741228191E+02  0.59754725720E+02  0.12700000000E+01 0. -1.
         25    2    1    2    0    0  0.00000000000E+00  0.00000000000E+00  0.56208376342E+01  0.12512912858E+03  0.12500281998E+03 0.  0.
    9000005    1    3    3    0    0  0.33212826528E+02  0.61034046919E+01 -0.49826769679E+02  0.60200086142E+02  0.10000000000E+01 0.  0.
    9000005    1    3    3    0    0 -0.33212826528E+02 -0.61034046919E+01  0.55447607313E+02  0.64929042435E+02  0.10000000000E+01 0.  0.
<mgrwt>
<rscale>  0 0.12500282E+03</rscale>
<asrwt>0</asrwt>
<pdfrwt beam="1">  1        4 0.16343746E-01 0.12500282E+03</pdfrwt>
<pdfrwt beam="2">  1       -4 0.14938536E-01 0.12500282E+03</pdfrwt>
<totfact> 0.19826746E+03</totfact>
</mgrwt>
</event>
<event>
 5    1  0.1430314E-002  0.1250308E+03  0.7818608E-02  0.1235021E+00
          4   -1    0    0  501    0  0.00000000000E+00  0.00000000000E+00  0.19433417377E+02  0.19474871269E+02  0.12700000000E+01 0. -1.
         -4   -1    0    0    0  501 -0.00000000000E+00 -0.00000000000E+00 -0.20084834767E+03  0.20085236285E+03  0.12700000000E+01 0. -1.
         25    2    1    2    0    0  0.00000000000E+00  0.00000000000E+00 -0.18141493029E+03  0.22032723412E+03  0.12503084883E+03 0.  0.
    9000005    1    3    3    0    0  0.13224379046E+02  0.60897345845E+02 -0.82109283744E+02  0.10308397261E+03  0.10000000000E+01 0.  0.
    9000005    1    3    3    0    0 -0.13224379046E+02 -0.60897345845E+02 -0.99305646547E+02  0.11724326151E+03  0.10000000000E+01 0.  0.
<mgrwt>
<rscale>  0 0.12503085E+03</rscale>
<asrwt>0</asrwt>
<pdfrwt beam="1">  1        4 0.48640386E-02 0.12503085E+03</pdfrwt>
<pdfrwt beam="2">  1       -4 0.50217764E-01 0.12503085E+03</pdfrwt>
<totfact> 0.15528157E+03</totfact>
</mgrwt>
</event>
<event>
 5    1  0.1430314E-002  0.1250009E+03  0.7818608E-02  0.1235068E+00
          4   -1    0    0  501    0  0.00000000000E+00  0.00000000000E+00  0.75914267317E+01  0.76969253487E+01  0.12700000000E+01 0. -1.
         -4   -1    0    0    0  501 -0.00000000000E+00 -0.00000000000E+00 -0.51091064349E+03  0.51091222194E+03  0.12700000000E+01 0. -1.
         25    2    1    2    0    0  0.00000000000E+00  0.00000000000E+00 -0.50331921676E+03  0.51860914729E+03  0.12500085479E+03 0.  0.
    9000005    1    3    3    0    0 -0.28539784158E+02 -0.49801562561E+00 -0.21014577715E+02  0.35459551265E+02  0.10000000000E+01 0.  0.
    9000005    1    3    3    0    0  0.28539784158E+02  0.49801562561E+00 -0.48230463904E+03  0.48314959603E+03  0.10000000000E+01 0.  0.
<mgrwt>
<rscale>  0 0.12500085E+03</rscale>
<asrwt>0</asrwt>
<pdfrwt beam="1">  1        4 0.19112430E-02 0.12500085E+03</pdfrwt>
<pdfrwt beam="2">  1       -4 0.12774093E+00 0.12500085E+03</pdfrwt>
<totfact> 0.84719437E+02</totfact>
</mgrwt>
</event>
<event>
 5    1  0.1430314E-002  0.1249993E+03  0.7818608E-02  0.1235070E+00
          4   -1    0    0  501    0  0.00000000000E+00  0.00000000000E+00  0.15767943943E+02  0.15819006169E+02  0.12700000000E+01 0. -1.
         -4   -1    0    0    0  501 -0.00000000000E+00 -0.00000000000E+00 -0.24727751337E+03  0.24728077466E+03  0.12700000000E+01 0. -1.
         25    2    1    2    0    0  0.00000000000E+00  0.00000000000E+00 -0.23150956943E+03  0.26309978083E+03  0.12499925575E+03 0.  0.
    9000005    1    3    3    0    0  0.46656429678E+02 -0.41294416307E+02 -0.12588245445E+03  0.14046153775E+03  0.10000000000E+01 0.  0.
    9000005    1    3    3    0    0 -0.46656429678E+02  0.41294416307E+02 -0.10562711498E+03  0.12263824309E+03  0.10000000000E+01 0.  0.
<mgrwt>
<rscale>  0 0.12499926E+03</rscale>
<asrwt>0</asrwt>
<pdfrwt beam="1">  1        4 0.39487772E-02 0.12499926E+03</pdfrwt>
<pdfrwt beam="2">  1       -4 0.61826156E-01 0.12499926E+03</pdfrwt>
<totfact> 0.14072394E+03</totfact>
</mgrwt>
</event>
<event>
 5    1  0.1430314E-002  0.1250004E+03  0.7818608E-02  0.1235069E+00
          4   -1    0    0  501    0  0.00000000000E+00  0.00000000000E+00  0.55770539849E+01  0.57198278951E+01  0.12700000000E+01 0. -1.
         -4   -1    0    0    0  501 -0.00000000000E+00 -0.00000000000E+00 -0.69142314734E+03  0.69142431370E+03  0.12700000000E+01 0. -1.
         25    2    1    2    0    0  0.00000000000E+00  0.00000000000E+00 -0.68584609335E+03  0.69714414160E+03  0.12500036157E+03 0.  0.
    9000005    1    3    3    0    0  0.36011956287E+02  0.50938180342E+02 -0.36357607118E+03  0.36889038852E+03  0.10000000000E+01 0.  0.
    9000005    1    3    3    0    0 -0.36011956287E+02 -0.50938180342E+02 -0.32227002218E+03  0.32825375307E+03  0.10000000000E+01 0.  0.
<mgrwt>
<rscale>  0 0.12500036E+03</rscale>
<asrwt>0</asrwt>
<pdfrwt beam="1">  1        4 0.14122584E-02 0.12500036E+03</pdfrwt>
<pdfrwt beam="2">  1       -4 0.17287349E+00 0.12500036E+03</pdfrwt>
<totfact> 0.62362835E+02</totfact>
</mgrwt>
</event>
<event>
 5    1  0.1430314E-002  0.1250018E+03  0.7818608E-02  0.1235066E+00
          4   -1    0    0  501    0  0.00000000000E+00  0.00000000000E+00  0.15497703434E+02  0.15549653106E+02  0.12700000000E+01 0.  1.
         -4   -1    0    0    0  501 -0.00000000000E+00 -0.00000000000E+00 -0.25158538468E+03  0.25158859013E+03  0.12700000000E+01 0.  1.
         25    2    1    2    0    0  0.00000000000E+00  0.00000000000E+00 -0.23608768125E+03  0.26713824324E+03  0.12500179104E+03 0.  0.
    9000005    1    3    3    0    0  0.35409402553E+02  0.47187693007E+02 -0.73994276239E+02  0.94639616845E+02  0.10000000000E+01 0.  0.
    9000005    1    3    3    0    0 -0.35409402553E+02 -0.47187693007E+02 -0.16209340501E+03  0.17249862639E+03  0.10000000000E+01 0.  0.
<mgrwt>
<rscale>  0 0.12500179E+03</rscale>
<asrwt>0</asrwt>
<pdfrwt beam="1">  1        4 0.38813211E-02 0.12500179E+03</pdfrwt>
<pdfrwt beam="2">  1       -4 0.62903227E-01 0.12500179E+03</pdfrwt>
<totfact> 0.13944196E+03</totfact>
</mgrwt>
</event>
<event>
 5    1  0.1430314E-002  0.1250065E+03  0.7818608E-02  0.1235059E+00
          4   -1    0    0  501    0  0.00000000000E+00  0.00000000000E+00  0.91451151650E+01  0.92328777411E+01  0.12700000000E+01 0. -1.
         -4   -1    0    0    0  501 -0.00000000000E+00 -0.00000000000E+00 -0.42505633014E+03  0.42505822742E+03  0.12700000000E+01 0. -1.
         25    2    1    2    0    0  0.00000000000E+00  0.00000000000E+00 -0.41591121498E+03  0.43429110516E+03  0.12500650093E+03 0.  0.
    9000005    1    3    3    0    0  0.16196892680E+02 -0.50252157542E+02 -0.32412094261E+03  0.32839458599E+03  0.10000000000E+01 0.  0.
    9000005    1    3    3    0    0 -0.16196892680E+02  0.50252157542E+02 -0.91790272368E+02  0.10589651917E+03  0.10000000000E+01 0.  0.
<mgrwt>
<rscale>  0 0.12500650E+03</rscale>
<asrwt>0</asrwt>
<pdfrwt beam="1">  1        4 0.22974877E-02 0.12500650E+03</pdfrwt>
<pdfrwt beam="2">  1       -4 0.10627522E+00 0.12500650E+03</pdfrwt>
<totfact> 0.98892643E+02</totfact>
</mgrwt>
</event>
<event>
 5    1  0.1430314E-002  0.1249981E+03  0.7818608E-02  0.1235072E+00
          4   -1    0    0  501    0  0.00000000000E+00  0.00000000000E+00  0.65979977502E+02  0.65992199018E+02  0.12700000000E+01 0.  1.
         -4   -1    0    0    0  501 -0.00000000000E+00 -0.00000000000E+00 -0.59177237928E+02  0.59190864065E+02  0.12700000000E+01 0.  1.
         25    2    1    2    0    0  0.00000000000E+00  0.00000000000E+00  0.68027395744E+01  0.12518306308E+03  0.12499808805E+03 0.  0.
    9000005    1    3    3    0    0 -0.16743484945E+02  0.49230865061E+02  0.38109663125E+02  0.64477661141E+02  0.10000000000E+01 0.  0.
    9000005    1    3    3    0    0  0.16743484945E+02 -0.49230865061E+02 -0.31306923550E+02  0.60705401942E+02  0.10000000000E+01 0.  0.
<mgrwt>
<rscale>  0 0.12499809E+03</rscale>
<asrwt>0</asrwt>
<pdfrwt beam="1">  1        4 0.16498225E-01 0.12499809E+03</pdfrwt>
<pdfrwt beam="2">  1       -4 0.14797540E-01 0.12499809E+03</pdfrwt>
<totfact> 0.19826018E+03</totfact>
</mgrwt>
</event>
<event>
 5    1  0.1430314E-002  0.1250002E+03  0.7818608E-02  0.1235069E+00
          4   -1    0    0  501    0  0.00000000000E+00  0.00000000000E+00  0.26115565487E+02  0.26146427303E+02  0.12700000000E+01 0.  1.
         -4   -1    0    0    0  501 -0.00000000000E+00 -0.00000000000E+00 -0.14945421640E+03  0.14945961227E+03  0.12700000000E+01 0.  1.
         25    2    1    2    0    0  0.00000000000E+00  0.00000000000E+00 -0.12333865091E+03  0.17560603957E+03  0.12500023330E+03 0.  0.
    9000005    1    3    3    0    0 -0.45920779247E+02 -0.40885339717E+02 -0.45966718965E+02  0.76774137721E+02  0.10000000000E+01 0.  0.
    9000005    1    3    3    0    0  0.45920779247E+02  0.40885339717E+02 -0.77371931946E+02  0.98831901850E+02  0.10000000000E+01 0.  0.
<mgrwt>
<rscale>  0 0.12500023E+03</rscale>
<asrwt>0</asrwt>
<pdfrwt beam="1">  1        4 0.65334240E-02 0.12500023E+03</pdfrwt>
<pdfrwt beam="2">  1       -4 0.37368084E-01 0.12500023E+03</pdfrwt>
<totfact> 0.17347022E+03</totfact>
</mgrwt>
</event>
<event>
 5    1  0.1430314E-002  0.1249984E+03  0.7818608E-02  0.1235072E+00
         -4   -1    0    0    0  501 -0.00000000000E+00  0.00000000000E+00  0.58670998701E+02  0.58684742383E+02  0.12700000000E+01 0.  1.
          4   -1    0    0  501    0  0.00000000000E+00 -0.00000000000E+00 -0.66549609548E+02  0.66561726472E+02  0.12700000000E+01 0.  1.
         25    2    1    2    0    0  0.00000000000E+00  0.00000000000E+00 -0.78786108468E+01  0.12524646886E+03  0.12499842180E+03 0.  0.
    9000005    1    3    3    0    0  0.59418364321E+02  0.17649746018E+02  0.40197443419E+01  0.62122571564E+02  0.10000000000E+01 0.  0.
    9000005    1    3    3    0    0 -0.59418364321E+02 -0.17649746018E+02 -0.11898355189E+02  0.63123897292E+02  0.10000000000E+01 0.  0.
<mgrwt>
<rscale>  0 0.12499842E+03</rscale>
<asrwt>0</asrwt>
<pdfrwt beam="2">  1        4 0.16640635E-01 0.12499842E+03</pdfrwt>
<pdfrwt beam="1">  1       -4 0.14670982E-01 0.12499842E+03</pdfrwt>
<totfact> 0.19822427E+03</totfact>
</mgrwt>
</event>
<event>
 5    1  0.1430314E-002  0.1250028E+03  0.7818608E-02  0.1235065E+00
         -4   -1    0    0    0  501 -0.00000000000E+00  0.00000000000E+00  0.25217299514E+03  0.25217619312E+03  0.12700000000E+01 0. -1.
          4   -1    0    0  501    0  0.00000000000E+00 -0.00000000000E+00 -0.15461719663E+02  0.15513789831E+02  0.12700000000E+01 0. -1.
         25    2    1    2    0    0  0.00000000000E+00  0.00000000000E+00  0.23671127547E+03  0.26768998295E+03  0.12500279611E+03 0.  0.
    9000005    1    3    3    0    0  0.56069614241E+02 -0.12141695089E+02  0.65283310471E+02  0.86914515628E+02  0.10000000000E+01 0.  0.
    9000005    1    3    3    0    0 -0.56069614241E+02  0.12141695089E+02  0.17142796500E+03  0.18077546732E+03  0.10000000000E+01 0.  0.
<mgrwt>
<rscale>  0 0.12500280E+03</rscale>
<asrwt>0</asrwt>
<pdfrwt beam="2">  1        4 0.38723385E-02 0.12500280E+03</pdfrwt>
<pdfrwt beam="1">  1       -4 0.63050156E-01 0.12500280E+03</pdfrwt>
<totfact> 0.13926608E+03</totfact>
</mgrwt>
</event>
<event>
 5    1  0.1430314E-002  0.1249984E+03  0.7818608E-02  0.1235072E+00
          4   -1    0    0  501    0  0.00000000000E+00  0.00000000000E+00  0.28737178460E+02  0.28765227721E+02  0.12700000000E+01 0. -1.
         -4   -1    0    0    0  501 -0.00000000000E+00 -0.00000000000E+00 -0.13582948711E+03  0.13583542420E+03  0.12700000000E+01 0. -1.
         25    2    1    2    0    0  0.00000000000E+00  0.00000000000E+00 -0.10709230865E+03  0.16460065193E+03  0.12499844816E+03 0.  0.
    9000005    1    3    3    0    0 -0.57479743842E+02  0.45153909190E+01 -0.21809844819E+02  0.61652080568E+02  0.10000000000E+01 0.  0.
    9000005    1    3    3    0    0  0.57479743842E+02 -0.45153909190E+01 -0.85282463832E+02  0.10294857136E+03  0.10000000000E+01 0.  0.
<mgrwt>
<rscale>  0 0.12499845E+03</rscale>
<asrwt>0</asrwt>
<pdfrwt beam="1">  1        4 0.71885433E-02 0.12499845E+03</pdfrwt>
<pdfrwt beam="2">  1       -4 0.33961618E-01 0.12499845E+03</pdfrwt>
<totfact> 0.17844010E+03</totfact>
</mgrwt>
</event>
<event>
 5    1  0.1430314E-002  0.1250076E+03  0.7818608E-02  0.1235057E+00
         -4   -1    0    0    0  501 -0.00000000000E+00  0.00000000000E+00  0.56779209074E+02  0.56793410560E+02  0.12700000000E+01 0.  1.
          4   -1    0    0  501    0  0.00000000000E+00 -0.00000000000E+00 -0.68776855311E+02  0.68788579913E+02  0.12700000000E+01 0.  1.
         25    2    1    2    0    0  0.00000000000E+00  0.00000000000E+00 -0.11997646237E+02  0.12558199047E+03  0.12500757103E+03 0.  0.
    9000005    1    3    3    0    0  0.42245559252E+02 -0.20159336841E+02 -0.47597273198E+02  0.66765159734E+02  0.10000000000E+01 0.  0.
    9000005    1    3    3    0    0 -0.42245559252E+02  0.20159336841E+02  0.35599626961E+02  0.58816830739E+02  0.10000000000E+01 0.  0.
<mgrwt>
<rscale>  0 0.12500757E+03</rscale>
<asrwt>0</asrwt>
<pdfrwt beam="2">  1        4 0.17197455E-01 0.12500757E+03</pdfrwt>
<pdfrwt beam="1">  1       -4 0.14198043E-01 0.12500757E+03</pdfrwt>
<totfact> 0.19800018E+03</totfact>
</mgrwt>
</event>
<event>
 5    1  0.1430314E-002  0.1250006E+03  0.7818608E-02  0.1235068E+00
         -4   -1    0    0    0  501 -0.00000000000E+00  0.00000000000E+00  0.60048304993E+02  0.60061733513E+02  0.12700000000E+01 0. -1.
          4   -1    0    0  501    0  0.00000000000E+00 -0.00000000000E+00 -0.65025497995E+02  0.65037898870E+02  0.12700000000E+01 0. -1.
         25    2    1    2    0    0  0.00000000000E+00  0.00000000000E+00 -0.49771930014E+01  0.12509963238E+03  0.12500058229E+03 0.  0.
    9000005    1    3    3    0    0  0.44133790257E+02 -0.41404825158E+02 -0.18093751946E+02  0.63170680290E+02  0.10000000000E+01 0.  0.
    9000005    1    3    3    0    0 -0.44133790257E+02  0.41404825158E+02  0.13116558945E+02  0.61928952093E+02  0.10000000000E+01 0.  0.
<mgrwt>
<rscale>  0 0.12500058E+03</rscale>
<asrwt>0</asrwt>
<pdfrwt beam="2">  1        4 0.16259603E-01 0.12500058E+03</pdfrwt>
<pdfrwt beam="1">  1       -4 0.15015305E-01 0.12500058E+03</pdfrwt>
<totfact> 0.19829383E+03</totfact>
</mgrwt>
</event>
<event>
 5    1  0.1430314E-002  0.1249993E+03  0.7818608E-02  0.1235070E+00
          4   -1    0    0  501    0  0.00000000000E+00  0.00000000000E+00  0.41395940989E+02  0.41415417786E+02  0.12700000000E+01 0.  1.
         -4   -1    0    0    0  501 -0.00000000000E+00 -0.00000000000E+00 -0.94316058125E+02  0.94324608243E+02  0.12700000000E+01 0.  1.
         25    2    1    2    0    0  0.00000000000E+00  0.00000000000E+00 -0.52920117136E+02  0.13574002603E+03  0.12499926347E+03 0.  0.
    9000005    1    3    3    0    0  0.15967365162E+02  0.31281279305E+02  0.29670150342E+02  0.45986878634E+02  0.10000000000E+01 0.  0.
    9000005    1    3    3    0    0 -0.15967365162E+02 -0.31281279305E+02 -0.82590267478E+02  0.89753147395E+02  0.10000000000E+01 0.  0.
<mgrwt>
<rscale>  0 0.12499926E+03</rscale>
<asrwt>0</asrwt>
<pdfrwt beam="1">  1        4 0.10352489E-01 0.12499926E+03</pdfrwt>
<pdfrwt beam="2">  1       -4 0.23582518E-01 0.12499926E+03</pdfrwt>
<totfact> 0.19260776E+03</totfact>
</mgrwt>
</event>
<event>
 5    1  0.1430314E-002  0.1250047E+03  0.7818608E-02  0.1235062E+00
         -4   -1    0    0    0  501 -0.00000000000E+00  0.00000000000E+00  0.70146195251E+02  0.70157691012E+02  0.12700000000E+01 0. -1.
          4   -1    0    0  501    0  0.00000000000E+00 -0.00000000000E+00 -0.55668162110E+02  0.55682646962E+02  0.12700000000E+01 0. -1.
         25    2    1    2    0    0  0.00000000000E+00  0.00000000000E+00  0.14478033141E+02  0.12584033797E+03  0.12500470878E+03 0.  0.
    9000005    1    3    3    0    0 -0.24078513611E+02 -0.43803145358E+02  0.45000485245E+02  0.67264656643E+02  0.10000000000E+01 0.  0.
    9000005    1    3    3    0    0  0.24078513611E+02  0.43803145358E+02 -0.30522452104E+02  0.58575681331E+02  0.10000000000E+01 0.  0.
<mgrwt>
<rscale>  0 0.12500471E+03</rscale>
<asrwt>0</asrwt>
<pdfrwt beam="2">  1        4 0.13920288E-01 0.12500471E+03</pdfrwt>
<pdfrwt beam="1">  1       -4 0.17539796E-01 0.12500471E+03</pdfrwt>
<totfact> 0.19787371E+03</totfact>
</mgrwt>
</event>
<event>
 5    1  0.1430314E-002  0.1250002E+03  0.7818608E-02  0.1235069E+00
         -4   -1    0    0    0  501 -0.00000000000E+00  0.00000000000E+00  0.37576275299E+02  0.37597730853E+02  0.12700000000E+01 0. -1.
          4   -1    0    0  501    0  0.00000000000E+00 -0.00000000000E+00 -0.10390056788E+03  0.10390832934E+03  0.12700000000E+01 0. -1.
         25    2    1    2    0    0  0.00000000000E+00  0.00000000000E+00 -0.66324292584E+02  0.14150606019E+03  0.12500021314E+03 0.  0.
    9000005    1    3    3    0    0 -0.10324709593E+02  0.16730871637E+01  0.36583906629E+02  0.38062856869E+02  0.10000000000E+01 0.  0.
    9000005    1    3    3    0    0  0.10324709593E+02 -0.16730871637E+01 -0.10290819921E+03  0.10344320332E+03  0.10000000000E+01 0.  0.
<mgrwt>
<rscale>  0 0.12500021E+03</rscale>
<asrwt>0</asrwt>
<pdfrwt beam="2">  1        4 0.25978793E-01 0.12500021E+03</pdfrwt>
<pdfrwt beam="1">  1       -4 0.93977212E-02 0.12500021E+03</pdfrwt>
<totfact> 0.18963464E+03</totfact>
</mgrwt>
</event>
<event>
 5    1  0.1430314E-002  0.1249984E+03  0.7818608E-02  0.1235072E+00
         -4   -1    0    0    0  501 -0.00000000000E+00  0.00000000000E+00  0.76120485400E+02  0.76131079052E+02  0.12700000000E+01 0. -1.
          4   -1    0    0  501    0  0.00000000000E+00 -0.00000000000E+00 -0.51293352975E+02  0.51309072876E+02  0.12700000000E+01 0. -1.
         25    2    1    2    0    0  0.00000000000E+00  0.00000000000E+00  0.24827132425E+02  0.12744015193E+03  0.12499842327E+03 0.  0.
    9000005    1    3    3    0    0 -0.15243421185E+02  0.58902901128E+02  0.26948196612E+02  0.66551626211E+02  0.10000000000E+01 0.  0.
    9000005    1    3    3    0    0  0.15243421185E+02 -0.58902901128E+02 -0.21210641869E+01  0.60888525717E+02  0.10000000000E+01 0.  0.
<mgrwt>
<rscale>  0 0.12499842E+03</rscale>
<asrwt>0</asrwt>
<pdfrwt beam="2">  1        4 0.12826628E-01 0.12499842E+03</pdfrwt>
<pdfrwt beam="1">  1       -4 0.19033410E-01 0.12499842E+03</pdfrwt>
<totfact> 0.19703778E+03</totfact>
</mgrwt>
</event>
<event>
 5    1  0.1430314E-002  0.1249930E+03  0.7818608E-02  0.1235080E+00
          4   -1    0    0  501    0  0.00000000000E+00  0.00000000000E+00  0.72188213482E+02  0.72199384109E+02  0.12700000000E+01 0.  1.
         -4   -1    0    0    0  501 -0.00000000000E+00 -0.00000000000E+00 -0.54083161810E+02  0.54098071051E+02  0.12700000000E+01 0.  1.
         25    2    1    2    0    0  0.00000000000E+00  0.00000000000E+00  0.18105051671E+02  0.12629745516E+03  0.12499301694E+03 0.  0.
    9000005    1    3    3    0    0 -0.30657615639E+02 -0.49395280094E+02  0.32205197174E+02  0.66467720115E+02  0.10000000000E+01 0.  0.
    9000005    1    3    3    0    0  0.30657615639E+02  0.49395280094E+02 -0.14100145502E+02  0.59829735044E+02  0.10000000000E+01 0.  0.
<mgrwt>
<rscale>  0 0.12499302E+03</rscale>
<asrwt>0</asrwt>
<pdfrwt beam="1">  1        4 0.18050313E-01 0.12499302E+03</pdfrwt>
<pdfrwt beam="2">  1       -4 0.13524050E-01 0.12499302E+03</pdfrwt>
<totfact> 0.19768083E+03</totfact>
</mgrwt>
</event>
<event>
 5    1  0.1430314E-002  0.1249953E+03  0.7818608E-02  0.1235077E+00
         -4   -1    0    0    0  501 -0.00000000000E+00  0.00000000000E+00  0.14456411348E+03  0.14456969186E+03  0.12700000000E+01 0.  1.
          4   -1    0    0  501    0  0.00000000000E+00 -0.00000000000E+00 -0.26997843577E+02  0.27027697975E+02  0.12700000000E+01 0.  1.
         25    2    1    2    0    0  0.00000000000E+00  0.00000000000E+00  0.11756626990E+03  0.17159738984E+03  0.12499534544E+03 0.  0.
    9000005    1    3    3    0    0 -0.21560676951E+02 -0.58012745531E+02  0.70641850478E+02  0.93923439426E+02  0.10000000000E+01 0.  0.
    9000005    1    3    3    0    0  0.21560676951E+02  0.58012745531E+02  0.46924419422E+02  0.77673950413E+02  0.10000000000E+01 0.  0.
<mgrwt>
<rscale>  0 0.12499535E+03</rscale>
<asrwt>0</asrwt>
<pdfrwt beam="2">  1        4 0.67538901E-02 0.12499535E+03</pdfrwt>
<pdfrwt beam="1">  1       -4 0.36145457E-01 0.12499535E+03</pdfrwt>
<totfact> 0.17527131E+03</totfact>
</mgrwt>
</event>
<event>
 5    1  0.1430314E-002  0.1249793E+03  0.7818608E-02  0.1235102E+00
          4   -1    0    0  501    0  0.00000000000E+00  0.00000000000E+00  0.22195924801E+03  0.22196288131E+03  0.12700000000E+01 0. -1.
         -4   -1    0    0    0  501 -0.00000000000E+00 -0.00000000000E+00 -0.17566409928E+02  0.17612258735E+02  0.12700000000E+01 0. -1.
         25    2    1    2    0    0  0.00000000000E+00  0.00000000000E+00  0.20439283809E+03  0.23957514004E+03  0.12497926015E+03 0.  0.
    9000005    1    3    3    0    0  0.23076380621E+02 -0.49443465664E+02  0.43839586368E+02  0.70000606943E+02  0.10000000000E+01 0.  0.
    9000005    1    3    3    0    0 -0.23076380621E+02  0.49443465664E+02  0.16055325172E+03  0.16957453310E+03  0.10000000000E+01 0.  0.
<mgrwt>
<rscale>  0 0.12497926E+03</rscale>
<asrwt>0</asrwt>
<pdfrwt beam="1">  1        4 0.55495997E-01 0.12497926E+03</pdfrwt>
<pdfrwt beam="2">  1       -4 0.43977877E-02 0.12497926E+03</pdfrwt>
<totfact> 0.14858196E+03</totfact>
</mgrwt>
</event>
<event>
 5    1  0.1430314E-002  0.1250016E+03  0.7818608E-02  0.1235067E+00
         -4   -1    0    0    0  501 -0.00000000000E+00  0.00000000000E+00  0.21620121088E+03  0.21620494094E+03  0.12700000000E+01 0. -1.
          4   -1    0    0  501    0  0.00000000000E+00 -0.00000000000E+00 -0.18041908296E+02  0.18086551771E+02  0.12700000000E+01 0. -1.
         25    2    1    2    0    0  0.00000000000E+00  0.00000000000E+00  0.19815930259E+03  0.23429149271E+03  0.12500157741E+03 0.  0.
    9000005    1    3    3    0    0  0.61872662200E+02  0.87483880520E+01  0.10051685315E+03  0.11836130444E+03  0.10000000000E+01 0.  0.
    9000005    1    3    3    0    0 -0.61872662200E+02 -0.87483880520E+01  0.97642449440E+02  0.11593018828E+03  0.10000000000E+01 0.  0.
<mgrwt>
<rscale>  0 0.12500158E+03</rscale>
<asrwt>0</asrwt>
<pdfrwt beam="2">  1        4 0.45165239E-02 0.12500158E+03</pdfrwt>
<pdfrwt beam="1">  1       -4 0.54056348E-01 0.12500158E+03</pdfrwt>
<totfact> 0.15034624E+03</totfact>
</mgrwt>
</event>
<event>
 5    1  0.1430314E-002  0.1250085E+03  0.7818608E-02  0.1235056E+00
          4   -1    0    0  501    0  0.00000000000E+00  0.00000000000E+00  0.99273897987E+01  0.10008294970E+02  0.12700000000E+01 0. -1.
         -4   -1    0    0    0  501 -0.00000000000E+00 -0.00000000000E+00 -0.39185641298E+03  0.39185847100E+03  0.12700000000E+01 0. -1.
         25    2    1    2    0    0  0.00000000000E+00  0.00000000000E+00 -0.38192902319E+03  0.40186676597E+03  0.12500847508E+03 0.  0.
    9000005    1    3    3    0    0  0.22236320857E+02 -0.58394665175E+02 -0.18717602013E+03  0.19733284926E+03  0.10000000000E+01 0.  0.
    9000005    1    3    3    0    0 -0.22236320857E+02  0.58394665175E+02 -0.19475300306E+03  0.20453391672E+03  0.10000000000E+01 0.  0.
<mgrwt>
<rscale>  0 0.12500848E+03</rscale>
<asrwt>0</asrwt>
<pdfrwt beam="1">  1        4 0.24922192E-02 0.12500848E+03</pdfrwt>
<pdfrwt beam="2">  1       -4 0.97974422E-01 0.12500848E+03</pdfrwt>
<totfact> 0.10528820E+03</totfact>
</mgrwt>
</event>
<event>
 5    1  0.1430314E-002  0.1250018E+03  0.7818608E-02  0.1235067E+00
          4   -1    0    0  501    0  0.00000000000E+00  0.00000000000E+00  0.50370508003E+02  0.50386515820E+02  0.12700000000E+01 0.  1.
         -4   -1    0    0    0  501 -0.00000000000E+00 -0.00000000000E+00 -0.77518984343E+02  0.77529386903E+02  0.12700000000E+01 0.  1.
         25    2    1    2    0    0  0.00000000000E+00  0.00000000000E+00 -0.27148476340E+02  0.12791590272E+03  0.12500175360E+03 0.  0.
    9000005    1    3    3    0    0 -0.39610899451E+02  0.46252165659E+02  0.79131843809E+00  0.60909049971E+02  0.10000000000E+01 0.  0.
    9000005    1    3    3    0    0  0.39610899451E+02 -0.46252165659E+02 -0.27939794778E+02  0.67006852752E+02  0.10000000000E+01 0.  0.
<mgrwt>
<rscale>  0 0.12500175E+03</rscale>
<asrwt>0</asrwt>
<pdfrwt beam="1">  1        4 0.12595928E-01 0.12500175E+03</pdfrwt>
<pdfrwt beam="2">  1       -4 0.19383047E-01 0.12500175E+03</pdfrwt>
<totfact> 0.19676306E+03</totfact>
</mgrwt>
</event>
<event>
 5    1  0.1430314E-002  0.1249998E+03  0.7818608E-02  0.1235070E+00
         -4   -1    0    0    0  501 -0.00000000000E+00  0.00000000000E+00  0.52891053143E+01  0.54394425290E+01  0.12700000000E+01 0.  1.
          4   -1    0    0  501    0  0.00000000000E+00 -0.00000000000E+00 -0.72804435832E+03  0.72804546601E+03  0.12700000000E+01 0.  1.
         25    2    1    2    0    0  0.00000000000E+00  0.00000000000E+00 -0.72275525301E+03  0.73348490854E+03  0.12499982124E+03 0.  0.
    9000005    1    3    3    0    0  0.11084098211E+02 -0.10998319641E+02 -0.71644149462E+03  0.71661233278E+03  0.10000000000E+01 0.  0.
    9000005    1    3    3    0    0 -0.11084098211E+02  0.10998319641E+02 -0.63137583829E+01  0.16872575767E+02  0.10000000000E+01 0.  0.
<mgrwt>
<rscale>  0 0.12499982E+03</rscale>
<asrwt>0</asrwt>
<pdfrwt beam="2">  1        4 0.18202968E+00 0.12499982E+03</pdfrwt>
<pdfrwt beam="1">  1       -4 0.13412094E-02 0.12499982E+03</pdfrwt>
<totfact> 0.58671246E+02</totfact>
</mgrwt>
</event>
<event>
 5    1  0.1430314E-002  0.1249928E+03  0.7818608E-02  0.1235081E+00
          4   -1    0    0  501    0  0.00000000000E+00  0.00000000000E+00  0.48222639185E+02  0.48239359760E+02  0.12700000000E+01 0. -1.
         -4   -1    0    0    0  501 -0.00000000000E+00 -0.00000000000E+00 -0.80959435271E+02  0.80969395820E+02  0.12700000000E+01 0. -1.
         25    2    1    2    0    0  0.00000000000E+00  0.00000000000E+00 -0.32736796086E+02  0.12920875558E+03  0.12499281860E+03 0.  0.
    9000005    1    3    3    0    0  0.50614406482E+02 -0.35399586234E+02 -0.26167167604E+02  0.67087029368E+02  0.10000000000E+01 0.  0.
    9000005    1    3    3    0    0 -0.50614406482E+02  0.35399586234E+02 -0.65696284819E+01  0.62121726211E+02  0.10000000000E+01 0.  0.
<mgrwt>
<rscale>  0 0.12499282E+03</rscale>
<asrwt>0</asrwt>
<pdfrwt beam="1">  1        4 0.12058995E-01 0.12499282E+03</pdfrwt>
<pdfrwt beam="2">  1       -4 0.20243194E-01 0.12499282E+03</pdfrwt>
<totfact> 0.19610302E+03</totfact>
</mgrwt>
</event>
<event>
 5    1  0.1430314E-002  0.1250006E+03  0.7818608E-02  0.1235068E+00
         -4   -1    0    0    0  501 -0.00000000000E+00  0.00000000000E+00  0.46324078732E+03  0.46324252821E+03  0.12700000000E+01 0.  1.
          4   -1    0    0  501    0  0.00000000000E+00 -0.00000000000E+00 -0.83829390432E+01  0.84785946360E+01  0.12700000000E+01 0.  1.
         25    2    1    2    0    0  0.00000000000E+00  0.00000000000E+00  0.45485784828E+03  0.47172112284E+03  0.12500062238E+03 0.  0.
    9000005    1    3    3    0    0 -0.52761859130E+02  0.32790575892E+02  0.25309410250E+03  0.26060825076E+03  0.10000000000E+01 0.  0.
    9000005    1    3    3    0    0  0.52761859130E+02 -0.32790575892E+02  0.20176374578E+03  0.21111287208E+03  0.10000000000E+01 0.  0.
<mgrwt>
<rscale>  0 0.12500062E+03</rscale>
<asrwt>0</asrwt>
<pdfrwt beam="2">  1        4 0.21079092E-02 0.12500062E+03</pdfrwt>
<pdfrwt beam="1">  1       -4 0.11582238E+00 0.12500062E+03</pdfrwt>
<totfact> 0.92242465E+02</totfact>
</mgrwt>
</event>
<event>
 5    1  0.1430314E-002  0.1250004E+03  0.7818608E-02  0.1235069E+00
          4   -1    0    0  501    0  0.00000000000E+00  0.00000000000E+00  0.41737384253E+03  0.41737577472E+03  0.12700000000E+01 0. -1.
         -4   -1    0    0    0  501 -0.00000000000E+00 -0.00000000000E+00 -0.93141344037E+01  0.94003191270E+01  0.12700000000E+01 0. -1.
         25    2    1    2    0    0  0.00000000000E+00  0.00000000000E+00  0.40805970812E+03  0.42677609385E+03  0.12500043555E+03 0.  0.
    9000005    1    3    3    0    0  0.54692198068E+02  0.23405969399E+02  0.26936524473E+03  0.27585813564E+03  0.10000000000E+01 0.  0.
    9000005    1    3    3    0    0 -0.54692198068E+02 -0.23405969399E+02  0.13869446340E+03  0.15091795821E+03  0.10000000000E+01 0.  0.
<mgrwt>
<rscale>  0 0.12500044E+03</rscale>
<asrwt>0</asrwt>
<pdfrwt beam="1">  1        4 0.10435446E+00 0.12500044E+03</pdfrwt>
<pdfrwt beam="2">  1       -4 0.23395485E-02 0.12500044E+03</pdfrwt>
<totfact> 0.10033943E+03</totfact>
</mgrwt>
</event>
<event>
 5    1  0.1430314E-002  0.1250045E+03  0.7818608E-02  0.1235062E+00
         -4   -1    0    0    0  501 -0.00000000000E+00  0.00000000000E+00  0.33966216878E+02  0.33989951294E+02  0.12700000000E+01 0. -1.
          4   -1    0    0  501    0  0.00000000000E+00 -0.00000000000E+00 -0.11494481218E+03  0.11495182794E+03  0.12700000000E+01 0. -1.
         25    2    1    2    0    0  0.00000000000E+00  0.00000000000E+00 -0.80978595304E+02  0.14894177924E+03  0.12500448274E+03 0.  0.
    9000005    1    3    3    0    0 -0.43090343998E+02 -0.38828909053E+02 -0.68204431234E+02  0.89539412351E+02  0.10000000000E+01 0.  0.
    9000005    1    3    3    0    0  0.43090343998E+02  0.38828909053E+02 -0.12774164070E+02  0.59402366887E+02  0.10000000000E+01 0.  0.
<mgrwt>
<rscale>  0 0.12500448E+03</rscale>
<asrwt>0</asrwt>
<pdfrwt beam="2">  1        4 0.28740046E-01 0.12500448E+03</pdfrwt>
<pdfrwt beam="1">  1       -4 0.84953982E-02 0.12500448E+03</pdfrwt>
<totfact> 0.18588997E+03</totfact>
</mgrwt>
</event>
<event>
 5    1  0.1430314E-002  0.1249906E+03  0.7818608E-02  0.1235084E+00
          4   -1    0    0  501    0  0.00000000000E+00  0.00000000000E+00  0.44629236275E+03  0.44629416975E+03  0.12700000000E+01 0. -1.
         -4   -1    0    0    0  501 -0.00000000000E+00 -0.00000000000E+00 -0.87034443153E+01  0.87956149842E+01  0.12700000000E+01 0. -1.
         25    2    1    2    0    0  0.00000000000E+00  0.00000000000E+00  0.43758891844E+03  0.45508978473E+03  0.12499060216E+03 0.  0.
    9000005    1    3    3    0    0 -0.43790162944E+02  0.44447719799E+02  0.23113333541E+03  0.23940926653E+03  0.10000000000E+01 0.  0.
    9000005    1    3    3    0    0  0.43790162944E+02 -0.44447719799E+02  0.20645558303E+03  0.21568051820E+03  0.10000000000E+01 0.  0.
<mgrwt>
<rscale>  0 0.12499060E+03</rscale>
<asrwt>0</asrwt>
<pdfrwt beam="1">  1        4 0.11158483E+00 0.12499060E+03</pdfrwt>
<pdfrwt beam="2">  1       -4 0.21876084E-02 0.12499060E+03</pdfrwt>
<totfact> 0.95130600E+02</totfact>
</mgrwt>
</event>
<event>
 5    1  0.1430314E-002  0.1249995E+03  0.7818608E-02  0.1235070E+00
          4   -1    0    0  501    0  0.00000000000E+00  0.00000000000E+00  0.81508063583E+01  0.82491541561E+01  0.12700000000E+01 0.  1.
         -4   -1    0    0    0  501 -0.00000000000E+00 -0.00000000000E+00 -0.47627030712E+03  0.47627200038E+03  0.12700000000E+01 0.  1.
         25    2    1    2    0    0  0.00000000000E+00  0.00000000000E+00 -0.46811950076E+03  0.48452115453E+03  0.12499952879E+03 0.  0.
    9000005    1    3    3    0    0 -0.30095786682E+02 -0.45689578760E+02 -0.35111322273E+03  0.35535164156E+03  0.10000000000E+01 0.  0.
    9000005    1    3    3    0    0  0.30095786682E+02  0.45689578760E+02 -0.11700627803E+03  0.12916951298E+03  0.10000000000E+01 0.  0.
<mgrwt>
<rscale>  0 0.12499953E+03</rscale>
<asrwt>0</asrwt>
<pdfrwt beam="1">  1        4 0.20502083E-02 0.12499953E+03</pdfrwt>
<pdfrwt beam="2">  1       -4 0.11907999E+00 0.12499953E+03</pdfrwt>
<totfact> 0.90121587E+02</totfact>
</mgrwt>
</event>
<event>
 5    1  0.1430314E-002  0.1250011E+03  0.7818608E-02  0.1235067E+00
         -4   -1    0    0    0  501 -0.00000000000E+00  0.00000000000E+00  0.51918593410E+02  0.51934124058E+02  0.12700000000E+01 0.  1.
          4   -1    0    0  501    0  0.00000000000E+00 -0.00000000000E+00 -0.75207213539E+02  0.75217935816E+02  0.12700000000E+01 0.  1.
         25    2    1    2    0    0  0.00000000000E+00  0.00000000000E+00 -0.23288620129E+02  0.12715205987E+03  0.12500114601E+03 0.  0.
    9000005    1    3    3    0    0 -0.31927588206E+02  0.34981834815E+02  0.29827588216E+02  0.55980216813E+02  0.10000000000E+01 0.  0.
    9000005    1    3    3    0    0  0.31927588206E+02 -0.34981834815E+02 -0.53116208345E+02  0.71171843061E+02  0.10000000000E+01 0.  0.
<mgrwt>
<rscale>  0 0.12500115E+03</rscale>
<asrwt>0</asrwt>
<pdfrwt beam="2">  1        4 0.18805085E-01 0.12500115E+03</pdfrwt>
<pdfrwt beam="1">  1       -4 0.12982930E-01 0.12500115E+03</pdfrwt>
<totfact> 0.19718224E+03</totfact>
</mgrwt>
</event>
<event>
 5    1  0.1430314E-002  0.1249645E+03  0.7818608E-02  0.1235125E+00
         -4   -1    0    0    0  501 -0.00000000000E+00  0.00000000000E+00  0.24600332469E+03  0.24600660288E+03  0.12700000000E+01 0.  1.
          4   -1    0    0  501    0  0.00000000000E+00 -0.00000000000E+00 -0.15841039577E+02  0.15891866941E+02  0.12700000000E+01 0.  1.
         25    2    1    2    0    0  0.00000000000E+00  0.00000000000E+00  0.23016228511E+03  0.26189846982E+03  0.12496451898E+03 0.  0.
    9000005    1    3    3    0    0 -0.53766972264E+02  0.30668013524E+02  0.97345026608E+02  0.11536233599E+03  0.10000000000E+01 0.  0.
    9000005    1    3    3    0    0  0.53766972264E+02 -0.30668013524E+02  0.13281725851E+03  0.14653613383E+03  0.10000000000E+01 0.  0.
<mgrwt>
<rscale>  0 0.12496452E+03</rscale>
<asrwt>0</asrwt>
<pdfrwt beam="2">  1        4 0.39670231E-02 0.12496452E+03</pdfrwt>
<pdfrwt beam="1">  1       -4 0.61507595E-01 0.12496452E+03</pdfrwt>
<totfact> 0.14121901E+03</totfact>
</mgrwt>
</event>
<event>
 5    1  0.1430314E-002  0.1249983E+03  0.7818608E-02  0.1235072E+00
         -4   -1    0    0    0  501 -0.00000000000E+00  0.00000000000E+00  0.23470341438E+02  0.23504676710E+02  0.12700000000E+01 0. -1.
          4   -1    0    0  501    0  0.00000000000E+00 -0.00000000000E+00 -0.16627045678E+03  0.16627530694E+03  0.12700000000E+01 0. -1.
         25    2    1    2    0    0  0.00000000000E+00  0.00000000000E+00 -0.14280011534E+03  0.18977998365E+03  0.12499827700E+03 0.  0.
    9000005    1    3    3    0    0 -0.27804115139E+01  0.59968675419E+02 -0.45051797722E+02  0.75064220489E+02  0.10000000000E+01 0.  0.
    9000005    1    3    3    0    0  0.27804115139E+01 -0.59968675419E+02 -0.97748317621E+02  0.11471576316E+03  0.10000000000E+01 0.  0.
<mgrwt>
<rscale>  0 0.12499828E+03</rscale>
<asrwt>0</asrwt>
<pdfrwt beam="2">  1        4 0.41572509E-01 0.12499828E+03</pdfrwt>
<pdfrwt beam="1">  1       -4 0.58724840E-02 0.12499828E+03</pdfrwt>
<totfact> 0.16740283E+03</totfact>
</mgrwt>
</event>
<event>
 5    1  0.1430314E-002  0.1250009E+03  0.7818608E-02  0.1235068E+00
         -4   -1    0    0    0  501 -0.00000000000E+00  0.00000000000E+00  0.50137691946E+02  0.50153774072E+02  0.12700000000E+01 0.  1.
          4   -1    0    0  501    0  0.00000000000E+00 -0.00000000000E+00 -0.77877864200E+02  0.77888218829E+02  0.12700000000E+01 0.  1.
         25    2    1    2    0    0  0.00000000000E+00  0.00000000000E+00 -0.27740172255E+02  0.12804199290E+03  0.12500093915E+03 0.  0.
    9000005    1    3    3    0    0  0.57896806666E+02 -0.23512847764E+02 -0.14529538097E+02  0.64163866073E+02  0.10000000000E+01 0.  0.
    9000005    1    3    3    0    0 -0.57896806666E+02  0.23512847764E+02 -0.13210634157E+02  0.63878126827E+02  0.10000000000E+01 0.  0.
<mgrwt>
<rscale>  0 0.12500094E+03</rscale>
<asrwt>0</asrwt>
<pdfrwt beam="2">  1        4 0.19472771E-01 0.12500094E+03</pdfrwt>
<pdfrwt beam="1">  1       -4 0.12537728E-01 0.12500094E+03</pdfrwt>
<totfact> 0.19669818E+03</totfact>
</mgrwt>
</event>
<event>
 5    1  0.1430314E-002  0.1249990E+03  0.7818608E-02  0.1235071E+00
         -4   -1    0    0    0  501 -0.00000000000E+00  0.00000000000E+00  0.23931868546E+03  0.23932205521E+03  0.12700000000E+01 0.  1.
          4   -1    0    0  501    0  0.00000000000E+00 -0.00000000000E+00 -0.16293914463E+02  0.16343333458E+02  0.12700000000E+01 0.  1.
         25    2    1    2    0    0  0.00000000000E+00  0.00000000000E+00  0.22302477100E+03  0.25566538867E+03  0.12499896994E+03 0.  0.
    9000005    1    3    3    0    0  0.23613252776E+02  0.57621062583E+02  0.12222127097E+03  0.13717438404E+03  0.10000000000E+01 0.  0.
    9000005    1    3    3    0    0 -0.23613252776E+02 -0.57621062583E+02  0.10080350003E+03  0.11849100463E+03  0.10000000000E+01 0.  0.
<mgrwt>
<rscale>  0 0.12499897E+03</rscale>
<asrwt>0</asrwt>
<pdfrwt beam="2">  1        4 0.40800773E-02 0.12499897E+03</pdfrwt>
<pdfrwt beam="1">  1       -4 0.59836268E-01 0.12499897E+03</pdfrwt>
<totfact> 0.14311745E+03</totfact>
</mgrwt>
</event>
<event>
 5    1  0.1430314E-002  0.1249921E+03  0.7818608E-02  0.1235082E+00
         -4   -1    0    0    0  501 -0.00000000000E+00  0.00000000000E+00  0.15125076342E+02  0.15178301432E+02  0.12700000000E+01 0.  1.
          4   -1    0    0  501    0  0.00000000000E+00 -0.00000000000E+00 -0.25772215726E+03  0.25772528639E+03  0.12700000000E+01 0.  1.
         25    2    1    2    0    0  0.00000000000E+00  0.00000000000E+00 -0.24259708092E+03  0.27290358782E+03  0.12499209805E+03 0.  0.
    9000005    1    3    3    0    0  0.42784796658E+02  0.21842714810E+02 -0.34042695761E+02  0.58885890925E+02  0.10000000000E+01 0.  0.
    9000005    1    3    3    0    0 -0.42784796658E+02 -0.21842714810E+02 -0.20855438516E+03  0.21401769689E+03  0.10000000000E+01 0.  0.
<mgrwt>
<rscale>  0 0.12499210E+03</rscale>
<asrwt>0</asrwt>
<pdfrwt beam="2">  1        4 0.64437569E-01 0.12499210E+03</pdfrwt>
<pdfrwt beam="1">  1       -4 0.37883142E-02 0.12499210E+03</pdfrwt>
<totfact> 0.13768472E+03</totfact>
</mgrwt>
</event>
<event>
 5    1  0.1430314E-002  0.1250429E+03  0.7818608E-02  0.1235002E+00
         -4   -1    0    0    0  501 -0.00000000000E+00  0.00000000000E+00  0.11984149723E+02  0.12051254897E+02  0.12700000000E+01 0.  1.
          4   -1    0    0  501    0  0.00000000000E+00 -0.00000000000E+00 -0.32519606499E+03  0.32519854487E+03  0.12700000000E+01 0.  1.
         25    2    1    2    0    0  0.00000000000E+00  0.00000000000E+00 -0.31321191527E+03  0.33724979977E+03  0.12504288695E+03 0.  0.
    9000005    1    3    3    0    0 -0.26922343390E+01 -0.47603795416E+02 -0.47564077279E+02  0.67355110505E+02  0.10000000000E+01 0.  0.
    9000005    1    3    3    0    0  0.26922343390E+01  0.47603795416E+02 -0.26564783799E+03  0.26989468927E+03  0.10000000000E+01 0.  0.
<mgrwt>
<rscale>  0 0.12504289E+03</rscale>
<asrwt>0</asrwt>
<pdfrwt beam="2">  1        4 0.81307685E-01 0.12504289E+03</pdfrwt>
<pdfrwt beam="1">  1       -4 0.30047366E-02 0.12504289E+03</pdfrwt>
<totfact> 0.11976007E+03</totfact>
</mgrwt>
</event>
<event>
 5    1  0.1430314E-002  0.1249983E+03  0.7818608E-02  0.1235072E+00
          4   -1    0    0  501    0  0.00000000000E+00  0.00000000000E+00  0.14459285175E+02  0.14514951869E+02  0.12700000000E+01 0.  1.
         -4   -1    0    0    0  501 -0.00000000000E+00 -0.00000000000E+00 -0.26957167826E+03  0.26957466985E+03  0.12700000000E+01 0.  1.
         25    2    1    2    0    0  0.00000000000E+00  0.00000000000E+00 -0.25511239309E+03  0.28408962172E+03  0.12499832022E+03 0.  0.
    9000005    1    3    3    0    0 -0.16332590245E+02 -0.41322214503E+02 -0.22742440761E+03  0.23172643373E+03  0.10000000000E+01 0.  0.
    9000005    1    3    3    0    0  0.16332590245E+02  0.41322214503E+02 -0.27687985484E+02  0.52363187983E+02  0.10000000000E+01 0.  0.
<mgrwt>
<rscale>  0 0.12499832E+03</rscale>
<asrwt>0</asrwt>
<pdfrwt beam="1">  1        4 0.36221544E-02 0.12499832E+03</pdfrwt>
<pdfrwt beam="2">  1       -4 0.67400236E-01 0.12499832E+03</pdfrwt>
<totfact> 0.13429508E+03</totfact>
</mgrwt>
</event>
<event>
 5    1  0.1430314E-002  0.1249987E+03  0.7818608E-02  0.1235071E+00
         -4   -1    0    0    0  501 -0.00000000000E+00  0.00000000000E+00  0.24852503142E+02  0.24884931433E+02  0.12700000000E+01 0.  1.
          4   -1    0    0  501    0  0.00000000000E+00 -0.00000000000E+00 -0.15703666274E+03  0.15704179808E+03  0.12700000000E+01 0.  1.
         25    2    1    2    0    0  0.00000000000E+00  0.00000000000E+00 -0.13218415959E+03  0.18192672951E+03  0.12499873145E+03 0.  0.
    9000005    1    3    3    0    0  0.48471407827E+02 -0.31354045024E+02 -0.31264515628E+02  0.65658384488E+02  0.10000000000E+01 0.  0.
    9000005    1    3    3    0    0 -0.48471407827E+02  0.31354045024E+02 -0.10091964397E+03  0.11626834502E+03  0.10000000000E+01 0.  0.
<mgrwt>
<rscale>  0 0.12499873E+03</rscale>
<asrwt>0</asrwt>
<pdfrwt beam="2">  1        4 0.39263858E-01 0.12499873E+03</pdfrwt>
<pdfrwt beam="1">  1       -4 0.62178217E-02 0.12499873E+03</pdfrwt>
<totfact> 0.17072644E+03</totfact>
</mgrwt>
</event>
<event>
 5    1  0.1430314E-002  0.1250029E+03  0.7818608E-02  0.1235065E+00
         -4   -1    0    0    0  501 -0.00000000000E+00  0.00000000000E+00  0.32190504370E+02  0.32215547048E+02  0.12700000000E+01 0.  1.
          4   -1    0    0  501    0  0.00000000000E+00 -0.00000000000E+00 -0.12127797824E+03  0.12128462766E+03  0.12700000000E+01 0.  1.
         25    2    1    2    0    0  0.00000000000E+00  0.00000000000E+00 -0.89087473871E+02  0.15350017471E+03  0.12500290250E+03 0.  0.
    9000005    1    3    3    0    0  0.26946419385E+02 -0.38386481904E+02  0.61731769485E+01  0.47315321243E+02  0.10000000000E+01 0.  0.
    9000005    1    3    3    0    0 -0.26946419385E+02  0.38386481904E+02 -0.95260650819E+02  0.10618485346E+03  0.10000000000E+01 0.  0.
<mgrwt>
<rscale>  0 0.12500290E+03</rscale>
<asrwt>0</asrwt>
<pdfrwt beam="2">  1        4 0.30323455E-01 0.12500290E+03</pdfrwt>
<pdfrwt beam="1">  1       -4 0.80515879E-02 0.12500290E+03</pdfrwt>
<totfact> 0.18366766E+03</totfact>
</mgrwt>
</event>
<event>
 5    1  0.1430314E-002  0.1249974E+03  0.7818608E-02  0.1235073E+00
          4   -1    0    0  501    0  0.00000000000E+00  0.00000000000E+00  0.49504037854E+02  0.49520325765E+02  0.12700000000E+01 0. -1.
         -4   -1    0    0    0  501 -0.00000000000E+00 -0.00000000000E+00 -0.78870029539E+02  0.78880253926E+02  0.12700000000E+01 0. -1.
         25    2    1    2    0    0  0.00000000000E+00  0.00000000000E+00 -0.29365991685E+02  0.12840057969E+03  0.12499738956E+03 0.  0.
    9000005    1    3    3    0    0  0.31859847179E+02  0.45590625086E+02 -0.43945995131E+02  0.70892915345E+02  0.10000000000E+01 0.  0.
    9000005    1    3    3    0    0 -0.31859847179E+02 -0.45590625086E+02  0.14580003446E+02  0.57507664346E+02  0.10000000000E+01 0.  0.
<mgrwt>
<rscale>  0 0.12499739E+03</rscale>
<asrwt>0</asrwt>
<pdfrwt beam="1">  1        4 0.12379324E-01 0.12499739E+03</pdfrwt>
<pdfrwt beam="2">  1       -4 0.19720821E-01 0.12499739E+03</pdfrwt>
<totfact> 0.19651964E+03</totfact>
</mgrwt>
</event>
<event>
 5    1  0.1430314E-002  0.1249990E+03  0.7818608E-02  0.1235071E+00
          4   -1    0    0  501    0  0.00000000000E+00  0.00000000000E+00  0.73185580938E+02  0.73196599356E+02  0.12700000000E+01 0. -1.
         -4   -1    0    0    0  501 -0.00000000000E+00 -0.00000000000E+00 -0.53351123148E+02  0.53366236903E+02  0.12700000000E+01 0. -1.
         25    2    1    2    0    0  0.00000000000E+00  0.00000000000E+00  0.19834457790E+02  0.12656283626E+03  0.12499898322E+03 0.  0.
    9000005    1    3    3    0    0  0.31506817970E+02  0.16442494259E+02  0.61962174199E+02  0.71437708722E+02  0.10000000000E+01 0.  0.
    9000005    1    3    3    0    0 -0.31506817970E+02 -0.16442494259E+02 -0.42127716409E+02  0.55125127536E+02  0.10000000000E+01 0.  0.
<mgrwt>
<rscale>  0 0.12499898E+03</rscale>
<asrwt>0</asrwt>
<pdfrwt beam="1">  1        4 0.18299662E-01 0.12499898E+03</pdfrwt>
<pdfrwt beam="2">  1       -4 0.13341047E-01 0.12499898E+03</pdfrwt>
<totfact> 0.19751005E+03</totfact>
</mgrwt>
</event>
<event>
 5    1  0.1430314E-002  0.1249991E+03  0.7818608E-02  0.1235071E+00
         -4   -1    0    0    0  501 -0.00000000000E+00  0.00000000000E+00  0.13905105559E+02  0.13962981795E+02  0.12700000000E+01 0.  1.
          4   -1    0    0  501    0  0.00000000000E+00 -0.00000000000E+00 -0.28027535953E+03  0.28027823687E+03  0.12700000000E+01 0.  1.
         25    2    1    2    0    0  0.00000000000E+00  0.00000000000E+00 -0.26637025397E+03  0.29424121866E+03  0.12499913023E+03 0.  0.
    9000005    1    3    3    0    0 -0.56509271082E+02  0.16649703683E+02 -0.18226280315E+03  0.19154957521E+03  0.10000000000E+01 0.  0.
    9000005    1    3    3    0    0  0.56509271082E+02 -0.16649703683E+02 -0.84107450823E+02  0.10269164345E+03  0.10000000000E+01 0.  0.
<mgrwt>
<rscale>  0 0.12499913E+03</rscale>
<asrwt>0</asrwt>
<pdfrwt beam="2">  1        4 0.70076416E-01 0.12499913E+03</pdfrwt>
<pdfrwt beam="1">  1       -4 0.34838715E-02 0.12499913E+03</pdfrwt>
<totfact> 0.13134269E+03</totfact>
</mgrwt>
</event>
<event>
 5    1  0.1430314E-002  0.1249930E+03  0.7818608E-02  0.1235080E+00
          4   -1    0    0  501    0  0.00000000000E+00  0.00000000000E+00  0.50474384320E+02  0.50490359203E+02  0.12700000000E+01 0. -1.
         -4   -1    0    0    0  501 -0.00000000000E+00 -0.00000000000E+00 -0.77348611892E+02  0.77359037362E+02  0.12700000000E+01 0. -1.
         25    2    1    2    0    0  0.00000000000E+00  0.00000000000E+00 -0.26874227572E+02  0.12784939657E+03  0.12499297618E+03 0.  0.
    9000005    1    3    3    0    0  0.39833176572E+02 -0.37348778235E+01  0.35661728485E+02  0.53604012412E+02  0.10000000000E+01 0.  0.
    9000005    1    3    3    0    0 -0.39833176572E+02  0.37348778235E+01 -0.62535956056E+02  0.74245384153E+02  0.10000000000E+01 0.  0.
<mgrwt>
<rscale>  0 0.12499298E+03</rscale>
<asrwt>0</asrwt>
<pdfrwt beam="1">  1        4 0.12621896E-01 0.12499298E+03</pdfrwt>
<pdfrwt beam="2">  1       -4 0.19340453E-01 0.12499298E+03</pdfrwt>
<totfact> 0.19683959E+03</totfact>
</mgrwt>
</event>
<event>
 5    1  0.1430314E-002  0.1250005E+03  0.7818608E-02  0.1235068E+00
         -4   -1    0    0    0  501 -0.00000000000E+00  0.00000000000E+00  0.58342002788E+02  0.58355823953E+02  0.12700000000E+01 0.  1.
          4   -1    0    0  501    0  0.00000000000E+00 -0.00000000000E+00 -0.66927110981E+02  0.66939159572E+02  0.12700000000E+01 0.  1.
         25    2    1    2    0    0  0.00000000000E+00  0.00000000000E+00 -0.85851081932E+01  0.12529498353E+03  0.12500051526E+03 0.  0.
    9000005    1    3    3    0    0  0.11000075445E+02  0.45358854190E+02 -0.45945891340E+02  0.65501543831E+02  0.10000000000E+01 0.  0.
    9000005    1    3    3    0    0 -0.11000075445E+02 -0.45358854190E+02  0.37360783147E+02  0.59793439695E+02  0.10000000000E+01 0.  0.
<mgrwt>
<rscale>  0 0.12500052E+03</rscale>
<asrwt>0</asrwt>
<pdfrwt beam="2">  1        4 0.16735011E-01 0.12500052E+03</pdfrwt>
<pdfrwt beam="1">  1       -4 0.14588734E-01 0.12500052E+03</pdfrwt>
<totfact> 0.19818827E+03</totfact>
</mgrwt>
</event>
<event>
 5    1  0.1430314E-002  0.1249974E+03  0.7818608E-02  0.1235073E+00
         -4   -1    0    0    0  501 -0.00000000000E+00  0.00000000000E+00  0.61129571580E+02  0.61142762626E+02  0.12700000000E+01 0. -1.
          4   -1    0    0  501    0  0.00000000000E+00 -0.00000000000E+00 -0.63872111042E+02  0.63884735806E+02  0.12700000000E+01 0. -1.
         25    2    1    2    0    0  0.00000000000E+00  0.00000000000E+00 -0.27425394623E+01  0.12502749843E+03  0.12499741534E+03 0.  0.
    9000005    1    3    3    0    0 -0.45956815628E+02 -0.42283136941E+02 -0.36512674028E+01  0.62563762082E+02  0.10000000000E+01 0.  0.
    9000005    1    3    3    0    0  0.45956815628E+02  0.42283136941E+02  0.90872794049E+00  0.62463736349E+02  0.10000000000E+01 0.  0.
<mgrwt>
<rscale>  0 0.12499742E+03</rscale>
<asrwt>0</asrwt>
<pdfrwt beam="2">  1        4 0.15971255E-01 0.12499742E+03</pdfrwt>
<pdfrwt beam="1">  1       -4 0.15285620E-01 0.12499742E+03</pdfrwt>
<totfact> 0.19834764E+03</totfact>
</mgrwt>
</event>
<event>
 5    1  0.1430314E-002  0.1249991E+03  0.7818608E-02  0.1235071E+00
          4   -1    0    0  501    0  0.00000000000E+00  0.00000000000E+00  0.64458871271E+02  0.64471381135E+02  0.12700000000E+01 0.  1.
         -4   -1    0    0    0  501 -0.00000000000E+00 -0.00000000000E+00 -0.60574784338E+02  0.60588096171E+02  0.12700000000E+01 0.  1.
         25    2    1    2    0    0  0.00000000000E+00  0.00000000000E+00  0.38840869330E+01  0.12505947731E+03  0.12499914693E+03 0.  0.
    9000005    1    3    3    0    0  0.62426291972E+02  0.19262049520E+01  0.40512564868E+01  0.62595246417E+02  0.10000000000E+01 0.  0.
    9000005    1    3    3    0    0 -0.62426291972E+02 -0.19262049520E+01 -0.16716955380E+00  0.62464230889E+02  0.10000000000E+01 0.  0.
<mgrwt>
<rscale>  0 0.12499915E+03</rscale>
<asrwt>0</asrwt>
<pdfrwt beam="1">  1        4 0.16117946E-01 0.12499915E+03</pdfrwt>
<pdfrwt beam="2">  1       -4 0.15146924E-01 0.12499915E+03</pdfrwt>
<totfact> 0.19832226E+03</totfact>
</mgrwt>
</event>
<event>
 5    1  0.1430314E-002  0.1250061E+03  0.7818608E-02  0.1235060E+00
          4   -1    0    0  501    0  0.00000000000E+00  0.00000000000E+00  0.38146000004E+02  0.38167135291E+02  0.12700000000E+01 0.  1.
         -4   -1    0    0    0  501 -0.00000000000E+00 -0.00000000000E+00 -0.10235923333E+03  0.10236711165E+03  0.12700000000E+01 0.  1.
         25    2    1    2    0    0  0.00000000000E+00  0.00000000000E+00 -0.64213233323E+02  0.14053424694E+03  0.12500614077E+03 0.  0.
    9000005    1    3    3    0    0  0.56604121070E+02  0.17213542350E+02 -0.94737381607E+01  0.59925656250E+02  0.10000000000E+01 0.  0.
    9000005    1    3    3    0    0 -0.56604121070E+02 -0.17213542350E+02 -0.54739495162E+02  0.80608590689E+02  0.10000000000E+01 0.  0.
<mgrwt>
<rscale>  0 0.12500614E+03</rscale>
<asrwt>0</asrwt>
<pdfrwt beam="1">  1        4 0.95401269E-02 0.12500614E+03</pdfrwt>
<pdfrwt beam="2">  1       -4 0.25593434E-01 0.12500614E+03</pdfrwt>
<totfact> 0.19010322E+03</totfact>
</mgrwt>
</event>
<event>
 5    1  0.1430314E-002  0.1249849E+03  0.7818608E-02  0.1235093E+00
          4   -1    0    0  501    0  0.00000000000E+00  0.00000000000E+00  0.61408535307E+03  0.61408666632E+03  0.12700000000E+01 0.  1.
         -4   -1    0    0    0  501 -0.00000000000E+00 -0.00000000000E+00 -0.62948093504E+01  0.64216450197E+01  0.12700000000E+01 0.  1.
         25    2    1    2    0    0  0.00000000000E+00  0.00000000000E+00  0.60779054372E+03  0.62050831134E+03  0.12498487672E+03 0.  0.
    9000005    1    3    3    0    0 -0.18949407102E+00 -0.36526494355E+02  0.52206518977E+02  0.63723946218E+02  0.10000000000E+01 0.  0.
    9000005    1    3    3    0    0  0.18949407102E+00  0.36526494355E+02  0.55558402474E+03  0.55678436512E+03  0.10000000000E+01 0.  0.
<mgrwt>
<rscale>  0 0.12498488E+03</rscale>
<asrwt>0</asrwt>
<pdfrwt beam="1">  1        4 0.15353732E+00 0.12498488E+03</pdfrwt>
<pdfrwt beam="2">  1       -4 0.15897213E-02 0.12498488E+03</pdfrwt>
<totfact> 0.71005247E+02</totfact>
</mgrwt>
</event>
<event>
 5    1  0.1430314E-002  0.1250194E+03  0.7818608E-02  0.1235039E+00
          4   -1    0    0  501    0  0.00000000000E+00  0.00000000000E+00  0.79490095580E+01  0.80498231629E+01  0.12700000000E+01 0.  1.
         -4   -1    0    0    0  501 -0.00000000000E+00 -0.00000000000E+00 -0.48836697894E+03  0.48836863026E+03  0.12700000000E+01 0.  1.
         25    2    1    2    0    0  0.00000000000E+00  0.00000000000E+00 -0.48041796938E+03  0.49641845342E+03  0.12501942085E+03 0.  0.
    9000005    1    3    3    0    0  0.32818248569E+02 -0.53191721787E+02 -0.24123825343E+03  0.24920532022E+03  0.10000000000E+01 0.  0.
    9000005    1    3    3    0    0 -0.32818248569E+02  0.53191721787E+02 -0.23917971595E+03  0.24721313320E+03  0.10000000000E+01 0.  0.
<mgrwt>
<rscale>  0 0.12501942E+03</rscale>
<asrwt>0</asrwt>
<pdfrwt beam="1">  1        4 0.20000622E-02 0.12501942E+03</pdfrwt>
<pdfrwt beam="2">  1       -4 0.12210445E+00 0.12501942E+03</pdfrwt>
<totfact> 0.88140605E+02</totfact>
</mgrwt>
</event>
<event>
 5    1  0.1430314E-002  0.1250006E+03  0.7818608E-02  0.1235068E+00
         -4   -1    0    0    0  501 -0.00000000000E+00  0.00000000000E+00  0.14734177548E+03  0.14734724871E+03  0.12700000000E+01 0. -1.
          4   -1    0    0  501    0  0.00000000000E+00 -0.00000000000E+00 -0.26490554044E+02  0.26520979498E+02  0.12700000000E+01 0. -1.
         25    2    1    2    0    0  0.00000000000E+00  0.00000000000E+00  0.12085122144E+03  0.17386822820E+03  0.12500057223E+03 0.  0.
    9000005    1    3    3    0    0 -0.43890657740E+02  0.44128447296E+02  0.52609562288E+02  0.81501384907E+02  0.10000000000E+01 0.  0.
    9000005    1    3    3    0    0  0.43890657740E+02 -0.44128447296E+02  0.68241659147E+02  0.92366843298E+02  0.10000000000E+01 0.  0.
<mgrwt>
<rscale>  0 0.12500057E+03</rscale>
<asrwt>0</asrwt>
<pdfrwt beam="2">  1        4 0.66271260E-02 0.12500057E+03</pdfrwt>
<pdfrwt beam="1">  1       -4 0.36839930E-01 0.12500057E+03</pdfrwt>
<totfact> 0.17423741E+03</totfact>
</mgrwt>
</event>
<event>
 5    1  0.1430314E-002  0.1250019E+03  0.7818608E-02  0.1235066E+00
          4   -1    0    0  501    0  0.00000000000E+00  0.00000000000E+00  0.25157122565E+03  0.25157443128E+03  0.12700000000E+01 0.  1.
         -4   -1    0    0    0  501 -0.00000000000E+00 -0.00000000000E+00 -0.15498602576E+02  0.15550549244E+02  0.12700000000E+01 0.  1.
         25    2    1    2    0    0  0.00000000000E+00  0.00000000000E+00  0.23607262308E+03  0.26712498053E+03  0.12500188741E+03 0.  0.
    9000005    1    3    3    0    0  0.51050298573E+02 -0.35473769625E+02  0.13169396678E+03  0.14563249020E+03  0.10000000000E+01 0.  0.
    9000005    1    3    3    0    0 -0.51050298573E+02  0.35473769625E+02  0.10437865629E+03  0.12149249032E+03  0.10000000000E+01 0.  0.
<mgrwt>
<rscale>  0 0.12500189E+03</rscale>
<asrwt>0</asrwt>
<pdfrwt beam="1">  1        4 0.62899700E-01 0.12500189E+03</pdfrwt>
<pdfrwt beam="2">  1       -4 0.38815447E-02 0.12500189E+03</pdfrwt>
<totfact> 0.13944579E+03</totfact>
</mgrwt>
</event>
<event>
 5    1  0.1430314E-002  0.1250027E+03  0.7818608E-02  0.1235065E+00
         -4   -1    0    0    0  501 -0.00000000000E+00  0.00000000000E+00  0.75849249055E+02  0.75859880584E+02  0.12700000000E+01 0. -1.
          4   -1    0    0  501    0  0.00000000000E+00 -0.00000000000E+00 -0.51480319041E+02  0.51495981868E+02  0.12700000000E+01 0. -1.
         25    2    1    2    0    0  0.00000000000E+00  0.00000000000E+00  0.24368930014E+02  0.12735586245E+03  0.12500268377E+03 0.  0.
    9000005    1    3    3    0    0  0.93869746653E+01  0.41435647343E+02  0.58877223401E+02  0.72612365335E+02  0.10000000000E+01 0.  0.
    9000005    1    3    3    0    0 -0.93869746653E+01 -0.41435647343E+02 -0.34508293387E+02  0.54743497117E+02  0.10000000000E+01 0.  0.
<mgrwt>
<rscale>  0 0.12500268E+03</rscale>
<asrwt>0</asrwt>
<pdfrwt beam="2">  1        4 0.12873367E-01 0.12500268E+03</pdfrwt>
<pdfrwt beam="1">  1       -4 0.18965599E-01 0.12500268E+03</pdfrwt>
<totfact> 0.19706423E+03</totfact>
</mgrwt>
</event>
<event>
 5    1  0.1430314E-002  0.1249988E+03  0.7818608E-02  0.1235071E+00
         -4   -1    0    0    0  501 -0.00000000000E+00  0.00000000000E+00  0.17584856903E+02  0.17630657739E+02  0.12700000000E+01 0.  1.
          4   -1    0    0  501    0  0.00000000000E+00 -0.00000000000E+00 -0.22179622319E+03  0.22179985915E+03  0.12700000000E+01 0.  1.
         25    2    1    2    0    0  0.00000000000E+00  0.00000000000E+00 -0.20421136629E+03  0.23943051689E+03  0.12499876119E+03 0.  0.
    9000005    1    3    3    0    0  0.52279134190E+02 -0.13088712860E+02 -0.16270066481E+03  0.17139699124E+03  0.10000000000E+01 0.  0.
    9000005    1    3    3    0    0 -0.52279134190E+02  0.13088712860E+02 -0.41510701473E+02  0.68033525653E+02  0.10000000000E+01 0.  0.
<mgrwt>
<rscale>  0 0.12499876E+03</rscale>
<asrwt>0</asrwt>
<pdfrwt beam="2">  1        4 0.55455227E-01 0.12499876E+03</pdfrwt>
<pdfrwt beam="1">  1       -4 0.44023945E-02 0.12499876E+03</pdfrwt>
<totfact> 0.14856516E+03</totfact>
</mgrwt>
</event>
<event>
 5    1  0.1430314E-002  0.1250026E+03  0.7818608E-02  0.1235065E+00
         -4   -1    0    0    0  501 -0.00000000000E+00  0.00000000000E+00  0.24109110118E+02  0.24142536956E+02  0.12700000000E+01 0. -1.
          4   -1    0    0  501    0  0.00000000000E+00 -0.00000000000E+00 -0.16188238846E+03  0.16188737009E+03  0.12700000000E+01 0. -1.
         25    2    1    2    0    0  0.00000000000E+00  0.00000000000E+00 -0.13777327834E+03  0.18602990704E+03  0.12500260033E+03 0.  0.
    9000005    1    3    3    0    0 -0.14976347525E+01  0.25845627620E+02  0.15760539242E+02  0.30325467418E+02  0.10000000000E+01 0.  0.
    9000005    1    3    3    0    0  0.14976347525E+01 -0.25845627620E+02 -0.15353381758E+03  0.15570443963E+03  0.10000000000E+01 0.  0.
<mgrwt>
<rscale>  0 0.12500260E+03</rscale>
<asrwt>0</asrwt>
<pdfrwt beam="2">  1        4 0.40475395E-01 0.12500260E+03</pdfrwt>
<pdfrwt beam="1">  1       -4 0.60320791E-02 0.12500260E+03</pdfrwt>
<totfact> 0.16896127E+03</totfact>
</mgrwt>
</event>
<event>
 5    1  0.1430314E-002  0.1250027E+03  0.7818608E-02  0.1235065E+00
          4   -1    0    0  501    0  0.00000000000E+00  0.00000000000E+00  0.74601982484E+01  0.75675265382E+01  0.12700000000E+01 0. -1.
         -4   -1    0    0    0  501 -0.00000000000E+00 -0.00000000000E+00 -0.51978643316E+03  0.51978798466E+03  0.12700000000E+01 0. -1.
         25    2    1    2    0    0  0.00000000000E+00  0.00000000000E+00 -0.51232623491E+03  0.52735551120E+03  0.12500265682E+03 0.  0.
    9000005    1    3    3    0    0  0.54656786741E+01 -0.14764740386E+02 -0.10228093877E+01  0.15808774180E+02  0.10000000000E+01 0.  0.
    9000005    1    3    3    0    0 -0.54656786741E+01  0.14764740386E+02 -0.51130342552E+03  0.51154673702E+03  0.10000000000E+01 0.  0.
<mgrwt>
<rscale>  0 0.12500266E+03</rscale>
<asrwt>0</asrwt>
<pdfrwt beam="1">  1        4 0.18786613E-02 0.12500266E+03</pdfrwt>
<pdfrwt beam="2">  1       -4 0.12996010E+00 0.12500266E+03</pdfrwt>
<totfact> 0.83409120E+02</totfact>
</mgrwt>
</event>
<event>
 5    1  0.1430314E-002  0.1250003E+03  0.7818608E-02  0.1235069E+00
         -4   -1    0    0    0  501 -0.00000000000E+00  0.00000000000E+00  0.38532821504E+03  0.38533030792E+03  0.12700000000E+01 0. -1.
          4   -1    0    0  501    0  0.00000000000E+00 -0.00000000000E+00 -0.10095603145E+02  0.10175170901E+02  0.12700000000E+01 0. -1.
         25    2    1    2    0    0  0.00000000000E+00  0.00000000000E+00  0.37523261189E+03  0.39550547883E+03  0.12500028301E+03 0.  0.
    9000005    1    3    3    0    0  0.71165622012E+01  0.59403211982E+02  0.24473401578E+03  0.25194270287E+03  0.10000000000E+01 0.  0.
    9000005    1    3    3    0    0 -0.71165622012E+01 -0.59403211982E+02  0.13049859612E+03  0.14356277595E+03  0.10000000000E+01 0.  0.
<mgrwt>
<rscale>  0 0.12500028E+03</rscale>
<asrwt>0</asrwt>
<pdfrwt beam="2">  1        4 0.25341085E-02 0.12500028E+03</pdfrwt>
<pdfrwt beam="1">  1       -4 0.96342255E-01 0.12500028E+03</pdfrwt>
<totfact> 0.10662300E+03</totfact>
</mgrwt>
</event>
<event>
 5    1  0.1430314E-002  0.1250012E+03  0.7818608E-02  0.1235067E+00
         -4   -1    0    0    0  501 -0.00000000000E+00  0.00000000000E+00  0.83851420320E+01  0.84807727771E+01  0.12700000000E+01 0.  1.
          4   -1    0    0  501    0  0.00000000000E+00 -0.00000000000E+00 -0.46312494704E+03  0.46312668836E+03  0.12700000000E+01 0.  1.
         25    2    1    2    0    0  0.00000000000E+00  0.00000000000E+00 -0.45473980501E+03  0.47160746114E+03  0.12500122856E+03 0.  0.
    9000005    1    3    3    0    0  0.41433233403E+02  0.46253384517E+02 -0.25384382206E+03  0.26133077586E+03  0.10000000000E+01 0.  0.
    9000005    1    3    3    0    0 -0.41433233403E+02 -0.46253384517E+02 -0.20089598295E+03  0.21027668528E+03  0.10000000000E+01 0.  0.
<mgrwt>
<rscale>  0 0.12500123E+03</rscale>
<asrwt>0</asrwt>
<pdfrwt beam="2">  1        4 0.11579332E+00 0.12500123E+03</pdfrwt>
<pdfrwt beam="1">  1       -4 0.21084586E-02 0.12500123E+03</pdfrwt>
<totfact> 0.92260368E+02</totfact>
</mgrwt>
</event>
<event>
 5    1  0.1430314E-002  0.1250025E+03  0.7818608E-02  0.1235065E+00
         -4   -1    0    0    0  501 -0.00000000000E+00  0.00000000000E+00  0.13898512568E+03  0.13899092798E+03  0.12700000000E+01 0.  1.
          4   -1    0    0  501    0  0.00000000000E+00 -0.00000000000E+00 -0.28085894420E+02  0.28114593459E+02  0.12700000000E+01 0.  1.
         25    2    1    2    0    0  0.00000000000E+00  0.00000000000E+00  0.11089923126E+03  0.16710552144E+03  0.12500246318E+03 0.  0.
    9000005    1    3    3    0    0 -0.14430937663E+02  0.47277258066E+02  0.10656455208E+03  0.11747508183E+03  0.10000000000E+01 0.  0.
    9000005    1    3    3    0    0  0.14430937663E+02 -0.47277258066E+02  0.43346791867E+01  0.49630439609E+02  0.10000000000E+01 0.  0.
<mgrwt>
<rscale>  0 0.12500246E+03</rscale>
<asrwt>0</asrwt>
<pdfrwt beam="2">  1        4 0.70257864E-02 0.12500246E+03</pdfrwt>
<pdfrwt beam="1">  1       -4 0.34750594E-01 0.12500246E+03</pdfrwt>
<totfact> 0.17727382E+03</totfact>
</mgrwt>
</event>
<event>
 5    1  0.1430314E-002  0.1250108E+03  0.7818608E-02  0.1235052E+00
         -4   -1    0    0    0  501 -0.00000000000E+00  0.00000000000E+00  0.28235741670E+03  0.28236027282E+03  0.12700000000E+01 0. -1.
          4   -1    0    0  501    0  0.00000000000E+00 -0.00000000000E+00 -0.13804729156E+02  0.13863024456E+02  0.12700000000E+01 0. -1.
         25    2    1    2    0    0  0.00000000000E+00  0.00000000000E+00  0.26855268754E+03  0.29622329727E+03  0.12501078298E+03 0.  0.
    9000005    1    3    3    0    0 -0.39210646379E+02  0.22787893531E+02  0.23617280674E+03  0.24048982831E+03  0.10000000000E+01 0.  0.
    9000005    1    3    3    0    0  0.39210646379E+02 -0.22787893531E+02  0.32379880805E+02  0.55733468957E+02  0.10000000000E+01 0.  0.
<mgrwt>
<rscale>  0 0.12501078E+03</rscale>
<asrwt>0</asrwt>
<pdfrwt beam="2">  1        4 0.34588263E-02 0.12501078E+03</pdfrwt>
<pdfrwt beam="1">  1       -4 0.70596996E-01 0.12501078E+03</pdfrwt>
<totfact> 0.13074338E+03</totfact>
</mgrwt>
</event>
<event>
 5    1  0.1430314E-002  0.1249993E+03  0.7818608E-02  0.1235070E+00
         -4   -1    0    0    0  501 -0.00000000000E+00  0.00000000000E+00  0.19387052687E+02  0.19428605505E+02  0.12700000000E+01 0.  1.
          4   -1    0    0  501    0  0.00000000000E+00 -0.00000000000E+00 -0.20122619851E+03  0.20123020615E+03  0.12700000000E+01 0.  1.
         25    2    1    2    0    0  0.00000000000E+00  0.00000000000E+00 -0.18183914583E+03  0.22065881166E+03  0.12499934483E+03 0.  0.
    9000005    1    3    3    0    0  0.51195197303E+00 -0.58542195740E+02 -0.52334649084E+02  0.78532580956E+02  0.10000000000E+01 0.  0.
    9000005    1    3    3    0    0 -0.51195197303E+00  0.58542195740E+02 -0.12950449674E+03  0.14212623070E+03  0.10000000000E+01 0.  0.
<mgrwt>
<rscale>  0 0.12499934E+03</rscale>
<asrwt>0</asrwt>
<pdfrwt beam="2">  1        4 0.50312238E-01 0.12499934E+03</pdfrwt>
<pdfrwt beam="1">  1       -4 0.48524589E-02 0.12499934E+03</pdfrwt>
<totfact> 0.15527173E+03</totfact>
</mgrwt>
</event>
<event>
 5    1  0.1430314E-002  0.1249998E+03  0.7818608E-02  0.1235070E+00
         -4   -1    0    0    0  501 -0.00000000000E+00  0.00000000000E+00  0.36948445284E+01  0.39070162642E+01  0.12700000000E+01 0. -1.
          4   -1    0    0  501    0  0.00000000000E+00 -0.00000000000E+00 -0.10274933268E+04  0.10274941116E+04  0.12700000000E+01 0. -1.
         25    2    1    2    0    0  0.00000000000E+00  0.00000000000E+00 -0.10237984822E+04  0.10314011279E+04  0.12499981761E+03 0.  0.
    9000005    1    3    3    0    0 -0.10497152779E+02 -0.14274772698E+02 -0.10063725009E+04  0.10065289712E+04  0.10000000000E+01 0.  0.
    9000005    1    3    3    0    0  0.10497152779E+02  0.14274772698E+02 -0.17425981337E+02  0.24872156674E+02  0.10000000000E+01 0.  0.
<mgrwt>
<rscale>  0 0.12499982E+03</rscale>
<asrwt>0</asrwt>
<pdfrwt beam="2">  1        4 0.25689900E+00 0.12499982E+03</pdfrwt>
<pdfrwt beam="1">  1       -4 0.95033423E-03 0.12499982E+03</pdfrwt>
<totfact> 0.35037647E+02</totfact>
</mgrwt>
</event>
<event>
 5    1  0.1430314E-002  0.1249983E+03  0.7818608E-02  0.1235072E+00
          4   -1    0    0  501    0  0.00000000000E+00  0.00000000000E+00  0.79153778313E+02  0.79163966053E+02  0.12700000000E+01 0.  1.
         -4   -1    0    0    0  501 -0.00000000000E+00 -0.00000000000E+00 -0.49327267077E+02  0.49343613338E+02  0.12700000000E+01 0.  1.
         25    2    1    2    0    0  0.00000000000E+00  0.00000000000E+00  0.29826511236E+02  0.12850757939E+03  0.12499830874E+03 0.  0.
    9000005    1    3    3    0    0 -0.93511519864E+01 -0.94186600219E+01 -0.47866578379E+02  0.49682638072E+02  0.10000000000E+01 0.  0.
    9000005    1    3    3    0    0  0.93511519864E+01  0.94186600219E+01  0.77693089615E+02  0.78824941319E+02  0.10000000000E+01 0.  0.
<mgrwt>
<rscale>  0 0.12499831E+03</rscale>
<asrwt>0</asrwt>
<pdfrwt beam="1">  1        4 0.19791761E-01 0.12499831E+03</pdfrwt>
<pdfrwt beam="2">  1       -4 0.12335134E-01 0.12499831E+03</pdfrwt>
<totfact> 0.19645737E+03</totfact>
</mgrwt>
</event>
<event>
 5    1  0.1430314E-002  0.1250001E+03  0.7818608E-02  0.1235069E+00
          4   -1    0    0  501    0  0.00000000000E+00  0.00000000000E+00  0.14265944058E+02  0.14322362231E+02  0.12700000000E+01 0.  1.
         -4   -1    0    0    0  501 -0.00000000000E+00 -0.00000000000E+00 -0.27321876366E+03  0.27322171531E+03  0.12700000000E+01 0.  1.
         25    2    1    2    0    0  0.00000000000E+00  0.00000000000E+00 -0.25895281960E+03  0.28754407754E+03  0.12500013499E+03 0.  0.
    9000005    1    3    3    0    0 -0.51575620327E+02  0.34623748097E+02 -0.14514750059E+03  0.15788491211E+03  0.10000000000E+01 0.  0.
    9000005    1    3    3    0    0  0.51575620327E+02 -0.34623748097E+02 -0.11380531902E+03  0.12965916543E+03  0.10000000000E+01 0.  0.
<mgrwt>
<rscale>  0 0.12500013E+03</rscale>
<asrwt>0</asrwt>
<pdfrwt beam="1">  1        4 0.35739081E-02 0.12500013E+03</pdfrwt>
<pdfrwt beam="2">  1       -4 0.68312095E-01 0.12500013E+03</pdfrwt>
<totfact> 0.13327440E+03</totfact>
</mgrwt>
</event>
<event>
 5    1  0.1430314E-002  0.1249991E+03  0.7818608E-02  0.1235071E+00
         -4   -1    0    0    0  501 -0.00000000000E+00  0.00000000000E+00  0.16197750431E+03  0.16198248301E+03  0.12700000000E+01 0. -1.
          4   -1    0    0  501    0  0.00000000000E+00 -0.00000000000E+00 -0.24093576733E+02  0.24127025092E+02  0.12700000000E+01 0. -1.
         25    2    1    2    0    0  0.00000000000E+00  0.00000000000E+00  0.13788392758E+03  0.18610950811E+03  0.12499908609E+03 0.  0.
    9000005    1    3    3    0    0  0.58677444337E+01 -0.31751925859E+02  0.14860197485E+03  0.15207288433E+03  0.10000000000E+01 0.  0.
    9000005    1    3    3    0    0 -0.58677444337E+01  0.31751925859E+02 -0.10718047270E+02  0.34036623771E+02  0.10000000000E+01 0.  0.
<mgrwt>
<rscale>  0 0.12499909E+03</rscale>
<asrwt>0</asrwt>
<pdfrwt beam="2">  1        4 0.60281978E-02 0.12499909E+03</pdfrwt>
<pdfrwt beam="1">  1       -4 0.40499178E-01 0.12499909E+03</pdfrwt>
<totfact> 0.16894133E+03</totfact>
</mgrwt>
</event>
<event>
 5    1  0.1430314E-002  0.1249945E+03  0.7818608E-02  0.1235078E+00
          4   -1    0    0  501    0  0.00000000000E+00  0.00000000000E+00  0.37494533329E+02  0.37516035632E+02  0.12700000000E+01 0. -1.
         -4   -1    0    0    0  501 -0.00000000000E+00 -0.00000000000E+00 -0.10411736703E+03  0.10412511233E+03  0.12700000000E+01 0. -1.
         25    2    1    2    0    0  0.00000000000E+00  0.00000000000E+00 -0.66622833700E+02  0.14164114796E+03  0.12499445118E+03 0.  0.
    9000005    1    3    3    0    0 -0.42509173002E+02 -0.38622393292E+02 -0.61211210644E+02  0.83943620135E+02  0.10000000000E+01 0.  0.
    9000005    1    3    3    0    0  0.42509173002E+02  0.38622393292E+02 -0.54116230565E+01  0.57697527824E+02  0.10000000000E+01 0.  0.
<mgrwt>
<rscale>  0 0.12499445E+03</rscale>
<asrwt>0</asrwt>
<pdfrwt beam="1">  1        4 0.93772895E-02 0.12499445E+03</pdfrwt>
<pdfrwt beam="2">  1       -4 0.26032997E-01 0.12499445E+03</pdfrwt>
<totfact> 0.18959149E+03</totfact>
</mgrwt>
</event>
<event>
 5    1  0.1430314E-002  0.1250015E+03  0.7818608E-02  0.1235067E+00
          4   -1    0    0  501    0  0.00000000000E+00  0.00000000000E+00  0.14384756414E+03  0.14385317031E+03  0.12700000000E+01 0. -1.
         -4   -1    0    0    0  501 -0.00000000000E+00 -0.00000000000E+00 -0.27135150087E+02  0.27164853584E+02  0.12700000000E+01 0. -1.
         25    2    1    2    0    0  0.00000000000E+00  0.00000000000E+00  0.11671241405E+03  0.17101802389E+03  0.12500150760E+03 0.  0.
    9000005    1    3    3    0    0 -0.35035333490E+02  0.51605110802E+02  0.53096085726E+02  0.81919206375E+02  0.10000000000E+01 0.  0.
    9000005    1    3    3    0    0  0.35035333490E+02 -0.51605110802E+02  0.63616328322E+02  0.89098817517E+02  0.10000000000E+01 0.  0.
<mgrwt>
<rscale>  0 0.12500151E+03</rscale>
<asrwt>0</asrwt>
<pdfrwt beam="1">  1        4 0.35966304E-01 0.12500151E+03</pdfrwt>
<pdfrwt beam="2">  1       -4 0.67882013E-02 0.12500151E+03</pdfrwt>
<totfact> 0.17550613E+03</totfact>
</mgrwt>
</event>
<event>
 5    1  0.1430314E-002  0.1250041E+03  0.7818608E-02  0.1235063E+00
         -4   -1    0    0    0  501 -0.00000000000E+00  0.00000000000E+00  0.27427740054E+02  0.27457127025E+02  0.12700000000E+01 0. -1.
          4   -1    0    0  501    0  0.00000000000E+00 -0.00000000000E+00 -0.14232065178E+03  0.14232631810E+03  0.12700000000E+01 0. -1.
         25    2    1    2    0    0  0.00000000000E+00  0.00000000000E+00 -0.11489291173E+03  0.16978344512E+03  0.12500414822E+03 0.  0.
    9000005    1    3    3    0    0 -0.26295644629E+02  0.18502694542E+02  0.15338286243E+02  0.35638092775E+02  0.10000000000E+01 0.  0.
    9000005    1    3    3    0    0  0.26295644629E+02 -0.18502694542E+02 -0.13023119797E+03  0.13414535235E+03  0.10000000000E+01 0.  0.
<mgrwt>
<rscale>  0 0.12500415E+03</rscale>
<asrwt>0</asrwt>
<pdfrwt beam="2">  1        4 0.35584543E-01 0.12500415E+03</pdfrwt>
<pdfrwt beam="1">  1       -4 0.68613171E-02 0.12500415E+03</pdfrwt>
<totfact> 0.17605124E+03</totfact>
</mgrwt>
</event>
<event>
 5    1  0.1430314E-002  0.1250129E+03  0.7818608E-02  0.1235049E+00
          4   -1    0    0  501    0  0.00000000000E+00  0.00000000000E+00  0.10233326273E+02  0.10311831390E+02  0.12700000000E+01 0.  1.
         -4   -1    0    0    0  501 -0.00000000000E+00 -0.00000000000E+00 -0.38025895310E+03  0.38026107389E+03  0.12700000000E+01 0.  1.
         25    2    1    2    0    0  0.00000000000E+00  0.00000000000E+00 -0.37002562683E+03  0.39057290528E+03  0.12501291864E+03 0.  0.
    9000005    1    3    3    0    0  0.59727834536E+02  0.18168958935E+02 -0.17588688715E+03  0.18664062354E+03  0.10000000000E+01 0.  0.
    9000005    1    3    3    0    0 -0.59727834536E+02 -0.18168958935E+02 -0.19413873969E+03  0.20393228174E+03  0.10000000000E+01 0.  0.
<mgrwt>
<rscale>  0 0.12501292E+03</rscale>
<asrwt>0</asrwt>
<pdfrwt beam="1">  1        4 0.25684111E-02 0.12501292E+03</pdfrwt>
<pdfrwt beam="2">  1       -4 0.95074769E-01 0.12501292E+03</pdfrwt>
<totfact> 0.10762829E+03</totfact>
</mgrwt>
</event>
<event>
 5    1  0.1430314E-002  0.1249965E+03  0.7818608E-02  0.1235075E+00
         -4   -1    0    0    0  501 -0.00000000000E+00  0.00000000000E+00  0.13554416357E+02  0.13613783559E+02  0.12700000000E+01 0. -1.
          4   -1    0    0  501    0  0.00000000000E+00 -0.00000000000E+00 -0.28748371591E+03  0.28748652110E+03  0.12700000000E+01 0. -1.
         25    2    1    2    0    0  0.00000000000E+00  0.00000000000E+00 -0.27392929955E+03  0.30110030466E+03  0.12499652920E+03 0.  0.
    9000005    1    3    3    0    0 -0.38425742148E+02  0.14804158862E+02 -0.23739276346E+02  0.47542128904E+02  0.10000000000E+01 0.  0.
    9000005    1    3    3    0    0  0.38425742148E+02 -0.14804158862E+02 -0.25019002321E+03  0.25355817575E+03  0.10000000000E+01 0.  0.
<mgrwt>
<rscale>  0 0.12499653E+03</rscale>
<asrwt>0</asrwt>
<pdfrwt beam="2">  1        4 0.71878681E-01 0.12499653E+03</pdfrwt>
<pdfrwt beam="1">  1       -4 0.33963766E-02 0.12499653E+03</pdfrwt>
<totfact> 0.12941305E+03</totfact>
</mgrwt>
</event>
<event>
 5    1  0.1430314E-002  0.1249882E+03  0.7818608E-02  0.1235088E+00
          4   -1    0    0  501    0  0.00000000000E+00  0.00000000000E+00  0.43925056921E+02  0.43943412766E+02  0.12700000000E+01 0. -1.
         -4   -1    0    0    0  501 -0.00000000000E+00 -0.00000000000E+00 -0.88871563092E+02  0.88880636960E+02  0.12700000000E+01 0. -1.
         25    2    1    2    0    0  0.00000000000E+00  0.00000000000E+00 -0.44946506171E+02  0.13282404973E+03  0.12498815851E+03 0.  0.
    9000005    1    3    3    0    0 -0.18977788658E+02 -0.59534338519E+02 -0.22607745294E+02  0.66457535859E+02  0.10000000000E+01 0.  0.
    9000005    1    3    3    0    0  0.18977788658E+02  0.59534338519E+02 -0.22338760877E+02  0.66366513866E+02  0.10000000000E+01 0.  0.
<mgrwt>
<rscale>  0 0.12498816E+03</rscale>
<asrwt>0</asrwt>
<pdfrwt beam="1">  1        4 0.10984693E-01 0.12498816E+03</pdfrwt>
<pdfrwt beam="2">  1       -4 0.22221319E-01 0.12498816E+03</pdfrwt>
<totfact> 0.19419093E+03</totfact>
</mgrwt>
</event>
<event>
 5    1  0.1430314E-002  0.1250018E+03  0.7818608E-02  0.1235066E+00
          4   -1    0    0  501    0  0.00000000000E+00  0.00000000000E+00  0.19249995097E+02  0.19291843127E+02  0.12700000000E+01 0. -1.
         -4   -1    0    0    0  501 -0.00000000000E+00 -0.00000000000E+00 -0.20266379236E+03  0.20266777157E+03  0.12700000000E+01 0. -1.
         25    2    1    2    0    0  0.00000000000E+00  0.00000000000E+00 -0.18341379726E+03  0.22195961470E+03  0.12500179811E+03 0.  0.
    9000005    1    3    3    0    0  0.14083408581E+02  0.60885827810E+01 -0.19927604572E+03  0.19986834576E+03  0.10000000000E+01 0.  0.
    9000005    1    3    3    0    0 -0.14083408581E+02 -0.60885827810E+01  0.15862248455E+02  0.22091268945E+02  0.10000000000E+01 0.  0.
<mgrwt>
<rscale>  0 0.12500180E+03</rscale>
<asrwt>0</asrwt>
<pdfrwt beam="1">  1        4 0.48182278E-02 0.12500180E+03</pdfrwt>
<pdfrwt beam="2">  1       -4 0.50671670E-01 0.12500180E+03</pdfrwt>
<totfact> 0.15478291E+03</totfact>
</mgrwt>
</event>
<event>
 5    1  0.1430314E-002  0.1249999E+03  0.7818608E-02  0.1235069E+00
         -4   -1    0    0    0  501 -0.00000000000E+00  0.00000000000E+00  0.43418117839E+02  0.43436687911E+02  0.12700000000E+01 0. -1.
          4   -1    0    0  501    0  0.00000000000E+00 -0.00000000000E+00 -0.89925824042E+02  0.89934791542E+02  0.12700000000E+01 0. -1.
         25    2    1    2    0    0  0.00000000000E+00  0.00000000000E+00 -0.46507706203E+02  0.13337147945E+03  0.12499993918E+03 0.  0.
    9000005    1    3    3    0    0  0.41909144522E+02 -0.21832384434E+02  0.20377577939E+02  0.51471109249E+02  0.10000000000E+01 0.  0.
    9000005    1    3    3    0    0 -0.41909144522E+02  0.21832384434E+02 -0.66885284142E+02  0.81900370203E+02  0.10000000000E+01 0.  0.
<mgrwt>
<rscale>  0 0.12499994E+03</rscale>
<asrwt>0</asrwt>
<pdfrwt beam="2">  1        4 0.22484898E-01 0.12499994E+03</pdfrwt>
<pdfrwt beam="1">  1       -4 0.10857972E-01 0.12499994E+03</pdfrwt>
<totfact> 0.19384808E+03</totfact>
</mgrwt>
</event>
<event>
 5    1  0.1430314E-002  0.1250014E+03  0.7818608E-02  0.1235067E+00
         -4   -1    0    0    0  501 -0.00000000000E+00  0.00000000000E+00  0.52199456791E+03  0.52199611285E+03  0.12700000000E+01 0. -1.
          4   -1    0    0  501    0  0.00000000000E+00 -0.00000000000E+00 -0.74280298792E+01  0.75358163385E+01  0.12700000000E+01 0. -1.
         25    2    1    2    0    0  0.00000000000E+00  0.00000000000E+00  0.51456653803E+03  0.52953192918E+03  0.12500136786E+03 0.  0.
    9000005    1    3    3    0    0 -0.18138486128E+02  0.49509987641E+02  0.11519069143E+03  0.12668914298E+03  0.10000000000E+01 0.  0.
    9000005    1    3    3    0    0  0.18138486128E+02 -0.49509987641E+02  0.39937584660E+03  0.40284278621E+03  0.10000000000E+01 0.  0.
<mgrwt>
<rscale>  0 0.12500137E+03</rscale>
<asrwt>0</asrwt>
<pdfrwt beam="2">  1        4 0.18706738E-02 0.12500137E+03</pdfrwt>
<pdfrwt beam="1">  1       -4 0.13051232E+00 0.12500137E+03</pdfrwt>
<totfact> 0.83091003E+02</totfact>
</mgrwt>
</event>
<event>
 5    1  0.1430314E-002  0.1249988E+03  0.7818608E-02  0.1235071E+00
          4   -1    0    0  501    0  0.00000000000E+00  0.00000000000E+00  0.32496001325E+03  0.32496249493E+03  0.12700000000E+01 0. -1.
         -4   -1    0    0    0  501 -0.00000000000E+00 -0.00000000000E+00 -0.11984397899E+02  0.12051501691E+02  0.12700000000E+01 0. -1.
         25    2    1    2    0    0  0.00000000000E+00  0.00000000000E+00  0.31297561535E+03  0.33701399662E+03  0.12499879245E+03 0.  0.
    9000005    1    3    3    0    0 -0.27564953961E+02 -0.22829650440E+02  0.18374077663E+02  0.40244581697E+02  0.10000000000E+01 0.  0.
    9000005    1    3    3    0    0  0.27564953961E+02  0.22829650440E+02  0.29460153769E+03  0.29676941492E+03  0.10000000000E+01 0.  0.
<mgrwt>
<rscale>  0 0.12499879E+03</rscale>
<asrwt>0</asrwt>
<pdfrwt beam="1">  1        4 0.81248699E-01 0.12499879E+03</pdfrwt>
<pdfrwt beam="2">  1       -4 0.30047978E-02 0.12499879E+03</pdfrwt>
<totfact> 0.11993941E+03</totfact>
</mgrwt>
</event>
<event>
 5    1  0.1430314E-002  0.1249888E+03  0.7818608E-02  0.1235087E+00
          4   -1    0    0  501    0  0.00000000000E+00  0.00000000000E+00  0.24825900603E+02  0.24858363598E+02  0.12700000000E+01 0.  1.
         -4   -1    0    0    0  501 -0.00000000000E+00 -0.00000000000E+00 -0.15717982257E+03  0.15718495323E+03  0.12700000000E+01 0.  1.
         25    2    1    2    0    0  0.00000000000E+00  0.00000000000E+00 -0.13235392197E+03  0.18204331683E+03  0.12498883367E+03 0.  0.
    9000005    1    3    3    0    0 -0.35730520014E+02 -0.50189100829E+02 -0.50975346954E+02  0.79969381013E+02  0.10000000000E+01 0.  0.
    9000005    1    3    3    0    0  0.35730520014E+02  0.50189100829E+02 -0.81378575013E+02  0.10207393582E+03  0.10000000000E+01 0.  0.
<mgrwt>
<rscale>  0 0.12498883E+03</rscale>
<asrwt>0</asrwt>
<pdfrwt beam="1">  1        4 0.62111748E-02 0.12498883E+03</pdfrwt>
<pdfrwt beam="2">  1       -4 0.39299652E-01 0.12498883E+03</pdfrwt>
<totfact> 0.17071554E+03</totfact>
</mgrwt>
</event>
<event>
 5    1  0.1430314E-002  0.1249995E+03  0.7818608E-02  0.1235070E+00
          4   -1    0    0  501    0  0.00000000000E+00  0.00000000000E+00  0.30760853189E+02  0.30787058789E+02  0.12700000000E+01 0. -1.
         -4   -1    0    0    0  501 -0.00000000000E+00 -0.00000000000E+00 -0.12690314111E+03  0.12690949580E+03  0.12700000000E+01 0. -1.
         25    2    1    2    0    0  0.00000000000E+00  0.00000000000E+00 -0.96142287923E+02  0.15769655459E+03  0.12499945521E+03 0.  0.
    9000005    1    3    3    0    0 -0.37513701009E+02 -0.24441884709E+02  0.69274681530E+01  0.45317472420E+02  0.10000000000E+01 0.  0.
    9000005    1    3    3    0    0  0.37513701009E+02  0.24441884709E+02 -0.10306975608E+03  0.11237908217E+03  0.10000000000E+01 0.  0.
<mgrwt>
<rscale>  0 0.12499946E+03</rscale>
<asrwt>0</asrwt>
<pdfrwt beam="1">  1        4 0.76942837E-02 0.12499946E+03</pdfrwt>
<pdfrwt beam="2">  1       -4 0.31729854E-01 0.12499946E+03</pdfrwt>
<totfact> 0.18166930E+03</totfact>
</mgrwt>
</event>
<event>
 5    1  0.1430314E-002  0.1249981E+03  0.7818608E-02  0.1235072E+00
         -4   -1    0    0    0  501 -0.00000000000E+00  0.00000000000E+00  0.67727907136E+02  0.67739813293E+02  0.12700000000E+01 0.  1.
          4   -1    0    0  501    0  0.00000000000E+00 -0.00000000000E+00 -0.57649918028E+02  0.57663905076E+02  0.12700000000E+01 0.  1.
         25    2    1    2    0    0  0.00000000000E+00  0.00000000000E+00  0.10077989107E+02  0.12540371837E+03  0.12499810685E+03 0.  0.
    9000005    1    3    3    0    0  0.39745400863E+02 -0.12810801559E+02 -0.41601841756E+02  0.58953598396E+02  0.10000000000E+01 0.  0.
    9000005    1    3    3    0    0 -0.39745400863E+02  0.12810801559E+02  0.51679830864E+02  0.66450119973E+02  0.10000000000E+01 0.  0.
<mgrwt>
<rscale>  0 0.12499811E+03</rscale>
<asrwt>0</asrwt>
<pdfrwt beam="2">  1        4 0.14415716E-01 0.12499811E+03</pdfrwt>
<pdfrwt beam="1">  1       -4 0.16935213E-01 0.12499811E+03</pdfrwt>
<totfact> 0.19814054E+03</totfact>
</mgrwt>
</event>
<event>
 5    1  0.1430314E-002  0.1249952E+03  0.7818608E-02  0.1235077E+00
         -4   -1    0    0    0  501 -0.00000000000E+00  0.00000000000E+00  0.17756494109E+03  0.17756948275E+03  0.12700000000E+01 0. -1.
          4   -1    0    0  501    0  0.00000000000E+00 -0.00000000000E+00 -0.21974161500E+02  0.22010830826E+02  0.12700000000E+01 0. -1.
         25    2    1    2    0    0  0.00000000000E+00  0.00000000000E+00  0.15559077959E+03  0.19958031357E+03  0.12499524340E+03 0.  0.
    9000005    1    3    3    0    0 -0.53613301358E+02  0.20095179901E+02  0.37821950417E+02  0.68627270608E+02  0.10000000000E+01 0.  0.
    9000005    1    3    3    0    0  0.53613301358E+02 -0.20095179901E+02  0.11776882917E+03  0.13095304296E+03  0.10000000000E+01 0.  0.
<mgrwt>
<rscale>  0 0.12499524E+03</rscale>
<asrwt>0</asrwt>
<pdfrwt beam="2">  1        4 0.54986919E-02 0.12499524E+03</pdfrwt>
<pdfrwt beam="1">  1       -4 0.44396386E-01 0.12499524E+03</pdfrwt>
<totfact> 0.16340657E+03</totfact>
</mgrwt>
</event>
<event>
 5    1  0.1430314E-002  0.1250049E+03  0.7818608E-02  0.1235062E+00
          4   -1    0    0  501    0  0.00000000000E+00  0.00000000000E+00  0.13752109147E+02  0.13810626560E+02  0.12700000000E+01 0. -1.
         -4   -1    0    0    0  501 -0.00000000000E+00 -0.00000000000E+00 -0.28340639770E+03  0.28340924325E+03  0.12700000000E+01 0. -1.
         25    2    1    2    0    0  0.00000000000E+00  0.00000000000E+00 -0.26965428856E+03  0.29721986981E+03  0.12500486260E+03 0.  0.
    9000005    1    3    3    0    0 -0.48509507005E+02 -0.23054781816E+02 -0.58858610185E+02  0.79687083190E+02  0.10000000000E+01 0.  0.
    9000005    1    3    3    0    0  0.48509507005E+02  0.23054781816E+02 -0.21079567837E+03  0.21753278662E+03  0.10000000000E+01 0.  0.
<mgrwt>
<rscale>  0 0.12500486E+03</rscale>
<asrwt>0</asrwt>
<pdfrwt beam="1">  1        4 0.34456986E-02 0.12500486E+03</pdfrwt>
<pdfrwt beam="2">  1       -4 0.70859251E-01 0.12500486E+03</pdfrwt>
<totfact> 0.13047882E+03</totfact>
</mgrwt>
</event>
<event>
 5    1  0.1430314E-002  0.1250038E+03  0.7818608E-02  0.1235063E+00
          4   -1    0    0  501    0  0.00000000000E+00  0.00000000000E+00  0.48136320129E+02  0.48153070676E+02  0.12700000000E+01 0. -1.
         -4   -1    0    0    0  501 -0.00000000000E+00 -0.00000000000E+00 -0.81118780848E+02  0.81128721833E+02  0.12700000000E+01 0. -1.
         25    2    1    2    0    0  0.00000000000E+00  0.00000000000E+00 -0.32982460719E+02  0.12928179251E+03  0.12500375658E+03 0.  0.
    9000005    1    3    3    0    0  0.20368941339E+02  0.22089339080E+02  0.40180543919E+02  0.50182753830E+02  0.10000000000E+01 0.  0.
    9000005    1    3    3    0    0 -0.20368941339E+02 -0.22089339080E+02 -0.73163004638E+02  0.79099038679E+02  0.10000000000E+01 0.  0.
<mgrwt>
<rscale>  0 0.12500376E+03</rscale>
<asrwt>0</asrwt>
<pdfrwt beam="1">  1        4 0.12037417E-01 0.12500376E+03</pdfrwt>
<pdfrwt beam="2">  1       -4 0.20283031E-01 0.12500376E+03</pdfrwt>
<totfact> 0.19601353E+03</totfact>
</mgrwt>
</event>
<event>
 5    1  0.1430314E-002  0.1250004E+03  0.7818608E-02  0.1235069E+00
          4   -1    0    0  501    0  0.00000000000E+00  0.00000000000E+00  0.79539975961E+01  0.80547487707E+01  0.12700000000E+01 0.  1.
         -4   -1    0    0    0  501 -0.00000000000E+00 -0.00000000000E+00 -0.48791573406E+03  0.48791738690E+03  0.12700000000E+01 0.  1.
         25    2    1    2    0    0  0.00000000000E+00  0.00000000000E+00 -0.47996173646E+03  0.49597213567E+03  0.12500036358E+03 0.  0.
    9000005    1    3    3    0    0 -0.24359108083E+02 -0.57544540362E+02 -0.23708561720E+03  0.24518427796E+03  0.10000000000E+01 0.  0.
    9000005    1    3    3    0    0  0.24359108083E+02  0.57544540362E+02 -0.24287611926E+03  0.25078785772E+03  0.10000000000E+01 0.  0.
<mgrwt>
<rscale>  0 0.12500036E+03</rscale>
<asrwt>0</asrwt>
<pdfrwt beam="1">  1        4 0.20013015E-02 0.12500036E+03</pdfrwt>
<pdfrwt beam="2">  1       -4 0.12199163E+00 0.12500036E+03</pdfrwt>
<totfact> 0.88250429E+02</totfact>
</mgrwt>
</event>
<event>
 5    1  0.1430314E-002  0.1250003E+03  0.7818608E-02  0.1235069E+00
          4   -1    0    0  501    0  0.00000000000E+00  0.00000000000E+00  0.44791697123E+02  0.44809697959E+02  0.12700000000E+01 0.  1.
         -4   -1    0    0    0  501 -0.00000000000E+00 -0.00000000000E+00 -0.87169482552E+02  0.87178733578E+02  0.12700000000E+01 0.  1.
         25    2    1    2    0    0  0.00000000000E+00  0.00000000000E+00 -0.42377785428E+02  0.13198843154E+03  0.12500027745E+03 0.  0.
    9000005    1    3    3    0    0 -0.16587519128E+02 -0.30388704644E+02 -0.76122838577E+02  0.83631965861E+02  0.10000000000E+01 0.  0.
    9000005    1    3    3    0    0  0.16587519128E+02  0.30388704644E+02  0.33745053148E+02  0.48356465676E+02  0.10000000000E+01 0.  0.
<mgrwt>
<rscale>  0 0.12500028E+03</rscale>
<asrwt>0</asrwt>
<pdfrwt beam="1">  1        4 0.11201331E-01 0.12500028E+03</pdfrwt>
<pdfrwt beam="2">  1       -4 0.21795777E-01 0.12500028E+03</pdfrwt>
<totfact> 0.19457944E+03</totfact>
</mgrwt>
</event>
<event>
 5    1  0.1430314E-002  0.1249901E+03  0.7818608E-02  0.1235085E+00
          4   -1    0    0  501    0  0.00000000000E+00  0.00000000000E+00  0.21667356748E+02  0.21704544419E+02  0.12700000000E+01 0.  1.
         -4   -1    0    0    0  501 -0.00000000000E+00 -0.00000000000E+00 -0.18006008166E+03  0.18006456039E+03  0.12700000000E+01 0.  1.
         25    2    1    2    0    0  0.00000000000E+00  0.00000000000E+00 -0.15839272491E+03  0.20176910481E+03  0.12499006500E+03 0.  0.
    9000005    1    3    3    0    0 -0.11718370804E+02 -0.53282545462E+02 -0.30012969220E+02  0.62274619121E+02  0.10000000000E+01 0.  0.
    9000005    1    3    3    0    0  0.11718370804E+02  0.53282545462E+02 -0.12837975569E+03  0.13949448569E+03  0.10000000000E+01 0.  0.
<mgrwt>
<rscale>  0 0.12499007E+03</rscale>
<asrwt>0</asrwt>
<pdfrwt beam="1">  1        4 0.54220480E-02 0.12499007E+03</pdfrwt>
<pdfrwt beam="2">  1       -4 0.45020224E-01 0.12499007E+03</pdfrwt>
<totfact> 0.16255181E+03</totfact>
</mgrwt>
</event>
<event>
 5    1  0.1430314E-002  0.1249999E+03  0.7818608E-02  0.1235069E+00
         -4   -1    0    0    0  501 -0.00000000000E+00  0.00000000000E+00  0.14326321982E+02  0.14382503313E+02  0.12700000000E+01 0.  1.
          4   -1    0    0  501    0  0.00000000000E+00 -0.00000000000E+00 -0.27207065523E+03  0.27207361934E+03  0.12700000000E+01 0.  1.
         25    2    1    2    0    0  0.00000000000E+00  0.00000000000E+00 -0.25774433325E+03  0.28645612265E+03  0.12499987552E+03 0.  0.
    9000005    1    3    3    0    0  0.29801488254E+02 -0.26993200083E+02 -0.23850033361E+03  0.24186808530E+03  0.10000000000E+01 0.  0.
    9000005    1    3    3    0    0 -0.29801488254E+02  0.26993200083E+02 -0.19243999642E+02  0.44588037354E+02  0.10000000000E+01 0.  0.
<mgrwt>
<rscale>  0 0.12499988E+03</rscale>
<asrwt>0</asrwt>
<pdfrwt beam="2">  1        4 0.68025040E-01 0.12499988E+03</pdfrwt>
<pdfrwt beam="1">  1       -4 0.35889746E-02 0.12499988E+03</pdfrwt>
<totfact> 0.13359362E+03</totfact>
</mgrwt>
</event>
<event>
 5    1  0.1430314E-002  0.1250031E+03  0.7818608E-02  0.1235064E+00
         -4   -1    0    0    0  501 -0.00000000000E+00  0.00000000000E+00  0.20538681865E+03  0.20539074510E+03  0.12700000000E+01 0. -1.
          4   -1    0    0  501    0  0.00000000000E+00 -0.00000000000E+00 -0.18994628567E+02  0.19037037963E+02  0.12700000000E+01 0. -1.
         25    2    1    2    0    0  0.00000000000E+00  0.00000000000E+00  0.18639219008E+03  0.22442778306E+03  0.12500312512E+03 0.  0.
    9000005    1    3    3    0    0  0.22828028352E+02 -0.20983182980E+02 -0.42191768561E+01  0.31308374275E+02  0.10000000000E+01 0.  0.
    9000005    1    3    3    0    0 -0.22828028352E+02  0.20983182980E+02  0.19061136693E+03  0.19311940879E+03  0.10000000000E+01 0.  0.
<mgrwt>
<rscale>  0 0.12500313E+03</rscale>
<asrwt>0</asrwt>
<pdfrwt beam="2">  1        4 0.47544490E-02 0.12500313E+03</pdfrwt>
<pdfrwt beam="1">  1       -4 0.51352498E-01 0.12500313E+03</pdfrwt>
<totfact> 0.15387375E+03</totfact>
</mgrwt>
</event>
<event>
 5    1  0.1430314E-002  0.1249989E+03  0.7818608E-02  0.1235071E+00
         -4   -1    0    0    0  501 -0.00000000000E+00  0.00000000000E+00  0.27873620805E+02  0.27902538178E+02  0.12700000000E+01 0. -1.
          4   -1    0    0  501    0  0.00000000000E+00 -0.00000000000E+00 -0.14003463035E+03  0.14004038916E+03  0.12700000000E+01 0. -1.
         25    2    1    2    0    0  0.00000000000E+00  0.00000000000E+00 -0.11216100954E+03  0.16794292734E+03  0.12499893912E+03 0.  0.
    9000005    1    3    3    0    0  0.50569351102E+02 -0.10221120902E+01 -0.10538877839E+03  0.11690208978E+03  0.10000000000E+01 0.  0.
    9000005    1    3    3    0    0 -0.50569351102E+02  0.10221120902E+01 -0.67722311493E+01  0.51040837559E+02  0.10000000000E+01 0.  0.
<mgrwt>
<rscale>  0 0.12499894E+03</rscale>
<asrwt>0</asrwt>
<pdfrwt beam="2">  1        4 0.35012990E-01 0.12499894E+03</pdfrwt>
<pdfrwt beam="1">  1       -4 0.69727401E-02 0.12499894E+03</pdfrwt>
<totfact> 0.17690667E+03</totfact>
</mgrwt>
</event>
<event>
 5    1  0.1430314E-002  0.1250016E+03  0.7818608E-02  0.1235067E+00
         -4   -1    0    0    0  501 -0.00000000000E+00  0.00000000000E+00  0.28365720066E+02  0.28394136276E+02  0.12700000000E+01 0.  1.
          4   -1    0    0  501    0  0.00000000000E+00 -0.00000000000E+00 -0.13761339330E+03  0.13761925343E+03  0.12700000000E+01 0.  1.
         25    2    1    2    0    0  0.00000000000E+00  0.00000000000E+00 -0.10924767323E+03  0.16601338971E+03  0.12500156581E+03 0.  0.
    9000005    1    3    3    0    0 -0.14262294493E+02  0.31275458044E+02 -0.12393668091E+03  0.12861908177E+03  0.10000000000E+01 0.  0.
    9000005    1    3    3    0    0  0.14262294493E+02 -0.31275458044E+02  0.14689007674E+02  0.37394307943E+02  0.10000000000E+01 0.  0.
<mgrwt>
<rscale>  0 0.12500157E+03</rscale>
<asrwt>0</asrwt>
<pdfrwt beam="2">  1        4 0.34407631E-01 0.12500157E+03</pdfrwt>
<pdfrwt beam="1">  1       -4 0.70957149E-02 0.12500157E+03</pdfrwt>
<totfact> 0.17777727E+03</totfact>
</mgrwt>
</event>
<event>
 5    1  0.1430314E-002  0.1249952E+03  0.7818608E-02  0.1235077E+00
          4   -1    0    0  501    0  0.00000000000E+00  0.00000000000E+00  0.74855561164E+02  0.74866333804E+02  0.12700000000E+01 0. -1.
         -4   -1    0    0    0  501 -0.00000000000E+00 -0.00000000000E+00 -0.52157582038E+02  0.52173041545E+02  0.12700000000E+01 0. -1.
         25    2    1    2    0    0  0.00000000000E+00  0.00000000000E+00  0.22697979127E+02  0.12703937535E+03  0.12499521844E+03 0.  0.
    9000005    1    3    3    0    0 -0.55163291544E+02  0.20006780619E+02  0.33187385033E+02  0.67421528684E+02  0.10000000000E+01 0.  0.
    9000005    1    3    3    0    0  0.55163291544E+02 -0.20006780619E+02 -0.10489405907E+02  0.59617846665E+02  0.10000000000E+01 0.  0.
<mgrwt>
<rscale>  0 0.12499522E+03</rscale>
<asrwt>0</asrwt>
<pdfrwt beam="1">  1        4 0.18717169E-01 0.12499522E+03</pdfrwt>
<pdfrwt beam="2">  1       -4 0.13042675E-01 0.12499522E+03</pdfrwt>
<totfact> 0.19727063E+03</totfact>
</mgrwt>
</event>
<event>
 5    1  0.1430314E-002  0.1249984E+03  0.7818608E-02  0.1235072E+00
         -4   -1    0    0    0  501 -0.00000000000E+00  0.00000000000E+00  0.40140823196E+01  0.42101967732E+01  0.12700000000E+01 0.  1.
          4   -1    0    0  501    0  0.00000000000E+00 -0.00000000000E+00 -0.94970990599E+03  0.94971075514E+03  0.12700000000E+01 0.  1.
         25    2    1    2    0    0  0.00000000000E+00  0.00000000000E+00 -0.94569582367E+03  0.95392095191E+03  0.12499836638E+03 0.  0.
    9000005    1    3    3    0    0 -0.29156016456E+02  0.52446117333E+02 -0.33968386208E+03  0.34494462553E+03  0.10000000000E+01 0.  0.
    9000005    1    3    3    0    0  0.29156016456E+02 -0.52446117333E+02 -0.60601196158E+03  0.60897632639E+03  0.10000000000E+01 0.  0.
<mgrwt>
<rscale>  0 0.12499837E+03</rscale>
<asrwt>0</asrwt>
<pdfrwt beam="2">  1        4 0.23745135E+00 0.12499837E+03</pdfrwt>
<pdfrwt beam="1">  1       -4 0.10281443E-02 0.12499837E+03</pdfrwt>
<totfact> 0.40298735E+02</totfact>
</mgrwt>
</event>
<event>
 5    1  0.1430314E-002  0.1249936E+03  0.7818608E-02  0.1235079E+00
          4   -1    0    0  501    0  0.00000000000E+00  0.00000000000E+00  0.27472070343E+02  0.27501409944E+02  0.12700000000E+01 0. -1.
         -4   -1    0    0    0  501 -0.00000000000E+00 -0.00000000000E+00 -0.14206724047E+03  0.14207291689E+03  0.12700000000E+01 0. -1.
         25    2    1    2    0    0  0.00000000000E+00  0.00000000000E+00 -0.11459517013E+03  0.16957432684E+03  0.12499359706E+03 0.  0.
    9000005    1    3    3    0    0  0.21633391077E+02  0.18088056079E+01  0.22198468420E+02  0.31065211852E+02  0.10000000000E+01 0.  0.
    9000005    1    3    3    0    0 -0.21633391077E+02 -0.18088056079E+01 -0.13679363855E+03  0.13850911499E+03  0.10000000000E+01 0.  0.
<mgrwt>
<rscale>  0 0.12499360E+03</rscale>
<asrwt>0</asrwt>
<pdfrwt beam="1">  1        4 0.68723950E-02 0.12499360E+03</pdfrwt>
<pdfrwt beam="2">  1       -4 0.35521185E-01 0.12499360E+03</pdfrwt>
<totfact> 0.17618883E+03</totfact>
</mgrwt>
</event>
<event>
 5    1  0.1430314E-002  0.1249989E+03  0.7818608E-02  0.1235071E+00
          4   -1    0    0  501    0  0.00000000000E+00  0.00000000000E+00  0.40336091298E+02  0.40356079607E+02  0.12700000000E+01 0.  1.
         -4   -1    0    0    0  501 -0.00000000000E+00 -0.00000000000E+00 -0.96792752135E+02  0.96801083496E+02  0.12700000000E+01 0.  1.
         25    2    1    2    0    0  0.00000000000E+00  0.00000000000E+00 -0.56456660837E+02  0.13715716310E+03  0.12499893135E+03 0.  0.
    9000005    1    3    3    0    0  0.53988948978E+02 -0.21492028061E+02 -0.53452802546E+02  0.78961484168E+02  0.10000000000E+01 0.  0.
    9000005    1    3    3    0    0 -0.53988948978E+02  0.21492028061E+02 -0.30038582908E+01  0.58195678934E+02  0.10000000000E+01 0.  0.
<mgrwt>
<rscale>  0 0.12499893E+03</rscale>
<asrwt>0</asrwt>
<pdfrwt beam="1">  1        4 0.10087563E-01 0.12499893E+03</pdfrwt>
<pdfrwt beam="2">  1       -4 0.24201728E-01 0.12499893E+03</pdfrwt>
<totfact> 0.19187214E+03</totfact>
</mgrwt>
</event>
<event>
 5    1  0.1430314E-002  0.1250091E+03  0.7818608E-02  0.1235055E+00
         -4   -1    0    0    0  501 -0.00000000000E+00  0.00000000000E+00  0.23170488123E+02  0.23205267072E+02  0.12700000000E+01 0. -1.
          4   -1    0    0  501    0  0.00000000000E+00 -0.00000000000E+00 -0.16844832800E+03  0.16845311546E+03  0.12700000000E+01 0. -1.
         25    2    1    2    0    0  0.00000000000E+00  0.00000000000E+00 -0.14527783988E+03  0.19165838253E+03  0.12500913900E+03 0.  0.
    9000005    1    3    3    0    0  0.18511089937E+02  0.27215748189E+02  0.88127974183E+01  0.34088455502E+02  0.10000000000E+01 0.  0.
    9000005    1    3    3    0    0 -0.18511089937E+02 -0.27215748189E+02 -0.15409063730E+03  0.15756992703E+03  0.10000000000E+01 0.  0.
<mgrwt>
<rscale>  0 0.12500914E+03</rscale>
<asrwt>0</asrwt>
<pdfrwt beam="2">  1        4 0.42117024E-01 0.12500914E+03</pdfrwt>
<pdfrwt beam="1">  1       -4 0.57975683E-02 0.12500914E+03</pdfrwt>
<totfact> 0.16658070E+03</totfact>
</mgrwt>
</event>
<event>
 5    1  0.1430314E-002  0.1250007E+03  0.7818608E-02  0.1235068E+00
         -4   -1    0    0    0  501 -0.00000000000E+00  0.00000000000E+00  0.14242458042E+03  0.14243024260E+03  0.12700000000E+01 0. -1.
          4   -1    0    0  501    0  0.00000000000E+00 -0.00000000000E+00 -0.27406205961E+02  0.27435615998E+02  0.12700000000E+01 0. -1.
         25    2    1    2    0    0  0.00000000000E+00  0.00000000000E+00  0.11501837446E+03  0.16986585860E+03  0.12500073382E+03 0.  0.
    9000005    1    3    3    0    0 -0.19544737696E+02  0.31354233747E+02  0.12599938848E+03  0.13130853226E+03  0.10000000000E+01 0.  0.
    9000005    1    3    3    0    0  0.19544737696E+02 -0.31354233747E+02 -0.10981014026E+02  0.38557326340E+02  0.10000000000E+01 0.  0.
<mgrwt>
<rscale>  0 0.12500073E+03</rscale>
<asrwt>0</asrwt>
<pdfrwt beam="2">  1        4 0.68559356E-02 0.12500073E+03</pdfrwt>
<pdfrwt beam="1">  1       -4 0.35610529E-01 0.12500073E+03</pdfrwt>
<totfact> 0.17602799E+03</totfact>
</mgrwt>
</event>
<event>
 5    1  0.1430314E-002  0.1249970E+03  0.7818608E-02  0.1235074E+00
          4   -1    0    0  501    0  0.00000000000E+00  0.00000000000E+00  0.10654348554E+02  0.10729773675E+02  0.12700000000E+01 0.  1.
         -4   -1    0    0    0  501 -0.00000000000E+00 -0.00000000000E+00 -0.36524738194E+03  0.36524958989E+03  0.12700000000E+01 0.  1.
         25    2    1    2    0    0  0.00000000000E+00  0.00000000000E+00 -0.35459303338E+03  0.37597936356E+03  0.12499704997E+03 0.  0.
    9000005    1    3    3    0    0 -0.42539555717E+02 -0.44435765114E+02 -0.14422122961E+03  0.15679577192E+03  0.10000000000E+01 0.  0.
    9000005    1    3    3    0    0  0.42539555717E+02  0.44435765114E+02 -0.21037180377E+03  0.21918359164E+03  0.10000000000E+01 0.  0.
<mgrwt>
<rscale>  0 0.12499705E+03</rscale>
<asrwt>0</asrwt>
<pdfrwt beam="1">  1        4 0.26732925E-02 0.12499705E+03</pdfrwt>
<pdfrwt beam="2">  1       -4 0.91321508E-01 0.12499705E+03</pdfrwt>
<totfact> 0.11082064E+03</totfact>
</mgrwt>
</event>
<event>
 4    1  0.1430314E-002  0.1244658E+03  0.7818608E-02  0.1235907E+00
         -4   -1    0    0    0  501 -0.00000000000E+00  0.00000000000E+00  0.62227427402E+02  0.62240385773E+02  0.12700000000E+01 0. -1.
          4   -1    0    0  501    0  0.00000000000E+00 -0.00000000000E+00 -0.62212453699E+02  0.62225415188E+02  0.12700000000E+01 0. -1.
    9000005    1    1    2    0    0  0.54565309603E+02 -0.21440625473E+01 -0.29824774926E+02  0.62229311547E+02  0.10000000000E+01 0.  0.
    9000005    1    1    2    0    0 -0.54565309603E+02  0.21440625473E+01  0.29839748628E+02  0.62236489413E+02  0.10000000000E+01 0.  0.
<mgrwt>
<rscale>  0 0.12446580E+03</rscale>
<asrwt>0</asrwt>
<pdfrwt beam="2">  1        4 0.15556353E-01 0.12446580E+03</pdfrwt>
<pdfrwt beam="1">  1       -4 0.15560097E-01 0.12446580E+03</pdfrwt>
<totfact> 0.20114406E+03</totfact>
</mgrwt>
</event>
<event>
 5    1  0.1430314E-002  0.1249971E+03  0.7818608E-02  0.1235074E+00
          4   -1    0    0  501    0  0.00000000000E+00  0.00000000000E+00  0.21565323736E+03  0.21565697690E+03  0.12700000000E+01 0.  1.
         -4   -1    0    0    0  501 -0.00000000000E+00 -0.00000000000E+00 -0.18086553237E+02  0.18131086785E+02  0.12700000000E+01 0.  1.
         25    2    1    2    0    0  0.00000000000E+00  0.00000000000E+00  0.19756668412E+03  0.23378806368E+03  0.12499705614E+03 0.  0.
    9000005    1    3    3    0    0 -0.50656539855E+02 -0.34725250630E+02  0.77202246823E+02  0.98656550598E+02  0.10000000000E+01 0.  0.
    9000005    1    3    3    0    0  0.50656539855E+02  0.34725250630E+02  0.12036443730E+03  0.13513151308E+03  0.10000000000E+01 0.  0.
<mgrwt>
<rscale>  0 0.12499706E+03</rscale>
<asrwt>0</asrwt>
<pdfrwt beam="1">  1        4 0.53919343E-01 0.12499706E+03</pdfrwt>
<pdfrwt beam="2">  1       -4 0.45276725E-02 0.12499706E+03</pdfrwt>
<totfact> 0.15053915E+03</totfact>
</mgrwt>
</event>
<event>
 5    1  0.1430314E-002  0.1249997E+03  0.7818608E-02  0.1235070E+00
         -4   -1    0    0    0  501 -0.00000000000E+00  0.00000000000E+00  0.88553893224E+03  0.88553984293E+03  0.12700000000E+01 0.  1.
          4   -1    0    0  501    0  0.00000000000E+00 -0.00000000000E+00 -0.43187946201E+01  0.45016538039E+01  0.12700000000E+01 0.  1.
         25    2    1    2    0    0  0.00000000000E+00  0.00000000000E+00  0.88122013762E+03  0.89004149673E+03  0.12499973983E+03 0.  0.
    9000005    1    3    3    0    0 -0.18343273724E+02  0.33011327248E+02  0.86090417223E+02  0.94014803915E+02  0.10000000000E+01 0.  0.
    9000005    1    3    3    0    0  0.18343273724E+02 -0.33011327248E+02  0.79512972040E+03  0.79602669282E+03  0.10000000000E+01 0.  0.
<mgrwt>
<rscale>  0 0.12499974E+03</rscale>
<asrwt>0</asrwt>
<pdfrwt beam="2">  1        4 0.11026702E-02 0.12499974E+03</pdfrwt>
<pdfrwt beam="1">  1       -4 0.22140763E+00 0.12499974E+03</pdfrwt>
<totfact> 0.45040371E+02</totfact>
</mgrwt>
</event>
<event>
 5    1  0.1430314E-002  0.1249995E+03  0.7818608E-02  0.1235070E+00
         -4   -1    0    0    0  501 -0.00000000000E+00  0.00000000000E+00  0.53381284796E+03  0.53381435869E+03  0.12700000000E+01 0.  1.
          4   -1    0    0  501    0  0.00000000000E+00 -0.00000000000E+00 -0.72609487640E+01  0.73711788035E+01  0.12700000000E+01 0.  1.
         25    2    1    2    0    0  0.00000000000E+00  0.00000000000E+00  0.52655189919E+03  0.54118553749E+03  0.12499953379E+03 0.  0.
    9000005    1    3    3    0    0 -0.52655220506E+02 -0.26089129954E+02  0.35532299386E+03  0.36015086410E+03  0.10000000000E+01 0.  0.
    9000005    1    3    3    0    0  0.52655220506E+02  0.26089129954E+02  0.17122890533E+03  0.18103467339E+03  0.10000000000E+01 0.  0.
<mgrwt>
<rscale>  0 0.12499953E+03</rscale>
<asrwt>0</asrwt>
<pdfrwt beam="2">  1        4 0.18292048E-02 0.12499953E+03</pdfrwt>
<pdfrwt beam="1">  1       -4 0.13346718E+00 0.12499953E+03</pdfrwt>
<totfact> 0.81409243E+02</totfact>
</mgrwt>
</event>
<event>
 5    1  0.1430314E-002  0.1249993E+03  0.7818608E-02  0.1235070E+00
         -4   -1    0    0    0  501 -0.00000000000E+00  0.00000000000E+00  0.31334552575E+03  0.31334809941E+03  0.12700000000E+01 0. -1.
          4   -1    0    0  501    0  0.00000000000E+00 -0.00000000000E+00 -0.12431159907E+02  0.12495864781E+02  0.12700000000E+01 0. -1.
         25    2    1    2    0    0  0.00000000000E+00  0.00000000000E+00  0.30091436584E+03  0.32584396419E+03  0.12499933373E+03 0.  0.
    9000005    1    3    3    0    0  0.35555094948E+02  0.23640595957E+02  0.26940586579E+03  0.27277016530E+03  0.10000000000E+01 0.  0.
    9000005    1    3    3    0    0 -0.35555094948E+02 -0.23640595957E+02  0.31508500049E+02  0.53073798896E+02  0.10000000000E+01 0.  0.
<mgrwt>
<rscale>  0 0.12499933E+03</rscale>
<asrwt>0</asrwt>
<pdfrwt beam="2">  1        4 0.31161998E-02 0.12499933E+03</pdfrwt>
<pdfrwt beam="1">  1       -4 0.78344791E-01 0.12499933E+03</pdfrwt>
<totfact> 0.12276628E+03</totfact>
</mgrwt>
</event>
<event>
 5    1  0.1430314E-002  0.1250225E+03  0.7818608E-02  0.1235034E+00
         -4   -1    0    0    0  501 -0.00000000000E+00  0.00000000000E+00  0.16450907139E+03  0.16451397348E+03  0.12700000000E+01 0. -1.
          4   -1    0    0  501    0  0.00000000000E+00 -0.00000000000E+00 -0.23731203406E+02  0.23765161794E+02  0.12700000000E+01 0. -1.
         25    2    1    2    0    0  0.00000000000E+00  0.00000000000E+00  0.14077786798E+03  0.18827913527E+03  0.12502249663E+03 0.  0.
    9000005    1    3    3    0    0  0.47282532257E+02 -0.25401098601E+02  0.11862211492E+03  0.13020391628E+03  0.10000000000E+01 0.  0.
    9000005    1    3    3    0    0 -0.47282532257E+02  0.25401098601E+02  0.22155753060E+02  0.58075218987E+02  0.10000000000E+01 0.  0.
<mgrwt>
<rscale>  0 0.12502250E+03</rscale>
<asrwt>0</asrwt>
<pdfrwt beam="2">  1        4 0.59376585E-02 0.12502250E+03</pdfrwt>
<pdfrwt beam="1">  1       -4 0.41132125E-01 0.12502250E+03</pdfrwt>
<totfact> 0.16793628E+03</totfact>
</mgrwt>
</event>
<event>
 5    1  0.1430314E-002  0.1249994E+03  0.7818608E-02  0.1235070E+00
          4   -1    0    0  501    0  0.00000000000E+00  0.00000000000E+00  0.39373468072E+03  0.39373672892E+03  0.12700000000E+01 0.  1.
         -4   -1    0    0    0  501 -0.00000000000E+00 -0.00000000000E+00 -0.98781975465E+01  0.99595023354E+01  0.12700000000E+01 0.  1.
         25    2    1    2    0    0  0.00000000000E+00  0.00000000000E+00  0.38385648317E+03  0.40369623126E+03  0.12499938982E+03 0.  0.
    9000005    1    3    3    0    0 -0.57132405464E+02 -0.11233360880E+02  0.11864356296E+03  0.13216503011E+03  0.10000000000E+01 0.  0.
    9000005    1    3    3    0    0  0.57132405464E+02  0.11233360880E+02  0.26521292021E+03  0.27153120115E+03  0.10000000000E+01 0.  0.
<mgrwt>
<rscale>  0 0.12499939E+03</rscale>
<asrwt>0</asrwt>
<pdfrwt beam="1">  1        4 0.98444090E-01 0.12499939E+03</pdfrwt>
<pdfrwt beam="2">  1       -4 0.24799685E-02 0.12499939E+03</pdfrwt>
<totfact> 0.10493603E+03</totfact>
</mgrwt>
</event>
<event>
 5    1  0.1430314E-002  0.1250003E+03  0.7818608E-02  0.1235069E+00
          4   -1    0    0  501    0  0.00000000000E+00  0.00000000000E+00  0.11844253876E+02  0.11912147156E+02  0.12700000000E+01 0. -1.
         -4   -1    0    0    0  501 -0.00000000000E+00 -0.00000000000E+00 -0.32879096321E+03  0.32879341597E+03  0.12700000000E+01 0. -1.
         25    2    1    2    0    0  0.00000000000E+00  0.00000000000E+00 -0.31694670933E+03  0.34070556313E+03  0.12500025676E+03 0.  0.
    9000005    1    3    3    0    0  0.16295092437E+02  0.60316868751E+02 -0.15501345236E+03  0.16713415302E+03  0.10000000000E+01 0.  0.
    9000005    1    3    3    0    0 -0.16295092437E+02 -0.60316868751E+02 -0.16193325698E+03  0.17357141011E+03  0.10000000000E+01 0.  0.
<mgrwt>
<rscale>  0 0.12500026E+03</rscale>
<asrwt>0</asrwt>
<pdfrwt beam="1">  1        4 0.29698578E-02 0.12500026E+03</pdfrwt>
<pdfrwt beam="2">  1       -4 0.82206504E-01 0.12500026E+03</pdfrwt>
<totfact> 0.11902241E+03</totfact>
</mgrwt>
</event>
<event>
 5    1  0.1430314E-002  0.1249919E+03  0.7818608E-02  0.1235082E+00
          4   -1    0    0  501    0  0.00000000000E+00  0.00000000000E+00  0.22595819242E+02  0.22631481331E+02  0.12700000000E+01 0. -1.
         -4   -1    0    0    0  501 -0.00000000000E+00 -0.00000000000E+00 -0.17267824886E+03  0.17268291904E+03  0.12700000000E+01 0. -1.
         25    2    1    2    0    0  0.00000000000E+00  0.00000000000E+00 -0.15008242962E+03  0.19531440037E+03  0.12499191699E+03 0.  0.
    9000005    1    3    3    0    0 -0.14553722707E+02  0.59856492699E+02 -0.91440071311E+02  0.11025832034E+03  0.10000000000E+01 0.  0.
    9000005    1    3    3    0    0  0.14553722707E+02 -0.59856492699E+02 -0.58642358307E+02  0.85056080034E+02  0.10000000000E+01 0.  0.
<mgrwt>
<rscale>  0 0.12499192E+03</rscale>
<asrwt>0</asrwt>
<pdfrwt beam="1">  1        4 0.56539969E-02 0.12499192E+03</pdfrwt>
<pdfrwt beam="2">  1       -4 0.43174600E-01 0.12499192E+03</pdfrwt>
<totfact> 0.16514483E+03</totfact>
</mgrwt>
</event>
<event>
 5    1  0.1430314E-002  0.1250025E+03  0.7818608E-02  0.1235065E+00
          4   -1    0    0  501    0  0.00000000000E+00  0.00000000000E+00  0.34122712690E+02  0.34146338329E+02  0.12700000000E+01 0. -1.
         -4   -1    0    0    0  501 -0.00000000000E+00 -0.00000000000E+00 -0.11441440653E+03  0.11442145482E+03  0.12700000000E+01 0. -1.
         25    2    1    2    0    0  0.00000000000E+00  0.00000000000E+00 -0.80291693842E+02  0.14856779314E+03  0.12500253221E+03 0.  0.
    9000005    1    3    3    0    0  0.62405641634E+02 -0.12081768245E+01 -0.43806110014E+02  0.76262042154E+02  0.10000000000E+01 0.  0.
    9000005    1    3    3    0    0 -0.62405641634E+02  0.12081768245E+01 -0.36485583828E+02  0.72305750990E+02  0.10000000000E+01 0.  0.
<mgrwt>
<rscale>  0 0.12500253E+03</rscale>
<asrwt>0</asrwt>
<pdfrwt beam="1">  1        4 0.85345127E-02 0.12500253E+03</pdfrwt>
<pdfrwt beam="2">  1       -4 0.28607435E-01 0.12500253E+03</pdfrwt>
<totfact> 0.18608331E+03</totfact>
</mgrwt>
</event>
<event>
 4    1  0.1430314E-002  0.1250629E+03  0.7818608E-02  0.1234971E+00
          4   -1    0    0  501    0  0.00000000000E+00  0.00000000000E+00  0.18445244071E+02  0.18488913674E+02  0.12700000000E+01 0. -1.
         -4   -1    0    0    0  501 -0.00000000000E+00 -0.00000000000E+00 -0.21169226662E+03  0.21169607612E+03  0.12700000000E+01 0. -1.
    9000005    1    1    2    0    0  0.38360839918E+02 -0.71314190585E+01 -0.67040309753E+01  0.39602464675E+02  0.10000000000E+01 0.  0.
    9000005    1    1    2    0    0 -0.38360839918E+02  0.71314190585E+01 -0.18654299157E+03  0.19058252512E+03  0.10000000000E+01 0.  0.
<mgrwt>
<rscale>  0 0.12506286E+03</rscale>
<asrwt>0</asrwt>
<pdfrwt beam="1">  1        4 0.46172466E-02 0.12506286E+03</pdfrwt>
<pdfrwt beam="2">  1       -4 0.52928994E-01 0.12506286E+03</pdfrwt>
<totfact> 0.15158731E+03</totfact>
</mgrwt>
</event>
<event>
 5    1  0.1430314E-002  0.1249973E+03  0.7818608E-02  0.1235074E+00
          4   -1    0    0  501    0  0.00000000000E+00  0.00000000000E+00  0.21141066121E+02  0.21179177905E+02  0.12700000000E+01 0.  1.
         -4   -1    0    0    0  501 -0.00000000000E+00 -0.00000000000E+00 -0.18455605101E+03  0.18456042063E+03  0.12700000000E+01 0.  1.
         25    2    1    2    0    0  0.00000000000E+00  0.00000000000E+00 -0.16341498489E+03  0.20573959854E+03  0.12499730045E+03 0.  0.
    9000005    1    3    3    0    0 -0.24445064456E+02 -0.34616569927E+02 -0.15729978097E+03  0.16291129237E+03  0.10000000000E+01 0.  0.
    9000005    1    3    3    0    0  0.24445064456E+02  0.34616569927E+02 -0.61152039152E+01  0.42828306162E+02  0.10000000000E+01 0.  0.
<mgrwt>
<rscale>  0 0.12499730E+03</rscale>
<asrwt>0</asrwt>
<pdfrwt beam="1">  1        4 0.52905773E-02 0.12499730E+03</pdfrwt>
<pdfrwt beam="2">  1       -4 0.46144318E-01 0.12499730E+03</pdfrwt>
<totfact> 0.16095775E+03</totfact>
</mgrwt>
</event>
<event>
 5    1  0.1430314E-002  0.1250002E+03  0.7818608E-02  0.1235069E+00
         -4   -1    0    0    0  501 -0.00000000000E+00  0.00000000000E+00  0.36264370901E+02  0.36286602167E+02  0.12700000000E+01 0.  1.
          4   -1    0    0  501    0  0.00000000000E+00 -0.00000000000E+00 -0.10765735254E+03  0.10766484318E+03  0.12700000000E+01 0.  1.
         25    2    1    2    0    0  0.00000000000E+00  0.00000000000E+00 -0.71392981644E+02  0.14395144535E+03  0.12500024316E+03 0.  0.
    9000005    1    3    3    0    0  0.42310840234E+02 -0.42796376371E+02 -0.16305353765E+02  0.62358652914E+02  0.10000000000E+01 0.  0.
    9000005    1    3    3    0    0 -0.42310840234E+02  0.42796376371E+02 -0.55087627878E+02  0.81592792433E+02  0.10000000000E+01 0.  0.
<mgrwt>
<rscale>  0 0.12500024E+03</rscale>
<asrwt>0</asrwt>
<pdfrwt beam="2">  1        4 0.26918053E-01 0.12500024E+03</pdfrwt>
<pdfrwt beam="1">  1       -4 0.90698082E-02 0.12500024E+03</pdfrwt>
<totfact> 0.18839877E+03</totfact>
</mgrwt>
</event>
<event>
 5    1  0.1430314E-002  0.1249998E+03  0.7818608E-02  0.1235070E+00
          4   -1    0    0  501    0  0.00000000000E+00  0.00000000000E+00  0.41758540634E+02  0.41777848387E+02  0.12700000000E+01 0. -1.
         -4   -1    0    0    0  501 -0.00000000000E+00 -0.00000000000E+00 -0.93498138098E+02  0.93506763006E+02  0.12700000000E+01 0. -1.
         25    2    1    2    0    0  0.00000000000E+00  0.00000000000E+00 -0.51739597464E+02  0.13528461139E+03  0.12499976054E+03 0.  0.
    9000005    1    3    3    0    0  0.43882501055E+02  0.11398503747E+02  0.20676190408E+02  0.49840792894E+02  0.10000000000E+01 0.  0.
    9000005    1    3    3    0    0 -0.43882501055E+02 -0.11398503747E+02 -0.72415787872E+02  0.85443818499E+02  0.10000000000E+01 0.  0.
<mgrwt>
<rscale>  0 0.12499976E+03</rscale>
<asrwt>0</asrwt>
<pdfrwt beam="1">  1        4 0.10443127E-01 0.12499976E+03</pdfrwt>
<pdfrwt beam="2">  1       -4 0.23378026E-01 0.12499976E+03</pdfrwt>
<totfact> 0.19284348E+03</totfact>
</mgrwt>
</event>
<event>
 5    1  0.1430314E-002  0.1249925E+03  0.7818608E-02  0.1235081E+00
          4   -1    0    0  501    0  0.00000000000E+00  0.00000000000E+00  0.73025927698E+02  0.73036970201E+02  0.12700000000E+01 0.  1.
         -4   -1    0    0    0  501 -0.00000000000E+00 -0.00000000000E+00 -0.53462245608E+02  0.53477327957E+02  0.12700000000E+01 0.  1.
         25    2    1    2    0    0  0.00000000000E+00  0.00000000000E+00  0.19563682090E+02  0.12651429816E+03  0.12499251970E+03 0.  0.
    9000005    1    3    3    0    0 -0.69843856457E+01 -0.25146032208E+01  0.72583015972E+02  0.72968480043E+02  0.10000000000E+01 0.  0.
    9000005    1    3    3    0    0  0.69843856457E+01  0.25146032208E+01 -0.53019333883E+02  0.53545818115E+02  0.10000000000E+01 0.  0.
<mgrwt>
<rscale>  0 0.12499252E+03</rscale>
<asrwt>0</asrwt>
<pdfrwt beam="1">  1        4 0.18259747E-01 0.12499252E+03</pdfrwt>
<pdfrwt beam="2">  1       -4 0.13368827E-01 0.12499252E+03</pdfrwt>
<totfact> 0.19756610E+03</totfact>
</mgrwt>
</event>
<event>
 5    1  0.1430314E-002  0.1250023E+03  0.7818608E-02  0.1235066E+00
          4   -1    0    0  501    0  0.00000000000E+00  0.00000000000E+00  0.42953513237E+02  0.42972284084E+02  0.12700000000E+01 0.  1.
         -4   -1    0    0    0  501 -0.00000000000E+00 -0.00000000000E+00 -0.90901599360E+02  0.90910470608E+02  0.12700000000E+01 0.  1.
         25    2    1    2    0    0  0.00000000000E+00  0.00000000000E+00 -0.47948086123E+02  0.13388275469E+03  0.12500229214E+03 0.  0.
    9000005    1    3    3    0    0 -0.14371911734E+02 -0.33313292478E+02  0.30523662742E+02  0.47423847269E+02  0.10000000000E+01 0.  0.
    9000005    1    3    3    0    0  0.14371911734E+02  0.33313292478E+02 -0.78471748866E+02  0.86458907422E+02  0.10000000000E+01 0.  0.
<mgrwt>
<rscale>  0 0.12500229E+03</rscale>
<asrwt>0</asrwt>
<pdfrwt beam="1">  1        4 0.10741834E-01 0.12500229E+03</pdfrwt>
<pdfrwt beam="2">  1       -4 0.22728855E-01 0.12500229E+03</pdfrwt>
<totfact> 0.19356782E+03</totfact>
</mgrwt>
</event>
<event>
 5    1  0.1430314E-002  0.1250028E+03  0.7818608E-02  0.1235065E+00
         -4   -1    0    0    0  501 -0.00000000000E+00  0.00000000000E+00  0.46479804171E+02  0.46497151480E+02  0.12700000000E+01 0. -1.
          4   -1    0    0  501    0  0.00000000000E+00 -0.00000000000E+00 -0.84007813644E+02  0.84017412798E+02  0.12700000000E+01 0. -1.
         25    2    1    2    0    0  0.00000000000E+00  0.00000000000E+00 -0.37528009473E+02  0.13051456428E+03  0.12500279994E+03 0.  0.
    9000005    1    3    3    0    0 -0.41387598984E+02  0.14647541856E+02 -0.65199055176E+02  0.78609163765E+02  0.10000000000E+01 0.  0.
    9000005    1    3    3    0    0  0.41387598984E+02 -0.14647541856E+02  0.27671045703E+02  0.51905400513E+02  0.10000000000E+01 0.  0.
<mgrwt>
<rscale>  0 0.12500280E+03</rscale>
<asrwt>0</asrwt>
<pdfrwt beam="2">  1        4 0.21005321E-01 0.12500280E+03</pdfrwt>
<pdfrwt beam="1">  1       -4 0.11623319E-01 0.12500280E+03</pdfrwt>
<totfact> 0.19535483E+03</totfact>
</mgrwt>
</event>
<event>
 5    1  0.1430314E-002  0.1250015E+03  0.7818608E-02  0.1235067E+00
          4   -1    0    0  501    0  0.00000000000E+00  0.00000000000E+00  0.22167438547E+02  0.22203788679E+02  0.12700000000E+01 0.  1.
         -4   -1    0    0    0  501 -0.00000000000E+00 -0.00000000000E+00 -0.17603686112E+03  0.17604144220E+03  0.12700000000E+01 0.  1.
         25    2    1    2    0    0  0.00000000000E+00  0.00000000000E+00 -0.15386942257E+03  0.19824523088E+03  0.12500148945E+03 0.  0.
    9000005    1    3    3    0    0 -0.39914736324E+02  0.40325140819E+02 -0.11847430634E+03  0.13136386269E+03  0.10000000000E+01 0.  0.
    9000005    1    3    3    0    0  0.39914736324E+02 -0.40325140819E+02 -0.35395116228E+02  0.66881368188E+02  0.10000000000E+01 0.  0.
<mgrwt>
<rscale>  0 0.12500149E+03</rscale>
<asrwt>0</asrwt>
<pdfrwt beam="1">  1        4 0.55469766E-02 0.12500149E+03</pdfrwt>
<pdfrwt beam="2">  1       -4 0.44014328E-01 0.12500149E+03</pdfrwt>
<totfact> 0.16391982E+03</totfact>
</mgrwt>
</event>
<event>
 5    1  0.1430314E-002  0.1250110E+03  0.7818608E-02  0.1235052E+00
          4   -1    0    0  501    0  0.00000000000E+00  0.00000000000E+00  0.11284078227E+03  0.11284792884E+03  0.12700000000E+01 0. -1.
         -4   -1    0    0    0  501 -0.00000000000E+00 -0.00000000000E+00 -0.34603564655E+02  0.34626862214E+02  0.12700000000E+01 0. -1.
         25    2    1    2    0    0  0.00000000000E+00  0.00000000000E+00  0.78237217616E+02  0.14747479105E+03  0.12501100662E+03 0.  0.
    9000005    1    3    3    0    0  0.44915725730E+02 -0.41272170297E+02  0.55169542334E+02  0.82252616130E+02  0.10000000000E+01 0.  0.
    9000005    1    3    3    0    0 -0.44915725730E+02  0.41272170297E+02  0.23067675282E+02  0.65222174924E+02  0.10000000000E+01 0.  0.
<mgrwt>
<rscale>  0 0.12501101E+03</rscale>
<asrwt>0</asrwt>
<pdfrwt beam="1">  1        4 0.28214001E-01 0.12501101E+03</pdfrwt>
<pdfrwt beam="2">  1       -4 0.86546968E-02 0.12501101E+03</pdfrwt>
<totfact> 0.18658865E+03</totfact>
</mgrwt>
</event>
<event>
 5    1  0.1430314E-002  0.1250014E+03  0.7818608E-02  0.1235067E+00
          4   -1    0    0  501    0  0.00000000000E+00  0.00000000000E+00  0.17882498961E+02  0.17927539404E+02  0.12700000000E+01 0. -1.
         -4   -1    0    0    0  501 -0.00000000000E+00 -0.00000000000E+00 -0.21812315284E+03  0.21812685003E+03  0.12700000000E+01 0. -1.
         25    2    1    2    0    0  0.00000000000E+00  0.00000000000E+00 -0.20024065388E+03  0.23605438944E+03  0.12500142122E+03 0.  0.
    9000005    1    3    3    0    0  0.10683474358E+02 -0.54671847844E+02 -0.46634823066E+02  0.72656412611E+02  0.10000000000E+01 0.  0.
    9000005    1    3    3    0    0 -0.10683474358E+02  0.54671847844E+02 -0.15360583082E+03  0.16339797683E+03  0.10000000000E+01 0.  0.
<mgrwt>
<rscale>  0 0.12500142E+03</rscale>
<asrwt>0</asrwt>
<pdfrwt beam="1">  1        4 0.44767176E-02 0.12500142E+03</pdfrwt>
<pdfrwt beam="2">  1       -4 0.54536872E-01 0.12500142E+03</pdfrwt>
<totfact> 0.14972872E+03</totfact>
</mgrwt>
</event>
<event>
 5    1  0.1430314E-002  0.1250050E+03  0.7818608E-02  0.1235061E+00
          4   -1    0    0  501    0  0.00000000000E+00  0.00000000000E+00  0.98659875308E+02  0.98668049012E+02  0.12700000000E+01 0. -1.
         -4   -1    0    0    0  501 -0.00000000000E+00 -0.00000000000E+00 -0.39576285725E+02  0.39596657584E+02  0.12700000000E+01 0. -1.
         25    2    1    2    0    0  0.00000000000E+00  0.00000000000E+00  0.59083589583E+02  0.13826470660E+03  0.12500503403E+03 0.  0.
    9000005    1    3    3    0    0 -0.26242011528E+01 -0.54954810275E+02 -0.32444031205E+01  0.55122080473E+02  0.10000000000E+01 0.  0.
    9000005    1    3    3    0    0  0.26242011528E+01  0.54954810275E+02  0.62327992703E+02  0.83142626122E+02  0.10000000000E+01 0.  0.
<mgrwt>
<rscale>  0 0.12500503E+03</rscale>
<asrwt>0</asrwt>
<pdfrwt beam="1">  1        4 0.24668537E-01 0.12500503E+03</pdfrwt>
<pdfrwt beam="2">  1       -4 0.98976398E-02 0.12500503E+03</pdfrwt>
<totfact> 0.19127226E+03</totfact>
</mgrwt>
</event>
<event>
 5    1  0.1430314E-002  0.1250069E+03  0.7818608E-02  0.1235059E+00
         -4   -1    0    0    0  501 -0.00000000000E+00  0.00000000000E+00  0.17710742188E+02  0.17756218315E+02  0.12700000000E+01 0.  1.
          4   -1    0    0  501    0  0.00000000000E+00 -0.00000000000E+00 -0.22025235759E+03  0.22025601904E+03  0.12700000000E+01 0.  1.
         25    2    1    2    0    0  0.00000000000E+00  0.00000000000E+00 -0.20254161540E+03  0.23801223736E+03  0.12500687646E+03 0.  0.
    9000005    1    3    3    0    0 -0.29646323884E+02 -0.49095012586E+02 -0.14854412472E+03  0.15923436115E+03  0.10000000000E+01 0.  0.
    9000005    1    3    3    0    0  0.29646323884E+02  0.49095012586E+02 -0.53997490684E+02  0.78777876214E+02  0.10000000000E+01 0.  0.
<mgrwt>
<rscale>  0 0.12500688E+03</rscale>
<asrwt>0</asrwt>
<pdfrwt beam="2">  1        4 0.55069223E-01 0.12500688E+03</pdfrwt>
<pdfrwt beam="1">  1       -4 0.44338284E-02 0.12500688E+03</pdfrwt>
<totfact> 0.14902821E+03</totfact>
</mgrwt>
</event>
<event>
 5    1  0.1430314E-002  0.1250149E+03  0.7818608E-02  0.1235046E+00
          4   -1    0    0  501    0  0.00000000000E+00  0.00000000000E+00  0.35622991326E+02  0.35645622606E+02  0.12700000000E+01 0.  1.
         -4   -1    0    0    0  501 -0.00000000000E+00 -0.00000000000E+00 -0.10962026809E+03  0.10962762460E+03  0.12700000000E+01 0.  1.
         25    2    1    2    0    0  0.00000000000E+00  0.00000000000E+00 -0.73997276764E+02  0.14527324721E+03  0.12501487666E+03 0.  0.
    9000005    1    3    3    0    0 -0.53032674224E+02  0.44223220567E+01 -0.75084002114E+02  0.92036019260E+02  0.10000000000E+01 0.  0.
    9000005    1    3    3    0    0  0.53032674224E+02 -0.44223220567E+01  0.10867253504E+01  0.53237227949E+02  0.10000000000E+01 0.  0.
<mgrwt>
<rscale>  0 0.12501488E+03</rscale>
<asrwt>0</asrwt>
<pdfrwt beam="1">  1        4 0.89094965E-02 0.12501488E+03</pdfrwt>
<pdfrwt beam="2">  1       -4 0.27408815E-01 0.12501488E+03</pdfrwt>
<totfact> 0.18767155E+03</totfact>
</mgrwt>
</event>
<event>
 5    1  0.1430314E-002  0.1250006E+03  0.7818608E-02  0.1235068E+00
          4   -1    0    0  501    0  0.00000000000E+00  0.00000000000E+00  0.43885305236E+02  0.43903677701E+02  0.12700000000E+01 0.  1.
         -4   -1    0    0    0  501 -0.00000000000E+00 -0.00000000000E+00 -0.88969762566E+02  0.88978826420E+02  0.12700000000E+01 0.  1.
         25    2    1    2    0    0  0.00000000000E+00  0.00000000000E+00 -0.45084457330E+02  0.13288250412E+03  0.12500060643E+03 0.  0.
    9000005    1    3    3    0    0 -0.21696419604E+02 -0.74086634111E+01  0.39258345475E+02  0.45473515441E+02  0.10000000000E+01 0.  0.
    9000005    1    3    3    0    0  0.21696419604E+02  0.74086634111E+01 -0.84342802804E+02  0.87408988680E+02  0.10000000000E+01 0.  0.
<mgrwt>
<rscale>  0 0.12500061E+03</rscale>
<asrwt>0</asrwt>
<pdfrwt beam="1">  1        4 0.10974756E-01 0.12500061E+03</pdfrwt>
<pdfrwt beam="2">  1       -4 0.22245870E-01 0.12500061E+03</pdfrwt>
<totfact> 0.19410358E+03</totfact>
</mgrwt>
</event>
<event>
 5    1  0.1430314E-002  0.1250008E+03  0.7818608E-02  0.1235068E+00
          4   -1    0    0  501    0  0.00000000000E+00  0.00000000000E+00  0.10310017000E+02  0.10387942555E+02  0.12700000000E+01 0. -1.
         -4   -1    0    0    0  501 -0.00000000000E+00 -0.00000000000E+00 -0.37737828953E+03  0.37738042651E+03  0.12700000000E+01 0. -1.
         25    2    1    2    0    0  0.00000000000E+00  0.00000000000E+00 -0.36706827253E+03  0.38776836906E+03  0.12500076538E+03 0.  0.
    9000005    1    3    3    0    0  0.26802185406E+02 -0.30831800791E+02 -0.33023365765E+03  0.33275249920E+03  0.10000000000E+01 0.  0.
    9000005    1    3    3    0    0 -0.26802185406E+02  0.30831800791E+02 -0.36834614883E+02  0.55015869857E+02  0.10000000000E+01 0.  0.
<mgrwt>
<rscale>  0 0.12500077E+03</rscale>
<asrwt>0</asrwt>
<pdfrwt beam="1">  1        4 0.25875133E-02 0.12500077E+03</pdfrwt>
<pdfrwt beam="2">  1       -4 0.94354534E-01 0.12500077E+03</pdfrwt>
<totfact> 0.10825380E+03</totfact>
</mgrwt>
</event>
<event>
 5    1  0.1430314E-002  0.1250019E+03  0.7818608E-02  0.1235066E+00
         -4   -1    0    0    0  501 -0.00000000000E+00  0.00000000000E+00  0.46239183072E+02  0.46256620620E+02  0.12700000000E+01 0.  1.
          4   -1    0    0  501    0  0.00000000000E+00 -0.00000000000E+00 -0.84443684832E+02  0.84453234444E+02  0.12700000000E+01 0.  1.
         25    2    1    2    0    0  0.00000000000E+00  0.00000000000E+00 -0.38204501760E+02  0.13070985506E+03  0.12500192901E+03 0.  0.
    9000005    1    3    3    0    0  0.36016429605E+02 -0.45615732181E+02  0.49114184983E+01  0.58336097364E+02  0.10000000000E+01 0.  0.
    9000005    1    3    3    0    0 -0.36016429605E+02  0.45615732181E+02 -0.43115920259E+02  0.72373757701E+02  0.10000000000E+01 0.  0.
<mgrwt>
<rscale>  0 0.12500193E+03</rscale>
<asrwt>0</asrwt>
<pdfrwt beam="2">  1        4 0.21114294E-01 0.12500193E+03</pdfrwt>
<pdfrwt beam="1">  1       -4 0.11563169E-01 0.12500193E+03</pdfrwt>
<totfact> 0.19525418E+03</totfact>
</mgrwt>
</event>
<event>
 5    1  0.1430314E-002  0.1250004E+03  0.7818608E-02  0.1235069E+00
         -4   -1    0    0    0  501 -0.00000000000E+00  0.00000000000E+00  0.15132544042E+02  0.15185742958E+02  0.12700000000E+01 0. -1.
          4   -1    0    0  501    0  0.00000000000E+00 -0.00000000000E+00 -0.25762957874E+03  0.25763270899E+03  0.12700000000E+01 0. -1.
         25    2    1    2    0    0  0.00000000000E+00  0.00000000000E+00 -0.24249703470E+03  0.27281845195E+03  0.12500038355E+03 0.  0.
    9000005    1    3    3    0    0  0.54502027624E+02 -0.29901511754E+02 -0.13517281222E+03  0.14878595560E+03  0.10000000000E+01 0.  0.
    9000005    1    3    3    0    0 -0.54502027624E+02  0.29901511754E+02 -0.10732422249E+03  0.12403249636E+03  0.10000000000E+01 0.  0.
<mgrwt>
<rscale>  0 0.12500038E+03</rscale>
<asrwt>0</asrwt>
<pdfrwt beam="2">  1        4 0.64414422E-01 0.12500038E+03</pdfrwt>
<pdfrwt beam="1">  1       -4 0.37901780E-02 0.12500038E+03</pdfrwt>
<totfact> 0.13768468E+03</totfact>
</mgrwt>
</event>
<event>
 5    1  0.1430314E-002  0.1250047E+03  0.7818608E-02  0.1235062E+00
         -4   -1    0    0    0  501 -0.00000000000E+00  0.00000000000E+00  0.56603284858E+02  0.56617530472E+02  0.12700000000E+01 0. -1.
          4   -1    0    0  501    0  0.00000000000E+00 -0.00000000000E+00 -0.68987391392E+02  0.68999080219E+02  0.12700000000E+01 0. -1.
         25    2    1    2    0    0  0.00000000000E+00  0.00000000000E+00 -0.12384106533E+02  0.12561661069E+03  0.12500466706E+03 0.  0.
    9000005    1    3    3    0    0  0.45095563428E+02  0.41043294947E+02 -0.19947738333E+02  0.64164430689E+02  0.10000000000E+01 0.  0.
    9000005    1    3    3    0    0 -0.45095563428E+02 -0.41043294947E+02  0.75636317998E+01  0.61452180002E+02  0.10000000000E+01 0.  0.
<mgrwt>
<rscale>  0 0.12500467E+03</rscale>
<asrwt>0</asrwt>
<pdfrwt beam="2">  1        4 0.17250090E-01 0.12500467E+03</pdfrwt>
<pdfrwt beam="1">  1       -4 0.14154063E-01 0.12500467E+03</pdfrwt>
<totfact> 0.19799490E+03</totfact>
</mgrwt>
</event>
<event>
 5    1  0.1430314E-002  0.1250001E+03  0.7818608E-02  0.1235069E+00
         -4   -1    0    0    0  501 -0.00000000000E+00  0.00000000000E+00  0.12752355263E+03  0.12752987640E+03  0.12700000000E+01 0. -1.
          4   -1    0    0  501    0  0.00000000000E+00 -0.00000000000E+00 -0.30611394679E+02  0.30637728117E+02  0.12700000000E+01 0. -1.
         25    2    1    2    0    0  0.00000000000E+00  0.00000000000E+00  0.96912157950E+02  0.15816760452E+03  0.12500009904E+03 0.  0.
    9000005    1    3    3    0    0  0.29186679633E+02  0.84488602826E+01  0.11755349035E+03  0.12142103854E+03  0.10000000000E+01 0.  0.
    9000005    1    3    3    0    0 -0.29186679633E+02 -0.84488602826E+01 -0.20641332396E+02  0.36746565977E+02  0.10000000000E+01 0.  0.
<mgrwt>
<rscale>  0 0.12500010E+03</rscale>
<asrwt>0</asrwt>
<pdfrwt beam="2">  1        4 0.76569310E-02 0.12500010E+03</pdfrwt>
<pdfrwt beam="1">  1       -4 0.31884970E-01 0.12500010E+03</pdfrwt>
<totfact> 0.18144290E+03</totfact>
</mgrwt>
</event>
<event>
 5    1  0.1430314E-002  0.1249927E+03  0.7818608E-02  0.1235081E+00
          4   -1    0    0  501    0  0.00000000000E+00  0.00000000000E+00  0.10761995111E+03  0.10762744435E+03  0.12700000000E+01 0.  1.
         -4   -1    0    0    0  501 -0.00000000000E+00 -0.00000000000E+00 -0.36272620903E+02  0.36294847116E+02  0.12700000000E+01 0.  1.
         25    2    1    2    0    0  0.00000000000E+00  0.00000000000E+00  0.71347330208E+02  0.14392229146E+03  0.12499273760E+03 0.  0.
    9000005    1    3    3    0    0  0.45628835571E+02 -0.13363908428E+01 -0.13462424099E+02  0.47602662096E+02  0.10000000000E+01 0.  0.
    9000005    1    3    3    0    0 -0.45628835571E+02  0.13363908428E+01  0.84809754307E+02  0.96319629369E+02  0.10000000000E+01 0.  0.
<mgrwt>
<rscale>  0 0.12499274E+03</rscale>
<asrwt>0</asrwt>
<pdfrwt beam="1">  1        4 0.26908703E-01 0.12499274E+03</pdfrwt>
<pdfrwt beam="2">  1       -4 0.90718702E-02 0.12499274E+03</pdfrwt>
<totfact> 0.18844639E+03</totfact>
</mgrwt>
</event>
<event>
 5    1  0.1430314E-002  0.1249995E+03  0.7818608E-02  0.1235070E+00
         -4   -1    0    0    0  501 -0.00000000000E+00  0.00000000000E+00  0.40559043574E+02  0.40578922061E+02  0.12700000000E+01 0. -1.
          4   -1    0    0  501    0  0.00000000000E+00 -0.00000000000E+00 -0.96261740016E+02  0.96270117331E+02  0.12700000000E+01 0. -1.
         25    2    1    2    0    0  0.00000000000E+00  0.00000000000E+00 -0.55702696442E+02  0.13684903939E+03  0.12499947677E+03 0.  0.
    9000005    1    3    3    0    0  0.37955015276E+02 -0.46958705429E+02 -0.45487914540E+02  0.75603264277E+02  0.10000000000E+01 0.  0.
    9000005    1    3    3    0    0 -0.37955015276E+02  0.46958705429E+02 -0.10214781903E+02  0.61245775115E+02  0.10000000000E+01 0.  0.
<mgrwt>
<rscale>  0 0.12499948E+03</rscale>
<asrwt>0</asrwt>
<pdfrwt beam="2">  1        4 0.24068967E-01 0.12499948E+03</pdfrwt>
<pdfrwt beam="1">  1       -4 0.10143293E-01 0.12499948E+03</pdfrwt>
<totfact> 0.19202954E+03</totfact>
</mgrwt>
</event>
<event>
 5    1  0.1430314E-002  0.1249981E+03  0.7818608E-02  0.1235072E+00
          4   -1    0    0  501    0  0.00000000000E+00  0.00000000000E+00  0.17666931378E+02  0.17712519988E+02  0.12700000000E+01 0. -1.
         -4   -1    0    0    0  501 -0.00000000000E+00 -0.00000000000E+00 -0.22076621879E+03  0.22076987172E+03  0.12700000000E+01 0. -1.
         25    2    1    2    0    0  0.00000000000E+00  0.00000000000E+00 -0.20309928741E+03  0.23848239171E+03  0.12499812241E+03 0.  0.
    9000005    1    3    3    0    0 -0.13625190903E+02 -0.18241803483E+02 -0.21258024586E+03  0.21379843346E+03  0.10000000000E+01 0.  0.
    9000005    1    3    3    0    0  0.13625190903E+02  0.18241803483E+02  0.94809584483E+01  0.24683958243E+02  0.10000000000E+01 0.  0.
<mgrwt>
<rscale>  0 0.12499812E+03</rscale>
<asrwt>0</asrwt>
<pdfrwt beam="1">  1        4 0.44228887E-02 0.12499812E+03</pdfrwt>
<pdfrwt beam="2">  1       -4 0.55197701E-01 0.12499812E+03</pdfrwt>
<totfact> 0.14889524E+03</totfact>
</mgrwt>
</event>
<event>
 5    1  0.1430314E-002  0.1250032E+03  0.7818608E-02  0.1235064E+00
         -4   -1    0    0    0  501 -0.00000000000E+00  0.00000000000E+00  0.24068147032E+03  0.24068482099E+03  0.12700000000E+01 0. -1.
          4   -1    0    0  501    0  0.00000000000E+00 -0.00000000000E+00 -0.16202469221E+02  0.16252166282E+02  0.12700000000E+01 0. -1.
         25    2    1    2    0    0  0.00000000000E+00  0.00000000000E+00  0.22447900110E+03  0.25693698728E+03  0.12500317394E+03 0.  0.
    9000005    1    3    3    0    0 -0.23256112837E+02  0.42725751739E+01 -0.66630179910E+01  0.24586530696E+02  0.10000000000E+01 0.  0.
    9000005    1    3    3    0    0  0.23256112837E+02 -0.42725751739E+01  0.23114201909E+03  0.23235045658E+03  0.10000000000E+01 0.  0.
<mgrwt>
<rscale>  0 0.12500317E+03</rscale>
<asrwt>0</asrwt>
<pdfrwt beam="2">  1        4 0.40572484E-02 0.12500317E+03</pdfrwt>
<pdfrwt beam="1">  1       -4 0.60176997E-01 0.12500317E+03</pdfrwt>
<totfact> 0.14268998E+03</totfact>
</mgrwt>
</event>
<event>
 5    1  0.1430314E-002  0.1249401E+03  0.7818608E-02  0.1235163E+00
         -4   -1    0    0    0  501 -0.00000000000E+00  0.00000000000E+00  0.18641282981E+02  0.18684494405E+02  0.12700000000E+01 0. -1.
          4   -1    0    0  501    0  0.00000000000E+00 -0.00000000000E+00 -0.20906001593E+03  0.20906387340E+03  0.12700000000E+01 0. -1.
         25    2    1    2    0    0  0.00000000000E+00  0.00000000000E+00 -0.19041873295E+03  0.22774836781E+03  0.12494008636E+03 0.  0.
    9000005    1    3    3    0    0 -0.44288606614E+01  0.62211062485E+02 -0.10143789561E+03  0.11908181124E+03  0.10000000000E+01 0.  0.
    9000005    1    3    3    0    0  0.44288606614E+01 -0.62211062485E+02 -0.88980837345E+02  0.10866655657E+03  0.10000000000E+01 0.  0.
<mgrwt>
<rscale>  0 0.12494009E+03</rscale>
<asrwt>0</asrwt>
<pdfrwt beam="2">  1        4 0.52270880E-01 0.12494009E+03</pdfrwt>
<pdfrwt beam="1">  1       -4 0.46662050E-02 0.12494009E+03</pdfrwt>
<totfact> 0.15289214E+03</totfact>
</mgrwt>
</event>
<event>
 4    1  0.1430314E-002  0.1248119E+03  0.7818608E-02  0.1235364E+00
         -4   -1    0    0    0  501 -0.00000000000E+00  0.00000000000E+00  0.97444009925E+02  0.97452285608E+02  0.12700000000E+01 0.  1.
          4   -1    0    0  501    0  0.00000000000E+00 -0.00000000000E+00 -0.39946477795E+02  0.39966660959E+02  0.12700000000E+01 0.  1.
    9000005    1    1    2    0    0 -0.13696033846E+02 -0.47847425955E+02 -0.12689882571E+02  0.51371106989E+02  0.10000000000E+01 0.  0.
    9000005    1    1    2    0    0  0.13696033846E+02  0.47847425955E+02  0.70187414701E+02  0.86047839578E+02  0.10000000000E+01 0.  0.
<mgrwt>
<rscale>  0 0.12481186E+03</rscale>
<asrwt>0</asrwt>
<pdfrwt beam="2">  1        4 0.99901769E-02 0.12481186E+03</pdfrwt>
<pdfrwt beam="1">  1       -4 0.24364560E-01 0.12481186E+03</pdfrwt>
<totfact> 0.19257556E+03</totfact>
</mgrwt>
</event>
<event>
 5    1  0.1430314E-002  0.1250085E+03  0.7818608E-02  0.1235056E+00
          4   -1    0    0  501    0  0.00000000000E+00  0.00000000000E+00  0.13674607251E+04  0.13674613149E+04  0.12700000000E+01 0.  1.
         -4   -1    0    0    0  501 -0.00000000000E+00 -0.00000000000E+00 -0.27152038236E+01  0.29975376234E+01  0.12700000000E+01 0.  1.
         25    2    1    2    0    0  0.00000000000E+00  0.00000000000E+00  0.13647455213E+04  0.13704588525E+04  0.12500851354E+03 0.  0.
    9000005    1    3    3    0    0 -0.44634014778E+01 -0.39335813216E+02  0.15222112316E+03  0.15728794770E+03  0.10000000000E+01 0.  0.
    9000005    1    3    3    0    0  0.44634014778E+01  0.39335813216E+02  0.12125243981E+04  0.12131709048E+04  0.10000000000E+01 0.  0.
<mgrwt>
<rscale>  0 0.12500851E+03</rscale>
<asrwt>0</asrwt>
<pdfrwt beam="1">  1        4 0.34190099E+00 0.12500851E+03</pdfrwt>
<pdfrwt beam="2">  1       -4 0.71416548E-03 0.12500851E+03</pdfrwt>
<totfact> 0.17267158E+02</totfact>
</mgrwt>
</event>
<event>
 5    1  0.1430314E-002  0.1249923E+03  0.7818608E-02  0.1235081E+00
          4   -1    0    0  501    0  0.00000000000E+00  0.00000000000E+00  0.44658301067E+02  0.44676355650E+02  0.12700000000E+01 0. -1.
         -4   -1    0    0    0  501 -0.00000000000E+00 -0.00000000000E+00 -0.87418555047E+02  0.87427779719E+02  0.12700000000E+01 0. -1.
         25    2    1    2    0    0  0.00000000000E+00  0.00000000000E+00 -0.42760253980E+02  0.13210413537E+03  0.12499225280E+03 0.  0.
    9000005    1    3    3    0    0  0.53993847366E+02  0.25991653454E+02 -0.40104367760E+02  0.72112841548E+02  0.10000000000E+01 0.  0.
    9000005    1    3    3    0    0 -0.53993847366E+02 -0.25991653454E+02 -0.26558862200E+01  0.59991293821E+02  0.10000000000E+01 0.  0.
<mgrwt>
<rscale>  0 0.12499225E+03</rscale>
<asrwt>0</asrwt>
<pdfrwt beam="1">  1        4 0.11167985E-01 0.12499225E+03</pdfrwt>
<pdfrwt beam="2">  1       -4 0.21858048E-01 0.12499225E+03</pdfrwt>
<totfact> 0.19455436E+03</totfact>
</mgrwt>
</event>
<event>
 5    1  0.1430314E-002  0.1250353E+03  0.7818608E-02  0.1235014E+00
         -4   -1    0    0    0  501 -0.00000000000E+00  0.00000000000E+00  0.16479072802E+03  0.16479562173E+03  0.12700000000E+01 0. -1.
          4   -1    0    0  501    0  0.00000000000E+00 -0.00000000000E+00 -0.23695440598E+02  0.23729450165E+02  0.12700000000E+01 0. -1.
         25    2    1    2    0    0  0.00000000000E+00  0.00000000000E+00  0.14109528743E+03  0.18852507190E+03  0.12503528542E+03 0.  0.
    9000005    1    3    3    0    0  0.30968529107E+02 -0.54198240456E+02  0.65556797805E+02  0.90527304180E+02  0.10000000000E+01 0.  0.
    9000005    1    3    3    0    0 -0.30968529107E+02  0.54198240456E+02  0.75538489621E+02  0.97997767718E+02  0.10000000000E+01 0.  0.
<mgrwt>
<rscale>  0 0.12503529E+03</rscale>
<asrwt>0</asrwt>
<pdfrwt beam="2">  1        4 0.59287232E-02 0.12503529E+03</pdfrwt>
<pdfrwt beam="1">  1       -4 0.41202544E-01 0.12503529E+03</pdfrwt>
<totfact> 0.16778356E+03</totfact>
</mgrwt>
</event>
<event>
 5    1  0.1430314E-002  0.1250575E+03  0.7818608E-02  0.1234979E+00
         -4   -1    0    0    0  501 -0.00000000000E+00  0.00000000000E+00  0.31750004439E+02  0.31775394284E+02  0.12700000000E+01 0. -1.
          4   -1    0    0  501    0  0.00000000000E+00 -0.00000000000E+00 -0.12306676101E+03  0.12307331379E+03  0.12700000000E+01 0. -1.
         25    2    1    2    0    0  0.00000000000E+00  0.00000000000E+00 -0.91316756575E+02  0.15484870807E+03  0.12505747623E+03 0.  0.
    9000005    1    3    3    0    0 -0.41242083378E+01 -0.27565251272E+02 -0.11495437940E+03  0.11828931277E+03  0.10000000000E+01 0.  0.
    9000005    1    3    3    0    0  0.41242083378E+01  0.27565251272E+02  0.23637622824E+02  0.36559395303E+02  0.10000000000E+01 0.  0.
<mgrwt>
<rscale>  0 0.12505748E+03</rscale>
<asrwt>0</asrwt>
<pdfrwt beam="2">  1        4 0.30770682E-01 0.12505748E+03</pdfrwt>
<pdfrwt beam="1">  1       -4 0.79414942E-02 0.12505748E+03</pdfrwt>
<totfact> 0.18278466E+03</totfact>
</mgrwt>
</event>
<event>
 5    1  0.1430314E-002  0.1249986E+03  0.7818608E-02  0.1235072E+00
          4   -1    0    0  501    0  0.00000000000E+00  0.00000000000E+00  0.56826928576E+03  0.56827070489E+03  0.12700000000E+01 0. -1.
         -4   -1    0    0    0  501 -0.00000000000E+00 -0.00000000000E+00 -0.68136831681E+01  0.69310301049E+01  0.12700000000E+01 0. -1.
         25    2    1    2    0    0  0.00000000000E+00  0.00000000000E+00  0.56145560259E+03  0.57520173500E+03  0.12499856904E+03 0.  0.
    9000005    1    3    3    0    0  0.26359214014E+02 -0.30460287604E+02  0.60879682396E+02  0.73006664168E+02  0.10000000000E+01 0.  0.
    9000005    1    3    3    0    0 -0.26359214014E+02  0.30460287604E+02  0.50057592020E+03  0.50219507083E+03  0.10000000000E+01 0.  0.
<mgrwt>
<rscale>  0 0.12499857E+03</rscale>
<asrwt>0</asrwt>
<pdfrwt beam="1">  1        4 0.14208217E+00 0.12499857E+03</pdfrwt>
<pdfrwt beam="2">  1       -4 0.17182665E-02 0.12499857E+03</pdfrwt>
<totfact> 0.76716908E+02</totfact>
</mgrwt>
</event>
<event>
 5    1  0.1430314E-002  0.1250012E+03  0.7818608E-02  0.1235067E+00
         -4   -1    0    0    0  501 -0.00000000000E+00  0.00000000000E+00  0.51945576532E+01  0.53475535726E+01  0.12700000000E+01 0. -1.
          4   -1    0    0  501    0  0.00000000000E+00 -0.00000000000E+00 -0.74093672665E+03  0.74093781507E+03  0.12700000000E+01 0. -1.
         25    2    1    2    0    0  0.00000000000E+00  0.00000000000E+00 -0.73574216900E+03  0.74628536865E+03  0.12500124883E+03 0.  0.
    9000005    1    3    3    0    0  0.10171443868E+02 -0.48686185495E+02 -0.14198469572E+03  0.15044752157E+03  0.10000000000E+01 0.  0.
    9000005    1    3    3    0    0 -0.10171443868E+02  0.48686185495E+02 -0.59375747328E+03  0.59583784707E+03  0.10000000000E+01 0.  0.
<mgrwt>
<rscale>  0 0.12500125E+03</rscale>
<asrwt>0</asrwt>
<pdfrwt beam="2">  1        4 0.18525309E+00 0.12500125E+03</pdfrwt>
<pdfrwt beam="1">  1       -4 0.13179025E-02 0.12500125E+03</pdfrwt>
<totfact> 0.57424727E+02</totfact>
</mgrwt>
</event>
<event>
 5    1  0.1430314E-002  0.1250059E+03  0.7818608E-02  0.1235060E+00
          4   -1    0    0  501    0  0.00000000000E+00  0.00000000000E+00  0.36930950655E+03  0.36931169021E+03  0.12700000000E+01 0. -1.
         -4   -1    0    0    0  501 -0.00000000000E+00 -0.00000000000E+00 -0.10537820273E+02  0.10614073492E+02  0.12700000000E+01 0. -1.
         25    2    1    2    0    0  0.00000000000E+00  0.00000000000E+00  0.35877168628E+03  0.37992576371E+03  0.12500585208E+03 0.  0.
    9000005    1    3    3    0    0  0.60985174521E+02  0.73713269065E+01  0.14445575030E+03  0.15697767920E+03  0.10000000000E+01 0.  0.
    9000005    1    3    3    0    0 -0.60985174521E+02 -0.73713269065E+01  0.21431593598E+03  0.22294808451E+03  0.10000000000E+01 0.  0.
<mgrwt>
<rscale>  0 0.12500585E+03</rscale>
<asrwt>0</asrwt>
<pdfrwt beam="1">  1        4 0.92337177E-01 0.12500585E+03</pdfrwt>
<pdfrwt beam="2">  1       -4 0.26442598E-02 0.12500585E+03</pdfrwt>
<totfact> 0.10993260E+03</totfact>
</mgrwt>
</event>
<event>
 5    1  0.1430314E-002  0.1249936E+03  0.7818608E-02  0.1235079E+00
         -4   -1    0    0    0  501 -0.00000000000E+00  0.00000000000E+00  0.56752341526E+02  0.56766549734E+02  0.12700000000E+01 0. -1.
          4   -1    0    0  501    0  0.00000000000E+00 -0.00000000000E+00 -0.68794065880E+02  0.68805787550E+02  0.12700000000E+01 0. -1.
         25    2    1    2    0    0  0.00000000000E+00  0.00000000000E+00 -0.12041724354E+02  0.12557233728E+03  0.12499363490E+03 0.  0.
    9000005    1    3    3    0    0  0.14704283936E+02 -0.49429288086E+02 -0.41474215658E+02  0.66185958112E+02  0.10000000000E+01 0.  0.
    9000005    1    3    3    0    0 -0.14704283936E+02  0.49429288086E+02  0.29432491304E+02  0.59386379172E+02  0.10000000000E+01 0.  0.
<mgrwt>
<rscale>  0 0.12499363E+03</rscale>
<asrwt>0</asrwt>
<pdfrwt beam="2">  1        4 0.17201758E-01 0.12499363E+03</pdfrwt>
<pdfrwt beam="1">  1       -4 0.14191327E-01 0.12499363E+03</pdfrwt>
<totfact> 0.19806997E+03</totfact>
</mgrwt>
</event>
<event>
 5    1  0.1430314E-002  0.1249988E+03  0.7818608E-02  0.1235071E+00
         -4   -1    0    0    0  501 -0.00000000000E+00  0.00000000000E+00  0.86915061331E+02  0.86924339435E+02  0.12700000000E+01 0. -1.
          4   -1    0    0  501    0  0.00000000000E+00 -0.00000000000E+00 -0.44921810838E+02  0.44939759556E+02  0.12700000000E+01 0. -1.
         25    2    1    2    0    0  0.00000000000E+00  0.00000000000E+00  0.41993250493E+02  0.13186409899E+03  0.12499883006E+03 0.  0.
    9000005    1    3    3    0    0 -0.37251266543E+02 -0.79736070600E+01 -0.31261368895E+02  0.49290044165E+02  0.10000000000E+01 0.  0.
    9000005    1    3    3    0    0  0.37251266543E+02  0.79736070600E+01  0.73254619389E+02  0.82574054826E+02  0.10000000000E+01 0.  0.
<mgrwt>
<rscale>  0 0.12499883E+03</rscale>
<asrwt>0</asrwt>
<pdfrwt beam="2">  1        4 0.11233856E-01 0.12499883E+03</pdfrwt>
<pdfrwt beam="1">  1       -4 0.21732168E-01 0.12499883E+03</pdfrwt>
<totfact> 0.19465216E+03</totfact>
</mgrwt>
</event>
<event>
 4    1  0.1430314E-002  0.1275605E+03  0.7818608E-02  0.1231121E+00
          4   -1    0    0  501    0  0.00000000000E+00  0.00000000000E+00  0.25279626137E+02  0.25311507218E+02  0.12700000000E+01 0. -1.
         -4   -1    0    0    0  501 -0.00000000000E+00 -0.00000000000E+00 -0.16078116101E+03  0.16078617676E+03  0.12700000000E+01 0. -1.
    9000005    1    1    2    0    0  0.25166575077E+02  0.52649179172E+02 -0.10527671451E+03  0.12037225256E+03  0.10000000000E+01 0.  0.
    9000005    1    1    2    0    0 -0.25166575077E+02 -0.52649179172E+02 -0.30224820365E+02  0.65725431415E+02  0.10000000000E+01 0.  0.
<mgrwt>
<rscale>  0 0.12756050E+03</rscale>
<asrwt>0</asrwt>
<pdfrwt beam="1">  1        4 0.63245191E-02 0.12756050E+03</pdfrwt>
<pdfrwt beam="2">  1       -4 0.40199899E-01 0.12756050E+03</pdfrwt>
<totfact> 0.15929741E+03</totfact>
</mgrwt>
</event>
<event>
 5    1  0.1430314E-002  0.1250039E+03  0.7818608E-02  0.1235063E+00
          4   -1    0    0  501    0  0.00000000000E+00  0.00000000000E+00  0.68896942310E+02  0.68908646480E+02  0.12700000000E+01 0. -1.
         -4   -1    0    0    0  501 -0.00000000000E+00 -0.00000000000E+00 -0.56676922930E+02  0.56691150040E+02  0.12700000000E+01 0. -1.
         25    2    1    2    0    0  0.00000000000E+00  0.00000000000E+00  0.12220019380E+02  0.12559979652E+03  0.12500391999E+03 0.  0.
    9000005    1    3    3    0    0 -0.46515231227E+02  0.41699512976E+02  0.78441815524E+01  0.62968621573E+02  0.10000000000E+01 0.  0.
    9000005    1    3    3    0    0  0.46515231227E+02 -0.41699512976E+02  0.43758378274E+01  0.62631174947E+02  0.10000000000E+01 0.  0.
<mgrwt>
<rscale>  0 0.12500392E+03</rscale>
<asrwt>0</asrwt>
<pdfrwt beam="1">  1        4 0.17227477E-01 0.12500392E+03</pdfrwt>
<pdfrwt beam="2">  1       -4 0.14172472E-01 0.12500392E+03</pdfrwt>
<totfact> 0.19800746E+03</totfact>
</mgrwt>
</event>
<event>
 5    1  0.1430314E-002  0.1250048E+03  0.7818608E-02  0.1235062E+00
         -4   -1    0    0    0  501 -0.00000000000E+00  0.00000000000E+00  0.15054369520E+03  0.15054905202E+03  0.12700000000E+01 0. -1.
          4   -1    0    0  501    0  0.00000000000E+00 -0.00000000000E+00 -0.25928261805E+02  0.25959346298E+02  0.12700000000E+01 0. -1.
         25    2    1    2    0    0  0.00000000000E+00  0.00000000000E+00  0.12461543339E+03  0.17650839832E+03  0.12500483365E+03 0.  0.
    9000005    1    3    3    0    0  0.32568588165E+02 -0.30469462291E+02  0.49363353198E+00  0.44613279878E+02  0.10000000000E+01 0.  0.
    9000005    1    3    3    0    0 -0.32568588165E+02  0.30469462291E+02  0.12412179986E+03  0.13189511844E+03  0.10000000000E+01 0.  0.
<mgrwt>
<rscale>  0 0.12500483E+03</rscale>
<asrwt>0</asrwt>
<pdfrwt beam="2">  1        4 0.64866207E-02 0.12500483E+03</pdfrwt>
<pdfrwt beam="1">  1       -4 0.37640478E-01 0.12500483E+03</pdfrwt>
<totfact> 0.17305484E+03</totfact>
</mgrwt>
</event>
<event>
 5    1  0.1430314E-002  0.1249994E+03  0.7818608E-02  0.1235070E+00
          4   -1    0    0  501    0  0.00000000000E+00  0.00000000000E+00  0.11088268687E+02  0.11160761734E+02  0.12700000000E+01 0.  1.
         -4   -1    0    0    0  501 -0.00000000000E+00 -0.00000000000E+00 -0.35106171212E+03  0.35106400929E+03  0.12700000000E+01 0.  1.
         25    2    1    2    0    0  0.00000000000E+00  0.00000000000E+00 -0.33997344344E+03  0.36222477102E+03  0.12499937000E+03 0.  0.
    9000005    1    3    3    0    0  0.33226425973E+02 -0.15057835044E+02 -0.22953722037E+02  0.43111566134E+02  0.10000000000E+01 0.  0.
    9000005    1    3    3    0    0 -0.33226425973E+02  0.15057835044E+02 -0.31701972140E+03  0.31911320489E+03  0.10000000000E+01 0.  0.
<mgrwt>
<rscale>  0 0.12499937E+03</rscale>
<asrwt>0</asrwt>
<pdfrwt beam="1">  1        4 0.27814171E-02 0.12499937E+03</pdfrwt>
<pdfrwt beam="2">  1       -4 0.87774740E-01 0.12499937E+03</pdfrwt>
<totfact> 0.11391256E+03</totfact>
</mgrwt>
</event>
<event>
 5    1  0.1430314E-002  0.1250004E+03  0.7818608E-02  0.1235069E+00
         -4   -1    0    0    0  501 -0.00000000000E+00  0.00000000000E+00  0.23997147876E+03  0.23997483935E+03  0.12700000000E+01 0. -1.
          4   -1    0    0  501    0  0.00000000000E+00 -0.00000000000E+00 -0.16249816794E+02  0.16299369492E+02  0.12700000000E+01 0. -1.
         25    2    1    2    0    0  0.00000000000E+00  0.00000000000E+00  0.22372166197E+03  0.25627420884E+03  0.12500035233E+03 0.  0.
    9000005    1    3    3    0    0  0.13064394828E+02  0.54914984212E+02  0.56889099138E+02  0.80148009982E+02  0.10000000000E+01 0.  0.
    9000005    1    3    3    0    0 -0.13064394828E+02 -0.54914984212E+02  0.16683256283E+03  0.17612619886E+03  0.10000000000E+01 0.  0.
<mgrwt>
<rscale>  0 0.12500035E+03</rscale>
<asrwt>0</asrwt>
<pdfrwt beam="2">  1        4 0.40690684E-02 0.12500035E+03</pdfrwt>
<pdfrwt beam="1">  1       -4 0.59999483E-01 0.12500035E+03</pdfrwt>
<totfact> 0.14291461E+03</totfact>
</mgrwt>
</event>
<event>
 5    1  0.1430314E-002  0.1250376E+03  0.7818608E-02  0.1235010E+00
          4   -1    0    0  501    0  0.00000000000E+00  0.00000000000E+00  0.64546053622E+02  0.64558546593E+02  0.12700000000E+01 0. -1.
         -4   -1    0    0    0  501 -0.00000000000E+00 -0.00000000000E+00 -0.60530241286E+02  0.60543562913E+02  0.12700000000E+01 0. -1.
         25    2    1    2    0    0  0.00000000000E+00  0.00000000000E+00  0.40158123355E+01  0.12510210951E+03  0.12503763855E+03 0.  0.
    9000005    1    3    3    0    0 -0.49729810861E+02 -0.35266225880E+02  0.15829586207E+02  0.62994734507E+02  0.10000000000E+01 0.  0.
    9000005    1    3    3    0    0  0.49729810861E+02  0.35266225880E+02 -0.11813773872E+02  0.62107374999E+02  0.10000000000E+01 0.  0.
<mgrwt>
<rscale>  0 0.12503764E+03</rscale>
<asrwt>0</asrwt>
<pdfrwt beam="1">  1        4 0.16139740E-01 0.12503764E+03</pdfrwt>
<pdfrwt beam="2">  1       -4 0.15135787E-01 0.12503764E+03</pdfrwt>
<totfact> 0.19812065E+03</totfact>
</mgrwt>
</event>
<event>
 5    1  0.1430314E-002  0.1249986E+03  0.7818608E-02  0.1235071E+00
          4   -1    0    0  501    0  0.00000000000E+00  0.00000000000E+00  0.50407222810E+02  0.50423218971E+02  0.12700000000E+01 0.  1.
         -4   -1    0    0    0  501 -0.00000000000E+00 -0.00000000000E+00 -0.77458599368E+02  0.77469010037E+02  0.12700000000E+01 0.  1.
         25    2    1    2    0    0  0.00000000000E+00  0.00000000000E+00 -0.27051376558E+02  0.12789222901E+03  0.12499858106E+03 0.  0.
    9000005    1    3    3    0    0 -0.14601835938E+02 -0.58719266062E+02  0.24562695139E+01  0.60565659243E+02  0.10000000000E+01 0.  0.
    9000005    1    3    3    0    0  0.14601835938E+02  0.58719266062E+02 -0.29507646072E+02  0.67326569765E+02  0.10000000000E+01 0.  0.
<mgrwt>
<rscale>  0 0.12499858E+03</rscale>
<asrwt>0</asrwt>
<pdfrwt beam="1">  1        4 0.12605107E-01 0.12499858E+03</pdfrwt>
<pdfrwt beam="2">  1       -4 0.19367951E-01 0.12499858E+03</pdfrwt>
<totfact> 0.19679052E+03</totfact>
</mgrwt>
</event>
<event>
 5    1  0.1430314E-002  0.1250057E+03  0.7818608E-02  0.1235060E+00
          4   -1    0    0  501    0  0.00000000000E+00  0.00000000000E+00  0.45669292045E+02  0.45686947106E+02  0.12700000000E+01 0.  1.
         -4   -1    0    0    0  501 -0.00000000000E+00 -0.00000000000E+00 -0.85502329745E+02  0.85511761132E+02  0.12700000000E+01 0.  1.
         25    2    1    2    0    0  0.00000000000E+00  0.00000000000E+00 -0.39833037700E+02  0.13119870824E+03  0.12500572047E+03 0.  0.
    9000005    1    3    3    0    0  0.39001527247E+02  0.40869154003E+02  0.81319911499E+01  0.57083589206E+02  0.10000000000E+01 0.  0.
    9000005    1    3    3    0    0 -0.39001527247E+02 -0.40869154003E+02 -0.47965028850E+02  0.74115119032E+02  0.10000000000E+01 0.  0.
<mgrwt>
<rscale>  0 0.12500572E+03</rscale>
<asrwt>0</asrwt>
<pdfrwt beam="1">  1        4 0.11420709E-01 0.12500572E+03</pdfrwt>
<pdfrwt beam="2">  1       -4 0.21378968E-01 0.12500572E+03</pdfrwt>
<totfact> 0.19497553E+03</totfact>
</mgrwt>
</event>
<event>
 5    1  0.1430314E-002  0.1249917E+03  0.7818608E-02  0.1235082E+00
          4   -1    0    0  501    0  0.00000000000E+00  0.00000000000E+00  0.16860284955E+03  0.16860763262E+03  0.12700000000E+01 0. -1.
         -4   -1    0    0    0  501 -0.00000000000E+00 -0.00000000000E+00 -0.23142734717E+02  0.23177555311E+02  0.12700000000E+01 0. -1.
         25    2    1    2    0    0  0.00000000000E+00  0.00000000000E+00  0.14546011484E+03  0.19178518793E+03  0.12499165293E+03 0.  0.
    9000005    1    3    3    0    0 -0.42041809984E+02  0.39284734556E+02  0.11012385309E+03  0.12425404289E+03  0.10000000000E+01 0.  0.
    9000005    1    3    3    0    0  0.42041809984E+02 -0.39284734556E+02  0.35336261747E+02  0.67531145038E+02  0.10000000000E+01 0.  0.
<mgrwt>
<rscale>  0 0.12499165E+03</rscale>
<asrwt>0</asrwt>
<pdfrwt beam="1">  1        4 0.42155662E-01 0.12499165E+03</pdfrwt>
<pdfrwt beam="2">  1       -4 0.57906342E-02 0.12499165E+03</pdfrwt>
<totfact> 0.16659565E+03</totfact>
</mgrwt>
</event>
<event>
 5    1  0.1430314E-002  0.1249962E+03  0.7818608E-02  0.1235075E+00
          4   -1    0    0  501    0  0.00000000000E+00  0.00000000000E+00  0.76774725846E+02  0.76785229236E+02  0.12700000000E+01 0. -1.
         -4   -1    0    0    0  501 -0.00000000000E+00 -0.00000000000E+00 -0.50854338929E+02  0.50870194495E+02  0.12700000000E+01 0. -1.
         25    2    1    2    0    0  0.00000000000E+00  0.00000000000E+00  0.25920386917E+02  0.12765542373E+03  0.12499616294E+03 0.  0.
    9000005    1    3    3    0    0  0.88930133352E+01 -0.56944249077E+02 -0.11704743806E+02  0.58819505410E+02  0.10000000000E+01 0.  0.
    9000005    1    3    3    0    0 -0.88930133352E+01  0.56944249077E+02  0.37625130723E+02  0.68835918321E+02  0.10000000000E+01 0.  0.
<mgrwt>
<rscale>  0 0.12499616E+03</rscale>
<asrwt>0</asrwt>
<pdfrwt beam="1">  1        4 0.19196976E-01 0.12499616E+03</pdfrwt>
<pdfrwt beam="2">  1       -4 0.12716880E-01 0.12499616E+03</pdfrwt>
<totfact> 0.19693067E+03</totfact>
</mgrwt>
</event>
<event>
 5    1  0.1430314E-002  0.1250014E+03  0.7818608E-02  0.1235067E+00
          4   -1    0    0  501    0  0.00000000000E+00  0.00000000000E+00  0.17018505127E+02  0.17065825991E+02  0.12700000000E+01 0. -1.
         -4   -1    0    0    0  501 -0.00000000000E+00 -0.00000000000E+00 -0.22916709520E+03  0.22917061423E+03  0.12700000000E+01 0. -1.
         25    2    1    2    0    0  0.00000000000E+00  0.00000000000E+00 -0.21214859008E+03  0.24623644022E+03  0.12500144087E+03 0.  0.
    9000005    1    3    3    0    0  0.12561611520E+02 -0.54097558049E+02 -0.16251714471E+03  0.17174737900E+03  0.10000000000E+01 0.  0.
    9000005    1    3    3    0    0 -0.12561611520E+02  0.54097558049E+02 -0.49631445372E+02  0.74489061214E+02  0.10000000000E+01 0.  0.
<mgrwt>
<rscale>  0 0.12500144E+03</rscale>
<asrwt>0</asrwt>
<pdfrwt beam="1">  1        4 0.42609820E-02 0.12500144E+03</pdfrwt>
<pdfrwt beam="2">  1       -4 0.57298119E-01 0.12500144E+03</pdfrwt>
<totfact> 0.14623506E+03</totfact>
</mgrwt>
</event>
<event>
 5    1  0.1430314E-002  0.1250122E+03  0.7818608E-02  0.1235050E+00
          4   -1    0    0  501    0  0.00000000000E+00  0.00000000000E+00  0.11300714257E+02  0.11371853091E+02  0.12700000000E+01 0.  1.
         -4   -1    0    0    0  501 -0.00000000000E+00 -0.00000000000E+00 -0.34457459477E+03  0.34457693519E+03  0.12700000000E+01 0.  1.
         25    2    1    2    0    0  0.00000000000E+00  0.00000000000E+00 -0.33327388051E+03  0.35594878828E+03  0.12501224117E+03 0.  0.
    9000005    1    3    3    0    0 -0.33756354459E+02 -0.35050026009E+02 -0.54972248002E+02  0.73423047063E+02  0.10000000000E+01 0.  0.
    9000005    1    3    3    0    0  0.33756354459E+02  0.35050026009E+02 -0.27830163251E+03  0.28252574121E+03  0.10000000000E+01 0.  0.
<mgrwt>
<rscale>  0 0.12501224E+03</rscale>
<asrwt>0</asrwt>
<pdfrwt beam="1">  1        4 0.28343646E-02 0.12501224E+03</pdfrwt>
<pdfrwt beam="2">  1       -4 0.86152799E-01 0.12501224E+03</pdfrwt>
<totfact> 0.11533492E+03</totfact>
</mgrwt>
</event>
<event>
 5    1  0.1430314E-002  0.1249995E+03  0.7818608E-02  0.1235070E+00
          4   -1    0    0  501    0  0.00000000000E+00  0.00000000000E+00  0.76769859511E+01  0.77813246490E+01  0.12700000000E+01 0. -1.
         -4   -1    0    0    0  501 -0.00000000000E+00 -0.00000000000E+00 -0.50528250288E+03  0.50528409892E+03  0.12700000000E+01 0. -1.
         25    2    1    2    0    0  0.00000000000E+00  0.00000000000E+00 -0.49760551693E+03  0.51306542357E+03  0.12499951352E+03 0.  0.
    9000005    1    3    3    0    0  0.45136977866E+02  0.52426875399E+01 -0.72719117630E+02  0.85754898475E+02  0.10000000000E+01 0.  0.
    9000005    1    3    3    0    0 -0.45136977866E+02 -0.52426875399E+01 -0.42488639930E+03  0.42731052509E+03  0.10000000000E+01 0.  0.
<mgrwt>
<rscale>  0 0.12499951E+03</rscale>
<asrwt>0</asrwt>
<pdfrwt beam="1">  1        4 0.19324900E-02 0.12499951E+03</pdfrwt>
<pdfrwt beam="2">  1       -4 0.12633376E+00 0.12499951E+03</pdfrwt>
<totfact> 0.85566527E+02</totfact>
</mgrwt>
</event>
<event>
 5    1  0.1430314E-002  0.1250048E+03  0.7818608E-02  0.1235062E+00
          4   -1    0    0  501    0  0.00000000000E+00  0.00000000000E+00  0.22747828171E+01  0.26052901691E+01  0.12700000000E+01 0. -1.
         -4   -1    0    0    0  501 -0.00000000000E+00 -0.00000000000E+00 -0.16006913740E+04  0.16006918778E+04  0.12700000000E+01 0. -1.
         25    2    1    2    0    0  0.00000000000E+00  0.00000000000E+00 -0.15984165912E+04  0.16032971680E+04  0.12500483948E+03 0.  0.
    9000005    1    3    3    0    0 -0.13513891807E+02 -0.44428804821E+02 -0.26281522448E+03  0.26688834030E+03  0.10000000000E+01 0.  0.
    9000005    1    3    3    0    0  0.13513891807E+02  0.44428804821E+02 -0.13356013667E+04  0.13364088277E+04  0.10000000000E+01 0.  0.
<mgrwt>
<rscale>  0 0.12500484E+03</rscale>
<asrwt>0</asrwt>
<pdfrwt beam="1">  1        4 0.61007759E-03 0.12500484E+03</pdfrwt>
<pdfrwt beam="2">  1       -4 0.40021062E+00 0.12500484E+03</pdfrwt>
<totfact> 0.94118161E+01</totfact>
</mgrwt>
</event>
<event>
 5    1  0.1430314E-002  0.1250003E+03  0.7818608E-02  0.1235069E+00
          4   -1    0    0  501    0  0.00000000000E+00  0.00000000000E+00  0.92025195746E+01  0.92897398522E+01  0.12700000000E+01 0. -1.
         -4   -1    0    0    0  501 -0.00000000000E+00 -0.00000000000E+00 -0.42238768998E+03  0.42238959924E+03  0.12700000000E+01 0. -1.
         25    2    1    2    0    0  0.00000000000E+00  0.00000000000E+00 -0.41318517041E+03  0.43167933909E+03  0.12500026703E+03 0.  0.
    9000005    1    3    3    0    0 -0.46026210759E+02  0.36933046536E+02 -0.27760270058E+03  0.28380754283E+03  0.10000000000E+01 0.  0.
    9000005    1    3    3    0    0  0.46026210759E+02 -0.36933046536E+02 -0.13558246983E+03  0.14787179626E+03  0.10000000000E+01 0.  0.
<mgrwt>
<rscale>  0 0.12500027E+03</rscale>
<asrwt>0</asrwt>
<pdfrwt beam="1">  1        4 0.23117725E-02 0.12500027E+03</pdfrwt>
<pdfrwt beam="2">  1       -4 0.10560800E+00 0.12500027E+03</pdfrwt>
<totfact> 0.99400995E+02</totfact>
</mgrwt>
</event>
<event>
 5    1  0.1430314E-002  0.1250068E+03  0.7818608E-02  0.1235059E+00
         -4   -1    0    0    0  501 -0.00000000000E+00  0.00000000000E+00  0.52708346713E+02  0.52723644726E+02  0.12700000000E+01 0. -1.
          4   -1    0    0  501    0  0.00000000000E+00 -0.00000000000E+00 -0.74087192772E+02  0.74098077119E+02  0.12700000000E+01 0. -1.
         25    2    1    2    0    0  0.00000000000E+00  0.00000000000E+00 -0.21378846058E+02  0.12682172185E+03  0.12500677611E+03 0.  0.
    9000005    1    3    3    0    0  0.48720378582E+02  0.39024571260E+02 -0.76321900788E+01  0.62895490908E+02  0.10000000000E+01 0.  0.
    9000005    1    3    3    0    0 -0.48720378582E+02 -0.39024571260E+02 -0.13746655980E+02  0.63926230937E+02  0.10000000000E+01 0.  0.
<mgrwt>
<rscale>  0 0.12500678E+03</rscale>
<asrwt>0</asrwt>
<pdfrwt beam="2">  1        4 0.18525071E-01 0.12500678E+03</pdfrwt>
<pdfrwt beam="1">  1       -4 0.13180360E-01 0.12500678E+03</pdfrwt>
<totfact> 0.19733453E+03</totfact>
</mgrwt>
</event>
<event>
 5    1  0.1430314E-002  0.1249930E+03  0.7818608E-02  0.1235080E+00
          4   -1    0    0  501    0  0.00000000000E+00  0.00000000000E+00  0.13193218456E+02  0.13254203606E+02  0.12700000000E+01 0.  1.
         -4   -1    0    0    0  501 -0.00000000000E+00 -0.00000000000E+00 -0.29530210354E+03  0.29530483446E+03  0.12700000000E+01 0.  1.
         25    2    1    2    0    0  0.00000000000E+00  0.00000000000E+00 -0.28210888508E+03  0.30855903806E+03  0.12499302752E+03 0.  0.
    9000005    1    3    3    0    0  0.61320373866E+01  0.60628985132E+02 -0.17520153101E+03  0.18549946682E+03  0.10000000000E+01 0.  0.
    9000005    1    3    3    0    0 -0.61320373866E+01 -0.60628985132E+02 -0.10690735407E+03  0.12305957124E+03  0.10000000000E+01 0.  0.
<mgrwt>
<rscale>  0 0.12499303E+03</rscale>
<asrwt>0</asrwt>
<pdfrwt beam="1">  1        4 0.33062701E-02 0.12499303E+03</pdfrwt>
<pdfrwt beam="2">  1       -4 0.73833469E-01 0.12499303E+03</pdfrwt>
<totfact> 0.12736554E+03</totfact>
</mgrwt>
</event>
<event>
 5    1  0.1430314E-002  0.1250445E+03  0.7818608E-02  0.1235000E+00
          4   -1    0    0  501    0  0.00000000000E+00  0.00000000000E+00  0.29436721478E+02  0.29464104795E+02  0.12700000000E+01 0.  1.
         -4   -1    0    0    0  501 -0.00000000000E+00 -0.00000000000E+00 -0.13270220809E+03  0.13270828510E+03  0.12700000000E+01 0.  1.
         25    2    1    2    0    0  0.00000000000E+00  0.00000000000E+00 -0.10326548662E+03  0.16217238989E+03  0.12504448535E+03 0.  0.
    9000005    1    3    3    0    0  0.15995057397E+02 -0.20891217743E+02  0.21912271833E+02  0.34255400987E+02  0.10000000000E+01 0.  0.
    9000005    1    3    3    0    0 -0.15995057397E+02  0.20891217743E+02 -0.12517775845E+03  0.12791698890E+03  0.10000000000E+01 0.  0.
<mgrwt>
<rscale>  0 0.12504449E+03</rscale>
<asrwt>0</asrwt>
<pdfrwt beam="1">  1        4 0.73633633E-02 0.12504449E+03</pdfrwt>
<pdfrwt beam="2">  1       -4 0.33179733E-01 0.12504449E+03</pdfrwt>
<totfact> 0.17937448E+03</totfact>
</mgrwt>
</event>
<event>
 5    1  0.1430314E-002  0.1249993E+03  0.7818608E-02  0.1235070E+00
         -4   -1    0    0    0  501 -0.00000000000E+00  0.00000000000E+00  0.13652576191E+04  0.13652582098E+04  0.12700000000E+01 0.  1.
          4   -1    0    0  501    0  0.00000000000E+00 -0.00000000000E+00 -0.27195965710E+01  0.30015172012E+01  0.12700000000E+01 0.  1.
         25    2    1    2    0    0  0.00000000000E+00  0.00000000000E+00  0.13625380225E+04  0.13682597270E+04  0.12499927072E+03 0.  0.
    9000005    1    3    3    0    0  0.31830868057E+02 -0.11587489050E+02  0.12560957542E+04  0.12565528313E+04  0.10000000000E+01 0.  0.
    9000005    1    3    3    0    0 -0.31830868057E+02  0.11587489050E+02  0.10644226825E+03  0.11170689564E+03  0.10000000000E+01 0.  0.
<mgrwt>
<rscale>  0 0.12499927E+03</rscale>
<asrwt>0</asrwt>
<pdfrwt beam="2">  1        4 0.71521288E-03 0.12499927E+03</pdfrwt>
<pdfrwt beam="1">  1       -4 0.34134981E+00 0.12499927E+03</pdfrwt>
<totfact> 0.17361093E+02</totfact>
</mgrwt>
</event>
<event>
 5    1  0.1430314E-002  0.1249971E+03  0.7818608E-02  0.1235074E+00
          4   -1    0    0  501    0  0.00000000000E+00  0.00000000000E+00  0.19021463590E+02  0.19063813288E+02  0.12700000000E+01 0.  1.
         -4   -1    0    0    0  501 -0.00000000000E+00 -0.00000000000E+00 -0.20507788648E+03  0.20508181885E+03  0.12700000000E+01 0.  1.
         25    2    1    2    0    0  0.00000000000E+00  0.00000000000E+00 -0.18605642289E+03  0.22414563214E+03  0.12499708760E+03 0.  0.
    9000005    1    3    3    0    0 -0.22931721927E+02  0.94292986329E+01 -0.19588847565E+03  0.19745397043E+03  0.10000000000E+01 0.  0.
    9000005    1    3    3    0    0  0.22931721927E+02 -0.94292986329E+01  0.98320527658E+01  0.26691661710E+02  0.10000000000E+01 0.  0.
<mgrwt>
<rscale>  0 0.12499709E+03</rscale>
<asrwt>0</asrwt>
<pdfrwt beam="1">  1        4 0.47611518E-02 0.12499709E+03</pdfrwt>
<pdfrwt beam="2">  1       -4 0.51275250E-01 0.12499709E+03</pdfrwt>
<totfact> 0.15399817E+03</totfact>
</mgrwt>
</event>
<event>
 5    1  0.1430314E-002  0.1249973E+03  0.7818608E-02  0.1235073E+00
         -4   -1    0    0    0  501 -0.00000000000E+00  0.00000000000E+00  0.11307745077E+03  0.11308458238E+03  0.12700000000E+01 0. -1.
          4   -1    0    0  501    0  0.00000000000E+00 -0.00000000000E+00 -0.34523537086E+02  0.34546888615E+02  0.12700000000E+01 0. -1.
         25    2    1    2    0    0  0.00000000000E+00  0.00000000000E+00  0.78553913685E+02  0.14763147100E+03  0.12499733547E+03 0.  0.
    9000005    1    3    3    0    0  0.37844593207E+02 -0.49420508145E+02  0.45797914449E+02  0.77285502057E+02  0.10000000000E+01 0.  0.
    9000005    1    3    3    0    0 -0.37844593207E+02  0.49420508145E+02  0.32755999236E+02  0.70345968941E+02  0.10000000000E+01 0.  0.
<mgrwt>
<rscale>  0 0.12499734E+03</rscale>
<asrwt>0</asrwt>
<pdfrwt beam="2">  1        4 0.86346947E-02 0.12499734E+03</pdfrwt>
<pdfrwt beam="1">  1       -4 0.28273173E-01 0.12499734E+03</pdfrwt>
<totfact> 0.18657015E+03</totfact>
</mgrwt>
</event>
<event>
 5    1  0.1430314E-002  0.1250002E+03  0.7818608E-02  0.1235069E+00
          4   -1    0    0  501    0  0.00000000000E+00  0.00000000000E+00  0.39981328173E+01  0.41949929708E+01  0.12700000000E+01 0. -1.
         -4   -1    0    0    0  501 -0.00000000000E+00 -0.00000000000E+00 -0.95334939912E+03  0.95335024504E+03  0.12700000000E+01 0. -1.
         25    2    1    2    0    0  0.00000000000E+00  0.00000000000E+00 -0.94935126631E+03  0.95754523801E+03  0.12500022397E+03 0.  0.
    9000005    1    3    3    0    0  0.18428620349E+02  0.14490542164E+01 -0.93196378563E+03  0.93214763398E+03  0.10000000000E+01 0.  0.
    9000005    1    3    3    0    0 -0.18428620349E+02 -0.14490542164E+01 -0.17387480676E+02  0.25397604028E+02  0.10000000000E+01 0.  0.
<mgrwt>
<rscale>  0 0.12500022E+03</rscale>
<asrwt>0</asrwt>
<pdfrwt beam="1">  1        4 0.10242497E-02 0.12500022E+03</pdfrwt>
<pdfrwt beam="2">  1       -4 0.23836130E+00 0.12500022E+03</pdfrwt>
<totfact> 0.40039469E+02</totfact>
</mgrwt>
</event>
<event>
 5    1  0.1430314E-002  0.1250109E+03  0.7818608E-02  0.1235052E+00
         -4   -1    0    0    0  501 -0.00000000000E+00  0.00000000000E+00  0.49121452672E+01  0.50736644672E+01  0.12700000000E+01 0. -1.
          4   -1    0    0  501    0  0.00000000000E+00 -0.00000000000E+00 -0.78233503437E+03  0.78233606520E+03  0.12700000000E+01 0. -1.
         25    2    1    2    0    0  0.00000000000E+00  0.00000000000E+00 -0.77742288911E+03  0.78740972967E+03  0.12501093498E+03 0.  0.
    9000005    1    3    3    0    0 -0.58830861930E+02  0.20788363603E+02 -0.36625837024E+03  0.37153656637E+03  0.10000000000E+01 0.  0.
    9000005    1    3    3    0    0  0.58830861930E+02 -0.20788363603E+02 -0.41116451886E+03  0.41587316330E+03  0.10000000000E+01 0.  0.
<mgrwt>
<rscale>  0 0.12501093E+03</rscale>
<asrwt>0</asrwt>
<pdfrwt beam="2">  1        4 0.19560366E+00 0.12501093E+03</pdfrwt>
<pdfrwt beam="1">  1       -4 0.12483577E-02 0.12501093E+03</pdfrwt>
<totfact> 0.53588684E+02</totfact>
</mgrwt>
</event>
<event>
 5    1  0.1430314E-002  0.1249994E+03  0.7818608E-02  0.1235070E+00
         -4   -1    0    0    0  501 -0.00000000000E+00  0.00000000000E+00  0.62294994126E+02  0.62307938444E+02  0.12700000000E+01 0. -1.
          4   -1    0    0  501    0  0.00000000000E+00 -0.00000000000E+00 -0.62679183313E+02  0.62692048306E+02  0.12700000000E+01 0. -1.
         25    2    1    2    0    0  0.00000000000E+00  0.00000000000E+00 -0.38418918784E+00  0.12499998675E+03  0.12499939634E+03 0.  0.
    9000005    1    3    3    0    0  0.38784255785E+02 -0.10131028577E+02  0.47749304492E+02  0.62352644822E+02  0.10000000000E+01 0.  0.
    9000005    1    3    3    0    0 -0.38784255785E+02  0.10131028577E+02 -0.48133493680E+02  0.62647341928E+02  0.10000000000E+01 0.  0.
<mgrwt>
<rscale>  0 0.12499940E+03</rscale>
<asrwt>0</asrwt>
<pdfrwt beam="2">  1        4 0.15673022E-01 0.12499940E+03</pdfrwt>
<pdfrwt beam="1">  1       -4 0.15576975E-01 0.12499940E+03</pdfrwt>
<totfact> 0.19835336E+03</totfact>
</mgrwt>
</event>
<event>
 5    1  0.1430314E-002  0.1250047E+03  0.7818608E-02  0.1235062E+00
         -4   -1    0    0    0  501 -0.00000000000E+00  0.00000000000E+00  0.74065657448E+01  0.75146600809E+01  0.12700000000E+01 0.  1.
          4   -1    0    0  501    0  0.00000000000E+00 -0.00000000000E+00 -0.52351321998E+03  0.52351476044E+03  0.12700000000E+01 0.  1.
         25    2    1    2    0    0  0.00000000000E+00  0.00000000000E+00 -0.51610665424E+03  0.53102942052E+03  0.12500466755E+03 0.  0.
    9000005    1    3    3    0    0  0.18861504204E+02 -0.49805844170E+02 -0.11914944959E+03  0.13051425130E+03  0.10000000000E+01 0.  0.
    9000005    1    3    3    0    0 -0.18861504204E+02  0.49805844170E+02 -0.39695720465E+03  0.40051516922E+03  0.10000000000E+01 0.  0.
<mgrwt>
<rscale>  0 0.12500467E+03</rscale>
<asrwt>0</asrwt>
<pdfrwt beam="2">  1        4 0.13089189E+00 0.12500467E+03</pdfrwt>
<pdfrwt beam="1">  1       -4 0.18653476E-02 0.12500467E+03</pdfrwt>
<totfact> 0.82865450E+02</totfact>
</mgrwt>
</event>
<event>
 5    1  0.1430314E-002  0.1250000E+03  0.7818608E-02  0.1235069E+00
          4   -1    0    0  501    0  0.00000000000E+00  0.00000000000E+00  0.46295218003E+02  0.46312634453E+02  0.12700000000E+01 0. -1.
         -4   -1    0    0    0  501 -0.00000000000E+00 -0.00000000000E+00 -0.84338850204E+02  0.84348411685E+02  0.12700000000E+01 0. -1.
         25    2    1    2    0    0  0.00000000000E+00  0.00000000000E+00 -0.38043632201E+02  0.13066104614E+03  0.12499996411E+03 0.  0.
    9000005    1    3    3    0    0  0.58533082983E+01 -0.48464765502E+01 -0.83859195862E+02  0.84208754198E+02  0.10000000000E+01 0.  0.
    9000005    1    3    3    0    0 -0.58533082983E+01  0.48464765502E+01  0.45815563661E+02  0.46452291940E+02  0.10000000000E+01 0.  0.
<mgrwt>
<rscale>  0 0.12499996E+03</rscale>
<asrwt>0</asrwt>
<pdfrwt beam="1">  1        4 0.11577177E-01 0.12499996E+03</pdfrwt>
<pdfrwt beam="2">  1       -4 0.21088085E-01 0.12499996E+03</pdfrwt>
<totfact> 0.19528928E+03</totfact>
</mgrwt>
</event>
<event>
 5    1  0.1430314E-002  0.1250046E+03  0.7818608E-02  0.1235062E+00
          4   -1    0    0  501    0  0.00000000000E+00  0.00000000000E+00  0.13390576835E+03  0.13391179074E+03  0.12700000000E+01 0. -1.
         -4   -1    0    0    0  501 -0.00000000000E+00 -0.00000000000E+00 -0.29153270611E+02  0.29180919919E+02  0.12700000000E+01 0. -1.
         25    2    1    2    0    0  0.00000000000E+00  0.00000000000E+00  0.10475249774E+03  0.16309271066E+03  0.12500458586E+03 0.  0.
    9000005    1    3    3    0    0  0.45163829583E+02 -0.42419822378E+02  0.63001599423E+02  0.88370890926E+02  0.10000000000E+01 0.  0.
    9000005    1    3    3    0    0 -0.45163829583E+02  0.42419822378E+02  0.41750898319E+02  0.74721819729E+02  0.10000000000E+01 0.  0.
<mgrwt>
<rscale>  0 0.12500459E+03</rscale>
<asrwt>0</asrwt>
<pdfrwt beam="1">  1        4 0.33480650E-01 0.12500459E+03</pdfrwt>
<pdfrwt beam="2">  1       -4 0.72925267E-02 0.12500459E+03</pdfrwt>
<totfact> 0.17911262E+03</totfact>
</mgrwt>
</event>
<event>
 5    1  0.1430314E-002  0.1250017E+03  0.7818608E-02  0.1235067E+00
         -4   -1    0    0    0  501 -0.00000000000E+00  0.00000000000E+00  0.22864373753E+02  0.22899617620E+02  0.12700000000E+01 0.  1.
          4   -1    0    0  501    0  0.00000000000E+00 -0.00000000000E+00 -0.17067976496E+03  0.17068448982E+03  0.12700000000E+01 0.  1.
         25    2    1    2    0    0  0.00000000000E+00  0.00000000000E+00 -0.14781539120E+03  0.19358410744E+03  0.12500166710E+03 0.  0.
    9000005    1    3    3    0    0 -0.50434717137E+02 -0.36515406068E+02 -0.82148886002E+02  0.10308479541E+03  0.10000000000E+01 0.  0.
    9000005    1    3    3    0    0  0.50434717137E+02  0.36515406068E+02 -0.65666505200E+02  0.90499312031E+02  0.10000000000E+01 0.  0.
<mgrwt>
<rscale>  0 0.12500167E+03</rscale>
<asrwt>0</asrwt>
<pdfrwt beam="2">  1        4 0.42674934E-01 0.12500167E+03</pdfrwt>
<pdfrwt beam="1">  1       -4 0.57210900E-02 0.12500167E+03</pdfrwt>
<totfact> 0.16581569E+03</totfact>
</mgrwt>
</event>
<event>
 5    1  0.1430314E-002  0.1249979E+03  0.7818608E-02  0.1235073E+00
          4   -1    0    0  501    0  0.00000000000E+00  0.00000000000E+00  0.20688998071E+03  0.20689387864E+03  0.12700000000E+01 0. -1.
         -4   -1    0    0    0  501 -0.00000000000E+00 -0.00000000000E+00 -0.18854746174E+02  0.18897469495E+02  0.12700000000E+01 0. -1.
         25    2    1    2    0    0  0.00000000000E+00  0.00000000000E+00  0.18803523454E+03  0.22579134814E+03  0.12499793384E+03 0.  0.
    9000005    1    3    3    0    0  0.19762100832E+02  0.13651196188E+02  0.19822795579E+03  0.19968029007E+03  0.10000000000E+01 0.  0.
    9000005    1    3    3    0    0 -0.19762100832E+02 -0.13651196188E+02 -0.10192721252E+02  0.26111058063E+02  0.10000000000E+01 0.  0.
<mgrwt>
<rscale>  0 0.12499793E+03</rscale>
<asrwt>0</asrwt>
<pdfrwt beam="1">  1        4 0.51728322E-01 0.12499793E+03</pdfrwt>
<pdfrwt beam="2">  1       -4 0.47195143E-02 0.12499793E+03</pdfrwt>
<totfact> 0.15339602E+03</totfact>
</mgrwt>
</event>
<event>
 5    1  0.1430314E-002  0.1249995E+03  0.7818608E-02  0.1235070E+00
         -4   -1    0    0    0  501 -0.00000000000E+00  0.00000000000E+00  0.11599385944E+03  0.11600081176E+03  0.12700000000E+01 0. -1.
          4   -1    0    0  501    0  0.00000000000E+00 -0.00000000000E+00 -0.33656126977E+02  0.33680079915E+02  0.12700000000E+01 0. -1.
         25    2    1    2    0    0  0.00000000000E+00  0.00000000000E+00  0.82337732467E+02  0.14968089167E+03  0.12499946858E+03 0.  0.
    9000005    1    3    3    0    0 -0.51087124770E+02  0.30107207402E+02  0.17555104388E+02  0.61850787747E+02  0.10000000000E+01 0.  0.
    9000005    1    3    3    0    0  0.51087124770E+02 -0.30107207402E+02  0.64782628079E+02  0.87830103926E+02  0.10000000000E+01 0.  0.
<mgrwt>
<rscale>  0 0.12499947E+03</rscale>
<asrwt>0</asrwt>
<pdfrwt beam="2">  1        4 0.84178950E-02 0.12499947E+03</pdfrwt>
<pdfrwt beam="1">  1       -4 0.29002328E-01 0.12499947E+03</pdfrwt>
<totfact> 0.18554712E+03</totfact>
</mgrwt>
</event>
<event>
 5    1  0.1430314E-002  0.1249898E+03  0.7818608E-02  0.1235085E+00
         -4   -1    0    0    0  501 -0.00000000000E+00  0.00000000000E+00  0.36289983030E+01  0.38448054155E+01  0.12700000000E+01 0.  1.
          4   -1    0    0  501    0  0.00000000000E+00 -0.00000000000E+00 -0.10449307830E+04  0.10449315548E+04  0.12700000000E+01 0.  1.
         25    2    1    2    0    0  0.00000000000E+00  0.00000000000E+00 -0.10413017847E+04  0.10487763602E+04  0.12498978710E+03 0.  0.
    9000005    1    3    3    0    0  0.20262057415E+02 -0.29134407170E+02 -0.89090596497E+02  0.95903592404E+02  0.10000000000E+01 0.  0.
    9000005    1    3    3    0    0 -0.20262057415E+02  0.29134407170E+02 -0.95221118824E+03  0.95287276783E+03  0.10000000000E+01 0.  0.
<mgrwt>
<rscale>  0 0.12498979E+03</rscale>
<asrwt>0</asrwt>
<pdfrwt beam="2">  1        4 0.26125877E+00 0.12498979E+03</pdfrwt>
<pdfrwt beam="1">  1       -4 0.93432551E-03 0.12498979E+03</pdfrwt>
<totfact> 0.33933682E+02</totfact>
</mgrwt>
</event>
<event>
 5    1  0.1430314E-002  0.1249994E+03  0.7818608E-02  0.1235070E+00
          4   -1    0    0  501    0  0.00000000000E+00  0.00000000000E+00  0.21395055067E+03  0.21395431996E+03  0.12700000000E+01 0. -1.
         -4   -1    0    0    0  501 -0.00000000000E+00 -0.00000000000E+00 -0.18231528260E+02  0.18275708542E+02  0.12700000000E+01 0. -1.
         25    2    1    2    0    0  0.00000000000E+00  0.00000000000E+00  0.19571902241E+03  0.23223002851E+03  0.12499940163E+03 0.  0.
    9000005    1    3    3    0    0  0.37423332458E+02 -0.50031671011E+02  0.95554965335E+02  0.11417278711E+03  0.10000000000E+01 0.  0.
    9000005    1    3    3    0    0 -0.37423332458E+02  0.50031671011E+02  0.10016405707E+03  0.11805724140E+03  0.10000000000E+01 0.  0.
<mgrwt>
<rscale>  0 0.12499940E+03</rscale>
<asrwt>0</asrwt>
<pdfrwt beam="1">  1        4 0.53493632E-01 0.12499940E+03</pdfrwt>
<pdfrwt beam="2">  1       -4 0.45638757E-02 0.12499940E+03</pdfrwt>
<totfact> 0.15108162E+03</totfact>
</mgrwt>
</event>
<event>
 5    1  0.1430314E-002  0.1250038E+03  0.7818608E-02  0.1235063E+00
          4   -1    0    0  501    0  0.00000000000E+00  0.00000000000E+00  0.54075433987E+02  0.54090345357E+02  0.12700000000E+01 0.  1.
         -4   -1    0    0    0  501 -0.00000000000E+00 -0.00000000000E+00 -0.72211015006E+02  0.72222182106E+02  0.12700000000E+01 0.  1.
         25    2    1    2    0    0  0.00000000000E+00  0.00000000000E+00 -0.18135581019E+02  0.12631252746E+03  0.12500382112E+03 0.  0.
    9000005    1    3    3    0    0 -0.66980092018E+01  0.52205315658E+02 -0.43113717579E+02  0.68044477760E+02  0.10000000000E+01 0.  0.
    9000005    1    3    3    0    0  0.66980092018E+01 -0.52205315658E+02  0.24978136559E+02  0.58268049703E+02  0.10000000000E+01 0.  0.
<mgrwt>
<rscale>  0 0.12500382E+03</rscale>
<asrwt>0</asrwt>
<pdfrwt beam="1">  1        4 0.13522118E-01 0.12500382E+03</pdfrwt>
<pdfrwt beam="2">  1       -4 0.18056013E-01 0.12500382E+03</pdfrwt>
<totfact> 0.19762275E+03</totfact>
</mgrwt>
</event>
<event>
 5    1  0.1430314E-002  0.1250016E+03  0.7818608E-02  0.1235067E+00
          4   -1    0    0  501    0  0.00000000000E+00  0.00000000000E+00  0.13324302632E+02  0.13384690532E+02  0.12700000000E+01 0.  1.
         -4   -1    0    0    0  501 -0.00000000000E+00 -0.00000000000E+00 -0.29245010716E+03  0.29245286471E+03  0.12700000000E+01 0.  1.
         25    2    1    2    0    0  0.00000000000E+00  0.00000000000E+00 -0.27912580453E+03  0.30583755524E+03  0.12500158176E+03 0.  0.
    9000005    1    3    3    0    0 -0.39894671506E+02 -0.22079040346E+02 -0.35004487732E+02  0.57492460362E+02  0.10000000000E+01 0.  0.
    9000005    1    3    3    0    0  0.39894671506E+02  0.22079040346E+02 -0.24412131679E+03  0.24834509488E+03  0.10000000000E+01 0.  0.
<mgrwt>
<rscale>  0 0.12500158E+03</rscale>
<asrwt>0</asrwt>
<pdfrwt beam="1">  1        4 0.33389698E-02 0.12500158E+03</pdfrwt>
<pdfrwt beam="2">  1       -4 0.73120399E-01 0.12500158E+03</pdfrwt>
<totfact> 0.12808549E+03</totfact>
</mgrwt>
</event>
<event>
 5    1  0.1430314E-002  0.1250015E+03  0.7818608E-02  0.1235067E+00
          4   -1    0    0  501    0  0.00000000000E+00  0.00000000000E+00  0.55864419871E+02  0.55878853849E+02  0.12700000000E+01 0.  1.
         -4   -1    0    0    0  501 -0.00000000000E+00 -0.00000000000E+00 -0.69896185352E+02  0.69907722226E+02  0.12700000000E+01 0.  1.
         25    2    1    2    0    0  0.00000000000E+00  0.00000000000E+00 -0.14031765481E+02  0.12578657608E+03  0.12500148910E+03 0.  0.
    9000005    1    3    3    0    0  0.13612247099E+02  0.58243612984E+02 -0.25232934793E+02  0.64925439720E+02  0.10000000000E+01 0.  0.
    9000005    1    3    3    0    0 -0.13612247099E+02 -0.58243612984E+02  0.11201169312E+02  0.60861136355E+02  0.10000000000E+01 0.  0.
<mgrwt>
<rscale>  0 0.12500149E+03</rscale>
<asrwt>0</asrwt>
<pdfrwt beam="1">  1        4 0.13969351E-01 0.12500149E+03</pdfrwt>
<pdfrwt beam="2">  1       -4 0.17477293E-01 0.12500149E+03</pdfrwt>
<totfact> 0.19791768E+03</totfact>
</mgrwt>
</event>
<event>
 5    1  0.1430314E-002  0.1250011E+03  0.7818608E-02  0.1235068E+00
          4   -1    0    0  501    0  0.00000000000E+00  0.00000000000E+00  0.30626784141E+02  0.30653104359E+02  0.12700000000E+01 0. -1.
         -4   -1    0    0    0  501 -0.00000000000E+00 -0.00000000000E+00 -0.12746162034E+03  0.12746794719E+03  0.12700000000E+01 0. -1.
         25    2    1    2    0    0  0.00000000000E+00  0.00000000000E+00 -0.96834836202E+02  0.15812105155E+03  0.12500112576E+03 0.  0.
    9000005    1    3    3    0    0  0.13099194619E+02 -0.60886219510E+02 -0.41893411100E+02  0.75065161822E+02  0.10000000000E+01 0.  0.
    9000005    1    3    3    0    0 -0.13099194619E+02  0.60886219510E+02 -0.54941425102E+02  0.83055889725E+02  0.10000000000E+01 0.  0.
<mgrwt>
<rscale>  0 0.12500113E+03</rscale>
<asrwt>0</asrwt>
<pdfrwt beam="1">  1        4 0.76607772E-02 0.12500113E+03</pdfrwt>
<pdfrwt beam="2">  1       -4 0.31869485E-01 0.12500113E+03</pdfrwt>
<totfact> 0.18146066E+03</totfact>
</mgrwt>
</event>
<event>
 5    1  0.1430314E-002  0.1250009E+03  0.7818608E-02  0.1235068E+00
         -4   -1    0    0    0  501 -0.00000000000E+00  0.00000000000E+00  0.27075961641E+02  0.27105729999E+02  0.12700000000E+01 0. -1.
          4   -1    0    0  501    0  0.00000000000E+00 -0.00000000000E+00 -0.14416034930E+03  0.14416594331E+03  0.12700000000E+01 0. -1.
         25    2    1    2    0    0  0.00000000000E+00  0.00000000000E+00 -0.11708438766E+03  0.17127167331E+03  0.12500092898E+03 0.  0.
    9000005    1    3    3    0    0  0.19234859025E+02  0.20008160294E+02 -0.13525912046E+03  0.13808090363E+03  0.10000000000E+01 0.  0.
    9000005    1    3    3    0    0 -0.19234859025E+02 -0.20008160294E+02  0.18174732794E+02  0.33190769683E+02  0.10000000000E+01 0.  0.
<mgrwt>
<rscale>  0 0.12500093E+03</rscale>
<asrwt>0</asrwt>
<pdfrwt beam="2">  1        4 0.36044506E-01 0.12500093E+03</pdfrwt>
<pdfrwt beam="1">  1       -4 0.67734111E-02 0.12500093E+03</pdfrwt>
<totfact> 0.17539463E+03</totfact>
</mgrwt>
</event>
<event>
 5    1  0.1430314E-002  0.1250032E+03  0.7818608E-02  0.1235064E+00
          4   -1    0    0  501    0  0.00000000000E+00  0.00000000000E+00  0.37905205404E+02  0.37926474879E+02  0.12700000000E+01 0.  1.
         -4   -1    0    0    0  501 -0.00000000000E+00 -0.00000000000E+00 -0.10300428934E+03  0.10301211833E+03  0.12700000000E+01 0.  1.
         25    2    1    2    0    0  0.00000000000E+00  0.00000000000E+00 -0.65099083934E+02  0.14093859320E+03  0.12500318526E+03 0.  0.
    9000005    1    3    3    0    0  0.43809229559E+02  0.43605206841E+02 -0.42931326470E+02  0.75264609550E+02  0.10000000000E+01 0.  0.
    9000005    1    3    3    0    0 -0.43809229559E+02 -0.43605206841E+02 -0.22167757464E+02  0.65673983655E+02  0.10000000000E+01 0.  0.
<mgrwt>
<rscale>  0 0.12500319E+03</rscale>
<asrwt>0</asrwt>
<pdfrwt beam="1">  1        4 0.94799389E-02 0.12500319E+03</pdfrwt>
<pdfrwt beam="2">  1       -4 0.25754709E-01 0.12500319E+03</pdfrwt>
<totfact> 0.18991018E+03</totfact>
</mgrwt>
</event>
<event>
 5    1  0.1430314E-002  0.1249894E+03  0.7818608E-02  0.1235086E+00
          4   -1    0    0  501    0  0.00000000000E+00  0.00000000000E+00  0.72230830413E+02  0.72241994450E+02  0.12700000000E+01 0. -1.
         -4   -1    0    0    0  501 -0.00000000000E+00 -0.00000000000E+00 -0.54048100155E+02  0.54063019065E+02  0.12700000000E+01 0. -1.
         25    2    1    2    0    0  0.00000000000E+00  0.00000000000E+00  0.18182730258E+02  0.12630501351E+03  0.12498937859E+03 0.  0.
    9000005    1    3    3    0    0  0.15254824667E+02 -0.58308202708E+02 -0.75755755792E+01  0.60753152380E+02  0.10000000000E+01 0.  0.
    9000005    1    3    3    0    0 -0.15254824667E+02  0.58308202708E+02  0.25758305837E+02  0.65551861135E+02  0.10000000000E+01 0.  0.
<mgrwt>
<rscale>  0 0.12498938E+03</rscale>
<asrwt>0</asrwt>
<pdfrwt beam="1">  1        4 0.18060968E-01 0.12498938E+03</pdfrwt>
<pdfrwt beam="2">  1       -4 0.13515285E-01 0.12498938E+03</pdfrwt>
<totfact> 0.19769357E+03</totfact>
</mgrwt>
</event>
<event>
 5    1  0.1430314E-002  0.1249781E+03  0.7818608E-02  0.1235103E+00
          4   -1    0    0  501    0  0.00000000000E+00  0.00000000000E+00  0.12077676591E+03  0.12078344292E+03  0.12700000000E+01 0.  1.
         -4   -1    0    0    0  501 -0.00000000000E+00 -0.00000000000E+00 -0.32311375265E+02  0.32336324336E+02  0.12700000000E+01 0.  1.
         25    2    1    2    0    0  0.00000000000E+00  0.00000000000E+00  0.88465390648E+02  0.15311976726E+03  0.12497814922E+03 0.  0.
    9000005    1    3    3    0    0  0.96453996181E+01  0.27574697721E+02 -0.23435055797E+02  0.37464643712E+02  0.10000000000E+01 0.  0.
    9000005    1    3    3    0    0 -0.96453996181E+01 -0.27574697721E+02  0.11190044644E+03  0.11565512355E+03  0.10000000000E+01 0.  0.
<mgrwt>
<rscale>  0 0.12497815E+03</rscale>
<asrwt>0</asrwt>
<pdfrwt beam="1">  1        4 0.30198145E-01 0.12497815E+03</pdfrwt>
<pdfrwt beam="2">  1       -4 0.80817971E-02 0.12497815E+03</pdfrwt>
<totfact> 0.18395787E+03</totfact>
</mgrwt>
</event>
<event>
 5    1  0.1430314E-002  0.1249958E+03  0.7818608E-02  0.1235076E+00
          4   -1    0    0  501    0  0.00000000000E+00  0.00000000000E+00  0.54822508121E+03  0.54822655223E+03  0.12700000000E+01 0.  1.
         -4   -1    0    0    0  501 -0.00000000000E+00 -0.00000000000E+00 -0.70666972694E+01  0.71799101872E+01  0.12700000000E+01 0.  1.
         25    2    1    2    0    0  0.00000000000E+00  0.00000000000E+00  0.54115838394E+03  0.55540646242E+03  0.12499576786E+03 0.  0.
    9000005    1    3    3    0    0 -0.28204959322E+02  0.17695497220E+02  0.50554800894E+03  0.50664429306E+03  0.10000000000E+01 0.  0.
    9000005    1    3    3    0    0  0.28204959322E+02 -0.17695497220E+02  0.35610375007E+02  0.48762169357E+02  0.10000000000E+01 0.  0.
<mgrwt>
<rscale>  0 0.12499577E+03</rscale>
<asrwt>0</asrwt>
<pdfrwt beam="1">  1        4 0.13707060E+00 0.12499577E+03</pdfrwt>
<pdfrwt beam="2">  1       -4 0.17810098E-02 0.12499577E+03</pdfrwt>
<totfact> 0.79423209E+02</totfact>
</mgrwt>
</event>
<event>
 5    1  0.1430314E-002  0.1250031E+03  0.7818608E-02  0.1235064E+00
         -4   -1    0    0    0  501 -0.00000000000E+00  0.00000000000E+00  0.71571591699E+02  0.71582858550E+02  0.12700000000E+01 0. -1.
          4   -1    0    0  501    0  0.00000000000E+00 -0.00000000000E+00 -0.54557943663E+02  0.54572723193E+02  0.12700000000E+01 0. -1.
         25    2    1    2    0    0  0.00000000000E+00  0.00000000000E+00  0.17013648036E+02  0.12615558174E+03  0.12500306630E+03 0.  0.
    9000005    1    3    3    0    0  0.54147461729E+02 -0.30942148878E+02  0.44601847670E+01  0.62532051278E+02  0.10000000000E+01 0.  0.
    9000005    1    3    3    0    0 -0.54147461729E+02  0.30942148878E+02  0.12553463269E+02  0.63623530466E+02  0.10000000000E+01 0.  0.
<mgrwt>
<rscale>  0 0.12500307E+03</rscale>
<asrwt>0</asrwt>
<pdfrwt beam="2">  1        4 0.13642742E-01 0.12500307E+03</pdfrwt>
<pdfrwt beam="1">  1       -4 0.17896154E-01 0.12500307E+03</pdfrwt>
<totfact> 0.19771097E+03</totfact>
</mgrwt>
</event>
<event>
 5    1  0.1430314E-002  0.1250001E+03  0.7818608E-02  0.1235069E+00
          4   -1    0    0  501    0  0.00000000000E+00  0.00000000000E+00  0.23240906377E+02  0.23275580105E+02  0.12700000000E+01 0.  1.
         -4   -1    0    0    0  501 -0.00000000000E+00 -0.00000000000E+00 -0.16791451450E+03  0.16791931718E+03  0.12700000000E+01 0.  1.
         25    2    1    2    0    0  0.00000000000E+00  0.00000000000E+00 -0.14467360813E+03  0.19119489728E+03  0.12500014343E+03 0.  0.
    9000005    1    3    3    0    0 -0.13422107609E+02 -0.53243869176E+02 -0.26700685507E+02  0.61065450003E+02  0.10000000000E+01 0.  0.
    9000005    1    3    3    0    0  0.13422107609E+02  0.53243869176E+02 -0.11797292262E+03  0.13012944728E+03  0.10000000000E+01 0.  0.
<mgrwt>
<rscale>  0 0.12500014E+03</rscale>
<asrwt>0</asrwt>
<pdfrwt beam="1">  1        4 0.58151616E-02 0.12500014E+03</pdfrwt>
<pdfrwt beam="2">  1       -4 0.41983560E-01 0.12500014E+03</pdfrwt>
<totfact> 0.16680735E+03</totfact>
</mgrwt>
</event>
<event>
 5    1  0.1430314E-002  0.1249963E+03  0.7818608E-02  0.1235075E+00
         -4   -1    0    0    0  501 -0.00000000000E+00  0.00000000000E+00  0.12164281060E+03  0.12164944008E+03  0.12700000000E+01 0.  1.
          4   -1    0    0  501    0  0.00000000000E+00 -0.00000000000E+00 -0.32090484032E+02  0.32115604702E+02  0.12700000000E+01 0.  1.
         25    2    1    2    0    0  0.00000000000E+00  0.00000000000E+00  0.89552326569E+02  0.15376504478E+03  0.12499627915E+03 0.  0.
    9000005    1    3    3    0    0  0.40817778195E+02  0.39944961152E+02  0.13574606852E+02  0.58710824295E+02  0.10000000000E+01 0.  0.
    9000005    1    3    3    0    0 -0.40817778195E+02 -0.39944961152E+02  0.75977719717E+02  0.95054220483E+02  0.10000000000E+01 0.  0.
<mgrwt>
<rscale>  0 0.12499628E+03</rscale>
<asrwt>0</asrwt>
<pdfrwt beam="2">  1        4 0.80265898E-02 0.12499628E+03</pdfrwt>
<pdfrwt beam="1">  1       -4 0.30414671E-01 0.12499628E+03</pdfrwt>
<totfact> 0.18356778E+03</totfact>
</mgrwt>
</event>
<event>
 5    1  0.1430314E-002  0.1250124E+03  0.7818608E-02  0.1235050E+00
         -4   -1    0    0    0  501 -0.00000000000E+00  0.00000000000E+00  0.13610782773E+02  0.13669905182E+02  0.12700000000E+01 0.  1.
          4   -1    0    0  501    0  0.00000000000E+00 -0.00000000000E+00 -0.28637123257E+03  0.28637404866E+03  0.12700000000E+01 0.  1.
         25    2    1    2    0    0  0.00000000000E+00  0.00000000000E+00 -0.27276044980E+03  0.30004395384E+03  0.12501244443E+03 0.  0.
    9000005    1    3    3    0    0 -0.45779266618E+02  0.90761022110E+01 -0.36611985421E+02  0.59325832147E+02  0.10000000000E+01 0.  0.
    9000005    1    3    3    0    0  0.45779266618E+02 -0.90761022110E+01 -0.23614846438E+03  0.24071812169E+03  0.10000000000E+01 0.  0.
<mgrwt>
<rscale>  0 0.12501244E+03</rscale>
<asrwt>0</asrwt>
<pdfrwt beam="2">  1        4 0.71600531E-01 0.12501244E+03</pdfrwt>
<pdfrwt beam="1">  1       -4 0.34104389E-02 0.12501244E+03</pdfrwt>
<totfact> 0.12966129E+03</totfact>
</mgrwt>
</event>
<event>
 5    1  0.1430314E-002  0.1250017E+03  0.7818608E-02  0.1235067E+00
         -4   -1    0    0    0  501 -0.00000000000E+00  0.00000000000E+00  0.14630541749E+03  0.14631092948E+03  0.12700000000E+01 0. -1.
          4   -1    0    0  501    0  0.00000000000E+00 -0.00000000000E+00 -0.26678873216E+02  0.26709084149E+02  0.12700000000E+01 0. -1.
         25    2    1    2    0    0  0.00000000000E+00  0.00000000000E+00  0.11962654427E+03  0.17302001363E+03  0.12500166008E+03 0.  0.
    9000005    1    3    3    0    0 -0.30841053357E+02 -0.49274019781E+02  0.91565801871E+02  0.10846379889E+03  0.10000000000E+01 0.  0.
    9000005    1    3    3    0    0  0.30841053357E+02  0.49274019781E+02  0.28060742398E+02  0.64556214739E+02  0.10000000000E+01 0.  0.
<mgrwt>
<rscale>  0 0.12500166E+03</rscale>
<asrwt>0</asrwt>
<pdfrwt beam="2">  1        4 0.66741838E-02 0.12500166E+03</pdfrwt>
<pdfrwt beam="1">  1       -4 0.36580819E-01 0.12500166E+03</pdfrwt>
<totfact> 0.17461013E+03</totfact>
</mgrwt>
</event>
<event>
 5    1  0.1430314E-002  0.1250015E+03  0.7818608E-02  0.1235067E+00
         -4   -1    0    0    0  501 -0.00000000000E+00  0.00000000000E+00  0.15351444277E+03  0.15351969594E+03  0.12700000000E+01 0. -1.
          4   -1    0    0  501    0  0.00000000000E+00 -0.00000000000E+00 -0.25424560830E+02  0.25456260397E+02  0.12700000000E+01 0. -1.
         25    2    1    2    0    0  0.00000000000E+00  0.00000000000E+00  0.12808988194E+03  0.17897595633E+03  0.12500150035E+03 0.  0.
    9000005    1    3    3    0    0  0.14679070371E+02  0.53274739433E+02  0.22260427895E+02  0.59583551578E+02  0.10000000000E+01 0.  0.
    9000005    1    3    3    0    0 -0.14679070371E+02 -0.53274739433E+02  0.10582945405E+03  0.11939240475E+03  0.10000000000E+01 0.  0.
<mgrwt>
<rscale>  0 0.12500150E+03</rscale>
<asrwt>0</asrwt>
<pdfrwt beam="2">  1        4 0.63607594E-02 0.12500150E+03</pdfrwt>
<pdfrwt beam="1">  1       -4 0.38383229E-01 0.12500150E+03</pdfrwt>
<totfact> 0.17199032E+03</totfact>
</mgrwt>
</event>
<event>
 5    1  0.1430314E-002  0.1249981E+03  0.7818608E-02  0.1235072E+00
         -4   -1    0    0    0  501 -0.00000000000E+00  0.00000000000E+00  0.21462650982E+03  0.21463026724E+03  0.12700000000E+01 0.  1.
          4   -1    0    0  501    0  0.00000000000E+00 -0.00000000000E+00 -0.18173589765E+02  0.18217910553E+02  0.12700000000E+01 0.  1.
         25    2    1    2    0    0  0.00000000000E+00  0.00000000000E+00  0.19645292006E+03  0.23284817780E+03  0.12499809641E+03 0.  0.
    9000005    1    3    3    0    0  0.54751598967E+02 -0.25210132704E+02  0.12893988428E+03  0.14233686149E+03  0.10000000000E+01 0.  0.
    9000005    1    3    3    0    0 -0.54751598967E+02  0.25210132704E+02  0.67513035775E+02  0.90511316309E+02  0.10000000000E+01 0.  0.
<mgrwt>
<rscale>  0 0.12499810E+03</rscale>
<asrwt>0</asrwt>
<pdfrwt beam="2">  1        4 0.45494074E-02 0.12499810E+03</pdfrwt>
<pdfrwt beam="1">  1       -4 0.53662636E-01 0.12499810E+03</pdfrwt>
<totfact> 0.15086733E+03</totfact>
</mgrwt>
</event>
<event>
 5    1  0.1430314E-002  0.1249977E+03  0.7818608E-02  0.1235073E+00
          4   -1    0    0  501    0  0.00000000000E+00  0.00000000000E+00  0.56174660726E+01  0.57592382376E+01  0.12700000000E+01 0.  1.
         -4   -1    0    0    0  501 -0.00000000000E+00 -0.00000000000E+00 -0.68654248730E+03  0.68654366196E+03  0.12700000000E+01 0.  1.
         25    2    1    2    0    0  0.00000000000E+00  0.00000000000E+00 -0.68092502123E+03  0.69230290020E+03  0.12499768430E+03 0.  0.
    9000005    1    3    3    0    0 -0.64595008798E+01 -0.83771392487E+01  0.64969839680E+00  0.10645361507E+02  0.10000000000E+01 0.  0.
    9000005    1    3    3    0    0  0.64595008798E+01  0.83771392487E+01 -0.68157471963E+03  0.68165753869E+03  0.10000000000E+01 0.  0.
<mgrwt>
<rscale>  0 0.12499768E+03</rscale>
<asrwt>0</asrwt>
<pdfrwt beam="1">  1        4 0.14222372E-02 0.12499768E+03</pdfrwt>
<pdfrwt beam="2">  1       -4 0.17165321E+00 0.12499768E+03</pdfrwt>
<totfact> 0.62873722E+02</totfact>
</mgrwt>
</event>
<event>
 5    1  0.1430314E-002  0.1249950E+03  0.7818608E-02  0.1235077E+00
          4   -1    0    0  501    0  0.00000000000E+00  0.00000000000E+00  0.13303449481E+03  0.13304055664E+03  0.12700000000E+01 0.  1.
         -4   -1    0    0    0  501 -0.00000000000E+00 -0.00000000000E+00 -0.29339888098E+02  0.29367361706E+02  0.12700000000E+01 0.  1.
         25    2    1    2    0    0  0.00000000000E+00  0.00000000000E+00  0.10369460672E+03  0.16240791834E+03  0.12499504182E+03 0.  0.
    9000005    1    3    3    0    0 -0.56492037423E+01  0.11903558145E+02  0.13121547126E+03  0.13187914201E+03  0.10000000000E+01 0.  0.
    9000005    1    3    3    0    0  0.56492037423E+01 -0.11903558145E+02 -0.27520864541E+02  0.30528776336E+02  0.10000000000E+01 0.  0.
<mgrwt>
<rscale>  0 0.12499504E+03</rscale>
<asrwt>0</asrwt>
<pdfrwt beam="1">  1        4 0.33262815E-01 0.12499504E+03</pdfrwt>
<pdfrwt beam="2">  1       -4 0.73391641E-02 0.12499504E+03</pdfrwt>
<totfact> 0.17947087E+03</totfact>
</mgrwt>
</event>
<event>
 5    1  0.1430314E-002  0.1250071E+03  0.7818608E-02  0.1235058E+00
         -4   -1    0    0    0  501 -0.00000000000E+00  0.00000000000E+00  0.41627603972E+02  0.41646972428E+02  0.12700000000E+01 0.  1.
          4   -1    0    0  501    0  0.00000000000E+00 -0.00000000000E+00 -0.93803065342E+02  0.93811662215E+02  0.12700000000E+01 0.  1.
         25    2    1    2    0    0  0.00000000000E+00  0.00000000000E+00 -0.52175461371E+02  0.13545863464E+03  0.12500705152E+03 0.  0.
    9000005    1    3    3    0    0  0.45123381714E+02  0.20048641439E+02  0.15424823559E+02  0.51739663535E+02  0.10000000000E+01 0.  0.
    9000005    1    3    3    0    0 -0.45123381714E+02 -0.20048641439E+02 -0.67600284930E+02  0.83718971109E+02  0.10000000000E+01 0.  0.
<mgrwt>
<rscale>  0 0.12500705E+03</rscale>
<asrwt>0</asrwt>
<pdfrwt beam="2">  1        4 0.23454262E-01 0.12500705E+03</pdfrwt>
<pdfrwt beam="1">  1       -4 0.10410397E-01 0.12500705E+03</pdfrwt>
<totfact> 0.19271971E+03</totfact>
</mgrwt>
</event>
<event>
 5    1  0.1430314E-002  0.1250000E+03  0.7818608E-02  0.1235069E+00
          4   -1    0    0  501    0  0.00000000000E+00  0.00000000000E+00  0.11737579454E+03  0.11738266501E+03  0.12700000000E+01 0. -1.
         -4   -1    0    0    0  501 -0.00000000000E+00 -0.00000000000E+00 -0.33259908054E+02  0.33284146132E+02  0.12700000000E+01 0. -1.
         25    2    1    2    0    0  0.00000000000E+00  0.00000000000E+00  0.84115886487E+02  0.15066681114E+03  0.12500002248E+03 0.  0.
    9000005    1    3    3    0    0  0.52406912334E+02  0.33854571452E+02  0.46342382915E+02  0.77725368592E+02  0.10000000000E+01 0.  0.
    9000005    1    3    3    0    0 -0.52406912334E+02 -0.33854571452E+02  0.37773503572E+02  0.72941442546E+02  0.10000000000E+01 0.  0.
<mgrwt>
<rscale>  0 0.12500002E+03</rscale>
<asrwt>0</asrwt>
<pdfrwt beam="1">  1        4 0.29347837E-01 0.12500002E+03</pdfrwt>
<pdfrwt beam="2">  1       -4 0.83188656E-02 0.12500002E+03</pdfrwt>
<totfact> 0.18506033E+03</totfact>
</mgrwt>
</event>
<event>
 5    1  0.1430314E-002  0.1249997E+03  0.7818608E-02  0.1235070E+00
         -4   -1    0    0    0  501 -0.00000000000E+00  0.00000000000E+00  0.18022259693E+03  0.18022707162E+03  0.12700000000E+01 0.  1.
          4   -1    0    0  501    0  0.00000000000E+00 -0.00000000000E+00 -0.21651128298E+02  0.21688343795E+02  0.12700000000E+01 0.  1.
         25    2    1    2    0    0  0.00000000000E+00  0.00000000000E+00  0.15857146864E+03  0.20191541542E+03  0.12499969727E+03 0.  0.
    9000005    1    3    3    0    0 -0.55051749681E+02  0.24304157200E+02  0.52071239149E+02  0.79585181702E+02  0.10000000000E+01 0.  0.
    9000005    1    3    3    0    0  0.55051749681E+02 -0.24304157200E+02  0.10650022949E+03  0.12233023372E+03  0.10000000000E+01 0.  0.
<mgrwt>
<rscale>  0 0.12499970E+03</rscale>
<asrwt>0</asrwt>
<pdfrwt beam="2">  1        4 0.54179935E-02 0.12499970E+03</pdfrwt>
<pdfrwt beam="1">  1       -4 0.45060860E-01 0.12499970E+03</pdfrwt>
<totfact> 0.16245745E+03</totfact>
</mgrwt>
</event>
<event>
 5    1  0.1430314E-002  0.1250011E+03  0.7818608E-02  0.1235068E+00
          4   -1    0    0  501    0  0.00000000000E+00  0.00000000000E+00  0.50886789188E+02  0.50902634645E+02  0.12700000000E+01 0. -1.
         -4   -1    0    0    0  501 -0.00000000000E+00 -0.00000000000E+00 -0.76731778104E+02  0.76742287372E+02  0.12700000000E+01 0. -1.
         25    2    1    2    0    0  0.00000000000E+00  0.00000000000E+00 -0.25844988917E+02  0.12764492202E+03  0.12500105065E+03 0.  0.
    9000005    1    3    3    0    0 -0.94097807557E+01  0.51770307517E+02 -0.47349165760E+02  0.70793023755E+02  0.10000000000E+01 0.  0.
    9000005    1    3    3    0    0  0.94097807557E+01 -0.51770307517E+02  0.21504176844E+02  0.56851898262E+02  0.10000000000E+01 0.  0.
<mgrwt>
<rscale>  0 0.12500105E+03</rscale>
<asrwt>0</asrwt>
<pdfrwt beam="1">  1        4 0.12724992E-01 0.12500105E+03</pdfrwt>
<pdfrwt beam="2">  1       -4 0.19186239E-01 0.12500105E+03</pdfrwt>
<totfact> 0.19691394E+03</totfact>
</mgrwt>
</event>
<event>
 5    1  0.1430314E-002  0.1250048E+03  0.7818608E-02  0.1235062E+00
         -4   -1    0    0    0  501 -0.00000000000E+00  0.00000000000E+00  0.72160122993E+01  0.73269184179E+01  0.12700000000E+01 0.  1.
          4   -1    0    0  501    0  0.00000000000E+00 -0.00000000000E+00 -0.53713224698E+03  0.53713374838E+03  0.12700000000E+01 0.  1.
         25    2    1    2    0    0  0.00000000000E+00  0.00000000000E+00 -0.52991623468E+03  0.54446066679E+03  0.12500480754E+03 0.  0.
    9000005    1    3    3    0    0 -0.60059787377E+02  0.17034735453E+02 -0.27742297123E+03  0.28436220783E+03  0.10000000000E+01 0.  0.
    9000005    1    3    3    0    0  0.60059787377E+02 -0.17034735453E+02 -0.25249326345E+03  0.26009845897E+03  0.10000000000E+01 0.  0.
<mgrwt>
<rscale>  0 0.12500481E+03</rscale>
<asrwt>0</asrwt>
<pdfrwt beam="2">  1        4 0.13429698E+00 0.12500481E+03</pdfrwt>
<pdfrwt beam="1">  1       -4 0.18180558E-02 0.12500481E+03</pdfrwt>
<totfact> 0.80935086E+02</totfact>
</mgrwt>
</event>
<event>
 5    1  0.1430314E-002  0.1249909E+03  0.7818608E-02  0.1235084E+00
         -4   -1    0    0    0  501 -0.00000000000E+00  0.00000000000E+00  0.61875867985E+02  0.61888899965E+02  0.12700000000E+01 0. -1.
          4   -1    0    0  501    0  0.00000000000E+00 -0.00000000000E+00 -0.63095142423E+02  0.63107922620E+02  0.12700000000E+01 0. -1.
         25    2    1    2    0    0  0.00000000000E+00  0.00000000000E+00 -0.12192744378E+01  0.12499682259E+03  0.12499087577E+03 0.  0.
    9000005    1    3    3    0    0  0.49452247043E+02 -0.21455196363E+02 -0.32215405914E+02  0.62806707976E+02  0.10000000000E+01 0.  0.
    9000005    1    3    3    0    0 -0.49452247043E+02  0.21455196363E+02  0.30996131476E+02  0.62190114609E+02  0.10000000000E+01 0.  0.
<mgrwt>
<rscale>  0 0.12499088E+03</rscale>
<asrwt>0</asrwt>
<pdfrwt beam="2">  1        4 0.15777012E-01 0.12499088E+03</pdfrwt>
<pdfrwt beam="1">  1       -4 0.15472194E-01 0.12499088E+03</pdfrwt>
<totfact> 0.19839463E+03</totfact>
</mgrwt>
</event>
<event>
 5    1  0.1430314E-002  0.1250012E+03  0.7818608E-02  0.1235067E+00
          4   -1    0    0  501    0  0.00000000000E+00  0.00000000000E+00  0.38715194447E+02  0.38736019169E+02  0.12700000000E+01 0.  1.
         -4   -1    0    0    0  501 -0.00000000000E+00 -0.00000000000E+00 -0.10084702905E+03  0.10085502550E+03  0.12700000000E+01 0.  1.
         25    2    1    2    0    0  0.00000000000E+00  0.00000000000E+00 -0.62131834607E+02  0.13959104467E+03  0.12500117952E+03 0.  0.
    9000005    1    3    3    0    0  0.19171956463E+02  0.20243629571E+02  0.31390017527E+02  0.41996448102E+02  0.10000000000E+01 0.  0.
    9000005    1    3    3    0    0 -0.19171956463E+02 -0.20243629571E+02 -0.93521852134E+02  0.97594596569E+02  0.10000000000E+01 0.  0.
<mgrwt>
<rscale>  0 0.12500118E+03</rscale>
<asrwt>0</asrwt>
<pdfrwt beam="1">  1        4 0.96824015E-02 0.12500118E+03</pdfrwt>
<pdfrwt beam="2">  1       -4 0.25215359E-01 0.12500118E+03</pdfrwt>
<totfact> 0.19060759E+03</totfact>
</mgrwt>
</event>
<event>
 5    1  0.1430314E-002  0.1249941E+03  0.7818608E-02  0.1235078E+00
         -4   -1    0    0    0  501 -0.00000000000E+00  0.00000000000E+00  0.29308032282E+02  0.29335535725E+02  0.12700000000E+01 0. -1.
          4   -1    0    0  501    0  0.00000000000E+00 -0.00000000000E+00 -0.13317698904E+03  0.13318304437E+03  0.12700000000E+01 0. -1.
         25    2    1    2    0    0  0.00000000000E+00  0.00000000000E+00 -0.10386895675E+03  0.16251858010E+03  0.12499411466E+03 0.  0.
    9000005    1    3    3    0    0 -0.40239603595E+02 -0.44298313398E+02 -0.75313535447E+02  0.96201324777E+02  0.10000000000E+01 0.  0.
    9000005    1    3    3    0    0  0.40239603595E+02  0.44298313398E+02 -0.28555421308E+02  0.66317255322E+02  0.10000000000E+01 0.  0.
<mgrwt>
<rscale>  0 0.12499411E+03</rscale>
<asrwt>0</asrwt>
<pdfrwt beam="2">  1        4 0.33298440E-01 0.12499411E+03</pdfrwt>
<pdfrwt beam="1">  1       -4 0.73312033E-02 0.12499411E+03</pdfrwt>
<totfact> 0.17942320E+03</totfact>
</mgrwt>
</event>
<event>
 5    1  0.1430314E-002  0.1250026E+03  0.7818608E-02  0.1235065E+00
         -4   -1    0    0    0  501 -0.00000000000E+00  0.00000000000E+00  0.12354698486E+03  0.12355351216E+03  0.12700000000E+01 0.  1.
          4   -1    0    0  501    0  0.00000000000E+00 -0.00000000000E+00 -0.31598727807E+02  0.31624239105E+02  0.12700000000E+01 0.  1.
         25    2    1    2    0    0  0.00000000000E+00  0.00000000000E+00  0.91948257053E+02  0.15517775127E+03  0.12500261003E+03 0.  0.
    9000005    1    3    3    0    0  0.25680640183E+02  0.45896058226E+02  0.87878734485E+02  0.10241882354E+03  0.10000000000E+01 0.  0.
    9000005    1    3    3    0    0 -0.25680640183E+02 -0.45896058226E+02  0.40695225671E+01  0.52758927726E+02  0.10000000000E+01 0.  0.
<mgrwt>
<rscale>  0 0.12500261E+03</rscale>
<asrwt>0</asrwt>
<pdfrwt beam="2">  1        4 0.79036868E-02 0.12500261E+03</pdfrwt>
<pdfrwt beam="1">  1       -4 0.30890751E-01 0.12500261E+03</pdfrwt>
<totfact> 0.18285976E+03</totfact>
</mgrwt>
</event>
<event>
 5    1  0.1430314E-002  0.1249994E+03  0.7818608E-02  0.1235070E+00
         -4   -1    0    0    0  501 -0.00000000000E+00  0.00000000000E+00  0.10970975747E+02  0.11044238717E+02  0.12700000000E+01 0. -1.
          4   -1    0    0  501    0  0.00000000000E+00 -0.00000000000E+00 -0.35479056991E+03  0.35479284293E+03  0.12700000000E+01 0. -1.
         25    2    1    2    0    0  0.00000000000E+00  0.00000000000E+00 -0.34381959416E+03  0.36583708165E+03  0.12499942792E+03 0.  0.
    9000005    1    3    3    0    0 -0.56192264257E+02  0.19675280532E+02 -0.11633874650E+03  0.13069197054E+03  0.10000000000E+01 0.  0.
    9000005    1    3    3    0    0  0.56192264257E+02 -0.19675280532E+02 -0.22748084766E+03  0.23514511111E+03  0.10000000000E+01 0.  0.
<mgrwt>
<rscale>  0 0.12499943E+03</rscale>
<asrwt>0</asrwt>
<pdfrwt beam="2">  1        4 0.88707047E-01 0.12499943E+03</pdfrwt>
<pdfrwt beam="1">  1       -4 0.27521871E-02 0.12499943E+03</pdfrwt>
<totfact> 0.11308658E+03</totfact>
</mgrwt>
</event>
<event>
 5    1  0.1430314E-002  0.1249966E+03  0.7818608E-02  0.1235075E+00
          4   -1    0    0  501    0  0.00000000000E+00  0.00000000000E+00  0.13351292521E+02  0.13411558895E+02  0.12700000000E+01 0.  1.
         -4   -1    0    0    0  501 -0.00000000000E+00 -0.00000000000E+00 -0.29183812938E+03  0.29184089271E+03  0.12700000000E+01 0.  1.
         25    2    1    2    0    0  0.00000000000E+00  0.00000000000E+00 -0.27848683686E+03  0.30525245161E+03  0.12499656359E+03 0.  0.
    9000005    1    3    3    0    0 -0.45501134326E+02 -0.33555693000E+02 -0.74231717594E+02  0.93314980869E+02  0.10000000000E+01 0.  0.
    9000005    1    3    3    0    0  0.45501134326E+02  0.33555693000E+02 -0.20425511926E+03  0.21193747074E+03  0.10000000000E+01 0.  0.
<mgrwt>
<rscale>  0 0.12499656E+03</rscale>
<asrwt>0</asrwt>
<pdfrwt beam="1">  1        4 0.33457028E-02 0.12499656E+03</pdfrwt>
<pdfrwt beam="2">  1       -4 0.72967390E-01 0.12499656E+03</pdfrwt>
<totfact> 0.12826124E+03</totfact>
</mgrwt>
</event>
<event>
 5    1  0.1430314E-002  0.1250361E+03  0.7818608E-02  0.1235013E+00
          4   -1    0    0  501    0  0.00000000000E+00  0.00000000000E+00  0.26771622227E+02  0.26801728613E+02  0.12700000000E+01 0.  1.
         -4   -1    0    0    0  501 -0.00000000000E+00 -0.00000000000E+00 -0.14587936004E+03  0.14588488813E+03  0.12700000000E+01 0.  1.
         25    2    1    2    0    0  0.00000000000E+00  0.00000000000E+00 -0.11910773781E+03  0.17268661674E+03  0.12503605238E+03 0.  0.
    9000005    1    3    3    0    0  0.33928870640E+02 -0.40045706866E+02 -0.10644353974E+03  0.11868468331E+03  0.10000000000E+01 0.  0.
    9000005    1    3    3    0    0 -0.33928870640E+02  0.40045706866E+02 -0.12664198072E+02  0.54001933429E+02  0.10000000000E+01 0.  0.
<mgrwt>
<rscale>  0 0.12503605E+03</rscale>
<asrwt>0</asrwt>
<pdfrwt beam="1">  1        4 0.66973603E-02 0.12503605E+03</pdfrwt>
<pdfrwt beam="2">  1       -4 0.36474292E-01 0.12503605E+03</pdfrwt>
<totfact> 0.17461933E+03</totfact>
</mgrwt>
</event>
<event>
 5    1  0.1430314E-002  0.1250150E+03  0.7818608E-02  0.1235046E+00
         -4   -1    0    0    0  501 -0.00000000000E+00  0.00000000000E+00  0.24451624772E+03  0.24451954584E+03  0.12700000000E+01 0. -1.
          4   -1    0    0  501    0  0.00000000000E+00 -0.00000000000E+00 -0.15950615575E+02  0.16001094876E+02  0.12700000000E+01 0. -1.
         25    2    1    2    0    0  0.00000000000E+00  0.00000000000E+00  0.22856563214E+03  0.26052064072E+03  0.12501502327E+03 0.  0.
    9000005    1    3    3    0    0  0.22966916002E+02  0.44509984820E+02  0.36377538985E+02  0.61910769031E+02  0.10000000000E+01 0.  0.
    9000005    1    3    3    0    0 -0.22966916002E+02 -0.44509984820E+02  0.19218809316E+03  0.19860987169E+03  0.10000000000E+01 0.  0.
<mgrwt>
<rscale>  0 0.12501502E+03</rscale>
<asrwt>0</asrwt>
<pdfrwt beam="2">  1        4 0.39943760E-02 0.12501502E+03</pdfrwt>
<pdfrwt beam="1">  1       -4 0.61135785E-01 0.12501502E+03</pdfrwt>
<totfact> 0.14149562E+03</totfact>
</mgrwt>
</event>
<event>
 5    1  0.1430314E-002  0.1249985E+03  0.7818608E-02  0.1235072E+00
          4   -1    0    0  501    0  0.00000000000E+00  0.00000000000E+00  0.11744024545E+03  0.11744711215E+03  0.12700000000E+01 0. -1.
         -4   -1    0    0    0  501 -0.00000000000E+00 -0.00000000000E+00 -0.33240816849E+02  0.33265068838E+02  0.12700000000E+01 0. -1.
         25    2    1    2    0    0  0.00000000000E+00  0.00000000000E+00  0.84199428604E+02  0.15071218099E+03  0.12499847087E+03 0.  0.
    9000005    1    3    3    0    0  0.20976945882E+02 -0.37677556788E+02  0.96631024452E+02  0.10582147906E+03  0.10000000000E+01 0.  0.
    9000005    1    3    3    0    0 -0.20976945882E+02  0.37677556788E+02 -0.12431595848E+02  0.44890701926E+02  0.10000000000E+01 0.  0.
<mgrwt>
<rscale>  0 0.12499847E+03</rscale>
<asrwt>0</asrwt>
<pdfrwt beam="1">  1        4 0.29363951E-01 0.12499847E+03</pdfrwt>
<pdfrwt beam="2">  1       -4 0.83140941E-02 0.12499847E+03</pdfrwt>
<totfact> 0.18504477E+03</totfact>
</mgrwt>
</event>
<event>
 5    1  0.1430314E-002  0.1249983E+03  0.7818608E-02  0.1235072E+00
          4   -1    0    0  501    0  0.00000000000E+00  0.00000000000E+00  0.41740678197E+01  0.43629969246E+01  0.12700000000E+01 0.  1.
         -4   -1    0    0    0  501 -0.00000000000E+00 -0.00000000000E+00 -0.91491358409E+03  0.91491446554E+03  0.12700000000E+01 0.  1.
         25    2    1    2    0    0  0.00000000000E+00  0.00000000000E+00 -0.91073951627E+03  0.91927746246E+03  0.12499834598E+03 0.  0.
    9000005    1    3    3    0    0  0.23251778406E+02  0.34674097421E+02 -0.79734220903E+03  0.79843505468E+03  0.10000000000E+01 0.  0.
    9000005    1    3    3    0    0 -0.23251778406E+02 -0.34674097421E+02 -0.11339730723E+03  0.12084240778E+03  0.10000000000E+01 0.  0.
<mgrwt>
<rscale>  0 0.12499835E+03</rscale>
<asrwt>0</asrwt>
<pdfrwt beam="1">  1        4 0.10672464E-02 0.12499835E+03</pdfrwt>
<pdfrwt beam="2">  1       -4 0.22875145E+00 0.12499835E+03</pdfrwt>
<totfact> 0.42824404E+02</totfact>
</mgrwt>
</event>
<event>
 5    1  0.1430314E-002  0.1250013E+03  0.7818608E-02  0.1235067E+00
          4   -1    0    0  501    0  0.00000000000E+00  0.00000000000E+00  0.56408257209E+02  0.56422552063E+02  0.12700000000E+01 0. -1.
         -4   -1    0    0    0  501 -0.00000000000E+00 -0.00000000000E+00 -0.69222145079E+02  0.69233794272E+02  0.12700000000E+01 0. -1.
         25    2    1    2    0    0  0.00000000000E+00  0.00000000000E+00 -0.12813887870E+02  0.12565634634E+03  0.12500128660E+03 0.  0.
    9000005    1    3    3    0    0  0.55227127786E+01 -0.24846084998E+02 -0.63780569919E+02  0.68678886096E+02  0.10000000000E+01 0.  0.
    9000005    1    3    3    0    0 -0.55227127786E+01  0.24846084998E+02  0.50966682049E+02  0.56977460239E+02  0.10000000000E+01 0.  0.
<mgrwt>
<rscale>  0 0.12500129E+03</rscale>
<asrwt>0</asrwt>
<pdfrwt beam="1">  1        4 0.14105307E-01 0.12500129E+03</pdfrwt>
<pdfrwt beam="2">  1       -4 0.17308779E-01 0.12500129E+03</pdfrwt>
<totfact> 0.19798906E+03</totfact>
</mgrwt>
</event>
<event>
 5    1  0.1430314E-002  0.1250005E+03  0.7818608E-02  0.1235069E+00
         -4   -1    0    0    0  501 -0.00000000000E+00  0.00000000000E+00  0.36206219205E+02  0.36228486156E+02  0.12700000000E+01 0. -1.
          4   -1    0    0  501    0  0.00000000000E+00 -0.00000000000E+00 -0.10783057448E+03  0.10783805309E+03  0.12700000000E+01 0. -1.
         25    2    1    2    0    0  0.00000000000E+00  0.00000000000E+00 -0.71624355277E+02  0.14406653924E+03  0.12500047784E+03 0.  0.
    9000005    1    3    3    0    0 -0.13531916319E+02 -0.50724372947E+02 -0.74882790342E+02  0.91457679063E+02  0.10000000000E+01 0.  0.
    9000005    1    3    3    0    0  0.13531916319E+02  0.50724372947E+02  0.32584350656E+01  0.52608860178E+02  0.10000000000E+01 0.  0.
<mgrwt>
<rscale>  0 0.12500048E+03</rscale>
<asrwt>0</asrwt>
<pdfrwt beam="2">  1        4 0.26961361E-01 0.12500048E+03</pdfrwt>
<pdfrwt beam="1">  1       -4 0.90552732E-02 0.12500048E+03</pdfrwt>
<totfact> 0.18833991E+03</totfact>
</mgrwt>
</event>
<event>
 5    1  0.1430314E-002  0.1250051E+03  0.7818608E-02  0.1235061E+00
         -4   -1    0    0    0  501 -0.00000000000E+00  0.00000000000E+00  0.81408527830E+01  0.82393193915E+01  0.12700000000E+01 0. -1.
          4   -1    0    0  501    0  0.00000000000E+00 -0.00000000000E+00 -0.47688841707E+03  0.47689010814E+03  0.12700000000E+01 0. -1.
         25    2    1    2    0    0  0.00000000000E+00  0.00000000000E+00 -0.46874756429E+03  0.48512942753E+03  0.12500512960E+03 0.  0.
    9000005    1    3    3    0    0 -0.45370963277E+02  0.31888002432E+02 -0.12255324675E+03  0.13452013714E+03  0.10000000000E+01 0.  0.
    9000005    1    3    3    0    0  0.45370963277E+02 -0.31888002432E+02 -0.34619431754E+03  0.35060929039E+03  0.10000000000E+01 0.  0.
<mgrwt>
<rscale>  0 0.12500513E+03</rscale>
<asrwt>0</asrwt>
<pdfrwt beam="2">  1        4 0.11923453E+00 0.12500513E+03</pdfrwt>
<pdfrwt beam="1">  1       -4 0.20477345E-02 0.12500513E+03</pdfrwt>
<totfact> 0.90009395E+02</totfact>
</mgrwt>
</event>
<event>
 5    1  0.1430314E-002  0.1250001E+03  0.7818608E-02  0.1235069E+00
         -4   -1    0    0    0  501 -0.00000000000E+00  0.00000000000E+00  0.21716417476E+03  0.21716788828E+03  0.12700000000E+01 0. -1.
          4   -1    0    0  501    0  0.00000000000E+00 -0.00000000000E+00 -0.17961269127E+02  0.18006112535E+02  0.12700000000E+01 0. -1.
         25    2    1    2    0    0  0.00000000000E+00  0.00000000000E+00  0.19920290564E+03  0.23517400082E+03  0.12500005218E+03 0.  0.
    9000005    1    3    3    0    0  0.39603638697E+02  0.22118687592E+02  0.18732947915E+02  0.49087756890E+02  0.10000000000E+01 0.  0.
    9000005    1    3    3    0    0 -0.39603638697E+02 -0.22118687592E+02  0.18046995772E+03  0.18608624393E+03  0.10000000000E+01 0.  0.
<mgrwt>
<rscale>  0 0.12500005E+03</rscale>
<asrwt>0</asrwt>
<pdfrwt beam="2">  1        4 0.44963869E-02 0.12500005E+03</pdfrwt>
<pdfrwt beam="1">  1       -4 0.54297113E-01 0.12500005E+03</pdfrwt>
<totfact> 0.15004160E+03</totfact>
</mgrwt>
</event>
<event>
 5    1  0.1430314E-002  0.1249985E+03  0.7818608E-02  0.1235072E+00
          4   -1    0    0  501    0  0.00000000000E+00  0.00000000000E+00  0.16394315693E+03  0.16394807594E+03  0.12700000000E+01 0. -1.
         -4   -1    0    0    0  501 -0.00000000000E+00 -0.00000000000E+00 -0.23804071885E+02  0.23837926468E+02  0.12700000000E+01 0. -1.
         25    2    1    2    0    0  0.00000000000E+00  0.00000000000E+00  0.14013908504E+03  0.18778600241E+03  0.12499847816E+03 0.  0.
    9000005    1    3    3    0    0 -0.50202995245E+02  0.36904047107E+02  0.77259527974E+02  0.99258672605E+02  0.10000000000E+01 0.  0.
    9000005    1    3    3    0    0  0.50202995245E+02 -0.36904047107E+02  0.62879557069E+02  0.88527329801E+02  0.10000000000E+01 0.  0.
<mgrwt>
<rscale>  0 0.12499848E+03</rscale>
<asrwt>0</asrwt>
<pdfrwt beam="1">  1        4 0.40990636E-01 0.12499848E+03</pdfrwt>
<pdfrwt beam="2">  1       -4 0.59558647E-02 0.12499848E+03</pdfrwt>
<totfact> 0.16823674E+03</totfact>
</mgrwt>
</event>
<event>
 5    1  0.1430314E-002  0.1250010E+03  0.7818608E-02  0.1235068E+00
          4   -1    0    0  501    0  0.00000000000E+00  0.00000000000E+00  0.23261322596E+03  0.23261669285E+03  0.12700000000E+01 0.  1.
         -4   -1    0    0    0  501 -0.00000000000E+00 -0.00000000000E+00 -0.16765565347E+02  0.16813598110E+02  0.12700000000E+01 0.  1.
         25    2    1    2    0    0  0.00000000000E+00  0.00000000000E+00  0.21584766061E+03  0.24943029096E+03  0.12500102982E+03 0.  0.
    9000005    1    3    3    0    0  0.49140707116E+02  0.37936566478E+02  0.93628697318E+02  0.11234467114E+03  0.10000000000E+01 0.  0.
    9000005    1    3    3    0    0 -0.49140707116E+02 -0.37936566478E+02  0.12221896330E+03  0.13708561982E+03  0.10000000000E+01 0.  0.
<mgrwt>
<rscale>  0 0.12500103E+03</rscale>
<asrwt>0</asrwt>
<pdfrwt beam="1">  1        4 0.58159743E-01 0.12500103E+03</pdfrwt>
<pdfrwt beam="2">  1       -4 0.41978289E-02 0.12500103E+03</pdfrwt>
<totfact> 0.14516615E+03</totfact>
</mgrwt>
</event>
<event>
 5    1  0.1430314E-002  0.1249754E+03  0.7818608E-02  0.1235108E+00
         -4   -1    0    0    0  501 -0.00000000000E+00  0.00000000000E+00  0.67247462544E+02  0.67259453749E+02  0.12700000000E+01 0.  1.
          4   -1    0    0  501    0  0.00000000000E+00 -0.00000000000E+00 -0.58040696983E+02  0.58054589881E+02  0.12700000000E+01 0.  1.
         25    2    1    2    0    0  0.00000000000E+00  0.00000000000E+00  0.92067655613E+01  0.12531404363E+03  0.12497537757E+03 0.  0.
    9000005    1    3    3    0    0  0.45239459076E+02  0.85076087027E+01  0.46963847843E+02  0.65769225840E+02  0.10000000000E+01 0.  0.
    9000005    1    3    3    0    0 -0.45239459076E+02 -0.85076087027E+01 -0.37757082282E+02  0.59544817791E+02  0.10000000000E+01 0.  0.
<mgrwt>
<rscale>  0 0.12497538E+03</rscale>
<asrwt>0</asrwt>
<pdfrwt beam="2">  1        4 0.14513410E-01 0.12497538E+03</pdfrwt>
<pdfrwt beam="1">  1       -4 0.16815101E-01 0.12497538E+03</pdfrwt>
<totfact> 0.19829455E+03</totfact>
</mgrwt>
</event>
<event>
 5    1  0.1430314E-002  0.1250018E+03  0.7818608E-02  0.1235067E+00
          4   -1    0    0  501    0  0.00000000000E+00  0.00000000000E+00  0.91660445919E+02  0.91669243730E+02  0.12700000000E+01 0. -1.
         -4   -1    0    0    0  501 -0.00000000000E+00 -0.00000000000E+00 -0.42597424489E+02  0.42616352179E+02  0.12700000000E+01 0. -1.
         25    2    1    2    0    0  0.00000000000E+00  0.00000000000E+00  0.49063021430E+02  0.13428559591E+03  0.12500176478E+03 0.  0.
    9000005    1    3    3    0    0  0.50368063820E+02 -0.12086096030E+02  0.62090174958E+02  0.80865353499E+02  0.10000000000E+01 0.  0.
    9000005    1    3    3    0    0 -0.50368063820E+02  0.12086096030E+02 -0.13027153528E+02  0.53420242411E+02  0.10000000000E+01 0.  0.
<mgrwt>
<rscale>  0 0.12500176E+03</rscale>
<asrwt>0</asrwt>
<pdfrwt beam="1">  1        4 0.22918577E-01 0.12500176E+03</pdfrwt>
<pdfrwt beam="2">  1       -4 0.10652822E-01 0.12500176E+03</pdfrwt>
<totfact> 0.19335826E+03</totfact>
</mgrwt>
</event>
<event>
 5    1  0.1430314E-002  0.1249985E+03  0.7818608E-02  0.1235072E+00
          4   -1    0    0  501    0  0.00000000000E+00  0.00000000000E+00  0.20105531166E+03  0.20105932271E+03  0.12700000000E+01 0.  1.
         -4   -1    0    0    0  501 -0.00000000000E+00 -0.00000000000E+00 -0.19403291131E+02  0.19444809248E+02  0.12700000000E+01 0.  1.
         25    2    1    2    0    0  0.00000000000E+00  0.00000000000E+00  0.18165202053E+03  0.22050413195E+03  0.12499846258E+03 0.  0.
    9000005    1    3    3    0    0 -0.31404807072E+02 -0.25798054113E+02  0.17456478835E+03  0.17923634351E+03  0.10000000000E+01 0.  0.
    9000005    1    3    3    0    0  0.31404807072E+02  0.25798054113E+02  0.70872321825E+01  0.41267788447E+02  0.10000000000E+01 0.  0.
<mgrwt>
<rscale>  0 0.12499846E+03</rscale>
<asrwt>0</asrwt>
<pdfrwt beam="1">  1        4 0.50269518E-01 0.12499846E+03</pdfrwt>
<pdfrwt beam="2">  1       -4 0.48565140E-02 0.12499846E+03</pdfrwt>
<totfact> 0.15533213E+03</totfact>
</mgrwt>
</event>
<event>
 5    1  0.1430314E-002  0.1249672E+03  0.7818608E-02  0.1235120E+00
          4   -1    0    0  501    0  0.00000000000E+00  0.00000000000E+00  0.11651342149E+03  0.11652034281E+03  0.12700000000E+01 0.  1.
         -4   -1    0    0    0  501 -0.00000000000E+00 -0.00000000000E+00 -0.33488661650E+02  0.33512734283E+02  0.12700000000E+01 0.  1.
         25    2    1    2    0    0  0.00000000000E+00  0.00000000000E+00  0.83024759845E+02  0.15003307709E+03  0.12496724961E+03 0.  0.
    9000005    1    3    3    0    0  0.29532886864E+02  0.55030096863E+02  0.39539480444E+02  0.73924782591E+02  0.10000000000E+01 0.  0.
    9000005    1    3    3    0    0 -0.29532886864E+02 -0.55030096863E+02  0.43485279400E+02  0.76108294501E+02  0.10000000000E+01 0.  0.
<mgrwt>
<rscale>  0 0.12496725E+03</rscale>
<asrwt>0</asrwt>
<pdfrwt beam="1">  1        4 0.29132229E-01 0.12496725E+03</pdfrwt>
<pdfrwt beam="2">  1       -4 0.83760397E-02 0.12496725E+03</pdfrwt>
<totfact> 0.18551289E+03</totfact>
</mgrwt>
</event>
<event>
 5    1  0.1430314E-002  0.1250021E+03  0.7818608E-02  0.1235066E+00
         -4   -1    0    0    0  501 -0.00000000000E+00  0.00000000000E+00  0.15899465096E+03  0.15899972306E+03  0.12700000000E+01 0. -1.
          4   -1    0    0  501    0  0.00000000000E+00 -0.00000000000E+00 -0.24547386764E+02  0.24580217593E+02  0.12700000000E+01 0. -1.
         25    2    1    2    0    0  0.00000000000E+00  0.00000000000E+00  0.13444726419E+03  0.18357994065E+03  0.12500211103E+03 0.  0.
    9000005    1    3    3    0    0  0.44011484769E+02 -0.18677780484E+02  0.81219396021E+01  0.48506042699E+02  0.10000000000E+01 0.  0.
    9000005    1    3    3    0    0 -0.44011484769E+02  0.18677780484E+02  0.12632532459E+03  0.13507389795E+03  0.10000000000E+01 0.  0.
<mgrwt>
<rscale>  0 0.12500211E+03</rscale>
<asrwt>0</asrwt>
<pdfrwt beam="2">  1        4 0.61415846E-02 0.12500211E+03</pdfrwt>
<pdfrwt beam="1">  1       -4 0.39753400E-01 0.12500211E+03</pdfrwt>
<totfact> 0.17000512E+03</totfact>
</mgrwt>
</event>
<event>
 5    1  0.1430314E-002  0.1250005E+03  0.7818608E-02  0.1235068E+00
         -4   -1    0    0    0  501 -0.00000000000E+00  0.00000000000E+00  0.44428702047E+02  0.44446849895E+02  0.12700000000E+01 0. -1.
          4   -1    0    0  501    0  0.00000000000E+00 -0.00000000000E+00 -0.87881826254E+02  0.87891002303E+02  0.12700000000E+01 0. -1.
         25    2    1    2    0    0  0.00000000000E+00  0.00000000000E+00 -0.43453124208E+02  0.13233785220E+03  0.12500053248E+03 0.  0.
    9000005    1    3    3    0    0 -0.61299500325E+02  0.12145533356E+02 -0.22123481554E+02  0.66299254571E+02  0.10000000000E+01 0.  0.
    9000005    1    3    3    0    0  0.61299500325E+02 -0.12145533356E+02 -0.21329642654E+02  0.66038597626E+02  0.10000000000E+01 0.  0.
<mgrwt>
<rscale>  0 0.12500053E+03</rscale>
<asrwt>0</asrwt>
<pdfrwt beam="2">  1        4 0.21973872E-01 0.12500053E+03</pdfrwt>
<pdfrwt beam="1">  1       -4 0.11110591E-01 0.12500053E+03</pdfrwt>
<totfact> 0.19439263E+03</totfact>
</mgrwt>
</event>
<event>
 5    1  0.1430314E-002  0.1249984E+03  0.7818608E-02  0.1235072E+00
          4   -1    0    0  501    0  0.00000000000E+00  0.00000000000E+00  0.13939395060E+03  0.13939973588E+03  0.12700000000E+01 0.  1.
         -4   -1    0    0    0  501 -0.00000000000E+00 -0.00000000000E+00 -0.28001596611E+02  0.28030381959E+02  0.12700000000E+01 0.  1.
         25    2    1    2    0    0  0.00000000000E+00  0.00000000000E+00  0.11139235399E+03  0.16743011784E+03  0.12499835132E+03 0.  0.
    9000005    1    3    3    0    0 -0.25240375791E+02  0.27422757451E+02 -0.11491563032E+02  0.39014615431E+02  0.10000000000E+01 0.  0.
    9000005    1    3    3    0    0  0.25240375791E+02 -0.27422757451E+02  0.12288391702E+03  0.12841550241E+03  0.10000000000E+01 0.  0.
<mgrwt>
<rscale>  0 0.12499835E+03</rscale>
<asrwt>0</asrwt>
<pdfrwt beam="1">  1        4 0.34852808E-01 0.12499835E+03</pdfrwt>
<pdfrwt beam="2">  1       -4 0.70047207E-02 0.12499835E+03</pdfrwt>
<totfact> 0.17714265E+03</totfact>
</mgrwt>
</event>
<event>
 5    1  0.1430314E-002  0.1249961E+03  0.7818608E-02  0.1235075E+00
          4   -1    0    0  501    0  0.00000000000E+00  0.00000000000E+00  0.55136697412E+01  0.56580433027E+01  0.12700000000E+01 0.  1.
         -4   -1    0    0    0  501 -0.00000000000E+00 -0.00000000000E+00 -0.69912220344E+03  0.69912335696E+03  0.12700000000E+01 0.  1.
         25    2    1    2    0    0  0.00000000000E+00  0.00000000000E+00 -0.69360853370E+03  0.70478140026E+03  0.12499609647E+03 0.  0.
    9000005    1    3    3    0    0  0.13664349112E+02  0.44621882534E+02 -0.58113361408E+03  0.58300523518E+03  0.10000000000E+01 0.  0.
    9000005    1    3    3    0    0 -0.13664349112E+02 -0.44621882534E+02 -0.11247491962E+03  0.12177616508E+03  0.10000000000E+01 0.  0.
<mgrwt>
<rscale>  0 0.12499610E+03</rscale>
<asrwt>0</asrwt>
<pdfrwt beam="1">  1        4 0.13966107E-02 0.12499610E+03</pdfrwt>
<pdfrwt beam="2">  1       -4 0.17479844E+00 0.12499610E+03</pdfrwt>
<totfact> 0.61573970E+02</totfact>
</mgrwt>
</event>
<event>
 5    1  0.1430314E-002  0.1249964E+03  0.7818608E-02  0.1235075E+00
         -4   -1    0    0    0  501 -0.00000000000E+00  0.00000000000E+00  0.13766085855E+02  0.13824544107E+02  0.12700000000E+01 0.  1.
          4   -1    0    0  501    0  0.00000000000E+00 -0.00000000000E+00 -0.28308165256E+03  0.28308450137E+03  0.12700000000E+01 0.  1.
         25    2    1    2    0    0  0.00000000000E+00  0.00000000000E+00 -0.26931556670E+03  0.29690904547E+03  0.12499642721E+03 0.  0.
    9000005    1    3    3    0    0  0.52497252542E+02 -0.32891728002E+02 -0.15412969339E+03  0.16611679530E+03  0.10000000000E+01 0.  0.
    9000005    1    3    3    0    0 -0.52497252542E+02  0.32891728002E+02 -0.11518587331E+03  0.13079225018E+03  0.10000000000E+01 0.  0.
<mgrwt>
<rscale>  0 0.12499643E+03</rscale>
<asrwt>0</asrwt>
<pdfrwt beam="2">  1        4 0.70778058E-01 0.12499643E+03</pdfrwt>
<pdfrwt beam="1">  1       -4 0.34491858E-02 0.12499643E+03</pdfrwt>
<totfact> 0.13059201E+03</totfact>
</mgrwt>
</event>
<event>
 5    1  0.1430314E-002  0.1249993E+03  0.7818608E-02  0.1235070E+00
         -4   -1    0    0    0  501 -0.00000000000E+00  0.00000000000E+00  0.29362360146E+03  0.29362634799E+03  0.12700000000E+01 0.  1.
          4   -1    0    0  501    0  0.00000000000E+00 -0.00000000000E+00 -0.13270323776E+02  0.13330956196E+02  0.12700000000E+01 0.  1.
         25    2    1    2    0    0  0.00000000000E+00  0.00000000000E+00  0.28035327768E+03  0.30695730418E+03  0.12499930514E+03 0.  0.
    9000005    1    3    3    0    0  0.37938434214E+02  0.42390179997E+01  0.26167441221E+03  0.26444619882E+03  0.10000000000E+01 0.  0.
    9000005    1    3    3    0    0 -0.37938434214E+02 -0.42390179997E+01  0.18678865473E+02  0.42511105367E+02  0.10000000000E+01 0.  0.
<mgrwt>
<rscale>  0 0.12499931E+03</rscale>
<asrwt>0</asrwt>
<pdfrwt beam="2">  1        4 0.33255034E-02 0.12499931E+03</pdfrwt>
<pdfrwt beam="1">  1       -4 0.73413820E-01 0.12499931E+03</pdfrwt>
<totfact> 0.12778484E+03</totfact>
</mgrwt>
</event>
<event>
 5    1  0.1430314E-002  0.1250026E+03  0.7818608E-02  0.1235065E+00
         -4   -1    0    0    0  501 -0.00000000000E+00  0.00000000000E+00  0.45993304450E+03  0.45993479790E+03  0.12700000000E+01 0.  1.
          4   -1    0    0  501    0  0.00000000000E+00 -0.00000000000E+00 -0.84441840071E+01  0.85391535615E+01  0.12700000000E+01 0.  1.
         25    2    1    2    0    0  0.00000000000E+00  0.00000000000E+00  0.45148886049E+03  0.46847395146E+03  0.12500260818E+03 0.  0.
    9000005    1    3    3    0    0  0.47540501521E+02 -0.10179025236E+02  0.78592326725E+02  0.92420050095E+02  0.10000000000E+01 0.  0.
    9000005    1    3    3    0    0 -0.47540501521E+02  0.10179025236E+02  0.37289653376E+03  0.37605390137E+03  0.10000000000E+01 0.  0.
<mgrwt>
<rscale>  0 0.12500261E+03</rscale>
<asrwt>0</asrwt>
<pdfrwt beam="2">  1        4 0.21231365E-02 0.12500261E+03</pdfrwt>
<pdfrwt beam="1">  1       -4 0.11499535E+00 0.12500261E+03</pdfrwt>
<totfact> 0.92786798E+02</totfact>
</mgrwt>
</event>
<event>
 5    1  0.1430314E-002  0.1250006E+03  0.7818608E-02  0.1235068E+00
          4   -1    0    0  501    0  0.00000000000E+00  0.00000000000E+00  0.51598755193E+03  0.51598911486E+03  0.12700000000E+01 0. -1.
         -4   -1    0    0    0  501 -0.00000000000E+00 -0.00000000000E+00 -0.75156580402E+01  0.76222054405E+01  0.12700000000E+01 0. -1.
         25    2    1    2    0    0  0.00000000000E+00  0.00000000000E+00  0.50847189389E+03  0.52361132030E+03  0.12500059145E+03 0.  0.
    9000005    1    3    3    0    0  0.28669878128E+02  0.37408216875E+02  0.42613029709E+03  0.42872994612E+03  0.10000000000E+01 0.  0.
    9000005    1    3    3    0    0 -0.28669878128E+02 -0.37408216875E+02  0.82341596803E+02  0.94881374177E+02  0.10000000000E+01 0.  0.
<mgrwt>
<rscale>  0 0.12500059E+03</rscale>
<asrwt>0</asrwt>
<pdfrwt beam="1">  1        4 0.12901039E+00 0.12500059E+03</pdfrwt>
<pdfrwt beam="2">  1       -4 0.18924285E-02 0.12500059E+03</pdfrwt>
<totfact> 0.83968678E+02</totfact>
</mgrwt>
</event>
<event>
 5    1  0.1430314E-002  0.1249988E+03  0.7818608E-02  0.1235071E+00
         -4   -1    0    0    0  501 -0.00000000000E+00  0.00000000000E+00  0.10007150104E+03  0.10007955945E+03  0.12700000000E+01 0. -1.
          4   -1    0    0  501    0  0.00000000000E+00 -0.00000000000E+00 -0.39013875472E+02  0.39034540849E+02  0.12700000000E+01 0. -1.
         25    2    1    2    0    0  0.00000000000E+00  0.00000000000E+00  0.61057625565E+02  0.13911410030E+03  0.12499879704E+03 0.  0.
    9000005    1    3    3    0    0 -0.20436001101E+02  0.56004206895E+02  0.96760149448E+01  0.60404690183E+02  0.10000000000E+01 0.  0.
    9000005    1    3    3    0    0  0.20436001101E+02 -0.56004206895E+02  0.51381610620E+02  0.78709410116E+02  0.10000000000E+01 0.  0.
<mgrwt>
<rscale>  0 0.12499880E+03</rscale>
<asrwt>0</asrwt>
<pdfrwt beam="2">  1        4 0.97570594E-02 0.12499880E+03</pdfrwt>
<pdfrwt beam="1">  1       -4 0.25021466E-01 0.12499880E+03</pdfrwt>
<totfact> 0.19086291E+03</totfact>
</mgrwt>
</event>
<event>
 5    1  0.1430314E-002  0.1250003E+03  0.7818608E-02  0.1235069E+00
         -4   -1    0    0    0  501 -0.00000000000E+00  0.00000000000E+00  0.85070959760E+02  0.85080438965E+02  0.12700000000E+01 0. -1.
          4   -1    0    0  501    0  0.00000000000E+00 -0.00000000000E+00 -0.45896981332E+02  0.45914548842E+02  0.12700000000E+01 0. -1.
         25    2    1    2    0    0  0.00000000000E+00  0.00000000000E+00  0.39173978427E+02  0.13099498781E+03  0.12500034498E+03 0.  0.
    9000005    1    3    3    0    0  0.39993760446E+02 -0.11555379762E+02  0.68429475010E+02  0.80103812183E+02  0.10000000000E+01 0.  0.
    9000005    1    3    3    0    0 -0.39993760446E+02  0.11555379762E+02 -0.29255496583E+02  0.50891175624E+02  0.10000000000E+01 0.  0.
<mgrwt>
<rscale>  0 0.12500034E+03</rscale>
<asrwt>0</asrwt>
<pdfrwt beam="2">  1        4 0.11477626E-01 0.12500034E+03</pdfrwt>
<pdfrwt beam="1">  1       -4 0.21271121E-01 0.12500034E+03</pdfrwt>
<totfact> 0.19510884E+03</totfact>
</mgrwt>
</event>
<event>
 5    1  0.1430314E-002  0.1250008E+03  0.7818608E-02  0.1235068E+00
         -4   -1    0    0    0  501 -0.00000000000E+00  0.00000000000E+00  0.22969665156E+02  0.23004747714E+02  0.12700000000E+01 0.  1.
          4   -1    0    0  501    0  0.00000000000E+00 -0.00000000000E+00 -0.16989612244E+03  0.16990086910E+03  0.12700000000E+01 0.  1.
         25    2    1    2    0    0  0.00000000000E+00  0.00000000000E+00 -0.14692645728E+03  0.19290561681E+03  0.12500077259E+03 0.  0.
    9000005    1    3    3    0    0 -0.50962290163E+01  0.62020677802E+02 -0.82296449967E+02  0.10318062658E+03  0.10000000000E+01 0.  0.
    9000005    1    3    3    0    0  0.50962290163E+01 -0.62020677802E+02 -0.64630007315E+02  0.89724990224E+02  0.10000000000E+01 0.  0.
<mgrwt>
<rscale>  0 0.12500077E+03</rscale>
<asrwt>0</asrwt>
<pdfrwt beam="2">  1        4 0.42479006E-01 0.12500077E+03</pdfrwt>
<pdfrwt beam="1">  1       -4 0.57473954E-02 0.12500077E+03</pdfrwt>
<totfact> 0.16609812E+03</totfact>
</mgrwt>
</event>
<event>
 5    1  0.1430314E-002  0.1250034E+03  0.7818608E-02  0.1235064E+00
         -4   -1    0    0    0  501 -0.00000000000E+00  0.00000000000E+00  0.13406962061E+02  0.13466979309E+02  0.12700000000E+01 0.  1.
          4   -1    0    0  501    0  0.00000000000E+00 -0.00000000000E+00 -0.29066366650E+03  0.29066644100E+03  0.12700000000E+01 0.  1.
         25    2    1    2    0    0  0.00000000000E+00  0.00000000000E+00 -0.27725670444E+03  0.30413342031E+03  0.12500342872E+03 0.  0.
    9000005    1    3    3    0    0 -0.46896688278E+02 -0.20139895653E+01 -0.23900573682E+03  0.24357359824E+03  0.10000000000E+01 0.  0.
    9000005    1    3    3    0    0  0.46896688278E+02  0.20139895653E+01 -0.38250967620E+02  0.60559822071E+02  0.10000000000E+01 0.  0.
<mgrwt>
<rscale>  0 0.12500343E+03</rscale>
<asrwt>0</asrwt>
<pdfrwt beam="2">  1        4 0.72673745E-01 0.12500343E+03</pdfrwt>
<pdfrwt beam="1">  1       -4 0.33595904E-02 0.12500343E+03</pdfrwt>
<totfact> 0.12854988E+03</totfact>
</mgrwt>
</event>
<event>
 5    1  0.1430314E-002  0.1249980E+03  0.7818608E-02  0.1235072E+00
          4   -1    0    0  501    0  0.00000000000E+00  0.00000000000E+00  0.21323339722E+03  0.21323717919E+03  0.12700000000E+01 0. -1.
         -4   -1    0    0    0  501 -0.00000000000E+00 -0.00000000000E+00 -0.18292587311E+02  0.18336620477E+02  0.12700000000E+01 0. -1.
         25    2    1    2    0    0  0.00000000000E+00  0.00000000000E+00  0.19494080991E+03  0.23157379967E+03  0.12499802129E+03 0.  0.
    9000005    1    3    3    0    0  0.32232687669E+02  0.49369155261E+02  0.59104323962E+02  0.83490003932E+02  0.10000000000E+01 0.  0.
    9000005    1    3    3    0    0 -0.32232687669E+02 -0.49369155261E+02  0.13583648595E+03  0.14808379574E+03  0.10000000000E+01 0.  0.
<mgrwt>
<rscale>  0 0.12499802E+03</rscale>
<asrwt>0</asrwt>
<pdfrwt beam="1">  1        4 0.53314325E-01 0.12499802E+03</pdfrwt>
<pdfrwt beam="2">  1       -4 0.45791238E-02 0.12499802E+03</pdfrwt>
<totfact> 0.15131929E+03</totfact>
</mgrwt>
</event>
<event>
 5    1  0.1430314E-002  0.1250000E+03  0.7818608E-02  0.1235069E+00
         -4   -1    0    0    0  501 -0.00000000000E+00  0.00000000000E+00  0.91200125567E+01  0.92080143915E+01  0.12700000000E+01 0.  1.
          4   -1    0    0  501    0  0.00000000000E+00 -0.00000000000E+00 -0.42617079733E+03  0.42617268964E+03  0.12700000000E+01 0.  1.
         25    2    1    2    0    0  0.00000000000E+00  0.00000000000E+00 -0.41705078478E+03  0.43538070404E+03  0.12500000146E+03 0.  0.
    9000005    1    3    3    0    0  0.60080795533E+02  0.73727116026E+01 -0.26261824802E+03  0.26950584977E+03  0.10000000000E+01 0.  0.
    9000005    1    3    3    0    0 -0.60080795533E+02 -0.73727116026E+01 -0.15443253675E+03  0.16587485426E+03  0.10000000000E+01 0.  0.
<mgrwt>
<rscale>  0 0.12500000E+03</rscale>
<asrwt>0</asrwt>
<pdfrwt beam="2">  1        4 0.10655387E+00 0.12500000E+03</pdfrwt>
<pdfrwt beam="1">  1       -4 0.22912413E-02 0.12500000E+03</pdfrwt>
<totfact> 0.98702203E+02</totfact>
</mgrwt>
</event>
<event>
 5    1  0.1430314E-002  0.1249977E+03  0.7818608E-02  0.1235073E+00
         -4   -1    0    0    0  501 -0.00000000000E+00  0.00000000000E+00  0.23554479005E+01  0.26760109888E+01  0.12700000000E+01 0.  1.
          4   -1    0    0  501    0  0.00000000000E+00 -0.00000000000E+00 -0.15523524895E+04  0.15523530090E+04  0.12700000000E+01 0.  1.
         25    2    1    2    0    0  0.00000000000E+00  0.00000000000E+00 -0.15499970416E+04  0.15550290200E+04  0.12499769616E+03 0.  0.
    9000005    1    3    3    0    0 -0.46428381870E+02  0.15078742811E+02 -0.12603587651E+04  0.12613041583E+04  0.10000000000E+01 0.  0.
    9000005    1    3    3    0    0  0.46428381870E+02 -0.15078742811E+02 -0.28963827658E+03  0.29372486171E+03  0.10000000000E+01 0.  0.
<mgrwt>
<rscale>  0 0.12499770E+03</rscale>
<asrwt>0</asrwt>
<pdfrwt beam="2">  1        4 0.38812497E+00 0.12499770E+03</pdfrwt>
<pdfrwt beam="1">  1       -4 0.62900263E-03 0.12499770E+03</pdfrwt>
<totfact> 0.10775083E+02</totfact>
</mgrwt>
</event>
<event>
 5    1  0.1430314E-002  0.1249989E+03  0.7818608E-02  0.1235071E+00
          4   -1    0    0  501    0  0.00000000000E+00  0.00000000000E+00  0.84797771419E+03  0.84797866522E+03  0.12700000000E+01 0. -1.
         -4   -1    0    0    0  501 -0.00000000000E+00 -0.00000000000E+00 -0.45179622418E+01  0.46930675275E+01  0.12700000000E+01 0. -1.
         25    2    1    2    0    0  0.00000000000E+00  0.00000000000E+00  0.84345975195E+03  0.85267173275E+03  0.12499892265E+03 0.  0.
    9000005    1    3    3    0    0 -0.58783653683E+02 -0.21123494028E+02  0.43442347157E+03  0.43889232460E+03  0.10000000000E+01 0.  0.
    9000005    1    3    3    0    0  0.58783653683E+02  0.21123494028E+02  0.40903628038E+03  0.41377940815E+03  0.10000000000E+01 0.  0.
<mgrwt>
<rscale>  0 0.12499892E+03</rscale>
<asrwt>0</asrwt>
<pdfrwt beam="1">  1        4 0.21201647E+00 0.12499892E+03</pdfrwt>
<pdfrwt beam="2">  1       -4 0.11514974E-02 0.12499892E+03</pdfrwt>
<totfact> 0.48013204E+02</totfact>
</mgrwt>
</event>
<event>
 5    1  0.1430314E-002  0.1250032E+03  0.7818608E-02  0.1235064E+00
          4   -1    0    0  501    0  0.00000000000E+00  0.00000000000E+00  0.28185486061E+02  0.28214083797E+02  0.12700000000E+01 0. -1.
         -4   -1    0    0    0  501 -0.00000000000E+00 -0.00000000000E+00 -0.13849619483E+03  0.13850201761E+03  0.12700000000E+01 0. -1.
         25    2    1    2    0    0  0.00000000000E+00  0.00000000000E+00 -0.11031070876E+03  0.16671610140E+03  0.12500322396E+03 0.  0.
    9000005    1    3    3    0    0 -0.58917311848E+02  0.15202074633E+02 -0.74162197992E+02  0.95934270829E+02  0.10000000000E+01 0.  0.
    9000005    1    3    3    0    0  0.58917311848E+02 -0.15202074633E+02 -0.36148510773E+02  0.70781830575E+02  0.10000000000E+01 0.  0.
<mgrwt>
<rscale>  0 0.12500322E+03</rscale>
<asrwt>0</asrwt>
<pdfrwt beam="1">  1        4 0.70506744E-02 0.12500322E+03</pdfrwt>
<pdfrwt beam="2">  1       -4 0.34628349E-01 0.12500322E+03</pdfrwt>
<totfact> 0.17744862E+03</totfact>
</mgrwt>
</event>
<event>
 5    1  0.1430314E-002  0.1249972E+03  0.7818608E-02  0.1235074E+00
         -4   -1    0    0    0  501 -0.00000000000E+00  0.00000000000E+00  0.97254747510E+02  0.97263039297E+02  0.12700000000E+01 0. -1.
          4   -1    0    0  501    0  0.00000000000E+00 -0.00000000000E+00 -0.40143271519E+02  0.40163355790E+02  0.12700000000E+01 0. -1.
         25    2    1    2    0    0  0.00000000000E+00  0.00000000000E+00  0.57111475991E+02  0.13742639509E+03  0.12499717347E+03 0.  0.
    9000005    1    3    3    0    0  0.93219959286E-01 -0.60027896125E+02  0.94585519974E+01  0.60776814733E+02  0.10000000000E+01 0.  0.
    9000005    1    3    3    0    0 -0.93219959286E-01  0.60027896125E+02  0.47652923993E+02  0.76649580353E+02  0.10000000000E+01 0.  0.
<mgrwt>
<rscale>  0 0.12499717E+03</rscale>
<asrwt>0</asrwt>
<pdfrwt beam="2">  1        4 0.10039365E-01 0.12499717E+03</pdfrwt>
<pdfrwt beam="1">  1       -4 0.24317234E-01 0.12499717E+03</pdfrwt>
<totfact> 0.19174052E+03</totfact>
</mgrwt>
</event>
<event>
 5    1  0.1430314E-002  0.1249932E+03  0.7818608E-02  0.1235080E+00
          4   -1    0    0  501    0  0.00000000000E+00  0.00000000000E+00  0.30335150041E+01  0.32886339535E+01  0.12700000000E+01 0. -1.
         -4   -1    0    0    0  501 -0.00000000000E+00 -0.00000000000E+00 -0.12353445519E+04  0.12353452047E+04  0.12700000000E+01 0. -1.
         25    2    1    2    0    0  0.00000000000E+00  0.00000000000E+00 -0.12323110369E+04  0.12386338387E+04  0.12499317836E+03 0.  0.
    9000005    1    3    3    0    0  0.56646982941E+02 -0.33509243485E+01 -0.35685025973E+03  0.36133532520E+03  0.10000000000E+01 0.  0.
    9000005    1    3    3    0    0 -0.56646982941E+02  0.33509243485E+01 -0.87546077716E+03  0.87729851346E+03  0.10000000000E+01 0.  0.
<mgrwt>
<rscale>  0 0.12499318E+03</rscale>
<asrwt>0</asrwt>
<pdfrwt beam="1">  1        4 0.79035446E-03 0.12499318E+03</pdfrwt>
<pdfrwt beam="2">  1       -4 0.30886645E+00 0.12499318E+03</pdfrwt>
<totfact> 0.23238809E+02</totfact>
</mgrwt>
</event>
<event>
 5    1  0.1430314E-002  0.1250004E+03  0.7818608E-02  0.1235069E+00
         -4   -1    0    0    0  501 -0.00000000000E+00  0.00000000000E+00  0.13520180773E+03  0.13520777239E+03  0.12700000000E+01 0. -1.
          4   -1    0    0  501    0  0.00000000000E+00 -0.00000000000E+00 -0.28871631392E+02  0.28899550156E+02  0.12700000000E+01 0. -1.
         25    2    1    2    0    0  0.00000000000E+00  0.00000000000E+00  0.10633017634E+03  0.16410732254E+03  0.12500042765E+03 0.  0.
    9000005    1    3    3    0    0 -0.29091131648E+02  0.14611524579E+02 -0.16866616553E+02  0.36677968115E+02  0.10000000000E+01 0.  0.
    9000005    1    3    3    0    0  0.29091131648E+02 -0.14611524579E+02  0.12319679289E+03  0.12742935443E+03  0.10000000000E+01 0.  0.
<mgrwt>
<rscale>  0 0.12500043E+03</rscale>
<asrwt>0</asrwt>
<pdfrwt beam="2">  1        4 0.72221434E-02 0.12500043E+03</pdfrwt>
<pdfrwt beam="1">  1       -4 0.33804687E-01 0.12500043E+03</pdfrwt>
<totfact> 0.17865976E+03</totfact>
</mgrwt>
</event>
<event>
 5    1  0.1430314E-002  0.1249971E+03  0.7818608E-02  0.1235074E+00
         -4   -1    0    0    0  501 -0.00000000000E+00  0.00000000000E+00  0.53832474634E+02  0.53847453285E+02  0.12700000000E+01 0.  1.
          4   -1    0    0  501    0  0.00000000000E+00 -0.00000000000E+00 -0.72529038112E+02  0.72540156255E+02  0.12700000000E+01 0.  1.
         25    2    1    2    0    0  0.00000000000E+00  0.00000000000E+00 -0.18696563478E+02  0.12638760954E+03  0.12499706540E+03 0.  0.
    9000005    1    3    3    0    0 -0.59663627874E+02  0.10814983010E+02  0.59312211102E+01  0.60933502546E+02  0.10000000000E+01 0.  0.
    9000005    1    3    3    0    0  0.59663627874E+02 -0.10814983010E+02 -0.24627784588E+02  0.65454106994E+02  0.10000000000E+01 0.  0.
<mgrwt>
<rscale>  0 0.12499707E+03</rscale>
<asrwt>0</asrwt>
<pdfrwt beam="2">  1        4 0.18135522E-01 0.12499707E+03</pdfrwt>
<pdfrwt beam="1">  1       -4 0.13461381E-01 0.12499707E+03</pdfrwt>
<totfact> 0.19761345E+03</totfact>
</mgrwt>
</event>
<event>
 5    1  0.1430314E-002  0.1250054E+03  0.7818608E-02  0.1235061E+00
         -4   -1    0    0    0  501 -0.00000000000E+00  0.00000000000E+00  0.34548227582E+02  0.34571562433E+02  0.12700000000E+01 0.  1.
          4   -1    0    0  501    0  0.00000000000E+00 -0.00000000000E+00 -0.11301128030E+03  0.11301841608E+03  0.12700000000E+01 0.  1.
         25    2    1    2    0    0  0.00000000000E+00  0.00000000000E+00 -0.78463052714E+02  0.14758997852E+03  0.12500540435E+03 0.  0.
    9000005    1    3    3    0    0  0.42622463528E+02  0.44736148243E+02 -0.50281376568E+02  0.79669405586E+02  0.10000000000E+01 0.  0.
    9000005    1    3    3    0    0 -0.42622463528E+02 -0.44736148243E+02 -0.28181676146E+02  0.67920572931E+02  0.10000000000E+01 0.  0.
<mgrwt>
<rscale>  0 0.12500540E+03</rscale>
<asrwt>0</asrwt>
<pdfrwt beam="2">  1        4 0.28256628E-01 0.12500540E+03</pdfrwt>
<pdfrwt beam="1">  1       -4 0.86408660E-02 0.12500540E+03</pdfrwt>
<totfact> 0.18655573E+03</totfact>
</mgrwt>
</event>
<event>
 5    1  0.1430314E-002  0.1249968E+03  0.7818608E-02  0.1235074E+00
         -4   -1    0    0    0  501 -0.00000000000E+00  0.00000000000E+00  0.41863759543E+03  0.41863952180E+03  0.12700000000E+01 0. -1.
          4   -1    0    0  501    0  0.00000000000E+00 -0.00000000000E+00 -0.92852144621E+01  0.93716651459E+01  0.12700000000E+01 0. -1.
         25    2    1    2    0    0  0.00000000000E+00  0.00000000000E+00  0.40935238097E+03  0.42801118694E+03  0.12499681732E+03 0.  0.
    9000005    1    3    3    0    0 -0.14059972237E+02  0.14159896547E+02  0.40745180486E+03  0.40794136684E+03  0.10000000000E+01 0.  0.
    9000005    1    3    3    0    0  0.14059972237E+02 -0.14159896547E+02  0.19005761065E+01  0.20069820105E+02  0.10000000000E+01 0.  0.
<mgrwt>
<rscale>  0 0.12499682E+03</rscale>
<asrwt>0</asrwt>
<pdfrwt beam="2">  1        4 0.23323509E-02 0.12499682E+03</pdfrwt>
<pdfrwt beam="1">  1       -4 0.10467044E+00 0.12499682E+03</pdfrwt>
<totfact> 0.10010984E+03</totfact>
</mgrwt>
</event>
<event>
 5    1  0.1430314E-002  0.1250061E+03  0.7818608E-02  0.1235060E+00
          4   -1    0    0  501    0  0.00000000000E+00  0.00000000000E+00  0.51852236290E+02  0.51867786807E+02  0.12700000000E+01 0. -1.
         -4   -1    0    0    0  501 -0.00000000000E+00 -0.00000000000E+00 -0.75309361901E+02  0.75320069636E+02  0.12700000000E+01 0. -1.
         25    2    1    2    0    0  0.00000000000E+00  0.00000000000E+00 -0.23457125611E+02  0.12718785644E+03  0.12500605619E+03 0.  0.
    9000005    1    3    3    0    0 -0.38228909363E+01  0.62289986553E+02 -0.83584099376E+01  0.62972374392E+02  0.10000000000E+01 0.  0.
    9000005    1    3    3    0    0  0.38228909363E+01 -0.62289986553E+02 -0.15098715674E+02  0.64215482050E+02  0.10000000000E+01 0.  0.
<mgrwt>
<rscale>  0 0.12500606E+03</rscale>
<asrwt>0</asrwt>
<pdfrwt beam="1">  1        4 0.12966341E-01 0.12500606E+03</pdfrwt>
<pdfrwt beam="2">  1       -4 0.18830623E-01 0.12500606E+03</pdfrwt>
<totfact> 0.19714019E+03</totfact>
</mgrwt>
</event>
<event>
 5    1  0.1430314E-002  0.1249985E+03  0.7818608E-02  0.1235072E+00
          4   -1    0    0  501    0  0.00000000000E+00  0.00000000000E+00  0.17456812257E+02  0.17502948157E+02  0.12700000000E+01 0. -1.
         -4   -1    0    0    0  501 -0.00000000000E+00 -0.00000000000E+00 -0.22341796954E+03  0.22342157911E+03  0.12700000000E+01 0. -1.
         25    2    1    2    0    0  0.00000000000E+00  0.00000000000E+00 -0.20596115728E+03  0.24092452727E+03  0.12499851811E+03 0.  0.
    9000005    1    3    3    0    0 -0.93510330514E+00  0.61854849013E+02 -0.85929659775E+02  0.10588580261E+03  0.10000000000E+01 0.  0.
    9000005    1    3    3    0    0  0.93510330514E+00 -0.61854849013E+02 -0.12003149751E+03  0.13503872466E+03  0.10000000000E+01 0.  0.
<mgrwt>
<rscale>  0 0.12499852E+03</rscale>
<asrwt>0</asrwt>
<pdfrwt beam="1">  1        4 0.43704220E-02 0.12499852E+03</pdfrwt>
<pdfrwt beam="2">  1       -4 0.55860702E-01 0.12499852E+03</pdfrwt>
<totfact> 0.14805159E+03</totfact>
</mgrwt>
</event>
<event>
 5    1  0.1430314E-002  0.1250001E+03  0.7818608E-02  0.1235069E+00
         -4   -1    0    0    0  501 -0.00000000000E+00  0.00000000000E+00  0.45547753236E+03  0.45547930291E+03  0.12700000000E+01 0.  1.
          4   -1    0    0  501    0  0.00000000000E+00 -0.00000000000E+00 -0.85273701745E+01  0.86214234378E+01  0.12700000000E+01 0.  1.
         25    2    1    2    0    0  0.00000000000E+00  0.00000000000E+00  0.44695016218E+03  0.46410072635E+03  0.12500014690E+03 0.  0.
    9000005    1    3    3    0    0 -0.56742681959E+02 -0.22335549814E+02  0.27419940107E+03  0.28090019631E+03  0.10000000000E+01 0.  0.
    9000005    1    3    3    0    0  0.56742681959E+02  0.22335549814E+02  0.17275076112E+03  0.18320053004E+03  0.10000000000E+01 0.  0.
<mgrwt>
<rscale>  0 0.12500015E+03</rscale>
<asrwt>0</asrwt>
<pdfrwt beam="2">  1        4 0.21438207E-02 0.12500015E+03</pdfrwt>
<pdfrwt beam="1">  1       -4 0.11388135E+00 0.12500015E+03</pdfrwt>
<totfact> 0.93539104E+02</totfact>
</mgrwt>
</event>
<event>
 5    1  0.1430314E-002  0.1249970E+03  0.7818608E-02  0.1235074E+00
         -4   -1    0    0    0  501 -0.00000000000E+00  0.00000000000E+00  0.93912628242E+02  0.93921215087E+02  0.12700000000E+01 0. -1.
          4   -1    0    0  501    0  0.00000000000E+00 -0.00000000000E+00 -0.41572357954E+02  0.41591752138E+02  0.12700000000E+01 0. -1.
         25    2    1    2    0    0  0.00000000000E+00  0.00000000000E+00  0.52340270288E+02  0.13551296722E+03  0.12499704153E+03 0.  0.
    9000005    1    3    3    0    0  0.51165621602E+02  0.70665116552E+01  0.64303277903E+02  0.82484956022E+02  0.10000000000E+01 0.  0.
    9000005    1    3    3    0    0 -0.51165621602E+02 -0.70665116552E+01 -0.11963007615E+02  0.53028011202E+02  0.10000000000E+01 0.  0.
<mgrwt>
<rscale>  0 0.12499704E+03</rscale>
<asrwt>0</asrwt>
<pdfrwt beam="2">  1        4 0.10396587E-01 0.12499704E+03</pdfrwt>
<pdfrwt beam="1">  1       -4 0.23481654E-01 0.12499704E+03</pdfrwt>
<totfact> 0.19273633E+03</totfact>
</mgrwt>
</event>
<event>
 5    1  0.1430314E-002  0.1249437E+03  0.7818608E-02  0.1235157E+00
         -4   -1    0    0    0  501 -0.00000000000E+00  0.00000000000E+00  0.88779301517E+01  0.89683077433E+01  0.12700000000E+01 0.  1.
          4   -1    0    0  501    0  0.00000000000E+00 -0.00000000000E+00 -0.43728185018E+03  0.43728369441E+03  0.12700000000E+01 0.  1.
         25    2    1    2    0    0  0.00000000000E+00  0.00000000000E+00 -0.42840392003E+03  0.44625200216E+03  0.12494371025E+03 0.  0.
    9000005    1    3    3    0    0  0.59010538174E+02 -0.10082462290E+01 -0.14113866663E+03  0.15298491231E+03  0.10000000000E+01 0.  0.
    9000005    1    3    3    0    0 -0.59010538174E+02  0.10082462290E+01 -0.28726525340E+03  0.29326708985E+03  0.10000000000E+01 0.  0.
<mgrwt>
<rscale>  0 0.12494371E+03</rscale>
<asrwt>0</asrwt>
<pdfrwt beam="2">  1        4 0.10933192E+00 0.12494371E+03</pdfrwt>
<pdfrwt beam="1">  1       -4 0.22310117E-02 0.12494371E+03</pdfrwt>
<totfact> 0.96817641E+02</totfact>
</mgrwt>
</event>
<event>
 5    1  0.1430314E-002  0.1249929E+03  0.7818608E-02  0.1235080E+00
          4   -1    0    0  501    0  0.00000000000E+00  0.00000000000E+00  0.33916348932E+02  0.33940118222E+02  0.12700000000E+01 0.  1.
         -4   -1    0    0    0  501 -0.00000000000E+00 -0.00000000000E+00 -0.11509239143E+03  0.11509939819E+03  0.12700000000E+01 0.  1.
         25    2    1    2    0    0  0.00000000000E+00  0.00000000000E+00 -0.81176042496E+02  0.14903951642E+03  0.12499291011E+03 0.  0.
    9000005    1    3    3    0    0  0.24691869489E+02  0.28049663598E+01 -0.10895280785E+03  0.11175540521E+03  0.10000000000E+01 0.  0.
    9000005    1    3    3    0    0 -0.24691869489E+02 -0.28049663598E+01  0.27776765352E+02  0.37284111208E+02  0.10000000000E+01 0.  0.
<mgrwt>
<rscale>  0 0.12499291E+03</rscale>
<asrwt>0</asrwt>
<pdfrwt beam="1">  1        4 0.84829345E-02 0.12499291E+03</pdfrwt>
<pdfrwt beam="2">  1       -4 0.28776944E-01 0.12499291E+03</pdfrwt>
<totfact> 0.18589176E+03</totfact>
</mgrwt>
</event>
<event>
 5    1  0.1430314E-002  0.1249974E+03  0.7818608E-02  0.1235073E+00
         -4   -1    0    0    0  501 -0.00000000000E+00  0.00000000000E+00  0.15912896285E+04  0.15912901353E+04  0.12700000000E+01 0. -1.
          4   -1    0    0  501    0  0.00000000000E+00 -0.00000000000E+00 -0.22898577755E+01  0.26184630286E+01  0.12700000000E+01 0. -1.
         25    2    1    2    0    0  0.00000000000E+00  0.00000000000E+00  0.15889997707E+04  0.15939085983E+04  0.12499739370E+03 0.  0.
    9000005    1    3    3    0    0 -0.14986253091E+02 -0.47293653746E+02  0.30997350826E+03  0.31392013840E+03  0.10000000000E+01 0.  0.
    9000005    1    3    3    0    0  0.14986253091E+02  0.47293653746E+02  0.12790262624E+04  0.12799884599E+04  0.10000000000E+01 0.  0.
<mgrwt>
<rscale>  0 0.12499739E+03</rscale>
<asrwt>0</asrwt>
<pdfrwt beam="2">  1        4 0.61360218E-03 0.12499739E+03</pdfrwt>
<pdfrwt beam="1">  1       -4 0.39786437E+00 0.12499739E+03</pdfrwt>
<totfact> 0.96673973E+01</totfact>
</mgrwt>
</event>
<event>
 5    1  0.1430314E-002  0.1250002E+03  0.7818608E-02  0.1235069E+00
          4   -1    0    0  501    0  0.00000000000E+00  0.00000000000E+00  0.10983074489E+02  0.11056257289E+02  0.12700000000E+01 0. -1.
         -4   -1    0    0    0  501 -0.00000000000E+00 -0.00000000000E+00 -0.35440682050E+03  0.35440909599E+03  0.12700000000E+01 0. -1.
         25    2    1    2    0    0  0.00000000000E+00  0.00000000000E+00 -0.34342374601E+03  0.36546535328E+03  0.12500022048E+03 0.  0.
    9000005    1    3    3    0    0  0.10179415515E+02  0.16027953481E+02 -0.34578355054E+03  0.34630590468E+03  0.10000000000E+01 0.  0.
    9000005    1    3    3    0    0 -0.10179415515E+02 -0.16027953481E+02  0.23598045273E+01  0.19159448594E+02  0.10000000000E+01 0.  0.
<mgrwt>
<rscale>  0 0.12500022E+03</rscale>
<asrwt>0</asrwt>
<pdfrwt beam="1">  1        4 0.27552021E-02 0.12500022E+03</pdfrwt>
<pdfrwt beam="2">  1       -4 0.88611100E-01 0.12500022E+03</pdfrwt>
<totfact> 0.11316910E+03</totfact>
</mgrwt>
</event>
<event>
 5    1  0.1430314E-002  0.1250051E+03  0.7818608E-02  0.1235061E+00
          4   -1    0    0  501    0  0.00000000000E+00  0.00000000000E+00  0.36500463954E+03  0.36500684896E+03  0.12700000000E+01 0.  1.
         -4   -1    0    0    0  501 -0.00000000000E+00 -0.00000000000E+00 -0.10662870718E+02  0.10738235980E+02  0.12700000000E+01 0.  1.
         25    2    1    2    0    0  0.00000000000E+00  0.00000000000E+00  0.35434176883E+03  0.37574508494E+03  0.12500511879E+03 0.  0.
    9000005    1    3    3    0    0 -0.13471956548E+02 -0.57511876954E+02  0.23851209306E+03  0.24571961285E+03  0.10000000000E+01 0.  0.
    9000005    1    3    3    0    0  0.13471956548E+02  0.57511876954E+02  0.11582967577E+03  0.13002547209E+03  0.10000000000E+01 0.  0.
<mgrwt>
<rscale>  0 0.12500512E+03</rscale>
<asrwt>0</asrwt>
<pdfrwt beam="1">  1        4 0.91260854E-01 0.12500512E+03</pdfrwt>
<pdfrwt beam="2">  1       -4 0.26754146E-02 0.12500512E+03</pdfrwt>
<totfact> 0.11085193E+03</totfact>
</mgrwt>
</event>
<event>
 5    1  0.1430314E-002  0.1250010E+03  0.7818608E-02  0.1235068E+00
         -4   -1    0    0    0  501 -0.00000000000E+00  0.00000000000E+00  0.93552788674E+02  0.93561408544E+02  0.12700000000E+01 0.  1.
          4   -1    0    0  501    0  0.00000000000E+00 -0.00000000000E+00 -0.41734981023E+02  0.41754299671E+02  0.12700000000E+01 0.  1.
         25    2    1    2    0    0  0.00000000000E+00  0.00000000000E+00  0.51817807651E+02  0.13531570822E+03  0.12500102280E+03 0.  0.
    9000005    1    3    3    0    0  0.43437194180E+00 -0.33081281731E+02  0.83300204912E+02  0.89635283334E+02  0.10000000000E+01 0.  0.
    9000005    1    3    3    0    0 -0.43437194180E+00  0.33081281731E+02 -0.31482397261E+02  0.45680424881E+02  0.10000000000E+01 0.  0.
<mgrwt>
<rscale>  0 0.12500102E+03</rscale>
<asrwt>0</asrwt>
<pdfrwt beam="2">  1        4 0.10437238E-01 0.12500102E+03</pdfrwt>
<pdfrwt beam="1">  1       -4 0.23391689E-01 0.12500102E+03</pdfrwt>
<totfact> 0.19282153E+03</totfact>
</mgrwt>
</event>
<event>
 5    1  0.1430314E-002  0.1249980E+03  0.7818608E-02  0.1235072E+00
         -4   -1    0    0    0  501 -0.00000000000E+00  0.00000000000E+00  0.11146478389E+02  0.11218595299E+02  0.12700000000E+01 0. -1.
          4   -1    0    0  501    0  0.00000000000E+00 -0.00000000000E+00 -0.34923275803E+03  0.34923506723E+03  0.12700000000E+01 0. -1.
         25    2    1    2    0    0  0.00000000000E+00  0.00000000000E+00 -0.33808627964E+03  0.36045366252E+03  0.12499804137E+03 0.  0.
    9000005    1    3    3    0    0 -0.29528491571E+02  0.44796336447E+02 -0.26143257874E+03  0.26688318943E+03  0.10000000000E+01 0.  0.
    9000005    1    3    3    0    0  0.29528491571E+02 -0.44796336447E+02 -0.76653700898E+02  0.93570473093E+02  0.10000000000E+01 0.  0.
<mgrwt>
<rscale>  0 0.12499804E+03</rscale>
<asrwt>0</asrwt>
<pdfrwt beam="2">  1        4 0.87317457E-01 0.12499804E+03</pdfrwt>
<pdfrwt beam="1">  1       -4 0.27959240E-02 0.12499804E+03</pdfrwt>
<totfact> 0.11432420E+03</totfact>
</mgrwt>
</event>
<event>
 5    1  0.1430314E-002  0.1250011E+03  0.7818608E-02  0.1235068E+00
         -4   -1    0    0    0  501 -0.00000000000E+00  0.00000000000E+00  0.98310602041E+02  0.98318804782E+02  0.12700000000E+01 0.  1.
          4   -1    0    0  501    0  0.00000000000E+00 -0.00000000000E+00 -0.39714433624E+02  0.39734734655E+02  0.12700000000E+01 0.  1.
         25    2    1    2    0    0  0.00000000000E+00  0.00000000000E+00  0.58596168417E+02  0.13805353944E+03  0.12500107519E+03 0.  0.
    9000005    1    3    3    0    0 -0.28695991347E+02  0.51722787368E+02  0.70279355112E+01  0.59574310991E+02  0.10000000000E+01 0.  0.
    9000005    1    3    3    0    0  0.28695991347E+02 -0.51722787368E+02  0.51568232906E+02  0.78479228446E+02  0.10000000000E+01 0.  0.
<mgrwt>
<rscale>  0 0.12500108E+03</rscale>
<asrwt>0</asrwt>
<pdfrwt beam="2">  1        4 0.99321714E-02 0.12500108E+03</pdfrwt>
<pdfrwt beam="1">  1       -4 0.24581213E-01 0.12500108E+03</pdfrwt>
<totfact> 0.19139887E+03</totfact>
</mgrwt>
</event>
<event>
 5    1  0.1430314E-002  0.1249985E+03  0.7818608E-02  0.1235072E+00
         -4   -1    0    0    0  501 -0.00000000000E+00  0.00000000000E+00  0.19688535169E+02  0.19729453036E+02  0.12700000000E+01 0.  1.
          4   -1    0    0  501    0  0.00000000000E+00 -0.00000000000E+00 -0.19814851484E+03  0.19815258472E+03  0.12700000000E+01 0.  1.
         25    2    1    2    0    0  0.00000000000E+00  0.00000000000E+00 -0.17845997967E+03  0.21788203776E+03  0.12499847213E+03 0.  0.
    9000005    1    3    3    0    0 -0.25711147608E+02 -0.44845008046E+02 -0.15043700406E+03  0.15907366234E+03  0.10000000000E+01 0.  0.
    9000005    1    3    3    0    0  0.25711147608E+02  0.44845008046E+02 -0.28022975605E+02  0.58808375421E+02  0.10000000000E+01 0.  0.
<mgrwt>
<rscale>  0 0.12499847E+03</rscale>
<asrwt>0</asrwt>
<pdfrwt beam="2">  1        4 0.49542746E-01 0.12499847E+03</pdfrwt>
<pdfrwt beam="1">  1       -4 0.49277579E-02 0.12499847E+03</pdfrwt>
<totfact> 0.15630754E+03</totfact>
</mgrwt>
</event>
<event>
 5    1  0.1430314E-002  0.1250084E+03  0.7818608E-02  0.1235056E+00
          4   -1    0    0  501    0  0.00000000000E+00  0.00000000000E+00  0.26066894905E+03  0.26067204280E+03  0.12700000000E+01 0.  1.
         -4   -1    0    0    0  501 -0.00000000000E+00 -0.00000000000E+00 -0.14957399766E+02  0.15011219396E+02  0.12700000000E+01 0.  1.
         25    2    1    2    0    0  0.00000000000E+00  0.00000000000E+00  0.24571154928E+03  0.27568326219E+03  0.12500838214E+03 0.  0.
    9000005    1    3    3    0    0 -0.60481067554E+02  0.14536889154E+02  0.10953353102E+03  0.12596775420E+03  0.10000000000E+01 0.  0.
    9000005    1    3    3    0    0  0.60481067554E+02 -0.14536889154E+02  0.13617801826E+03  0.14971550800E+03  0.10000000000E+01 0.  0.
<mgrwt>
<rscale>  0 0.12500838E+03</rscale>
<asrwt>0</asrwt>
<pdfrwt beam="1">  1        4 0.65174348E-01 0.12500838E+03</pdfrwt>
<pdfrwt beam="2">  1       -4 0.37464643E-02 0.12500838E+03</pdfrwt>
<totfact> 0.13678398E+03</totfact>
</mgrwt>
</event>
<event>
 5    1  0.1430314E-002  0.1250027E+03  0.7818608E-02  0.1235065E+00
          4   -1    0    0  501    0  0.00000000000E+00  0.00000000000E+00  0.11125422739E+02  0.11197675255E+02  0.12700000000E+01 0.  1.
         -4   -1    0    0    0  501 -0.00000000000E+00 -0.00000000000E+00 -0.34991527741E+03  0.34991758210E+03  0.12700000000E+01 0.  1.
         25    2    1    2    0    0  0.00000000000E+00  0.00000000000E+00 -0.33878985467E+03  0.36111525735E+03  0.12500265385E+03 0.  0.
    9000005    1    3    3    0    0 -0.60989402245E+02 -0.13563163760E+02 -0.16557412122E+03  0.17697303811E+03  0.10000000000E+01 0.  0.
    9000005    1    3    3    0    0  0.60989402245E+02  0.13563163760E+02 -0.17321573344E+03  0.18414221925E+03  0.10000000000E+01 0.  0.
<mgrwt>
<rscale>  0 0.12500265E+03</rscale>
<asrwt>0</asrwt>
<pdfrwt beam="1">  1        4 0.27906765E-02 0.12500265E+03</pdfrwt>
<pdfrwt beam="2">  1       -4 0.87488103E-01 0.12500265E+03</pdfrwt>
<totfact> 0.11415945E+03</totfact>
</mgrwt>
</event>
<event>
 5    1  0.1430314E-002  0.1249999E+03  0.7818608E-02  0.1235070E+00
         -4   -1    0    0    0  501 -0.00000000000E+00  0.00000000000E+00  0.10915872524E+02  0.10989502853E+02  0.12700000000E+01 0. -1.
          4   -1    0    0  501    0  0.00000000000E+00 -0.00000000000E+00 -0.35657203537E+03  0.35657429704E+03  0.12700000000E+01 0. -1.
         25    2    1    2    0    0  0.00000000000E+00  0.00000000000E+00 -0.34565616285E+03  0.36756379989E+03  0.12499985631E+03 0.  0.
    9000005    1    3    3    0    0 -0.40737172762E+02 -0.15658982025E+02 -0.41307211199E+02  0.60099972211E+02  0.10000000000E+01 0.  0.
    9000005    1    3    3    0    0  0.40737172762E+02  0.15658982025E+02 -0.30434895165E+03  0.30746382768E+03  0.10000000000E+01 0.  0.
<mgrwt>
<rscale>  0 0.12499986E+03</rscale>
<asrwt>0</asrwt>
<pdfrwt beam="2">  1        4 0.89152457E-01 0.12499986E+03</pdfrwt>
<pdfrwt beam="1">  1       -4 0.27384558E-02 0.12499986E+03</pdfrwt>
<totfact> 0.11269385E+03</totfact>
</mgrwt>
</event>
<event>
 5    1  0.1430314E-002  0.1249940E+03  0.7818608E-02  0.1235079E+00
          4   -1    0    0  501    0  0.00000000000E+00  0.00000000000E+00  0.28397276147E+02  0.28425660811E+02  0.12700000000E+01 0.  1.
         -4   -1    0    0    0  501 -0.00000000000E+00 -0.00000000000E+00 -0.13744393061E+03  0.13744979797E+03  0.12700000000E+01 0.  1.
         25    2    1    2    0    0  0.00000000000E+00  0.00000000000E+00 -0.10904665446E+03  0.16587545878E+03  0.12499397976E+03 0.  0.
    9000005    1    3    3    0    0 -0.48589154041E+01 -0.59536709925E+02 -0.78872209657E+02  0.98944703465E+02  0.10000000000E+01 0.  0.
    9000005    1    3    3    0    0  0.48589154041E+01  0.59536709925E+02 -0.30174444807E+02  0.66930755315E+02  0.10000000000E+01 0.  0.
<mgrwt>
<rscale>  0 0.12499398E+03</rscale>
<asrwt>0</asrwt>
<pdfrwt beam="1">  1        4 0.71036009E-02 0.12499398E+03</pdfrwt>
<pdfrwt beam="2">  1       -4 0.34365262E-01 0.12499398E+03</pdfrwt>
<totfact> 0.17787189E+03</totfact>
</mgrwt>
</event>
<event>
 5    1  0.1430314E-002  0.1250017E+03  0.7818608E-02  0.1235067E+00
          4   -1    0    0  501    0  0.00000000000E+00  0.00000000000E+00  0.96996675755E+02  0.97004989601E+02  0.12700000000E+01 0.  1.
         -4   -1    0    0    0  501 -0.00000000000E+00 -0.00000000000E+00 -0.40253033468E+02  0.40273063000E+02  0.12700000000E+01 0.  1.
         25    2    1    2    0    0  0.00000000000E+00  0.00000000000E+00  0.56743642287E+02  0.13727805260E+03  0.12500169113E+03 0.  0.
    9000005    1    3    3    0    0  0.12313223624E+02  0.29900633253E+02  0.87099776115E+02  0.92914123492E+02  0.10000000000E+01 0.  0.
    9000005    1    3    3    0    0 -0.12313223624E+02 -0.29900633253E+02 -0.30356133828E+02  0.44363929109E+02  0.10000000000E+01 0.  0.
<mgrwt>
<rscale>  0 0.12500169E+03</rscale>
<asrwt>0</asrwt>
<pdfrwt beam="1">  1        4 0.24252712E-01 0.12500169E+03</pdfrwt>
<pdfrwt beam="2">  1       -4 0.10066801E-01 0.12500169E+03</pdfrwt>
<totfact> 0.19179714E+03</totfact>
</mgrwt>
</event>
<event>
 5    1  0.1430314E-002  0.1249999E+03  0.7818608E-02  0.1235069E+00
         -4   -1    0    0    0  501 -0.00000000000E+00  0.00000000000E+00  0.19893198868E+02  0.19933696627E+02  0.12700000000E+01 0. -1.
          4   -1    0    0  501    0  0.00000000000E+00 -0.00000000000E+00 -0.19611864651E+03  0.19612275852E+03  0.12700000000E+01 0. -1.
         25    2    1    2    0    0  0.00000000000E+00  0.00000000000E+00 -0.17622544764E+03  0.21605645515E+03  0.12499993365E+03 0.  0.
    9000005    1    3    3    0    0 -0.55160524353E+02  0.18981732268E+02 -0.49376245290E+02  0.76432998148E+02  0.10000000000E+01 0.  0.
    9000005    1    3    3    0    0  0.55160524353E+02 -0.18981732268E+02 -0.12684920235E+03  0.13962345700E+03  0.10000000000E+01 0.  0.
<mgrwt>
<rscale>  0 0.12499993E+03</rscale>
<asrwt>0</asrwt>
<pdfrwt beam="2">  1        4 0.49035232E-01 0.12499993E+03</pdfrwt>
<pdfrwt beam="1">  1       -4 0.49788765E-02 0.12499993E+03</pdfrwt>
<totfact> 0.15698709E+03</totfact>
</mgrwt>
</event>
<event>
 5    1  0.1430314E-002  0.1250037E+03  0.7818608E-02  0.1235063E+00
         -4   -1    0    0    0  501 -0.00000000000E+00  0.00000000000E+00  0.15149821789E+02  0.15202960245E+02  0.12700000000E+01 0.  1.
          4   -1    0    0  501    0  0.00000000000E+00 -0.00000000000E+00 -0.25735054668E+03  0.25735368032E+03  0.12700000000E+01 0.  1.
         25    2    1    2    0    0  0.00000000000E+00  0.00000000000E+00 -0.24220072489E+03  0.27255664057E+03  0.12500372467E+03 0.  0.
    9000005    1    3    3    0    0  0.36463618356E+01 -0.59776839341E+02 -0.82162492941E+02  0.10167714454E+03  0.10000000000E+01 0.  0.
    9000005    1    3    3    0    0 -0.36463618356E+01  0.59776839341E+02 -0.16003823195E+03  0.17087949602E+03  0.10000000000E+01 0.  0.
<mgrwt>
<rscale>  0 0.12500372E+03</rscale>
<asrwt>0</asrwt>
<pdfrwt beam="2">  1        4 0.64344657E-01 0.12500372E+03</pdfrwt>
<pdfrwt beam="1">  1       -4 0.37944903E-02 0.12500372E+03</pdfrwt>
<totfact> 0.13775456E+03</totfact>
</mgrwt>
</event>
<event>
 5    1  0.1430314E-002  0.1249962E+03  0.7818608E-02  0.1235075E+00
         -4   -1    0    0    0  501 -0.00000000000E+00  0.00000000000E+00  0.53286176408E+01  0.54778705682E+01  0.12700000000E+01 0. -1.
          4   -1    0    0  501    0  0.00000000000E+00 -0.00000000000E+00 -0.72275103435E+03  0.72275215015E+03  0.12700000000E+01 0. -1.
         25    2    1    2    0    0  0.00000000000E+00  0.00000000000E+00 -0.71742241671E+03  0.72823002072E+03  0.12499615628E+03 0.  0.
    9000005    1    3    3    0    0 -0.45331179791E+02  0.38418030970E+02 -0.47140347189E+03  0.47513481695E+03  0.10000000000E+01 0.  0.
    9000005    1    3    3    0    0  0.45331179791E+02 -0.38418030970E+02 -0.24601894482E+03  0.25309520377E+03  0.10000000000E+01 0.  0.
<mgrwt>
<rscale>  0 0.12499616E+03</rscale>
<asrwt>0</asrwt>
<pdfrwt beam="2">  1        4 0.18070622E+00 0.12499616E+03</pdfrwt>
<pdfrwt beam="1">  1       -4 0.13509530E-02 0.12499616E+03</pdfrwt>
<totfact> 0.59195433E+02</totfact>
</mgrwt>
</event>
<event>
 5    1  0.1430314E-002  0.1249987E+03  0.7818608E-02  0.1235071E+00
         -4   -1    0    0    0  501 -0.00000000000E+00  0.00000000000E+00  0.38056754255E+01  0.40119902099E+01  0.12700000000E+01 0. -1.
          4   -1    0    0  501    0  0.00000000000E+00 -0.00000000000E+00 -0.99911101301E+03  0.99911182018E+03  0.12700000000E+01 0. -1.
         25    2    1    2    0    0  0.00000000000E+00  0.00000000000E+00 -0.99530533759E+03  0.10031238104E+04  0.12499865576E+03 0.  0.
    9000005    1    3    3    0    0 -0.38759200107E+02 -0.41471233037E+02 -0.70738636136E+03  0.70966090706E+03  0.10000000000E+01 0.  0.
    9000005    1    3    3    0    0  0.38759200107E+02  0.41471233037E+02 -0.28791897622E+03  0.29346290333E+03  0.10000000000E+01 0.  0.
<mgrwt>
<rscale>  0 0.12499866E+03</rscale>
<asrwt>0</asrwt>
<pdfrwt beam="2">  1        4 0.24980277E+00 0.12499866E+03</pdfrwt>
<pdfrwt beam="1">  1       -4 0.97731252E-03 0.12499866E+03</pdfrwt>
<totfact> 0.36900882E+02</totfact>
</mgrwt>
</event>
<event>
 5    1  0.1430314E-002  0.1249946E+03  0.7818608E-02  0.1235078E+00
          4   -1    0    0  501    0  0.00000000000E+00  0.00000000000E+00  0.31431966883E+03  0.31432223452E+03  0.12700000000E+01 0.  1.
         -4   -1    0    0    0  501 -0.00000000000E+00 -0.00000000000E+00 -0.12391488570E+02  0.12456399519E+02  0.12700000000E+01 0.  1.
         25    2    1    2    0    0  0.00000000000E+00  0.00000000000E+00  0.30192818026E+03  0.32677863404E+03  0.12499459840E+03 0.  0.
    9000005    1    3    3    0    0  0.19900090949E+02  0.48260029375E+01 -0.33841597522E+01  0.20778750235E+02  0.10000000000E+01 0.  0.
    9000005    1    3    3    0    0 -0.19900090949E+02 -0.48260029375E+01  0.30531234001E+03  0.30599988380E+03  0.10000000000E+01 0.  0.
<mgrwt>
<rscale>  0 0.12499460E+03</rscale>
<asrwt>0</asrwt>
<pdfrwt beam="1">  1        4 0.78588354E-01 0.12499460E+03</pdfrwt>
<pdfrwt beam="2">  1       -4 0.31063066E-02 0.12499460E+03</pdfrwt>
<totfact> 0.12253902E+03</totfact>
</mgrwt>
</event>
<event>
 5    1  0.1430314E-002  0.1249942E+03  0.7818608E-02  0.1235078E+00
          4   -1    0    0  501    0  0.00000000000E+00  0.00000000000E+00  0.80265156769E+02  0.80275203463E+02  0.12700000000E+01 0.  1.
         -4   -1    0    0    0  501 -0.00000000000E+00 -0.00000000000E+00 -0.48640892113E+02  0.48657468959E+02  0.12700000000E+01 0.  1.
         25    2    1    2    0    0  0.00000000000E+00  0.00000000000E+00  0.31624264656E+02  0.12893267242E+03  0.12499415948E+03 0.  0.
    9000005    1    3    3    0    0 -0.50320231046E+02 -0.36168564182E+02  0.75218308729E+01  0.62432913012E+02  0.10000000000E+01 0.  0.
    9000005    1    3    3    0    0  0.50320231046E+02  0.36168564182E+02  0.24102433783E+02  0.66499759411E+02  0.10000000000E+01 0.  0.
<mgrwt>
<rscale>  0 0.12499416E+03</rscale>
<asrwt>0</asrwt>
<pdfrwt beam="1">  1        4 0.20069617E-01 0.12499416E+03</pdfrwt>
<pdfrwt beam="2">  1       -4 0.12163551E-01 0.12499416E+03</pdfrwt>
<totfact> 0.19624612E+03</totfact>
</mgrwt>
</event>
<event>
 5    1  0.1430314E-002  0.1250017E+03  0.7818608E-02  0.1235067E+00
          4   -1    0    0  501    0  0.00000000000E+00  0.00000000000E+00  0.81376098712E+01  0.82361152503E+01  0.12700000000E+01 0.  1.
         -4   -1    0    0    0  501 -0.00000000000E+00 -0.00000000000E+00 -0.47705006062E+03  0.47705175111E+03  0.12700000000E+01 0.  1.
         25    2    1    2    0    0  0.00000000000E+00  0.00000000000E+00 -0.46891245075E+03  0.48528786636E+03  0.12500170707E+03 0.  0.
    9000005    1    3    3    0    0  0.25053008598E+01 -0.61917474044E+02 -0.20308280132E+03  0.21232916501E+03  0.10000000000E+01 0.  0.
    9000005    1    3    3    0    0 -0.25053008598E+01  0.61917474044E+02 -0.26582964943E+03  0.27295870135E+03  0.10000000000E+01 0.  0.
<mgrwt>
<rscale>  0 0.12500171E+03</rscale>
<asrwt>0</asrwt>
<pdfrwt beam="1">  1        4 0.20469286E-02 0.12500171E+03</pdfrwt>
<pdfrwt beam="2">  1       -4 0.11927495E+00 0.12500171E+03</pdfrwt>
<totfact> 0.89990171E+02</totfact>
</mgrwt>
</event>
<event>
 5    1  0.1430314E-002  0.1250060E+03  0.7818608E-02  0.1235060E+00
          4   -1    0    0  501    0  0.00000000000E+00  0.00000000000E+00  0.34867352586E+03  0.34867583876E+03  0.12700000000E+01 0.  1.
         -4   -1    0    0    0  501 -0.00000000000E+00 -0.00000000000E+00 -0.11165897832E+02  0.11237890122E+02  0.12700000000E+01 0.  1.
         25    2    1    2    0    0  0.00000000000E+00  0.00000000000E+00  0.33750762802E+03  0.35991372888E+03  0.12500597290E+03 0.  0.
    9000005    1    3    3    0    0 -0.40172498152E+02  0.47031844619E+02  0.14303403769E+03  0.15583824933E+03  0.10000000000E+01 0.  0.
    9000005    1    3    3    0    0  0.40172498152E+02 -0.47031844619E+02  0.19447359033E+03  0.20407547955E+03  0.10000000000E+01 0.  0.
<mgrwt>
<rscale>  0 0.12500597E+03</rscale>
<asrwt>0</asrwt>
<pdfrwt beam="1">  1        4 0.87177673E-01 0.12500597E+03</pdfrwt>
<pdfrwt beam="2">  1       -4 0.28007625E-02 0.12500597E+03</pdfrwt>
<totfact> 0.11442833E+03</totfact>
</mgrwt>
</event>
<event>
 5    1  0.1430314E-002  0.1250015E+03  0.7818608E-02  0.1235067E+00
         -4   -1    0    0    0  501 -0.00000000000E+00  0.00000000000E+00  0.33288211946E+03  0.33288454208E+03  0.12700000000E+01 0.  1.
          4   -1    0    0  501    0  0.00000000000E+00 -0.00000000000E+00 -0.11698086090E+02  0.11766822773E+02  0.12700000000E+01 0.  1.
         25    2    1    2    0    0  0.00000000000E+00  0.00000000000E+00  0.32118403337E+03  0.34465136485E+03  0.12500152001E+03 0.  0.
    9000005    1    3    3    0    0 -0.24287601712E+02  0.45706535337E+02  0.64036859923E+02  0.82344971907E+02  0.10000000000E+01 0.  0.
    9000005    1    3    3    0    0  0.24287601712E+02 -0.45706535337E+02  0.25714717345E+03  0.26230639295E+03  0.10000000000E+01 0.  0.
<mgrwt>
<rscale>  0 0.12500152E+03</rscale>
<asrwt>0</asrwt>
<pdfrwt beam="2">  1        4 0.29334165E-02 0.12500152E+03</pdfrwt>
<pdfrwt beam="1">  1       -4 0.83229423E-01 0.12500152E+03</pdfrwt>
<totfact> 0.11805511E+03</totfact>
</mgrwt>
</event>
<event>
 5    1  0.1430314E-002  0.1249954E+03  0.7818608E-02  0.1235077E+00
         -4   -1    0    0    0  501 -0.00000000000E+00  0.00000000000E+00  0.15219030953E+03  0.15219560839E+03  0.12700000000E+01 0.  1.
          4   -1    0    0  501    0  0.00000000000E+00 -0.00000000000E+00 -0.25643517007E+02  0.25674946241E+02  0.12700000000E+01 0.  1.
         25    2    1    2    0    0  0.00000000000E+00  0.00000000000E+00  0.12654679252E+03  0.17787055463E+03  0.12499537395E+03 0.  0.
    9000005    1    3    3    0    0  0.45208577942E+01  0.52713013236E+02  0.11059510104E+03  0.12260251341E+03  0.10000000000E+01 0.  0.
    9000005    1    3    3    0    0 -0.45208577942E+01 -0.52713013236E+02  0.15951691475E+02  0.55268041222E+02  0.10000000000E+01 0.  0.
<mgrwt>
<rscale>  0 0.12499537E+03</rscale>
<asrwt>0</asrwt>
<pdfrwt beam="2">  1        4 0.64154704E-02 0.12499537E+03</pdfrwt>
<pdfrwt beam="1">  1       -4 0.38052168E-01 0.12499537E+03</pdfrwt>
<totfact> 0.17249635E+03</totfact>
</mgrwt>
</event>
<event>
 5    1  0.1430314E-002  0.1250009E+03  0.7818608E-02  0.1235068E+00
          4   -1    0    0  501    0  0.00000000000E+00  0.00000000000E+00  0.41413758574E+02  0.41433226995E+02  0.12700000000E+01 0.  1.
         -4   -1    0    0    0  501 -0.00000000000E+00 -0.00000000000E+00 -0.94277953474E+02  0.94286507048E+02  0.12700000000E+01 0.  1.
         25    2    1    2    0    0  0.00000000000E+00  0.00000000000E+00 -0.52864194900E+02  0.13571973404E+03  0.12500089242E+03 0.  0.
    9000005    1    3    3    0    0  0.26698104954E+02  0.10779081380E+02 -0.86652857413E+02  0.91316455808E+02  0.10000000000E+01 0.  0.
    9000005    1    3    3    0    0 -0.26698104954E+02 -0.10779081380E+02  0.33788662513E+02  0.44403278235E+02  0.10000000000E+01 0.  0.
<mgrwt>
<rscale>  0 0.12500089E+03</rscale>
<asrwt>0</asrwt>
<pdfrwt beam="1">  1        4 0.10356943E-01 0.12500089E+03</pdfrwt>
<pdfrwt beam="2">  1       -4 0.23572991E-01 0.12500089E+03</pdfrwt>
<totfact> 0.19261104E+03</totfact>
</mgrwt>
</event>
<event>
 5    1  0.1430314E-002  0.1250122E+03  0.7818608E-02  0.1235050E+00
         -4   -1    0    0    0  501 -0.00000000000E+00  0.00000000000E+00  0.35122344642E+03  0.35122574253E+03  0.12700000000E+01 0. -1.
          4   -1    0    0  501    0  0.00000000000E+00 -0.00000000000E+00 -0.11085413615E+02  0.11157925211E+02  0.12700000000E+01 0. -1.
         25    2    1    2    0    0  0.00000000000E+00  0.00000000000E+00  0.34013803281E+03  0.36238366774E+03  0.12501216455E+03 0.  0.
    9000005    1    3    3    0    0  0.42505114492E+02 -0.40977224013E+02  0.22949010177E+03  0.23696523892E+03  0.10000000000E+01 0.  0.
    9000005    1    3    3    0    0 -0.42505114492E+02  0.40977224013E+02  0.11064793104E+03  0.12541842883E+03  0.10000000000E+01 0.  0.
<mgrwt>
<rscale>  0 0.12501216E+03</rscale>
<asrwt>0</asrwt>
<pdfrwt beam="2">  1        4 0.27807043E-02 0.12501216E+03</pdfrwt>
<pdfrwt beam="1">  1       -4 0.87815215E-01 0.12501216E+03</pdfrwt>
<totfact> 0.11384277E+03</totfact>
</mgrwt>
</event>
<event>
 5    1  0.1430314E-002  0.1249996E+03  0.7818608E-02  0.1235070E+00
         -4   -1    0    0    0  501 -0.00000000000E+00  0.00000000000E+00  0.68333662602E+02  0.68345463233E+02  0.12700000000E+01 0. -1.
          4   -1    0    0  501    0  0.00000000000E+00 -0.00000000000E+00 -0.57140188130E+02  0.57154299922E+02  0.12700000000E+01 0. -1.
         25    2    1    2    0    0  0.00000000000E+00  0.00000000000E+00  0.11193474471E+02  0.12549976316E+03  0.12499958672E+03 0.  0.
    9000005    1    3    3    0    0  0.36540433397E+02 -0.43161600683E+02  0.32294438210E+02  0.65131081564E+02  0.10000000000E+01 0.  0.
    9000005    1    3    3    0    0 -0.36540433397E+02  0.43161600683E+02 -0.21100963739E+02  0.60368681591E+02  0.10000000000E+01 0.  0.
<mgrwt>
<rscale>  0 0.12499959E+03</rscale>
<asrwt>0</asrwt>
<pdfrwt beam="2">  1        4 0.14288286E-01 0.12499959E+03</pdfrwt>
<pdfrwt beam="1">  1       -4 0.17086655E-01 0.12499959E+03</pdfrwt>
<totfact> 0.19808168E+03</totfact>
</mgrwt>
</event>
<event>
 5    1  0.1430314E-002  0.1249977E+03  0.7818608E-02  0.1235073E+00
          4   -1    0    0  501    0  0.00000000000E+00  0.00000000000E+00  0.27030427583E+03  0.27030725931E+03  0.12700000000E+01 0.  1.
         -4   -1    0    0    0  501 -0.00000000000E+00 -0.00000000000E+00 -0.14419803213E+02  0.14475621738E+02  0.12700000000E+01 0.  1.
         25    2    1    2    0    0  0.00000000000E+00  0.00000000000E+00  0.25588447262E+03  0.28478288105E+03  0.12499770401E+03 0.  0.
    9000005    1    3    3    0    0  0.17116482593E+02  0.46723870163E+02  0.41817113405E+02  0.65005884295E+02  0.10000000000E+01 0.  0.
    9000005    1    3    3    0    0 -0.17116482593E+02 -0.46723870163E+02  0.21406735922E+03  0.21977699675E+03  0.10000000000E+01 0.  0.
<mgrwt>
<rscale>  0 0.12499770E+03</rscale>
<asrwt>0</asrwt>
<pdfrwt beam="1">  1        4 0.67583420E-01 0.12499770E+03</pdfrwt>
<pdfrwt beam="2">  1       -4 0.36123010E-02 0.12499770E+03</pdfrwt>
<totfact> 0.13409228E+03</totfact>
</mgrwt>
</event>
<event>
 5    1  0.1430314E-002  0.1249463E+03  0.7818608E-02  0.1235153E+00
          4   -1    0    0  501    0  0.00000000000E+00  0.00000000000E+00  0.42938267256E+02  0.42957044765E+02  0.12700000000E+01 0.  1.
         -4   -1    0    0    0  501 -0.00000000000E+00 -0.00000000000E+00 -0.90852360739E+02  0.90861236795E+02  0.12700000000E+01 0.  1.
         25    2    1    2    0    0  0.00000000000E+00  0.00000000000E+00 -0.47914093483E+02  0.13381828156E+03  0.12494627696E+03 0.  0.
    9000005    1    3    3    0    0  0.38775995565E+02  0.46973935412E+02 -0.38788248332E+02  0.72219503244E+02  0.10000000000E+01 0.  0.
    9000005    1    3    3    0    0 -0.38775995565E+02 -0.46973935412E+02 -0.91258451516E+01  0.61598778315E+02  0.10000000000E+01 0.  0.
<mgrwt>
<rscale>  0 0.12494628E+03</rscale>
<asrwt>0</asrwt>
<pdfrwt beam="1">  1        4 0.10738024E-01 0.12494628E+03</pdfrwt>
<pdfrwt beam="2">  1       -4 0.22716547E-01 0.12494628E+03</pdfrwt>
<totfact> 0.19385506E+03</totfact>
</mgrwt>
</event>
<event>
 5    1  0.1430314E-002  0.1250252E+03  0.7818608E-02  0.1235030E+00
         -4   -1    0    0    0  501 -0.00000000000E+00  0.00000000000E+00  0.48145313209E+03  0.48145480712E+03  0.12700000000E+01 0.  1.
          4   -1    0    0  501    0  0.00000000000E+00 -0.00000000000E+00 -0.80653576609E+01  0.81647347904E+01  0.12700000000E+01 0.  1.
         25    2    1    2    0    0  0.00000000000E+00  0.00000000000E+00  0.47338777443E+03  0.48961954191E+03  0.12502524082E+03 0.  0.
    9000005    1    3    3    0    0 -0.24208743056E+02 -0.48312543692E+02  0.11368248334E+03  0.12587641613E+03  0.10000000000E+01 0.  0.
    9000005    1    3    3    0    0  0.24208743056E+02  0.48312543692E+02  0.35970529109E+03  0.36374312578E+03  0.10000000000E+01 0.  0.
<mgrwt>
<rscale>  0 0.12502524E+03</rscale>
<asrwt>0</asrwt>
<pdfrwt beam="2">  1        4 0.20289709E-02 0.12502524E+03</pdfrwt>
<pdfrwt beam="1">  1       -4 0.12037592E+00 0.12502524E+03</pdfrwt>
<totfact> 0.89230026E+02</totfact>
</mgrwt>
</event>
<event>
 5    1  0.1430314E-002  0.1250008E+03  0.7818608E-02  0.1235068E+00
          4   -1    0    0  501    0  0.00000000000E+00  0.00000000000E+00  0.55484679588E+01  0.56919589502E+01  0.12700000000E+01 0. -1.
         -4   -1    0    0    0  501 -0.00000000000E+00 -0.00000000000E+00 -0.69490040362E+03  0.69490156415E+03  0.12700000000E+01 0. -1.
         25    2    1    2    0    0  0.00000000000E+00  0.00000000000E+00 -0.68935193566E+03  0.70059352310E+03  0.12500077361E+03 0.  0.
    9000005    1    3    3    0    0  0.70271266787E+01  0.97689047549E+01 -0.68837271746E+03  0.68847861997E+03  0.10000000000E+01 0.  0.
    9000005    1    3    3    0    0 -0.70271266787E+01 -0.97689047549E+01 -0.97921819967E+00  0.12114903126E+02  0.10000000000E+01 0.  0.
<mgrwt>
<rscale>  0 0.12500077E+03</rscale>
<asrwt>0</asrwt>
<pdfrwt beam="1">  1        4 0.14052008E-02 0.12500077E+03</pdfrwt>
<pdfrwt beam="2">  1       -4 0.17374289E+00 0.12500077E+03</pdfrwt>
<totfact> 0.62002904E+02</totfact>
</mgrwt>
</event>
<event>
 5    1  0.1430314E-002  0.1249993E+03  0.7818608E-02  0.1235070E+00
         -4   -1    0    0    0  501 -0.00000000000E+00  0.00000000000E+00  0.19310299611E+02  0.19352017235E+02  0.12700000000E+01 0. -1.
          4   -1    0    0  501    0  0.00000000000E+00 -0.00000000000E+00 -0.20202406193E+03  0.20202805375E+03  0.12700000000E+01 0. -1.
         25    2    1    2    0    0  0.00000000000E+00  0.00000000000E+00 -0.18271376232E+03  0.22138007098E+03  0.12499926754E+03 0.  0.
    9000005    1    3    3    0    0 -0.59082199642E+01  0.58427888184E+02 -0.53517722201E+02  0.79459875222E+02  0.10000000000E+01 0.  0.
    9000005    1    3    3    0    0  0.59082199642E+01 -0.58427888184E+02 -0.12919604012E+03  0.14192019576E+03  0.10000000000E+01 0.  0.
<mgrwt>
<rscale>  0 0.12499927E+03</rscale>
<asrwt>0</asrwt>
<pdfrwt beam="2">  1        4 0.50511723E-01 0.12499927E+03</pdfrwt>
<pdfrwt beam="1">  1       -4 0.48332892E-02 0.12499927E+03</pdfrwt>
<totfact> 0.15500554E+03</totfact>
</mgrwt>
</event>
<event>
 5    1  0.1430314E-002  0.1249992E+03  0.7818608E-02  0.1235071E+00
          4   -1    0    0  501    0  0.00000000000E+00  0.00000000000E+00  0.28408066669E+02  0.28436440562E+02  0.12700000000E+01 0. -1.
         -4   -1    0    0    0  501 -0.00000000000E+00 -0.00000000000E+00 -0.13740320671E+03  0.13740907581E+03  0.12700000000E+01 0. -1.
         25    2    1    2    0    0  0.00000000000E+00  0.00000000000E+00 -0.10899514004E+03  0.16584551637E+03  0.12499917899E+03 0.  0.
    9000005    1    3    3    0    0  0.50200686938E+02  0.15225310155E+02 -0.94404023146E+01  0.53310789098E+02  0.10000000000E+01 0.  0.
    9000005    1    3    3    0    0 -0.50200686938E+02 -0.15225310155E+02 -0.99554737728E+02  0.11253472727E+03  0.10000000000E+01 0.  0.
<mgrwt>
<rscale>  0 0.12499918E+03</rscale>
<asrwt>0</asrwt>
<pdfrwt beam="1">  1        4 0.71062974E-02 0.12499918E+03</pdfrwt>
<pdfrwt beam="2">  1       -4 0.34355080E-01 0.12499918E+03</pdfrwt>
<totfact> 0.17786415E+03</totfact>
</mgrwt>
</event>
<event>
 5    1  0.1430314E-002  0.1249996E+03  0.7818608E-02  0.1235070E+00
         -4   -1    0    0    0  501 -0.00000000000E+00  0.00000000000E+00  0.31715518925E+03  0.31715773200E+03  0.12700000000E+01 0. -1.
          4   -1    0    0  501    0  0.00000000000E+00 -0.00000000000E+00 -0.12281118438E+02  0.12346609659E+02  0.12700000000E+01 0. -1.
         25    2    1    2    0    0  0.00000000000E+00  0.00000000000E+00  0.30487407081E+03  0.32950434166E+03  0.12499964848E+03 0.  0.
    9000005    1    3    3    0    0  0.45976979754E+02 -0.28625103796E+02  0.70255539436E+02  0.88713697117E+02  0.10000000000E+01 0.  0.
    9000005    1    3    3    0    0 -0.45976979754E+02  0.28625103796E+02  0.23461853137E+03  0.24079064454E+03  0.10000000000E+01 0.  0.
<mgrwt>
<rscale>  0 0.12499965E+03</rscale>
<asrwt>0</asrwt>
<pdfrwt beam="2">  1        4 0.30787841E-02 0.12499965E+03</pdfrwt>
<pdfrwt beam="1">  1       -4 0.79297295E-01 0.12499965E+03</pdfrwt>
<totfact> 0.12182752E+03</totfact>
</mgrwt>
</event>
<event>
 5    1  0.1430314E-002  0.1250000E+03  0.7818608E-02  0.1235069E+00
         -4   -1    0    0    0  501 -0.00000000000E+00  0.00000000000E+00  0.10553176245E+03  0.10553940395E+03  0.12700000000E+01 0.  1.
          4   -1    0    0  501    0  0.00000000000E+00 -0.00000000000E+00 -0.36995025114E+02  0.37016817572E+02  0.12700000000E+01 0.  1.
         25    2    1    2    0    0  0.00000000000E+00  0.00000000000E+00  0.68536737338E+02  0.14255622152E+03  0.12499996772E+03 0.  0.
    9000005    1    3    3    0    0  0.25790427260E+02  0.44361476251E+02 -0.64084856084E+01  0.51721904462E+02  0.10000000000E+01 0.  0.
    9000005    1    3    3    0    0 -0.25790427260E+02 -0.44361476251E+02  0.74945222947E+02  0.90834317061E+02  0.10000000000E+01 0.  0.
<mgrwt>
<rscale>  0 0.12499997E+03</rscale>
<asrwt>0</asrwt>
<pdfrwt beam="2">  1        4 0.92524356E-02 0.12499997E+03</pdfrwt>
<pdfrwt beam="1">  1       -4 0.26386620E-01 0.12499997E+03</pdfrwt>
<totfact> 0.18910339E+03</totfact>
</mgrwt>
</event>
<event>
 4    1  0.1430314E-002  0.1251008E+03  0.7818608E-02  0.1234912E+00
         -4   -1    0    0    0  501 -0.00000000000E+00  0.00000000000E+00  0.70489518931E+02  0.70500958711E+02  0.12700000000E+01 0. -1.
          4   -1    0    0  501    0  0.00000000000E+00 -0.00000000000E+00 -0.55482283359E+02  0.55496816726E+02  0.12700000000E+01 0. -1.
    9000005    1    1    2    0    0 -0.37895399472E+02 -0.38409180870E+02 -0.24349530573E+02  0.59204950091E+02  0.10000000000E+01 0.  0.
    9000005    1    1    2    0    0  0.37895399472E+02  0.38409180870E+02  0.39356766145E+02  0.66792825346E+02  0.10000000000E+01 0.  0.
<mgrwt>
<rscale>  0 0.12510085E+03</rscale>
<asrwt>0</asrwt>
<pdfrwt beam="2">  1        4 0.13873818E-01 0.12510085E+03</pdfrwt>
<pdfrwt beam="1">  1       -4 0.17625626E-01 0.12510085E+03</pdfrwt>
<totfact> 0.19734447E+03</totfact>
</mgrwt>
</event>
<event>
 5    1  0.1430314E-002  0.1249922E+03  0.7818608E-02  0.1235081E+00
          4   -1    0    0  501    0  0.00000000000E+00  0.00000000000E+00  0.63808337752E+02  0.63820975131E+02  0.12700000000E+01 0. -1.
         -4   -1    0    0    0  501 -0.00000000000E+00 -0.00000000000E+00 -0.61185592014E+02  0.61198770986E+02  0.12700000000E+01 0. -1.
         25    2    1    2    0    0  0.00000000000E+00  0.00000000000E+00  0.26227457381E+01  0.12501974612E+03  0.12499223225E+03 0.  0.
    9000005    1    3    3    0    0 -0.38927774856E+01 -0.58985974229E+02 -0.18948101401E+02  0.62084856599E+02  0.10000000000E+01 0.  0.
    9000005    1    3    3    0    0  0.38927774856E+01  0.58985974229E+02  0.21570847139E+02  0.62934889517E+02  0.10000000000E+01 0.  0.
<mgrwt>
<rscale>  0 0.12499223E+03</rscale>
<asrwt>0</asrwt>
<pdfrwt beam="1">  1        4 0.15955311E-01 0.12499223E+03</pdfrwt>
<pdfrwt beam="2">  1       -4 0.15299625E-01 0.12499223E+03</pdfrwt>
<totfact> 0.19837590E+03</totfact>
</mgrwt>
</event>
<event>
 5    1  0.1430314E-002  0.1250008E+03  0.7818608E-02  0.1235068E+00
         -4   -1    0    0    0  501 -0.00000000000E+00  0.00000000000E+00  0.44729736764E+01  0.46497734901E+01  0.12700000000E+01 0. -1.
          4   -1    0    0  501    0  0.00000000000E+00 -0.00000000000E+00 -0.85620922552E+03  0.85621016741E+03  0.12700000000E+01 0. -1.
         25    2    1    2    0    0  0.00000000000E+00  0.00000000000E+00 -0.85173625185E+03  0.86085994090E+03  0.12500078052E+03 0.  0.
    9000005    1    3    3    0    0  0.12613101352E+02  0.44293950383E+02 -0.13496514984E+03  0.14261008393E+03  0.10000000000E+01 0.  0.
    9000005    1    3    3    0    0 -0.12613101352E+02 -0.44293950383E+02 -0.71677110200E+03  0.71824985697E+03  0.10000000000E+01 0.  0.
<mgrwt>
<rscale>  0 0.12500078E+03</rscale>
<asrwt>0</asrwt>
<pdfrwt beam="2">  1        4 0.21407397E+00 0.12500078E+03</pdfrwt>
<pdfrwt beam="1">  1       -4 0.11404641E-02 0.12500078E+03</pdfrwt>
<totfact> 0.47346271E+02</totfact>
</mgrwt>
</event>
<event>
 5    1  0.1430314E-002  0.1249968E+03  0.7818608E-02  0.1235074E+00
          4   -1    0    0  501    0  0.00000000000E+00  0.00000000000E+00  0.12743631885E+03  0.12744264695E+03  0.12700000000E+01 0.  1.
         -4   -1    0    0    0  501 -0.00000000000E+00 -0.00000000000E+00 -0.30630745949E+02  0.30657062765E+02  0.12700000000E+01 0.  1.
         25    2    1    2    0    0  0.00000000000E+00  0.00000000000E+00  0.96805572899E+02  0.15809970971E+03  0.12499679703E+03 0.  0.
    9000005    1    3    3    0    0  0.29711314712E+02 -0.10317873239E+02 -0.19896036611E+02  0.37230001382E+02  0.10000000000E+01 0.  0.
    9000005    1    3    3    0    0 -0.29711314712E+02  0.10317873239E+02  0.11670160951E+03  0.12086970833E+03  0.10000000000E+01 0.  0.
<mgrwt>
<rscale>  0 0.12499680E+03</rscale>
<asrwt>0</asrwt>
<pdfrwt beam="1">  1        4 0.31863160E-01 0.12499680E+03</pdfrwt>
<pdfrwt beam="2">  1       -4 0.76617671E-02 0.12499680E+03</pdfrwt>
<totfact> 0.18148904E+03</totfact>
</mgrwt>
</event>
<event>
 5    1  0.1430314E-002  0.1250019E+03  0.7818608E-02  0.1235066E+00
          4   -1    0    0  501    0  0.00000000000E+00  0.00000000000E+00  0.13788615119E+02  0.13846978259E+02  0.12700000000E+01 0.  1.
         -4   -1    0    0    0  501 -0.00000000000E+00 -0.00000000000E+00 -0.28264582361E+03  0.28264867681E+03  0.12700000000E+01 0.  1.
         25    2    1    2    0    0  0.00000000000E+00  0.00000000000E+00 -0.26885720849E+03  0.29649565507E+03  0.12500189966E+03 0.  0.
    9000005    1    3    3    0    0  0.60119469052E+02  0.59536837481E+01 -0.17234772019E+03  0.18263223583E+03  0.10000000000E+01 0.  0.
    9000005    1    3    3    0    0 -0.60119469052E+02 -0.59536837481E+01 -0.96509488296E+02  0.11386341924E+03  0.10000000000E+01 0.  0.
<mgrwt>
<rscale>  0 0.12500190E+03</rscale>
<asrwt>0</asrwt>
<pdfrwt beam="1">  1        4 0.34548067E-02 0.12500190E+03</pdfrwt>
<pdfrwt beam="2">  1       -4 0.70669089E-01 0.12500190E+03</pdfrwt>
<totfact> 0.13069276E+03</totfact>
</mgrwt>
</event>
<event>
 5    1  0.1430314E-002  0.1249897E+03  0.7818608E-02  0.1235085E+00
          4   -1    0    0  501    0  0.00000000000E+00  0.00000000000E+00  0.31494564814E+03  0.31494820873E+03  0.12700000000E+01 0.  1.
         -4   -1    0    0    0  501 -0.00000000000E+00 -0.00000000000E+00 -0.12365763689E+02  0.12430808968E+02  0.12700000000E+01 0.  1.
         25    2    1    2    0    0  0.00000000000E+00  0.00000000000E+00  0.30257988445E+03  0.32737901770E+03  0.12498973860E+03 0.  0.
    9000005    1    3    3    0    0  0.15526715309E+02 -0.16808183428E+02  0.30358998156E+03  0.30445273988E+03  0.10000000000E+01 0.  0.
    9000005    1    3    3    0    0 -0.15526715309E+02  0.16808183428E+02 -0.10100971055E+01  0.22926277819E+02  0.10000000000E+01 0.  0.
<mgrwt>
<rscale>  0 0.12498974E+03</rscale>
<asrwt>0</asrwt>
<pdfrwt beam="1">  1        4 0.78744862E-01 0.12498974E+03</pdfrwt>
<pdfrwt beam="2">  1       -4 0.30998917E-02 0.12498974E+03</pdfrwt>
<totfact> 0.12239848E+03</totfact>
</mgrwt>
</event>
<event>
 4    1  0.1430314E-002  0.1250725E+03  0.7818608E-02  0.1234956E+00
          4   -1    0    0  501    0  0.00000000000E+00  0.00000000000E+00  0.67312464015E+03  0.67312583821E+03  0.12700000000E+01 0.  1.
         -4   -1    0    0    0  501 -0.00000000000E+00 -0.00000000000E+00 -0.57392710894E+01  0.58781062118E+01  0.12700000000E+01 0.  1.
    9000005    1    1    2    0    0  0.24294127689E+02 -0.54188950407E+02  0.43995667656E+03  0.44394765935E+03  0.10000000000E+01 0.  0.
    9000005    1    1    2    0    0 -0.24294127689E+02  0.54188950407E+02  0.22742869249E+03  0.23505628508E+03  0.10000000000E+01 0.  0.
<mgrwt>
<rscale>  0 0.12507248E+03</rscale>
<asrwt>0</asrwt>
<pdfrwt beam="1">  1        4 0.16829864E+00 0.12507248E+03</pdfrwt>
<pdfrwt beam="2">  1       -4 0.14523221E-02 0.12507248E+03</pdfrwt>
<totfact> 0.64182373E+02</totfact>
</mgrwt>
</event>
<event>
 5    1  0.1430314E-002  0.1249993E+03  0.7818608E-02  0.1235070E+00
         -4   -1    0    0    0  501 -0.00000000000E+00  0.00000000000E+00  0.20874619442E+02  0.20913216798E+02  0.12700000000E+01 0.  1.
          4   -1    0    0  501    0  0.00000000000E+00 -0.00000000000E+00 -0.18691349830E+03  0.18691781282E+03  0.12700000000E+01 0.  1.
         25    2    1    2    0    0  0.00000000000E+00  0.00000000000E+00 -0.16603887886E+03  0.20783102961E+03  0.12499931030E+03 0.  0.
    9000005    1    3    3    0    0 -0.38423055742E+02  0.48925001856E+02 -0.73152177024E+02  0.96032432139E+02  0.10000000000E+01 0.  0.
    9000005    1    3    3    0    0  0.38423055742E+02 -0.48925001856E+02 -0.92886701838E+02  0.11179859748E+03  0.10000000000E+01 0.  0.
<mgrwt>
<rscale>  0 0.12499931E+03</rscale>
<asrwt>0</asrwt>
<pdfrwt beam="2">  1        4 0.46733734E-01 0.12499931E+03</pdfrwt>
<pdfrwt beam="1">  1       -4 0.52240194E-02 0.12499931E+03</pdfrwt>
<totfact> 0.16013460E+03</totfact>
</mgrwt>
</event>
<event>
 5    1  0.1430314E-002  0.1249997E+03  0.7818608E-02  0.1235070E+00
         -4   -1    0    0    0  501 -0.00000000000E+00  0.00000000000E+00  0.62709093940E+03  0.62709222542E+03  0.12700000000E+01 0.  1.
          4   -1    0    0  501    0  0.00000000000E+00 -0.00000000000E+00 -0.61630966144E+01  0.62925876933E+01  0.12700000000E+01 0.  1.
         25    2    1    2    0    0  0.00000000000E+00  0.00000000000E+00  0.62092784279E+03  0.63338481311E+03  0.12499974213E+03 0.  0.
    9000005    1    3    3    0    0 -0.42237154262E+02 -0.24944918795E+01  0.54349681360E+03  0.54514217052E+03  0.10000000000E+01 0.  0.
    9000005    1    3    3    0    0  0.42237154262E+02  0.24944918795E+01  0.77431029189E+02  0.88242642589E+02  0.10000000000E+01 0.  0.
<mgrwt>
<rscale>  0 0.12499974E+03</rscale>
<asrwt>0</asrwt>
<pdfrwt beam="2">  1        4 0.15571218E-02 0.12499974E+03</pdfrwt>
<pdfrwt beam="1">  1       -4 0.15678904E+00 0.12499974E+03</pdfrwt>
<totfact> 0.69445109E+02</totfact>
</mgrwt>
</event>
<event>
 5    1  0.1430314E-002  0.1250050E+03  0.7818608E-02  0.1235061E+00
         -4   -1    0    0    0  501 -0.00000000000E+00  0.00000000000E+00  0.29583460347E+02  0.29610707963E+02  0.12700000000E+01 0. -1.
          4   -1    0    0  501    0  0.00000000000E+00 -0.00000000000E+00 -0.13196121785E+03  0.13196732897E+03  0.12700000000E+01 0. -1.
         25    2    1    2    0    0  0.00000000000E+00  0.00000000000E+00 -0.10237775750E+03  0.16157803694E+03  0.12500502705E+03 0.  0.
    9000005    1    3    3    0    0  0.68674140540E+00  0.45133199219E+02 -0.10705562624E+03  0.11618685121E+03  0.10000000000E+01 0.  0.
    9000005    1    3    3    0    0 -0.68674140540E+00 -0.45133199219E+02  0.46778687358E+01  0.45391185723E+02  0.10000000000E+01 0.  0.
<mgrwt>
<rscale>  0 0.12500503E+03</rscale>
<asrwt>0</asrwt>
<pdfrwt beam="2">  1        4 0.32994473E-01 0.12500503E+03</pdfrwt>
<pdfrwt beam="1">  1       -4 0.74000353E-02 0.12500503E+03</pdfrwt>
<totfact> 0.17981641E+03</totfact>
</mgrwt>
</event>
<event>
 5    1  0.1430314E-002  0.1249999E+03  0.7818608E-02  0.1235069E+00
         -4   -1    0    0    0  501 -0.00000000000E+00  0.00000000000E+00  0.24835180732E+02  0.24867631612E+02  0.12700000000E+01 0. -1.
          4   -1    0    0  501    0  0.00000000000E+00 -0.00000000000E+00 -0.15714893453E+03  0.15715406620E+03  0.12700000000E+01 0. -1.
         25    2    1    2    0    0  0.00000000000E+00  0.00000000000E+00 -0.13231375380E+03  0.18202169782E+03  0.12499987612E+03 0.  0.
    9000005    1    3    3    0    0 -0.18107358997E+02  0.59750866641E+02 -0.70064134954E+02  0.93851081619E+02  0.10000000000E+01 0.  0.
    9000005    1    3    3    0    0  0.18107358997E+02 -0.59750866641E+02 -0.62249618846E+02  0.88170616197E+02  0.10000000000E+01 0.  0.
<mgrwt>
<rscale>  0 0.12499988E+03</rscale>
<asrwt>0</asrwt>
<pdfrwt beam="2">  1        4 0.39291929E-01 0.12499988E+03</pdfrwt>
<pdfrwt beam="1">  1       -4 0.62134934E-02 0.12499988E+03</pdfrwt>
<totfact> 0.17068113E+03</totfact>
</mgrwt>
</event>
<event>
 5    1  0.1430314E-002  0.1250008E+03  0.7818608E-02  0.1235068E+00
          4   -1    0    0  501    0  0.00000000000E+00  0.00000000000E+00  0.38053825428E+03  0.38054037351E+03  0.12700000000E+01 0.  1.
         -4   -1    0    0    0  501 -0.00000000000E+00 -0.00000000000E+00 -0.10223767037E+02  0.10302344997E+02  0.12700000000E+01 0.  1.
         25    2    1    2    0    0  0.00000000000E+00  0.00000000000E+00  0.37031448724E+03  0.39084271851E+03  0.12500084459E+03 0.  0.
    9000005    1    3    3    0    0 -0.11675207172E+02 -0.50441351305E+02  0.75737102500E+02  0.91748291968E+02  0.10000000000E+01 0.  0.
    9000005    1    3    3    0    0  0.11675207172E+02  0.50441351305E+02  0.29457738474E+03  0.29909442654E+03  0.10000000000E+01 0.  0.
<mgrwt>
<rscale>  0 0.12500084E+03</rscale>
<asrwt>0</asrwt>
<pdfrwt beam="1">  1        4 0.95144647E-01 0.12500084E+03</pdfrwt>
<pdfrwt beam="2">  1       -4 0.25660290E-02 0.12500084E+03</pdfrwt>
<totfact> 0.10760080E+03</totfact>
</mgrwt>
</event>
<event>
 5    1  0.1430314E-002  0.1250005E+03  0.7818608E-02  0.1235069E+00
          4   -1    0    0  501    0  0.00000000000E+00  0.00000000000E+00  0.86687250963E+03  0.86687343993E+03  0.12700000000E+01 0.  1.
         -4   -1    0    0    0  501 -0.00000000000E+00 -0.00000000000E+00 -0.44157426020E+01  0.45947451210E+01  0.12700000000E+01 0.  1.
         25    2    1    2    0    0  0.00000000000E+00  0.00000000000E+00  0.86245676703E+03  0.87146818505E+03  0.12500049024E+03 0.  0.
    9000005    1    3    3    0    0 -0.21591386804E+02  0.58643689365E+02  0.43193776833E+03  0.43643614195E+03  0.10000000000E+01 0.  0.
    9000005    1    3    3    0    0  0.21591386804E+02 -0.58643689365E+02  0.43051899870E+03  0.43503204310E+03  0.10000000000E+01 0.  0.
<mgrwt>
<rscale>  0 0.12500049E+03</rscale>
<asrwt>0</asrwt>
<pdfrwt beam="1">  1        4 0.21674069E+00 0.12500049E+03</pdfrwt>
<pdfrwt beam="2">  1       -4 0.11264269E-02 0.12500049E+03</pdfrwt>
<totfact> 0.46496478E+02</totfact>
</mgrwt>
</event>
<event>
 5    1  0.1430314E-002  0.1249968E+03  0.7818608E-02  0.1235074E+00
          4   -1    0    0  501    0  0.00000000000E+00  0.00000000000E+00  0.51593985428E+02  0.51609613759E+02  0.12700000000E+01 0.  1.
         -4   -1    0    0    0  501 -0.00000000000E+00 -0.00000000000E+00 -0.75675078752E+02  0.75685734746E+02  0.12700000000E+01 0.  1.
         25    2    1    2    0    0  0.00000000000E+00  0.00000000000E+00 -0.24081093324E+02  0.12729534850E+03  0.12499682674E+03 0.  0.
    9000005    1    3    3    0    0  0.51356057644E+02 -0.17967225265E+02 -0.43343133778E+02  0.69569340130E+02  0.10000000000E+01 0.  0.
    9000005    1    3    3    0    0 -0.51356057644E+02  0.17967225265E+02  0.19262040454E+02  0.57726008375E+02  0.10000000000E+01 0.  0.
<mgrwt>
<rscale>  0 0.12499683E+03</rscale>
<asrwt>0</asrwt>
<pdfrwt beam="1">  1        4 0.12901782E-01 0.12499683E+03</pdfrwt>
<pdfrwt beam="2">  1       -4 0.18922055E-01 0.12499683E+03</pdfrwt>
<totfact> 0.19712425E+03</totfact>
</mgrwt>
</event>
<event>
 5    1  0.1430314E-002  0.1250003E+03  0.7818608E-02  0.1235069E+00
         -4   -1    0    0    0  501 -0.00000000000E+00  0.00000000000E+00  0.36211667682E+02  0.36233931284E+02  0.12700000000E+01 0. -1.
          4   -1    0    0  501    0  0.00000000000E+00 -0.00000000000E+00 -0.10781413170E+03  0.10782161144E+03  0.12700000000E+01 0. -1.
         25    2    1    2    0    0  0.00000000000E+00  0.00000000000E+00 -0.71602464015E+02  0.14405554272E+03  0.12500034615E+03 0.  0.
    9000005    1    3    3    0    0 -0.32961358281E+02 -0.42830868131E+02  0.35562843708E+00  0.54056090093E+02  0.10000000000E+01 0.  0.
    9000005    1    3    3    0    0  0.32961358281E+02  0.42830868131E+02 -0.71958092452E+02  0.89999452631E+02  0.10000000000E+01 0.  0.
<mgrwt>
<rscale>  0 0.12500035E+03</rscale>
<asrwt>0</asrwt>
<pdfrwt beam="2">  1        4 0.26957250E-01 0.12500035E+03</pdfrwt>
<pdfrwt beam="1">  1       -4 0.90566350E-02 0.12500035E+03</pdfrwt>
<totfact> 0.18834601E+03</totfact>
</mgrwt>
</event>
<event>
 5    1  0.1430314E-002  0.1249982E+03  0.7818608E-02  0.1235072E+00
          4   -1    0    0  501    0  0.00000000000E+00  0.00000000000E+00  0.27926123133E+03  0.27926411911E+03  0.12700000000E+01 0.  1.
         -4   -1    0    0    0  501 -0.00000000000E+00 -0.00000000000E+00 -0.13955603929E+02  0.14013271603E+02  0.12700000000E+01 0.  1.
         25    2    1    2    0    0  0.00000000000E+00  0.00000000000E+00  0.26530562740E+03  0.29327739071E+03  0.12499820789E+03 0.  0.
    9000005    1    3    3    0    0 -0.32553425341E+02  0.36457788877E+02  0.41292185747E+02  0.63991721925E+02  0.10000000000E+01 0.  0.
    9000005    1    3    3    0    0  0.32553425341E+02 -0.36457788877E+02  0.22401344165E+03  0.22928566879E+03  0.10000000000E+01 0.  0.
<mgrwt>
<rscale>  0 0.12499821E+03</rscale>
<asrwt>0</asrwt>
<pdfrwt beam="1">  1        4 0.69822878E-01 0.12499821E+03</pdfrwt>
<pdfrwt beam="2">  1       -4 0.34964704E-02 0.12499821E+03</pdfrwt>
<totfact> 0.13162124E+03</totfact>
</mgrwt>
</event>
<event>
 5    1  0.1430314E-002  0.1249971E+03  0.7818608E-02  0.1235074E+00
          4   -1    0    0  501    0  0.00000000000E+00  0.00000000000E+00  0.19276128075E+02  0.19317919494E+02  0.12700000000E+01 0. -1.
         -4   -1    0    0    0  501 -0.00000000000E+00 -0.00000000000E+00 -0.20237447965E+03  0.20237846455E+03  0.12700000000E+01 0. -1.
         25    2    1    2    0    0  0.00000000000E+00  0.00000000000E+00 -0.18309835158E+03  0.22169638405E+03  0.12499712136E+03 0.  0.
    9000005    1    3    3    0    0  0.26727151251E+02  0.52251509060E+02 -0.12960996493E+03  0.14228247897E+03  0.10000000000E+01 0.  0.
    9000005    1    3    3    0    0 -0.26727151251E+02 -0.52251509060E+02 -0.53488386645E+02  0.79413905073E+02  0.10000000000E+01 0.  0.
<mgrwt>
<rscale>  0 0.12499712E+03</rscale>
<asrwt>0</asrwt>
<pdfrwt beam="1">  1        4 0.48247547E-02 0.12499712E+03</pdfrwt>
<pdfrwt beam="2">  1       -4 0.50599335E-01 0.12499712E+03</pdfrwt>
<totfact> 0.15489657E+03</totfact>
</mgrwt>
</event>
<event>
 5    1  0.1430314E-002  0.1250007E+03  0.7818608E-02  0.1235068E+00
         -4   -1    0    0    0  501 -0.00000000000E+00  0.00000000000E+00  0.90678535580E+02  0.90687428649E+02  0.12700000000E+01 0.  1.
          4   -1    0    0  501    0  0.00000000000E+00 -0.00000000000E+00 -0.43058095561E+02  0.43076820836E+02  0.12700000000E+01 0.  1.
         25    2    1    2    0    0  0.00000000000E+00  0.00000000000E+00  0.47620440019E+02  0.13376424948E+03  0.12500067253E+03 0.  0.
    9000005    1    3    3    0    0 -0.59126657797E+02  0.18915755264E+02  0.31491523261E+02  0.69616689786E+02  0.10000000000E+01 0.  0.
    9000005    1    3    3    0    0  0.59126657797E+02 -0.18915755264E+02  0.16128916759E+02  0.64147559698E+02  0.10000000000E+01 0.  0.
<mgrwt>
<rscale>  0 0.12500067E+03</rscale>
<asrwt>0</asrwt>
<pdfrwt beam="2">  1        4 0.10767976E-01 0.12500067E+03</pdfrwt>
<pdfrwt beam="1">  1       -4 0.22673086E-01 0.12500067E+03</pdfrwt>
<totfact> 0.19363757E+03</totfact>
</mgrwt>
</event>
<event>
 5    1  0.1430314E-002  0.1249986E+03  0.7818608E-02  0.1235071E+00
         -4   -1    0    0    0  501 -0.00000000000E+00  0.00000000000E+00  0.44552813866E+01  0.46327564402E+01  0.12700000000E+01 0. -1.
          4   -1    0    0  501    0  0.00000000000E+00 -0.00000000000E+00 -0.85944914927E+03  0.85945008760E+03  0.12700000000E+01 0. -1.
         25    2    1    2    0    0  0.00000000000E+00  0.00000000000E+00 -0.85499386788E+03  0.86408284404E+03  0.12499858900E+03 0.  0.
    9000005    1    3    3    0    0 -0.16517447920E+02  0.21911541081E+02 -0.81561024548E+03  0.81607230945E+03  0.10000000000E+01 0.  0.
    9000005    1    3    3    0    0  0.16517447920E+02 -0.21911541081E+02 -0.39383622404E+02  0.48010534594E+02  0.10000000000E+01 0.  0.
<mgrwt>
<rscale>  0 0.12499859E+03</rscale>
<asrwt>0</asrwt>
<pdfrwt beam="2">  1        4 0.21488403E+00 0.12499859E+03</pdfrwt>
<pdfrwt beam="1">  1       -4 0.11361250E-02 0.12499859E+03</pdfrwt>
<totfact> 0.47088999E+02</totfact>
</mgrwt>
</event>
<event>
 5    1  0.1430314E-002  0.1249981E+03  0.7818608E-02  0.1235072E+00
          4   -1    0    0  501    0  0.00000000000E+00  0.00000000000E+00  0.52773644608E+02  0.52788923698E+02  0.12700000000E+01 0. -1.
         -4   -1    0    0    0  501 -0.00000000000E+00 -0.00000000000E+00 -0.73985202722E+02  0.73996102072E+02  0.12700000000E+01 0. -1.
         25    2    1    2    0    0  0.00000000000E+00  0.00000000000E+00 -0.21211558114E+02  0.12678502577E+03  0.12499805023E+03 0.  0.
    9000005    1    3    3    0    0 -0.53643551347E+02  0.24238930674E+02 -0.31881149703E+02  0.66951953427E+02  0.10000000000E+01 0.  0.
    9000005    1    3    3    0    0  0.53643551347E+02 -0.24238930674E+02  0.10669591589E+02  0.59833072343E+02  0.10000000000E+01 0.  0.
<mgrwt>
<rscale>  0 0.12499805E+03</rscale>
<asrwt>0</asrwt>
<pdfrwt beam="1">  1        4 0.13196684E-01 0.12499805E+03</pdfrwt>
<pdfrwt beam="2">  1       -4 0.18499573E-01 0.12499805E+03</pdfrwt>
<totfact> 0.19739458E+03</totfact>
</mgrwt>
</event>
<event>
 5    1  0.1430314E-002  0.1249929E+03  0.7818608E-02  0.1235080E+00
         -4   -1    0    0    0  501 -0.00000000000E+00  0.00000000000E+00  0.67748857155E+03  0.67748976190E+03  0.12700000000E+01 0. -1.
          4   -1    0    0  501    0  0.00000000000E+00 -0.00000000000E+00 -0.56939771377E+01  0.58338902668E+01  0.12700000000E+01 0. -1.
         25    2    1    2    0    0  0.00000000000E+00  0.00000000000E+00  0.67179459441E+03  0.68332365217E+03  0.12499294592E+03 0.  0.
    9000005    1    3    3    0    0 -0.37249987543E+02  0.27856363645E+02  0.56402292596E+03  0.56593851218E+03  0.10000000000E+01 0.  0.
    9000005    1    3    3    0    0  0.37249987543E+02 -0.27856363645E+02  0.10777166845E+03  0.11738513998E+03  0.10000000000E+01 0.  0.
<mgrwt>
<rscale>  0 0.12499295E+03</rscale>
<asrwt>0</asrwt>
<pdfrwt beam="2">  1        4 0.14411321E-02 0.12499295E+03</pdfrwt>
<pdfrwt beam="1">  1       -4 0.16938979E+00 0.12499295E+03</pdfrwt>
<totfact> 0.63833412E+02</totfact>
</mgrwt>
</event>
<event>
 5    1  0.1430314E-002  0.1250014E+03  0.7818608E-02  0.1235067E+00
         -4   -1    0    0    0  501 -0.00000000000E+00  0.00000000000E+00  0.64849826950E+03  0.64849951306E+03  0.12700000000E+01 0.  1.
          4   -1    0    0  501    0  0.00000000000E+00 -0.00000000000E+00 -0.59554645343E+01  0.60893725308E+01  0.12700000000E+01 0.  1.
         25    2    1    2    0    0  0.00000000000E+00  0.00000000000E+00  0.64254280496E+03  0.65458888559E+03  0.12500141172E+03 0.  0.
    9000005    1    3    3    0    0 -0.24636342994E+02  0.56732637162E+02  0.36804989501E+03  0.37321209349E+03  0.10000000000E+01 0.  0.
    9000005    1    3    3    0    0  0.24636342994E+02 -0.56732637162E+02  0.27449290996E+03  0.28137679210E+03  0.10000000000E+01 0.  0.
<mgrwt>
<rscale>  0 0.12500141E+03</rscale>
<asrwt>0</asrwt>
<pdfrwt beam="2">  1        4 0.15057602E-02 0.12500141E+03</pdfrwt>
<pdfrwt beam="1">  1       -4 0.16214145E+00 0.12500141E+03</pdfrwt>
<totfact> 0.66986145E+02</totfact>
</mgrwt>
</event>
<event>
 5    1  0.1430314E-002  0.1249923E+03  0.7818608E-02  0.1235081E+00
         -4   -1    0    0    0  501 -0.00000000000E+00  0.00000000000E+00  0.29676700858E+03  0.29676972602E+03  0.12700000000E+01 0. -1.
          4   -1    0    0  501    0  0.00000000000E+00 -0.00000000000E+00 -0.13127645620E+02  0.13188933980E+02  0.12700000000E+01 0. -1.
         25    2    1    2    0    0  0.00000000000E+00  0.00000000000E+00  0.28363936296E+03  0.30995866000E+03  0.12499233052E+03 0.  0.
    9000005    1    3    3    0    0  0.34876569466E+02  0.37658417353E+02  0.23020154627E+03  0.23585648899E+03  0.10000000000E+01 0.  0.
    9000005    1    3    3    0    0 -0.34876569466E+02 -0.37658417353E+02  0.53437816691E+02  0.74102171007E+02  0.10000000000E+01 0.  0.
<mgrwt>
<rscale>  0 0.12499233E+03</rscale>
<asrwt>0</asrwt>
<pdfrwt beam="2">  1        4 0.32899121E-02 0.12499233E+03</pdfrwt>
<pdfrwt beam="1">  1       -4 0.74199753E-01 0.12499233E+03</pdfrwt>
<totfact> 0.12698695E+03</totfact>
</mgrwt>
</event>
<event>
 5    1  0.1430314E-002  0.1249975E+03  0.7818608E-02  0.1235073E+00
          4   -1    0    0  501    0  0.00000000000E+00  0.00000000000E+00  0.37920417649E+02  0.37941678596E+02  0.12700000000E+01 0. -1.
         -4   -1    0    0    0  501 -0.00000000000E+00 -0.00000000000E+00 -0.10295358827E+03  0.10296142111E+03  0.12700000000E+01 0. -1.
         25    2    1    2    0    0  0.00000000000E+00  0.00000000000E+00 -0.65033170621E+02  0.14090309971E+03  0.12499748088E+03 0.  0.
    9000005    1    3    3    0    0  0.48746166970E+02 -0.29042760328E+02 -0.62028558945E+02  0.84072664086E+02  0.10000000000E+01 0.  0.
    9000005    1    3    3    0    0 -0.48746166970E+02  0.29042760328E+02 -0.30046116756E+01  0.56830435623E+02  0.10000000000E+01 0.  0.
<mgrwt>
<rscale>  0 0.12499748E+03</rscale>
<asrwt>0</asrwt>
<pdfrwt beam="1">  1        4 0.94837413E-02 0.12499748E+03</pdfrwt>
<pdfrwt beam="2">  1       -4 0.25742033E-01 0.12499748E+03</pdfrwt>
<totfact> 0.18995352E+03</totfact>
</mgrwt>
</event>
<event>
 5    1  0.1430314E-002  0.1249964E+03  0.7818608E-02  0.1235075E+00
          4   -1    0    0  501    0  0.00000000000E+00  0.00000000000E+00  0.73669804707E+02  0.73680750712E+02  0.12700000000E+01 0.  1.
         -4   -1    0    0    0  501 -0.00000000000E+00 -0.00000000000E+00 -0.52998230401E+02  0.53013444763E+02  0.12700000000E+01 0.  1.
         25    2    1    2    0    0  0.00000000000E+00  0.00000000000E+00  0.20671574305E+02  0.12669419548E+03  0.12499642068E+03 0.  0.
    9000005    1    3    3    0    0 -0.59017620140E+02  0.16099843507E+02 -0.25945176465E+01  0.61237373962E+02  0.10000000000E+01 0.  0.
    9000005    1    3    3    0    0  0.59017620140E+02 -0.16099843507E+02  0.23266091952E+02  0.65456821513E+02  0.10000000000E+01 0.  0.
<mgrwt>
<rscale>  0 0.12499642E+03</rscale>
<asrwt>0</asrwt>
<pdfrwt beam="1">  1        4 0.18420721E-01 0.12499642E+03</pdfrwt>
<pdfrwt beam="2">  1       -4 0.13252828E-01 0.12499642E+03</pdfrwt>
<totfact> 0.19745106E+03</totfact>
</mgrwt>
</event>
<event>
 5    1  0.1430314E-002  0.1250014E+03  0.7818608E-02  0.1235067E+00
         -4   -1    0    0    0  501 -0.00000000000E+00  0.00000000000E+00  0.89132925154E+02  0.89141972417E+02  0.12700000000E+01 0.  1.
          4   -1    0    0  501    0  0.00000000000E+00 -0.00000000000E+00 -0.43805486833E+02  0.43823892760E+02  0.12700000000E+01 0.  1.
         25    2    1    2    0    0  0.00000000000E+00  0.00000000000E+00  0.45327438321E+02  0.13296586518E+03  0.12500137854E+03 0.  0.
    9000005    1    3    3    0    0  0.34742279856E+02  0.26470145306E+02  0.70206452130E+02  0.82690026743E+02  0.10000000000E+01 0.  0.
    9000005    1    3    3    0    0 -0.34742279856E+02 -0.26470145306E+02 -0.24879013809E+02  0.50275838434E+02  0.10000000000E+01 0.  0.
<mgrwt>
<rscale>  0 0.12500138E+03</rscale>
<asrwt>0</asrwt>
<pdfrwt beam="2">  1        4 0.10954803E-01 0.12500138E+03</pdfrwt>
<pdfrwt beam="1">  1       -4 0.22286663E-01 0.12500138E+03</pdfrwt>
<totfact> 0.19405596E+03</totfact>
</mgrwt>
</event>
<event>
 5    1  0.1430314E-002  0.1249853E+03  0.7818608E-02  0.1235092E+00
         -4   -1    0    0    0  501 -0.00000000000E+00  0.00000000000E+00  0.74452197223E+02  0.74463028217E+02  0.12700000000E+01 0.  1.
          4   -1    0    0  501    0  0.00000000000E+00 -0.00000000000E+00 -0.52431841235E+02  0.52447219901E+02  0.12700000000E+01 0.  1.
         25    2    1    2    0    0  0.00000000000E+00  0.00000000000E+00  0.22020355988E+02  0.12691024812E+03  0.12498525913E+03 0.  0.
    9000005    1    3    3    0    0  0.45030314837E+02  0.63487122557E+01 -0.32501810279E+02  0.55905304516E+02  0.10000000000E+01 0.  0.
    9000005    1    3    3    0    0 -0.45030314837E+02 -0.63487122557E+01  0.54522166266E+02  0.71004943602E+02  0.10000000000E+01 0.  0.
<mgrwt>
<rscale>  0 0.12498526E+03</rscale>
<asrwt>0</asrwt>
<pdfrwt beam="2">  1        4 0.13111237E-01 0.12498526E+03</pdfrwt>
<pdfrwt beam="1">  1       -4 0.18616325E-01 0.12498526E+03</pdfrwt>
<totfact> 0.19738615E+03</totfact>
</mgrwt>
</event>
<event>
 5    1  0.1430314E-002  0.1249986E+03  0.7818608E-02  0.1235072E+00
          4   -1    0    0  501    0  0.00000000000E+00  0.00000000000E+00  0.34615440997E+03  0.34615673970E+03  0.12700000000E+01 0. -1.
         -4   -1    0    0    0  501 -0.00000000000E+00 -0.00000000000E+00 -0.11246338939E+02  0.11317819558E+02  0.12700000000E+01 0. -1.
         25    2    1    2    0    0  0.00000000000E+00  0.00000000000E+00  0.33490807103E+03  0.35747455926E+03  0.12499857790E+03 0.  0.
    9000005    1    3    3    0    0  0.29994508078E+02  0.42485870037E+01  0.11142988794E+02  0.32293764191E+02  0.10000000000E+01 0.  0.
    9000005    1    3    3    0    0 -0.29994508078E+02 -0.42485870037E+01  0.32376508223E+03  0.32518079507E+03  0.10000000000E+01 0.  0.
<mgrwt>
<rscale>  0 0.12499858E+03</rscale>
<asrwt>0</asrwt>
<pdfrwt beam="1">  1        4 0.86547824E-01 0.12499858E+03</pdfrwt>
<pdfrwt beam="2">  1       -4 0.28208112E-02 0.12499858E+03</pdfrwt>
<totfact> 0.11501429E+03</totfact>
</mgrwt>
</event>
<event>
 5    1  0.1430314E-002  0.1249973E+03  0.7818608E-02  0.1235073E+00
         -4   -1    0    0    0  501 -0.00000000000E+00  0.00000000000E+00  0.84919439758E+02  0.84928935875E+02  0.12700000000E+01 0.  1.
          4   -1    0    0  501    0  0.00000000000E+00 -0.00000000000E+00 -0.45976683901E+02  0.45994220969E+02  0.12700000000E+01 0.  1.
         25    2    1    2    0    0  0.00000000000E+00  0.00000000000E+00  0.38942755857E+02  0.13092315684E+03  0.12499733903E+03 0.  0.
    9000005    1    3    3    0    0 -0.10229472430E+02 -0.26975018810E+02 -0.38589304664E+02  0.48191577900E+02  0.10000000000E+01 0.  0.
    9000005    1    3    3    0    0  0.10229472430E+02  0.26975018810E+02  0.77532060521E+02  0.82731578944E+02  0.10000000000E+01 0.  0.
<mgrwt>
<rscale>  0 0.12499734E+03</rscale>
<asrwt>0</asrwt>
<pdfrwt beam="2">  1        4 0.11497550E-01 0.12499734E+03</pdfrwt>
<pdfrwt beam="1">  1       -4 0.21233239E-01 0.12499734E+03</pdfrwt>
<totfact> 0.19516095E+03</totfact>
</mgrwt>
</event>
<event>
 5    1  0.1430314E-002  0.1249989E+03  0.7818608E-02  0.1235071E+00
          4   -1    0    0  501    0  0.00000000000E+00  0.00000000000E+00  0.10842025043E+03  0.10842768836E+03  0.12700000000E+01 0. -1.
         -4   -1    0    0    0  501 -0.00000000000E+00 -0.00000000000E+00 -0.36008298769E+02  0.36030688034E+02  0.12700000000E+01 0. -1.
         25    2    1    2    0    0  0.00000000000E+00  0.00000000000E+00  0.72411951658E+02  0.14445837639E+03  0.12499892706E+03 0.  0.
    9000005    1    3    3    0    0  0.23825292492E+02 -0.55453776671E+02  0.17484828802E+02  0.62844929371E+02  0.10000000000E+01 0.  0.
    9000005    1    3    3    0    0 -0.23825292492E+02  0.55453776671E+02  0.54927122857E+02  0.81613447021E+02  0.10000000000E+01 0.  0.
<mgrwt>
<rscale>  0 0.12499893E+03</rscale>
<asrwt>0</asrwt>
<pdfrwt beam="1">  1        4 0.27108791E-01 0.12499893E+03</pdfrwt>
<pdfrwt beam="2">  1       -4 0.90058031E-02 0.12499893E+03</pdfrwt>
<totfact> 0.18815004E+03</totfact>
</mgrwt>
</event>
<event>
 5    1  0.1430314E-002  0.1250042E+03  0.7818608E-02  0.1235063E+00
          4   -1    0    0  501    0  0.00000000000E+00  0.00000000000E+00  0.76148933799E+02  0.76159523494E+02  0.12700000000E+01 0.  1.
         -4   -1    0    0    0  501 -0.00000000000E+00 -0.00000000000E+00 -0.51278936506E+02  0.51294660826E+02  0.12700000000E+01 0.  1.
         25    2    1    2    0    0  0.00000000000E+00  0.00000000000E+00  0.24869997293E+02  0.12745418432E+03  0.12500420927E+03 0.  0.
    9000005    1    3    3    0    0 -0.20951967828E+01  0.55748275928E+02 -0.16281753034E+02  0.58123623428E+02  0.10000000000E+01 0.  0.
    9000005    1    3    3    0    0  0.20951967828E+01 -0.55748275928E+02  0.41151750327E+02  0.69330560891E+02  0.10000000000E+01 0.  0.
<mgrwt>
<rscale>  0 0.12500421E+03</rscale>
<asrwt>0</asrwt>
<pdfrwt beam="1">  1        4 0.19040523E-01 0.12500421E+03</pdfrwt>
<pdfrwt beam="2">  1       -4 0.12823023E-01 0.12500421E+03</pdfrwt>
<totfact> 0.19700351E+03</totfact>
</mgrwt>
</event>
<event>
 5    1  0.1430314E-002  0.1249930E+03  0.7818608E-02  0.1235080E+00
          4   -1    0    0  501    0  0.00000000000E+00  0.00000000000E+00  0.55079723981E+02  0.55094363539E+02  0.12700000000E+01 0.  1.
         -4   -1    0    0    0  501 -0.00000000000E+00 -0.00000000000E+00 -0.70882229534E+02  0.70893605944E+02  0.12700000000E+01 0.  1.
         25    2    1    2    0    0  0.00000000000E+00  0.00000000000E+00 -0.15802505553E+02  0.12598796948E+03  0.12499299689E+03 0.  0.
    9000005    1    3    3    0    0 -0.61596181066E+02 -0.93077412651E+01 -0.12848350807E+02  0.63614492750E+02  0.10000000000E+01 0.  0.
    9000005    1    3    3    0    0  0.61596181066E+02  0.93077412651E+01 -0.29541547462E+01  0.62373476732E+02  0.10000000000E+01 0.  0.
<mgrwt>
<rscale>  0 0.12499300E+03</rscale>
<asrwt>0</asrwt>
<pdfrwt beam="1">  1        4 0.13773183E-01 0.12499300E+03</pdfrwt>
<pdfrwt beam="2">  1       -4 0.17723809E-01 0.12499300E+03</pdfrwt>
<totfact> 0.19784811E+03</totfact>
</mgrwt>
</event>
<event>
 5    1  0.1430314E-002  0.1249988E+03  0.7818608E-02  0.1235071E+00
         -4   -1    0    0    0  501 -0.00000000000E+00  0.00000000000E+00  0.82253489797E+02  0.82263293660E+02  0.12700000000E+01 0. -1.
          4   -1    0    0  501    0  0.00000000000E+00 -0.00000000000E+00 -0.47468359380E+02  0.47485345553E+02  0.12700000000E+01 0. -1.
         25    2    1    2    0    0  0.00000000000E+00  0.00000000000E+00  0.34785130416E+02  0.12974863921E+03  0.12499881631E+03 0.  0.
    9000005    1    3    3    0    0  0.15773473057E+02 -0.22578382078E+02  0.75618571938E+02  0.80484496715E+02  0.10000000000E+01 0.  0.
    9000005    1    3    3    0    0 -0.15773473057E+02  0.22578382078E+02 -0.40833441521E+02  0.49264142497E+02  0.10000000000E+01 0.  0.
<mgrwt>
<rscale>  0 0.12499882E+03</rscale>
<asrwt>0</asrwt>
<pdfrwt beam="2">  1        4 0.11870439E-01 0.12499882E+03</pdfrwt>
<pdfrwt beam="1">  1       -4 0.20566721E-01 0.12499882E+03</pdfrwt>
<totfact> 0.19578446E+03</totfact>
</mgrwt>
</event>
<event>
 5    1  0.1430314E-002  0.1249720E+03  0.7818608E-02  0.1235113E+00
         -4   -1    0    0    0  501 -0.00000000000E+00  0.00000000000E+00  0.11730693120E+03  0.11731380570E+03  0.12700000000E+01 0.  1.
          4   -1    0    0  501    0  0.00000000000E+00 -0.00000000000E+00 -0.33264532888E+02  0.33288767599E+02  0.12700000000E+01 0.  1.
         25    2    1    2    0    0  0.00000000000E+00  0.00000000000E+00  0.84042398315E+02  0.15060257330E+03  0.12497203835E+03 0.  0.
    9000005    1    3    3    0    0  0.60861537062E+02 -0.13795080875E+02  0.45650830430E+02  0.77326769420E+02  0.10000000000E+01 0.  0.
    9000005    1    3    3    0    0 -0.60861537062E+02  0.13795080875E+02  0.38391567885E+02  0.73275803882E+02  0.10000000000E+01 0.  0.
<mgrwt>
<rscale>  0 0.12497204E+03</rscale>
<asrwt>0</asrwt>
<pdfrwt beam="2">  1        4 0.83200220E-02 0.12497204E+03</pdfrwt>
<pdfrwt beam="1">  1       -4 0.29330621E-01 0.12497204E+03</pdfrwt>
<totfact> 0.18521240E+03</totfact>
</mgrwt>
</event>
<event>
 5    1  0.1430314E-002  0.1249983E+03  0.7818608E-02  0.1235072E+00
          4   -1    0    0  501    0  0.00000000000E+00  0.00000000000E+00  0.82880110394E+02  0.82889840143E+02  0.12700000000E+01 0.  1.
         -4   -1    0    0    0  501 -0.00000000000E+00 -0.00000000000E+00 -0.47108969819E+02  0.47126085530E+02  0.12700000000E+01 0.  1.
         25    2    1    2    0    0  0.00000000000E+00  0.00000000000E+00  0.35771140576E+02  0.13001592567E+03  0.12499826571E+03 0.  0.
    9000005    1    3    3    0    0  0.56559066630E+02  0.83482289550E+00  0.45513363823E+02  0.72609167699E+02  0.10000000000E+01 0.  0.
    9000005    1    3    3    0    0 -0.56559066630E+02 -0.83482289550E+00 -0.97422232477E+01  0.57406757975E+02  0.10000000000E+01 0.  0.
<mgrwt>
<rscale>  0 0.12499827E+03</rscale>
<asrwt>0</asrwt>
<pdfrwt beam="1">  1        4 0.20723383E-01 0.12499827E+03</pdfrwt>
<pdfrwt beam="2">  1       -4 0.11780598E-01 0.12499827E+03</pdfrwt>
<totfact> 0.19564318E+03</totfact>
</mgrwt>
</event>
<event>
 5    1  0.1430314E-002  0.1250000E+03  0.7818608E-02  0.1235069E+00
         -4   -1    0    0    0  501 -0.00000000000E+00  0.00000000000E+00  0.12991577593E+03  0.12992198326E+03  0.12700000000E+01 0.  1.
          4   -1    0    0  501    0  0.00000000000E+00 -0.00000000000E+00 -0.30047201949E+02  0.30074029410E+02  0.12700000000E+01 0.  1.
         25    2    1    2    0    0  0.00000000000E+00  0.00000000000E+00  0.99868573980E+02  0.15999601267E+03  0.12499996801E+03 0.  0.
    9000005    1    3    3    0    0 -0.47497510037E+02 -0.40531269631E+02  0.53185185859E+02  0.82027198370E+02  0.10000000000E+01 0.  0.
    9000005    1    3    3    0    0  0.47497510037E+02  0.40531269631E+02  0.46683388121E+02  0.77968814305E+02  0.10000000000E+01 0.  0.
<mgrwt>
<rscale>  0 0.12499997E+03</rscale>
<asrwt>0</asrwt>
<pdfrwt beam="2">  1        4 0.75159300E-02 0.12499997E+03</pdfrwt>
<pdfrwt beam="1">  1       -4 0.32483073E-01 0.12499997E+03</pdfrwt>
<totfact> 0.18057955E+03</totfact>
</mgrwt>
</event>
<event>
 5    1  0.1430314E-002  0.1249986E+03  0.7818608E-02  0.1235072E+00
         -4   -1    0    0    0  501 -0.00000000000E+00  0.00000000000E+00  0.86391984730E+03  0.86392078078E+03  0.12700000000E+01 0.  1.
          4   -1    0    0  501    0  0.00000000000E+00 -0.00000000000E+00 -0.44313033359E+01  0.46097016449E+01  0.12700000000E+01 0.  1.
         25    2    1    2    0    0  0.00000000000E+00  0.00000000000E+00  0.85948854397E+03  0.86853048242E+03  0.12499856676E+03 0.  0.
    9000005    1    3    3    0    0  0.13178156695E+02 -0.34999428726E+02  0.81874208091E+02  0.90016719422E+02  0.10000000000E+01 0.  0.
    9000005    1    3    3    0    0 -0.13178156695E+02  0.34999428726E+02  0.77761433588E+03  0.77851376300E+03  0.10000000000E+01 0.  0.
<mgrwt>
<rscale>  0 0.12499857E+03</rscale>
<asrwt>0</asrwt>
<pdfrwt beam="2">  1        4 0.11302421E-02 0.12499857E+03</pdfrwt>
<pdfrwt beam="1">  1       -4 0.21600243E+00 0.12499857E+03</pdfrwt>
<totfact> 0.46732560E+02</totfact>
</mgrwt>
</event>
<event>
 5    1  0.1430314E-002  0.1249989E+03  0.7818608E-02  0.1235071E+00
          4   -1    0    0  501    0  0.00000000000E+00  0.00000000000E+00  0.22817243256E+03  0.22817596692E+03  0.12700000000E+01 0. -1.
         -4   -1    0    0    0  501 -0.00000000000E+00 -0.00000000000E+00 -0.17092204521E+02  0.17139321906E+02  0.12700000000E+01 0. -1.
         25    2    1    2    0    0  0.00000000000E+00  0.00000000000E+00  0.21108022803E+03  0.24531528882E+03  0.12499891305E+03 0.  0.
    9000005    1    3    3    0    0  0.10992642145E+02  0.57811037112E+02  0.64269452042E+02  0.87146524079E+02  0.10000000000E+01 0.  0.
    9000005    1    3    3    0    0 -0.10992642145E+02 -0.57811037112E+02  0.14681077599E+03  0.15816876474E+03  0.10000000000E+01 0.  0.
<mgrwt>
<rscale>  0 0.12499891E+03</rscale>
<asrwt>0</asrwt>
<pdfrwt beam="1">  1        4 0.57049440E-01 0.12499891E+03</pdfrwt>
<pdfrwt beam="2">  1       -4 0.42793826E-02 0.12499891E+03</pdfrwt>
<totfact> 0.14655440E+03</totfact>
</mgrwt>
</event>
<event>
 5    1  0.1430314E-002  0.1250018E+03  0.7818608E-02  0.1235067E+00
          4   -1    0    0  501    0  0.00000000000E+00  0.00000000000E+00  0.12710692771E+02  0.12773981788E+02  0.12700000000E+01 0. -1.
         -4   -1    0    0    0  501 -0.00000000000E+00 -0.00000000000E+00 -0.30650084351E+03  0.30650347465E+03  0.12700000000E+01 0. -1.
         25    2    1    2    0    0  0.00000000000E+00  0.00000000000E+00 -0.29379015074E+03  0.31927745644E+03  0.12500176606E+03 0.  0.
    9000005    1    3    3    0    0 -0.34355523754E+02  0.51152707830E+02 -0.17349525696E+03  0.18411546844E+03  0.10000000000E+01 0.  0.
    9000005    1    3    3    0    0  0.34355523754E+02 -0.51152707830E+02 -0.12029489378E+03  0.13516198800E+03  0.10000000000E+01 0.  0.
<mgrwt>
<rscale>  0 0.12500177E+03</rscale>
<asrwt>0</asrwt>
<pdfrwt beam="1">  1        4 0.31859142E-02 0.12500177E+03</pdfrwt>
<pdfrwt beam="2">  1       -4 0.76633427E-01 0.12500177E+03</pdfrwt>
<totfact> 0.12446964E+03</totfact>
</mgrwt>
</event>
<event>
 5    1  0.1430314E-002  0.1249528E+03  0.7818608E-02  0.1235143E+00
         -4   -1    0    0    0  501 -0.00000000000E+00  0.00000000000E+00  0.27016549870E+03  0.27016848370E+03  0.12700000000E+01 0.  1.
          4   -1    0    0  501    0  0.00000000000E+00 -0.00000000000E+00 -0.14416841230E+02  0.14472671179E+02  0.12700000000E+01 0.  1.
         25    2    1    2    0    0  0.00000000000E+00  0.00000000000E+00  0.25574865747E+03  0.28464115488E+03  0.12495283613E+03 0.  0.
    9000005    1    3    3    0    0  0.21757326493E+02 -0.28256741510E+02  0.11040415970E+02  0.37345889756E+02  0.10000000000E+01 0.  0.
    9000005    1    3    3    0    0 -0.21757326493E+02  0.28256741510E+02  0.24470824150E+03  0.24729526512E+03  0.10000000000E+01 0.  0.
<mgrwt>
<rscale>  0 0.12495284E+03</rscale>
<asrwt>0</asrwt>
<pdfrwt beam="2">  1        4 0.36115622E-02 0.12495284E+03</pdfrwt>
<pdfrwt beam="1">  1       -4 0.67548725E-01 0.12495284E+03</pdfrwt>
<totfact> 0.13427222E+03</totfact>
</mgrwt>
</event>
<event>
 5    1  0.1430314E-002  0.1249954E+03  0.7818608E-02  0.1235076E+00
         -4   -1    0    0    0  501 -0.00000000000E+00  0.00000000000E+00  0.12342730502E+03  0.12343383865E+03  0.12700000000E+01 0. -1.
          4   -1    0    0  501    0  0.00000000000E+00 -0.00000000000E+00 -0.31625739003E+02  0.31651228530E+02  0.12700000000E+01 0. -1.
         25    2    1    2    0    0  0.00000000000E+00  0.00000000000E+00  0.91801566018E+02  0.15508506718E+03  0.12499540207E+03 0.  0.
    9000005    1    3    3    0    0 -0.49145913787E+02  0.31551243450E+02  0.18319776966E+02  0.61216141934E+02  0.10000000000E+01 0.  0.
    9000005    1    3    3    0    0  0.49145913787E+02 -0.31551243450E+02  0.73481789052E+02  0.93868925249E+02  0.10000000000E+01 0.  0.
<mgrwt>
<rscale>  0 0.12499540E+03</rscale>
<asrwt>0</asrwt>
<pdfrwt beam="2">  1        4 0.79104377E-02 0.12499540E+03</pdfrwt>
<pdfrwt beam="1">  1       -4 0.30860829E-01 0.12499540E+03</pdfrwt>
<totfact> 0.18293497E+03</totfact>
</mgrwt>
</event>
<event>
 5    1  0.1430314E-002  0.1250060E+03  0.7818608E-02  0.1235060E+00
         -4   -1    0    0    0  501 -0.00000000000E+00  0.00000000000E+00  0.26245967888E+02  0.26276676548E+02  0.12700000000E+01 0.  1.
          4   -1    0    0  501    0  0.00000000000E+00 -0.00000000000E+00 -0.14872623914E+03  0.14873166142E+03  0.12700000000E+01 0.  1.
         25    2    1    2    0    0  0.00000000000E+00  0.00000000000E+00 -0.12248027125E+03  0.17500833797E+03  0.12500600590E+03 0.  0.
    9000005    1    3    3    0    0  0.55160449264E+02 -0.27277685905E+02 -0.76504500117E+02  0.98186994300E+02  0.10000000000E+01 0.  0.
    9000005    1    3    3    0    0 -0.55160449264E+02  0.27277685905E+02 -0.45975771133E+02  0.76821343666E+02  0.10000000000E+01 0.  0.
<mgrwt>
<rscale>  0 0.12500601E+03</rscale>
<asrwt>0</asrwt>
<pdfrwt beam="2">  1        4 0.37186074E-01 0.12500601E+03</pdfrwt>
<pdfrwt beam="1">  1       -4 0.65660088E-02 0.12500601E+03</pdfrwt>
<totfact> 0.17371067E+03</totfact>
</mgrwt>
</event>
<event>
 5    1  0.1430314E-002  0.1249990E+03  0.7818608E-02  0.1235071E+00
         -4   -1    0    0    0  501 -0.00000000000E+00  0.00000000000E+00  0.21984229339E+02  0.22020881899E+02  0.12700000000E+01 0. -1.
          4   -1    0    0  501    0  0.00000000000E+00 -0.00000000000E+00 -0.17749442073E+03  0.17749896420E+03  0.12700000000E+01 0. -1.
         25    2    1    2    0    0  0.00000000000E+00  0.00000000000E+00 -0.15551019139E+03  0.19951984610E+03  0.12499899743E+03 0.  0.
    9000005    1    3    3    0    0  0.37035066535E+01 -0.14307178539E+02  0.19162570678E+02  0.24220145216E+02  0.10000000000E+01 0.  0.
    9000005    1    3    3    0    0 -0.37035066535E+01  0.14307178539E+02 -0.17467276207E+03  0.17529970088E+03  0.10000000000E+01 0.  0.
<mgrwt>
<rscale>  0 0.12499900E+03</rscale>
<asrwt>0</asrwt>
<pdfrwt beam="2">  1        4 0.44378750E-01 0.12499900E+03</pdfrwt>
<pdfrwt beam="1">  1       -4 0.55012074E-02 0.12499900E+03</pdfrwt>
<totfact> 0.16341664E+03</totfact>
</mgrwt>
</event>
<event>
 5    1  0.1430314E-002  0.1249955E+03  0.7818608E-02  0.1235076E+00
          4   -1    0    0  501    0  0.00000000000E+00  0.00000000000E+00  0.11620098500E+02  0.11689293783E+02  0.12700000000E+01 0. -1.
         -4   -1    0    0    0  501 -0.00000000000E+00 -0.00000000000E+00 -0.33507068277E+03  0.33507308957E+03  0.12700000000E+01 0. -1.
         25    2    1    2    0    0  0.00000000000E+00  0.00000000000E+00 -0.32345058427E+03  0.34676238335E+03  0.12499548009E+03 0.  0.
    9000005    1    3    3    0    0 -0.13444664354E+02  0.31185995117E+02 -0.16201617535E+02  0.37640638966E+02  0.10000000000E+01 0.  0.
    9000005    1    3    3    0    0  0.13444664354E+02 -0.31185995117E+02 -0.30724896674E+03  0.30912174439E+03  0.10000000000E+01 0.  0.
<mgrwt>
<rscale>  0 0.12499548E+03</rscale>
<asrwt>0</asrwt>
<pdfrwt beam="1">  1        4 0.29139760E-02 0.12499548E+03</pdfrwt>
<pdfrwt beam="2">  1       -4 0.83776589E-01 0.12499548E+03</pdfrwt>
<totfact> 0.11756142E+03</totfact>
</mgrwt>
</event>
<event>
 5    1  0.1430314E-002  0.1249884E+03  0.7818608E-02  0.1235087E+00
         -4   -1    0    0    0  501 -0.00000000000E+00  0.00000000000E+00  0.13266788523E+03  0.13267396380E+03  0.12700000000E+01 0. -1.
          4   -1    0    0  501    0  0.00000000000E+00 -0.00000000000E+00 -0.29417904464E+02  0.29445305280E+02  0.12700000000E+01 0. -1.
         25    2    1    2    0    0  0.00000000000E+00  0.00000000000E+00  0.10324998076E+03  0.16211926908E+03  0.12498839498E+03 0.  0.
    9000005    1    3    3    0    0  0.32655604601E+02 -0.17710395802E+02  0.11679544471E+03  0.12256517669E+03  0.10000000000E+01 0.  0.
    9000005    1    3    3    0    0 -0.32655604601E+02  0.17710395802E+02 -0.13545463949E+02  0.39554092392E+02  0.10000000000E+01 0.  0.
<mgrwt>
<rscale>  0 0.12498839E+03</rscale>
<asrwt>0</asrwt>
<pdfrwt beam="2">  1        4 0.73586611E-02 0.12498839E+03</pdfrwt>
<pdfrwt beam="1">  1       -4 0.33171156E-01 0.12498839E+03</pdfrwt>
<totfact> 0.17963316E+03</totfact>
</mgrwt>
</event>
<event>
 5    1  0.1430314E-002  0.1249998E+03  0.7818608E-02  0.1235070E+00
         -4   -1    0    0    0  501 -0.00000000000E+00  0.00000000000E+00  0.15306801826E+02  0.15359397194E+02  0.12700000000E+01 0. -1.
          4   -1    0    0  501    0  0.00000000000E+00 -0.00000000000E+00 -0.25470433133E+03  0.25470749753E+03  0.12700000000E+01 0. -1.
         25    2    1    2    0    0  0.00000000000E+00  0.00000000000E+00 -0.23939752950E+03  0.27006689472E+03  0.12499980197E+03 0.  0.
    9000005    1    3    3    0    0  0.35331914643E+02  0.45492229222E+02 -0.67337430863E+02  0.88618376803E+02  0.10000000000E+01 0.  0.
    9000005    1    3    3    0    0 -0.35331914643E+02 -0.45492229222E+02 -0.17206009864E+03  0.18144851792E+03  0.10000000000E+01 0.  0.
<mgrwt>
<rscale>  0 0.12499980E+03</rscale>
<asrwt>0</asrwt>
<pdfrwt beam="2">  1        4 0.63683039E-01 0.12499980E+03</pdfrwt>
<pdfrwt beam="1">  1       -4 0.38336715E-02 0.12499980E+03</pdfrwt>
<totfact> 0.13853565E+03</totfact>
</mgrwt>
</event>
<event>
 5    1  0.1430314E-002  0.1250017E+03  0.7818608E-02  0.1235067E+00
         -4   -1    0    0    0  501 -0.00000000000E+00  0.00000000000E+00  0.46979347747E+02  0.46996510665E+02  0.12700000000E+01 0. -1.
          4   -1    0    0  501    0  0.00000000000E+00 -0.00000000000E+00 -0.83113312827E+02  0.83123015279E+02  0.12700000000E+01 0. -1.
         25    2    1    2    0    0  0.00000000000E+00  0.00000000000E+00 -0.36133965080E+02  0.13011952594E+03  0.12500171039E+03 0.  0.
    9000005    1    3    3    0    0  0.53050110908E+01 -0.58847343528E+02 -0.39252233727E+02  0.70942870224E+02  0.10000000000E+01 0.  0.
    9000005    1    3    3    0    0 -0.53050110908E+01  0.58847343528E+02  0.31182686471E+01  0.59176655721E+02  0.10000000000E+01 0.  0.
<mgrwt>
<rscale>  0 0.12500171E+03</rscale>
<asrwt>0</asrwt>
<pdfrwt beam="2">  1        4 0.20781686E-01 0.12500171E+03</pdfrwt>
<pdfrwt beam="1">  1       -4 0.11748195E-01 0.12500171E+03</pdfrwt>
<totfact> 0.19557178E+03</totfact>
</mgrwt>
</event>
<event>
 5    1  0.1430314E-002  0.1249988E+03  0.7818608E-02  0.1235071E+00
          4   -1    0    0  501    0  0.00000000000E+00  0.00000000000E+00  0.44543777672E+01  0.46318874439E+01  0.12700000000E+01 0. -1.
         -4   -1    0    0    0  501 -0.00000000000E+00 -0.00000000000E+00 -0.85961944324E+03  0.85962038139E+03  0.12700000000E+01 0. -1.
         25    2    1    2    0    0  0.00000000000E+00  0.00000000000E+00 -0.85516506547E+03  0.86425226883E+03  0.12499877989E+03 0.  0.
    9000005    1    3    3    0    0 -0.53696105247E+02  0.11760563078E+02 -0.63310553750E+03  0.63548816210E+03  0.10000000000E+01 0.  0.
    9000005    1    3    3    0    0  0.53696105247E+02 -0.11760563078E+02 -0.22205952798E+03  0.22876410673E+03  0.10000000000E+01 0.  0.
<mgrwt>
<rscale>  0 0.12499878E+03</rscale>
<asrwt>0</asrwt>
<pdfrwt beam="1">  1        4 0.11359034E-02 0.12499878E+03</pdfrwt>
<pdfrwt beam="2">  1       -4 0.21492661E+00 0.12499878E+03</pdfrwt>
<totfact> 0.47075182E+02</totfact>
</mgrwt>
</event>
<event>
 5    1  0.1430314E-002  0.1249992E+03  0.7818608E-02  0.1235071E+00
         -4   -1    0    0    0  501 -0.00000000000E+00  0.00000000000E+00  0.76759439510E+01  0.77802966228E+01  0.12700000000E+01 0.  1.
          4   -1    0    0  501    0  0.00000000000E+00 -0.00000000000E+00 -0.50534742367E+03  0.50534901950E+03  0.12700000000E+01 0.  1.
         25    2    1    2    0    0  0.00000000000E+00  0.00000000000E+00 -0.49767147972E+03  0.51312931612E+03  0.12499917335E+03 0.  0.
    9000005    1    3    3    0    0 -0.58310047448E+02  0.14655094217E+01 -0.34090166534E+03  0.34585713059E+03  0.10000000000E+01 0.  0.
    9000005    1    3    3    0    0  0.58310047448E+02 -0.14655094217E+01 -0.15676981438E+03  0.16727218553E+03  0.10000000000E+01 0.  0.
<mgrwt>
<rscale>  0 0.12499917E+03</rscale>
<asrwt>0</asrwt>
<pdfrwt beam="2">  1        4 0.12634999E+00 0.12499917E+03</pdfrwt>
<pdfrwt beam="1">  1       -4 0.19322313E-02 0.12499917E+03</pdfrwt>
<totfact> 0.85557381E+02</totfact>
</mgrwt>
</event>
