<event>
 8    2  0.1409546E-003  0.2460916E+03  0.7818608E-02  0.1118281E+00
         -1   -1    0    0    0  501 -0.00000000000E+00  0.00000000000E+00  0.37642937431E+02  0.37642937769E+02  0.50400000000E-02 0.  1.
          1   -1    0    0  501    0  0.00000000000E+00 -0.00000000000E+00 -0.15344729854E+04  0.15344729854E+04  0.50400000000E-02 0. -1.
         25    2    1    2    0    0 -0.96880838919E+00  0.21197850992E+03 -0.67849234952E+03  0.72174297982E+03  0.12500093324E+03 0.  0.
         23    2    1    2    0    0  0.96880838919E+00 -0.21197850992E+03 -0.81833769846E+03  0.85037294336E+03  0.92313199661E+02 0.  0.
        -11    1    4    4    0    0 -0.46587308412E+01 -0.16145559724E+03 -0.73671756305E+03  0.75421640221E+03  0.51100000000E-03 0. -1.
         11    1    4    4    0    0  0.56275392304E+01 -0.50522912670E+02 -0.81620135408E+02  0.96156541154E+02  0.51100000000E-03 0.  1.
    9000005    1    3    3    0    0 -0.14012907068E+02  0.67379442132E+02 -0.78352707034E+02  0.10429044772E+03  0.10000000000E+01 0.  0.
    9000005    1    3    3    0    0  0.13044098679E+02  0.14459906778E+03 -0.60013964248E+03  0.61745253210E+03  0.10000000000E+01 0.  0.
<mgrwt>
<rscale>  0 0.24228342E+03</rscale>
<asrwt>0</asrwt>
<pdfrwt beam="2">  1        1 0.23607272E+00 0.24609157E+03</pdfrwt>
<pdfrwt beam="1">  1       -1 0.57912224E-02 0.24609157E+03</pdfrwt>
<totfact> 0.95938098E+02</totfact>
</mgrwt>
</event>
<event>
 8    2  0.1409546E-003  0.1553267E+03  0.7818608E-02  0.1202327E+00
         -1   -1    0    0    0  501 -0.00000000000E+00  0.00000000000E+00  0.17648740321E+03  0.17648740328E+03  0.50400000000E-02 0.  1.
          1   -1    0    0  501    0  0.00000000000E+00 -0.00000000000E+00 -0.12006783682E+03  0.12006783693E+03  0.50400000000E-02 0. -1.
         25    2    1    2    0    0  0.92202648093E+02  0.66988882522E-01  0.70181681116E+00  0.15532824464E+03  0.12500015293E+03 0.  0.
         23    2    1    2    0    0 -0.92202648093E+02 -0.66988882522E-01  0.55717749576E+02  0.14122699558E+03  0.91319569965E+02 0.  0.
        -11    1    4    4    0    0 -0.62289105108E+02  0.21999157616E+02 -0.89238062297E+01  0.66659806997E+02  0.51100000000E-03 0. -1.
         11    1    4    4    0    0 -0.29913542985E+02 -0.22066146499E+02  0.64641555806E+02  0.74567188578E+02  0.51100000000E-03 0.  1.
    9000005    1    3    3    0    0  0.53153380374E+01  0.37879458189E+02  0.37589214572E+02  0.53638188106E+02  0.10000000000E+01 0.  0.
    9000005    1    3    3    0    0  0.86887310055E+02 -0.37812469307E+02 -0.36887397761E+02  0.10169005653E+03  0.10000000000E+01 0.  0.
<mgrwt>
<rscale>  0 0.14850093E+03</rscale>
<asrwt>0</asrwt>
<pdfrwt beam="2">  1        1 0.18471975E-01 0.15532666E+03</pdfrwt>
<pdfrwt beam="1">  1       -1 0.27151908E-01 0.15532666E+03</pdfrwt>
<totfact> 0.33289771E+03</totfact>
</mgrwt>
</event>
<event>
 8    2  0.1409546E-003  0.1272344E+03  0.7818608E-02  0.1246035E+00
          1   -1    0    0  501    0  0.00000000000E+00  0.00000000000E+00  0.18424152534E+03  0.18424152541E+03  0.50400000000E-02 0. -1.
         -1   -1    0    0    0  501 -0.00000000000E+00 -0.00000000000E+00 -0.71196665990E+02  0.71196666168E+02  0.50400000000E-02 0.  1.
         25    2    1    2    0    0 -0.81048487009E+01 -0.22313604466E+02  0.33368033362E+02  0.13153712737E+03  0.12500001884E+03 0.  0.
         23    2    1    2    0    0  0.81048487009E+01  0.22313604466E+02  0.79676825990E+02  0.12390106420E+03  0.91866705582E+02 0.  0.
        -11    1    4    4    0    0 -0.28218306807E+02  0.35762432629E+02  0.70758613392E+02  0.84154654037E+02  0.51100000000E-03 0. -1.
         11    1    4    4    0    0  0.36323155508E+02 -0.13448828164E+02  0.89182125980E+01  0.39746410168E+02  0.51100000000E-03 0.  1.
    9000005    1    3    3    0    0 -0.35095574199E+01 -0.27533927328E+02  0.79841971194E+02  0.84535049013E+02  0.10000000000E+01 0.  0.
    9000005    1    3    3    0    0 -0.45952912810E+01  0.52203228626E+01 -0.46473937832E+02  0.47002078362E+02  0.10000000000E+01 0.  0.
<mgrwt>
<rscale>  0 0.11823669E+03</rscale>
<asrwt>0</asrwt>
<pdfrwt beam="1">  1        1 0.28344850E-01 0.12723439E+03</pdfrwt>
<pdfrwt beam="2">  1       -1 0.10953333E-01 0.12723439E+03</pdfrwt>
<totfact> 0.81076358E+03</totfact>
</mgrwt>
</event>
<event>
 8    2  0.1409546E-003  0.1367618E+03  0.7818608E-02  0.1226593E+00
          1   -1    0    0  501    0  0.00000000000E+00  0.00000000000E+00  0.70315139519E+03  0.70315139521E+03  0.50400000000E-02 0. -1.
         -1   -1    0    0    0  501 -0.00000000000E+00 -0.00000000000E+00 -0.73854012649E+02  0.73854012821E+02  0.50400000000E-02 0.  1.
         25    2    1    2    0    0 -0.10526698009E+02  0.54430147820E+02  0.64758857000E+03  0.66187216052E+03  0.12502139222E+03 0.  0.
         23    2    1    2    0    0  0.10526698009E+02 -0.54430147820E+02 -0.18291187461E+02  0.11513324751E+03  0.99235300071E+02 0.  0.
        -11    1    4    4    0    0  0.38099581166E+01  0.14695811406E+02 -0.39661828883E+02  0.42468144819E+02  0.51100000000E-03 0.  1.
         11    1    4    4    0    0  0.67167398927E+01 -0.69125959226E+02  0.21370641423E+02  0.72665102689E+02  0.51100000000E-03 0. -1.
    9000005    1    3    3    0    0 -0.50081416919E+02  0.23129221275E+02  0.12233490305E+03  0.13420110916E+03  0.10000000000E+01 0.  0.
    9000005    1    3    3    0    0  0.39554718910E+02  0.31300926545E+02  0.52525366695E+03  0.52767105136E+03  0.10000000000E+01 0.  0.
<mgrwt>
<rscale>  0 0.13058284E+03</rscale>
<asrwt>0</asrwt>
<pdfrwt beam="1">  1        1 0.10817714E+00 0.13676184E+03</pdfrwt>
<pdfrwt beam="2">  1       -1 0.11362155E-01 0.13676184E+03</pdfrwt>
<totfact> 0.13896409E+03</totfact>
</mgrwt>
</event>
<event>
 8    2  0.1409546E-003  0.1681899E+03  0.7818608E-02  0.1186424E+00
         -1   -1    0    0    0  501 -0.00000000000E+00  0.00000000000E+00  0.13465190419E+03  0.13465190428E+03  0.50400000000E-02 0.  1.
          1   -1    0    0  501    0  0.00000000000E+00 -0.00000000000E+00 -0.18418305881E+03  0.18418305888E+03  0.50400000000E-02 0. -1.
         25    2    1    2    0    0 -0.68817226760E+02 -0.89035516786E+02 -0.44047935575E+02  0.17386215965E+03  0.12499878393E+03 0.  0.
         23    2    1    2    0    0  0.68817226760E+02  0.89035516786E+02 -0.54832190437E+01  0.14497280351E+03  0.91235487163E+02 0.  0.
        -11    1    4    4    0    0  0.90107307586E+02  0.59243611150E+02  0.67923217261E+00  0.10784059393E+03  0.51100000000E-03 0.  1.
         11    1    4    4    0    0 -0.21290080826E+02  0.29791905636E+02 -0.61624512163E+01  0.37132209579E+02  0.51100000000E-03 0. -1.
    9000005    1    3    3    0    0 -0.46351265053E+02 -0.12066867782E+03 -0.31220733615E+02  0.13298535177E+03  0.10000000000E+01 0.  0.
    9000005    1    3    3    0    0 -0.22465961708E+02  0.31633161034E+02 -0.12827201961E+02  0.40876807881E+02  0.10000000000E+01 0.  0.
<mgrwt>
<rscale>  0 0.16202938E+03</rscale>
<asrwt>0</asrwt>
<pdfrwt beam="2">  1        1 0.28335855E-01 0.16818986E+03</pdfrwt>
<pdfrwt beam="1">  1       -1 0.20715678E-01 0.16818986E+03</pdfrwt>
<totfact> 0.30276905E+03</totfact>
</mgrwt>
</event>
<event>
 8    2  0.1409546E-003  0.1325673E+03  0.7818608E-02  0.1235247E+00
         -1   -1    0    0    0  501 -0.00000000000E+00  0.00000000000E+00  0.73596197879E+01  0.73596215136E+01  0.50400000000E-02 0.  1.
          1   -1    0    0  501    0  0.00000000000E+00 -0.00000000000E+00 -0.22573275369E+04  0.22573275369E+04  0.50400000000E-02 0. -1.
         25    2    1    2    0    0  0.97370569260E+01  0.43067380803E+02 -0.79495652466E+03  0.80593421657E+03  0.12499790309E+03 0.  0.
         23    2    1    2    0    0 -0.97370569260E+01 -0.43067380803E+02 -0.14550113925E+04  0.14587529419E+04  0.94617036591E+02 0.  0.
        -11    1    4    4    0    0 -0.25112541067E+02  0.19069841624E+02 -0.24085118648E+03  0.24290655119E+03  0.51100000000E-03 0.  1.
         11    1    4    4    0    0  0.15375484141E+02 -0.62137222427E+02 -0.12141602060E+04  0.12158463907E+04  0.51100000000E-03 0. -1.
    9000005    1    3    3    0    0  0.19678249322E+02  0.77273447597E+02 -0.32546968466E+03  0.33509690365E+03  0.10000000000E+01 0.  0.
    9000005    1    3    3    0    0 -0.99411923963E+01 -0.34206066794E+02 -0.46948683999E+03  0.47083731292E+03  0.10000000000E+01 0.  0.
<mgrwt>
<rscale>  0 0.12488651E+03</rscale>
<asrwt>0</asrwt>
<pdfrwt beam="2">  1        1 0.34728061E+00 0.13256729E+03</pdfrwt>
<pdfrwt beam="1">  1       -1 0.11322511E-02 0.13256729E+03</pdfrwt>
<totfact> 0.35865038E+03</totfact>
</mgrwt>
</event>
<event>
 8    2  0.1409546E-003  0.1732546E+03  0.7818608E-02  0.1181065E+00
          1   -1    0    0  501    0  0.00000000000E+00  0.00000000000E+00  0.13105666093E+04  0.13105666093E+04  0.50400000000E-02 0. -1.
         -1   -1    0    0    0  501 -0.00000000000E+00 -0.00000000000E+00 -0.20042776115E+02  0.20042776749E+02  0.50400000000E-02 0.  1.
         25    2    1    2    0    0 -0.66113245962E+02 -0.10010507672E+03  0.75642240706E+03  0.77601030748E+03  0.12500060695E+03 0.  0.
         23    2    1    2    0    0  0.66113245962E+02  0.10010507672E+03  0.53410142612E+03  0.55459907858E+03  0.89015823836E+02 0.  0.
        -11    1    4    4    0    0  0.34800752846E+02  0.10335533604E+03  0.31717658690E+03  0.33540185623E+03  0.51100000000E-03 0.  1.
         11    1    4    4    0    0  0.31312493117E+02 -0.32502593174E+01  0.21692483923E+03  0.21919722235E+03  0.51100000000E-03 0. -1.
    9000005    1    3    3    0    0  0.29052797813E+02 -0.37471147430E+02  0.37347131409E+03  0.37647041636E+03  0.10000000000E+01 0.  0.
    9000005    1    3    3    0    0 -0.95166043776E+02 -0.62633929290E+02  0.38295109297E+03  0.39953989112E+03  0.10000000000E+01 0.  0.
<mgrwt>
<rscale>  0 0.16695140E+03</rscale>
<asrwt>0</asrwt>
<pdfrwt beam="1">  1        1 0.20162562E+00 0.17325455E+03</pdfrwt>
<pdfrwt beam="2">  1       -1 0.30835043E-02 0.17325455E+03</pdfrwt>
<totfact> 0.34506321E+03</totfact>
</mgrwt>
</event>
<event>
 8    2  0.1409546E-003  0.1300906E+03  0.7818608E-02  0.1240037E+00
          1   -1    0    0  501    0  0.00000000000E+00  0.00000000000E+00  0.28685695507E+04  0.28685695507E+04  0.50400000000E-02 0. -1.
         -1   -1    0    0    0  501 -0.00000000000E+00 -0.00000000000E+00 -0.47260955973E+01  0.47260982847E+01  0.50400000000E-02 0.  1.
         25    2    1    2    0    0  0.25209298185E+01 -0.35939545440E+02  0.14025207251E+04  0.14085410697E+04  0.12500221828E+03 0.  0.
         23    2    1    2    0    0 -0.25209298185E+01  0.35939545440E+02  0.14613227300E+04  0.14647545794E+04  0.93508558032E+02 0.  0.
        -11    1    4    4    0    0 -0.37119990885E+02  0.48546725151E+02  0.75326827601E+03  0.75574319308E+03  0.51100000000E-03 0.  1.
         11    1    4    4    0    0  0.34599061067E+02 -0.12607179711E+02  0.70805445403E+03  0.70901138628E+03  0.51100000000E-03 0. -1.
    9000005    1    3    3    0    0 -0.82372522607E+01  0.42869793068E+02  0.73527975836E+03  0.73657517915E+03  0.10000000000E+01 0.  0.
    9000005    1    3    3    0    0  0.10758182079E+02 -0.78809338508E+02  0.66724096673E+03  0.67196589051E+03  0.10000000000E+01 0.  0.
<mgrwt>
<rscale>  0 0.12187402E+03</rscale>
<asrwt>0</asrwt>
<pdfrwt beam="1">  1        1 0.44131846E+00 0.13009059E+03</pdfrwt>
<pdfrwt beam="2">  1       -1 0.72709173E-03 0.13009059E+03</pdfrwt>
<totfact> 0.26746672E+03</totfact>
</mgrwt>
</event>
<event>
 8    2  0.1409546E-003  0.1501818E+03  0.7818608E-02  0.1209300E+00
          1   -1    0    0  501    0  0.00000000000E+00  0.00000000000E+00  0.29452991213E+02  0.29452991644E+02  0.50400000000E-02 0. -1.
         -1   -1    0    0    0  501 -0.00000000000E+00 -0.00000000000E+00 -0.67612891978E+03  0.67612891980E+03  0.50400000000E-02 0.  1.
         25    2    1    2    0    0 -0.68504269603E+02  0.47293195363E+02 -0.26748324676E+03  0.30676028862E+03  0.12500042438E+03 0.  0.
         23    2    1    2    0    0  0.68504269603E+02 -0.47293195363E+02 -0.37919268181E+03  0.39882162283E+03  0.91335182782E+02 0.  0.
        -11    1    4    4    0    0  0.18791300034E+02 -0.57347477256E+02 -0.29003680915E+03  0.29624853884E+03  0.51100000000E-03 0.  1.
         11    1    4    4    0    0  0.49712969569E+02  0.10054281892E+02 -0.89155872664E+02  0.10257308399E+03  0.51100000000E-03 0. -1.
    9000005    1    3    3    0    0 -0.83901695393E+02  0.79265167032E+01 -0.85986828422E+02  0.12040373258E+03  0.10000000000E+01 0.  0.
    9000005    1    3    3    0    0  0.15397425790E+02  0.39366678660E+02 -0.18149641834E+03  0.18635655604E+03  0.10000000000E+01 0.  0.
<mgrwt>
<rscale>  0 0.14303708E+03</rscale>
<asrwt>0</asrwt>
<pdfrwt beam="1">  1        1 0.45312300E-02 0.15018185E+03</pdfrwt>
<pdfrwt beam="2">  1       -1 0.10401982E+00 0.15018185E+03</pdfrwt>
<totfact> 0.17219638E+03</totfact>
</mgrwt>
</event>
<event>
 8    2  0.1409546E-003  0.1301323E+03  0.7818608E-02  0.1240384E+00
          1   -1    0    0  501    0  0.00000000000E+00  0.00000000000E+00  0.19124552754E+03  0.19124552761E+03  0.50400000000E-02 0. -1.
         -1   -1    0    0    0  501 -0.00000000000E+00 -0.00000000000E+00 -0.82308267225E+02  0.82308267380E+02  0.50400000000E-02 0.  1.
         25    2    1    2    0    0 -0.76340582329E+01 -0.35480762018E+02  0.11540451662E+03  0.17393277005E+03  0.12496896704E+03 0.  0.
         23    2    1    2    0    0  0.76340582329E+01  0.35480762018E+02 -0.64672563042E+01  0.99621024934E+02  0.92549229528E+02 0.  0.
        -11    1    4    4    0    0 -0.32960112972E+02  0.16499240930E+01 -0.27289842820E+02  0.42823204201E+02  0.51100000000E-03 0.  1.
         11    1    4    4    0    0  0.40594171205E+02  0.33830837925E+02  0.20822586516E+02  0.56797820733E+02  0.51100000000E-03 0. -1.
    9000005    1    3    3    0    0 -0.26788451730E+02 -0.29001922256E+02  0.13803182592E+03  0.14357060147E+03  0.10000000000E+01 0.  0.
    9000005    1    3    3    0    0  0.19154393497E+02 -0.64788397621E+01 -0.22627309298E+02  0.30362168582E+02  0.10000000000E+01 0.  0.
<mgrwt>
<rscale>  0 0.12165983E+03</rscale>
<asrwt>0</asrwt>
<pdfrwt beam="1">  1        1 0.29422389E-01 0.13013226E+03</pdfrwt>
<pdfrwt beam="2">  1       -1 0.12662810E-01 0.13013226E+03</pdfrwt>
<totfact> 0.62018624E+03</totfact>
</mgrwt>
</event>
<event>
 8    2  0.1409546E-003  0.1335871E+03  0.7818608E-02  0.1234855E+00
         -1   -1    0    0    0  501 -0.00000000000E+00  0.00000000000E+00  0.20436895995E+02  0.20436896617E+02  0.50400000000E-02 0.  1.
          1   -1    0    0  501    0  0.00000000000E+00 -0.00000000000E+00 -0.74044198548E+03  0.74044198550E+03  0.50400000000E-02 0. -1.
         25    2    1    2    0    0 -0.36034567244E+02  0.30373011125E+02 -0.50751623848E+03  0.52480306591E+03  0.12499806331E+03 0.  0.
         23    2    1    2    0    0  0.36034567244E+02 -0.30373011125E+02 -0.21248885101E+03  0.23607581620E+03  0.91429039980E+02 0.  0.
        -11    1    4    4    0    0  0.35407622193E+02  0.26813021031E+02 -0.74958312405E+02  0.87128562510E+02  0.51100000000E-03 0.  1.
         11    1    4    4    0    0  0.62694505076E+00 -0.57186032156E+02 -0.13753053860E+03  0.14894725369E+03  0.51100000000E-03 0. -1.
    9000005    1    3    3    0    0  0.33825424181E+02  0.26684315865E+01 -0.33384088423E+03  0.33556223839E+03  0.10000000000E+01 0.  0.
    9000005    1    3    3    0    0 -0.69859991425E+02  0.27704579539E+02 -0.17367535425E+03  0.18924082753E+03  0.10000000000E+01 0.  0.
<mgrwt>
<rscale>  0 0.12513697E+03</rscale>
<asrwt>0</asrwt>
<pdfrwt beam="2">  1        1 0.11391413E+00 0.13358715E+03</pdfrwt>
<pdfrwt beam="1">  1       -1 0.31441385E-02 0.13358715E+03</pdfrwt>
<totfact> 0.87610986E+03</totfact>
</mgrwt>
</event>
<event>
 8    2  0.1409546E-003  0.2134145E+03  0.7818608E-02  0.1142491E+00
          1   -1    0    0  501    0  0.00000000000E+00  0.00000000000E+00  0.16264674516E+03  0.16264674524E+03  0.50400000000E-02 0. -1.
         -1   -1    0    0    0  501 -0.00000000000E+00 -0.00000000000E+00 -0.44008358949E+03  0.44008358952E+03  0.50400000000E-02 0.  1.
         25    2    1    2    0    0 -0.11747981441E+03 -0.12695902751E+03  0.51910058906E+02  0.21963700442E+03  0.12500263212E+03 0.  0.
         23    2    1    2    0    0  0.11747981441E+03  0.12695902751E+03 -0.32934690323E+03  0.38309333034E+03  0.91493254508E+02 0.  0.
        -11    1    4    4    0    0  0.95764990128E+02  0.13475626624E+03 -0.24434934177E+03  0.29501997466E+03  0.51100000000E-03 0.  1.
         11    1    4    4    0    0  0.21714824278E+02 -0.77972387290E+01 -0.84997561464E+02  0.88073355678E+02  0.51100000000E-03 0. -1.
    9000005    1    3    3    0    0 -0.45787163684E+02 -0.52088942032E+02 -0.40879691973E+02  0.80510070526E+02  0.10000000000E+01 0.  0.
    9000005    1    3    3    0    0 -0.71692650722E+02 -0.74870085478E+02  0.92789750879E+02  0.13912693390E+03  0.10000000000E+01 0.  0.
<mgrwt>
<rscale>  0 0.20883594E+03</rscale>
<asrwt>0</asrwt>
<pdfrwt beam="1">  1        1 0.25022576E-01 0.21341453E+03</pdfrwt>
<pdfrwt beam="2">  1       -1 0.67705167E-01 0.21341453E+03</pdfrwt>
<totfact> 0.44026127E+02</totfact>
</mgrwt>
</event>
<event>
 8    2  0.1409546E-003  0.1292300E+03  0.7818608E-02  0.1242207E+00
          1   -1    0    0  501    0  0.00000000000E+00  0.00000000000E+00  0.12823586132E+04  0.12823586132E+04  0.50400000000E-02 0. -1.
         -1   -1    0    0    0  501 -0.00000000000E+00 -0.00000000000E+00 -0.10378530332E+02  0.10378531556E+02  0.50400000000E-02 0.  1.
         25    2    1    2    0    0  0.76197887042E+01 -0.31897267923E+02  0.60736876061E+03  0.62096473827E+03  0.12499959170E+03 0.  0.
         23    2    1    2    0    0 -0.76197887042E+01  0.31897267923E+02  0.66461132224E+03  0.67177240648E+03  0.92165392516E+02 0.  0.
        -11    1    4    4    0    0 -0.62158966285E+01 -0.16979756835E+02  0.49298388386E+03  0.49331537505E+03  0.51100000000E-03 0. -1.
         11    1    4    4    0    0 -0.14038920757E+01  0.48877024759E+02  0.17162743837E+03  0.17845703143E+03  0.51100000000E-03 0.  1.
    9000005    1    3    3    0    0 -0.54175538201E+02  0.42599070722E+01  0.33300572137E+03  0.33741213110E+03  0.10000000000E+01 0.  0.
    9000005    1    3    3    0    0  0.61795326905E+02 -0.36157174996E+02  0.27436303924E+03  0.28355260717E+03  0.10000000000E+01 0.  0.
<mgrwt>
<rscale>  0 0.12054141E+03</rscale>
<asrwt>0</asrwt>
<pdfrwt beam="1">  1        1 0.19728571E+00 0.12923001E+03</pdfrwt>
<pdfrwt beam="2">  1       -1 0.15966989E-02 0.12923001E+03</pdfrwt>
<totfact> 0.92620249E+03</totfact>
</mgrwt>
</event>
<event>
 8    2  0.1409546E-003  0.1302577E+03  0.7818608E-02  0.1238042E+00
          1   -1    0    0  501    0  0.00000000000E+00  0.00000000000E+00  0.85429078045E+03  0.85429078046E+03  0.50400000000E-02 0. -1.
         -1   -1    0    0    0  501 -0.00000000000E+00 -0.00000000000E+00 -0.57729225827E+02  0.57729226047E+02  0.50400000000E-02 0.  1.
         25    2    1    2    0    0 -0.44642920898E+01 -0.36389196591E+02  0.79749009779E+03  0.80805787865E+03  0.12499190228E+03 0.  0.
         23    2    1    2    0    0  0.44642920898E+01  0.36389196591E+02 -0.92854316710E+00  0.10396212786E+03  0.97278765953E+02 0.  0.
        -11    1    4    4    0    0 -0.15128829867E+02  0.33620163964E+02  0.42485380406E+02  0.56251261912E+02  0.51100000000E-03 0. -1.
         11    1    4    4    0    0  0.19593121957E+02  0.27690326270E+01 -0.43413923573E+02  0.47710865953E+02  0.51100000000E-03 0.  1.
    9000005    1    3    3    0    0 -0.48791533830E+02  0.20410625448E+02  0.45535631153E+03  0.45841856186E+03  0.10000000000E+01 0.  0.
    9000005    1    3    3    0    0  0.44327241741E+02 -0.56799822040E+02  0.34213378626E+03  0.34963931679E+03  0.10000000000E+01 0.  0.
<mgrwt>
<rscale>  0 0.12311674E+03</rscale>
<asrwt>0</asrwt>
<pdfrwt beam="1">  1        1 0.13142934E+00 0.13025774E+03</pdfrwt>
<pdfrwt beam="2">  1       -1 0.88814202E-02 0.13025774E+03</pdfrwt>
<totfact> 0.15140295E+03</totfact>
</mgrwt>
</event>
<event>
 8    2  0.1409546E-003  0.1445156E+03  0.7818608E-02  0.1217573E+00
          1   -1    0    0  501    0  0.00000000000E+00  0.00000000000E+00  0.13590590015E+04  0.13590590015E+04  0.50400000000E-02 0. -1.
         -1   -1    0    0    0  501 -0.00000000000E+00 -0.00000000000E+00 -0.16457980849E+02  0.16457981621E+02  0.50400000000E-02 0.  1.
         25    2    1    2    0    0 -0.64274792071E+02 -0.33596600223E+02  0.10614287401E+04  0.10712216019E+04  0.12499907916E+03 0.  0.
         23    2    1    2    0    0  0.64274792071E+02  0.33596600223E+02  0.28117228060E+03  0.30429538121E+03  0.90982675278E+02 0.  0.
        -11    1    4    4    0    0  0.86118273844E+02  0.37759788129E+02  0.23178872585E+03  0.25013630708E+03  0.51100000000E-03 0.  1.
         11    1    4    4    0    0 -0.21843481773E+02 -0.41631879056E+01  0.49383554757E+02  0.54159074126E+02  0.51100000000E-03 0. -1.
    9000005    1    3    3    0    0 -0.80059516995E+02 -0.60323887939E+02  0.56515511430E+03  0.57397717806E+03  0.10000000000E+01 0.  0.
    9000005    1    3    3    0    0  0.15784724924E+02  0.26727287716E+02  0.49627362576E+03  0.49724442388E+03  0.10000000000E+01 0.  0.
<mgrwt>
<rscale>  0 0.13689248E+03</rscale>
<asrwt>0</asrwt>
<pdfrwt beam="1">  1        1 0.20908594E+00 0.14451557E+03</pdfrwt>
<pdfrwt beam="2">  1       -1 0.25319978E-02 0.14451557E+03</pdfrwt>
<totfact> 0.42517144E+03</totfact>
</mgrwt>
</event>
<event>
 8    2  0.1409546E-003  0.1284655E+03  0.7818608E-02  0.1245725E+00
         -1   -1    0    0    0  501 -0.00000000000E+00  0.00000000000E+00  0.29153579600E+03  0.29153579605E+03  0.50400000000E-02 0.  1.
          1   -1    0    0  501    0  0.00000000000E+00 -0.00000000000E+00 -0.48443700828E+02  0.48443701091E+02  0.50400000000E-02 0. -1.
         25    2    1    2    0    0  0.26815926655E+02 -0.12620468023E+02  0.77092982514E+02  0.14982227424E+03  0.12500006307E+03 0.  0.
         23    2    1    2    0    0 -0.26815926655E+02  0.12620468023E+02  0.16599911266E+03  0.19015722290E+03  0.87895926425E+02 0.  0.
        -11    1    4    4    0    0  0.14443507975E+02 -0.29647958069E+02  0.71115220887E+02  0.78389992872E+02  0.51100000000E-03 0.  1.
         11    1    4    4    0    0 -0.41259434630E+02  0.42268426092E+02  0.94883891774E+02  0.11176723003E+03  0.51100000000E-03 0. -1.
    9000005    1    3    3    0    0  0.49905846533E+02 -0.33708539090E+02  0.95952868474E+02  0.11329082970E+03  0.10000000000E+01 0.  0.
    9000005    1    3    3    0    0 -0.23089919879E+02  0.21088071067E+02 -0.18859885961E+02  0.36531444535E+02  0.10000000000E+01 0.  0.
<mgrwt>
<rscale>  0 0.11842076E+03</rscale>
<asrwt>0</asrwt>
<pdfrwt beam="2">  1        1 0.74528771E-02 0.12846550E+03</pdfrwt>
<pdfrwt beam="1">  1       -1 0.44851661E-01 0.12846550E+03</pdfrwt>
<totfact> 0.45796038E+03</totfact>
</mgrwt>
</event>
<event>
 8    2  0.1409546E-003  0.1307967E+03  0.7818608E-02  0.1239146E+00
         -1   -1    0    0    0  501 -0.00000000000E+00  0.00000000000E+00  0.18968482985E+03  0.18968482992E+03  0.50400000000E-02 0. -1.
          1   -1    0    0  501    0  0.00000000000E+00 -0.00000000000E+00 -0.73357790339E+02  0.73357790513E+02  0.50400000000E-02 0.  1.
         25    2    1    2    0    0  0.32577113588E+02  0.20527520637E+02  0.91492662457E+02  0.15962043463E+03  0.12500051374E+03 0.  0.
         23    2    1    2    0    0 -0.32577113588E+02 -0.20527520637E+02  0.24834377054E+02  0.10342218580E+03  0.92718686350E+02 0.  0.
        -11    1    4    4    0    0  0.13886691794E+02 -0.68637728844E+01 -0.27844637116E+02  0.31863386568E+02  0.51100000000E-03 0.  1.
         11    1    4    4    0    0 -0.46463805382E+02 -0.13663747752E+02  0.52679014170E+02  0.71558799231E+02  0.51100000000E-03 0. -1.
    9000005    1    3    3    0    0  0.54229974567E+02  0.55247546743E+02  0.89921663659E+02  0.11865954305E+03  0.10000000000E+01 0.  0.
    9000005    1    3    3    0    0 -0.21652860979E+02 -0.34720026107E+02  0.15709987972E+01  0.40960891575E+02  0.10000000000E+01 0.  0.
<mgrwt>
<rscale>  0 0.12242692E+03</rscale>
<asrwt>0</asrwt>
<pdfrwt beam="2">  1        1 0.11285814E-01 0.13079670E+03</pdfrwt>
<pdfrwt beam="1">  1       -1 0.29182281E-01 0.13079670E+03</pdfrwt>
<totfact> 0.55419594E+03</totfact>
</mgrwt>
</event>
<event>
 8    2  0.1409546E-003  0.1685221E+03  0.7818608E-02  0.1186064E+00
         -1   -1    0    0    0  501 -0.00000000000E+00  0.00000000000E+00  0.38923500376E+02  0.38923500702E+02  0.50400000000E-02 0.  1.
          1   -1    0    0  501    0  0.00000000000E+00 -0.00000000000E+00 -0.68598409026E+03  0.68598409028E+03  0.50400000000E-02 0. -1.
         25    2    1    2    0    0  0.70659924761E+02  0.88216404037E+02 -0.44709900742E+03  0.47780458028E+03  0.12499894236E+03 0.  0.
         23    2    1    2    0    0 -0.70659924761E+02 -0.88216404037E+02 -0.19996158246E+03  0.24710301070E+03  0.91106007091E+02 0.  0.
        -11    1    4    4    0    0  0.22222165996E+02 -0.20412046166E+02 -0.41976448396E+02  0.51696213696E+02  0.51100000000E-03 0.  1.
         11    1    4    4    0    0 -0.92882090757E+02 -0.67804357871E+02 -0.15798513406E+03  0.19540679700E+03  0.51100000000E-03 0. -1.
    9000005    1    3    3    0    0  0.30507691539E+01  0.82641044778E+01  0.73077485422E+01  0.11489377877E+02  0.10000000000E+01 0.  0.
    9000005    1    3    3    0    0  0.67609155607E+02  0.79952299559E+02 -0.45440675596E+03  0.46631520240E+03  0.10000000000E+01 0.  0.
<mgrwt>
<rscale>  0 0.16235447E+03</rscale>
<asrwt>0</asrwt>
<pdfrwt beam="2">  1        1 0.10553600E+00 0.16852209E+03</pdfrwt>
<pdfrwt beam="1">  1       -1 0.59882314E-02 0.16852209E+03</pdfrwt>
<totfact> 0.38214141E+03</totfact>
</mgrwt>
</event>
<event>
 8    2  0.1409546E-003  0.1267354E+03  0.7818608E-02  0.1246893E+00
          1   -1    0    0  501    0  0.00000000000E+00  0.00000000000E+00  0.15571382367E+03  0.15571382375E+03  0.50400000000E-02 0. -1.
         -1   -1    0    0    0  501 -0.00000000000E+00 -0.00000000000E+00 -0.95986521357E+02  0.95986521489E+02  0.50400000000E-02 0.  1.
         25    2    1    2    0    0  0.17984357343E+02 -0.10576813015E+02 -0.19822643665E+02  0.12827628826E+03  0.12500625123E+03 0.  0.
         23    2    1    2    0    0 -0.17984357343E+02  0.10576813015E+02  0.79549945981E+02  0.12342405698E+03  0.92032591255E+02 0.  0.
        -11    1    4    4    0    0 -0.32789475290E+02 -0.15138382276E+02 -0.24719725552E+01  0.36199875086E+02  0.51100000000E-03 0.  1.
         11    1    4    4    0    0  0.14805117947E+02  0.25715195291E+02  0.82021918537E+02  0.87224181894E+02  0.51100000000E-03 0. -1.
    9000005    1    3    3    0    0  0.64776745892E+02  0.22581529236E+02 -0.17815599209E+02  0.70882634306E+02  0.10000000000E+01 0.  0.
    9000005    1    3    3    0    0 -0.46792388550E+02 -0.33158342252E+02 -0.20070444563E+01  0.57393653957E+02  0.10000000000E+01 0.  0.
<mgrwt>
<rscale>  0 0.11772796E+03</rscale>
<asrwt>0</asrwt>
<pdfrwt beam="1">  1        1 0.23955973E-01 0.12673543E+03</pdfrwt>
<pdfrwt beam="2">  1       -1 0.14767157E-01 0.12673543E+03</pdfrwt>
<totfact> 0.63013992E+03</totfact>
</mgrwt>
</event>
<event>
 8    2  0.1409546E-003  0.1333484E+03  0.7818608E-02  0.1235553E+00
          1   -1    0    0  501    0  0.00000000000E+00  0.00000000000E+00  0.48977547641E+03  0.48977547643E+03  0.50400000000E-02 0. -1.
         -1   -1    0    0    0  501 -0.00000000000E+00 -0.00000000000E+00 -0.30136178581E+02  0.30136179002E+02  0.50400000000E-02 0.  1.
         25    2    1    2    0    0  0.31192487952E+01 -0.46334712960E+02  0.19426080079E+03  0.23562479891E+03  0.12500060718E+03 0.  0.
         23    2    1    2    0    0 -0.31192487952E+01  0.46334712960E+02  0.26537849703E+03  0.28428685653E+03  0.90755907632E+02 0.  0.
        -11    1    4    4    0    0 -0.20023517347E+02  0.64418562619E+02  0.12792311907E+03  0.14462025049E+03  0.51100000000E-03 0.  1.
         11    1    4    4    0    0  0.16904268552E+02 -0.18083849658E+02  0.13745537796E+03  0.13966660604E+03  0.51100000000E-03 0. -1.
    9000005    1    3    3    0    0  0.14200028130E+02 -0.55354274808E+02  0.20804103474E+03  0.21574941176E+03  0.10000000000E+01 0.  0.
    9000005    1    3    3    0    0 -0.11080779335E+02  0.90195618477E+01 -0.13780233947E+02  0.19875387147E+02  0.10000000000E+01 0.  0.
<mgrwt>
<rscale>  0 0.12469091E+03</rscale>
<asrwt>0</asrwt>
<pdfrwt beam="1">  1        1 0.75350071E-01 0.13334837E+03</pdfrwt>
<pdfrwt beam="2">  1       -1 0.46363353E-02 0.13334837E+03</pdfrwt>
<totfact> 0.87238570E+03</totfact>
</mgrwt>
</event>
<event>
 8    2  0.1409546E-003  0.1304245E+03  0.7818608E-02  0.1241598E+00
         -1   -1    0    0    0  501 -0.00000000000E+00  0.00000000000E+00  0.88770626227E+03  0.88770626229E+03  0.50400000000E-02 0.  1.
          1   -1    0    0  501    0  0.00000000000E+00 -0.00000000000E+00 -0.15699476283E+02  0.15699477092E+02  0.50400000000E-02 0. -1.
         25    2    1    2    0    0 -0.36512934482E+02 -0.73178218079E+01  0.37198740380E+03  0.39418926571E+03  0.12499521477E+03 0.  0.
         23    2    1    2    0    0  0.36512934482E+02  0.73178218079E+01  0.50001938219E+03  0.50921647367E+03  0.88855442100E+02 0.  0.
        -11    1    4    4    0    0  0.64189143882E+02  0.17526339631E+02  0.36452709433E+03  0.37055016027E+03  0.51100000000E-03 0. -1.
         11    1    4    4    0    0 -0.27676209400E+02 -0.10208517823E+02  0.13549228786E+03  0.13866631340E+03  0.51100000000E-03 0.  1.
    9000005    1    3    3    0    0 -0.31984242909E+02  0.34475254137E+01  0.12525726494E+02  0.34536517632E+02  0.10000000000E+01 0.  0.
    9000005    1    3    3    0    0 -0.45286915738E+01 -0.10765347222E+02  0.35946167731E+03  0.35965274808E+03  0.10000000000E+01 0.  0.
<mgrwt>
<rscale>  0 0.12091349E+03</rscale>
<asrwt>0</asrwt>
<pdfrwt beam="2">  1        1 0.24153038E-02 0.13042449E+03</pdfrwt>
<pdfrwt beam="1">  1       -1 0.13657021E+00 0.13042449E+03</pdfrwt>
<totfact> 0.21545107E+03</totfact>
</mgrwt>
</event>
<event>
 8    2  0.1409546E-003  0.1263222E+03  0.7818608E-02  0.1247205E+00
         -1   -1    0    0    0  501 -0.00000000000E+00  0.00000000000E+00  0.32551924552E+02  0.32551924943E+02  0.50400000000E-02 0.  1.
          1   -1    0    0  501    0  0.00000000000E+00 -0.00000000000E+00 -0.39398192521E+03  0.39398192525E+03  0.50400000000E-02 0. -1.
         25    2    1    2    0    0 -0.86132002679E+01  0.16078781622E+02 -0.15920676459E+03  0.20323407706E+03  0.12499832698E+03 0.  0.
         23    2    1    2    0    0  0.86132002679E+01 -0.16078781622E+02 -0.20222323607E+03  0.22329977313E+03  0.92929204431E+02 0.  0.
        -11    1    4    4    0    0  0.14857758997E+02  0.36117589718E+02 -0.59199809920E+02  0.70921440935E+02  0.51100000000E-03 0.  1.
         11    1    4    4    0    0 -0.62445587295E+01 -0.52196371340E+02 -0.14302342615E+03  0.15237833220E+03  0.51100000000E-03 0. -1.
    9000005    1    3    3    0    0 -0.21353692323E+02  0.67782750387E+02 -0.72872545577E+02  0.10179336582E+03  0.10000000000E+01 0.  0.
    9000005    1    3    3    0    0  0.12740492055E+02 -0.51703968765E+02 -0.86334219016E+02  0.10144071124E+03  0.10000000000E+01 0.  0.
<mgrwt>
<rscale>  0 0.11754388E+03</rscale>
<asrwt>0</asrwt>
<pdfrwt beam="2">  1        1 0.60612600E-01 0.12632219E+03</pdfrwt>
<pdfrwt beam="1">  1       -1 0.50079887E-02 0.12632219E+03</pdfrwt>
<totfact> 0.10234970E+04</totfact>
</mgrwt>
</event>
<event>
 8    2  0.1409546E-003  0.1289388E+03  0.7818608E-02  0.1242542E+00
          1   -1    0    0  501    0  0.00000000000E+00  0.00000000000E+00  0.33626862133E+03  0.33626862137E+03  0.50400000000E-02 0. -1.
         -1   -1    0    0    0  501 -0.00000000000E+00 -0.00000000000E+00 -0.39693770738E+02  0.39693771058E+02  0.50400000000E-02 0.  1.
         25    2    1    2    0    0  0.15271427160E+02 -0.27691233028E+02  0.20366314624E+03  0.24104747612E+03  0.12500075093E+03 0.  0.
         23    2    1    2    0    0 -0.15271427160E+02  0.27691233028E+02  0.92911704350E+02  0.13491491631E+03  0.92571210227E+02 0.  0.
        -11    1    4    4    0    0  0.15389739096E+02 -0.17081488862E+02 -0.44814266291E+01  0.23424442706E+02  0.51100000000E-03 0.  1.
         11    1    4    4    0    0 -0.30661166256E+02  0.44772721890E+02  0.97393130980E+02  0.11149047360E+03  0.51100000000E-03 0. -1.
    9000005    1    3    3    0    0  0.68277256532E+02  0.20965076255E+00  0.12131820569E+03  0.13921542568E+03  0.10000000000E+01 0.  0.
    9000005    1    3    3    0    0 -0.53005829372E+02 -0.27900883790E+02  0.82344940546E+02  0.10183205044E+03  0.10000000000E+01 0.  0.
<mgrwt>
<rscale>  0 0.12033682E+03</rscale>
<asrwt>0</asrwt>
<pdfrwt beam="1">  1        1 0.51733636E-01 0.12893878E+03</pdfrwt>
<pdfrwt beam="2">  1       -1 0.61067337E-02 0.12893878E+03</pdfrwt>
<totfact> 0.93093987E+03</totfact>
</mgrwt>
</event>
<event>
 8    2  0.1409546E-003  0.1580150E+03  0.7818608E-02  0.1198710E+00
          1   -1    0    0  501    0  0.00000000000E+00  0.00000000000E+00  0.11859687940E+04  0.11859687940E+04  0.50400000000E-02 0. -1.
         -1   -1    0    0    0  501 -0.00000000000E+00 -0.00000000000E+00 -0.19552312337E+02  0.19552312986E+02  0.50400000000E-02 0.  1.
         25    2    1    2    0    0 -0.64204762105E+02 -0.72259270279E+02  0.80349218302E+03  0.81888243532E+03  0.12500040435E+03 0.  0.
         23    2    1    2    0    0  0.64204762105E+02  0.72259270279E+02  0.36292429864E+03  0.38663867168E+03  0.91824627798E+02 0.  0.
        -11    1    4    4    0    0  0.34942470470E+02  0.88953227761E+02  0.22115628833E+03  0.24092271964E+03  0.51100000000E-03 0.  1.
         11    1    4    4    0    0  0.29262291635E+02 -0.16693957482E+02  0.14176801032E+03  0.14571595204E+03  0.51100000000E-03 0. -1.
    9000005    1    3    3    0    0 -0.98638260926E+02 -0.71387544756E+02  0.56996327124E+03  0.58282486102E+03  0.10000000000E+01 0.  0.
    9000005    1    3    3    0    0  0.34433498821E+02 -0.87172552273E+00  0.23352891178E+03  0.23605757430E+03  0.10000000000E+01 0.  0.
<mgrwt>
<rscale>  0 0.15144373E+03</rscale>
<asrwt>0</asrwt>
<pdfrwt beam="1">  1        1 0.18245675E+00 0.15801505E+03</pdfrwt>
<pdfrwt beam="2">  1       -1 0.30080479E-02 0.15801505E+03</pdfrwt>
<totfact> 0.43406744E+03</totfact>
</mgrwt>
</event>
<event>
 8    2  0.1409546E-003  0.1287901E+03  0.7818608E-02  0.1243770E+00
         -1   -1    0    0    0  501 -0.00000000000E+00  0.00000000000E+00  0.39803369174E+02  0.39803369493E+02  0.50400000000E-02 0.  1.
          1   -1    0    0  501    0  0.00000000000E+00 -0.00000000000E+00 -0.32382610465E+03  0.32382610469E+03  0.50400000000E-02 0. -1.
         25    2    1    2    0    0  0.18111647265E+02  0.25179124662E+02 -0.13574460533E+03  0.18711893076E+03  0.12499950515E+03 0.  0.
         23    2    1    2    0    0 -0.18111647265E+02 -0.25179124662E+02 -0.14827813014E+03  0.17651054342E+03  0.90595518505E+02 0.  0.
        -11    1    4    4    0    0  0.23916898295E+01 -0.21366127993E+02  0.47912811054E+01  0.22026983010E+02  0.51100000000E-03 0.  1.
         11    1    4    4    0    0 -0.20503337095E+02 -0.38129966689E+01 -0.15306941125E+03  0.15448356041E+03  0.51100000000E-03 0. -1.
    9000005    1    3    3    0    0 -0.37585497678E+01 -0.43854737496E+02 -0.93323072378E+02  0.10318701728E+03  0.10000000000E+01 0.  0.
    9000005    1    3    3    0    0  0.21870197033E+02  0.69033862158E+02 -0.42421532952E+02  0.83931913482E+02  0.10000000000E+01 0.  0.
<mgrwt>
<rscale>  0 0.11959294E+03</rscale>
<asrwt>0</asrwt>
<pdfrwt beam="2">  1        1 0.49819399E-01 0.12879013E+03</pdfrwt>
<pdfrwt beam="1">  1       -1 0.61235955E-02 0.12879013E+03</pdfrwt>
<totfact> 0.97144408E+03</totfact>
</mgrwt>
</event>
<event>
 8    2  0.1409546E-003  0.1829015E+03  0.7818608E-02  0.1170266E+00
          1   -1    0    0  501    0  0.00000000000E+00  0.00000000000E+00  0.94906151778E+03  0.94906151779E+03  0.50400000000E-02 0. -1.
         -1   -1    0    0    0  501 -0.00000000000E+00 -0.00000000000E+00 -0.42585911832E+02  0.42585912131E+02  0.50400000000E-02 0.  1.
         25    2    1    2    0    0 -0.12596242342E+03  0.44287859939E+02  0.72750088250E+03  0.75014030367E+03  0.12499997803E+03 0.  0.
         23    2    1    2    0    0  0.12596242342E+03 -0.44287859939E+02  0.17897472345E+03  0.24150712625E+03  0.92009748100E+02 0.  0.
        -11    1    4    4    0    0  0.10813830885E+03 -0.75929836211E+01  0.16680504366E+03  0.19893584351E+03  0.51100000000E-03 0. -1.
         11    1    4    4    0    0  0.17824114562E+02 -0.36694876318E+02  0.12169679790E+02  0.42571282743E+02  0.51100000000E-03 0.  1.
    9000005    1    3    3    0    0 -0.40705690049E+02  0.19203959754E+02  0.54795736597E+03  0.54980361966E+03  0.10000000000E+01 0.  0.
    9000005    1    3    3    0    0 -0.85256733367E+02  0.25083900185E+02  0.17954351653E+03  0.20033668402E+03  0.10000000000E+01 0.  0.
<mgrwt>
<rscale>  0 0.17747795E+03</rscale>
<asrwt>0</asrwt>
<pdfrwt beam="1">  1        1 0.14600946E+00 0.18290145E+03</pdfrwt>
<pdfrwt beam="2">  1       -1 0.65516790E-02 0.18290145E+03</pdfrwt>
<totfact> 0.20342847E+03</totfact>
</mgrwt>
</event>
<event>
 8    2  0.1409546E-003  0.1300634E+03  0.7818608E-02  0.1241871E+00
          1   -1    0    0  501    0  0.00000000000E+00  0.00000000000E+00  0.83688502593E+03  0.83688502594E+03  0.50400000000E-02 0. -1.
         -1   -1    0    0    0  501 -0.00000000000E+00 -0.00000000000E+00 -0.15930637702E+02  0.15930638499E+02  0.50400000000E-02 0.  1.
         25    2    1    2    0    0  0.35918099173E+02 -0.11278475620E+01  0.38822487165E+03  0.40943258143E+03  0.12500042353E+03 0.  0.
         23    2    1    2    0    0 -0.35918099173E+02  0.11278475620E+01  0.43272951657E+03  0.44338308301E+03  0.89679105125E+02 0.  0.
        -11    1    4    4    0    0 -0.58824193450E+02 -0.89719264858E+01  0.18366783334E+03  0.19306645023E+03  0.51100000000E-03 0.  1.
         11    1    4    4    0    0  0.22906094277E+02  0.10099774048E+02  0.24906168324E+03  0.25031663278E+03  0.51100000000E-03 0. -1.
    9000005    1    3    3    0    0 -0.33924141488E+02  0.23935250021E+02  0.60313539577E+02  0.73228864702E+02  0.10000000000E+01 0.  0.
    9000005    1    3    3    0    0  0.69842240661E+02 -0.25063097583E+02  0.32791133208E+03  0.33620371673E+03  0.10000000000E+01 0.  0.
<mgrwt>
<rscale>  0 0.12074612E+03</rscale>
<asrwt>0</asrwt>
<pdfrwt beam="1">  1        1 0.12875157E+00 0.13006340E+03</pdfrwt>
<pdfrwt beam="2">  1       -1 0.24508668E-02 0.13006340E+03</pdfrwt>
<totfact> 0.10457372E+04</totfact>
</mgrwt>
</event>
<event>
 8    2  0.1409546E-003  0.1257673E+03  0.7818608E-02  0.1249472E+00
          1   -1    0    0  501    0  0.00000000000E+00  0.00000000000E+00  0.24526095659E+03  0.24526095664E+03  0.50400000000E-02 0.  1.
         -1   -1    0    0    0  501 -0.00000000000E+00 -0.00000000000E+00 -0.53002103909E+02  0.53002104149E+02  0.50400000000E-02 0. -1.
         25    2    1    2    0    0 -0.11981942044E+01 -0.13850701136E+02  0.15418274627E+03  0.19897167414E+03  0.12499652105E+03 0.  0.
         23    2    1    2    0    0  0.11981942044E+01  0.13850701136E+02  0.38076106415E+02  0.99291386648E+02  0.90640564823E+02 0.  0.
        -11    1    4    4    0    0 -0.33750356309E+02 -0.22979712441E+02  0.19244592927E+02  0.45138764849E+02  0.51100000000E-03 0.  1.
         11    1    4    4    0    0  0.34948550514E+02  0.36830413576E+02  0.18831513488E+02  0.54152621799E+02  0.51100000000E-03 0. -1.
    9000005    1    3    3    0    0 -0.33571134658E+02  0.15857305400E+02  0.15033369402E+03  0.15485378515E+03  0.10000000000E+01 0.  0.
    9000005    1    3    3    0    0  0.32372940453E+02 -0.29708006536E+02  0.38490522415E+01  0.44117888992E+02  0.10000000000E+01 0.  0.
<mgrwt>
<rscale>  0 0.11621675E+03</rscale>
<asrwt>0</asrwt>
<pdfrwt beam="1">  1        1 0.37732456E-01 0.12576728E+03</pdfrwt>
<pdfrwt beam="2">  1       -1 0.81541697E-02 0.12576728E+03</pdfrwt>
<totfact> 0.88992888E+03</totfact>
</mgrwt>
</event>
<event>
 8    2  0.1409546E-003  0.1315717E+03  0.7818608E-02  0.1238396E+00
         -1   -1    0    0    0  501 -0.00000000000E+00  0.00000000000E+00  0.13081651408E+02  0.13081652379E+02  0.50400000000E-02 0. -1.
          1   -1    0    0  501    0  0.00000000000E+00 -0.00000000000E+00 -0.11002621723E+04  0.11002621724E+04  0.50400000000E-02 0.  1.
         25    2    1    2    0    0  0.21589207463E+02 -0.34925716046E+02 -0.46910932208E+03  0.48721112120E+03  0.12500088418E+03 0.  0.
         23    2    1    2    0    0 -0.21589207463E+02  0.34925716046E+02 -0.61807119886E+03  0.62613270353E+03  0.91346899514E+02 0.  0.
        -11    1    4    4    0    0 -0.30132643742E+02 -0.10706347086E+02 -0.81381911463E+02  0.87439222323E+02  0.51100000000E-03 0. -1.
         11    1    4    4    0    0  0.85434362794E+01  0.45632063131E+02 -0.53668928740E+03  0.53869348121E+03  0.51100000000E-03 0.  1.
    9000005    1    3    3    0    0  0.17785651610E+02 -0.78884406423E+02 -0.36975301323E+03  0.37849355315E+03  0.10000000000E+01 0.  0.
    9000005    1    3    3    0    0  0.38035558532E+01  0.43958690378E+02 -0.99356308846E+02  0.10871756806E+03  0.10000000000E+01 0.  0.
<mgrwt>
<rscale>  0 0.12289534E+03</rscale>
<asrwt>0</asrwt>
<pdfrwt beam="2">  1        1 0.16927103E+00 0.13157173E+03</pdfrwt>
<pdfrwt beam="1">  1       -1 0.20125627E-02 0.13157173E+03</pdfrwt>
<totfact> 0.88579966E+03</totfact>
</mgrwt>
</event>
<event>
 8    2  0.1409546E-003  0.1490566E+03  0.7818608E-02  0.1210914E+00
         -1   -1    0    0    0  501 -0.00000000000E+00  0.00000000000E+00  0.92547566143E+03  0.92547566144E+03  0.50400000000E-02 0.  1.
          1   -1    0    0  501    0  0.00000000000E+00 -0.00000000000E+00 -0.20237657914E+02  0.20237658542E+02  0.50400000000E-02 0. -1.
         25    2    1    2    0    0 -0.55403587029E+02  0.59364627229E+02  0.43281783687E+03  0.45776540117E+03  0.12499666465E+03 0.  0.
         23    2    1    2    0    0  0.55403587029E+02 -0.59364627229E+02  0.47242016665E+03  0.48794791882E+03  0.91206585291E+02 0.  0.
        -11    1    4    4    0    0  0.43590411812E+02  0.77652373675E+01  0.10032053930E+03  0.10965688998E+03  0.51100000000E-03 0. -1.
         11    1    4    4    0    0  0.11813175217E+02 -0.67129864596E+02  0.37209962735E+03  0.37829102884E+03  0.51100000000E-03 0.  1.
    9000005    1    3    3    0    0  0.24873292507E+02  0.61911722652E+02  0.15968467468E+03  0.17306628039E+03  0.10000000000E+01 0.  0.
    9000005    1    3    3    0    0 -0.80276879535E+02 -0.25470954229E+01  0.27313316219E+03  0.28469912078E+03  0.10000000000E+01 0.  0.
<mgrwt>
<rscale>  0 0.14180998E+03</rscale>
<asrwt>0</asrwt>
<pdfrwt beam="2">  1        1 0.31134866E-02 0.14905664E+03</pdfrwt>
<pdfrwt beam="1">  1       -1 0.14238084E+00 0.14905664E+03</pdfrwt>
<totfact> 0.13724276E+03</totfact>
</mgrwt>
</event>
<event>
 8    2  0.1409546E-003  0.1447569E+03  0.7818608E-02  0.1217324E+00
         -1   -1    0    0    0  501 -0.00000000000E+00  0.00000000000E+00  0.27971985785E+03  0.27971985789E+03  0.50400000000E-02 0. -1.
          1   -1    0    0  501    0  0.00000000000E+00 -0.00000000000E+00 -0.64871900678E+02  0.64871900874E+02  0.50400000000E-02 0.  1.
         25    2    1    2    0    0 -0.13761896864E+02 -0.71690658060E+02  0.16053798080E+03  0.21616431992E+03  0.12500251866E+03 0.  0.
         23    2    1    2    0    0  0.13761896864E+02  0.71690658060E+02  0.54309976372E+02  0.12842743884E+03  0.90637151632E+02 0.  0.
        -11    1    4    4    0    0 -0.15841064914E+02  0.55653809534E+02 -0.71955696175E+01  0.58310051240E+02  0.51100000000E-03 0.  1.
         11    1    4    4    0    0  0.29602961778E+02  0.16036848527E+02  0.61505545989E+02  0.70117387604E+02  0.51100000000E-03 0. -1.
    9000005    1    3    3    0    0  0.38958256989E+01 -0.10291808356E+03  0.88971951613E+02  0.13610406884E+03  0.10000000000E+01 0.  0.
    9000005    1    3    3    0    0 -0.17657722563E+02  0.31227425501E+02  0.71566029183E+02  0.80060251077E+02  0.10000000000E+01 0.  0.
<mgrwt>
<rscale>  0 0.13707177E+03</rscale>
<asrwt>0</asrwt>
<pdfrwt beam="2">  1        1 0.99802925E-02 0.14475693E+03</pdfrwt>
<pdfrwt beam="1">  1       -1 0.43033824E-01 0.14475693E+03</pdfrwt>
<totfact> 0.33613158E+03</totfact>
</mgrwt>
</event>
<event>
 8    2  0.1409546E-003  0.2057513E+03  0.7818608E-02  0.1148799E+00
          1   -1    0    0  501    0  0.00000000000E+00  0.00000000000E+00  0.27752002188E+02  0.27752002646E+02  0.50400000000E-02 0. -1.
         -1   -1    0    0    0  501 -0.00000000000E+00 -0.00000000000E+00 -0.14318610203E+04  0.14318610203E+04  0.50400000000E-02 0.  1.
         25    2    1    2    0    0 -0.13634235298E+03 -0.90119962956E+02 -0.84939666297E+03  0.87396126172E+03  0.12499100364E+03 0.  0.
         23    2    1    2    0    0  0.13634235298E+03  0.90119962956E+02 -0.55471235511E+03  0.58565176120E+03  0.92581550786E+02 0.  0.
        -11    1    4    4    0    0  0.96565873340E+02  0.30714886737E+02 -0.43114452078E+03  0.44289272964E+03  0.51100000000E-03 0.  1.
         11    1    4    4    0    0  0.39776479637E+02  0.59405076220E+02 -0.12356783433E+03  0.14275903156E+03  0.51100000000E-03 0. -1.
    9000005    1    3    3    0    0 -0.13004027081E+03 -0.98929916198E+02 -0.53544857902E+03  0.55982477717E+03  0.10000000000E+01 0.  0.
    9000005    1    3    3    0    0 -0.63020821635E+01  0.88099532413E+01 -0.31394808394E+03  0.31413648455E+03  0.10000000000E+01 0.  0.
<mgrwt>
<rscale>  0 0.20111820E+03</rscale>
<asrwt>0</asrwt>
<pdfrwt beam="1">  1        1 0.42695399E-02 0.20575130E+03</pdfrwt>
<pdfrwt beam="2">  1       -1 0.22028625E+00 0.20575130E+03</pdfrwt>
<totfact> 0.25556820E+02</totfact>
</mgrwt>
</event>
<event>
 8    2  0.1409546E-003  0.1755079E+03  0.7818608E-02  0.1178102E+00
         -1   -1    0    0    0  501 -0.00000000000E+00  0.00000000000E+00  0.23441817522E+02  0.23441818064E+02  0.50400000000E-02 0.  1.
          1   -1    0    0  501    0  0.00000000000E+00 -0.00000000000E+00 -0.11955009655E+04  0.11955009655E+04  0.50400000000E-02 0. -1.
         25    2    1    2    0    0 -0.40603845276E+02  0.11631496885E+03 -0.73539688588E+03  0.75605000412E+03  0.12500073892E+03 0.  0.
         23    2    1    2    0    0  0.40603845276E+02 -0.11631496885E+03 -0.43666226210E+03  0.46289277946E+03  0.91749386408E+02 0.  0.
        -11    1    4    4    0    0  0.18672334950E+02 -0.74833515530E+02 -0.38683760827E+03  0.39445157664E+03  0.51100000000E-03 0. -1.
         11    1    4    4    0    0  0.21931510326E+02 -0.41481453318E+02 -0.49824653831E+02  0.68441202826E+02  0.51100000000E-03 0.  1.
    9000005    1    3    3    0    0 -0.80041194226E+02  0.10280274992E+03 -0.61457768322E+03  0.62823699897E+03  0.10000000000E+01 0.  0.
    9000005    1    3    3    0    0  0.39437348950E+02  0.13512218931E+02 -0.12081920266E+03  0.12781300515E+03  0.10000000000E+01 0.  0.
<mgrwt>
<rscale>  0 0.16975667E+03</rscale>
<asrwt>0</asrwt>
<pdfrwt beam="2">  1        1 0.18392318E+00 0.17550792E+03</pdfrwt>
<pdfrwt beam="1">  1       -1 0.36064344E-02 0.17550792E+03</pdfrwt>
<totfact> 0.32844649E+03</totfact>
</mgrwt>
</event>
<event>
 8    2  0.1409546E-003  0.1275897E+03  0.7818608E-02  0.1245572E+00
         -1   -1    0    0    0  501 -0.00000000000E+00  0.00000000000E+00  0.21009275616E+02  0.21009276221E+02  0.50400000000E-02 0.  1.
          1   -1    0    0  501    0  0.00000000000E+00 -0.00000000000E+00 -0.63946717556E+03  0.63946717558E+03  0.50400000000E-02 0. -1.
         25    2    1    2    0    0  0.25581428608E+02  0.21266535979E+00 -0.44244898228E+03  0.46047826415E+03  0.12499870047E+03 0.  0.
         23    2    1    2    0    0 -0.25581428608E+02 -0.21266535979E+00 -0.17600891767E+03  0.19999818765E+03  0.91464098142E+02 0.  0.
        -11    1    4    4    0    0 -0.30382931463E+02  0.42343617611E+02 -0.99186542075E+02  0.11204496689E+03  0.51100000000E-03 0.  1.
         11    1    4    4    0    0  0.48015028551E+01 -0.42556282971E+02 -0.76822375590E+02  0.87953220757E+02  0.51100000000E-03 0. -1.
    9000005    1    3    3    0    0 -0.48392084379E+01  0.57879449666E+02 -0.15016900322E+03  0.16101297513E+03  0.10000000000E+01 0.  0.
    9000005    1    3    3    0    0  0.30420637046E+02 -0.57666784306E+02 -0.29227997905E+03  0.29946528902E+03  0.10000000000E+01 0.  0.
<mgrwt>
<rscale>  0 0.11851227E+03</rscale>
<asrwt>0</asrwt>
<pdfrwt beam="2">  1        1 0.98379551E-01 0.12758969E+03</pdfrwt>
<pdfrwt beam="1">  1       -1 0.32321968E-02 0.12758969E+03</pdfrwt>
<totfact> 0.10331243E+04</totfact>
</mgrwt>
</event>
<event>
 8    2  0.1409546E-003  0.1299027E+03  0.7818608E-02  0.1240968E+00
          1   -1    0    0  501    0  0.00000000000E+00  0.00000000000E+00  0.54197671224E+03  0.54197671226E+03  0.50400000000E-02 0. -1.
         -1   -1    0    0    0  501 -0.00000000000E+00 -0.00000000000E+00 -0.33424427066E+02  0.33424427446E+02  0.50400000000E-02 0.  1.
         25    2    1    2    0    0 -0.34040406430E+02  0.95327752438E+01  0.12847953994E+03  0.18270658758E+03  0.12500032755E+03 0.  0.
         23    2    1    2    0    0  0.34040406430E+02 -0.95327752438E+01  0.38007274523E+03  0.39269455213E+03  0.92217658445E+02 0.  0.
        -11    1    4    4    0    0 -0.14819918182E+02 -0.38642016596E+02  0.17987905230E+03  0.18457873355E+03  0.51100000000E-03 0. -1.
         11    1    4    4    0    0  0.48860324612E+02  0.29109241353E+02  0.20019369293E+03  0.20811581858E+03  0.51100000000E-03 0.  1.
    9000005    1    3    3    0    0  0.32462719684E+02 -0.43852438756E+01 -0.47825482262E+01  0.33119953210E+02  0.10000000000E+01 0.  0.
    9000005    1    3    3    0    0 -0.66503126114E+02  0.13918019119E+02  0.13326208816E+03  0.14958663437E+03  0.10000000000E+01 0.  0.
<mgrwt>
<rscale>  0 0.12129974E+03</rscale>
<asrwt>0</asrwt>
<pdfrwt beam="1">  1        1 0.83381028E-01 0.12990267E+03</pdfrwt>
<pdfrwt beam="2">  1       -1 0.51422199E-02 0.12990267E+03</pdfrwt>
<totfact> 0.65449505E+03</totfact>
</mgrwt>
</event>
<event>
 8    2  0.1409546E-003  0.1435686E+03  0.7818608E-02  0.1218507E+00
         -1   -1    0    0    0  501 -0.00000000000E+00  0.00000000000E+00  0.59133663548E+02  0.59133663763E+02  0.50400000000E-02 0. -1.
          1   -1    0    0  501    0  0.00000000000E+00 -0.00000000000E+00 -0.28643896063E+03  0.28643896067E+03  0.50400000000E-02 0.  1.
         25    2    1    2    0    0 -0.43685415498E+01  0.70482439318E+02 -0.13465550050E+03  0.19683504877E+03  0.12500029681E+03 0.  0.
         23    2    1    2    0    0  0.43685415498E+01 -0.70482439318E+02 -0.92649796575E+02  0.14873757566E+03  0.92477149612E+02 0.  0.
        -11    1    4    4    0    0 -0.26749392896E+02 -0.61468300799E+02 -0.94982549056E+02  0.11625646928E+03  0.51100000000E-03 0.  1.
         11    1    4    4    0    0  0.31117934446E+02 -0.90141385192E+01  0.23327524808E+01  0.32481106383E+02  0.51100000000E-03 0. -1.
    9000005    1    3    3    0    0 -0.32050068327E+01  0.58667032593E+02 -0.15911977272E+03  0.16962368600E+03  0.10000000000E+01 0.  0.
    9000005    1    3    3    0    0 -0.11635347171E+01  0.11815406725E+02  0.24464272214E+02  0.27211362775E+02  0.10000000000E+01 0.  0.
<mgrwt>
<rscale>  0 0.13622047E+03</rscale>
<asrwt>0</asrwt>
<pdfrwt beam="2">  1        1 0.44067532E-01 0.14356856E+03</pdfrwt>
<pdfrwt beam="1">  1       -1 0.90974869E-02 0.14356856E+03</pdfrwt>
<totfact> 0.62817808E+03</totfact>
</mgrwt>
</event>
<event>
 8    2  0.1409546E-003  0.1372494E+03  0.7818608E-02  0.1227037E+00
          1   -1    0    0  501    0  0.00000000000E+00  0.00000000000E+00  0.32256547976E+03  0.32256547980E+03  0.50400000000E-02 0. -1.
         -1   -1    0    0    0  501 -0.00000000000E+00 -0.00000000000E+00 -0.55517868937E+02  0.55517869165E+02  0.50400000000E-02 0.  1.
         25    2    1    2    0    0 -0.44261454878E+02  0.35397870353E+02  0.21505092276E+03  0.25511624311E+03  0.12500125001E+03 0.  0.
         23    2    1    2    0    0  0.44261454878E+02 -0.35397870353E+02  0.51996688059E+02  0.12296710585E+03  0.95943566431E+02 0.  0.
        -11    1    4    4    0    0  0.20450371939E+01 -0.48690452732E+02 -0.69791915185E+01  0.49230594948E+02  0.51100000000E-03 0.  1.
         11    1    4    4    0    0  0.42216417684E+02  0.13292582380E+02  0.58975879578E+02  0.73736510906E+02  0.51100000000E-03 0. -1.
    9000005    1    3    3    0    0 -0.30041083716E+02  0.75592337769E+02  0.18738459683E+03  0.20428082477E+03  0.10000000000E+01 0.  0.
    9000005    1    3    3    0    0 -0.14220371162E+02 -0.40194467416E+02  0.27666325929E+02  0.50835418334E+02  0.10000000000E+01 0.  0.
<mgrwt>
<rscale>  0 0.13028249E+03</rscale>
<asrwt>0</asrwt>
<pdfrwt beam="1">  1        1 0.49625458E-01 0.13724940E+03</pdfrwt>
<pdfrwt beam="2">  1       -1 0.85412107E-02 0.13724940E+03</pdfrwt>
<totfact> 0.59498108E+03</totfact>
</mgrwt>
</event>
<event>
 8    2  0.1409546E-003  0.1521563E+03  0.7818608E-02  0.1207195E+00
          1   -1    0    0  501    0  0.00000000000E+00  0.00000000000E+00  0.51499610161E+03  0.51499610163E+03  0.50400000000E-02 0. -1.
         -1   -1    0    0    0  501 -0.00000000000E+00 -0.00000000000E+00 -0.59740772660E+02  0.59740772872E+02  0.50400000000E-02 0.  1.
         25    2    1    2    0    0 -0.34118175289E+02  0.79766480063E+02  0.65531656121E+02  0.16566814534E+03  0.12499918080E+03 0.  0.
         23    2    1    2    0    0  0.34118175289E+02 -0.79766480063E+02  0.38972367283E+03  0.40906872916E+03  0.89027764160E+02 0.  0.
        -11    1    4    4    0    0  0.31974779671E+02  0.48068525352E+01  0.18075761186E+03  0.18362681344E+03  0.51100000000E-03 0. -1.
         11    1    4    4    0    0  0.21433956178E+01 -0.84573332598E+02  0.20896606096E+03  0.22544191573E+03  0.51100000000E-03 0.  1.
    9000005    1    3    3    0    0  0.22898037172E+02  0.24094692010E+02 -0.27511797159E+02  0.43159857186E+02  0.10000000000E+01 0.  0.
    9000005    1    3    3    0    0 -0.57016212461E+02  0.55671788053E+02  0.93043453279E+02  0.12250828815E+03  0.10000000000E+01 0.  0.
<mgrwt>
<rscale>  0 0.14465816E+03</rscale>
<asrwt>0</asrwt>
<pdfrwt beam="1">  1        1 0.79230171E-01 0.15215629E+03</pdfrwt>
<pdfrwt beam="2">  1       -1 0.91908879E-02 0.15215629E+03</pdfrwt>
<totfact> 0.29519593E+03</totfact>
</mgrwt>
</event>
<event>
 8    2  0.1409546E-003  0.1318974E+03  0.7818608E-02  0.1238213E+00
         -1   -1    0    0    0  501 -0.00000000000E+00  0.00000000000E+00  0.10742780044E+03  0.10742780056E+03  0.50400000000E-02 0.  1.
          1   -1    0    0  501    0  0.00000000000E+00 -0.00000000000E+00 -0.12655431804E+03  0.12655431814E+03  0.50400000000E-02 0. -1.
         25    2    1    2    0    0  0.39174669026E+02  0.15395747338E+02  0.23393547176E+01  0.13191810253E+03  0.12500091785E+03 0.  0.
         23    2    1    2    0    0 -0.39174669026E+02 -0.15395747338E+02 -0.21465872312E+02  0.10206401617E+03  0.90468757005E+02 0.  0.
        -11    1    4    4    0    0 -0.44177696231E+02  0.30190696510E+02 -0.69296966038E+01  0.53955237886E+02  0.51100000000E-03 0. -1.
         11    1    4    4    0    0  0.50030272057E+01 -0.45586443847E+02 -0.14536175708E+02  0.48108778288E+02  0.51100000000E-03 0.  1.
    9000005    1    3    3    0    0 -0.14903025013E+02 -0.13263938554E+02 -0.48432990851E+02  0.52390713140E+02  0.10000000000E+01 0.  0.
    9000005    1    3    3    0    0  0.54077694039E+02  0.28659685892E+02  0.50772345569E+02  0.79527389386E+02  0.10000000000E+01 0.  0.
<mgrwt>
<rscale>  0 0.12300966E+03</rscale>
<asrwt>0</asrwt>
<pdfrwt beam="2">  1        1 0.19469895E-01 0.13189736E+03</pdfrwt>
<pdfrwt beam="1">  1       -1 0.16527354E-01 0.13189736E+03</pdfrwt>
<totfact> 0.68814933E+03</totfact>
</mgrwt>
</event>
<event>
 8    2  0.1409546E-003  0.1253191E+03  0.7818608E-02  0.1249992E+00
          1   -1    0    0  501    0  0.00000000000E+00  0.00000000000E+00  0.50084183957E+03  0.50084183960E+03  0.50400000000E-02 0. -1.
         -1   -1    0    0    0  501 -0.00000000000E+00 -0.00000000000E+00 -0.24187890606E+02  0.24187891131E+02  0.50400000000E-02 0.  1.
         25    2    1    2    0    0  0.84878773393E+01 -0.27788071148E+01  0.31743558050E+03  0.34127735637E+03  0.12500048150E+03 0.  0.
         23    2    1    2    0    0 -0.84878773393E+01  0.27788071148E+01  0.15921836847E+03  0.18375237436E+03  0.91294470772E+02 0.  0.
        -11    1    4    4    0    0  0.40755344164E+02 -0.57455707764E+01  0.82417708943E+02  0.92123224049E+02  0.51100000000E-03 0. -1.
         11    1    4    4    0    0 -0.49243221504E+02  0.85243778911E+01  0.76800659527E+02  0.91629150310E+02  0.51100000000E-03 0.  1.
    9000005    1    3    3    0    0  0.36589699222E+02  0.11332213694E+02  0.30507949370E+03  0.30747637735E+03  0.10000000000E+01 0.  0.
    9000005    1    3    3    0    0 -0.28101821883E+02 -0.14111020809E+02  0.12356086798E+02  0.33800979015E+02  0.10000000000E+01 0.  0.
<mgrwt>
<rscale>  0 0.11591543E+03</rscale>
<asrwt>0</asrwt>
<pdfrwt beam="1">  1        1 0.77052592E-01 0.12531914E+03</pdfrwt>
<pdfrwt beam="2">  1       -1 0.37212139E-02 0.12531914E+03</pdfrwt>
<totfact> 0.11650466E+04</totfact>
</mgrwt>
</event>
<event>
 8    2  0.1409546E-003  0.1920627E+03  0.7818608E-02  0.1161455E+00
         -1   -1    0    0    0  501 -0.00000000000E+00  0.00000000000E+00  0.10396532931E+03  0.10396532943E+03  0.50400000000E-02 0.  1.
          1   -1    0    0  501    0  0.00000000000E+00 -0.00000000000E+00 -0.32505224531E+03  0.32505224535E+03  0.50400000000E-02 0. -1.
         25    2    1    2    0    0  0.14883617461E+02  0.14505746574E+03 -0.14831163918E+03  0.24266111404E+03  0.12499953405E+03 0.  0.
         23    2    1    2    0    0 -0.14883617461E+02 -0.14505746574E+03 -0.72775276822E+02  0.18635646074E+03  0.90384175090E+02 0.  0.
        -11    1    4    4    0    0  0.13191178877E+02 -0.89089464119E+02  0.38273491043E+00  0.90061569514E+02  0.51100000000E-03 0.  1.
         11    1    4    4    0    0 -0.28074796338E+02 -0.55968001622E+02 -0.73158011733E+02  0.96294891224E+02  0.51100000000E-03 0. -1.
    9000005    1    3    3    0    0 -0.32776798074E+02  0.78316671863E+02 -0.15117501325E+02  0.86240120767E+02  0.10000000000E+01 0.  0.
    9000005    1    3    3    0    0  0.47660415535E+02  0.66740793878E+02 -0.13319413786E+03  0.15642099327E+03  0.10000000000E+01 0.  0.
<mgrwt>
<rscale>  0 0.18671776E+03</rscale>
<asrwt>0</asrwt>
<pdfrwt beam="2">  1        1 0.50008037E-01 0.19206268E+03</pdfrwt>
<pdfrwt beam="1">  1       -1 0.15994666E-01 0.19206268E+03</pdfrwt>
<totfact> 0.22649364E+03</totfact>
</mgrwt>
</event>
<event>
 8    2  0.1409546E-003  0.1261282E+03  0.7818608E-02  0.1251125E+00
         -1   -1    0    0    0  501 -0.00000000000E+00  0.00000000000E+00  0.22670133897E+02  0.22670134457E+02  0.50400000000E-02 0.  1.
          1   -1    0    0  501    0  0.00000000000E+00 -0.00000000000E+00 -0.55668595100E+03  0.55668595102E+03  0.50400000000E-02 0. -1.
         25    2    1    2    0    0 -0.15638684139E+02 -0.62258413691E+01 -0.39681990325E+03  0.41638245533E+03  0.12499993578E+03 0.  0.
         23    2    1    2    0    0  0.15638684139E+02  0.62258413691E+01 -0.13719591384E+03  0.16297363015E+03  0.86338611324E+02 0.  0.
        -11    1    4    4    0    0  0.47851729295E+02  0.45395655347E+01 -0.47179394650E+02  0.67351992781E+02  0.51100000000E-03 0.  1.
         11    1    4    4    0    0 -0.32213045156E+02  0.16862758344E+01 -0.90016519194E+02  0.95621637366E+02  0.51100000000E-03 0. -1.
    9000005    1    3    3    0    0  0.36711956150E+02  0.49451944857E+01 -0.36179717595E+02  0.51789908651E+02  0.10000000000E+01 0.  0.
    9000005    1    3    3    0    0 -0.52350640289E+02 -0.11171035855E+02 -0.36064018566E+03  0.36459254668E+03  0.10000000000E+01 0.  0.
<mgrwt>
<rscale>  0 0.11526181E+03</rscale>
<asrwt>0</asrwt>
<pdfrwt beam="2">  1        1 0.85643982E-01 0.12612816E+03</pdfrwt>
<pdfrwt beam="1">  1       -1 0.34877134E-02 0.12612816E+03</pdfrwt>
<totfact> 0.11149881E+04</totfact>
</mgrwt>
</event>
<event>
 8    2  0.1409546E-003  0.1535777E+03  0.7818608E-02  0.1204753E+00
         -1   -1    0    0    0  501 -0.00000000000E+00  0.00000000000E+00  0.54886328968E+03  0.54886328971E+03  0.50400000000E-02 0.  1.
          1   -1    0    0  501    0  0.00000000000E+00 -0.00000000000E+00 -0.35974742215E+02  0.35974742568E+02  0.50400000000E-02 0. -1.
         25    2    1    2    0    0  0.48222993592E+02 -0.75063264376E+02  0.27470692256E+03  0.31472208837E+03  0.12500459525E+03 0.  0.
         23    2    1    2    0    0 -0.48222993592E+02  0.75063264376E+02  0.23818162491E+03  0.27011594390E+03  0.90951558198E+02 0.  0.
        -11    1    4    4    0    0 -0.10212435992E+02  0.52588138797E+02  0.39427904410E+02  0.66515906650E+02  0.51100000000E-03 0. -1.
         11    1    4    4    0    0 -0.38010557600E+02  0.22475125579E+02  0.19875372050E+03  0.20360003725E+03  0.51100000000E-03 0.  1.
    9000005    1    3    3    0    0  0.56322064034E+02 -0.10653163403E+03  0.20476080456E+03  0.23759030079E+03  0.10000000000E+01 0.  0.
    9000005    1    3    3    0    0 -0.80990704426E+01  0.31468369659E+02  0.69946118005E+02  0.77131787578E+02  0.10000000000E+01 0.  0.
<mgrwt>
<rscale>  0 0.14656930E+03</rscale>
<asrwt>0</asrwt>
<pdfrwt beam="2">  1        1 0.55345763E-02 0.15357767E+03</pdfrwt>
<pdfrwt beam="1">  1       -1 0.84440498E-01 0.15357767E+03</pdfrwt>
<totfact> 0.20547065E+03</totfact>
</mgrwt>
</event>
<event>
 8    2  0.1409546E-003  0.1281008E+03  0.7818608E-02  0.1245047E+00
         -1   -1    0    0    0  501 -0.00000000000E+00  0.00000000000E+00  0.29594340092E+02  0.29594340521E+02  0.50400000000E-02 0.  1.
          1   -1    0    0  501    0  0.00000000000E+00 -0.00000000000E+00 -0.43184148243E+03  0.43184148246E+03  0.50400000000E-02 0. -1.
         25    2    1    2    0    0  0.26782130232E+02 -0.82429963534E+01 -0.26831542548E+03  0.29732637889E+03  0.12499831416E+03 0.  0.
         23    2    1    2    0    0 -0.26782130232E+02  0.82429963534E+01 -0.13393171686E+03  0.16410944409E+03  0.90603396023E+02 0.  0.
        -11    1    4    4    0    0 -0.41194746511E+02 -0.15993266621E+02 -0.12783848115E+03  0.13526074442E+03  0.51100000000E-03 0. -1.
         11    1    4    4    0    0  0.14412616279E+02  0.24236262975E+02 -0.60932357014E+01  0.28848699669E+02  0.51100000000E-03 0.  1.
    9000005    1    3    3    0    0  0.11126717987E+02  0.26722705692E+02 -0.25517367525E+03  0.25681221036E+03  0.10000000000E+01 0.  0.
    9000005    1    3    3    0    0  0.15655412245E+02 -0.34965702046E+02 -0.13141750234E+02  0.40514168525E+02  0.10000000000E+01 0.  0.
<mgrwt>
<rscale>  0 0.11882537E+03</rscale>
<asrwt>0</asrwt>
<pdfrwt beam="2">  1        1 0.66437147E-01 0.12810077E+03</pdfrwt>
<pdfrwt beam="1">  1       -1 0.45529757E-02 0.12810077E+03</pdfrwt>
<totfact> 0.10501109E+04</totfact>
</mgrwt>
</event>
<event>
 8    2  0.1409546E-003  0.1317976E+03  0.7818608E-02  0.1238023E+00
         -1   -1    0    0    0  501 -0.00000000000E+00  0.00000000000E+00  0.50387538666E+02  0.50387538918E+02  0.50400000000E-02 0.  1.
          1   -1    0    0  501    0  0.00000000000E+00 -0.00000000000E+00 -0.55967562402E+03  0.55967562404E+03  0.50400000000E-02 0. -1.
         25    2    1    2    0    0  0.29992578730E+02  0.29071173625E+02 -0.51674163593E+02  0.14156565695E+03  0.12500371246E+03 0.  0.
         23    2    1    2    0    0 -0.29992578730E+02 -0.29071173625E+02 -0.45761392176E+03  0.46849750601E+03  0.91294708686E+02 0.  0.
        -11    1    4    4    0    0 -0.40953976314E+02 -0.16538248247E+02 -0.87556535039E+02  0.98065736419E+02  0.51100000000E-03 0.  1.
         11    1    4    4    0    0  0.10961397584E+02 -0.12532925379E+02 -0.37005738672E+03  0.37043176959E+03  0.51100000000E-03 0. -1.
    9000005    1    3    3    0    0  0.67139753899E+02  0.38467634402E+02 -0.19734770227E+00  0.77385685990E+02  0.10000000000E+01 0.  0.
    9000005    1    3    3    0    0 -0.37147175169E+02 -0.93964607765E+01 -0.51476815891E+02  0.64179970960E+02  0.10000000000E+01 0.  0.
<mgrwt>
<rscale>  0 0.12312893E+03</rscale>
<asrwt>0</asrwt>
<pdfrwt beam="2">  1        1 0.86103938E-01 0.13179763E+03</pdfrwt>
<pdfrwt beam="1">  1       -1 0.77519294E-02 0.13179763E+03</pdfrwt>
<totfact> 0.34024249E+03</totfact>
</mgrwt>
</event>
<event>
 8    2  0.1409546E-003  0.1575508E+03  0.7818608E-02  0.1199979E+00
          1   -1    0    0  501    0  0.00000000000E+00  0.00000000000E+00  0.27601862550E+03  0.27601862555E+03  0.50400000000E-02 0. -1.
         -1   -1    0    0    0  501 -0.00000000000E+00 -0.00000000000E+00 -0.76318514510E+02  0.76318514676E+02  0.50400000000E-02 0.  1.
         25    2    1    2    0    0  0.74409029929E+02 -0.60493983957E+02  0.89035732266E+02  0.18096850812E+03  0.12500405386E+03 0.  0.
         23    2    1    2    0    0 -0.74409029929E+02  0.60493983957E+02  0.11066437873E+03  0.17136863210E+03  0.89018972811E+02 0.  0.
        -11    1    4    4    0    0 -0.15575544153E+02  0.20440255646E+02 -0.12913334837E+02  0.28760317164E+02  0.51100000000E-03 0.  1.
         11    1    4    4    0    0 -0.58833485776E+02  0.40053728311E+02  0.12357771356E+03  0.14260831494E+03  0.51100000000E-03 0. -1.
    9000005    1    3    3    0    0  0.55932697803E+02 -0.53934126712E+02 -0.11482916487E+02  0.78550710237E+02  0.10000000000E+01 0.  0.
    9000005    1    3    3    0    0  0.18476332126E+02 -0.65598572450E+01  0.10051864875E+03  0.10241779788E+03  0.10000000000E+01 0.  0.
<mgrwt>
<rscale>  0 0.15040256E+03</rscale>
<asrwt>0</asrwt>
<pdfrwt beam="1">  1        1 0.42464404E-01 0.15755075E+03</pdfrwt>
<pdfrwt beam="2">  1       -1 0.11741310E-01 0.15755075E+03</pdfrwt>
<totfact> 0.44718975E+03</totfact>
</mgrwt>
</event>
<event>
 8    2  0.1409546E-003  0.1917520E+03  0.7818608E-02  0.1161442E+00
          1   -1    0    0  501    0  0.00000000000E+00  0.00000000000E+00  0.11284072978E+03  0.11284072989E+03  0.50400000000E-02 0. -1.
         -1   -1    0    0    0  501 -0.00000000000E+00 -0.00000000000E+00 -0.16105930237E+04  0.16105930238E+04  0.50400000000E-02 0.  1.
         25    2    1    2    0    0  0.10910320684E+03  0.96127335098E+02  0.22827816758E+02  0.19310606153E+03  0.12499946995E+03 0.  0.
         23    2    1    2    0    0 -0.10910320684E+03 -0.96127335098E+02 -0.15205801107E+04  0.15303276921E+04  0.92709210982E+02 0.  0.
        -11    1    4    4    0    0 -0.96916411289E+02 -0.51958004361E+02 -0.13203752912E+04  0.13249465403E+04  0.51100000000E-03 0.  1.
         11    1    4    4    0    0 -0.12186795547E+02 -0.44169330736E+02 -0.20020481953E+03  0.20538115183E+03  0.51100000000E-03 0. -1.
    9000005    1    3    3    0    0  0.64427200885E+02  0.29462934483E+02 -0.48396355770E+02  0.85802890243E+02  0.10000000000E+01 0.  0.
    9000005    1    3    3    0    0  0.44676005951E+02  0.66664400614E+02  0.71224172528E+02  0.10730317129E+03  0.10000000000E+01 0.  0.
<mgrwt>
<rscale>  0 0.18673285E+03</rscale>
<asrwt>0</asrwt>
<pdfrwt beam="1">  1        1 0.17360113E-01 0.19175203E+03</pdfrwt>
<pdfrwt beam="2">  1       -1 0.24778353E+00 0.19175203E+03</pdfrwt>
<totfact> 0.25911708E+01</totfact>
</mgrwt>
</event>
<event>
 8    2  0.1409546E-003  0.1544018E+03  0.7818608E-02  0.1203657E+00
          1   -1    0    0  501    0  0.00000000000E+00  0.00000000000E+00  0.27197362958E+02  0.27197363425E+02  0.50400000000E-02 0. -1.
         -1   -1    0    0    0  501 -0.00000000000E+00 -0.00000000000E+00 -0.17194638489E+04  0.17194638489E+04  0.50400000000E-02 0.  1.
         25    2    1    2    0    0  0.28998706220E+02  0.85851151781E+02 -0.21981140269E+03  0.26862049188E+03  0.12501428192E+03 0.  0.
         23    2    1    2    0    0 -0.28998706220E+02 -0.85851151781E+02 -0.14724550832E+04  0.14780407204E+04  0.90934338292E+02 0.  0.
        -11    1    4    4    0    0  0.36421775776E+00 -0.82485346656E+02 -0.13298200583E+04  0.13323758300E+04  0.51100000000E-03 0.  1.
         11    1    4    4    0    0 -0.29362923978E+02 -0.33658051252E+01 -0.14263502497E+03  0.14566489041E+03  0.51100000000E-03 0. -1.
    9000005    1    3    3    0    0 -0.40125616517E+02  0.16006695799E+02 -0.12423497365E+03  0.13153557728E+03  0.10000000000E+01 0.  0.
    9000005    1    3    3    0    0  0.69124322737E+02  0.69844455982E+02 -0.95576429034E+02  0.13708491460E+03  0.10000000000E+01 0.  0.
<mgrwt>
<rscale>  0 0.14743827E+03</rscale>
<asrwt>0</asrwt>
<pdfrwt beam="1">  1        1 0.41842111E-02 0.15440180E+03</pdfrwt>
<pdfrwt beam="2">  1       -1 0.26453282E+00 0.15440180E+03</pdfrwt>
<totfact> 0.13913542E+02</totfact>
</mgrwt>
</event>
<event>
 8    2  0.1409546E-003  0.1462306E+03  0.7818608E-02  0.1215322E+00
          1   -1    0    0  501    0  0.00000000000E+00  0.00000000000E+00  0.15273859590E+04  0.15273859590E+04  0.50400000000E-02 0. -1.
         -1   -1    0    0    0  501 -0.00000000000E+00 -0.00000000000E+00 -0.11408036293E+02  0.11408037406E+02  0.50400000000E-02 0.  1.
         25    2    1    2    0    0  0.72548305227E+02 -0.22247304675E+02  0.84066804556E+03  0.85329137039E+03  0.12500080321E+03 0.  0.
         23    2    1    2    0    0 -0.72548305227E+02  0.22247304675E+02  0.67530987714E+03  0.68550262602E+03  0.90067868601E+02 0.  0.
        -11    1    4    4    0    0 -0.88850942438E+02 -0.87322876995E+00  0.48007031734E+03  0.48822409004E+03  0.51100000000E-03 0.  1.
         11    1    4    4    0    0  0.16302637211E+02  0.23120533445E+02  0.19523955980E+03  0.19727853598E+03  0.51100000000E-03 0. -1.
    9000005    1    3    3    0    0  0.63208112010E+02 -0.15028860160E+02  0.83878245555E+03  0.84129551276E+03  0.10000000000E+01 0.  0.
    9000005    1    3    3    0    0  0.93401932165E+01 -0.72184445148E+01  0.18855900121E+01  0.11995857628E+02  0.10000000000E+01 0.  0.
<mgrwt>
<rscale>  0 0.13852877E+03</rscale>
<asrwt>0</asrwt>
<pdfrwt beam="1">  1        1 0.23498250E+00 0.14623064E+03</pdfrwt>
<pdfrwt beam="2">  1       -1 0.17550822E-02 0.14623064E+03</pdfrwt>
<totfact> 0.56076792E+03</totfact>
</mgrwt>
</event>
<event>
 8    2  0.1409546E-003  0.1845311E+03  0.7818608E-02  0.1168499E+00
          1   -1    0    0  501    0  0.00000000000E+00  0.00000000000E+00  0.32886890321E+03  0.32886890325E+03  0.50400000000E-02 0. -1.
         -1   -1    0    0    0  501 -0.00000000000E+00 -0.00000000000E+00 -0.10150542061E+03  0.10150542074E+03  0.50400000000E-02 0.  1.
         25    2    1    2    0    0 -0.11195132733E+03 -0.76775818838E+02  0.55886715350E+02  0.19280834269E+03  0.12499642399E+03 0.  0.
         23    2    1    2    0    0  0.11195132733E+03  0.76775818838E+02  0.17147676725E+03  0.23756598130E+03  0.92766845972E+02 0.  0.
        -11    1    4    4    0    0  0.42834827788E+02  0.54103878055E+02  0.23887481416E+02  0.73025090625E+02  0.51100000000E-03 0.  1.
         11    1    4    4    0    0  0.69116499545E+02  0.22671940783E+02  0.14758928584E+03  0.16454089067E+03  0.51100000000E-03 0. -1.
    9000005    1    3    3    0    0 -0.53815978672E+02  0.29416000527E+02  0.52019377063E+01  0.61559083841E+02  0.10000000000E+01 0.  0.
    9000005    1    3    3    0    0 -0.58135348660E+02 -0.10619181937E+03  0.50684777644E+02  0.13124925885E+03  0.10000000000E+01 0.  0.
<mgrwt>
<rscale>  0 0.17928321E+03</rscale>
<asrwt>0</asrwt>
<pdfrwt beam="1">  1        1 0.50595216E-01 0.18453111E+03</pdfrwt>
<pdfrwt beam="2">  1       -1 0.15616218E-01 0.18453111E+03</pdfrwt>
<totfact> 0.23154391E+03</totfact>
</mgrwt>
</event>
<event>
 8    2  0.1409546E-003  0.1615786E+03  0.7818608E-02  0.1194391E+00
         -1   -1    0    0    0  501 -0.00000000000E+00  0.00000000000E+00  0.79306143661E+02  0.79306143821E+02  0.50400000000E-02 0.  1.
          1   -1    0    0  501    0  0.00000000000E+00 -0.00000000000E+00 -0.31036353676E+03  0.31036353680E+03  0.50400000000E-02 0. -1.
         25    2    1    2    0    0 -0.10103096034E+03  0.16602930448E+02 -0.64481080344E+02  0.17396968627E+03  0.12499891908E+03 0.  0.
         23    2    1    2    0    0  0.10103096034E+03 -0.16602930448E+02 -0.16657631275E+03  0.21569999435E+03  0.91081871659E+02 0.  0.
        -11    1    4    4    0    0  0.43447542701E+02 -0.39244693730E+02 -0.13296744914E+03  0.14528653580E+03  0.51100000000E-03 0. -1.
         11    1    4    4    0    0  0.57583417643E+02  0.22641763282E+02 -0.33608863615E+02  0.70413458556E+02  0.51100000000E-03 0.  1.
    9000005    1    3    3    0    0  0.24593132893E+02  0.41754690474E+01  0.10562774336E+02  0.27107728215E+02  0.10000000000E+01 0.  0.
    9000005    1    3    3    0    0 -0.12562409324E+03  0.12427461401E+02 -0.75043854681E+02  0.14686195806E+03  0.10000000000E+01 0.  0.
<mgrwt>
<rscale>  0 0.15505879E+03</rscale>
<asrwt>0</asrwt>
<pdfrwt beam="2">  1        1 0.47748236E-01 0.16157859E+03</pdfrwt>
<pdfrwt beam="1">  1       -1 0.12200945E-01 0.16157859E+03</pdfrwt>
<totfact> 0.36463950E+03</totfact>
</mgrwt>
</event>
<event>
 8    2  0.1409546E-003  0.1952689E+03  0.7818608E-02  0.1160136E+00
          1   -1    0    0  501    0  0.00000000000E+00  0.00000000000E+00  0.64359047613E+03  0.64359047615E+03  0.50400000000E-02 0. -1.
         -1   -1    0    0    0  501 -0.00000000000E+00 -0.00000000000E+00 -0.58914735028E+02  0.58914735244E+02  0.50400000000E-02 0.  1.
         25    2    1    2    0    0  0.14866622485E+03 -0.20072526160E+02  0.43673975875E+03  0.47840520651E+03  0.12500148810E+03 0.  0.
         23    2    1    2    0    0 -0.14866622485E+03  0.20072526160E+02  0.14793598235E+03  0.22410000488E+03  0.76362324465E+02 0.  0.
        -11    1    4    4    0    0 -0.99845381669E+02  0.70465610168E+01  0.45645794227E+02  0.11001042130E+03  0.51100000000E-03 0.  1.
         11    1    4    4    0    0 -0.48820843178E+02  0.13025965143E+02  0.10229018812E+03  0.11408958359E+03  0.51100000000E-03 0. -1.
    9000005    1    3    3    0    0  0.67148345633E+01  0.38746133595E+02  0.12152323729E+03  0.12773115936E+03  0.10000000000E+01 0.  0.
    9000005    1    3    3    0    0  0.14195139028E+03 -0.58818659755E+02  0.31521652147E+03  0.35067404715E+03  0.10000000000E+01 0.  0.
<mgrwt>
<rscale>  0 0.18815536E+03</rscale>
<asrwt>0</asrwt>
<pdfrwt beam="1">  1        1 0.99013927E-01 0.19526885E+03</pdfrwt>
<pdfrwt beam="2">  1       -1 0.90638047E-02 0.19526885E+03</pdfrwt>
<totfact> 0.22431650E+03</totfact>
</mgrwt>
</event>
<event>
 8    2  0.1409546E-003  0.1413645E+03  0.7818608E-02  0.1221961E+00
          1   -1    0    0  501    0  0.00000000000E+00  0.00000000000E+00  0.72072980030E+03  0.72072980032E+03  0.50400000000E-02 0. -1.
         -1   -1    0    0    0  501 -0.00000000000E+00 -0.00000000000E+00 -0.27815220072E+02  0.27815220529E+02  0.50400000000E-02 0.  1.
         25    2    1    2    0    0  0.59269978677E+02 -0.29089278345E+02  0.53998238182E+03  0.55817997884E+03  0.12499919846E+03 0.  0.
         23    2    1    2    0    0 -0.59269978677E+02  0.29089278345E+02  0.15293219841E+03  0.19036504200E+03  0.92149201957E+02 0.  0.
        -11    1    4    4    0    0 -0.15676921250E+02 -0.26677813700E+02  0.91671960680E+02  0.96753397764E+02  0.51100000000E-03 0. -1.
         11    1    4    4    0    0 -0.43593057426E+02  0.55767092045E+02  0.61260237725E+02  0.93611644240E+02  0.51100000000E-03 0.  1.
    9000005    1    3    3    0    0  0.32250949068E+02 -0.78513786620E+02  0.33672981209E+03  0.34726431540E+03  0.10000000000E+01 0.  0.
    9000005    1    3    3    0    0  0.27019029608E+02  0.49424508276E+02  0.20325256973E+03  0.21091566344E+03  0.10000000000E+01 0.  0.
<mgrwt>
<rscale>  0 0.13377366E+03</rscale>
<asrwt>0</asrwt>
<pdfrwt beam="1">  1        1 0.11088152E+00 0.14136448E+03</pdfrwt>
<pdfrwt beam="2">  1       -1 0.42792643E-02 0.14136448E+03</pdfrwt>
<totfact> 0.58184517E+03</totfact>
</mgrwt>
</event>
<event>
 8    2  0.1409546E-003  0.1281422E+03  0.7818608E-02  0.1244360E+00
         -1   -1    0    0    0  501 -0.00000000000E+00  0.00000000000E+00  0.11645677560E+04  0.11645677560E+04  0.50400000000E-02 0.  1.
          1   -1    0    0  501    0  0.00000000000E+00 -0.00000000000E+00 -0.11265804988E+02  0.11265806115E+02  0.50400000000E-02 0. -1.
         25    2    1    2    0    0 -0.28009798407E+02 -0.32711412459E+01  0.53624150860E+03  0.55133961452E+03  0.12500066325E+03 0.  0.
         23    2    1    2    0    0  0.28009798407E+02  0.32711412459E+01  0.61706044238E+03  0.62449394758E+03  0.91836005158E+02 0.  0.
        -11    1    4    4    0    0  0.19119642656E+02  0.34591109318E+02  0.53119596763E+03  0.53266430480E+03  0.51100000000E-03 0.  1.
         11    1    4    4    0    0  0.88901557508E+01 -0.31319968073E+02  0.85864474751E+02  0.91829642785E+02  0.51100000000E-03 0. -1.
    9000005    1    3    3    0    0 -0.24462294557E+02  0.52673595775E+02  0.14664703670E+03  0.15773162308E+03  0.10000000000E+01 0.  0.
    9000005    1    3    3    0    0 -0.35475038494E+01 -0.55944737020E+02  0.38959447190E+03  0.39360799143E+03  0.10000000000E+01 0.  0.
<mgrwt>
<rscale>  0 0.11923781E+03</rscale>
<asrwt>0</asrwt>
<pdfrwt beam="2">  1        1 0.17332016E-02 0.12814217E+03</pdfrwt>
<pdfrwt beam="1">  1       -1 0.17916420E+00 0.12814217E+03</pdfrwt>
<totfact> 0.16661119E+03</totfact>
</mgrwt>
</event>
<event>
 8    2  0.1409546E-003  0.2025221E+03  0.7818608E-02  0.1149617E+00
          1   -1    0    0  501    0  0.00000000000E+00  0.00000000000E+00  0.15078480640E+03  0.15078480648E+03  0.50400000000E-02 0. -1.
         -1   -1    0    0    0  501 -0.00000000000E+00 -0.00000000000E+00 -0.28217697795E+03  0.28217697800E+03  0.50400000000E-02 0.  1.
         25    2    1    2    0    0  0.14632732320E+03 -0.63072856626E+02 -0.59118821647E+01  0.20260838092E+03  0.12500133964E+03 0.  0.
         23    2    1    2    0    0 -0.14632732320E+03  0.63072856626E+02 -0.12548028939E+03  0.23035340356E+03  0.10921317113E+03 0.  0.
        -11    1    4    4    0    0 -0.17806683197E+02 -0.20341887239E+02 -0.55864545286E+02  0.62062208816E+02  0.51100000000E-03 0.  1.
         11    1    4    4    0    0 -0.12852064000E+03  0.83414743865E+02 -0.69615744104E+02  0.16829119474E+03  0.51100000000E-03 0. -1.
    9000005    1    3    3    0    0  0.15009111148E+03 -0.14394960281E+02  0.10351339911E+02  0.15113803910E+03  0.10000000000E+01 0.  0.
    9000005    1    3    3    0    0 -0.37637882772E+01 -0.48677896345E+02 -0.16263222076E+02  0.51470341820E+02  0.10000000000E+01 0.  0.
<mgrwt>
<rscale>  0 0.20014431E+03</rscale>
<asrwt>0</asrwt>
<pdfrwt beam="1">  1        1 0.23197663E-01 0.20252211E+03</pdfrwt>
<pdfrwt beam="2">  1       -1 0.43411843E-01 0.20252211E+03</pdfrwt>
<totfact> 0.11171874E+03</totfact>
</mgrwt>
</event>
<event>
 8    2  0.1409546E-003  0.1464681E+03  0.7818608E-02  0.1214616E+00
         -1   -1    0    0    0  501 -0.00000000000E+00  0.00000000000E+00  0.56210328955E+01  0.56210351550E+01  0.50400000000E-02 0.  1.
          1   -1    0    0  501    0  0.00000000000E+00 -0.00000000000E+00 -0.32414731057E+04  0.32414731057E+04  0.50400000000E-02 0. -1.
         25    2    1    2    0    0 -0.74360176149E+02 -0.17281254639E+02 -0.14853164051E+04  0.14925205910E+04  0.12499925495E+03 0.  0.
         23    2    1    2    0    0  0.74360176149E+02  0.17281254639E+02 -0.17505356676E+04  0.17545735498E+04  0.91242207368E+02 0.  0.
        -11    1    4    4    0    0  0.77889441492E+02 -0.13687309999E+02 -0.90027308421E+03  0.90373985953E+03  0.51100000000E-03 0.  1.
         11    1    4    4    0    0 -0.35292653430E+01  0.30968564639E+02 -0.85026258343E+03  0.85083369027E+03  0.51100000000E-03 0. -1.
    9000005    1    3    3    0    0  0.31497781191E+02 -0.18193479964E+02 -0.55694117079E+03  0.55812864167E+03  0.10000000000E+01 0.  0.
    9000005    1    3    3    0    0 -0.10585795734E+03  0.91222532450E+00 -0.92837523435E+03  0.93439194937E+03  0.10000000000E+01 0.  0.
<mgrwt>
<rscale>  0 0.13904779E+03</rscale>
<asrwt>0</asrwt>
<pdfrwt beam="2">  1        1 0.49868668E+00 0.14646806E+03</pdfrwt>
<pdfrwt beam="1">  1       -1 0.86477705E-03 0.14646806E+03</pdfrwt>
<totfact> 0.11510960E+03</totfact>
</mgrwt>
</event>
<event>
 8    2  0.1409546E-003  0.1658163E+03  0.7818608E-02  0.1188122E+00
          1   -1    0    0  501    0  0.00000000000E+00  0.00000000000E+00  0.59238176019E+03  0.59238176021E+03  0.50400000000E-02 0. -1.
         -1   -1    0    0    0  501 -0.00000000000E+00 -0.00000000000E+00 -0.58353410583E+02  0.58353410801E+02  0.50400000000E-02 0.  1.
         25    2    1    2    0    0  0.54721519221E+02  0.94206954780E+02  0.10162645488E+03  0.19448135120E+03  0.12500265852E+03 0.  0.
         23    2    1    2    0    0 -0.54721519221E+02 -0.94206954780E+02  0.43240189473E+03  0.45625381982E+03  0.96575123815E+02 0.  0.
        -11    1    4    4    0    0 -0.92638429617E+01  0.76587348266E+01  0.17879798054E+03  0.17920154255E+03  0.51100000000E-03 0. -1.
         11    1    4    4    0    0 -0.45457676259E+02 -0.10186568961E+03  0.25360391418E+03  0.27705227727E+03  0.51100000000E-03 0.  1.
    9000005    1    3    3    0    0 -0.17912969299E+02  0.19827614867E+02  0.85109158454E+02  0.89210860511E+02  0.10000000000E+01 0.  0.
    9000005    1    3    3    0    0  0.72634488519E+02  0.74379339913E+02  0.16517296430E+02  0.10527049069E+03  0.10000000000E+01 0.  0.
<mgrwt>
<rscale>  0 0.16051019E+03</rscale>
<asrwt>0</asrwt>
<pdfrwt beam="1">  1        1 0.91135663E-01 0.16581634E+03</pdfrwt>
<pdfrwt beam="2">  1       -1 0.89774471E-02 0.16581634E+03</pdfrwt>
<totfact> 0.25430883E+03</totfact>
</mgrwt>
</event>
<event>
 8    2  0.1409546E-003  0.1477264E+03  0.7818608E-02  0.1212699E+00
         -1   -1    0    0    0  501 -0.00000000000E+00  0.00000000000E+00  0.21255247018E+03  0.21255247024E+03  0.50400000000E-02 0.  1.
          1   -1    0    0  501    0  0.00000000000E+00 -0.00000000000E+00 -0.86737351186E+02  0.86737351333E+02  0.50400000000E-02 0. -1.
         25    2    1    2    0    0  0.78413683514E+02  0.69690028368E+01  0.46767328544E+02  0.15495250504E+03  0.12500329211E+03 0.  0.
         23    2    1    2    0    0 -0.78413683514E+02 -0.69690028368E+01  0.79047790450E+02  0.14433731653E+03  0.91582940579E+02 0.  0.
        -11    1    4    4    0    0 -0.79321112742E+02  0.28907893456E+02  0.49622527999E+02  0.97928037435E+02  0.51100000000E-03 0. -1.
         11    1    4    4    0    0  0.90742922796E+00 -0.35876896293E+02  0.29425262452E+02  0.46409279094E+02  0.51100000000E-03 0.  1.
    9000005    1    3    3    0    0  0.10525584665E+02 -0.53848198691E+02  0.63501824237E+01  0.55242567388E+02  0.10000000000E+01 0.  0.
    9000005    1    3    3    0    0  0.67888098849E+02  0.60817201527E+02  0.40417146120E+02  0.99709937657E+02  0.10000000000E+01 0.  0.
<mgrwt>
<rscale>  0 0.14046912E+03</rscale>
<asrwt>0</asrwt>
<pdfrwt beam="2">  1        1 0.13344208E-01 0.14772642E+03</pdfrwt>
<pdfrwt beam="1">  1       -1 0.32700380E-01 0.14772642E+03</pdfrwt>
<totfact> 0.36989470E+03</totfact>
</mgrwt>
</event>
<event>
 8    2  0.1409546E-003  0.1433105E+03  0.7818608E-02  0.1219149E+00
          1   -1    0    0  501    0  0.00000000000E+00  0.00000000000E+00  0.12180552651E+04  0.12180552651E+04  0.50400000000E-02 0. -1.
         -1   -1    0    0    0  501 -0.00000000000E+00 -0.00000000000E+00 -0.16430443115E+02  0.16430443888E+02  0.50400000000E-02 0.  1.
         25    2    1    2    0    0  0.49141877682E+01  0.69916976829E+02  0.40638210589E+03  0.43091102199E+03  0.12500143999E+03 0.  0.
         23    2    1    2    0    0 -0.49141877682E+01 -0.69916976829E+02  0.79524271610E+03  0.80357468701E+03  0.91699330416E+02 0.  0.
        -11    1    4    4    0    0 -0.24393226193E+02 -0.86183633539E+02  0.58773241302E+03  0.59451832393E+03  0.51100000000E-03 0.  1.
         11    1    4    4    0    0  0.19479038425E+02  0.16266656710E+02  0.20751030308E+03  0.20905636307E+03  0.51100000000E-03 0. -1.
    9000005    1    3    3    0    0  0.42309486902E+01  0.44320774538E+02  0.40254454215E+03  0.40500042025E+03  0.10000000000E+01 0.  0.
    9000005    1    3    3    0    0  0.68323907797E+00  0.25596202290E+02  0.38375637311E+01  0.25910601743E+02  0.10000000000E+01 0.  0.
<mgrwt>
<rscale>  0 0.13576155E+03</rscale>
<asrwt>0</asrwt>
<pdfrwt beam="1">  1        1 0.18739311E+00 0.14331048E+03</pdfrwt>
<pdfrwt beam="2">  1       -1 0.25277606E-02 0.14331048E+03</pdfrwt>
<totfact> 0.52993664E+03</totfact>
</mgrwt>
</event>
<event>
 8    2  0.1409546E-003  0.1446853E+03  0.7818608E-02  0.1216956E+00
         -1   -1    0    0    0  501 -0.00000000000E+00  0.00000000000E+00  0.53168765714E+03  0.53168765716E+03  0.50400000000E-02 0.  1.
          1   -1    0    0  501    0  0.00000000000E+00 -0.00000000000E+00 -0.36567282029E+02  0.36567282377E+02  0.50400000000E-02 0. -1.
         25    2    1    2    0    0  0.66412656560E+02 -0.29973714981E+02  0.36672940047E+03  0.39423888047E+03  0.12499910868E+03 0.  0.
         23    2    1    2    0    0 -0.66412656560E+02  0.29973714981E+02  0.12839097464E+03  0.17401605907E+03  0.92131872345E+02 0.  0.
        -11    1    4    4    0    0 -0.26682441476E+02  0.17135839951E+02  0.12840546870E+03  0.13226320005E+03  0.51100000000E-03 0.  1.
         11    1    4    4    0    0 -0.39730215084E+02  0.12837875030E+02 -0.14494058383E-01  0.41752859019E+02  0.51100000000E-03 0. -1.
    9000005    1    3    3    0    0  0.57381917718E+02  0.16635580073E+02  0.63038638557E+02  0.86857912458E+02  0.10000000000E+01 0.  0.
    9000005    1    3    3    0    0  0.90307388423E+01 -0.46609295055E+02  0.30369076191E+03  0.30738096802E+03  0.10000000000E+01 0.  0.
<mgrwt>
<rscale>  0 0.13733866E+03</rscale>
<asrwt>0</asrwt>
<pdfrwt beam="2">  1        1 0.56257363E-02 0.14468532E+03</pdfrwt>
<pdfrwt beam="1">  1       -1 0.81798093E-01 0.14468532E+03</pdfrwt>
<totfact> 0.21405998E+03</totfact>
</mgrwt>
</event>
<event>
 8    2  0.1409546E-003  0.1488667E+03  0.7818608E-02  0.1211355E+00
          1   -1    0    0  501    0  0.00000000000E+00  0.00000000000E+00  0.42217360347E+03  0.42217360350E+03  0.50400000000E-02 0. -1.
         -1   -1    0    0    0  501 -0.00000000000E+00 -0.00000000000E+00 -0.46086311676E+02  0.46086311952E+02  0.50400000000E-02 0.  1.
         25    2    1    2    0    0 -0.58910779390E+02  0.55364567134E+02  0.14832976683E+03  0.21014998973E+03  0.12500233291E+03 0.  0.
         23    2    1    2    0    0  0.58910779390E+02 -0.55364567134E+02  0.22775752496E+03  0.25810992572E+03  0.90617483727E+02 0.  0.
        -11    1    4    4    0    0  0.27859202850E+02  0.36235250321E+01  0.91220945464E+01  0.29537733939E+02  0.51100000000E-03 0.  1.
         11    1    4    4    0    0  0.31051576540E+02 -0.58988092166E+02  0.21863543041E+03  0.22857219178E+03  0.51100000000E-03 0. -1.
    9000005    1    3    3    0    0 -0.84276056634E+02 -0.11152414749E+01  0.10464157906E+03  0.13436724881E+03  0.10000000000E+01 0.  0.
    9000005    1    3    3    0    0  0.25365277244E+02  0.56479808609E+02  0.43688187773E+02  0.75782740918E+02  0.10000000000E+01 0.  0.
<mgrwt>
<rscale>  0 0.14147740E+03</rscale>
<asrwt>0</asrwt>
<pdfrwt beam="1">  1        1 0.64949786E-01 0.14886671E+03</pdfrwt>
<pdfrwt beam="2">  1       -1 0.70902017E-02 0.14886671E+03</pdfrwt>
<totfact> 0.56473465E+03</totfact>
</mgrwt>
</event>
<event>
 8    2  0.1409546E-003  0.1787170E+03  0.7818608E-02  0.1174901E+00
          1   -1    0    0  501    0  0.00000000000E+00  0.00000000000E+00  0.49389127272E+03  0.49389127275E+03  0.50400000000E-02 0. -1.
         -1   -1    0    0    0  501 -0.00000000000E+00 -0.00000000000E+00 -0.57876216341E+02  0.57876216560E+02  0.50400000000E-02 0.  1.
         25    2    1    2    0    0  0.12732389421E+03  0.10178931811E+02  0.19556826679E+03  0.26492774848E+03  0.12499912100E+03 0.  0.
         23    2    1    2    0    0 -0.12732389421E+03 -0.10178931811E+02  0.24044678959E+03  0.28683974083E+03  0.90262913767E+02 0.  0.
        -11    1    4    4    0    0 -0.10976310611E+03 -0.34796478413E+02  0.13648279261E+03  0.17856731799E+03  0.51100000000E-03 0. -1.
         11    1    4    4    0    0 -0.17560788101E+02  0.24617546602E+02  0.10396399698E+03  0.10827242284E+03  0.51100000000E-03 0.  1.
    9000005    1    3    3    0    0  0.85392273004E+02 -0.49321888576E+02  0.74253156738E+02  0.12344642671E+03  0.10000000000E+01 0.  0.
    9000005    1    3    3    0    0  0.41931621209E+02  0.59500820387E+02  0.12131511005E+03  0.14148132178E+03  0.10000000000E+01 0.  0.
<mgrwt>
<rscale>  0 0.17285690E+03</rscale>
<asrwt>0</asrwt>
<pdfrwt beam="1">  1        1 0.75983270E-01 0.17871700E+03</pdfrwt>
<pdfrwt beam="2">  1       -1 0.89040336E-02 0.17871700E+03</pdfrwt>
<totfact> 0.32925618E+03</totfact>
</mgrwt>
</event>
<event>
 8    2  0.1409546E-003  0.1271798E+03  0.7818608E-02  0.1245928E+00
          1   -1    0    0  501    0  0.00000000000E+00  0.00000000000E+00  0.14523198204E+02  0.14523199079E+02  0.50400000000E-02 0. -1.
         -1   -1    0    0    0  501 -0.00000000000E+00 -0.00000000000E+00 -0.10774452738E+04  0.10774452738E+04  0.50400000000E-02 0.  1.
         25    2    1    2    0    0  0.21645057599E+02  0.90003949005E+01 -0.34377321357E+03  0.36654429251E+03  0.12500072151E+03 0.  0.
         23    2    1    2    0    0 -0.21645057599E+02 -0.90003949005E+01 -0.71914886198E+03  0.72542418033E+03  0.92280225938E+02 0.  0.
        -11    1    4    4    0    0 -0.47191165049E+02  0.13748352611E+01 -0.63749229746E+03  0.63923808205E+03  0.51100000000E-03 0.  1.
         11    1    4    4    0    0  0.25546107450E+02 -0.10375230162E+02 -0.81656564521E+02  0.86186098278E+02  0.51100000000E-03 0. -1.
    9000005    1    3    3    0    0  0.36516851321E+02  0.13694813506E+02 -0.22792213456E+02  0.45183109029E+02  0.10000000000E+01 0.  0.
    9000005    1    3    3    0    0 -0.14871793721E+02 -0.46944186056E+01 -0.32098100012E+03  0.32136118348E+03  0.10000000000E+01 0.  0.
<mgrwt>
<rscale>  0 0.11830019E+03</rscale>
<asrwt>0</asrwt>
<pdfrwt beam="1">  1        1 0.22343391E-02 0.12717978E+03</pdfrwt>
<pdfrwt beam="2">  1       -1 0.16576075E+00 0.12717978E+03</pdfrwt>
<totfact> 0.14510652E+03</totfact>
</mgrwt>
</event>
<event>
 8    2  0.1409546E-003  0.1433998E+03  0.7818608E-02  0.1219140E+00
         -1   -1    0    0    0  501 -0.00000000000E+00  0.00000000000E+00  0.79189715259E+03  0.79189715260E+03  0.50400000000E-02 0.  1.
          1   -1    0    0  501    0  0.00000000000E+00 -0.00000000000E+00 -0.22460796281E+02  0.22460796847E+02  0.50400000000E-02 0. -1.
         25    2    1    2    0    0 -0.69994444965E+02  0.63059723689E+01  0.32504231057E+03  0.35526893957E+03  0.12499811259E+03 0.  0.
         23    2    1    2    0    0  0.69994444965E+02 -0.63059723689E+01  0.44439404573E+03  0.45908900987E+03  0.91310807090E+02 0.  0.
        -11    1    4    4    0    0  0.74917799959E+01  0.18173202335E+02  0.15660585049E+02  0.25132568014E+02  0.51100000000E-03 0. -1.
         11    1    4    4    0    0  0.62502664970E+02 -0.24479174704E+02  0.42873346068E+03  0.43395644186E+03  0.51100000000E-03 0.  1.
    9000005    1    3    3    0    0  0.34385602998E+02  0.14921048062E+02  0.10687430360E+03  0.11326130910E+03  0.10000000000E+01 0.  0.
    9000005    1    3    3    0    0 -0.10438004796E+03 -0.86150756932E+01  0.21816800697E+03  0.24200763048E+03  0.10000000000E+01 0.  0.
<mgrwt>
<rscale>  0 0.13576805E+03</rscale>
<asrwt>0</asrwt>
<pdfrwt beam="2">  1        1 0.34555073E-02 0.14339985E+03</pdfrwt>
<pdfrwt beam="1">  1       -1 0.12183033E+00 0.14339985E+03</pdfrwt>
<totfact> 0.17368612E+03</totfact>
</mgrwt>
</event>
<event>
 8    2  0.1409546E-003  0.1252720E+03  0.7818608E-02  0.1247579E+00
         -1   -1    0    0    0  501 -0.00000000000E+00  0.00000000000E+00  0.81685885142E+01  0.81685900691E+01  0.50400000000E-02 0.  1.
          1   -1    0    0  501    0  0.00000000000E+00 -0.00000000000E+00 -0.28573742778E+04  0.28573742778E+04  0.50400000000E-02 0. -1.
         25    2    1    2    0    0  0.83108934162E+01 -0.11288798649E+01 -0.54053503261E+03  0.55486141453E+03  0.12499088984E+03 0.  0.
         23    2    1    2    0    0 -0.83108934162E+01  0.11288798649E+01 -0.23086706567E+04  0.23106814534E+04  0.96011626838E+02 0.  0.
        -11    1    4    4    0    0  0.33147700111E+02  0.96554310708E+01 -0.17747279209E+04  0.17750637145E+04  0.51100000000E-03 0. -1.
         11    1    4    4    0    0 -0.41458593527E+02 -0.85265512059E+01 -0.53394273580E+03  0.53561773885E+03  0.51100000000E-03 0.  1.
    9000005    1    3    3    0    0  0.41985263554E+02 -0.36141722966E+02 -0.43692417403E+03  0.44042334219E+03  0.10000000000E+01 0.  0.
    9000005    1    3    3    0    0 -0.33674370137E+02  0.35012843101E+02 -0.10361085858E+03  0.11443807234E+03  0.10000000000E+01 0.  0.
<mgrwt>
<rscale>  0 0.11732325E+03</rscale>
<asrwt>0</asrwt>
<pdfrwt beam="2">  1        1 0.43959524E+00 0.12527198E+03</pdfrwt>
<pdfrwt beam="1">  1       -1 0.12567083E-02 0.12527198E+03</pdfrwt>
<totfact> 0.12500051E+03</totfact>
</mgrwt>
</event>
<event>
 8    2  0.1409546E-003  0.1347007E+03  0.7818608E-02  0.1233830E+00
          1   -1    0    0  501    0  0.00000000000E+00  0.00000000000E+00  0.13689557712E+04  0.13689557713E+04  0.50400000000E-02 0. -1.
         -1   -1    0    0    0  501 -0.00000000000E+00 -0.00000000000E+00 -0.10310789877E+02  0.10310791109E+02  0.50400000000E-02 0.  1.
         25    2    1    2    0    0  0.13847685870E+02 -0.48243103035E+02  0.72927746135E+03  0.74161302750E+03  0.12500044617E+03 0.  0.
         23    2    1    2    0    0 -0.13847685870E+02  0.48243103035E+02  0.62936752002E+03  0.63765353486E+03  0.89327486613E+02 0.  0.
        -11    1    4    4    0    0 -0.10789086449E+02  0.30733100480E+02  0.62241917682E+02  0.70249442478E+02  0.51100000000E-03 0.  1.
         11    1    4    4    0    0 -0.30585994208E+01  0.17510002554E+02  0.56712560234E+03  0.56740409238E+03  0.51100000000E-03 0. -1.
    9000005    1    3    3    0    0 -0.12728741175E+02  0.40209471599E+02  0.24510880431E+03  0.24871298400E+03  0.10000000000E+01 0.  0.
    9000005    1    3    3    0    0  0.26576427044E+02 -0.88452574634E+02  0.48416865704E+03  0.49290004351E+03  0.10000000000E+01 0.  0.
<mgrwt>
<rscale>  0 0.12579648E+03</rscale>
<asrwt>0</asrwt>
<pdfrwt beam="1">  1        1 0.21060846E+00 0.13470066E+03</pdfrwt>
<pdfrwt beam="2">  1       -1 0.15862764E-02 0.13470066E+03</pdfrwt>
<totfact> 0.82056890E+03</totfact>
</mgrwt>
</event>
<event>
 8    2  0.1409546E-003  0.1457828E+03  0.7818608E-02  0.1206755E+00
          1   -1    0    0  501    0  0.00000000000E+00  0.00000000000E+00  0.95702985579E+02  0.95702985712E+02  0.50400000000E-02 0. -1.
         -1   -1    0    0    0  501 -0.00000000000E+00 -0.00000000000E+00 -0.27337163666E+03  0.27337163670E+03  0.50400000000E-02 0.  1.
         25    2    1    2    0    0  0.51492340761E+02  0.54561088194E+02 -0.60692670516E+01  0.14590912565E+03  0.12499705374E+03 0.  0.
         23    2    1    2    0    0 -0.51492340761E+02 -0.54561088194E+02 -0.17159938403E+03  0.22316549677E+03  0.12135945306E+03 0.  0.
        -11    1    4    4    0    0 -0.74617068859E+02 -0.36807164725E+02 -0.17504133138E+03  0.19380903496E+03  0.51100000000E-03 0.  1.
         11    1    4    4    0    0  0.23124728098E+02 -0.17753923469E+02  0.34419473519E+01  0.29356461810E+02  0.51100000000E-03 0. -1.
    9000005    1    3    3    0    0  0.52577966944E+02 -0.10175882177E+02 -0.45341265802E+02  0.70177072969E+02  0.10000000000E+01 0.  0.
    9000005    1    3    3    0    0 -0.10856261827E+01  0.64736970371E+02  0.39271998751E+02  0.75732052679E+02  0.10000000000E+01 0.  0.
<mgrwt>
<rscale>  0 0.14499989E+03</rscale>
<asrwt>0</asrwt>
<pdfrwt beam="1">  1        1 0.14723536E-01 0.14578284E+03</pdfrwt>
<pdfrwt beam="2">  1       -1 0.42057175E-01 0.14578284E+03</pdfrwt>
<totfact> 0.21013570E+03</totfact>
</mgrwt>
</event>
<event>
 8    2  0.1409546E-003  0.1677165E+03  0.7818608E-02  0.1186782E+00
          1   -1    0    0  501    0  0.00000000000E+00  0.00000000000E+00  0.17101932045E+04  0.17101932045E+04  0.50400000000E-02 0. -1.
         -1   -1    0    0    0  501 -0.00000000000E+00 -0.00000000000E+00 -0.16739724431E+02  0.16739725190E+02  0.50400000000E-02 0.  1.
         25    2    1    2    0    0 -0.19994356517E+02  0.11001310152E+03  0.56981634756E+03  0.59398609217E+03  0.12500460369E+03 0.  0.
         23    2    1    2    0    0  0.19994356517E+02 -0.11001310152E+03  0.11236371325E+04  0.11329468375E+04  0.92225128443E+02 0.  0.
        -11    1    4    4    0    0  0.29990810149E+02 -0.59706066611E+02  0.93733285277E+03  0.93971120030E+03  0.51100000000E-03 0. -1.
         11    1    4    4    0    0 -0.99964536312E+01 -0.50307034908E+02  0.18630427970E+03  0.19323563720E+03  0.51100000000E-03 0.  1.
    9000005    1    3    3    0    0  0.15421403624E+02  0.11387787547E+03  0.52111737495E+03  0.53363874362E+03  0.10000000000E+01 0.  0.
    9000005    1    3    3    0    0 -0.35415760142E+02 -0.38647739505E+01  0.48698972608E+02  0.60347348551E+02  0.10000000000E+01 0.  0.
<mgrwt>
<rscale>  0 0.16170750E+03</rscale>
<asrwt>0</asrwt>
<pdfrwt beam="1">  1        1 0.26310667E+00 0.16771645E+03</pdfrwt>
<pdfrwt beam="2">  1       -1 0.25753421E-02 0.16771645E+03</pdfrwt>
<totfact> 0.24576863E+03</totfact>
</mgrwt>
</event>
<event>
 8    2  0.1409546E-003  0.1281892E+03  0.7818608E-02  0.1245048E+00
         -1   -1    0    0    0  501 -0.00000000000E+00  0.00000000000E+00  0.15123727801E+03  0.15123727809E+03  0.50400000000E-02 0.  1.
          1   -1    0    0  501    0  0.00000000000E+00 -0.00000000000E+00 -0.10854040782E+03  0.10854040794E+03  0.50400000000E-02 0. -1.
         25    2    1    2    0    0  0.20939404562E+02  0.19186080970E+02  0.87361513287E+02  0.15512739695E+03  0.12500364360E+03 0.  0.
         23    2    1    2    0    0 -0.20939404562E+02 -0.19186080970E+02 -0.44664643100E+02  0.10465028908E+03  0.90278393291E+02 0.  0.
        -11    1    4    4    0    0 -0.53958830266E+02 -0.95064386328E+01 -0.43941393088E+02  0.70233708188E+02  0.51100000000E-03 0. -1.
         11    1    4    4    0    0  0.33019425704E+02 -0.96796423369E+01 -0.72325001270E+00  0.34416580894E+02  0.51100000000E-03 0.  1.
    9000005    1    3    3    0    0 -0.16463544445E+02 -0.42073892974E+02  0.66449790948E+02  0.80360658800E+02  0.10000000000E+01 0.  0.
    9000005    1    3    3    0    0  0.37402949007E+02  0.61259973944E+02  0.20911722339E+02  0.74766738147E+02  0.10000000000E+01 0.  0.
<mgrwt>
<rscale>  0 0.11882490E+03</rscale>
<asrwt>0</asrwt>
<pdfrwt beam="2">  1        1 0.16698524E-01 0.12818922E+03</pdfrwt>
<pdfrwt beam="1">  1       -1 0.23267274E-01 0.12818922E+03</pdfrwt>
<totfact> 0.48324214E+03</totfact>
</mgrwt>
</event>
<event>
 8    2  0.1409546E-003  0.1412030E+03  0.7818608E-02  0.1223179E+00
          1   -1    0    0  501    0  0.00000000000E+00  0.00000000000E+00  0.66678639363E+03  0.66678639364E+03  0.50400000000E-02 0. -1.
         -1   -1    0    0    0  501 -0.00000000000E+00 -0.00000000000E+00 -0.23983681638E+02  0.23983682167E+02  0.50400000000E-02 0.  1.
         25    2    1    2    0    0 -0.57876013884E+02 -0.31056296291E+02  0.38746876751E+03  0.41239585192E+03  0.12499666541E+03 0.  0.
         23    2    1    2    0    0  0.57876013884E+02  0.31056296291E+02  0.25533394448E+03  0.27837422389E+03  0.89345726265E+02 0.  0.
        -11    1    4    4    0    0 -0.16727581374E+02  0.28426672732E+02  0.50069987782E+02  0.59957413036E+02  0.51100000000E-03 0.  1.
         11    1    4    4    0    0  0.74603595257E+02  0.26296235592E+01  0.20526395669E+03  0.21841681085E+03  0.51100000000E-03 0. -1.
    9000005    1    3    3    0    0 -0.86514409090E+02 -0.42950477856E+02  0.19689342349E+03  0.21931143778E+03  0.10000000000E+01 0.  0.
    9000005    1    3    3    0    0  0.28638395207E+02  0.11894181565E+02  0.19057534402E+03  0.19308441414E+03  0.10000000000E+01 0.  0.
<mgrwt>
<rscale>  0 0.13292508E+03</rscale>
<asrwt>0</asrwt>
<pdfrwt beam="1">  1        1 0.10258251E+00 0.14120302E+03</pdfrwt>
<pdfrwt beam="2">  1       -1 0.36897976E-02 0.14120302E+03</pdfrwt>
<totfact> 0.80829131E+03</totfact>
</mgrwt>
</event>
<event>
 8    2  0.1409546E-003  0.1502858E+03  0.7818608E-02  0.1209164E+00
         -1   -1    0    0    0  501 -0.00000000000E+00  0.00000000000E+00  0.20726855269E+04  0.20726855269E+04  0.50400000000E-02 0.  1.
          1   -1    0    0  501    0  0.00000000000E+00 -0.00000000000E+00 -0.10345718236E+02  0.10345719464E+02  0.50400000000E-02 0. -1.
         25    2    1    2    0    0  0.32956927915E+02  0.76654365341E+02  0.75218384689E+03  0.76705041992E+03  0.12499502531E+03 0.  0.
         23    2    1    2    0    0 -0.32956927915E+02 -0.76654365341E+02  0.13101559618E+04  0.13159808265E+04  0.91295348152E+02 0.  0.
        -11    1    4    4    0    0 -0.12423736101E+02 -0.83807823079E+02  0.12304155981E+04  0.12333290901E+04  0.51100000000E-03 0. -1.
         11    1    4    4    0    0 -0.20533191814E+02  0.71534577383E+01  0.79740363688E+02  0.82651736370E+02  0.51100000000E-03 0.  1.
    9000005    1    3    3    0    0  0.53841490955E+02  0.41858161233E+02  0.16604550161E+03  0.17950799541E+03  0.10000000000E+01 0.  0.
    9000005    1    3    3    0    0 -0.20884563040E+02  0.34796204108E+02  0.58613834528E+03  0.58754242452E+03  0.10000000000E+01 0.  0.
<mgrwt>
<rscale>  0 0.14314090E+03</rscale>
<asrwt>0</asrwt>
<pdfrwt beam="2">  1        1 0.15916486E-02 0.15028575E+03</pdfrwt>
<pdfrwt beam="1">  1       -1 0.31887479E+00 0.15028575E+03</pdfrwt>
<totfact> 0.24725816E+02</totfact>
</mgrwt>
</event>
<event>
 8    2  0.1409546E-003  0.1268151E+03  0.7818608E-02  0.1246968E+00
         -1   -1    0    0    0  501 -0.00000000000E+00  0.00000000000E+00  0.26874551249E+02  0.26874551721E+02  0.50400000000E-02 0.  1.
          1   -1    0    0  501    0  0.00000000000E+00 -0.00000000000E+00 -0.46038230509E+03  0.46038230512E+03  0.50400000000E-02 0. -1.
         25    2    1    2    0    0 -0.21287236153E+02  0.21220290604E+01 -0.27730379615E+03  0.30492535782E+03  0.12499771619E+03 0.  0.
         23    2    1    2    0    0  0.21287236153E+02 -0.21220290604E+01 -0.15620395770E+03  0.18233149903E+03  0.91583020839E+02 0.  0.
        -11    1    4    4    0    0 -0.16625749823E+02  0.24315245153E+02 -0.13637149249E+02  0.32459490815E+02  0.51100000000E-03 0.  1.
         11    1    4    4    0    0  0.37912985976E+02 -0.26437274214E+02 -0.14256680845E+03  0.14987200821E+03  0.51100000000E-03 0. -1.
    9000005    1    3    3    0    0 -0.61679181102E+02  0.19333868194E+02 -0.80313555599E+02  0.10309891878E+03  0.10000000000E+01 0.  0.
    9000005    1    3    3    0    0  0.40391944949E+02 -0.17211839133E+02 -0.19699024055E+03  0.20182643904E+03  0.10000000000E+01 0.  0.
<mgrwt>
<rscale>  0 0.11768366E+03</rscale>
<asrwt>0</asrwt>
<pdfrwt beam="2">  1        1 0.70828041E-01 0.12681514E+03</pdfrwt>
<pdfrwt beam="1">  1       -1 0.41345467E-02 0.12681514E+03</pdfrwt>
<totfact> 0.11142315E+04</totfact>
</mgrwt>
</event>
<event>
 8    2  0.1409546E-003  0.1390500E+03  0.7818608E-02  0.1225355E+00
         -1   -1    0    0    0  501 -0.00000000000E+00  0.00000000000E+00  0.14965887924E+02  0.14965888772E+02  0.50400000000E-02 0.  1.
          1   -1    0    0  501    0  0.00000000000E+00 -0.00000000000E+00 -0.13131249682E+04  0.13131249683E+04  0.50400000000E-02 0. -1.
         25    2    1    2    0    0 -0.31124210190E+02  0.52425128883E+02 -0.40805577486E+03  0.43109676100E+03  0.12497116209E+03 0.  0.
         23    2    1    2    0    0  0.31124210190E+02 -0.52425128883E+02 -0.89010330547E+03  0.89699409603E+03  0.92722183478E+02 0.  0.
        -11    1    4    4    0    0  0.14962728920E+02  0.26049962624E+02 -0.19747109166E+03  0.19974312467E+03  0.51100000000E-03 0.  1.
         11    1    4    4    0    0  0.16161481270E+02 -0.78475091507E+02 -0.69263221381E+03  0.69725097136E+03  0.51100000000E-03 0. -1.
    9000005    1    3    3    0    0  0.17287271072E+02  0.72454106184E+02 -0.14659844007E+03  0.16444011029E+03  0.10000000000E+01 0.  0.
    9000005    1    3    3    0    0 -0.48411481262E+02 -0.20028977301E+02 -0.26145733479E+03  0.26665665071E+03  0.10000000000E+01 0.  0.
<mgrwt>
<rscale>  0 0.13142573E+03</rscale>
<asrwt>0</asrwt>
<pdfrwt beam="2">  1        1 0.20201913E+00 0.13905000E+03</pdfrwt>
<pdfrwt beam="1">  1       -1 0.23024454E-02 0.13905000E+03</pdfrwt>
<totfact> 0.52292723E+03</totfact>
</mgrwt>
</event>
<event>
 8    2  0.1409546E-003  0.1602134E+03  0.7818608E-02  0.1196394E+00
          1   -1    0    0  501    0  0.00000000000E+00  0.00000000000E+00  0.72042587260E+02  0.72042587436E+02  0.50400000000E-02 0. -1.
         -1   -1    0    0    0  501 -0.00000000000E+00 -0.00000000000E+00 -0.30177173831E+03  0.30177173835E+03  0.50400000000E-02 0.  1.
         25    2    1    2    0    0 -0.68269195588E+02  0.73359544280E+02 -0.11908954021E+03  0.19962624837E+03  0.12500405852E+03 0.  0.
         23    2    1    2    0    0  0.68269195588E+02 -0.73359544280E+02 -0.11063961085E+03  0.17418807742E+03  0.89766681043E+02 0.  0.
        -11    1    4    4    0    0  0.47794767477E+02 -0.46259303985E+02 -0.91201156711E+01  0.67137467285E+02  0.51100000000E-03 0. -1.
         11    1    4    4    0    0  0.20474428111E+02 -0.27100240296E+02 -0.10151949517E+03  0.10705061014E+03  0.51100000000E-03 0.  1.
    9000005    1    3    3    0    0 -0.38363115463E+02  0.50281517452E+01  0.18666008463E+02  0.42970115312E+02  0.10000000000E+01 0.  0.
    9000005    1    3    3    0    0 -0.29906080125E+02  0.68331392535E+02 -0.13775554867E+03  0.15665613305E+03  0.10000000000E+01 0.  0.
<mgrwt>
<rscale>  0 0.15336807E+03</rscale>
<asrwt>0</asrwt>
<pdfrwt beam="1">  1        1 0.11083475E-01 0.16021336E+03</pdfrwt>
<pdfrwt beam="2">  1       -1 0.46426421E-01 0.16021336E+03</pdfrwt>
<totfact> 0.25660223E+03</totfact>
</mgrwt>
</event>
<event>
 8    2  0.1409546E-003  0.1452612E+03  0.7818608E-02  0.1216722E+00
         -1   -1    0    0    0  501 -0.00000000000E+00  0.00000000000E+00  0.13792490878E+02  0.13792491799E+02  0.50400000000E-02 0.  1.
          1   -1    0    0  501    0  0.00000000000E+00 -0.00000000000E+00 -0.12443403617E+04  0.12443403617E+04  0.50400000000E-02 0. -1.
         25    2    1    2    0    0 -0.13325388184E+02 -0.72804951302E+02 -0.66471367847E+03  0.68040069036E+03  0.12499079243E+03 0.  0.
         23    2    1    2    0    0  0.13325388184E+02  0.72804951302E+02 -0.56583419233E+03  0.57773216313E+03  0.90155378092E+02 0.  0.
        -11    1    4    4    0    0  0.22303201560E+01  0.40148992064E+02 -0.70211335196E+02  0.80910737742E+02  0.51100000000E-03 0.  1.
         11    1    4    4    0    0  0.11095068028E+02  0.32655959237E+02 -0.49562285714E+03  0.49682142539E+03  0.51100000000E-03 0. -1.
    9000005    1    3    3    0    0 -0.51638825409E+02 -0.22229277040E+02 -0.12618484970E+03  0.13814602904E+03  0.10000000000E+01 0.  0.
    9000005    1    3    3    0    0  0.38313437224E+02 -0.50575674262E+02 -0.53852882877E+03  0.54225466132E+03  0.10000000000E+01 0.  0.
<mgrwt>
<rscale>  0 0.13750835E+03</rscale>
<asrwt>0</asrwt>
<pdfrwt beam="2">  1        1 0.19143689E+00 0.14526123E+03</pdfrwt>
<pdfrwt beam="1">  1       -1 0.21219227E-02 0.14526123E+03</pdfrwt>
<totfact> 0.65573448E+03</totfact>
</mgrwt>
</event>
<event>
 8    2  0.1409546E-003  0.1355243E+03  0.7818608E-02  0.1231518E+00
          1   -1    0    0  501    0  0.00000000000E+00  0.00000000000E+00  0.11378196111E+04  0.11378196111E+04  0.50400000000E-02 0. -1.
         -1   -1    0    0    0  501 -0.00000000000E+00 -0.00000000000E+00 -0.13655622910E+02  0.13655623840E+02  0.50400000000E-02 0.  1.
         25    2    1    2    0    0  0.95748381387E+01 -0.51469452147E+02  0.48149680349E+03  0.50020596766E+03  0.12500422506E+03 0.  0.
         23    2    1    2    0    0 -0.95748381387E+01  0.51469452147E+02  0.64266718466E+03  0.65126926725E+03  0.91595666893E+02 0.  0.
        -11    1    4    4    0    0 -0.18779291656E+02  0.45862582390E+00  0.24206911102E+02  0.30640605054E+02  0.51100000000E-03 0.  1.
         11    1    4    4    0    0  0.92044535172E+01  0.51010826323E+02  0.61846027356E+03  0.62062866220E+03  0.51100000000E-03 0. -1.
    9000005    1    3    3    0    0  0.24912857995E+02  0.37119022007E+02  0.13391102793E+03  0.14117944500E+03  0.10000000000E+01 0.  0.
    9000005    1    3    3    0    0 -0.15338019856E+02 -0.88588474154E+02  0.34758577555E+03  0.35902652266E+03  0.10000000000E+01 0.  0.
<mgrwt>
<rscale>  0 0.12729973E+03</rscale>
<asrwt>0</asrwt>
<pdfrwt beam="1">  1        1 0.17504929E+00 0.13552431E+03</pdfrwt>
<pdfrwt beam="2">  1       -1 0.21008637E-02 0.13552431E+03</pdfrwt>
<totfact> 0.78487172E+03</totfact>
</mgrwt>
</event>
<event>
 8    2  0.1409546E-003  0.1351491E+03  0.7818608E-02  0.1230369E+00
         -1   -1    0    0    0  501 -0.00000000000E+00  0.00000000000E+00  0.34779176321E+03  0.34779176325E+03  0.50400000000E-02 0.  1.
          1   -1    0    0  501    0  0.00000000000E+00 -0.00000000000E+00 -0.42857330680E+02  0.42857330976E+02  0.50400000000E-02 0. -1.
         25    2    1    2    0    0  0.50193721161E+02 -0.10954605925E+02  0.17420744636E+03  0.22048475455E+03  0.12500351830E+03 0.  0.
         23    2    1    2    0    0 -0.50193721161E+02  0.10954605925E+02  0.13072698617E+03  0.17016433967E+03  0.96056985940E+02 0.  0.
        -11    1    4    4    0    0 -0.39607325642E+02 -0.64495436488E+01  0.14152794251E+03  0.14710708809E+03  0.51100000000E-03 0.  1.
         11    1    4    4    0    0 -0.10586395520E+02  0.17404149574E+02 -0.10800956331E+02  0.23057251580E+02  0.51100000000E-03 0. -1.
    9000005    1    3    3    0    0 -0.33240445826E+02 -0.34994107747E+02  0.64819518616E+02  0.80821314078E+02  0.10000000000E+01 0.  0.
    9000005    1    3    3    0    0  0.83434166987E+02  0.24039501822E+02  0.10938792774E+03  0.13966344047E+03  0.10000000000E+01 0.  0.
<mgrwt>
<rscale>  0 0.12805592E+03</rscale>
<asrwt>0</asrwt>
<pdfrwt beam="2">  1        1 0.65934352E-02 0.13514915E+03</pdfrwt>
<pdfrwt beam="1">  1       -1 0.53506428E-01 0.13514915E+03</pdfrwt>
<totfact> 0.39330690E+03</totfact>
</mgrwt>
</event>
<event>
 8    2  0.1409546E-003  0.1272568E+03  0.7818608E-02  0.1246046E+00
          1   -1    0    0  501    0  0.00000000000E+00  0.00000000000E+00  0.35309509691E+04  0.35309509691E+04  0.50400000000E-02 0. -1.
         -1   -1    0    0    0  501 -0.00000000000E+00 -0.00000000000E+00 -0.35024771177E+01  0.35024807439E+01  0.50400000000E-02 0.  1.
         25    2    1    2    0    0 -0.15311615045E+02 -0.18312880148E+02  0.21180945319E+04  0.21219139330E+04  0.12499794320E+03 0.  0.
         23    2    1    2    0    0  0.15311615045E+02  0.18312880148E+02  0.14093539601E+04  0.14125395169E+04  0.91757804894E+02 0.  0.
        -11    1    4    4    0    0 -0.30065839680E+02 -0.12213518073E+02  0.82329159470E+03  0.82393092832E+03  0.51100000000E-03 0. -1.
         11    1    4    4    0    0  0.45377454724E+02  0.30526398221E+02  0.58606236544E+03  0.58860858860E+03  0.51100000000E-03 0.  1.
    9000005    1    3    3    0    0  0.19835766591E+02  0.40010619013E+02  0.13694199103E+04  0.13701482395E+04  0.10000000000E+01 0.  0.
    9000005    1    3    3    0    0 -0.35147381635E+02 -0.58323499161E+02  0.74867462156E+03  0.75176569352E+03  0.10000000000E+01 0.  0.
<mgrwt>
<rscale>  0 0.11822967E+03</rscale>
<asrwt>0</asrwt>
<pdfrwt beam="1">  1        1 0.54321795E+00 0.12725680E+03</pdfrwt>
<pdfrwt beam="2">  1       -1 0.53884815E-03 0.12725680E+03</pdfrwt>
<totfact> 0.13901756E+03</totfact>
</mgrwt>
</event>
<event>
 8    2  0.1409546E-003  0.1321318E+03  0.7818608E-02  0.1236629E+00
          1   -1    0    0  501    0  0.00000000000E+00  0.00000000000E+00  0.28164966042E+03  0.28164966046E+03  0.50400000000E-02 0. -1.
         -1   -1    0    0    0  501 -0.00000000000E+00 -0.00000000000E+00 -0.49793460776E+02  0.49793461031E+02  0.50400000000E-02 0.  1.
         25    2    1    2    0    0 -0.22441317744E+02 -0.36469057425E+02  0.10790074043E+03  0.17059129829E+03  0.12500086549E+03 0.  0.
         23    2    1    2    0    0  0.22441317744E+02  0.36469057425E+02  0.12395545921E+03  0.16085182321E+03  0.93138328676E+02 0.  0.
        -11    1    4    4    0    0  0.28175374378E+02 -0.19138343451E+02  0.12718180118E+02  0.36357667928E+02  0.51100000000E-03 0.  1.
         11    1    4    4    0    0 -0.57340566346E+01  0.55607400876E+02  0.11123727909E+03  0.12449415528E+03  0.51100000000E-03 0. -1.
    9000005    1    3    3    0    0  0.47686222843E+02 -0.19643910930E+02  0.75701505511E+02  0.91605551264E+02  0.10000000000E+01 0.  0.
    9000005    1    3    3    0    0 -0.70127540587E+02 -0.16825146495E+02  0.32199234916E+02  0.78985747022E+02  0.10000000000E+01 0.  0.
<mgrwt>
<rscale>  0 0.12400735E+03</rscale>
<asrwt>0</asrwt>
<pdfrwt beam="1">  1        1 0.43330717E-01 0.13213183E+03</pdfrwt>
<pdfrwt beam="2">  1       -1 0.76605325E-02 0.13213183E+03</pdfrwt>
<totfact> 0.82731138E+03</totfact>
</mgrwt>
</event>
<event>
 8    2  0.1409546E-003  0.1364813E+03  0.7818608E-02  0.1230209E+00
         -1   -1    0    0    0  501 -0.00000000000E+00  0.00000000000E+00  0.11518663639E+02  0.11518664742E+02  0.50400000000E-02 0.  1.
          1   -1    0    0  501    0  0.00000000000E+00 -0.00000000000E+00 -0.14352454175E+04  0.14352454175E+04  0.50400000000E-02 0. -1.
         25    2    1    2    0    0  0.54255573431E+02  0.77195055985E+01 -0.10293410909E+04  0.10383497678E+04  0.12499560289E+03 0.  0.
         23    2    1    2    0    0 -0.54255573431E+02 -0.77195055985E+01 -0.39438566289E+03  0.40841431443E+03  0.90878727591E+02 0.  0.
        -11    1    4    4    0    0 -0.44422921062E+02 -0.45420294329E+02 -0.18978116635E+03  0.20013318105E+03  0.51100000000E-03 0.  1.
         11    1    4    4    0    0 -0.98326523695E+01  0.37700788731E+02 -0.20460449653E+03  0.20828113339E+03  0.51100000000E-03 0. -1.
    9000005    1    3    3    0    0  0.11940147563E+02 -0.48559440622E+02 -0.68827070973E+03  0.69008561517E+03  0.10000000000E+01 0.  0.
    9000005    1    3    3    0    0  0.42315425868E+02  0.56278946221E+02 -0.34107038122E+03  0.34826415262E+03  0.10000000000E+01 0.  0.
<mgrwt>
<rscale>  0 0.12816159E+03</rscale>
<asrwt>0</asrwt>
<pdfrwt beam="2">  1        1 0.22080685E+00 0.13648135E+03</pdfrwt>
<pdfrwt beam="1">  1       -1 0.17721033E-02 0.13648135E+03</pdfrwt>
<totfact> 0.63339009E+03</totfact>
</mgrwt>
</event>
<event>
 8    2  0.1409546E-003  0.1603506E+03  0.7818608E-02  0.1196023E+00
          1   -1    0    0  501    0  0.00000000000E+00  0.00000000000E+00  0.11048389744E+03  0.11048389756E+03  0.50400000000E-02 0. -1.
         -1   -1    0    0    0  501 -0.00000000000E+00 -0.00000000000E+00 -0.20459353861E+03  0.20459353867E+03  0.50400000000E-02 0.  1.
         25    2    1    2    0    0  0.38230067144E+02 -0.92871222584E+02 -0.79586525141E+02  0.17901487685E+03  0.12500283649E+03 0.  0.
         23    2    1    2    0    0 -0.38230067144E+02  0.92871222584E+02 -0.14523116028E+02  0.13606255938E+03  0.90639379678E+02 0.  0.
        -11    1    4    4    0    0 -0.43076435281E+02  0.10779530228E+03 -0.21895005799E+01  0.11610426514E+03  0.51100000000E-03 0. -1.
         11    1    4    4    0    0  0.48463681363E+01 -0.14924079696E+02 -0.12333615448E+02  0.19958294245E+02  0.51100000000E-03 0.  1.
    9000005    1    3    3    0    0 -0.33748953177E+02 -0.59688835648E+02 -0.27669768525E+01  0.68632391059E+02  0.10000000000E+01 0.  0.
    9000005    1    3    3    0    0  0.71979020322E+02 -0.33182386936E+02 -0.76819548288E+02  0.11038248579E+03  0.10000000000E+01 0.  0.
<mgrwt>
<rscale>  0 0.15367936E+03</rscale>
<asrwt>0</asrwt>
<pdfrwt beam="1">  1        1 0.16997523E-01 0.16035059E+03</pdfrwt>
<pdfrwt beam="2">  1       -1 0.31475929E-01 0.16035059E+03</pdfrwt>
<totfact> 0.28946792E+03</totfact>
</mgrwt>
</event>
<event>
 8    2  0.1409546E-003  0.1819928E+03  0.7818608E-02  0.1171528E+00
          1   -1    0    0  501    0  0.00000000000E+00  0.00000000000E+00  0.17995635395E+03  0.17995635402E+03  0.50400000000E-02 0. -1.
         -1   -1    0    0    0  501 -0.00000000000E+00 -0.00000000000E+00 -0.16383082432E+03  0.16383082440E+03  0.50400000000E-02 0.  1.
         25    2    1    2    0    0  0.13216035051E+03  0.54631363758E+01 -0.74227974799E+01  0.18214410897E+03  0.12500069761E+03 0.  0.
         23    2    1    2    0    0 -0.13216035051E+03 -0.54631363758E+01  0.23548327107E+02  0.16164306945E+03  0.89876326616E+02 0.  0.
        -11    1    4    4    0    0 -0.43657660301E+02  0.11776053780E+02  0.50256451122E+02  0.67604568080E+02  0.51100000000E-03 0. -1.
         11    1    4    4    0    0 -0.88502690213E+02 -0.17239190155E+02 -0.26708124015E+02  0.94038501374E+02  0.51100000000E-03 0.  1.
    9000005    1    3    3    0    0  0.28004963354E+02  0.18947355195E+02 -0.56782082575E+02  0.66094516738E+02  0.10000000000E+01 0.  0.
    9000005    1    3    3    0    0  0.10415538716E+03 -0.13484218819E+02  0.49359285095E+02  0.11604959223E+03  0.10000000000E+01 0.  0.
<mgrwt>
<rscale>  0 0.17620385E+03</rscale>
<asrwt>0</asrwt>
<pdfrwt beam="1">  1        1 0.27685593E-01 0.18199280E+03</pdfrwt>
<pdfrwt beam="2">  1       -1 0.25204742E-01 0.18199280E+03</pdfrwt>
<totfact> 0.22680246E+03</totfact>
</mgrwt>
</event>
<event>
 8    2  0.1409546E-003  0.1709514E+03  0.7818608E-02  0.1182560E+00
          1   -1    0    0  501    0  0.00000000000E+00  0.00000000000E+00  0.21765739541E+02  0.21765740124E+02  0.50400000000E-02 0. -1.
         -1   -1    0    0    0  501 -0.00000000000E+00 -0.00000000000E+00 -0.11964995100E+04  0.11964995100E+04  0.50400000000E-02 0.  1.
         25    2    1    2    0    0 -0.95879191035E+02  0.66382421338E+02 -0.68162921034E+03  0.70273948080E+03  0.12499980938E+03 0.  0.
         23    2    1    2    0    0  0.95879191035E+02 -0.66382421338E+02 -0.49310456013E+03  0.51552576934E+03  0.94948757259E+02 0.  0.
        -11    1    4    4    0    0  0.86222051063E+01 -0.46660271630E+01 -0.24726180585E+03  0.24745608674E+03  0.51100000000E-03 0.  1.
         11    1    4    4    0    0  0.87256985929E+02 -0.61716394175E+02 -0.24584275427E+03  0.26806968261E+03  0.51100000000E-03 0. -1.
    9000005    1    3    3    0    0 -0.52362171801E+02  0.57728705932E+02 -0.14802222296E+03  0.16729010435E+03  0.10000000000E+01 0.  0.
    9000005    1    3    3    0    0 -0.43517019235E+02  0.86537154062E+01 -0.53360698739E+03  0.53544937645E+03  0.10000000000E+01 0.  0.
<mgrwt>
<rscale>  0 0.16555926E+03</rscale>
<asrwt>0</asrwt>
<pdfrwt beam="1">  1        1 0.33485763E-02 0.17095145E+03</pdfrwt>
<pdfrwt beam="2">  1       -1 0.18407680E+00 0.17095145E+03</pdfrwt>
<totfact> 0.62162946E+02</totfact>
</mgrwt>
</event>
<event>
 8    2  0.1409546E-003  0.1280751E+03  0.7818608E-02  0.1243414E+00
         -1   -1    0    0    0  501 -0.00000000000E+00  0.00000000000E+00  0.31848369174E+02  0.31848369573E+02  0.50400000000E-02 0.  1.
          1   -1    0    0  501    0  0.00000000000E+00 -0.00000000000E+00 -0.47515675085E+03  0.47515675087E+03  0.50400000000E-02 0. -1.
         25    2    1    2    0    0 -0.20135616745E+02  0.19396546857E+02 -0.34558974241E+03  0.36855869485E+03  0.12498628885E+03 0.  0.
         23    2    1    2    0    0  0.20135616745E+02 -0.19396546857E+02 -0.97718639264E+02  0.13844642559E+03  0.94004314838E+02 0.  0.
        -11    1    4    4    0    0  0.13432821246E+02  0.12503783422E+02 -0.10369481524E+03  0.10530622012E+03  0.51100000000E-03 0. -1.
         11    1    4    4    0    0  0.67027954990E+01 -0.31900330279E+02  0.59761759802E+01  0.33140205477E+02  0.51100000000E-03 0.  1.
    9000005    1    3    3    0    0 -0.21410664214E+01  0.72202210846E+02 -0.19941652135E+03  0.21209830835E+03  0.10000000000E+01 0.  0.
    9000005    1    3    3    0    0 -0.17994550324E+02 -0.52805663989E+02 -0.14617322106E+03  0.15646038650E+03  0.10000000000E+01 0.  0.
<mgrwt>
<rscale>  0 0.11980831E+03</rscale>
<asrwt>0</asrwt>
<pdfrwt beam="2">  1        1 0.73101033E-01 0.12807514E+03</pdfrwt>
<pdfrwt beam="1">  1       -1 0.48997495E-02 0.12807514E+03</pdfrwt>
<totfact> 0.83393185E+03</totfact>
</mgrwt>
</event>
<event>
 8    2  0.1409546E-003  0.1431726E+03  0.7818608E-02  0.1219423E+00
          1   -1    0    0  501    0  0.00000000000E+00  0.00000000000E+00  0.80070475861E+03  0.80070475863E+03  0.50400000000E-02 0. -1.
         -1   -1    0    0    0  501 -0.00000000000E+00 -0.00000000000E+00 -0.22329323733E+02  0.22329324302E+02  0.50400000000E-02 0.  1.
         25    2    1    2    0    0  0.68977223889E+02  0.10782442732E+02  0.32243170997E+03  0.35278973320E+03  0.12499707905E+03 0.  0.
         23    2    1    2    0    0 -0.68977223889E+02 -0.10782442732E+02  0.45594372491E+03  0.47024434973E+03  0.91492894162E+02 0.  0.
        -11    1    4    4    0    0 -0.22337354015E+02 -0.17604513710E+02  0.37861667302E+03  0.37968336989E+03  0.51100000000E-03 0. -1.
         11    1    4    4    0    0 -0.46639869874E+02  0.68220709782E+01  0.77327051895E+02  0.90560979839E+02  0.51100000000E-03 0.  1.
    9000005    1    3    3    0    0  0.96024979590E+02  0.24450424438E+02  0.29738742396E+03  0.31346275678E+03  0.10000000000E+01 0.  0.
    9000005    1    3    3    0    0 -0.27047755701E+02 -0.13667981706E+02  0.25044286012E+02  0.39326976418E+02  0.10000000000E+01 0.  0.
<mgrwt>
<rscale>  0 0.13556628E+03</rscale>
<asrwt>0</asrwt>
<pdfrwt beam="1">  1        1 0.12318534E+00 0.14317258E+03</pdfrwt>
<pdfrwt beam="2">  1       -1 0.34352808E-02 0.14317258E+03</pdfrwt>
<totfact> 0.68808292E+03</totfact>
</mgrwt>
</event>
<event>
 8    2  0.1409546E-003  0.1579837E+03  0.7818608E-02  0.1198869E+00
         -1   -1    0    0    0  501 -0.00000000000E+00  0.00000000000E+00  0.11412503331E+03  0.11412503342E+03  0.50400000000E-02 0.  1.
          1   -1    0    0  501    0  0.00000000000E+00 -0.00000000000E+00 -0.18542978260E+03  0.18542978266E+03  0.50400000000E-02 0. -1.
         25    2    1    2    0    0 -0.20696914252E+02  0.94375493924E+02 -0.40330194671E+02  0.16305018524E+03  0.12499496866E+03 0.  0.
         23    2    1    2    0    0  0.20696914252E+02 -0.94375493924E+02 -0.30974554616E+02  0.13650463085E+03  0.91318098406E+02 0.  0.
        -11    1    4    4    0    0  0.39506344377E+02 -0.11447226641E+02 -0.30941359529E+02  0.51469971571E+02  0.51100000000E-03 0. -1.
         11    1    4    4    0    0 -0.18809430124E+02 -0.82928267283E+02 -0.33195086824E-01  0.85034659277E+02  0.51100000000E-03 0.  1.
    9000005    1    3    3    0    0 -0.28972706784E+02  0.58127335142E+02  0.38766902857E+02  0.75644415433E+02  0.10000000000E+01 0.  0.
    9000005    1    3    3    0    0  0.82757925320E+01  0.36248158782E+02 -0.79097097529E+02  0.87405769802E+02  0.10000000000E+01 0.  0.
<mgrwt>
<rscale>  0 0.15131301E+03</rscale>
<asrwt>0</asrwt>
<pdfrwt beam="2">  1        1 0.28527659E-01 0.15798366E+03</pdfrwt>
<pdfrwt beam="1">  1       -1 0.17557697E-01 0.15798366E+03</pdfrwt>
<totfact> 0.39042092E+03</totfact>
</mgrwt>
</event>
<event>
 8    2  0.1409546E-003  0.1320816E+03  0.7818608E-02  0.1235876E+00
         -1   -1    0    0    0  501 -0.00000000000E+00  0.00000000000E+00  0.51745110909E+02  0.51745111155E+02  0.50400000000E-02 0.  1.
          1   -1    0    0  501    0  0.00000000000E+00 -0.00000000000E+00 -0.30956716706E+03  0.30956716710E+03  0.50400000000E-02 0. -1.
         25    2    1    2    0    0 -0.28061437537E+02  0.32120015975E+02 -0.77778684063E+02  0.15328106375E+03  0.12500568430E+03 0.  0.
         23    2    1    2    0    0  0.28061437537E+02 -0.32120015975E+02 -0.18004337209E+03  0.20803121451E+03  0.95090644514E+02 0.  0.
        -11    1    4    4    0    0  0.21620917651E+01 -0.10353619622E+02 -0.17319015905E+03  0.17351283316E+03  0.51100000000E-03 0. -1.
         11    1    4    4    0    0  0.25899345772E+02 -0.21766396353E+02 -0.68532130403E+01  0.34518381348E+02  0.51100000000E-03 0.  1.
    9000005    1    3    3    0    0  0.38678206792E+02 -0.17390135851E+02 -0.48165532296E+01  0.42692150222E+02  0.10000000000E+01 0.  0.
    9000005    1    3    3    0    0 -0.66739644329E+02  0.49510151826E+02 -0.72962130833E+02  0.11058891353E+03  0.10000000000E+01 0.  0.
<mgrwt>
<rscale>  0 0.12448512E+03</rscale>
<asrwt>0</asrwt>
<pdfrwt beam="2">  1        1 0.47625717E-01 0.13208164E+03</pdfrwt>
<pdfrwt beam="1">  1       -1 0.79607865E-02 0.13208164E+03</pdfrwt>
<totfact> 0.69465997E+03</totfact>
</mgrwt>
</event>
<event>
 8    2  0.1409546E-003  0.1326106E+03  0.7818608E-02  0.1237016E+00
         -1   -1    0    0    0  501 -0.00000000000E+00  0.00000000000E+00  0.11903604868E+02  0.11903605935E+02  0.50400000000E-02 0.  1.
          1   -1    0    0  501    0  0.00000000000E+00 -0.00000000000E+00 -0.21415688890E+04  0.21415688890E+04  0.50400000000E-02 0. -1.
         25    2    1    2    0    0 -0.34872007665E+02 -0.27293123753E+02 -0.18745771701E+04  0.18792618614E+04  0.12499842197E+03 0.  0.
         23    2    1    2    0    0  0.34872007665E+02  0.27293123753E+02 -0.25508811394E+03  0.27421063346E+03  0.90335785298E+02 0.  0.
        -11    1    4    4    0    0  0.64649151706E+02  0.23922521594E+02 -0.15293224576E+03  0.16775002727E+03  0.51100000000E-03 0.  1.
         11    1    4    4    0    0 -0.29777144041E+02  0.33706021594E+01 -0.10215586817E+03  0.10646060618E+03  0.51100000000E-03 0. -1.
    9000005    1    3    3    0    0 -0.84142590703E+01  0.55278409721E+01 -0.10058529912E+02  0.14266422309E+02  0.10000000000E+01 0.  0.
    9000005    1    3    3    0    0 -0.26457748595E+02 -0.32820964725E+02 -0.18645186402E+04  0.18649954391E+04  0.10000000000E+01 0.  0.
<mgrwt>
<rscale>  0 0.12376262E+03</rscale>
<asrwt>0</asrwt>
<pdfrwt beam="2">  1        1 0.32947183E+00 0.13261062E+03</pdfrwt>
<pdfrwt beam="1">  1       -1 0.18313256E-02 0.13261062E+03</pdfrwt>
<totfact> 0.21351973E+03</totfact>
</mgrwt>
</event>
<event>
 8    2  0.1409546E-003  0.1314571E+03  0.7818608E-02  0.1238917E+00
          1   -1    0    0  501    0  0.00000000000E+00  0.00000000000E+00  0.82489725279E+03  0.82489725280E+03  0.50400000000E-02 0. -1.
         -1   -1    0    0    0  501 -0.00000000000E+00 -0.00000000000E+00 -0.16201378729E+02  0.16201379513E+02  0.50400000000E-02 0.  1.
         25    2    1    2    0    0 -0.22903204335E+01  0.40645462276E+02  0.48485678679E+03  0.50236149367E+03  0.12499466969E+03 0.  0.
         23    2    1    2    0    0  0.22903204335E+01 -0.40645462276E+02  0.32383908727E+03  0.33873713865E+03  0.90629992205E+02 0.  0.
        -11    1    4    4    0    0  0.21882440162E+02 -0.30833159186E+00  0.14701952890E+02  0.26364439589E+02  0.51100000000E-03 0.  1.
         11    1    4    4    0    0 -0.19592119728E+02 -0.40337130685E+02  0.30913713438E+03  0.31237269906E+03  0.51100000000E-03 0. -1.
    9000005    1    3    3    0    0  0.16607978767E+02 -0.35856782056E+02  0.72832129809E+02  0.82867683150E+02  0.10000000000E+01 0.  0.
    9000005    1    3    3    0    0 -0.18898299200E+02  0.76502244332E+02  0.41202465698E+03  0.41949381052E+03  0.10000000000E+01 0.  0.
<mgrwt>
<rscale>  0 0.12256986E+03</rscale>
<asrwt>0</asrwt>
<pdfrwt beam="1">  1        1 0.12690729E+00 0.13145709E+03</pdfrwt>
<pdfrwt beam="2">  1       -1 0.24925194E-02 0.13145709E+03</pdfrwt>
<totfact> 0.10440287E+04</totfact>
</mgrwt>
</event>
<event>
 8    2  0.1409546E-003  0.1254532E+03  0.7818608E-02  0.1249531E+00
          1   -1    0    0  501    0  0.00000000000E+00  0.00000000000E+00  0.97619859484E+03  0.97619859485E+03  0.50400000000E-02 0. -1.
         -1   -1    0    0    0  501 -0.00000000000E+00 -0.00000000000E+00 -0.12923067625E+02  0.12923068608E+02  0.50400000000E-02 0.  1.
         25    2    1    2    0    0 -0.51434444994E+01  0.88203092997E+01  0.43024952715E+03  0.44816644442E+03  0.12503700815E+03 0.  0.
         23    2    1    2    0    0  0.51434444994E+01 -0.88203092997E+01  0.53302600006E+03  0.54095521904E+03  0.91714662916E+02 0.  0.
        -11    1    4    4    0    0 -0.18208571410E+02 -0.26684732877E+02  0.71106773696E+02  0.78101218347E+02  0.51100000000E-03 0.  1.
         11    1    4    4    0    0  0.23352015909E+02  0.17864423578E+02  0.46191922636E+03  0.46285400069E+03  0.51100000000E-03 0. -1.
    9000005    1    3    3    0    0 -0.38267337726E+01 -0.28482196910E+02  0.39738555841E+03  0.39842459947E+03  0.10000000000E+01 0.  0.
    9000005    1    3    3    0    0 -0.13167107269E+01  0.37302506210E+02  0.32863968744E+02  0.49741844942E+02  0.10000000000E+01 0.  0.
<mgrwt>
<rscale>  0 0.11618223E+03</rscale>
<asrwt>0</asrwt>
<pdfrwt beam="1">  1        1 0.15018437E+00 0.12545320E+03</pdfrwt>
<pdfrwt beam="2">  1       -1 0.19881647E-02 0.12545320E+03</pdfrwt>
<totfact> 0.11041331E+04</totfact>
</mgrwt>
</event>
<event>
 8    2  0.1409546E-003  0.2981376E+03  0.7818608E-02  0.1087745E+00
          1   -1    0    0  501    0  0.00000000000E+00  0.00000000000E+00  0.30100532092E+03  0.30100532096E+03  0.50400000000E-02 0. -1.
         -1   -1    0    0    0  501 -0.00000000000E+00 -0.00000000000E+00 -0.43552135685E+03  0.43552135688E+03  0.50400000000E-02 0.  1.
         25    2    1    2    0    0 -0.27046376314E+03  0.10525539388E+02 -0.28582009101E+03  0.41301229611E+03  0.12499839264E+03 0.  0.
         23    2    1    2    0    0  0.27046376314E+03 -0.10525539388E+02  0.15130405508E+03  0.32351438173E+03  0.92234505205E+02 0.  0.
        -11    1    4    4    0    0  0.10506010820E+03 -0.29443653504E+02  0.10329614285E+03  0.15024862127E+03  0.51100000000E-03 0. -1.
         11    1    4    4    0    0  0.16540365494E+03  0.18918114116E+02  0.48007912232E+02  0.17326576045E+03  0.51100000000E-03 0.  1.
    9000005    1    3    3    0    0 -0.22154652262E+03  0.58779666190E+02 -0.22623401897E+03  0.32205704802E+03  0.10000000000E+01 0.  0.
    9000005    1    3    3    0    0 -0.48917240521E+02 -0.48254126802E+02 -0.59586072040E+02  0.90955248088E+02  0.10000000000E+01 0.  0.
<mgrwt>
<rscale>  0 0.29504341E+03</rscale>
<asrwt>0</asrwt>
<pdfrwt beam="1">  1        1 0.46308511E-01 0.29813761E+03</pdfrwt>
<pdfrwt beam="2">  1       -1 0.67003286E-01 0.29813761E+03</pdfrwt>
<totfact> 0.20528717E+02</totfact>
</mgrwt>
</event>
<event>
 8    2  0.1409546E-003  0.1594907E+03  0.7818608E-02  0.1197044E+00
         -1   -1    0    0    0  501 -0.00000000000E+00  0.00000000000E+00  0.76409923574E+02  0.76409923740E+02  0.50400000000E-02 0.  1.
          1   -1    0    0  501    0  0.00000000000E+00 -0.00000000000E+00 -0.35641254381E+03  0.35641254385E+03  0.50400000000E-02 0. -1.
         25    2    1    2    0    0  0.47594511309E+02 -0.86873846084E+02 -0.24759573209E+03  0.29451814849E+03  0.12499996241E+03 0.  0.
         23    2    1    2    0    0 -0.47594511309E+02  0.86873846084E+02 -0.32406888152E+02  0.13830431910E+03  0.90915211273E+02 0.  0.
        -11    1    4    4    0    0 -0.41278915102E+02  0.10540327327E+03 -0.19524061847E+02  0.11486943823E+03  0.51100000000E-03 0.  1.
         11    1    4    4    0    0 -0.63155962066E+01 -0.18529427187E+02 -0.12882826304E+02  0.23434880865E+02  0.51100000000E-03 0. -1.
    9000005    1    3    3    0    0  0.63495309875E+02 -0.10505553343E+03 -0.14926733104E+03  0.19326162474E+03  0.10000000000E+01 0.  0.
    9000005    1    3    3    0    0 -0.15900798566E+02  0.18181687351E+02 -0.98328401049E+02  0.10125652375E+03  0.10000000000E+01 0.  0.
<mgrwt>
<rscale>  0 0.15282522E+03</rscale>
<asrwt>0</asrwt>
<pdfrwt beam="2">  1        1 0.54832698E-01 0.15949073E+03</pdfrwt>
<pdfrwt beam="1">  1       -1 0.11755373E-01 0.15949073E+03</pdfrwt>
<totfact> 0.32472958E+03</totfact>
</mgrwt>
</event>
<event>
 8    2  0.1409546E-003  0.1332176E+03  0.7818608E-02  0.1235034E+00
          1   -1    0    0  501    0  0.00000000000E+00  0.00000000000E+00  0.29905870426E+02  0.29905870851E+02  0.50400000000E-02 0. -1.
         -1   -1    0    0    0  501 -0.00000000000E+00 -0.00000000000E+00 -0.50154259550E+03  0.50154259552E+03  0.50400000000E-02 0.  1.
         25    2    1    2    0    0 -0.39932863137E+02 -0.22947013140E+02 -0.19518403389E+03  0.23631276804E+03  0.12500287310E+03 0.  0.
         23    2    1    2    0    0  0.39932863137E+02  0.22947013140E+02 -0.27645269118E+03  0.29513569833E+03  0.92508329345E+02 0.  0.
        -11    1    4    4    0    0  0.19015894340E+02  0.43185793837E+02 -0.58082764309E+02  0.74834647971E+02  0.51100000000E-03 0. -1.
         11    1    4    4    0    0  0.20916968796E+02 -0.20238780698E+02 -0.21836992687E+03  0.22030105036E+03  0.51100000000E-03 0.  1.
    9000005    1    3    3    0    0  0.66299840000E+01 -0.65329037730E+01 -0.18581473722E+03  0.18605040200E+03  0.10000000000E+01 0.  0.
    9000005    1    3    3    0    0 -0.46562847137E+02 -0.16414109367E+02 -0.93692966780E+01  0.50262366041E+02  0.10000000000E+01 0.  0.
<mgrwt>
<rscale>  0 0.12502227E+03</rscale>
<asrwt>0</asrwt>
<pdfrwt beam="1">  1        1 0.46009035E-02 0.13321756E+03</pdfrwt>
<pdfrwt beam="2">  1       -1 0.77160393E-01 0.13321756E+03</pdfrwt>
<totfact> 0.31612541E+03</totfact>
</mgrwt>
</event>
<event>
 8    2  0.1409546E-003  0.1322750E+03  0.7818608E-02  0.1236643E+00
         -1   -1    0    0    0  501 -0.00000000000E+00  0.00000000000E+00  0.10396576342E+03  0.10396576354E+03  0.50400000000E-02 0.  1.
          1   -1    0    0  501    0  0.00000000000E+00 -0.00000000000E+00 -0.13966624993E+03  0.13966625002E+03  0.50400000000E-02 0. -1.
         25    2    1    2    0    0  0.37395292597E+02 -0.21760267607E+02  0.80279448236E+01  0.13251843889E+03  0.12499908637E+03 0.  0.
         23    2    1    2    0    0 -0.37395292597E+02  0.21760267607E+02 -0.43728431333E+02  0.11111357467E+03  0.92531797860E+02 0.  0.
        -11    1    4    4    0    0 -0.18723100985E+02  0.36321560579E+01  0.28526468105E+02  0.34314813870E+02  0.51100000000E-03 0.  1.
         11    1    4    4    0    0 -0.18672191612E+02  0.18128111549E+02 -0.72254899438E+02  0.76798760804E+02  0.51100000000E-03 0. -1.
    9000005    1    3    3    0    0 -0.59189701287E+01 -0.55121142860E+02  0.40734716934E+02  0.68801829636E+02  0.10000000000E+01 0.  0.
    9000005    1    3    3    0    0  0.43314262726E+02  0.33360875253E+02 -0.32706772110E+02  0.63716609255E+02  0.10000000000E+01 0.  0.
<mgrwt>
<rscale>  0 0.12399811E+03</rscale>
<asrwt>0</asrwt>
<pdfrwt beam="2">  1        1 0.21487115E-01 0.13227505E+03</pdfrwt>
<pdfrwt beam="1">  1       -1 0.15994733E-01 0.13227505E+03</pdfrwt>
<totfact> 0.63956941E+03</totfact>
</mgrwt>
</event>
<event>
 8    2  0.1409546E-003  0.2073055E+03  0.7818608E-02  0.1147945E+00
         -1   -1    0    0    0  501 -0.00000000000E+00  0.00000000000E+00  0.94511849872E+02  0.94511850007E+02  0.50400000000E-02 0.  1.
          1   -1    0    0  501    0  0.00000000000E+00 -0.00000000000E+00 -0.55197091599E+03  0.55197091601E+03  0.50400000000E-02 0. -1.
         25    2    1    2    0    0 -0.14175207910E+03  0.85195655294E+02 -0.74784572081E+02  0.22038221651E+03  0.12499454996E+03 0.  0.
         23    2    1    2    0    0  0.14175207910E+03 -0.85195655294E+02 -0.38267449403E+03  0.42610054951E+03  0.88147366928E+02 0.  0.
        -11    1    4    4    0    0  0.59187096983E+02 -0.85870846659E+02 -0.19727835290E+03  0.22314941918E+03  0.51100000000E-03 0.  1.
         11    1    4    4    0    0  0.82564982120E+02  0.67519136528E+00 -0.18539614113E+03  0.20295113033E+03  0.51100000000E-03 0. -1.
    9000005    1    3    3    0    0  0.86124672847E+01 -0.20713545224E+02 -0.14932713539E+02  0.26966858959E+02  0.10000000000E+01 0.  0.
    9000005    1    3    3    0    0 -0.15036454639E+03  0.10590920052E+03 -0.59851858542E+02  0.19341535755E+03  0.10000000000E+01 0.  0.
<mgrwt>
<rscale>  0 0.20214149E+03</rscale>
<asrwt>0</asrwt>
<pdfrwt beam="2">  1        1 0.84918600E-01 0.20730555E+03</pdfrwt>
<pdfrwt beam="1">  1       -1 0.14540285E-01 0.20730555E+03</pdfrwt>
<totfact> 0.13309853E+03</totfact>
</mgrwt>
</event>
<event>
 8    2  0.1409546E-003  0.2426761E+03  0.7818608E-02  0.1120688E+00
         -1   -1    0    0    0  501 -0.00000000000E+00  0.00000000000E+00  0.18849332846E+04  0.18849332846E+04  0.50400000000E-02 0.  1.
          1   -1    0    0  501    0  0.00000000000E+00 -0.00000000000E+00 -0.39036891310E+02  0.39036891635E+02  0.50400000000E-02 0. -1.
         25    2    1    2    0    0  0.16144181197E+03  0.13115319135E+03  0.14272838563E+04  0.14477675521E+04  0.12500824034E+03 0.  0.
         23    2    1    2    0    0 -0.16144181197E+03 -0.13115319135E+03  0.41861253695E+03  0.47620262412E+03  0.90927800332E+02 0.  0.
        -11    1    4    4    0    0 -0.12559198183E+03 -0.13282815695E+03  0.29111990892E+03  0.34375495131E+03  0.51100000000E-03 0. -1.
         11    1    4    4    0    0 -0.35849830144E+02  0.16749656034E+01  0.12749262803E+03  0.13244767281E+03  0.51100000000E-03 0.  1.
    9000005    1    3    3    0    0  0.11764718422E+03  0.11474762782E+03  0.70215212911E+03  0.72112862269E+03  0.10000000000E+01 0.  0.
    9000005    1    3    3    0    0  0.43794627749E+02  0.16405563532E+02  0.72513172718E+03  0.72663892938E+03  0.10000000000E+01 0.  0.
<mgrwt>
<rscale>  0 0.23866040E+03</rscale>
<asrwt>0</asrwt>
<pdfrwt beam="2">  1        1 0.60056751E-02 0.24267608E+03</pdfrwt>
<pdfrwt beam="1">  1       -1 0.28998976E+00 0.24267608E+03</pdfrwt>
<totfact> 0.57863318E+01</totfact>
</mgrwt>
</event>
<event>
 8    2  0.1409546E-003  0.1414459E+03  0.7818608E-02  0.1222244E+00
         -1   -1    0    0    0  501 -0.00000000000E+00  0.00000000000E+00  0.20413530956E+02  0.20413531578E+02  0.50400000000E-02 0.  1.
          1   -1    0    0  501    0  0.00000000000E+00 -0.00000000000E+00 -0.79031697970E+03  0.79031697971E+03  0.50400000000E-02 0. -1.
         25    2    1    2    0    0 -0.54293853811E+02 -0.37870453148E+02 -0.43948493019E+03  0.46168597791E+03  0.12499977822E+03 0.  0.
         23    2    1    2    0    0  0.54293853811E+02  0.37870453148E+02 -0.33041851856E+03  0.34904453338E+03  0.90959854306E+02 0.  0.
        -11    1    4    4    0    0  0.53232893256E+02  0.20316925172E+02 -0.32596016218E+03  0.33090262269E+03  0.51100000000E-03 0. -1.
         11    1    4    4    0    0  0.10609605549E+01  0.17553527976E+02 -0.44583563731E+01  0.18141910691E+02  0.51100000000E-03 0.  1.
    9000005    1    3    3    0    0 -0.31749889168E+01 -0.76158599917E+02 -0.27031968404E+03  0.28086285706E+03  0.10000000000E+01 0.  0.
    9000005    1    3    3    0    0 -0.51118864895E+02  0.38288146769E+02 -0.16916524614E+03  0.18082312085E+03  0.10000000000E+01 0.  0.
<mgrwt>
<rscale>  0 0.13357601E+03</rscale>
<asrwt>0</asrwt>
<pdfrwt beam="2">  1        1 0.12158720E+00 0.14144588E+03</pdfrwt>
<pdfrwt beam="1">  1       -1 0.31405439E-02 0.14144588E+03</pdfrwt>
<totfact> 0.79953872E+03</totfact>
</mgrwt>
</event>
<event>
 8    2  0.1409546E-003  0.1516716E+03  0.7818608E-02  0.1206452E+00
          1   -1    0    0  501    0  0.00000000000E+00  0.00000000000E+00  0.56387297338E+03  0.56387297341E+03  0.50400000000E-02 0. -1.
         -1   -1    0    0    0  501 -0.00000000000E+00 -0.00000000000E+00 -0.39917416309E+02  0.39917416628E+02  0.50400000000E-02 0.  1.
         25    2    1    2    0    0 -0.83470723785E+02 -0.20272841605E+02  0.17135457396E+03  0.22883762389E+03  0.12500367297E+03 0.  0.
         23    2    1    2    0    0  0.83470723785E+02  0.20272841605E+02  0.35260098312E+03  0.37495276614E+03  0.94253772905E+02 0.  0.
        -11    1    4    4    0    0  0.59158122596E-01 -0.16300333191E+02  0.73324186889E+01  0.17873688089E+02  0.51100000000E-03 0.  1.
         11    1    4    4    0    0  0.83411565662E+02  0.36573174796E+02  0.34526856443E+03  0.35707907805E+03  0.51100000000E-03 0. -1.
    9000005    1    3    3    0    0 -0.70117486198E+02  0.59320737295E+00  0.16541229522E+02  0.72051551266E+02  0.10000000000E+01 0.  0.
    9000005    1    3    3    0    0 -0.13353237587E+02 -0.20866048978E+02  0.15481334444E+03  0.15678607263E+03  0.10000000000E+01 0.  0.
<mgrwt>
<rscale>  0 0.14523635E+03</rscale>
<asrwt>0</asrwt>
<pdfrwt beam="1">  1        1 0.86749686E-01 0.15167158E+03</pdfrwt>
<pdfrwt beam="2">  1       -1 0.61411411E-02 0.15167158E+03</pdfrwt>
<totfact> 0.48067654E+03</totfact>
</mgrwt>
</event>
<event>
 8    2  0.1409546E-003  0.1417166E+03  0.7818608E-02  0.1220480E+00
          1   -1    0    0  501    0  0.00000000000E+00  0.00000000000E+00  0.66835864410E+02  0.66835864600E+02  0.50400000000E-02 0. -1.
         -1   -1    0    0    0  501 -0.00000000000E+00 -0.00000000000E+00 -0.25325612605E+03  0.25325612610E+03  0.50400000000E-02 0.  1.
         25    2    1    2    0    0  0.32866789959E+02 -0.58124370924E+02 -0.80624333187E+02  0.16304563228E+03  0.12499970690E+03 0.  0.
         23    2    1    2    0    0 -0.32866789959E+02  0.58124370924E+02 -0.10579592845E+03  0.15704635842E+03  0.94932143335E+02 0.  0.
        -11    1    4    4    0    0 -0.81840196650E+01  0.33297474295E+02 -0.11569163858E+03  0.12066588254E+03  0.51100000000E-03 0.  1.
         11    1    4    4    0    0 -0.24682770294E+02  0.24826896629E+02  0.98957101298E+01  0.36380475874E+02  0.51100000000E-03 0. -1.
    9000005    1    3    3    0    0  0.74593592345E+02 -0.61456300315E+01 -0.46970628598E+02  0.88369750132E+02  0.10000000000E+01 0.  0.
    9000005    1    3    3    0    0 -0.41726802386E+02 -0.51978740893E+02 -0.33653704589E+02  0.74675882149E+02  0.10000000000E+01 0.  0.
<mgrwt>
<rscale>  0 0.13481544E+03</rscale>
<asrwt>0</asrwt>
<pdfrwt beam="1">  1        1 0.10282441E-01 0.14171660E+03</pdfrwt>
<pdfrwt beam="2">  1       -1 0.38962481E-01 0.14171660E+03</pdfrwt>
<totfact> 0.38448424E+03</totfact>
</mgrwt>
</event>
<event>
 8    2  0.1409546E-003  0.1766701E+03  0.7818608E-02  0.1177195E+00
          1   -1    0    0  501    0  0.00000000000E+00  0.00000000000E+00  0.29987321394E+03  0.29987321398E+03  0.50400000000E-02 0. -1.
         -1   -1    0    0    0  501 -0.00000000000E+00 -0.00000000000E+00 -0.97320712541E+02  0.97320712672E+02  0.50400000000E-02 0.  1.
         25    2    1    2    0    0 -0.12235208922E+03  0.24848844817E+02  0.15835976815E+03  0.23725542974E+03  0.12499929579E+03 0.  0.
         23    2    1    2    0    0  0.12235208922E+03 -0.24848844817E+02  0.44192733252E+02  0.15993849692E+03  0.89665078477E+02 0.  0.
        -11    1    4    4    0    0  0.48948913665E+02 -0.27483876773E+02 -0.22737892121E+02  0.60567081569E+02  0.51100000000E-03 0. -1.
         11    1    4    4    0    0  0.73403175554E+02  0.26350319559E+01  0.66930625373E+02  0.99371415346E+02  0.51100000000E-03 0.  1.
    9000005    1    3    3    0    0 -0.85479184905E+02 -0.11780532399E+02  0.16364545461E+03  0.18500353188E+03  0.10000000000E+01 0.  0.
    9000005    1    3    3    0    0 -0.36872904314E+02  0.36629377216E+02 -0.52856864628E+01  0.52251897852E+02  0.10000000000E+01 0.  0.
<mgrwt>
<rscale>  0 0.17062753E+03</rscale>
<asrwt>0</asrwt>
<pdfrwt beam="1">  1        1 0.46134341E-01 0.17667010E+03</pdfrwt>
<pdfrwt beam="2">  1       -1 0.14972417E-01 0.17667010E+03</pdfrwt>
<totfact> 0.27735238E+03</totfact>
</mgrwt>
</event>
<event>
 8    2  0.1409546E-003  0.2037252E+03  0.7818608E-02  0.1151017E+00
          1   -1    0    0  501    0  0.00000000000E+00  0.00000000000E+00  0.10004390176E+04  0.10004390176E+04  0.50400000000E-02 0. -1.
         -1   -1    0    0    0  501 -0.00000000000E+00 -0.00000000000E+00 -0.37663933541E+02  0.37663933879E+02  0.50400000000E-02 0.  1.
         25    2    1    2    0    0  0.13834085066E+03  0.82098484874E+02  0.54189510176E+03  0.57892507908E+03  0.12500237477E+03 0.  0.
         23    2    1    2    0    0 -0.13834085066E+03 -0.82098484874E+02  0.42087998229E+03  0.45917787240E+03  0.88464720835E+02 0.  0.
        -11    1    4    4    0    0 -0.18489171520E+02 -0.58278623628E+02  0.12924430355E+03  0.14297670242E+03  0.51100000000E-03 0.  1.
         11    1    4    4    0    0 -0.11985167914E+03 -0.23819861246E+02  0.29163567873E+03  0.31620116997E+03  0.51100000000E-03 0. -1.
    9000005    1    3    3    0    0  0.13598948788E+03  0.18224918711E+02  0.32423025386E+03  0.35206753044E+03  0.10000000000E+01 0.  0.
    9000005    1    3    3    0    0  0.23513627749E+01  0.63873566163E+02  0.21766484790E+03  0.22685754863E+03  0.10000000000E+01 0.  0.
<mgrwt>
<rscale>  0 0.19849258E+03</rscale>
<asrwt>0</asrwt>
<pdfrwt beam="1">  1        1 0.15391367E+00 0.20372517E+03</pdfrwt>
<pdfrwt beam="2">  1       -1 0.57944523E-02 0.20372517E+03</pdfrwt>
<totfact> 0.22424314E+03</totfact>
</mgrwt>
</event>
<event>
 8    2  0.1409546E-003  0.1646094E+03  0.7818608E-02  0.1191742E+00
          1   -1    0    0  501    0  0.00000000000E+00  0.00000000000E+00  0.22158721265E+03  0.22158721271E+03  0.50400000000E-02 0. -1.
         -1   -1    0    0    0  501 -0.00000000000E+00 -0.00000000000E+00 -0.10444074399E+03  0.10444074411E+03  0.50400000000E-02 0.  1.
         25    2    1    2    0    0 -0.28895274769E+02  0.10313232214E+03  0.43975430971E+02  0.17038221316E+03  0.12500018903E+03 0.  0.
         23    2    1    2    0    0  0.28895274769E+02 -0.10313232214E+03  0.73171037690E+02  0.15564574366E+03  0.86025484528E+02 0.  0.
        -11    1    4    4    0    0 -0.16498738331E+02 -0.85619909006E+02  0.57831211777E+02  0.10462994906E+03  0.51100000000E-03 0. -1.
         11    1    4    4    0    0  0.45394013100E+02 -0.17512413135E+02  0.15339825913E+02  0.51015794597E+02  0.51100000000E-03 0.  1.
    9000005    1    3    3    0    0 -0.50767004696E+02 -0.63692916930E+01  0.24206322535E+01  0.51231983204E+02  0.10000000000E+01 0.  0.
    9000005    1    3    3    0    0  0.21871729927E+02  0.10950161383E+03  0.41554798717E+02  0.11915022996E+03  0.10000000000E+01 0.  0.
<mgrwt>
<rscale>  0 0.15733201E+03</rscale>
<asrwt>0</asrwt>
<pdfrwt beam="1">  1        1 0.34090340E-01 0.16460942E+03</pdfrwt>
<pdfrwt beam="2">  1       -1 0.16067807E-01 0.16460942E+03</pdfrwt>
<totfact> 0.36053158E+03</totfact>
</mgrwt>
</event>
<event>
 8    2  0.1409546E-003  0.1587267E+03  0.7818608E-02  0.1197600E+00
          1   -1    0    0  501    0  0.00000000000E+00  0.00000000000E+00  0.22707878787E+04  0.22707878787E+04  0.50400000000E-02 0. -1.
         -1   -1    0    0    0  501 -0.00000000000E+00 -0.00000000000E+00 -0.97930238760E+01  0.97930251729E+01  0.50400000000E-02 0.  1.
         25    2    1    2    0    0  0.86074271127E+02  0.46485666033E+02  0.10175905869E+04  0.10298955129E+04  0.12499787026E+03 0.  0.
         23    2    1    2    0    0 -0.86074271127E+02 -0.46485666033E+02  0.12434042679E+04  0.12506853910E+04  0.92682665648E+02 0.  0.
        -11    1    4    4    0    0 -0.57111153854E+02 -0.54052669795E+02  0.45731012494E+03  0.46402147082E+03  0.51100000000E-03 0.  1.
         11    1    4    4    0    0 -0.28963117273E+02  0.75670037626E+01  0.78609414294E+03  0.78666392016E+03  0.51100000000E-03 0. -1.
    9000005    1    3    3    0    0 -0.13606239907E+02  0.17719835812E+02  0.56994370106E+03  0.57038227946E+03  0.10000000000E+01 0.  0.
    9000005    1    3    3    0    0  0.99680511034E+02  0.28765830221E+02  0.44764688583E+03  0.45951323339E+03  0.10000000000E+01 0.  0.
<mgrwt>
<rscale>  0 0.15236187E+03</rscale>
<asrwt>0</asrwt>
<pdfrwt beam="1">  1        1 0.34935209E+00 0.15872670E+03</pdfrwt>
<pdfrwt beam="2">  1       -1 0.15066187E-02 0.15872670E+03</pdfrwt>
<totfact> 0.23362406E+03</totfact>
</mgrwt>
</event>
<event>
 8    2  0.1409546E-003  0.1503955E+03  0.7818608E-02  0.1211420E+00
          1   -1    0    0  501    0  0.00000000000E+00  0.00000000000E+00  0.17789454882E+03  0.17789454889E+03  0.50400000000E-02 0. -1.
         -1   -1    0    0    0  501 -0.00000000000E+00 -0.00000000000E+00 -0.11312054357E+03  0.11312054368E+03  0.50400000000E-02 0.  1.
         25    2    1    2    0    0 -0.41529027481E+02 -0.72590256640E+02  0.83349389323E+02  0.17194744577E+03  0.12499919169E+03 0.  0.
         23    2    1    2    0    0  0.41529027481E+02  0.72590256640E+02 -0.18575384073E+02  0.11906764680E+03  0.82692527711E+02 0.  0.
        -11    1    4    4    0    0 -0.62190237231E+01 -0.11586631146E+02  0.11767120769E+02  0.17646285979E+02  0.51100000000E-03 0. -1.
         11    1    4    4    0    0  0.47748051204E+02  0.84176887786E+02 -0.30342504842E+02  0.10142136082E+03  0.51100000000E-03 0.  1.
    9000005    1    3    3    0    0 -0.26714023345E+02 -0.10727332407E+03  0.74137527755E+02  0.13311114950E+03  0.10000000000E+01 0.  0.
    9000005    1    3    3    0    0 -0.14815004136E+02  0.34683067430E+02  0.92118615678E+01  0.38836296263E+02  0.10000000000E+01 0.  0.
<mgrwt>
<rscale>  0 0.14142851E+03</rscale>
<asrwt>0</asrwt>
<pdfrwt beam="1">  1        1 0.27368392E-01 0.15039549E+03</pdfrwt>
<pdfrwt beam="2">  1       -1 0.17403161E-01 0.15039549E+03</pdfrwt>
<totfact> 0.41596649E+03</totfact>
</mgrwt>
</event>
<event>
 8    2  0.1409546E-003  0.1845891E+03  0.7818608E-02  0.1169967E+00
         -1   -1    0    0    0  501 -0.00000000000E+00  0.00000000000E+00  0.30825815162E+02  0.30825815574E+02  0.50400000000E-02 0.  1.
          1   -1    0    0  501    0  0.00000000000E+00 -0.00000000000E+00 -0.15734677601E+04  0.15734677601E+04  0.50400000000E-02 0. -1.
         25    2    1    2    0    0  0.12882132157E+03 -0.43023884208E+02 -0.13079283476E+04  0.13208897417E+04  0.12500863808E+03 0.  0.
         23    2    1    2    0    0 -0.12882132157E+03  0.43023884208E+02 -0.23471359732E+03  0.28340383403E+03  0.82348484342E+02 0.  0.
        -11    1    4    4    0    0 -0.39914581656E+02 -0.23043841714E+02 -0.49816359951E+02  0.67866502700E+02  0.51100000000E-03 0.  1.
         11    1    4    4    0    0 -0.88906739913E+02  0.66067725922E+02 -0.18489723736E+03  0.21553733133E+03  0.51100000000E-03 0. -1.
    9000005    1    3    3    0    0  0.13140675625E+03 -0.66523855353E-01 -0.76037086614E+03  0.77164278918E+03  0.10000000000E+01 0.  0.
    9000005    1    3    3    0    0 -0.25854346770E+01 -0.42957360352E+02 -0.54755748150E+03  0.54924695250E+03  0.10000000000E+01 0.  0.
<mgrwt>
<rscale>  0 0.17778223E+03</rscale>
<asrwt>0</asrwt>
<pdfrwt beam="2">  1        1 0.24207190E+00 0.18458913E+03</pdfrwt>
<pdfrwt beam="1">  1       -1 0.47424344E-02 0.18458913E+03</pdfrwt>
<totfact> 0.12256465E+03</totfact>
</mgrwt>
</event>
<event>
 8    2  0.1409546E-003  0.1335441E+03  0.7818608E-02  0.1223341E+00
         -1   -1    0    0    0  501 -0.00000000000E+00  0.00000000000E+00  0.10779805769E+03  0.10779805780E+03  0.50400000000E-02 0.  1.
          1   -1    0    0  501    0  0.00000000000E+00 -0.00000000000E+00 -0.16222127516E+03  0.16222127524E+03  0.50400000000E-02 0. -1.
         25    2    1    2    0    0  0.32876578089E+02  0.19007600016E+02 -0.20564444097E+02  0.13224982780E+03  0.12499984939E+03 0.  0.
         23    2    1    2    0    0 -0.32876578089E+02 -0.19007600016E+02 -0.33858773381E+02  0.13776950524E+03  0.12803070645E+03 0.  0.
        -11    1    4    4    0    0 -0.65680735065E+02 -0.40889526005E+02  0.10883667790E+02  0.78130445541E+02  0.51100000000E-03 0.  1.
         11    1    4    4    0    0  0.32804156976E+02  0.21881925989E+02 -0.44742441171E+02  0.59639059702E+02  0.51100000000E-03 0. -1.
    9000005    1    3    3    0    0  0.24672151728E+02 -0.29981767453E+02 -0.58166550121E+02  0.69942612215E+02  0.10000000000E+01 0.  0.
    9000005    1    3    3    0    0  0.82044263609E+01  0.48989367470E+02  0.37602106024E+02  0.62307215589E+02  0.10000000000E+01 0.  0.
<mgrwt>
<rscale>  0 0.13281236E+03</rscale>
<asrwt>0</asrwt>
<pdfrwt beam="2">  1        1 0.24957119E-01 0.13354408E+03</pdfrwt>
<pdfrwt beam="1">  1       -1 0.16584317E-01 0.13354408E+03</pdfrwt>
<totfact> 0.50059338E+03</totfact>
</mgrwt>
</event>
<event>
 8    2  0.1409546E-003  0.1336409E+03  0.7818608E-02  0.1234613E+00
         -1   -1    0    0    0  501 -0.00000000000E+00  0.00000000000E+00  0.14833242468E+03  0.14833242477E+03  0.50400000000E-02 0.  1.
          1   -1    0    0  501    0  0.00000000000E+00 -0.00000000000E+00 -0.11576267643E+03  0.11576267654E+03  0.50400000000E-02 0. -1.
         25    2    1    2    0    0 -0.47087938036E+02 -0.42116932457E+01  0.74097956694E+02  0.15280833476E+03  0.12499947086E+03 0.  0.
         23    2    1    2    0    0  0.47087938036E+02  0.42116932457E+01 -0.41528208446E+02  0.11128676655E+03  0.91788561624E+02 0.  0.
        -11    1    4    4    0    0 -0.12467482518E+02  0.23910571823E+02  0.11337437944E+02  0.29252197603E+02  0.51100000000E-03 0.  1.
         11    1    4    4    0    0  0.59555420554E+02 -0.19698878577E+02 -0.52865646390E+02  0.82034568951E+02  0.51100000000E-03 0. -1.
    9000005    1    3    3    0    0 -0.29922617140E+01 -0.60719883747E+02  0.24068068785E+02  0.65392123742E+02  0.10000000000E+01 0.  0.
    9000005    1    3    3    0    0 -0.44095676322E+02  0.56508190501E+02  0.50029887909E+02  0.87416211015E+02  0.10000000000E+01 0.  0.
<mgrwt>
<rscale>  0 0.12529244E+03</rscale>
<asrwt>0</asrwt>
<pdfrwt beam="2">  1        1 0.17809643E-01 0.13364086E+03</pdfrwt>
<pdfrwt beam="1">  1       -1 0.22820373E-01 0.13364086E+03</pdfrwt>
<totfact> 0.46042081E+03</totfact>
</mgrwt>
</event>
<event>
 8    2  0.1409546E-003  0.1773901E+03  0.7818608E-02  0.1174796E+00
          1   -1    0    0  501    0  0.00000000000E+00  0.00000000000E+00  0.23785736423E+03  0.23785736429E+03  0.50400000000E-02 0. -1.
         -1   -1    0    0    0  501 -0.00000000000E+00 -0.00000000000E+00 -0.12461463381E+03  0.12461463391E+03  0.50400000000E-02 0.  1.
         25    2    1    2    0    0  0.39652426990E+02 -0.11945728132E+03  0.94687552401E+02  0.20107954978E+03  0.12499958294E+03 0.  0.
         23    2    1    2    0    0 -0.39652426990E+02  0.11945728132E+03  0.18555178025E+02  0.16139244842E+03  0.99301917143E+02 0.  0.
        -11    1    4    4    0    0 -0.59641002135E+02  0.28829127925E+02  0.17760293590E+02  0.68582765920E+02  0.51100000000E-03 0. -1.
         11    1    4    4    0    0  0.19988575145E+02  0.90628153391E+02  0.79488443482E+00  0.92809682496E+02  0.51100000000E-03 0.  1.
    9000005    1    3    3    0    0 -0.19352778607E+02  0.85524025799E+01  0.48208121610E+02  0.52656401499E+02  0.10000000000E+01 0.  0.
    9000005    1    3    3    0    0  0.59005205597E+02 -0.12800968390E+03  0.46479430792E+02  0.14842314828E+03  0.10000000000E+01 0.  0.
<mgrwt>
<rscale>  0 0.17295994E+03</rscale>
<asrwt>0</asrwt>
<pdfrwt beam="1">  1        1 0.36593441E-01 0.17739011E+03</pdfrwt>
<pdfrwt beam="2">  1       -1 0.19171482E-01 0.17739011E+03</pdfrwt>
<totfact> 0.24974768E+03</totfact>
</mgrwt>
</event>
<event>
 8    2  0.1409546E-003  0.1270981E+03  0.7818608E-02  0.1248010E+00
         -1   -1    0    0    0  501 -0.00000000000E+00  0.00000000000E+00  0.10575159020E+02  0.10575160221E+02  0.50400000000E-02 0.  1.
          1   -1    0    0  501    0  0.00000000000E+00 -0.00000000000E+00 -0.11561549657E+04  0.11561549657E+04  0.50400000000E-02 0. -1.
         25    2    1    2    0    0 -0.22853610472E+02  0.27360995706E+01 -0.75132389303E+03  0.76199837274E+03  0.12499661623E+03 0.  0.
         23    2    1    2    0    0  0.22853610472E+02 -0.27360995706E+01 -0.39425591361E+03  0.40473175315E+03  0.88545428117E+02 0.  0.
        -11    1    4    4    0    0  0.12840940478E+02 -0.17184369514E+02 -0.38355044830E+03  0.38414989093E+03  0.51100000000E-03 0. -1.
         11    1    4    4    0    0  0.10012669994E+02  0.14448269944E+02 -0.10705465305E+02  0.20581862220E+02  0.51100000000E-03 0.  1.
    9000005    1    3    3    0    0  0.43832340215E+02 -0.26887659880E+02 -0.39016996719E+03  0.39354519892E+03  0.10000000000E+01 0.  0.
    9000005    1    3    3    0    0 -0.66685950687E+02  0.29623759450E+02 -0.36115392585E+03  0.36845317382E+03  0.10000000000E+01 0.  0.
<mgrwt>
<rscale>  0 0.11706995E+03</rscale>
<asrwt>0</asrwt>
<pdfrwt beam="2">  1        1 0.17786989E+00 0.12709810E+03</pdfrwt>
<pdfrwt beam="1">  1       -1 0.16269486E-02 0.12709810E+03</pdfrwt>
<totfact> 0.10973867E+04</totfact>
</mgrwt>
</event>
<event>
 8    2  0.1409546E-003  0.1360083E+03  0.7818608E-02  0.1230928E+00
          1   -1    0    0  501    0  0.00000000000E+00  0.00000000000E+00  0.64604932563E+03  0.64604932565E+03  0.50400000000E-02 0. -1.
         -1   -1    0    0    0  501 -0.00000000000E+00 -0.00000000000E+00 -0.36763349942E+02  0.36763350288E+02  0.50400000000E-02 0.  1.
         25    2    1    2    0    0  0.52309467872E+02 -0.11730245023E+02  0.53904566457E+03  0.55593928151E+03  0.12499750861E+03 0.  0.
         23    2    1    2    0    0 -0.52309467872E+02  0.11730245023E+02  0.70240311122E+02  0.12687339443E+03  0.91045471224E+02 0.  0.
        -11    1    4    4    0    0 -0.66734433351E+02  0.12801699346E+02  0.83220576082E+02  0.10743850513E+03  0.51100000000E-03 0. -1.
         11    1    4    4    0    0  0.14424965479E+02 -0.10714543237E+01 -0.12980264960E+02  0.19434889301E+02  0.51100000000E-03 0.  1.
    9000005    1    3    3    0    0 -0.88258177838E+01 -0.49823281621E+01  0.43463963506E+03  0.43475893437E+03  0.10000000000E+01 0.  0.
    9000005    1    3    3    0    0  0.61135285655E+02 -0.67479168606E+01  0.10440602951E+03  0.12118034714E+03  0.10000000000E+01 0.  0.
<mgrwt>
<rscale>  0 0.12768722E+03</rscale>
<asrwt>0</asrwt>
<pdfrwt beam="1">  1        1 0.99392198E-01 0.13600829E+03</pdfrwt>
<pdfrwt beam="2">  1       -1 0.56559003E-02 0.13600829E+03</pdfrwt>
<totfact> 0.44895080E+03</totfact>
</mgrwt>
</event>
<event>
 8    2  0.1409546E-003  0.1309550E+03  0.7818608E-02  0.1239316E+00
          1   -1    0    0  501    0  0.00000000000E+00  0.00000000000E+00  0.76294775620E+03  0.76294775622E+03  0.50400000000E-02 0. -1.
         -1   -1    0    0    0  501 -0.00000000000E+00 -0.00000000000E+00 -0.20132587245E+02  0.20132587876E+02  0.50400000000E-02 0.  1.
         25    2    1    2    0    0 -0.16321495495E+02  0.35469736362E+02  0.55727768928E+03  0.57245754308E+03  0.12499888896E+03 0.  0.
         23    2    1    2    0    0  0.16321495495E+02 -0.35469736362E+02  0.18553747967E+03  0.21062280101E+03  0.91724121863E+02 0.  0.
        -11    1    4    4    0    0  0.49406016095E+02 -0.27716381642E+02  0.15466042678E+03  0.16470883355E+03  0.51100000000E-03 0.  1.
         11    1    4    4    0    0 -0.33084520600E+02 -0.77533547202E+01  0.30877052894E+02  0.45913967466E+02  0.51100000000E-03 0. -1.
    9000005    1    3    3    0    0  0.37650890630E+02 -0.17977076856E+02  0.92054726108E+02  0.10107342606E+03  0.10000000000E+01 0.  0.
    9000005    1    3    3    0    0 -0.53972386125E+02  0.53446813218E+02  0.46522296318E+03  0.47138411701E+03  0.10000000000E+01 0.  0.
<mgrwt>
<rscale>  0 0.12232154E+03</rscale>
<asrwt>0</asrwt>
<pdfrwt beam="1">  1        1 0.11737656E+00 0.13095501E+03</pdfrwt>
<pdfrwt beam="2">  1       -1 0.30973217E-02 0.13095501E+03</pdfrwt>
<totfact> 0.85597828E+03</totfact>
</mgrwt>
</event>
<event>
 8    2  0.1409546E-003  0.1328404E+03  0.7818608E-02  0.1237862E+00
         -1   -1    0    0    0  501 -0.00000000000E+00  0.00000000000E+00  0.10940165096E+03  0.10940165107E+03  0.50400000000E-02 0.  1.
          1   -1    0    0  501    0  0.00000000000E+00 -0.00000000000E+00 -0.13156630521E+03  0.13156630531E+03  0.50400000000E-02 0. -1.
         25    2    1    2    0    0  0.44684681987E+02  0.50287309756E+01  0.19260190922E+02  0.13422935492E+03  0.12499822330E+03 0.  0.
         23    2    1    2    0    0 -0.44684681987E+02 -0.50287309756E+01 -0.41424845175E+02  0.10673860146E+03  0.87493441498E+02 0.  0.
        -11    1    4    4    0    0 -0.45727197491E+02 -0.18444976213E+02  0.12740627378E+02  0.50926587595E+02  0.51100000000E-03 0.  1.
         11    1    4    4    0    0  0.10425155039E+01  0.13416245238E+02 -0.54165472553E+02  0.55812013868E+02  0.51100000000E-03 0. -1.
    9000005    1    3    3    0    0 -0.43752643006E+02  0.72930361041E+01  0.66572030857E+01  0.44864245214E+02  0.10000000000E+01 0.  0.
    9000005    1    3    3    0    0  0.88437324993E+02 -0.22643051285E+01  0.12602987837E+02  0.89365109702E+02  0.10000000000E+01 0.  0.
<mgrwt>
<rscale>  0 0.12322981E+03</rscale>
<asrwt>0</asrwt>
<pdfrwt beam="2">  1        1 0.20240970E-01 0.13284037E+03</pdfrwt>
<pdfrwt beam="1">  1       -1 0.16831023E-01 0.13284037E+03</pdfrwt>
<totfact> 0.63677354E+03</totfact>
</mgrwt>
</event>
<event>
 8    2  0.1409546E-003  0.1261266E+03  0.7818608E-02  0.1248188E+00
         -1   -1    0    0    0  501 -0.00000000000E+00  0.00000000000E+00  0.45835019612E+02  0.45835019889E+02  0.50400000000E-02 0.  1.
          1   -1    0    0  501    0  0.00000000000E+00 -0.00000000000E+00 -0.27083520236E+03  0.27083520241E+03  0.50400000000E-02 0. -1.
         25    2    1    2    0    0  0.16718156955E+02 -0.18681609783E+01 -0.15616368015E+03  0.20073617211E+03  0.12499971600E+03 0.  0.
         23    2    1    2    0    0 -0.16718156955E+02  0.18681609783E+01 -0.68836502597E+02  0.11593405018E+03  0.91756488079E+02 0.  0.
        -11    1    4    4    0    0 -0.20374530284E+02 -0.29287297548E+02  0.47007109969E+01  0.35985607763E+02  0.51100000000E-03 0.  1.
         11    1    4    4    0    0  0.36563733290E+01  0.31155458526E+02 -0.73537213594E+02  0.79948442420E+02  0.51100000000E-03 0. -1.
    9000005    1    3    3    0    0 -0.46266197985E+02 -0.25876747561E+02 -0.99195336686E+02  0.11247613952E+03  0.10000000000E+01 0.  0.
    9000005    1    3    3    0    0  0.62984354940E+02  0.24008586583E+02 -0.56968343465E+02  0.88260032598E+02  0.10000000000E+01 0.  0.
<mgrwt>
<rscale>  0 0.11696579E+03</rscale>
<asrwt>0</asrwt>
<pdfrwt beam="2">  1        1 0.41666953E-01 0.12612659E+03</pdfrwt>
<pdfrwt beam="1">  1       -1 0.70515417E-02 0.12612659E+03</pdfrwt>
<totfact> 0.97970802E+03</totfact>
</mgrwt>
</event>
<event>
 8    2  0.1409546E-003  0.1660138E+03  0.7818608E-02  0.1188894E+00
         -1   -1    0    0    0  501 -0.00000000000E+00  0.00000000000E+00  0.25764032165E+03  0.25764032170E+03  0.50400000000E-02 0.  1.
          1   -1    0    0  501    0  0.00000000000E+00 -0.00000000000E+00 -0.92621712118E+02  0.92621712255E+02  0.50400000000E-02 0. -1.
         25    2    1    2    0    0  0.10853787076E+03  0.12838460728E+02  0.80697340986E+02  0.18458775240E+03  0.12496112207E+03 0.  0.
         23    2    1    2    0    0 -0.10853787076E+03 -0.12838460728E+02  0.84321268549E+02  0.16567428156E+03  0.91611111647E+02 0.  0.
        -11    1    4    4    0    0 -0.33311879823E+02 -0.41804524599E+02  0.62343383572E+02  0.82121842952E+02  0.51100000000E-03 0.  1.
         11    1    4    4    0    0 -0.75225990941E+02  0.28966063871E+02  0.21977884976E+02  0.83552438609E+02  0.51100000000E-03 0. -1.
    9000005    1    3    3    0    0  0.13380241685E+03  0.27053460024E+02  0.71820637999E+02  0.15425362393E+03  0.10000000000E+01 0.  0.
    9000005    1    3    3    0    0 -0.25264546083E+02 -0.14214999296E+02  0.88767029869E+01  0.30334128464E+02  0.10000000000E+01 0.  0.
<mgrwt>
<rscale>  0 0.15982561E+03</rscale>
<asrwt>0</asrwt>
<pdfrwt beam="2">  1        1 0.14249494E-01 0.16601379E+03</pdfrwt>
<pdfrwt beam="1">  1       -1 0.39636972E-01 0.16601379E+03</pdfrwt>
<totfact> 0.24478279E+03</totfact>
</mgrwt>
</event>
<event>
 8    2  0.1409546E-003  0.1306136E+03  0.7818608E-02  0.1240314E+00
         -1   -1    0    0    0  501 -0.00000000000E+00  0.00000000000E+00  0.43411853618E+03  0.43411853621E+03  0.50400000000E-02 0.  1.
          1   -1    0    0  501    0  0.00000000000E+00 -0.00000000000E+00 -0.32817029079E+02  0.32817029466E+02  0.50400000000E-02 0. -1.
         25    2    1    2    0    0  0.31113016096E+01 -0.37763950738E+02  0.16148100519E+03  0.20769214729E+03  0.12499646729E+03 0.  0.
         23    2    1    2    0    0 -0.31113016096E+01  0.37763950738E+02  0.23982050191E+03  0.25924341839E+03  0.90870681014E+02 0.  0.
        -11    1    4    4    0    0 -0.37377628750E+02 -0.10826525113E+02  0.89714409083E+02  0.97790469752E+02  0.51100000000E-03 0. -1.
         11    1    4    4    0    0  0.34266327140E+02  0.48590475851E+02  0.15010609283E+03  0.16145294864E+03  0.51100000000E-03 0.  1.
    9000005    1    3    3    0    0 -0.81110567575E+01 -0.55217991136E+01  0.17174593586E+03  0.17202891033E+03  0.10000000000E+01 0.  0.
    9000005    1    3    3    0    0  0.11222358367E+02 -0.32242151624E+02 -0.10264930664E+02  0.35663236957E+02  0.10000000000E+01 0.  0.
<mgrwt>
<rscale>  0 0.12170268E+03</rscale>
<asrwt>0</asrwt>
<pdfrwt beam="2">  1        1 0.50487742E-02 0.13061360E+03</pdfrwt>
<pdfrwt beam="1">  1       -1 0.66787461E-01 0.13061360E+03</pdfrwt>
<totfact> 0.37036975E+03</totfact>
</mgrwt>
</event>
<event>
 8    2  0.1409546E-003  0.2612704E+03  0.7818608E-02  0.1108586E+00
          1   -1    0    0  501    0  0.00000000000E+00  0.00000000000E+00  0.34555838076E+03  0.34555838080E+03  0.50400000000E-02 0. -1.
         -1   -1    0    0    0  501 -0.00000000000E+00 -0.00000000000E+00 -0.18726648179E+03  0.18726648186E+03  0.50400000000E-02 0.  1.
         25    2    1    2    0    0 -0.16977989858E+03  0.15431665369E+03  0.93800769685E+02  0.27759830345E+03  0.12499356030E+03 0.  0.
         23    2    1    2    0    0  0.16977989858E+03 -0.15431665369E+03  0.64491129286E+02  0.25522655921E+03  0.91338092830E+02 0.  0.
        -11    1    4    4    0    0  0.13942913771E+03 -0.73862528109E+02  0.61003370899E+02  0.16916728041E+03  0.51100000000E-03 0. -1.
         11    1    4    4    0    0  0.30350760870E+02 -0.80454125579E+02  0.34877583868E+01  0.86059278796E+02  0.51100000000E-03 0.  1.
    9000005    1    3    3    0    0 -0.16405882836E+03  0.16553488495E+03  0.58768080974E+02  0.24035761823E+03  0.10000000000E+01 0.  0.
    9000005    1    3    3    0    0 -0.57210702131E+01 -0.11218231263E+02  0.35032688711E+02  0.37240685216E+02  0.10000000000E+01 0.  0.
<mgrwt>
<rscale>  0 0.25761280E+03</rscale>
<asrwt>0</asrwt>
<pdfrwt beam="1">  1        1 0.53162828E-01 0.26127042E+03</pdfrwt>
<pdfrwt beam="2">  1       -1 0.28810228E-01 0.26127042E+03</pdfrwt>
<totfact> 0.80319160E+02</totfact>
</mgrwt>
</event>
<event>
 8    2  0.1409546E-003  0.1393805E+03  0.7818608E-02  0.1225665E+00
          1   -1    0    0  501    0  0.00000000000E+00  0.00000000000E+00  0.65215921899E+03  0.65215921901E+03  0.50400000000E-02 0. -1.
         -1   -1    0    0    0  501 -0.00000000000E+00 -0.00000000000E+00 -0.28089116364E+02  0.28089116816E+02  0.50400000000E-02 0.  1.
         25    2    1    2    0    0 -0.80050064054E+01  0.61155938825E+02  0.21071145595E+03  0.25263856918E+03  0.12499119964E+03 0.  0.
         23    2    1    2    0    0  0.80050064054E+01 -0.61155938825E+02  0.41335864668E+03  0.42760976665E+03  0.90446739954E+02 0.  0.
        -11    1    4    4    0    0  0.30300650272E+02 -0.10843494663E+02  0.45929442787E+02  0.56082301115E+02  0.51100000000E-03 0.  1.
         11    1    4    4    0    0 -0.22295643867E+02 -0.50312444162E+02  0.36742920389E+03  0.37152746553E+03  0.51100000000E-03 0. -1.
    9000005    1    3    3    0    0 -0.52784521818E+02  0.91152259299E+00  0.40297683635E+02  0.66422435392E+02  0.10000000000E+01 0.  0.
    9000005    1    3    3    0    0  0.44779515413E+02  0.60244416232E+02  0.17041377231E+03  0.18621613378E+03  0.10000000000E+01 0.  0.
<mgrwt>
<rscale>  0 0.13121399E+03</rscale>
<asrwt>0</asrwt>
<pdfrwt beam="1">  1        1 0.10033219E+00 0.13938052E+03</pdfrwt>
<pdfrwt beam="2">  1       -1 0.43214024E-02 0.13938052E+03</pdfrwt>
<totfact> 0.66058499E+03</totfact>
</mgrwt>
</event>
<event>
 8    2  0.1409546E-003  0.1433949E+03  0.7818608E-02  0.1219235E+00
          1   -1    0    0  501    0  0.00000000000E+00  0.00000000000E+00  0.85960801941E+03  0.85960801943E+03  0.50400000000E-02 0. -1.
         -1   -1    0    0    0  501 -0.00000000000E+00 -0.00000000000E+00 -0.19493140457E+02  0.19493141108E+02  0.50400000000E-02 0.  1.
         25    2    1    2    0    0  0.24963553182E+02  0.65670765485E+02  0.43908819158E+03  0.46190966540E+03  0.12500508220E+03 0.  0.
         23    2    1    2    0    0 -0.24963553182E+02 -0.65670765485E+02  0.40102668738E+03  0.41719149514E+03  0.91052244357E+02 0.  0.
        -11    1    4    4    0    0  0.12440432050E+02 -0.74261392249E+02  0.29411341429E+03  0.30359877996E+03  0.51100000000E-03 0.  1.
         11    1    4    4    0    0 -0.37403985232E+02  0.85906267643E+01  0.10691327309E+03  0.11359271518E+03  0.51100000000E-03 0. -1.
    9000005    1    3    3    0    0  0.62162912853E+02 -0.19964705402E+01  0.25083517035E+03  0.25843276943E+03  0.10000000000E+01 0.  0.
    9000005    1    3    3    0    0 -0.37199359671E+02  0.67667236025E+02  0.18825302123E+03  0.20347689597E+03  0.10000000000E+01 0.  0.
<mgrwt>
<rscale>  0 0.13570013E+03</rscale>
<asrwt>0</asrwt>
<pdfrwt beam="1">  1        1 0.13224737E+00 0.14339491E+03</pdfrwt>
<pdfrwt beam="2">  1       -1 0.29989450E-02 0.14339491E+03</pdfrwt>
<totfact> 0.75257236E+03</totfact>
</mgrwt>
</event>
<event>
 8    2  0.1409546E-003  0.1922272E+03  0.7818608E-02  0.1161158E+00
          1   -1    0    0  501    0  0.00000000000E+00  0.00000000000E+00  0.11069914068E+04  0.11069914069E+04  0.50400000000E-02 0. -1.
         -1   -1    0    0    0  501 -0.00000000000E+00 -0.00000000000E+00 -0.50746533572E+02  0.50746533822E+02  0.50400000000E-02 0.  1.
         25    2    1    2    0    0  0.14422819205E+03  0.22882534924E+02  0.91490359734E+03  0.93487960341E+03  0.12500359464E+03 0.  0.
         23    2    1    2    0    0 -0.14422819205E+03 -0.22882534924E+02  0.14134127594E+03  0.22285833727E+03  0.91449988624E+02 0.  0.
        -11    1    4    4    0    0 -0.98972534328E+02 -0.57650021279E+02  0.84714121962E+02  0.14246252126E+03  0.51100000000E-03 0. -1.
         11    1    4    4    0    0 -0.45255657722E+02  0.34767486354E+02  0.56627153978E+02  0.80395816005E+02  0.51100000000E-03 0.  1.
    9000005    1    3    3    0    0  0.12631615222E+03 -0.35268149513E+02  0.60369243315E+03  0.61777436538E+03  0.10000000000E+01 0.  0.
    9000005    1    3    3    0    0  0.17912039826E+02  0.58150684437E+02  0.31121116418E+03  0.31710523803E+03  0.10000000000E+01 0.  0.
<mgrwt>
<rscale>  0 0.18704003E+03</rscale>
<asrwt>0</asrwt>
<pdfrwt beam="1">  1        1 0.17030636E+00 0.19222716E+03</pdfrwt>
<pdfrwt beam="2">  1       -1 0.78071594E-02 0.19222716E+03</pdfrwt>
<totfact> 0.11954270E+03</totfact>
</mgrwt>
</event>
<event>
 8    2  0.1409546E-003  0.1262899E+03  0.7818608E-02  0.1248118E+00
          1   -1    0    0  501    0  0.00000000000E+00  0.00000000000E+00  0.55580419668E+02  0.55580419896E+02  0.50400000000E-02 0. -1.
         -1   -1    0    0    0  501 -0.00000000000E+00 -0.00000000000E+00 -0.44433003758E+03  0.44433003760E+03  0.50400000000E-02 0.  1.
         25    2    1    2    0    0  0.14504858712E+02  0.10606022497E+02 -0.30702469742E+02  0.12996835343E+03  0.12500501032E+03 0.  0.
         23    2    1    2    0    0 -0.14504858712E+02 -0.10606022497E+02 -0.35804714817E+03  0.36994210407E+03  0.91304553092E+02 0.  0.
        -11    1    4    4    0    0  0.11422552213E+02 -0.11903886509E+02 -0.33446084308E+03  0.33486748538E+03  0.51100000000E-03 0.  1.
         11    1    4    4    0    0 -0.25927410926E+02  0.12978640119E+01 -0.23586305090E+02  0.35074618692E+02  0.51100000000E-03 0. -1.
    9000005    1    3    3    0    0  0.56065565882E+02  0.20864891427E+02  0.20477779268E+02  0.63237890664E+02  0.10000000000E+01 0.  0.
    9000005    1    3    3    0    0 -0.41560707169E+02 -0.10258868929E+02 -0.51180249011E+02  0.66730462766E+02  0.10000000000E+01 0.  0.
<mgrwt>
<rscale>  0 0.11700714E+03</rscale>
<asrwt>0</asrwt>
<pdfrwt beam="1">  1        1 0.85508341E-02 0.12628987E+03</pdfrwt>
<pdfrwt beam="2">  1       -1 0.68358465E-01 0.12628987E+03</pdfrwt>
<totfact> 0.17345107E+03</totfact>
</mgrwt>
</event>
<event>
 8    2  0.1409546E-003  0.1310400E+03  0.7818608E-02  0.1239431E+00
          1   -1    0    0  501    0  0.00000000000E+00  0.00000000000E+00  0.36824130171E+02  0.36824130516E+02  0.50400000000E-02 0. -1.
         -1   -1    0    0    0  501 -0.00000000000E+00 -0.00000000000E+00 -0.36818205423E+03  0.36818205426E+03  0.50400000000E-02 0.  1.
         25    2    1    2    0    0  0.28646767117E+02 -0.26926539248E+02 -0.15828287140E+03  0.20548707910E+03  0.12500318602E+03 0.  0.
         23    2    1    2    0    0 -0.28646767117E+02  0.26926539248E+02 -0.17307505265E+03  0.19951910568E+03  0.91143973455E+02 0.  0.
        -11    1    4    4    0    0 -0.21512836652E+02  0.14038418085E+02  0.13032047756E+00  0.25688446953E+02  0.51100000000E-03 0. -1.
         11    1    4    4    0    0 -0.71339304650E+01  0.12888121162E+02 -0.17320537313E+03  0.17383065873E+03  0.51100000000E-03 0.  1.
    9000005    1    3    3    0    0  0.33141679802E+02 -0.54442094688E+02 -0.16491985292E+03  0.17681026695E+03  0.10000000000E+01 0.  0.
    9000005    1    3    3    0    0 -0.44949126847E+01  0.27515555441E+02  0.66369815134E+01  0.28676812146E+02  0.10000000000E+01 0.  0.
<mgrwt>
<rscale>  0 0.12224985E+03</rscale>
<asrwt>0</asrwt>
<pdfrwt beam="1">  1        1 0.56652511E-02 0.13103996E+03</pdfrwt>
<pdfrwt beam="2">  1       -1 0.56643391E-01 0.13103996E+03</pdfrwt>
<totfact> 0.43369667E+03</totfact>
</mgrwt>
</event>
<event>
 8    2  0.1409546E-003  0.1551051E+03  0.7818608E-02  0.1202454E+00
          1   -1    0    0  501    0  0.00000000000E+00  0.00000000000E+00  0.69784147913E+02  0.69784148095E+02  0.50400000000E-02 0. -1.
         -1   -1    0    0    0  501 -0.00000000000E+00 -0.00000000000E+00 -0.29274404575E+03  0.29274404580E+03  0.50400000000E-02 0.  1.
         25    2    1    2    0    0  0.88945790575E+02 -0.22878003073E+02 -0.10790590665E+03  0.18894777768E+03  0.12499128495E+03 0.  0.
         23    2    1    2    0    0 -0.88945790575E+02  0.22878003073E+02 -0.11505399119E+03  0.17358041621E+03  0.91967294830E+02 0.  0.
        -11    1    4    4    0    0 -0.66215821055E+01 -0.20595140582E+02 -0.63667382338E+02  0.67242402836E+02  0.51100000000E-03 0.  1.
         11    1    4    4    0    0 -0.82324208469E+02  0.43473143655E+02 -0.51386608850E+02  0.10633801338E+03  0.51100000000E-03 0. -1.
    9000005    1    3    3    0    0  0.17112699183E+02  0.35255238013E+02 -0.85197932929E+02  0.93784135417E+02  0.10000000000E+01 0.  0.
    9000005    1    3    3    0    0  0.71833091392E+02 -0.58133241086E+02 -0.22707973725E+02  0.95163642263E+02  0.10000000000E+01 0.  0.
<mgrwt>
<rscale>  0 0.14839934E+03</rscale>
<asrwt>0</asrwt>
<pdfrwt beam="1">  1        1 0.10736023E-01 0.15510505E+03</pdfrwt>
<pdfrwt beam="2">  1       -1 0.45037545E-01 0.15510505E+03</pdfrwt>
<totfact> 0.28227825E+03</totfact>
</mgrwt>
</event>
<event>
 8    2  0.1409546E-003  0.1388330E+03  0.7818608E-02  0.1225919E+00
         -1   -1    0    0    0  501 -0.00000000000E+00  0.00000000000E+00  0.86793265303E+02  0.86793265450E+02  0.50400000000E-02 0.  1.
          1   -1    0    0  501    0  0.00000000000E+00 -0.00000000000E+00 -0.19093671426E+03  0.19093671432E+03  0.50400000000E-02 0. -1.
         25    2    1    2    0    0  0.50634734757E+02 -0.32935907761E+02 -0.92717909392E+02  0.16694674494E+03  0.12500381810E+03 0.  0.
         23    2    1    2    0    0 -0.50634734757E+02  0.32935907761E+02 -0.11425539563E+02  0.11078323484E+03  0.92161444123E+02 0.  0.
        -11    1    4    4    0    0 -0.70479011333E+02  0.37910015006E+02 -0.27652806001E+02  0.84670762109E+02  0.51100000000E-03 0. -1.
         11    1    4    4    0    0  0.19844276575E+02 -0.49741072451E+01  0.16227266438E+02  0.26112472728E+02  0.51100000000E-03 0.  1.
    9000005    1    3    3    0    0  0.12264558455E+02 -0.54124352951E+02 -0.10724676909E+03  0.12075899328E+03  0.10000000000E+01 0.  0.
    9000005    1    3    3    0    0  0.38370176303E+02  0.21188445190E+02  0.14528859702E+02  0.46187751659E+02  0.10000000000E+01 0.  0.
<mgrwt>
<rscale>  0 0.13104110E+03</rscale>
<asrwt>0</asrwt>
<pdfrwt beam="2">  1        1 0.29374879E-01 0.13883301E+03</pdfrwt>
<pdfrwt beam="1">  1       -1 0.13352810E-01 0.13883301E+03</pdfrwt>
<totfact> 0.57475594E+03</totfact>
</mgrwt>
</event>
<event>
 8    2  0.1409546E-003  0.1932623E+03  0.7818608E-02  0.1160329E+00
          1   -1    0    0  501    0  0.00000000000E+00  0.00000000000E+00  0.51153005639E+03  0.51153005641E+03  0.50400000000E-02 0. -1.
         -1   -1    0    0    0  501 -0.00000000000E+00 -0.00000000000E+00 -0.79769961796E+02  0.79769961955E+02  0.50400000000E-02 0.  1.
         25    2    1    2    0    0 -0.14724186868E+03  0.67389889220E+01  0.10091774026E+03  0.21802458802E+03  0.12499899527E+03 0.  0.
         23    2    1    2    0    0  0.14724186868E+03 -0.67389889220E+01  0.33084235433E+03  0.37327543035E+03  0.90290097022E+02 0.  0.
        -11    1    4    4    0    0  0.11478772943E+03  0.29961179408E+02  0.18836287054E+03  0.22260832441E+03  0.51100000000E-03 0.  1.
         11    1    4    4    0    0  0.32454139243E+02 -0.36700168330E+02  0.14247948379E+03  0.15066710594E+03  0.51100000000E-03 0. -1.
    9000005    1    3    3    0    0 -0.23849610536E+02  0.18219912619E+02 -0.26665298581E+02  0.40159771999E+02  0.10000000000E+01 0.  0.
    9000005    1    3    3    0    0 -0.12339225814E+03 -0.11480923697E+02  0.12758303884E+03  0.17786481602E+03  0.10000000000E+01 0.  0.
<mgrwt>
<rscale>  0 0.18794430E+03</rscale>
<asrwt>0</asrwt>
<pdfrwt beam="1">  1        1 0.78696930E-01 0.19326234E+03</pdfrwt>
<pdfrwt beam="2">  1       -1 0.12272302E-01 0.19326234E+03</pdfrwt>
<totfact> 0.19209224E+03</totfact>
</mgrwt>
</event>
<event>
 8    2  0.1409546E-003  0.1357262E+03  0.7818608E-02  0.1231485E+00
         -1   -1    0    0    0  501 -0.00000000000E+00  0.00000000000E+00  0.16803053925E+03  0.16803053933E+03  0.50400000000E-02 0.  1.
          1   -1    0    0  501    0  0.00000000000E+00 -0.00000000000E+00 -0.93884604089E+02  0.93884604224E+02  0.50400000000E-02 0. -1.
         25    2    1    2    0    0  0.14229178048E+02 -0.50951245188E+02  0.44424152507E+01  0.13579888804E+03  0.12499241595E+03 0.  0.
         23    2    1    2    0    0 -0.14229178048E+02  0.50951245188E+02  0.69703519913E+02  0.12611625551E+03  0.90819768346E+02 0.  0.
        -11    1    4    4    0    0 -0.32571651412E+02  0.42939103052E+02  0.85191297106E+02  0.10080791710E+03  0.51100000000E-03 0.  1.
         11    1    4    4    0    0  0.18342473364E+02  0.80121421358E+01 -0.15487777193E+02  0.25308338416E+02  0.51100000000E-03 0. -1.
    9000005    1    3    3    0    0  0.90670896829E+01 -0.61095397753E+02  0.55764791978E+02  0.83220020226E+02  0.10000000000E+01 0.  0.
    9000005    1    3    3    0    0  0.51620883655E+01  0.10144152566E+02 -0.51322376728E+02  0.52578867813E+02  0.10000000000E+01 0.  0.
<mgrwt>
<rscale>  0 0.12732157E+03</rscale>
<asrwt>0</asrwt>
<pdfrwt beam="2">  1        1 0.14443785E-01 0.13572621E+03</pdfrwt>
<pdfrwt beam="1">  1       -1 0.25850852E-01 0.13572621E+03</pdfrwt>
<totfact> 0.49220227E+03</totfact>
</mgrwt>
</event>
<event>
 8    2  0.1409546E-003  0.1529411E+03  0.7818608E-02  0.1204670E+00
          1   -1    0    0  501    0  0.00000000000E+00  0.00000000000E+00  0.50977778350E+03  0.50977778352E+03  0.50400000000E-02 0. -1.
         -1   -1    0    0    0  501 -0.00000000000E+00 -0.00000000000E+00 -0.47337419158E+02  0.47337419426E+02  0.50400000000E-02 0.  1.
         25    2    1    2    0    0  0.59402979125E+02  0.65099535180E+02  0.36347286104E+03  0.39433932710E+03  0.12499728306E+03 0.  0.
         23    2    1    2    0    0 -0.59402979125E+02 -0.65099535180E+02  0.98967503296E+02  0.16277587585E+03  0.94523836362E+02 0.  0.
        -11    1    4    4    0    0 -0.49197758772E+02 -0.23636628489E+02  0.10625900078E+03  0.11945746072E+03  0.51100000000E-03 0. -1.
         11    1    4    4    0    0 -0.10205220352E+02 -0.41462906691E+02 -0.72914974830E+01  0.43318415132E+02  0.51100000000E-03 0.  1.
    9000005    1    3    3    0    0  0.64026492664E+02 -0.16672517819E+02  0.11456462287E+03  0.13230048158E+03  0.10000000000E+01 0.  0.
    9000005    1    3    3    0    0 -0.46235135388E+01  0.81772052999E+02  0.24890823818E+03  0.26203884552E+03  0.10000000000E+01 0.  0.
<mgrwt>
<rscale>  0 0.14663490E+03</rscale>
<asrwt>0</asrwt>
<pdfrwt beam="1">  1        1 0.78427351E-01 0.15294111E+03</pdfrwt>
<pdfrwt beam="2">  1       -1 0.72826800E-02 0.15294111E+03</pdfrwt>
<totfact> 0.42571114E+03</totfact>
</mgrwt>
</event>
<event>
 8    2  0.1409546E-003  0.1284861E+03  0.7818608E-02  0.1244151E+00
         -1   -1    0    0    0  501 -0.00000000000E+00  0.00000000000E+00  0.11769693685E+02  0.11769694764E+02  0.50400000000E-02 0.  1.
          1   -1    0    0  501    0  0.00000000000E+00 -0.00000000000E+00 -0.10793634145E+04  0.10793634145E+04  0.50400000000E-02 0. -1.
         25    2    1    2    0    0  0.28417711569E+02  0.87405003410E+01 -0.55456658778E+03  0.56925634392E+03  0.12499888851E+03 0.  0.
         23    2    1    2    0    0 -0.28417711569E+02 -0.87405003410E+01 -0.51302713304E+03  0.52187676536E+03  0.90964588249E+02 0.  0.
        -11    1    4    4    0    0 -0.79937154204E+01 -0.44605634941E+02 -0.15529934245E+03  0.16177591885E+03  0.51100000000E-03 0. -1.
         11    1    4    4    0    0 -0.20423996148E+02  0.35865134600E+02 -0.35772779059E+03  0.36010084651E+03  0.51100000000E-03 0.  1.
    9000005    1    3    3    0    0 -0.27930212563E+02  0.36067117935E+02 -0.39830427474E+03  0.40090925289E+03  0.10000000000E+01 0.  0.
    9000005    1    3    3    0    0  0.56347924132E+02 -0.27326617594E+02 -0.15626231304E+03  0.16834709103E+03  0.10000000000E+01 0.  0.
<mgrwt>
<rscale>  0 0.11936317E+03</rscale>
<asrwt>0</asrwt>
<pdfrwt beam="2">  1        1 0.16605583E+00 0.12848613E+03</pdfrwt>
<pdfrwt beam="1">  1       -1 0.18107230E-02 0.12848613E+03</pdfrwt>
<totfact> 0.10655487E+04</totfact>
</mgrwt>
</event>
<event>
 8    2  0.1409546E-003  0.1410376E+03  0.7818608E-02  0.1222454E+00
         -1   -1    0    0    0  501 -0.00000000000E+00  0.00000000000E+00  0.26236509134E+03  0.26236509139E+03  0.50400000000E-02 0.  1.
          1   -1    0    0  501    0  0.00000000000E+00 -0.00000000000E+00 -0.64848894507E+02  0.64848894703E+02  0.50400000000E-02 0. -1.
         25    2    1    2    0    0 -0.32654602691E+02  0.56571030150E+02  0.72049523858E+02  0.15837531468E+03  0.12500000752E+03 0.  0.
         23    2    1    2    0    0  0.32654602691E+02 -0.56571030150E+02  0.12546667298E+03  0.16883867142E+03  0.92184632174E+02 0.  0.
        -11    1    4    4    0    0  0.33493125732E+02 -0.42292098372E+02  0.13034797646E+02  0.55500603654E+02  0.51100000000E-03 0. -1.
         11    1    4    4    0    0 -0.83852304139E+00 -0.14278931777E+02  0.11243187533E+03  0.11333806776E+03  0.51100000000E-03 0.  1.
    9000005    1    3    3    0    0 -0.32900324149E+02  0.69710108276E+02  0.10071084968E+03  0.12682904150E+03  0.10000000000E+01 0.  0.
    9000005    1    3    3    0    0  0.24572145783E+00 -0.13139078127E+02 -0.28661325824E+02  0.31546273172E+02  0.10000000000E+01 0.  0.
<mgrwt>
<rscale>  0 0.13342959E+03</rscale>
<asrwt>0</asrwt>
<pdfrwt beam="2">  1        1 0.99767530E-02 0.14103761E+03</pdfrwt>
<pdfrwt beam="1">  1       -1 0.40363860E-01 0.14103761E+03</pdfrwt>
<totfact> 0.37605943E+03</totfact>
</mgrwt>
</event>
<event>
 8    2  0.1409546E-003  0.1423445E+03  0.7818608E-02  0.1223825E+00
         -1   -1    0    0    0  501 -0.00000000000E+00  0.00000000000E+00  0.10445314452E+03  0.10445314464E+03  0.50400000000E-02 0.  1.
          1   -1    0    0  501    0  0.00000000000E+00 -0.00000000000E+00 -0.19729131048E+03  0.19729131055E+03  0.50400000000E-02 0. -1.
         25    2    1    2    0    0 -0.64378079089E+02 -0.22205893582E+02  0.22998412266E+02  0.14419042127E+03  0.12499724734E+03 0.  0.
         23    2    1    2    0    0  0.64378079089E+02  0.22205893582E+02 -0.11583657823E+03  0.15755403391E+03  0.82264949814E+02 0.  0.
        -11    1    4    4    0    0  0.70365247583E+01  0.33423616344E+00  0.13034272392E+02  0.14816094342E+02  0.51100000000E-03 0.  1.
         11    1    4    4    0    0  0.57341554330E+02  0.21871657419E+02 -0.12887085063E+03  0.14273793957E+03  0.51100000000E-03 0. -1.
    9000005    1    3    3    0    0  0.20467263646E+02  0.33291443978E+02  0.16986380299E+02  0.42623540902E+02  0.10000000000E+01 0.  0.
    9000005    1    3    3    0    0 -0.84845342735E+02 -0.55497337561E+02  0.60120319669E+01  0.10156688037E+03  0.10000000000E+01 0.  0.
<mgrwt>
<rscale>  0 0.13247781E+03</rscale>
<asrwt>0</asrwt>
<pdfrwt beam="2">  1        1 0.30352509E-01 0.14234448E+03</pdfrwt>
<pdfrwt beam="1">  1       -1 0.16069715E-01 0.14234448E+03</pdfrwt>
<totfact> 0.41348711E+03</totfact>
</mgrwt>
</event>
<event>
 8    2  0.1409546E-003  0.1424094E+03  0.7818608E-02  0.1220267E+00
          1   -1    0    0  501    0  0.00000000000E+00  0.00000000000E+00  0.84762623832E+03  0.84762623833E+03  0.50400000000E-02 0. -1.
         -1   -1    0    0    0  501 -0.00000000000E+00 -0.00000000000E+00 -0.19620041986E+02  0.19620042634E+02  0.50400000000E-02 0.  1.
         25    2    1    2    0    0 -0.10666261152E+02 -0.67384905058E+02  0.48786912221E+03  0.50822900959E+03  0.12500380485E+03 0.  0.
         23    2    1    2    0    0  0.10666261152E+02  0.67384905058E+02  0.34013707412E+03  0.35901727137E+03  0.92442833132E+02 0.  0.
        -11    1    4    4    0    0 -0.31207041308E+02  0.59390247864E+02  0.25667901680E+03  0.26530208939E+03  0.51100000000E-03 0. -1.
         11    1    4    4    0    0  0.41873302461E+02  0.79946571938E+01  0.83458057321E+02  0.93715181986E+02  0.51100000000E-03 0.  1.
    9000005    1    3    3    0    0  0.47377158704E+02 -0.66978059527E+01  0.93725168620E+02  0.10523717501E+03  0.10000000000E+01 0.  0.
    9000005    1    3    3    0    0 -0.58043419856E+02 -0.60687099105E+02  0.39414395359E+03  0.40299183458E+03  0.10000000000E+01 0.  0.
<mgrwt>
<rscale>  0 0.13496666E+03</rscale>
<asrwt>0</asrwt>
<pdfrwt beam="1">  1        1 0.13040405E+00 0.14240943E+03</pdfrwt>
<pdfrwt beam="2">  1       -1 0.30184677E-02 0.14240943E+03</pdfrwt>
<totfact> 0.76165482E+03</totfact>
</mgrwt>
</event>
<event>
 8    2  0.1409546E-003  0.1347971E+03  0.7818608E-02  0.1222009E+00
          1   -1    0    0  501    0  0.00000000000E+00  0.00000000000E+00  0.18799178123E+03  0.18799178130E+03  0.50400000000E-02 0. -1.
         -1   -1    0    0    0  501 -0.00000000000E+00 -0.00000000000E+00 -0.12023362618E+03  0.12023362628E+03  0.50400000000E-02 0.  1.
         25    2    1    2    0    0 -0.49873077442E+02 -0.76395780783E+01  0.10671005343E+03  0.17192235244E+03  0.12499829103E+03 0.  0.
         23    2    1    2    0    0  0.49873077442E+02  0.76395780783E+01 -0.38951898379E+02  0.13630305513E+03  0.12048064345E+03 0.  0.
        -11    1    4    4    0    0  0.19161346892E+02  0.39220382437E+02  0.31068292939E+02  0.53578301948E+02  0.51100000000E-03 0. -1.
         11    1    4    4    0    0  0.30711730550E+02 -0.31580804359E+02 -0.70020191318E+02  0.82724753187E+02  0.51100000000E-03 0.  1.
    9000005    1    3    3    0    0 -0.47668249828E+02  0.26813566429E+02 -0.50626951741E+01  0.54935055008E+02  0.10000000000E+01 0.  0.
    9000005    1    3    3    0    0 -0.22048276135E+01 -0.34453144507E+02  0.11177274860E+03  0.11698729744E+03  0.10000000000E+01 0.  0.
<mgrwt>
<rscale>  0 0.13374016E+03</rscale>
<asrwt>0</asrwt>
<pdfrwt beam="1">  1        1 0.28921813E-01 0.13479711E+03</pdfrwt>
<pdfrwt beam="2">  1       -1 0.18497481E-01 0.13479711E+03</pdfrwt>
<totfact> 0.35032834E+03</totfact>
</mgrwt>
</event>
<event>
 8    2  0.1409546E-003  0.1280629E+03  0.7818608E-02  0.1242211E+00
          1   -1    0    0  501    0  0.00000000000E+00  0.00000000000E+00  0.18829493502E+02  0.18829494176E+02  0.50400000000E-02 0. -1.
         -1   -1    0    0    0  501 -0.00000000000E+00 -0.00000000000E+00 -0.78298461410E+03  0.78298461411E+03  0.50400000000E-02 0.  1.
         25    2    1    2    0    0  0.25681723217E+02  0.10723304532E+02 -0.55737970878E+03  0.57190230089E+03  0.12500224730E+03 0.  0.
         23    2    1    2    0    0 -0.25681723217E+02 -0.10723304532E+02 -0.20677541181E+03  0.22991180740E+03  0.96585858619E+02 0.  0.
        -11    1    4    4    0    0 -0.58265667799E+01 -0.51613310528E+01  0.97110561712E+01  0.12445594839E+02  0.51100000000E-03 0. -1.
         11    1    4    4    0    0 -0.19855156437E+02 -0.55619734796E+01 -0.21648646799E+03  0.21746621256E+03  0.51100000000E-03 0.  1.
    9000005    1    3    3    0    0 -0.43069855960E+01 -0.49100781693E+02 -0.12494872850E+03  0.13432282621E+03  0.10000000000E+01 0.  0.
    9000005    1    3    3    0    0  0.29988708813E+02  0.59824086226E+02 -0.43243098028E+03  0.43757947468E+03  0.10000000000E+01 0.  0.
<mgrwt>
<rscale>  0 0.12053849E+03</rscale>
<asrwt>0</asrwt>
<pdfrwt beam="1">  1        1 0.28968458E-02 0.12806288E+03</pdfrwt>
<pdfrwt beam="2">  1       -1 0.12045915E+00 0.12806288E+03</pdfrwt>
<totfact> 0.22643882E+03</totfact>
</mgrwt>
</event>
<event>
 8    2  0.1409546E-003  0.1764875E+03  0.7818608E-02  0.1177162E+00
         -1   -1    0    0    0  501 -0.00000000000E+00  0.00000000000E+00  0.66587431415E+02  0.66587431606E+02  0.50400000000E-02 0.  1.
          1   -1    0    0  501    0  0.00000000000E+00 -0.00000000000E+00 -0.56592741422E+03  0.56592741424E+03  0.50400000000E-02 0. -1.
         25    2    1    2    0    0  0.94607016790E+02  0.81066839247E+02 -0.96530762724E+02  0.20116164743E+03  0.12500200076E+03 0.  0.
         23    2    1    2    0    0 -0.94607016790E+02 -0.81066839247E+02 -0.40280922008E+03  0.43135319842E+03  0.91038420193E+02 0.  0.
        -11    1    4    4    0    0 -0.26378015615E+02  0.19318484702E+02 -0.95528708895E+02  0.10096899416E+03  0.51100000000E-03 0. -1.
         11    1    4    4    0    0 -0.68229001175E+02 -0.10038532395E+03 -0.30728051119E+03  0.33038420426E+03  0.51100000000E-03 0.  1.
    9000005    1    3    3    0    0  0.10329951393E+03  0.89544932261E+02 -0.11526199613E+03  0.17881670007E+03  0.10000000000E+01 0.  0.
    9000005    1    3    3    0    0 -0.86924971394E+01 -0.84780930132E+01  0.18731233406E+02  0.22344947361E+02  0.10000000000E+01 0.  0.
<mgrwt>
<rscale>  0 0.17065971E+03</rscale>
<asrwt>0</asrwt>
<pdfrwt beam="2">  1        1 0.87065753E-01 0.17648745E+03</pdfrwt>
<pdfrwt beam="1">  1       -1 0.10244221E-01 0.17648745E+03</pdfrwt>
<totfact> 0.22143864E+03</totfact>
</mgrwt>
</event>
<event>
 8    2  0.1409546E-003  0.1299928E+03  0.7818608E-02  0.1243570E+00
          1   -1    0    0  501    0  0.00000000000E+00  0.00000000000E+00  0.17996558803E+04  0.17996558803E+04  0.50400000000E-02 0. -1.
         -1   -1    0    0    0  501 -0.00000000000E+00 -0.00000000000E+00 -0.70758853724E+01  0.70758871674E+01  0.50400000000E-02 0.  1.
         25    2    1    2    0    0 -0.35574484629E+02  0.26298093676E+01  0.11638841371E+04  0.11711210025E+04  0.12500263266E+03 0.  0.
         23    2    1    2    0    0  0.35574484629E+02 -0.26298093676E+01  0.62869585787E+03  0.63561076497E+03  0.86429757499E+02 0.  0.
        -11    1    4    4    0    0 -0.73853518120E+01  0.35215433874E+02  0.26645588374E+03  0.26887433530E+03  0.51100000000E-03 0. -1.
         11    1    4    4    0    0  0.42959836441E+02 -0.37845243242E+02  0.36223997413E+03  0.36673642966E+03  0.51100000000E-03 0.  1.
    9000005    1    3    3    0    0 -0.65522489714E+02 -0.19037531866E+02  0.36144251229E+03  0.36782783196E+03  0.10000000000E+01 0.  0.
    9000005    1    3    3    0    0  0.29948005085E+02  0.21667341233E+02  0.80244162477E+03  0.80329317055E+03  0.10000000000E+01 0.  0.
<mgrwt>
<rscale>  0 0.11971380E+03</rscale>
<asrwt>0</asrwt>
<pdfrwt beam="1">  1        1 0.27687027E+00 0.12999276E+03</pdfrwt>
<pdfrwt beam="2">  1       -1 0.10885974E-02 0.12999276E+03</pdfrwt>
<totfact> 0.74135119E+03</totfact>
</mgrwt>
</event>
<event>
 8    2  0.1409546E-003  0.1323923E+03  0.7818608E-02  0.1235755E+00
         -1   -1    0    0    0  501 -0.00000000000E+00  0.00000000000E+00  0.38421141144E+02  0.38421141474E+02  0.50400000000E-02 0. -1.
          1   -1    0    0  501    0  0.00000000000E+00 -0.00000000000E+00 -0.57067693767E+03  0.57067693769E+03  0.50400000000E-02 0.  1.
         25    2    1    2    0    0  0.35562412974E+02  0.25324628208E+02 -0.10371903388E+03  0.16818254523E+03  0.12498683339E+03 0.  0.
         23    2    1    2    0    0 -0.35562412974E+02 -0.25324628208E+02 -0.42853676264E+03  0.44091553393E+03  0.94110196663E+02 0.  0.
        -11    1    4    4    0    0 -0.21077205942E+02 -0.23469587115E+01 -0.13826236623E+02  0.25316430336E+02  0.51100000000E-03 0. -1.
         11    1    4    4    0    0 -0.14485207032E+02 -0.22977669497E+02 -0.41471052601E+03  0.41559910359E+03  0.51100000000E-03 0.  1.
    9000005    1    3    3    0    0 -0.35603793878E+01 -0.51533492654E+01  0.27331839228E+02  0.28058202822E+02  0.10000000000E+01 0.  0.
    9000005    1    3    3    0    0  0.39122792362E+02  0.30477977474E+02 -0.13105087311E+03  0.14012434241E+03  0.10000000000E+01 0.  0.
<mgrwt>
<rscale>  0 0.12456257E+03</rscale>
<asrwt>0</asrwt>
<pdfrwt beam="2">  1        1 0.87796445E-01 0.13239234E+03</pdfrwt>
<pdfrwt beam="1">  1       -1 0.59109453E-02 0.13239234E+03</pdfrwt>
<totfact> 0.49744244E+03</totfact>
</mgrwt>
</event>
<event>
 8    2  0.1409546E-003  0.2016628E+03  0.7818608E-02  0.1152359E+00
         -1   -1    0    0    0  501 -0.00000000000E+00  0.00000000000E+00  0.16317048866E+03  0.16317048874E+03  0.50400000000E-02 0.  1.
          1   -1    0    0  501    0  0.00000000000E+00 -0.00000000000E+00 -0.25261612816E+03  0.25261612821E+03  0.50400000000E-02 0. -1.
         25    2    1    2    0    0  0.13867920115E+03  0.76227649443E+02 -0.11258671722E+03  0.23096249049E+03  0.12500131099E+03 0.  0.
         23    2    1    2    0    0 -0.13867920115E+03 -0.76227649443E+02  0.23141077717E+02  0.18482412646E+03  0.92638398466E+02 0.  0.
        -11    1    4    4    0    0 -0.14055724563E+03 -0.75947621724E+02  0.42541936715E+02  0.16533056863E+03  0.51100000000E-03 0.  1.
         11    1    4    4    0    0  0.18780444748E+01 -0.28002771928E+00 -0.19400858998E+02  0.19493557826E+02  0.51100000000E-03 0. -1.
    9000005    1    3    3    0    0  0.76420085652E+02  0.86327414925E+02 -0.17154808831E+02  0.11656645969E+03  0.10000000000E+01 0.  0.
    9000005    1    3    3    0    0  0.62259115501E+02 -0.10099765482E+02 -0.95431908385E+02  0.11439603080E+03  0.10000000000E+01 0.  0.
<mgrwt>
<rscale>  0 0.19692521E+03</rscale>
<asrwt>0</asrwt>
<pdfrwt beam="2">  1        1 0.38864020E-01 0.20166285E+03</pdfrwt>
<pdfrwt beam="1">  1       -1 0.25103152E-01 0.20166285E+03</pdfrwt>
<totfact> 0.14968289E+03</totfact>
</mgrwt>
</event>
<event>
 8    2  0.1409546E-003  0.1307889E+03  0.7818608E-02  0.1242624E+00
          1   -1    0    0  501    0  0.00000000000E+00  0.00000000000E+00  0.12646495855E+04  0.12646495855E+04  0.50400000000E-02 0. -1.
         -1   -1    0    0    0  501 -0.00000000000E+00 -0.00000000000E+00 -0.18823486666E+02  0.18823487340E+02  0.50400000000E-02 0.  1.
         25    2    1    2    0    0  0.25968379409E+02  0.28359230723E+02  0.11148925874E+04  0.11225378431E+04  0.12500849974E+03 0.  0.
         23    2    1    2    0    0 -0.25968379409E+02 -0.28359230723E+02  0.13093351143E+03  0.16093522976E+03  0.85310966871E+02 0.  0.
        -11    1    4    4    0    0 -0.32701785502E+02 -0.52067523984E+02  0.60274885619E+02  0.86101658901E+02  0.51100000000E-03 0.  1.
         11    1    4    4    0    0  0.67334060926E+01  0.23708293261E+02  0.70658625807E+02  0.74833570864E+02  0.51100000000E-03 0. -1.
    9000005    1    3    3    0    0  0.35878011510E+02 -0.13481442371E+01  0.86401388370E+02  0.93569488163E+02  0.10000000000E+01 0.  0.
    9000005    1    3    3    0    0 -0.99096321008E+01  0.29707374960E+02  0.10284911990E+04  0.10289683549E+04  0.10000000000E+01 0.  0.
<mgrwt>
<rscale>  0 0.12028731E+03</rscale>
<asrwt>0</asrwt>
<pdfrwt beam="1">  1        1 0.19456150E+00 0.13078887E+03</pdfrwt>
<pdfrwt beam="2">  1       -1 0.28959208E-02 0.13078887E+03</pdfrwt>
<totfact> 0.40328037E+03</totfact>
</mgrwt>
</event>
<event>
 8    2  0.1409546E-003  0.1353979E+03  0.7818608E-02  0.1231186E+00
          1   -1    0    0  501    0  0.00000000000E+00  0.00000000000E+00  0.10039623124E+03  0.10039623137E+03  0.50400000000E-02 0. -1.
         -1   -1    0    0    0  501 -0.00000000000E+00 -0.00000000000E+00 -0.14866969609E+03  0.14866969617E+03  0.50400000000E-02 0.  1.
         25    2    1    2    0    0 -0.45694735684E+02  0.24864108527E+02 -0.44328841388E+02  0.14246979550E+03  0.12500545464E+03 0.  0.
         23    2    1    2    0    0  0.45694735684E+02 -0.24864108527E+02 -0.39446234597E+01  0.10659613204E+03  0.92956670281E+02 0.  0.
        -11    1    4    4    0    0 -0.48990935299E+01  0.43005344488E+01 -0.38294187879E+02  0.38845083853E+02  0.51100000000E-03 0.  1.
         11    1    4    4    0    0  0.50593829214E+02 -0.29164642976E+02  0.34349564420E+02  0.67751048188E+02  0.51100000000E-03 0. -1.
    9000005    1    3    3    0    0  0.27679803282E+02 -0.23569892240E+02 -0.40541541491E+02  0.54464005695E+02  0.10000000000E+01 0.  0.
    9000005    1    3    3    0    0 -0.73374538966E+02  0.48434000766E+02 -0.37872998969E+01  0.88005789805E+02  0.10000000000E+01 0.  0.
<mgrwt>
<rscale>  0 0.12751755E+03</rscale>
<asrwt>0</asrwt>
<pdfrwt beam="1">  1        1 0.15445574E-01 0.13539792E+03</pdfrwt>
<pdfrwt beam="2">  1       -1 0.22872261E-01 0.13539792E+03</pdfrwt>
<totfact> 0.55136860E+03</totfact>
</mgrwt>
</event>
<event>
 8    2  0.1409546E-003  0.1853079E+03  0.7818608E-02  0.1167744E+00
          1   -1    0    0  501    0  0.00000000000E+00  0.00000000000E+00  0.11509723923E+03  0.11509723934E+03  0.50400000000E-02 0. -1.
         -1   -1    0    0    0  501 -0.00000000000E+00 -0.00000000000E+00 -0.26765716970E+03  0.26765716975E+03  0.50400000000E-02 0.  1.
         25    2    1    2    0    0  0.12649928677E+03  0.52046483547E+02 -0.91169296331E+02  0.20652080801E+03  0.12501238956E+03 0.  0.
         23    2    1    2    0    0 -0.12649928677E+03 -0.52046483547E+02 -0.61390634144E+02  0.17623360108E+03  0.92620549480E+02 0.  0.
        -11    1    4    4    0    0 -0.92047291634E+02  0.72169022119E+01 -0.54799721272E+02  0.10736757903E+03  0.51100000000E-03 0.  1.
         11    1    4    4    0    0 -0.34451995140E+02 -0.59263385759E+02 -0.65909128717E+01  0.68866022054E+02  0.51100000000E-03 0. -1.
    9000005    1    3    3    0    0 -0.14049526263E+02 -0.22197465571E+02 -0.11089829636E+02  0.28532454982E+02  0.10000000000E+01 0.  0.
    9000005    1    3    3    0    0  0.14054881304E+03  0.74243949118E+02 -0.80079466695E+02  0.17798835303E+03  0.10000000000E+01 0.  0.
<mgrwt>
<rscale>  0 0.18006105E+03</rscale>
<asrwt>0</asrwt>
<pdfrwt beam="1">  1        1 0.17707268E-01 0.18530786E+03</pdfrwt>
<pdfrwt beam="2">  1       -1 0.41178026E-01 0.18530786E+03</pdfrwt>
<totfact> 0.17324271E+03</totfact>
</mgrwt>
</event>
<event>
 8    2  0.1409546E-003  0.1391518E+03  0.7818608E-02  0.1225887E+00
         -1   -1    0    0    0  501 -0.00000000000E+00  0.00000000000E+00  0.56812065336E+02  0.56812065560E+02  0.50400000000E-02 0.  1.
          1   -1    0    0  501    0  0.00000000000E+00 -0.00000000000E+00 -0.31358023979E+03  0.31358023983E+03  0.50400000000E-02 0. -1.
         25    2    1    2    0    0  0.12483402083E+02  0.59855039583E+02 -0.20860906246E+03  0.25076076012E+03  0.12499902713E+03 0.  0.
         23    2    1    2    0    0 -0.12483402083E+02 -0.59855039583E+02 -0.48159111993E+02  0.11963154527E+03  0.90851227099E+02 0.  0.
        -11    1    4    4    0    0 -0.25752062693E+02 -0.30851226605E+02  0.19621976876E+02  0.44721235367E+02  0.51100000000E-03 0.  1.
         11    1    4    4    0    0  0.13268660610E+02 -0.29003812978E+02 -0.67781088869E+02  0.74910309906E+02  0.51100000000E-03 0. -1.
    9000005    1    3    3    0    0 -0.42230533836E+02  0.71061698096E+02 -0.13594794013E+03  0.15911010449E+03  0.10000000000E+01 0.  0.
    9000005    1    3    3    0    0  0.54713935919E+02 -0.11206658513E+02 -0.72661122330E+02  0.91650655628E+02  0.10000000000E+01 0.  0.
<mgrwt>
<rscale>  0 0.13106293E+03</rscale>
<asrwt>0</asrwt>
<pdfrwt beam="2">  1        1 0.48243113E-01 0.13915178E+03</pdfrwt>
<pdfrwt beam="1">  1       -1 0.87403180E-02 0.13915178E+03</pdfrwt>
<totfact> 0.59556799E+03</totfact>
</mgrwt>
</event>
<event>
 8    2  0.1409546E-003  0.1274509E+03  0.7818608E-02  0.1246858E+00
         -1   -1    0    0    0  501 -0.00000000000E+00  0.00000000000E+00  0.10553703602E+02  0.10553704805E+02  0.50400000000E-02 0.  1.
          1   -1    0    0  501    0  0.00000000000E+00 -0.00000000000E+00 -0.13076885894E+04  0.13076885894E+04  0.50400000000E-02 0. -1.
         25    2    1    2    0    0  0.17553409532E+02 -0.17615936642E+02 -0.96473203988E+03  0.97311439829E+03  0.12500111985E+03 0.  0.
         23    2    1    2    0    0 -0.17553409532E+02  0.17615936642E+02 -0.33240284592E+03  0.34512789594E+03  0.89460433522E+02 0.  0.
        -11    1    4    4    0    0  0.11709783637E+02  0.47062158686E+02 -0.13607420303E+03  0.14445814115E+03  0.51100000000E-03 0.  1.
         11    1    4    4    0    0 -0.29263193169E+02 -0.29446222044E+02 -0.19632864289E+03  0.20066975479E+03  0.51100000000E-03 0. -1.
    9000005    1    3    3    0    0 -0.38193039481E+02 -0.44029922020E+02 -0.63420929466E+03  0.63688285558E+03  0.10000000000E+01 0.  0.
    9000005    1    3    3    0    0  0.55746449013E+02  0.26413985378E+02 -0.33052274522E+03  0.33623154271E+03  0.10000000000E+01 0.  0.
<mgrwt>
<rscale>  0 0.11774857E+03</rscale>
<asrwt>0</asrwt>
<pdfrwt beam="2">  1        1 0.20118273E+00 0.12745087E+03</pdfrwt>
<pdfrwt beam="1">  1       -1 0.16236478E-02 0.12745087E+03</pdfrwt>
<totfact> 0.86909538E+03</totfact>
</mgrwt>
</event>
<event>
 8    2  0.1409546E-003  0.1272922E+03  0.7818608E-02  0.1244201E+00
          1   -1    0    0  501    0  0.00000000000E+00  0.00000000000E+00  0.33919613015E+03  0.33919613019E+03  0.50400000000E-02 0. -1.
         -1   -1    0    0    0  501 -0.00000000000E+00 -0.00000000000E+00 -0.37723428948E+02  0.37723429285E+02  0.50400000000E-02 0.  1.
         25    2    1    2    0    0 -0.26265814912E+01 -0.23896650832E+02  0.15612776821E+03  0.20144277581E+03  0.12500145226E+03 0.  0.
         23    2    1    2    0    0  0.26265814912E+01  0.23896650832E+02  0.14534493299E+03  0.17547678366E+03  0.95336263861E+02 0.  0.
        -11    1    4    4    0    0  0.13441324846E+02 -0.30612536263E+02  0.21539342534E+02  0.39771093361E+02  0.51100000000E-03 0.  1.
         11    1    4    4    0    0 -0.10814743355E+02  0.54509187095E+02  0.12380559046E+03  0.13570569030E+03  0.51100000000E-03 0. -1.
    9000005    1    3    3    0    0 -0.16751008783E+02  0.21689037086E+02  0.15095897867E+03  0.15342954040E+03  0.10000000000E+01 0.  0.
    9000005    1    3    3    0    0  0.14124427291E+02 -0.45585687918E+02  0.51687895372E+01  0.48013235410E+02  0.10000000000E+01 0.  0.
<mgrwt>
<rscale>  0 0.11933357E+03</rscale>
<asrwt>0</asrwt>
<pdfrwt beam="1">  1        1 0.52184019E-01 0.12729223E+03</pdfrwt>
<pdfrwt beam="2">  1       -1 0.58036045E-02 0.12729223E+03</pdfrwt>
<totfact> 0.99242065E+03</totfact>
</mgrwt>
</event>
<event>
 8    2  0.1409546E-003  0.1297218E+03  0.7818608E-02  0.1242494E+00
         -1   -1    0    0    0  501 -0.00000000000E+00  0.00000000000E+00  0.88613144611E+01  0.88613158944E+01  0.50400000000E-02 0.  1.
          1   -1    0    0  501    0  0.00000000000E+00 -0.00000000000E+00 -0.15288952047E+04  0.15288952047E+04  0.50400000000E-02 0. -1.
         25    2    1    2    0    0  0.76673229958E+01  0.33767924017E+02 -0.68230300151E+03  0.69452512092E+03  0.12501478782E+03 0.  0.
         23    2    1    2    0    0 -0.76673229958E+01 -0.33767924017E+02 -0.83773088870E+03  0.84323139967E+03  0.89705579309E+02 0.  0.
        -11    1    4    4    0    0  0.30298201269E+02  0.14636603957E+02 -0.35650893893E+03  0.35809333241E+03  0.51100000000E-03 0. -1.
         11    1    4    4    0    0 -0.37965524265E+02 -0.48404527974E+02 -0.48122194977E+03  0.48513806726E+03  0.51100000000E-03 0.  1.
    9000005    1    3    3    0    0 -0.20678864618E+02  0.58436132216E+02 -0.60898484137E+03  0.61213228473E+03  0.10000000000E+01 0.  0.
    9000005    1    3    3    0    0  0.28346187613E+02 -0.24668208199E+02 -0.73318160147E+02  0.82392836189E+02  0.10000000000E+01 0.  0.
<mgrwt>
<rscale>  0 0.12036632E+03</rscale>
<asrwt>0</asrwt>
<pdfrwt beam="2">  1        1 0.23521444E+00 0.12972185E+03</pdfrwt>
<pdfrwt beam="1">  1       -1 0.13632805E-02 0.12972185E+03</pdfrwt>
<totfact> 0.80065082E+03</totfact>
</mgrwt>
</event>
<event>
 8    2  0.1409546E-003  0.1580546E+03  0.7818608E-02  0.1198964E+00
         -1   -1    0    0    0  501 -0.00000000000E+00  0.00000000000E+00  0.78375488779E+01  0.78375504984E+01  0.50400000000E-02 0. -1.
          1   -1    0    0  501    0  0.00000000000E+00 -0.00000000000E+00 -0.27556079141E+04  0.27556079141E+04  0.50400000000E-02 0.  1.
         25    2    1    2    0    0 -0.48741280477E+02 -0.83548820538E+02 -0.12840154013E+04  0.12937066124E+04  0.12500052136E+03 0.  0.
         23    2    1    2    0    0  0.48741280477E+02  0.83548820538E+02 -0.14637549639E+04  0.14697388522E+04  0.90540496191E+02 0.  0.
        -11    1    4    4    0    0 -0.17574339028E+02  0.54844897729E+02 -0.50745727443E+03  0.51071489656E+03  0.51100000000E-03 0.  1.
         11    1    4    4    0    0  0.66315619504E+02  0.28703922809E+02 -0.95629768948E+03  0.95902395563E+03  0.51100000000E-03 0. -1.
    9000005    1    3    3    0    0  0.13851178993E+02 -0.87608744691E+02 -0.92580955221E+03  0.93004917842E+03  0.10000000000E+01 0.  0.
    9000005    1    3    3    0    0 -0.62592459469E+02  0.40599241536E+01 -0.35820584911E+03  0.36365743400E+03  0.10000000000E+01 0.  0.
<mgrwt>
<rscale>  0 0.15123468E+03</rscale>
<asrwt>0</asrwt>
<pdfrwt beam="2">  1        1 0.42393891E+00 0.15805457E+03</pdfrwt>
<pdfrwt beam="1">  1       -1 0.12057791E-02 0.15805457E+03</pdfrwt>
<totfact> 0.15461896E+03</totfact>
</mgrwt>
</event>
<event>
 8    2  0.1409546E-003  0.1473837E+03  0.7818608E-02  0.1213098E+00
         -1   -1    0    0    0  501 -0.00000000000E+00  0.00000000000E+00  0.93429980437E+01  0.93429994031E+01  0.50400000000E-02 0.  1.
          1   -1    0    0  501    0  0.00000000000E+00 -0.00000000000E+00 -0.21270665851E+04  0.21270665851E+04  0.50400000000E-02 0. -1.
         25    2    1    2    0    0 -0.75493405553E+02  0.19929554109E+02 -0.82386835499E+03  0.83694743387E+03  0.12500199719E+03 0.  0.
         23    2    1    2    0    0  0.75493405553E+02 -0.19929554109E+02 -0.12938552320E+04  0.12994621506E+04  0.91891664398E+02 0.  0.
        -11    1    4    4    0    0  0.40812755247E+02 -0.26221497368E+02 -0.23177247268E+03  0.23679469379E+03  0.51100000000E-03 0.  1.
         11    1    4    4    0    0  0.34680650306E+02  0.62919432585E+01 -0.10620827593E+04  0.10626674568E+04  0.51100000000E-03 0. -1.
    9000005    1    3    3    0    0 -0.92154011725E+02 -0.28092010892E+02 -0.51830783758E+03  0.52718643520E+03  0.10000000000E+01 0.  0.
    9000005    1    3    3    0    0  0.16660606172E+02  0.48021565002E+02 -0.30556051741E+03  0.30976099868E+03  0.10000000000E+01 0.  0.
<mgrwt>
<rscale>  0 0.14017142E+03</rscale>
<asrwt>0</asrwt>
<pdfrwt beam="2">  1        1 0.32724063E+00 0.14738365E+03</pdfrwt>
<pdfrwt beam="1">  1       -1 0.14373861E-02 0.14738365E+03</pdfrwt>
<totfact> 0.30913664E+03</totfact>
</mgrwt>
</event>
<event>
 8    2  0.1409546E-003  0.1281524E+03  0.7818608E-02  0.1244317E+00
         -1   -1    0    0    0  501 -0.00000000000E+00  0.00000000000E+00  0.95032738060E+01  0.95032751425E+01  0.50400000000E-02 0.  1.
          1   -1    0    0  501    0  0.00000000000E+00 -0.00000000000E+00 -0.13703224491E+04  0.13703224491E+04  0.50400000000E-02 0. -1.
         25    2    1    2    0    0  0.27742433568E+02 -0.54789728619E+01 -0.90081164001E+03  0.90988166297E+03  0.12499347204E+03 0.  0.
         23    2    1    2    0    0 -0.27742433568E+02  0.54789728619E+01 -0.46000753531E+03  0.46994406131E+03  0.91873970526E+02 0.  0.
        -11    1    4    4    0    0 -0.31335642412E+02  0.17730356777E+02 -0.61733732250E+02  0.71465668223E+02  0.51100000000E-03 0.  1.
         11    1    4    4    0    0  0.35932088435E+01 -0.12251383915E+02 -0.39827380306E+03  0.39847839309E+03  0.51100000000E-03 0. -1.
    9000005    1    3    3    0    0  0.23667768366E+02 -0.10892184077E+02 -0.90246061155E+03  0.90283717155E+03  0.10000000000E+01 0.  0.
    9000005    1    3    3    0    0  0.40746652023E+01  0.54132112149E+01  0.16489715366E+01  0.70444914150E+01  0.10000000000E+01 0.  0.
<mgrwt>
<rscale>  0 0.11926331E+03</rscale>
<asrwt>0</asrwt>
<pdfrwt beam="2">  1        1 0.21081868E+00 0.12815237E+03</pdfrwt>
<pdfrwt beam="1">  1       -1 0.14620433E-02 0.12815237E+03</pdfrwt>
<totfact> 0.91829103E+03</totfact>
</mgrwt>
</event>
<event>
 8    2  0.1409546E-003  0.1483887E+03  0.7818608E-02  0.1208972E+00
          1   -1    0    0  501    0  0.00000000000E+00  0.00000000000E+00  0.17593465361E+04  0.17593465361E+04  0.50400000000E-02 0. -1.
         -1   -1    0    0    0  501 -0.00000000000E+00 -0.00000000000E+00 -0.11451854979E+02  0.11451856088E+02  0.50400000000E-02 0.  1.
         25    2    1    2    0    0 -0.51230831117E+02  0.61401004263E+02  0.74454046311E+03  0.75918357836E+03  0.12499809225E+03 0.  0.
         23    2    1    2    0    0  0.51230831117E+02 -0.61401004263E+02  0.10033542180E+04  0.10116148139E+04  0.10124309055E+03 0.  0.
        -11    1    4    4    0    0  0.14092144119E+02 -0.70280298457E+01  0.17413970587E+02  0.23478247405E+02  0.51100000000E-03 0.  1.
         11    1    4    4    0    0  0.37138686998E+02 -0.54372974417E+02  0.98594024745E+03  0.98813656645E+03  0.51100000000E-03 0. -1.
    9000005    1    3    3    0    0  0.18709117078E+02 -0.19770663049E+02  0.55084980842E+02  0.61451324588E+02  0.10000000000E+01 0.  0.
    9000005    1    3    3    0    0 -0.69939948194E+02  0.81171667312E+02  0.68945548227E+03  0.69773225377E+03  0.10000000000E+01 0.  0.
<mgrwt>
<rscale>  0 0.14328825E+03</rscale>
<asrwt>0</asrwt>
<pdfrwt beam="1">  1        1 0.27066885E+00 0.14838869E+03</pdfrwt>
<pdfrwt beam="2">  1       -1 0.17618229E-02 0.14838869E+03</pdfrwt>
<totfact> 0.39581089E+03</totfact>
</mgrwt>
</event>
<event>
 8    2  0.1409546E-003  0.1293630E+03  0.7818608E-02  0.1241800E+00
          1   -1    0    0  501    0  0.00000000000E+00  0.00000000000E+00  0.27169863836E+04  0.27169863836E+04  0.50400000000E-02 0. -1.
         -1   -1    0    0    0  501 -0.00000000000E+00 -0.00000000000E+00 -0.58107569958E+01  0.58107591816E+01  0.50400000000E-02 0.  1.
         25    2    1    2    0    0  0.33288024857E+02  0.10898793295E+01  0.93561472618E+03  0.94451559367E+03  0.12500204162E+03 0.  0.
         23    2    1    2    0    0 -0.33288024857E+02 -0.10898793295E+01  0.17755609004E+04  0.17782815491E+04  0.92517438186E+02 0.  0.
        -11    1    4    4    0    0 -0.52642256854E+02 -0.17934632861E+02  0.63460263906E+03  0.63703482460E+03  0.51100000000E-03 0.  1.
         11    1    4    4    0    0  0.19354231997E+02  0.16844753532E+02  0.11409582614E+04  0.11412467245E+04  0.51100000000E-03 0. -1.
    9000005    1    3    3    0    0 -0.11440173186E+02  0.36940098521E+02  0.10457360703E+03  0.11149927232E+03  0.10000000000E+01 0.  0.
    9000005    1    3    3    0    0  0.44728198042E+02 -0.35850219192E+02  0.83104111915E+03  0.83301632134E+03  0.10000000000E+01 0.  0.
<mgrwt>
<rscale>  0 0.12078943E+03</rscale>
<asrwt>0</asrwt>
<pdfrwt beam="1">  1        1 0.41799899E+00 0.12936302E+03</pdfrwt>
<pdfrwt beam="2">  1       -1 0.89396046E-03 0.12936302E+03</pdfrwt>
<totfact> 0.25199114E+03</totfact>
</mgrwt>
</event>
<event>
 8    2  0.1409546E-003  0.1500531E+03  0.7818608E-02  0.1212451E+00
         -1   -1    0    0    0  501 -0.00000000000E+00  0.00000000000E+00  0.63234395451E+01  0.63234415536E+01  0.50400000000E-02 0.  1.
          1   -1    0    0  501    0  0.00000000000E+00 -0.00000000000E+00 -0.27987744605E+04  0.27987744605E+04  0.50400000000E-02 0. -1.
         25    2    1    2    0    0  0.77436315821E+02 -0.29862923357E+02 -0.15260459564E+04  0.15334054194E+04  0.12501096816E+03 0.  0.
         23    2    1    2    0    0 -0.77436315821E+02  0.29862923357E+02 -0.12664050645E+04  0.12716924826E+04  0.80819586661E+02 0.  0.
        -11    1    4    4    0    0  0.12100018424E+02  0.16476785924E+02 -0.12094938657E+03  0.12266478318E+03  0.51100000000E-03 0. -1.
         11    1    4    4    0    0 -0.89536334245E+02  0.13386137433E+02 -0.11454556780E+04  0.11490276994E+04  0.51100000000E-03 0.  1.
    9000005    1    3    3    0    0  0.72889770669E+02 -0.38675891863E+02 -0.46194885300E+03  0.46926163925E+03  0.10000000000E+01 0.  0.
    9000005    1    3    3    0    0  0.45465451525E+01  0.88129685062E+01 -0.10640971034E+04  0.10641437802E+04  0.10000000000E+01 0.  0.
<mgrwt>
<rscale>  0 0.14065417E+03</rscale>
<asrwt>0</asrwt>
<pdfrwt beam="2">  1        1 0.43057970E+00 0.15005306E+03</pdfrwt>
<pdfrwt beam="1">  1       -1 0.97283924E-03 0.15005306E+03</pdfrwt>
<totfact> 0.19682318E+03</totfact>
</mgrwt>
</event>
<event>
 8    2  0.1409546E-003  0.1403082E+03  0.7818608E-02  0.1222931E+00
          1   -1    0    0  501    0  0.00000000000E+00  0.00000000000E+00  0.63344580350E+02  0.63344580551E+02  0.50400000000E-02 0. -1.
         -1   -1    0    0    0  501 -0.00000000000E+00 -0.00000000000E+00 -0.29613829301E+03  0.29613829305E+03  0.50400000000E-02 0.  1.
         25    2    1    2    0    0  0.63495354900E+02  0.53151598802E+01 -0.19401777209E+03  0.23943535945E+03  0.12500593767E+03 0.  0.
         23    2    1    2    0    0 -0.63495354900E+02 -0.53151598802E+01 -0.38775940568E+02  0.12004751415E+03  0.94063388560E+02 0.  0.
        -11    1    4    4    0    0 -0.59023520062E+02  0.36916581783E+02 -0.33483254771E+02  0.77251137735E+02  0.51100000000E-03 0.  1.
         11    1    4    4    0    0 -0.44718348382E+01 -0.42231741664E+02 -0.52926857972E+01  0.42796376412E+02  0.51100000000E-03 0. -1.
    9000005    1    3    3    0    0 -0.14399363711E+02 -0.45139666802E+02 -0.69984395853E+02  0.84520688930E+02  0.10000000000E+01 0.  0.
    9000005    1    3    3    0    0  0.77894718612E+02  0.50454826682E+02 -0.12403337624E+03  0.15491467052E+03  0.10000000000E+01 0.  0.
<mgrwt>
<rscale>  0 0.13309722E+03</rscale>
<asrwt>0</asrwt>
<pdfrwt beam="1">  1        1 0.97453202E-02 0.14030822E+03</pdfrwt>
<pdfrwt beam="2">  1       -1 0.45559737E-01 0.14030822E+03</pdfrwt>
<totfact> 0.31281238E+03</totfact>
</mgrwt>
</event>
<event>
 8    2  0.1409546E-003  0.1445826E+03  0.7818608E-02  0.1219375E+00
         -1   -1    0    0    0  501 -0.00000000000E+00  0.00000000000E+00  0.31002259036E+03  0.31002259040E+03  0.50400000000E-02 0.  1.
          1   -1    0    0  501    0  0.00000000000E+00 -0.00000000000E+00 -0.10892048209E+03  0.10892048221E+03  0.50400000000E-02 0. -1.
         25    2    1    2    0    0 -0.24294853435E+02  0.68471656113E+02 -0.42654990763E+02  0.15074341447E+03  0.12500208469E+03 0.  0.
         23    2    1    2    0    0  0.24294853435E+02 -0.68471656113E+02  0.24375709903E+03  0.26819965813E+03  0.85058366428E+02 0.  0.
        -11    1    4    4    0    0  0.19105087259E+02  0.56410975698E+01  0.88024733814E+01  0.21778656498E+02  0.51100000000E-03 0. -1.
         11    1    4    4    0    0  0.51897661755E+01 -0.74112753683E+02  0.23495462565E+03  0.24642100163E+03  0.51100000000E-03 0.  1.
    9000005    1    3    3    0    0 -0.46247335080E+02  0.80667967895E+02 -0.67884101305E+02  0.11513204704E+03  0.10000000000E+01 0.  0.
    9000005    1    3    3    0    0  0.21952481645E+02 -0.12196311782E+02  0.25229110543E+02  0.35611367430E+02  0.10000000000E+01 0.  0.
<mgrwt>
<rscale>  0 0.13559995E+03</rscale>
<asrwt>0</asrwt>
<pdfrwt beam="2">  1        1 0.16756998E-01 0.14458260E+03</pdfrwt>
<pdfrwt beam="1">  1       -1 0.47695782E-01 0.14458260E+03</pdfrwt>
<totfact> 0.14185955E+03</totfact>
</mgrwt>
</event>
<event>
 8    2  0.1409546E-003  0.1386778E+03  0.7818608E-02  0.1226502E+00
         -1   -1    0    0    0  501 -0.00000000000E+00  0.00000000000E+00  0.35013024491E+02  0.35013024854E+02  0.50400000000E-02 0.  1.
          1   -1    0    0  501    0  0.00000000000E+00 -0.00000000000E+00 -0.44919609244E+03  0.44919609247E+03  0.50400000000E-02 0. -1.
         25    2    1    2    0    0  0.60043563537E+02  0.11051462619E+01 -0.19459821312E+03  0.23895607757E+03  0.12500036635E+03 0.  0.
         23    2    1    2    0    0 -0.60043563537E+02 -0.11051462619E+01 -0.21958485482E+03  0.24525303975E+03  0.91241953988E+02 0.  0.
        -11    1    4    4    0    0 -0.26041435801E+02  0.18934402810E+02 -0.19733693534E+03  0.19994632789E+03  0.51100000000E-03 0. -1.
         11    1    4    4    0    0 -0.34002127735E+02 -0.20039549072E+02 -0.22247919484E+02  0.45306711855E+02  0.51100000000E-03 0.  1.
    9000005    1    3    3    0    0  0.95449663998E+02  0.75865625774E+01 -0.17074818945E+03  0.19576551915E+03  0.10000000000E+01 0.  0.
    9000005    1    3    3    0    0 -0.35406100461E+02 -0.64814163155E+01 -0.23850023674E+02  0.43190558419E+02  0.10000000000E+01 0.  0.
<mgrwt>
<rscale>  0 0.13064488E+03</rscale>
<asrwt>0</asrwt>
<pdfrwt beam="2">  1        1 0.69107087E-01 0.13867784E+03</pdfrwt>
<pdfrwt beam="1">  1       -1 0.53866195E-02 0.13867784E+03</pdfrwt>
<totfact> 0.78318569E+03</totfact>
</mgrwt>
</event>
<event>
 8    2  0.1409546E-003  0.1305499E+03  0.7818608E-02  0.1239498E+00
         -1   -1    0    0    0  501 -0.00000000000E+00  0.00000000000E+00  0.13765854371E+02  0.13765855294E+02  0.50400000000E-02 0.  1.
          1   -1    0    0  501    0  0.00000000000E+00 -0.00000000000E+00 -0.96939773768E+03  0.96939773769E+03  0.50400000000E-02 0. -1.
         25    2    1    2    0    0 -0.23063180079E+02  0.29781981542E+02 -0.56268585830E+03  0.57763192515E+03  0.12499755648E+03 0.  0.
         23    2    1    2    0    0  0.23063180079E+02 -0.29781981542E+02 -0.39294602500E+03  0.40553166783E+03  0.92900367844E+02 0.  0.
        -11    1    4    4    0    0 -0.18993928148E+02 -0.46768449348E+02 -0.26547024394E+03  0.27022677065E+03  0.51100000000E-03 0. -1.
         11    1    4    4    0    0  0.42057108227E+02  0.16986467806E+02 -0.12747578106E+03  0.13530489717E+03  0.51100000000E-03 0.  1.
    9000005    1    3    3    0    0 -0.21504313794E+02  0.38458593672E+02 -0.56632869622E+03  0.56804109984E+03  0.10000000000E+01 0.  0.
    9000005    1    3    3    0    0 -0.15588662851E+01 -0.86766121303E+01  0.36428379209E+01  0.95908253175E+01  0.10000000000E+01 0.  0.
<mgrwt>
<rscale>  0 0.12220798E+03</rscale>
<asrwt>0</asrwt>
<pdfrwt beam="2">  1        1 0.14913806E+00 0.13054986E+03</pdfrwt>
<pdfrwt beam="1">  1       -1 0.21178246E-02 0.13054986E+03</pdfrwt>
<totfact> 0.10222909E+04</totfact>
</mgrwt>
</event>
<event>
 8    2  0.1409546E-003  0.1369734E+03  0.7818608E-02  0.1227145E+00
          1   -1    0    0  501    0  0.00000000000E+00  0.00000000000E+00  0.25637022261E+03  0.25637022265E+03  0.50400000000E-02 0. -1.
         -1   -1    0    0    0  501 -0.00000000000E+00 -0.00000000000E+00 -0.60577789345E+02  0.60577789555E+02  0.50400000000E-02 0.  1.
         25    2    1    2    0    0 -0.11007847120E+02 -0.54912600767E+02  0.11679154379E+03  0.18000549818E+03  0.12500059301E+03 0.  0.
         23    2    1    2    0    0  0.11007847120E+02  0.54912600767E+02  0.79000889470E+02  0.13694251403E+03  0.96827398968E+02 0.  0.
        -11    1    4    4    0    0  0.53386998271E+02  0.27110547969E+02  0.53068691972E+02  0.80008996141E+02  0.51100000000E-03 0. -1.
         11    1    4    4    0    0 -0.42379151151E+02  0.27802052798E+02  0.25932197498E+02  0.56933517890E+02  0.51100000000E-03 0.  1.
    9000005    1    3    3    0    0 -0.80750530823E+01 -0.81793833826E+02  0.12683638958E+03  0.15114201089E+03  0.10000000000E+01 0.  0.
    9000005    1    3    3    0    0 -0.29327940380E+01  0.26881233059E+02 -0.10044845787E+02  0.28863487290E+02  0.10000000000E+01 0.  0.
<mgrwt>
<rscale>  0 0.13020976E+03</rscale>
<asrwt>0</asrwt>
<pdfrwt beam="1">  1        1 0.39441572E-01 0.13697341E+03</pdfrwt>
<pdfrwt beam="2">  1       -1 0.93196601E-02 0.13697341E+03</pdfrwt>
<totfact> 0.69248827E+03</totfact>
</mgrwt>
</event>
<event>
 8    2  0.1409546E-003  0.1548606E+03  0.7818608E-02  0.1202892E+00
         -1   -1    0    0    0  501 -0.00000000000E+00  0.00000000000E+00  0.26192446462E+02  0.26192446947E+02  0.50400000000E-02 0.  1.
          1   -1    0    0  501    0  0.00000000000E+00 -0.00000000000E+00 -0.90801864577E+03  0.90801864579E+03  0.50400000000E-02 0. -1.
         25    2    1    2    0    0 -0.91341009612E+02 -0.38019442058E+01 -0.65532872521E+03  0.67337770284E+03  0.12499663109E+03 0.  0.
         23    2    1    2    0    0  0.91341009612E+02  0.38019442058E+01 -0.22649747410E+03  0.26083338989E+03  0.91516756340E+02 0.  0.
        -11    1    4    4    0    0  0.67525055141E+02 -0.33272199660E+02 -0.89632394542E+02  0.11704972658E+03  0.51100000000E-03 0.  1.
         11    1    4    4    0    0  0.23815954471E+02  0.37074143865E+02 -0.13686507956E+03  0.14378366331E+03  0.51100000000E-03 0. -1.
    9000005    1    3    3    0    0 -0.12227452921E+03 -0.53464237604E+01 -0.48177952560E+03  0.49708365094E+03  0.10000000000E+01 0.  0.
    9000005    1    3    3    0    0  0.30933519603E+02  0.15444795545E+01 -0.17354919961E+03  0.17629405191E+03  0.10000000000E+01 0.  0.
<mgrwt>
<rscale>  0 0.14804788E+03</rscale>
<asrwt>0</asrwt>
<pdfrwt beam="2">  1        1 0.13969515E+00 0.15486056E+03</pdfrwt>
<pdfrwt beam="1">  1       -1 0.40296079E-02 0.15486056E+03</pdfrwt>
<totfact> 0.44907165E+03</totfact>
</mgrwt>
</event>
<event>
 8    2  0.1409546E-003  0.1278643E+03  0.7818608E-02  0.1245921E+00
         -1   -1    0    0    0  501 -0.00000000000E+00  0.00000000000E+00  0.12377759649E+03  0.12377759659E+03  0.50400000000E-02 0.  1.
          1   -1    0    0  501    0  0.00000000000E+00 -0.00000000000E+00 -0.10092657851E+03  0.10092657863E+03  0.50400000000E-02 0. -1.
         25    2    1    2    0    0 -0.24894394915E+02 -0.10089053240E+02 -0.15585236974E+01  0.12787381705E+03  0.12501105630E+03 0.  0.
         23    2    1    2    0    0  0.24894394915E+02  0.10089053240E+02  0.24409541682E+02  0.96830358178E+02  0.89770666959E+02 0.  0.
        -11    1    4    4    0    0  0.61957522450E+01  0.46685848628E+02 -0.33852667145E+01  0.47216690258E+02  0.51100000000E-03 0. -1.
         11    1    4    4    0    0  0.18698642670E+02 -0.36596795388E+02  0.27794808397E+02  0.49613667920E+02  0.51100000000E-03 0.  1.
    9000005    1    3    3    0    0 -0.99201378556E+00  0.56746685136E+02 -0.33497382696E+01  0.56862915083E+02  0.10000000000E+01 0.  0.
    9000005    1    3    3    0    0 -0.23902381130E+02 -0.66835738376E+02  0.17912145721E+01  0.71010901963E+02  0.10000000000E+01 0.  0.
<mgrwt>
<rscale>  0 0.11830433E+03</rscale>
<asrwt>0</asrwt>
<pdfrwt beam="2">  1        1 0.15527166E-01 0.12786432E+03</pdfrwt>
<pdfrwt beam="1">  1       -1 0.19042707E-01 0.12786432E+03</pdfrwt>
<totfact> 0.73270470E+03</totfact>
</mgrwt>
</event>
<event>
 8    2  0.1409546E-003  0.1320614E+03  0.7818608E-02  0.1237268E+00
         -1   -1    0    0    0  501 -0.00000000000E+00  0.00000000000E+00  0.52917972505E+02  0.52917972745E+02  0.50400000000E-02 0.  1.
          1   -1    0    0  501    0  0.00000000000E+00 -0.00000000000E+00 -0.28981335797E+03  0.28981335802E+03  0.50400000000E-02 0. -1.
         25    2    1    2    0    0  0.41302920881E+02  0.10494546190E+02 -0.75398597321E+02  0.15206956082E+03  0.12499654426E+03 0.  0.
         23    2    1    2    0    0 -0.41302920881E+02 -0.10494546190E+02 -0.16149678815E+03  0.19066176994E+03  0.91949068307E+02 0.  0.
        -11    1    4    4    0    0 -0.26207090783E+02 -0.38001018743E+02 -0.15048985586E+03  0.15741056429E+03  0.51100000000E-03 0. -1.
         11    1    4    4    0    0 -0.15095830098E+02  0.27506472553E+02 -0.11006932286E+02  0.33251205652E+02  0.51100000000E-03 0.  1.
    9000005    1    3    3    0    0  0.18486394942E+01  0.12457571374E+02 -0.10306176959E+03  0.10383321677E+03  0.10000000000E+01 0.  0.
    9000005    1    3    3    0    0  0.39454281387E+02 -0.19630251838E+01  0.27663172270E+02  0.48236344054E+02  0.10000000000E+01 0.  0.
<mgrwt>
<rscale>  0 0.12360380E+03</rscale>
<asrwt>0</asrwt>
<pdfrwt beam="2">  1        1 0.44586670E-01 0.13206136E+03</pdfrwt>
<pdfrwt beam="1">  1       -1 0.81412267E-02 0.13206136E+03</pdfrwt>
<totfact> 0.72862799E+03</totfact>
</mgrwt>
</event>
<event>
 8    2  0.1409546E-003  0.1317915E+03  0.7818608E-02  0.1239273E+00
          1   -1    0    0  501    0  0.00000000000E+00  0.00000000000E+00  0.44527170254E+03  0.44527170257E+03  0.50400000000E-02 0. -1.
         -1   -1    0    0    0  501 -0.00000000000E+00 -0.00000000000E+00 -0.30917598761E+02  0.30917599172E+02  0.50400000000E-02 0.  1.
         25    2    1    2    0    0 -0.26965133218E+02  0.31889229185E+02  0.18817573712E+03  0.22973701234E+03  0.12499978181E+03 0.  0.
         23    2    1    2    0    0  0.26965133218E+02 -0.31889229185E+02  0.22617836667E+03  0.24645228940E+03  0.88532683544E+02 0.  0.
        -11    1    4    4    0    0 -0.44433177725E+01  0.28983097520E+02  0.63631256394E+02  0.70062113908E+02  0.51100000000E-03 0.  1.
         11    1    4    4    0    0  0.31408450991E+02 -0.60872326706E+02  0.16254711027E+03  0.17639017549E+03  0.51100000000E-03 0. -1.
    9000005    1    3    3    0    0  0.39565359767E+02  0.11003310200E+02  0.13756835489E+03  0.14357068920E+03  0.10000000000E+01 0.  0.
    9000005    1    3    3    0    0 -0.66530492985E+02  0.20885918985E+02  0.50607382220E+02  0.86166323142E+02  0.10000000000E+01 0.  0.
<mgrwt>
<rscale>  0 0.12234829E+03</rscale>
<asrwt>0</asrwt>
<pdfrwt beam="1">  1        1 0.68503335E-01 0.13179145E+03</pdfrwt>
<pdfrwt beam="2">  1       -1 0.47565539E-02 0.13179145E+03</pdfrwt>
<totfact> 0.94887168E+03</totfact>
</mgrwt>
</event>
<event>
 8    2  0.1409546E-003  0.1759940E+03  0.7818608E-02  0.1174938E+00
          1   -1    0    0  501    0  0.00000000000E+00  0.00000000000E+00  0.34577330031E+03  0.34577330035E+03  0.50400000000E-02 0. -1.
         -1   -1    0    0    0  501 -0.00000000000E+00 -0.00000000000E+00 -0.96421662004E+02  0.96421662136E+02  0.50400000000E-02 0.  1.
         25    2    1    2    0    0 -0.92052163037E+02  0.82918284455E+02  0.20980210790E+03  0.27384448948E+03  0.12499934930E+03 0.  0.
         23    2    1    2    0    0  0.92052163037E+02 -0.82918284455E+02  0.39549530412E+02  0.16835047300E+03  0.10690497551E+03 0.  0.
        -11    1    4    4    0    0  0.54670876630E+02 -0.69003176251E+02 -0.25844958778E+02  0.91751321400E+02  0.51100000000E-03 0.  1.
         11    1    4    4    0    0  0.37381286406E+02 -0.13915108204E+02  0.65394489190E+02  0.76599151603E+02  0.51100000000E-03 0. -1.
    9000005    1    3    3    0    0  0.29892630408E+02  0.29201025130E+02  0.38618231524E+02  0.56909024129E+02  0.10000000000E+01 0.  0.
    9000005    1    3    3    0    0 -0.12194479344E+03  0.53717259325E+02  0.17118387637E+03  0.21693546535E+03  0.10000000000E+01 0.  0.
<mgrwt>
<rscale>  0 0.17282042E+03</rscale>
<asrwt>0</asrwt>
<pdfrwt beam="1">  1        1 0.53195893E-01 0.17599398E+03</pdfrwt>
<pdfrwt beam="2">  1       -1 0.14834102E-01 0.17599398E+03</pdfrwt>
<totfact> 0.23544489E+03</totfact>
</mgrwt>
</event>
<event>
 8    2  0.1409546E-003  0.3427616E+03  0.7818608E-02  0.1066799E+00
          1   -1    0    0  501    0  0.00000000000E+00  0.00000000000E+00  0.19930139542E+03  0.19930139548E+03  0.50400000000E-02 0. -1.
         -1   -1    0    0    0  501 -0.00000000000E+00 -0.00000000000E+00 -0.80049417927E+03  0.80049417928E+03  0.50400000000E-02 0.  1.
         25    2    1    2    0    0  0.75410449540E+02 -0.31011067113E+03 -0.57181217532E+03  0.66667432142E+03  0.12502048929E+03 0.  0.
         23    2    1    2    0    0 -0.75410449540E+02  0.31011067113E+03 -0.29380608530E+02  0.33312125335E+03  0.90836033730E+02 0.  0.
        -11    1    4    4    0    0 -0.37261420680E+02  0.23073260063E+03 -0.57464227838E+02  0.24068253769E+03  0.51100000000E-03 0.  1.
         11    1    4    4    0    0 -0.38149028861E+02  0.79378070500E+02  0.28083619309E+02  0.92438715661E+02  0.51100000000E-03 0. -1.
    9000005    1    3    3    0    0  0.33107410974E+02 -0.98220557414E+02 -0.84950716607E+02  0.13401866591E+03  0.10000000000E+01 0.  0.
    9000005    1    3    3    0    0  0.42303038566E+02 -0.21189011372E+03 -0.48686145871E+03  0.53265565551E+03  0.10000000000E+01 0.  0.
<mgrwt>
<rscale>  0 0.33999359E+03</rscale>
<asrwt>0</asrwt>
<pdfrwt beam="1">  1        1 0.30661754E-01 0.34276156E+03</pdfrwt>
<pdfrwt beam="2">  1       -1 0.12315295E+00 0.34276156E+03</pdfrwt>
<totfact> 0.91338795E+01</totfact>
</mgrwt>
</event>
<event>
 8    2  0.1409546E-003  0.1499550E+03  0.7818608E-02  0.1209576E+00
         -1   -1    0    0    0  501 -0.00000000000E+00  0.00000000000E+00  0.24658089131E+02  0.24658089646E+02  0.50400000000E-02 0.  1.
          1   -1    0    0  501    0  0.00000000000E+00 -0.00000000000E+00 -0.78459606826E+03  0.78459606828E+03  0.50400000000E-02 0. -1.
         25    2    1    2    0    0  0.14026558961E+02 -0.81635021922E+02 -0.34093948875E+03  0.37245969474E+03  0.12500187221E+03 0.  0.
         23    2    1    2    0    0 -0.14026558961E+02  0.81635021922E+02 -0.41899849038E+03  0.43679446318E+03  0.91480309169E+02 0.  0.
        -11    1    4    4    0    0  0.17112183742E+02  0.88660430038E+02 -0.33430313525E+03  0.34628324378E+03  0.51100000000E-03 0.  1.
         11    1    4    4    0    0 -0.31138742703E+02 -0.70254081152E+01 -0.84695355133E+02  0.90511219402E+02  0.51100000000E-03 0. -1.
    9000005    1    3    3    0    0 -0.12007884047E+02 -0.97801163764E+02 -0.15266902779E+03  0.18170880265E+03  0.10000000000E+01 0.  0.
    9000005    1    3    3    0    0  0.26034443008E+02  0.16166141842E+02 -0.18827046096E+03  0.19075089209E+03  0.10000000000E+01 0.  0.
<mgrwt>
<rscale>  0 0.14282589E+03</rscale>
<asrwt>0</asrwt>
<pdfrwt beam="2">  1        1 0.12070707E+00 0.14995496E+03</pdfrwt>
<pdfrwt beam="1">  1       -1 0.37935528E-02 0.14995496E+03</pdfrwt>
<totfact> 0.61481047E+03</totfact>
</mgrwt>
</event>
<event>
 8    2  0.1409546E-003  0.1933288E+03  0.7818608E-02  0.1159609E+00
          1   -1    0    0  501    0  0.00000000000E+00  0.00000000000E+00  0.39241745411E+04  0.39241745411E+04  0.50400000000E-02 0. -1.
         -1   -1    0    0    0  501 -0.00000000000E+00 -0.00000000000E+00 -0.87132064726E+01  0.87132079302E+01  0.50400000000E-02 0.  1.
         25    2    1    2    0    0 -0.13752361308E+03  0.53275239879E+02  0.21884987131E+04  0.21970213155E+04  0.12500019213E+03 0.  0.
         23    2    1    2    0    0  0.13752361308E+03 -0.53275239879E+02  0.17269626215E+04  0.17358664335E+04  0.95296294228E+02 0.  0.
        -11    1    4    4    0    0  0.10048145281E+03 -0.81172042896E+02  0.12527360288E+04  0.12593780135E+04  0.51100000000E-03 0.  1.
         11    1    4    4    0    0  0.37042160275E+02  0.27896803016E+02  0.47422659267E+03  0.47648842006E+03  0.51100000000E-03 0. -1.
    9000005    1    3    3    0    0 -0.89242255422E+02  0.94085943612E+02  0.15375737701E+04  0.15430328718E+04  0.10000000000E+01 0.  0.
    9000005    1    3    3    0    0 -0.48281357660E+02 -0.40810703733E+02  0.65092494303E+03  0.65398844370E+03  0.10000000000E+01 0.  0.
<mgrwt>
<rscale>  0 0.18873323E+03</rscale>
<asrwt>0</asrwt>
<pdfrwt beam="1">  1        1 0.60371799E+00 0.19332885E+03</pdfrwt>
<pdfrwt beam="2">  1       -1 0.13404960E-02 0.19332885E+03</pdfrwt>
<totfact> 0.18290490E+02</totfact>
</mgrwt>
</event>
<event>
 8    2  0.1409546E-003  0.1450750E+03  0.7818608E-02  0.1216517E+00
          1   -1    0    0  501    0  0.00000000000E+00  0.00000000000E+00  0.57136204245E+02  0.57136204468E+02  0.50400000000E-02 0. -1.
         -1   -1    0    0    0  501 -0.00000000000E+00 -0.00000000000E+00 -0.33153583290E+03  0.33153583294E+03  0.50400000000E-02 0.  1.
         25    2    1    2    0    0 -0.71067187389E+02 -0.19263935698E+02 -0.20807666260E+03  0.25365853954E+03  0.12500045127E+03 0.  0.
         23    2    1    2    0    0  0.71067187389E+02  0.19263935698E+02 -0.66322966051E+02  0.13501349787E+03  0.91696589023E+02 0.  0.
        -11    1    4    4    0    0  0.16324842170E+02  0.43293354118E+02 -0.58703713142E+02  0.74745842156E+02  0.51100000000E-03 0. -1.
         11    1    4    4    0    0  0.54742345220E+02 -0.24029418420E+02 -0.76192529088E+01  0.60267655711E+02  0.51100000000E-03 0.  1.
    9000005    1    3    3    0    0 -0.99291040353E+02 -0.11943181247E+02 -0.19963690115E+03  0.22328735426E+03  0.10000000000E+01 0.  0.
    9000005    1    3    3    0    0  0.28223852964E+02 -0.73207544514E+01 -0.84397614576E+01  0.30371185280E+02  0.10000000000E+01 0.  0.
<mgrwt>
<rscale>  0 0.13765654E+03</rscale>
<asrwt>0</asrwt>
<pdfrwt beam="1">  1        1 0.87901855E-02 0.14507501E+03</pdfrwt>
<pdfrwt beam="2">  1       -1 0.51005512E-01 0.14507501E+03</pdfrwt>
<totfact> 0.29293163E+03</totfact>
</mgrwt>
</event>
<event>
 8    2  0.1409546E-003  0.1463551E+03  0.7818608E-02  0.1216140E+00
          1   -1    0    0  501    0  0.00000000000E+00  0.00000000000E+00  0.52027307570E+03  0.52027307573E+03  0.50400000000E-02 0.  1.
         -1   -1    0    0    0  501 -0.00000000000E+00 -0.00000000000E+00 -0.33249306824E+02  0.33249307206E+02  0.50400000000E-02 0. -1.
         25    2    1    2    0    0 -0.76028947927E+02 -0.37108402470E+01  0.29857921596E+03  0.33251973633E+03  0.12500262234E+03 0.  0.
         23    2    1    2    0    0  0.76028947927E+02  0.37108402470E+01  0.18844455292E+03  0.22100264660E+03  0.86813875734E+02 0.  0.
        -11    1    4    4    0    0  0.42650301136E+02  0.43604319168E+02  0.78826496687E+02  0.99669460806E+02  0.51100000000E-03 0. -1.
         11    1    4    4    0    0  0.33378646791E+02 -0.39893478921E+02  0.10961805623E+03  0.12133318579E+03  0.51100000000E-03 0.  1.
    9000005    1    3    3    0    0 -0.95005618356E+02 -0.34562001154E+02  0.26289055172E+03  0.28166121782E+03  0.10000000000E+01 0.  0.
    9000005    1    3    3    0    0  0.18976670429E+02  0.30851160907E+02  0.35688664239E+02  0.50858518510E+02  0.10000000000E+01 0.  0.
<mgrwt>
<rscale>  0 0.13793138E+03</rscale>
<asrwt>0</asrwt>
<pdfrwt beam="1">  1        1 0.80042011E-01 0.14635514E+03</pdfrwt>
<pdfrwt beam="2">  1       -1 0.51152780E-02 0.14635514E+03</pdfrwt>
<totfact> 0.70106910E+03</totfact>
</mgrwt>
</event>
<event>
 8    2  0.1409546E-003  0.3060823E+03  0.7818608E-02  0.1083712E+00
          1   -1    0    0  501    0  0.00000000000E+00  0.00000000000E+00  0.28035579181E+03  0.28035579185E+03  0.50400000000E-02 0. -1.
         -1   -1    0    0    0  501 -0.00000000000E+00 -0.00000000000E+00 -0.37125233305E+03  0.37125233309E+03  0.50400000000E-02 0.  1.
         25    2    1    2    0    0  0.22989308606E+03  0.15877877660E+03  0.73185483921E+02  0.31471017366E+03  0.12499938972E+03 0.  0.
         23    2    1    2    0    0 -0.22989308606E+03 -0.15877877660E+03 -0.16408202517E+03  0.33689795128E+03  0.92281025546E+02 0.  0.
        -11    1    4    4    0    0 -0.19592564661E+03 -0.10605251800E+03 -0.15952675573E+03  0.27401237448E+03  0.51100000000E-03 0.  1.
         11    1    4    4    0    0 -0.33967439451E+02 -0.52726258609E+02 -0.45552694324E+01  0.62885576801E+02  0.51100000000E-03 0. -1.
    9000005    1    3    3    0    0  0.16075147655E+03  0.12024420419E+03  0.10831195443E+03  0.22810564510E+03  0.10000000000E+01 0.  0.
    9000005    1    3    3    0    0  0.69141609504E+02  0.38534572417E+02 -0.35126470511E+02  0.86604528558E+02  0.10000000000E+01 0.  0.
<mgrwt>
<rscale>  0 0.30307784E+03</rscale>
<asrwt>0</asrwt>
<pdfrwt beam="1">  1        1 0.43131660E-01 0.30608231E+03</pdfrwt>
<pdfrwt beam="2">  1       -1 0.57115744E-01 0.30608231E+03</pdfrwt>
<totfact> 0.30645292E+02</totfact>
</mgrwt>
</event>
<event>
 8    2  0.1409546E-003  0.1408263E+03  0.7818608E-02  0.1224678E+00
          1   -1    0    0  501    0  0.00000000000E+00  0.00000000000E+00  0.17282423691E+03  0.17282423698E+03  0.50400000000E-02 0. -1.
         -1   -1    0    0    0  501 -0.00000000000E+00 -0.00000000000E+00 -0.90066203908E+02  0.90066204049E+02  0.50400000000E-02 0.  1.
         25    2    1    2    0    0  0.45265756690E+02  0.46457606724E+02  0.53725937659E+02  0.15072664519E+03  0.12499898896E+03 0.  0.
         23    2    1    2    0    0 -0.45265756690E+02 -0.46457606724E+02  0.29032095339E+02  0.11216379584E+03  0.86778779586E+02 0.  0.
        -11    1    4    4    0    0 -0.51319393186E+02  0.79134767733E+01  0.24066111329E+02  0.57231817605E+02  0.51100000000E-03 0.  1.
         11    1    4    4    0    0  0.60536364957E+01 -0.54371083497E+02  0.49659840101E+01  0.54931978236E+02  0.51100000000E-03 0. -1.
    9000005    1    3    3    0    0  0.61628880016E+02 -0.96009798441E+00 -0.17061790326E+02  0.63962061640E+02  0.10000000000E+01 0.  0.
    9000005    1    3    3    0    0 -0.16363123326E+02  0.47417704708E+02  0.70787727985E+02  0.86764583547E+02  0.10000000000E+01 0.  0.
<mgrwt>
<rscale>  0 0.13188986E+03</rscale>
<asrwt>0</asrwt>
<pdfrwt beam="1">  1        1 0.26588344E-01 0.14082629E+03</pdfrwt>
<pdfrwt beam="2">  1       -1 0.13856339E-01 0.14082629E+03</pdfrwt>
<totfact> 0.61503138E+03</totfact>
</mgrwt>
</event>
<event>
 8    2  0.1409546E-003  0.1365576E+03  0.7818608E-02  0.1230423E+00
         -1   -1    0    0    0  501 -0.00000000000E+00  0.00000000000E+00  0.48777211374E+02  0.48777211634E+02  0.50400000000E-02 0.  1.
          1   -1    0    0  501    0  0.00000000000E+00 -0.00000000000E+00 -0.30689355317E+03  0.30689355321E+03  0.50400000000E-02 0. -1.
         25    2    1    2    0    0  0.19634872019E+02  0.51338785382E+02 -0.17122252162E+03  0.21900941575E+03  0.12500709257E+03 0.  0.
         23    2    1    2    0    0 -0.19634872019E+02 -0.51338785382E+02 -0.86893820173E+02  0.13666134909E+03  0.90025492325E+02 0.  0.
        -11    1    4    4    0    0 -0.49170346772E+02 -0.52935031839E+02 -0.76714849065E+02  0.10538030492E+03  0.51100000000E-03 0.  1.
         11    1    4    4    0    0  0.29535474753E+02  0.15962464572E+01 -0.10178971108E+02  0.31281044176E+02  0.51100000000E-03 0. -1.
    9000005    1    3    3    0    0  0.25472906448E+02  0.79243401257E+02 -0.17133111244E+03  0.19048290132E+03  0.10000000000E+01 0.  0.
    9000005    1    3    3    0    0 -0.58380344293E+01 -0.27904615875E+02  0.10859082442E+00  0.28526514423E+02  0.10000000000E+01 0.  0.
<mgrwt>
<rscale>  0 0.12802011E+03</rscale>
<asrwt>0</asrwt>
<pdfrwt beam="2">  1        1 0.47214392E-01 0.13655758E+03</pdfrwt>
<pdfrwt beam="1">  1       -1 0.75041866E-02 0.13655758E+03</pdfrwt>
<totfact> 0.76916280E+03</totfact>
</mgrwt>
</event>
<event>
 8    2  0.1409546E-003  0.1670217E+03  0.7818608E-02  0.1188222E+00
          1   -1    0    0  501    0  0.00000000000E+00  0.00000000000E+00  0.43809007061E+03  0.43809007064E+03  0.50400000000E-02 0. -1.
         -1   -1    0    0    0  501 -0.00000000000E+00 -0.00000000000E+00 -0.73318916296E+02  0.73318916469E+02  0.50400000000E-02 0.  1.
         25    2    1    2    0    0  0.10165273727E+03  0.44023726661E+02  0.32238091717E+03  0.36307809861E+03  0.12499952973E+03 0.  0.
         23    2    1    2    0    0 -0.10165273727E+03 -0.44023726661E+02  0.42390237140E+02  0.14833088849E+03  0.89071615982E+02 0.  0.
        -11    1    4    4    0    0 -0.59332823446E+02  0.22152776714E+02  0.23387685644E+02  0.67513800769E+02  0.51100000000E-03 0.  1.
         11    1    4    4    0    0 -0.42319913821E+02 -0.66176503375E+02  0.19002551496E+02  0.80817087725E+02  0.51100000000E-03 0. -1.
    9000005    1    3    3    0    0  0.18651478016E+02 -0.39748805830E+02  0.13215242201E+03  0.13925913916E+03  0.10000000000E+01 0.  0.
    9000005    1    3    3    0    0  0.83001259252E+02  0.83772532491E+02  0.19022849516E+03  0.22381895945E+03  0.10000000000E+01 0.  0.
<mgrwt>
<rscale>  0 0.16042142E+03</rscale>
<asrwt>0</asrwt>
<pdfrwt beam="1">  1        1 0.67398472E-01 0.16702170E+03</pdfrwt>
<pdfrwt beam="2">  1       -1 0.11279833E-01 0.16702170E+03</pdfrwt>
<totfact> 0.26690545E+03</totfact>
</mgrwt>
</event>
<event>
 8    2  0.1409546E-003  0.1257924E+03  0.7818608E-02  0.1249459E+00
          1   -1    0    0  501    0  0.00000000000E+00  0.00000000000E+00  0.96109793486E+03  0.96109793487E+03  0.50400000000E-02 0. -1.
         -1   -1    0    0    0  501 -0.00000000000E+00 -0.00000000000E+00 -0.12839046146E+02  0.12839047135E+02  0.50400000000E-02 0.  1.
         25    2    1    2    0    0  0.10071746050E+01  0.14058868341E+02  0.44690057864E+03  0.46426700604E+03  0.12500023811E+03 0.  0.
         23    2    1    2    0    0 -0.10071746050E+01 -0.14058868341E+02  0.50135831007E+03  0.50966997596E+03  0.90579595637E+02 0.  0.
        -11    1    4    4    0    0  0.28748627890E+02 -0.30018119925E+02  0.12351281767E+03  0.13031879088E+03  0.51100000000E-03 0.  1.
         11    1    4    4    0    0 -0.29755802495E+02  0.15959251584E+02  0.37784549240E+03  0.37935118508E+03  0.51100000000E-03 0. -1.
    9000005    1    3    3    0    0  0.34684909902E+02 -0.40482520746E+02  0.28848695542E+03  0.29337280192E+03  0.10000000000E+01 0.  0.
    9000005    1    3    3    0    0 -0.33677735297E+02  0.54541389087E+02  0.15841362322E+03  0.17089420412E+03  0.10000000000E+01 0.  0.
<mgrwt>
<rscale>  0 0.11622437E+03</rscale>
<asrwt>0</asrwt>
<pdfrwt beam="1">  1        1 0.14786119E+00 0.12579239E+03</pdfrwt>
<pdfrwt beam="2">  1       -1 0.19752384E-02 0.12579239E+03</pdfrwt>
<totfact> 0.11437893E+04</totfact>
</mgrwt>
</event>
<event>
 8    2  0.1409546E-003  0.1927188E+03  0.7818608E-02  0.1160077E+00
          1   -1    0    0  501    0  0.00000000000E+00  0.00000000000E+00  0.13456670686E+04  0.13456670686E+04  0.50400000000E-02 0. -1.
         -1   -1    0    0    0  501 -0.00000000000E+00 -0.00000000000E+00 -0.29527196174E+02  0.29527196604E+02  0.50400000000E-02 0.  1.
         25    2    1    2    0    0  0.95843158864E+02  0.11103192823E+03  0.42059730569E+03  0.46264742390E+03  0.12500618024E+03 0.  0.
         23    2    1    2    0    0 -0.95843158864E+02 -0.11103192823E+03  0.89554256673E+03  0.91254684131E+03  0.96079386830E+02 0.  0.
        -11    1    4    4    0    0 -0.17633367917E+02 -0.93548995708E+02  0.48220827323E+03  0.49151517681E+03  0.51100000000E-03 0.  1.
         11    1    4    4    0    0 -0.78209790947E+02 -0.17482932521E+02  0.41333429350E+03  0.42103166450E+03  0.51100000000E-03 0. -1.
    9000005    1    3    3    0    0  0.73196659687E+02  0.65429756338E+02  0.10811799352E+03  0.14604555634E+03  0.10000000000E+01 0.  0.
    9000005    1    3    3    0    0  0.22646499177E+02  0.45602171891E+02  0.31247931217E+03  0.31660186756E+03  0.10000000000E+01 0.  0.
<mgrwt>
<rscale>  0 0.18821982E+03</rscale>
<asrwt>0</asrwt>
<pdfrwt beam="1">  1        1 0.20702574E+00 0.19271882E+03</pdfrwt>
<pdfrwt beam="2">  1       -1 0.45426448E-02 0.19271882E+03</pdfrwt>
<totfact> 0.18465989E+03</totfact>
</mgrwt>
</event>
<event>
 8    2  0.1409546E-003  0.1275239E+03  0.7818608E-02  0.1246144E+00
         -1   -1    0    0    0  501 -0.00000000000E+00  0.00000000000E+00  0.39320057257E+03  0.39320057260E+03  0.50400000000E-02 0.  1.
          1   -1    0    0  501    0  0.00000000000E+00 -0.00000000000E+00 -0.41279644588E+02  0.41279644896E+02  0.50400000000E-02 0. -1.
         25    2    1    2    0    0  0.25306642079E+02  0.17912609060E+01  0.30243549705E+03  0.32822184842E+03  0.12497486609E+03 0.  0.
         23    2    1    2    0    0 -0.25306642079E+02 -0.17912609060E+01  0.49485430932E+02  0.10625836908E+03  0.90545007460E+02 0.  0.
        -11    1    4    4    0    0 -0.14261684925E+02  0.16623453641E+02  0.71933268355E+02  0.75193948988E+02  0.51100000000E-03 0.  1.
         11    1    4    4    0    0 -0.11044957153E+02 -0.18414714547E+02 -0.22447837423E+02  0.31064420091E+02  0.51100000000E-03 0. -1.
    9000005    1    3    3    0    0  0.53399762722E+02  0.95515969854E+00  0.29406772634E+03  0.29888003390E+03  0.10000000000E+01 0.  0.
    9000005    1    3    3    0    0 -0.28093120643E+02  0.83610120746E+00  0.83677707109E+01  0.29341814521E+02  0.10000000000E+01 0.  0.
<mgrwt>
<rscale>  0 0.11817151E+03</rscale>
<asrwt>0</asrwt>
<pdfrwt beam="2">  1        1 0.63507145E-02 0.12752393E+03</pdfrwt>
<pdfrwt beam="1">  1       -1 0.60492397E-01 0.12752393E+03</pdfrwt>
<totfact> 0.32757777E+03</totfact>
</mgrwt>
</event>
<event>
 8    2  0.1409546E-003  0.3519352E+03  0.7818608E-02  0.1062952E+00
         -1   -1    0    0    0  501 -0.00000000000E+00  0.00000000000E+00  0.14225678358E+04  0.14225678358E+04  0.50400000000E-02 0.  1.
          1   -1    0    0  501    0  0.00000000000E+00 -0.00000000000E+00 -0.97753600972E+02  0.97753601102E+02  0.50400000000E-02 0. -1.
         25    2    1    2    0    0 -0.20329386940E+03  0.25865977333E+03  0.39039821919E+03  0.52561309857E+03  0.12500033667E+03 0.  0.
         23    2    1    2    0    0  0.20329386940E+03 -0.25865977333E+03  0.93441601565E+03  0.99470833835E+03  0.89878320036E+02 0.  0.
        -11    1    4    4    0    0  0.84792469480E+02 -0.45272665032E+02  0.23358538603E+03  0.25258960716E+03  0.51100000000E-03 0. -1.
         11    1    4    4    0    0  0.11850139992E+03 -0.21338710830E+03  0.70083062961E+03  0.74211873118E+03  0.51100000000E-03 0.  1.
    9000005    1    3    3    0    0 -0.17324222211E+03  0.14713746736E+03  0.19918627250E+03  0.30222255537E+03  0.10000000000E+01 0.  0.
    9000005    1    3    3    0    0 -0.30051647288E+02  0.11152230597E+03  0.19121194669E+03  0.22339054319E+03  0.10000000000E+01 0.  0.
<mgrwt>
<rscale>  0 0.34918033E+03</rscale>
<asrwt>0</asrwt>
<pdfrwt beam="2">  1        1 0.15039015E-01 0.35193516E+03</pdfrwt>
<pdfrwt beam="1">  1       -1 0.21885659E+00 0.35193516E+03</pdfrwt>
<totfact> 0.46095918E+01</totfact>
</mgrwt>
</event>
<event>
 8    2  0.1409546E-003  0.1527794E+03  0.7818608E-02  0.1206043E+00
         -1   -1    0    0    0  501 -0.00000000000E+00  0.00000000000E+00  0.63898904455E+03  0.63898904457E+03  0.50400000000E-02 0.  1.
          1   -1    0    0  501    0  0.00000000000E+00 -0.00000000000E+00 -0.30513228141E+02  0.30513228557E+02  0.50400000000E-02 0. -1.
         25    2    1    2    0    0  0.40112791984E+02  0.78150890184E+02  0.35564834335E+03  0.38707528460E+03  0.12499973641E+03 0.  0.
         23    2    1    2    0    0 -0.40112791984E+02 -0.78150890184E+02  0.25282747306E+03  0.28242698853E+03  0.90148072626E+02 0.  0.
        -11    1    4    4    0    0 -0.25886997484E+02  0.36452869335E+01  0.14159454249E+02  0.29730706357E+02  0.51100000000E-03 0. -1.
         11    1    4    4    0    0 -0.14225794499E+02 -0.81796177118E+02  0.23866801881E+03  0.25269628217E+03  0.51100000000E-03 0.  1.
    9000005    1    3    3    0    0 -0.42958257744E+02  0.10473855959E+02  0.12905084576E+03  0.13641933279E+03  0.10000000000E+01 0.  0.
    9000005    1    3    3    0    0  0.83071049727E+02  0.67677034225E+02  0.22659749759E+03  0.25065595181E+03  0.10000000000E+01 0.  0.
<mgrwt>
<rscale>  0 0.14555567E+03</rscale>
<asrwt>0</asrwt>
<pdfrwt beam="2">  1        1 0.46943427E-02 0.15277936E+03</pdfrwt>
<pdfrwt beam="1">  1       -1 0.98306010E-01 0.15277936E+03</pdfrwt>
<totfact> 0.18602443E+03</totfact>
</mgrwt>
</event>
<event>
 8    2  0.1409546E-003  0.1519438E+03  0.7818608E-02  0.1207631E+00
         -1   -1    0    0    0  501 -0.00000000000E+00  0.00000000000E+00  0.82360895551E+02  0.82360895705E+02  0.50400000000E-02 0.  1.
          1   -1    0    0  501    0  0.00000000000E+00 -0.00000000000E+00 -0.23293116014E+03  0.23293116019E+03  0.50400000000E-02 0. -1.
         25    2    1    2    0    0  0.55235857832E+02  0.66416181504E+02 -0.67163218138E+02  0.16612587867E+03  0.12499920215E+03 0.  0.
         23    2    1    2    0    0 -0.55235857832E+02 -0.66416181504E+02 -0.83407046448E+02  0.14916617722E+03  0.88496914490E+02 0.  0.
        -11    1    4    4    0    0 -0.67297444971E+02 -0.13483918170E+02 -0.38398144091E+02  0.78645912918E+02  0.51100000000E-03 0. -1.
         11    1    4    4    0    0  0.12061587139E+02 -0.52932263334E+02 -0.45008902357E+02  0.70520264305E+02  0.51100000000E-03 0.  1.
    9000005    1    3    3    0    0  0.56033735400E+02 -0.24143952214E+02 -0.21520576531E+02  0.64705835483E+02  0.10000000000E+01 0.  0.
    9000005    1    3    3    0    0 -0.79787756814E+00  0.90560133718E+02 -0.45642641608E+02  0.10142004319E+03  0.10000000000E+01 0.  0.
<mgrwt>
<rscale>  0 0.14432004E+03</rscale>
<asrwt>0</asrwt>
<pdfrwt beam="2">  1        1 0.35835563E-01 0.15194377E+03</pdfrwt>
<pdfrwt beam="1">  1       -1 0.12670907E-01 0.15194377E+03</pdfrwt>
<totfact> 0.48960840E+03</totfact>
</mgrwt>
</event>
<event>
 8    2  0.1409546E-003  0.1445248E+03  0.7818608E-02  0.1216014E+00
         -1   -1    0    0    0  501 -0.00000000000E+00  0.00000000000E+00  0.52520332552E+03  0.52520332555E+03  0.50400000000E-02 0.  1.
          1   -1    0    0  501    0  0.00000000000E+00 -0.00000000000E+00 -0.33626343932E+02  0.33626344310E+02  0.50400000000E-02 0. -1.
         25    2    1    2    0    0  0.57773584032E+02 -0.43845195632E+02  0.29278852983E+03  0.32651576208E+03  0.12500892566E+03 0.  0.
         23    2    1    2    0    0 -0.57773584032E+02  0.43845195632E+02  0.19878845176E+03  0.23231390778E+03  0.95878647262E+02 0.  0.
        -11    1    4    4    0    0 -0.16490127114E+02 -0.93453842177E+01  0.14473169351E+03  0.14596754299E+03  0.51100000000E-03 0.  1.
         11    1    4    4    0    0 -0.41283456918E+02  0.53190579849E+02  0.54056758251E+02  0.86346364791E+02  0.51100000000E-03 0. -1.
    9000005    1    3    3    0    0  0.75993155834E+02 -0.75586635087E+02  0.20328010117E+03  0.22980883070E+03  0.10000000000E+01 0.  0.
    9000005    1    3    3    0    0 -0.18219571802E+02  0.31741439455E+02  0.89508428661E+02  0.96706931379E+02  0.10000000000E+01 0.  0.
<mgrwt>
<rscale>  0 0.13802291E+03</rscale>
<asrwt>0</asrwt>
<pdfrwt beam="2">  1        1 0.51732839E-02 0.14452481E+03</pdfrwt>
<pdfrwt beam="1">  1       -1 0.80800508E-01 0.14452481E+03</pdfrwt>
<totfact> 0.24615785E+03</totfact>
</mgrwt>
</event>
<event>
 8    2  0.1409546E-003  0.1347844E+03  0.7818608E-02  0.1232660E+00
          1   -1    0    0  501    0  0.00000000000E+00  0.00000000000E+00  0.34937209933E+03  0.34937209937E+03  0.50400000000E-02 0. -1.
         -1   -1    0    0    0  501 -0.00000000000E+00 -0.00000000000E+00 -0.41063250004E+02  0.41063250314E+02  0.50400000000E-02 0.  1.
         25    2    1    2    0    0  0.49855725555E+02  0.74785823753E+01  0.17520119140E+03  0.22104816158E+03  0.12500123883E+03 0.  0.
         23    2    1    2    0    0 -0.49855725555E+02 -0.74785823753E+01  0.13310765793E+03  0.16938718810E+03  0.91830541361E+02 0.  0.
        -11    1    4    4    0    0 -0.55144277368E+02 -0.34088971852E+02  0.12542568339E+03  0.14118977081E+03  0.51100000000E-03 0. -1.
         11    1    4    4    0    0  0.52885518126E+01  0.26610389476E+02  0.76819745410E+01  0.28197417283E+02  0.51100000000E-03 0.  1.
    9000005    1    3    3    0    0 -0.19108442684E+01  0.42507325333E+02  0.14595232498E+03  0.15203159277E+03  0.10000000000E+01 0.  0.
    9000005    1    3    3    0    0  0.51766569823E+02 -0.35028742957E+02  0.29248866416E+02  0.69016568815E+02  0.10000000000E+01 0.  0.
<mgrwt>
<rscale>  0 0.12655437E+03</rscale>
<asrwt>0</asrwt>
<pdfrwt beam="1">  1        1 0.53749556E-01 0.13478439E+03</pdfrwt>
<pdfrwt beam="2">  1       -1 0.63174228E-02 0.13478439E+03</pdfrwt>
<totfact> 0.84662906E+03</totfact>
</mgrwt>
</event>
<event>
 8    2  0.1409546E-003  0.1963294E+03  0.7818608E-02  0.1157244E+00
          1   -1    0    0  501    0  0.00000000000E+00  0.00000000000E+00  0.72022517232E+03  0.72022517234E+03  0.50400000000E-02 0. -1.
         -1   -1    0    0    0  501 -0.00000000000E+00 -0.00000000000E+00 -0.52339609953E+02  0.52339610196E+02  0.50400000000E-02 0.  1.
         25    2    1    2    0    0 -0.11372090417E+03 -0.99974188909E+02  0.24427151919E+03  0.31339081423E+03  0.12497177626E+03 0.  0.
         23    2    1    2    0    0  0.11372090417E+03  0.99974188909E+02  0.42361404318E+03  0.45917396831E+03  0.92003223309E+02 0.  0.
        -11    1    4    4    0    0  0.25862235670E+02  0.24581453867E+02  0.23623783984E+03  0.23891718248E+03  0.51100000000E-03 0. -1.
         11    1    4    4    0    0  0.87858668503E+02  0.75392735043E+02  0.18737620334E+03  0.22025678583E+03  0.51100000000E-03 0.  1.
    9000005    1    3    3    0    0  0.87341524317E+01 -0.22437240536E+02  0.12021820268E+03  0.12260967106E+03  0.10000000000E+01 0.  0.
    9000005    1    3    3    0    0 -0.12245505660E+03 -0.77536948373E+02  0.12405331650E+03  0.19078114316E+03  0.10000000000E+01 0.  0.
<mgrwt>
<rscale>  0 0.19135558E+03</rscale>
<asrwt>0</asrwt>
<pdfrwt beam="1">  1        1 0.11080386E+00 0.19632938E+03</pdfrwt>
<pdfrwt beam="2">  1       -1 0.80522485E-02 0.19632938E+03</pdfrwt>
<totfact> 0.22870124E+03</totfact>
</mgrwt>
</event>
<event>
 8    2  0.1409546E-003  0.1255720E+03  0.7818608E-02  0.1247676E+00
          1   -1    0    0  501    0  0.00000000000E+00  0.00000000000E+00  0.30896872258E+04  0.30896872258E+04  0.50400000000E-02 0. -1.
         -1   -1    0    0    0  501 -0.00000000000E+00 -0.00000000000E+00 -0.46895026833E+01  0.46895053916E+01  0.50400000000E-02 0.  1.
         25    2    1    2    0    0 -0.17986189278E+01 -0.11851050021E+02  0.11117470177E+04  0.11188162321E+04  0.12499858956E+03 0.  0.
         23    2    1    2    0    0  0.17986189278E+01  0.11851050021E+02  0.19732507054E+04  0.19755604991E+04  0.94748386834E+02 0.  0.
        -11    1    4    4    0    0  0.13145080801E+02  0.82046342731E+01  0.51685097226E+02  0.53957932210E+02  0.51100000000E-03 0.  1.
         11    1    4    4    0    0 -0.11346461873E+02  0.36464157477E+01  0.19215656081E+04  0.19216025668E+04  0.51100000000E-03 0. -1.
    9000005    1    3    3    0    0  0.34933765973E+02 -0.16105011679E+02  0.10068999007E+04  0.10076349287E+04  0.10000000000E+01 0.  0.
    9000005    1    3    3    0    0 -0.36732384900E+02  0.42539616585E+01  0.10484711702E+03  0.11118130346E+03  0.10000000000E+01 0.  0.
<mgrwt>
<rscale>  0 0.11726667E+03</rscale>
<asrwt>0</asrwt>
<pdfrwt beam="1">  1        1 0.47533596E+00 0.12557201E+03</pdfrwt>
<pdfrwt beam="2">  1       -1 0.72146297E-03 0.12557201E+03</pdfrwt>
<totfact> 0.19089903E+03</totfact>
</mgrwt>
</event>
<event>
 8    2  0.1409546E-003  0.1831667E+03  0.7818608E-02  0.1170015E+00
         -1   -1    0    0    0  501 -0.00000000000E+00  0.00000000000E+00  0.16344426413E+02  0.16344427190E+02  0.50400000000E-02 0.  1.
          1   -1    0    0  501    0  0.00000000000E+00 -0.00000000000E+00 -0.18350104718E+04  0.18350104718E+04  0.50400000000E-02 0. -1.
         25    2    1    2    0    0 -0.22801432878E+02  0.13192845543E+03 -0.90036699433E+03  0.91880942323E+03  0.12500003616E+03 0.  0.
         23    2    1    2    0    0  0.22801432878E+02 -0.13192845543E+03 -0.91829905106E+03  0.93254547577E+03  0.91885224660E+02 0.  0.
        -11    1    4    4    0    0  0.30803604794E+02 -0.30236200223E+02 -0.11568330730E+03  0.12347354963E+03  0.51100000000E-03 0.  1.
         11    1    4    4    0    0 -0.80021719153E+01 -0.10169225521E+03 -0.80261574376E+03  0.80907192614E+03  0.51100000000E-03 0. -1.
    9000005    1    3    3    0    0 -0.40599598771E+02  0.13437083218E+03 -0.53849951493E+03  0.55649490163E+03  0.10000000000E+01 0.  0.
    9000005    1    3    3    0    0  0.17798165892E+02 -0.24423767463E+01 -0.36186747941E+03  0.36231452160E+03  0.10000000000E+01 0.  0.
<mgrwt>
<rscale>  0 0.17773351E+03</rscale>
<asrwt>0</asrwt>
<pdfrwt beam="2">  1        1 0.28230914E+00 0.18316668E+03</pdfrwt>
<pdfrwt beam="1">  1       -1 0.25145287E-02 0.18316668E+03</pdfrwt>
<totfact> 0.21163520E+03</totfact>
</mgrwt>
</event>
<event>
 8    2  0.1409546E-003  0.1656287E+03  0.7818608E-02  0.1189333E+00
          1   -1    0    0  501    0  0.00000000000E+00  0.00000000000E+00  0.11659298826E+04  0.11659298826E+04  0.50400000000E-02 0. -1.
         -1   -1    0    0    0  501 -0.00000000000E+00 -0.00000000000E+00 -0.20464400846E+02  0.20464401466E+02  0.50400000000E-02 0.  1.
         25    2    1    2    0    0 -0.10831958954E+03 -0.86845343868E+01  0.56642093689E+03  0.59014028885E+03  0.12499731258E+03 0.  0.
         23    2    1    2    0    0  0.10831958954E+03  0.86845343868E+01  0.57904454483E+03  0.59625399520E+03  0.91747955179E+02 0.  0.
        -11    1    4    4    0    0  0.86954212153E+02 -0.27490155171E+02  0.48128627442E+03  0.48985020321E+03  0.51100000000E-03 0. -1.
         11    1    4    4    0    0  0.21365377389E+02  0.36174689558E+02  0.97758270414E+02  0.10640379199E+03  0.51100000000E-03 0.  1.
    9000005    1    3    3    0    0 -0.42488168058E+02 -0.64405612800E+02  0.31585924809E+03  0.32514826155E+03  0.10000000000E+01 0.  0.
    9000005    1    3    3    0    0 -0.65831421484E+02  0.55721078413E+02  0.25056168880E+03  0.26499202729E+03  0.10000000000E+01 0.  0.
<mgrwt>
<rscale>  0 0.15943776E+03</rscale>
<asrwt>0</asrwt>
<pdfrwt beam="1">  1        1 0.17937384E+00 0.16562875E+03</pdfrwt>
<pdfrwt beam="2">  1       -1 0.31483692E-02 0.16562875E+03</pdfrwt>
<totfact> 0.41980077E+03</totfact>
</mgrwt>
</event>
<event>
 8    2  0.1409546E-003  0.1974129E+03  0.7818608E-02  0.1156481E+00
          1   -1    0    0  501    0  0.00000000000E+00  0.00000000000E+00  0.25391236582E+03  0.25391236587E+03  0.50400000000E-02 0. -1.
         -1   -1    0    0    0  501 -0.00000000000E+00 -0.00000000000E+00 -0.15868347550E+03  0.15868347558E+03  0.50400000000E-02 0.  1.
         25    2    1    2    0    0 -0.96125033865E+02 -0.11877200522E+03 -0.23958109894E+02  0.19886140627E+03  0.12500022606E+03 0.  0.
         23    2    1    2    0    0  0.96125033865E+02  0.11877200522E+03  0.11918700022E+03  0.21373443517E+03  0.90166825373E+02 0.  0.
        -11    1    4    4    0    0  0.96936233379E+01  0.22551548802E+02  0.71977806532E+02  0.76048295971E+02  0.51100000000E-03 0. -1.
         11    1    4    4    0    0  0.86431410527E+02  0.96220456421E+02  0.47209193685E+02  0.13768613920E+03  0.51100000000E-03 0.  1.
    9000005    1    3    3    0    0 -0.10822569065E+03 -0.12124450037E+03 -0.49983798584E+02  0.17003649346E+03  0.10000000000E+01 0.  0.
    9000005    1    3    3    0    0  0.12100656787E+02  0.24724951484E+01  0.26025688690E+02  0.28824912814E+02  0.10000000000E+01 0.  0.
<mgrwt>
<rscale>  0 0.19221207E+03</rscale>
<asrwt>0</asrwt>
<pdfrwt beam="1">  1        1 0.39063441E-01 0.19741294E+03</pdfrwt>
<pdfrwt beam="2">  1       -1 0.24412843E-01 0.19741294E+03</pdfrwt>
<totfact> 0.15568731E+03</totfact>
</mgrwt>
</event>
<event>
 8    2  0.1409546E-003  0.1345864E+03  0.7818608E-02  0.1233008E+00
         -1   -1    0    0    0  501 -0.00000000000E+00  0.00000000000E+00  0.15669048789E+02  0.15669049600E+02  0.50400000000E-02 0.  1.
          1   -1    0    0  501    0  0.00000000000E+00 -0.00000000000E+00 -0.92388069807E+03  0.92388069809E+03  0.50400000000E-02 0. -1.
         25    2    1    2    0    0 -0.18333521202E+02  0.46397594461E+02 -0.45727049920E+03  0.47666529013E+03  0.12499853840E+03 0.  0.
         23    2    1    2    0    0  0.18333521202E+02 -0.46397594461E+02 -0.45094115008E+03  0.46288445756E+03  0.91789135741E+02 0.  0.
        -11    1    4    4    0    0  0.54258250404E+02 -0.40554033555E+02 -0.31055274514E+03  0.31785467574E+03  0.51100000000E-03 0.  1.
         11    1    4    4    0    0 -0.35924729201E+02 -0.58435609060E+01 -0.14038840494E+03  0.14502978181E+03  0.51100000000E-03 0. -1.
    9000005    1    3    3    0    0 -0.36615924975E+02 -0.53518367039E+01 -0.35339845518E+02  0.51178831553E+02  0.10000000000E+01 0.  0.
    9000005    1    3    3    0    0  0.18282403773E+02  0.51749431165E+02 -0.42193065369E+03  0.42548645858E+03  0.10000000000E+01 0.  0.
<mgrwt>
<rscale>  0 0.12632790E+03</rscale>
<asrwt>0</asrwt>
<pdfrwt beam="2">  1        1 0.14213545E+00 0.13458636E+03</pdfrwt>
<pdfrwt beam="1">  1       -1 0.24106237E-02 0.13458636E+03</pdfrwt>
<totfact> 0.91870168E+03</totfact>
</mgrwt>
</event>
<event>
 8    2  0.1409546E-003  0.1555881E+03  0.7818608E-02  0.1202148E+00
         -1   -1    0    0    0  501 -0.00000000000E+00  0.00000000000E+00  0.37451428119E+02  0.37451428458E+02  0.50400000000E-02 0.  1.
          1   -1    0    0  501    0  0.00000000000E+00 -0.00000000000E+00 -0.55344216180E+03  0.55344216182E+03  0.50400000000E-02 0. -1.
         25    2    1    2    0    0 -0.43870686793E+02  0.81592463391E+02 -0.32148132009E+03  0.35715247099E+03  0.12500272448E+03 0.  0.
         23    2    1    2    0    0  0.43870686793E+02 -0.81592463391E+02 -0.19450941359E+03  0.23374111929E+03  0.90658875066E+02 0.  0.
        -11    1    4    4    0    0 -0.11598224812E+02 -0.27337162319E+02 -0.65689419420E+01  0.30413652542E+02  0.51100000000E-03 0.  1.
         11    1    4    4    0    0  0.55468911605E+02 -0.54255301072E+02 -0.18794047165E+03  0.20332746674E+03  0.51100000000E-03 0. -1.
    9000005    1    3    3    0    0 -0.12226525020E+02  0.48199706136E+02 -0.30381990334E+03  0.30786398498E+03  0.10000000000E+01 0.  0.
    9000005    1    3    3    0    0 -0.31644161772E+02  0.33392757255E+02 -0.17661416751E+02  0.49288486009E+02  0.10000000000E+01 0.  0.
<mgrwt>
<rscale>  0 0.14864459E+03</rscale>
<asrwt>0</asrwt>
<pdfrwt beam="2">  1        1 0.85144942E-01 0.15558807E+03</pdfrwt>
<pdfrwt beam="1">  1       -1 0.57617586E-02 0.15558807E+03</pdfrwt>
<totfact> 0.54280836E+03</totfact>
</mgrwt>
</event>
<event>
 8    2  0.1409546E-003  0.1436648E+03  0.7818608E-02  0.1223209E+00
          1   -1    0    0  501    0  0.00000000000E+00  0.00000000000E+00  0.15844032009E+04  0.15844032009E+04  0.50400000000E-02 0. -1.
         -1   -1    0    0    0  501 -0.00000000000E+00 -0.00000000000E+00 -0.10811861025E+02  0.10811862200E+02  0.50400000000E-02 0.  1.
         25    2    1    2    0    0 -0.69634441494E+02 -0.12892990164E+02  0.11411023266E+04  0.11501104711E+04  0.12499756578E+03 0.  0.
         23    2    1    2    0    0  0.69634441494E+02  0.12892990164E+02  0.43248901333E+03  0.44510459200E+03  0.77821375838E+02 0.  0.
        -11    1    4    4    0    0  0.34434173904E+02 -0.91550006679E+00  0.49801571907E+02  0.60553670719E+02  0.51100000000E-03 0.  1.
         11    1    4    4    0    0  0.35200267589E+02  0.13808490231E+02  0.38268744142E+03  0.38455092128E+03  0.51100000000E-03 0. -1.
    9000005    1    3    3    0    0 -0.29846740094E+02  0.54066955667E+02  0.37432775254E+03  0.37938941724E+03  0.10000000000E+01 0.  0.
    9000005    1    3    3    0    0 -0.39787701400E+02 -0.66959945831E+02  0.76677457403E+03  0.77072105388E+03  0.10000000000E+01 0.  0.
<mgrwt>
<rscale>  0 0.13290394E+03</rscale>
<asrwt>0</asrwt>
<pdfrwt beam="1">  1        1 0.24375435E+00 0.14366480E+03</pdfrwt>
<pdfrwt beam="2">  1       -1 0.16633632E-02 0.14366480E+03</pdfrwt>
<totfact> 0.55626799E+03</totfact>
</mgrwt>
</event>
<event>
 8    2  0.1409546E-003  0.1369016E+03  0.7818608E-02  0.1229798E+00
         -1   -1    0    0    0  501 -0.00000000000E+00  0.00000000000E+00  0.45343199560E+02  0.45343199840E+02  0.50400000000E-02 0.  1.
          1   -1    0    0  501    0  0.00000000000E+00 -0.00000000000E+00 -0.36177218996E+03  0.36177218999E+03  0.50400000000E-02 0. -1.
         25    2    1    2    0    0  0.49414470014E+02  0.25982909532E+02 -0.11223912663E+03  0.17703015066E+03  0.12500060504E+03 0.  0.
         23    2    1    2    0    0 -0.49414470014E+02 -0.25982909532E+02 -0.20418986377E+03  0.23008523918E+03  0.90159943360E+02 0.  0.
        -11    1    4    4    0    0 -0.27801511450E+01 -0.24523710171E+02 -0.17113507808E+03  0.17290562903E+03  0.51100000000E-03 0. -1.
         11    1    4    4    0    0 -0.46634318869E+02 -0.14591993611E+01 -0.33054785686E+02  0.57179610143E+02  0.51100000000E-03 0.  1.
    9000005    1    3    3    0    0  0.34705070722E+02 -0.53009159038E+01  0.19949678852E+02  0.40392218676E+02  0.10000000000E+01 0.  0.
    9000005    1    3    3    0    0  0.14709399291E+02  0.31283825436E+02 -0.13218880548E+03  0.13663793198E+03  0.10000000000E+01 0.  0.
<mgrwt>
<rscale>  0 0.12843395E+03</rscale>
<asrwt>0</asrwt>
<pdfrwt beam="2">  1        1 0.55657258E-01 0.13690162E+03</pdfrwt>
<pdfrwt beam="1">  1       -1 0.69758771E-02 0.13690162E+03</pdfrwt>
<totfact> 0.69953379E+03</totfact>
</mgrwt>
</event>
<event>
 8    2  0.1409546E-003  0.1312797E+03  0.7818608E-02  0.1233840E+00
          1   -1    0    0  501    0  0.00000000000E+00  0.00000000000E+00  0.87709027255E+03  0.87709027256E+03  0.50400000000E-02 0. -1.
         -1   -1    0    0    0  501 -0.00000000000E+00 -0.00000000000E+00 -0.27079700732E+02  0.27079701201E+02  0.50400000000E-02 0.  1.
         25    2    1    2    0    0 -0.31017583781E+02  0.25406214153E+02  0.16784780989E+03  0.21308974672E+03  0.12500714641E+03 0.  0.
         23    2    1    2    0    0  0.31017583781E+02 -0.25406214153E+02  0.68216276193E+03  0.69108022704E+03  0.10314203907E+03 0.  0.
        -11    1    4    4    0    0 -0.19571435749E+02  0.24415983932E+02  0.10491856786E+03  0.10948555727E+03  0.51100000000E-03 0.  1.
         11    1    4    4    0    0  0.50589019530E+02 -0.49822198085E+02  0.57724419407E+03  0.58159466977E+03  0.51100000000E-03 0. -1.
    9000005    1    3    3    0    0 -0.63533787309E+02  0.43018541639E+02  0.15665738583E+03  0.17444103184E+03  0.10000000000E+01 0.  0.
    9000005    1    3    3    0    0  0.32516203528E+02 -0.17612327486E+02  0.11190424057E+02  0.38648714881E+02  0.10000000000E+01 0.  0.
<mgrwt>
<rscale>  0 0.12579017E+03</rscale>
<asrwt>0</asrwt>
<pdfrwt beam="1">  1        1 0.13493696E+00 0.13127967E+03</pdfrwt>
<pdfrwt beam="2">  1       -1 0.41661079E-02 0.13127967E+03</pdfrwt>
<totfact> 0.44895002E+03</totfact>
</mgrwt>
</event>
<event>
 8    2  0.1409546E-003  0.1532581E+03  0.7818608E-02  0.1207196E+00
         -1   -1    0    0    0  501 -0.00000000000E+00  0.00000000000E+00  0.39957648839E+02  0.39957649157E+02  0.50400000000E-02 0.  1.
          1   -1    0    0  501    0  0.00000000000E+00 -0.00000000000E+00 -0.66761480831E+03  0.66761480833E+03  0.50400000000E-02 0. -1.
         25    2    1    2    0    0  0.61299897168E+02 -0.64079033360E+02 -0.52959108653E+03  0.55132093945E+03  0.12499703767E+03 0.  0.
         23    2    1    2    0    0 -0.61299897168E+02  0.64079033360E+02 -0.98066072939E+02  0.15625151804E+03  0.83269336009E+02 0.  0.
        -11    1    4    4    0    0 -0.33696813159E+02 -0.15720893817E+02 -0.28600840159E+02  0.46910870569E+02  0.51100000000E-03 0. -1.
         11    1    4    4    0    0 -0.27603084009E+02  0.79799927177E+02 -0.69465232780E+02  0.10934064747E+03  0.51100000000E-03 0.  1.
    9000005    1    3    3    0    0  0.50256374539E+02 -0.55256458774E+02 -0.11911286024E+03  0.14059819662E+03  0.10000000000E+01 0.  0.
    9000005    1    3    3    0    0  0.11043522629E+02 -0.88225745865E+01 -0.41047822630E+03  0.41072274283E+03  0.10000000000E+01 0.  0.
<mgrwt>
<rscale>  0 0.14465769E+03</rscale>
<asrwt>0</asrwt>
<pdfrwt beam="2">  1        1 0.10270996E+00 0.15325815E+03</pdfrwt>
<pdfrwt beam="1">  1       -1 0.61473311E-02 0.15325815E+03</pdfrwt>
<totfact> 0.38055266E+03</totfact>
</mgrwt>
</event>
<event>
 8    2  0.1409546E-003  0.1317752E+03  0.7818608E-02  0.1240052E+00
         -1   -1    0    0    0  501 -0.00000000000E+00  0.00000000000E+00  0.15514296967E+03  0.15514296975E+03  0.50400000000E-02 0.  1.
          1   -1    0    0  501    0  0.00000000000E+00 -0.00000000000E+00 -0.86929629912E+02  0.86929630058E+02  0.50400000000E-02 0. -1.
         25    2    1    2    0    0 -0.26872313072E+02 -0.31907386216E+02  0.61597069682E+02  0.14546102079E+03  0.12499802827E+03 0.  0.
         23    2    1    2    0    0  0.26872313072E+02  0.31907386216E+02  0.66162700749E+01  0.96611579017E+02  0.86889698270E+02 0.  0.
        -11    1    4    4    0    0  0.56972799933E+02  0.16995082215E+02 -0.79776642816E+01  0.59986464135E+02  0.51100000000E-03 0. -1.
         11    1    4    4    0    0 -0.30100486861E+02  0.14912304000E+02  0.14593934357E+02  0.36625114882E+02  0.51100000000E-03 0.  1.
    9000005    1    3    3    0    0 -0.31323428939E+02 -0.78605216725E+02  0.43735025725E+02  0.95255917255E+02  0.10000000000E+01 0.  0.
    9000005    1    3    3    0    0  0.44511158670E+01  0.46697830510E+02  0.17862043958E+02  0.50205103536E+02  0.10000000000E+01 0.  0.
<mgrwt>
<rscale>  0 0.12186456E+03</rscale>
<asrwt>0</asrwt>
<pdfrwt beam="2">  1        1 0.13373789E-01 0.13177522E+03</pdfrwt>
<pdfrwt beam="1">  1       -1 0.23868149E-01 0.13177522E+03</pdfrwt>
<totfact> 0.61888775E+03</totfact>
</mgrwt>
</event>
<event>
 8    2  0.1409546E-003  0.1308561E+03  0.7818608E-02  0.1239960E+00
          1   -1    0    0  501    0  0.00000000000E+00  0.00000000000E+00  0.17416645968E+04  0.17416645968E+04  0.50400000000E-02 0. -1.
         -1   -1    0    0    0  501 -0.00000000000E+00 -0.00000000000E+00 -0.12326307554E+02  0.12326308584E+02  0.50400000000E-02 0.  1.
         25    2    1    2    0    0  0.33467758279E+02 -0.19335151034E+02  0.39704192634E+03  0.41804977853E+03  0.12501754736E+03 0.  0.
         23    2    1    2    0    0 -0.33467758279E+02  0.19335151034E+02  0.13322963629E+04  0.13359411269E+04  0.90725723553E+02 0.  0.
        -11    1    4    4    0    0 -0.56887969272E+02 -0.76944214227E+01  0.59070555769E+03  0.59348841695E+03  0.51100000000E-03 0. -1.
         11    1    4    4    0    0  0.23420210993E+02  0.27029572456E+02  0.74159080525E+03  0.74245270995E+03  0.51100000000E-03 0.  1.
    9000005    1    3    3    0    0  0.33106727464E+02  0.34137456715E+02  0.58915344563E+02  0.75719476882E+02  0.10000000000E+01 0.  0.
    9000005    1    3    3    0    0  0.36103081544E+00 -0.53472607749E+02  0.33812658178E+03  0.34233030165E+03  0.10000000000E+01 0.  0.
<mgrwt>
<rscale>  0 0.12192206E+03</rscale>
<asrwt>0</asrwt>
<pdfrwt beam="1">  1        1 0.26794854E+00 0.13085613E+03</pdfrwt>
<pdfrwt beam="2">  1       -1 0.18963541E-02 0.13085613E+03</pdfrwt>
<totfact> 0.36449483E+03</totfact>
</mgrwt>
</event>
<event>
 8    2  0.1409546E-003  0.1784182E+03  0.7818608E-02  0.1175234E+00
         -1   -1    0    0    0  501 -0.00000000000E+00  0.00000000000E+00  0.18520429380E+03  0.18520429386E+03  0.50400000000E-02 0.  1.
          1   -1    0    0  501    0  0.00000000000E+00 -0.00000000000E+00 -0.18655250885E+03  0.18655250892E+03  0.50400000000E-02 0. -1.
         25    2    1    2    0    0  0.24479868812E+02 -0.12493511662E+03 -0.81742980656E+02  0.19625228209E+03  0.12499998398E+03 0.  0.
         23    2    1    2    0    0 -0.24479868812E+02  0.12493511662E+03  0.80394765598E+02  0.17550452070E+03  0.90169125028E+02 0.  0.
        -11    1    4    4    0    0 -0.30942315541E+02  0.73349806490E+02  0.92586060290E+02  0.12210569014E+03  0.51100000000E-03 0.  1.
         11    1    4    4    0    0  0.64624467289E+01  0.51585310132E+02 -0.12191294693E+02  0.53398830564E+02  0.51100000000E-03 0. -1.
    9000005    1    3    3    0    0 -0.50079054689E+02 -0.66699565587E+02 -0.31813807240E+02  0.89274084140E+02  0.10000000000E+01 0.  0.
    9000005    1    3    3    0    0  0.74558923501E+02 -0.58235551035E+02 -0.49929173416E+02  0.10697819795E+03  0.10000000000E+01 0.  0.
<mgrwt>
<rscale>  0 0.17253058E+03</rscale>
<asrwt>0</asrwt>
<pdfrwt beam="2">  1        1 0.28700386E-01 0.17841817E+03</pdfrwt>
<pdfrwt beam="1">  1       -1 0.28492968E-01 0.17841817E+03</pdfrwt>
<totfact> 0.17655826E+03</totfact>
</mgrwt>
</event>
<event>
 8    2  0.1409546E-003  0.1416293E+03  0.7818608E-02  0.1221336E+00
          1   -1    0    0  501    0  0.00000000000E+00  0.00000000000E+00  0.71731590586E+03  0.71731590588E+03  0.50400000000E-02 0. -1.
         -1   -1    0    0    0  501 -0.00000000000E+00 -0.00000000000E+00 -0.22878098712E+02  0.22878099267E+02  0.50400000000E-02 0.  1.
         25    2    1    2    0    0 -0.12064689951E+02 -0.65477723730E+02  0.36456307485E+03  0.39110751440E+03  0.12500385284E+03 0.  0.
         23    2    1    2    0    0  0.12064689951E+02  0.65477723730E+02  0.32987473230E+03  0.34908649075E+03  0.92796282066E+02 0.  0.
        -11    1    4    4    0    0  0.22015850338E+02  0.58367175748E+00  0.13196919488E+02  0.25674832483E+02  0.51100000000E-03 0.  1.
         11    1    4    4    0    0 -0.99511603868E+01  0.64894051972E+02  0.31667781281E+03  0.32341165826E+03  0.51100000000E-03 0. -1.
    9000005    1    3    3    0    0 -0.14143200735E+01 -0.55820285689E+02  0.46370558157E+02  0.72588795688E+02  0.10000000000E+01 0.  0.
    9000005    1    3    3    0    0 -0.10650369878E+02 -0.96574380405E+01  0.31819251670E+03  0.31851871871E+03  0.10000000000E+01 0.  0.
<mgrwt>
<rscale>  0 0.13421198E+03</rscale>
<asrwt>0</asrwt>
<pdfrwt beam="1">  1        1 0.11035630E+00 0.14162928E+03</pdfrwt>
<pdfrwt beam="2">  1       -1 0.35197074E-02 0.14162928E+03</pdfrwt>
<totfact> 0.78063063E+03</totfact>
</mgrwt>
</event>
<event>
 8    2  0.1409546E-003  0.1275097E+03  0.7818608E-02  0.1245501E+00
         -1   -1    0    0    0  501 -0.00000000000E+00  0.00000000000E+00  0.21522098830E+03  0.21522098836E+03  0.50400000000E-02 0.  1.
          1   -1    0    0  501    0  0.00000000000E+00 -0.00000000000E+00 -0.59891492770E+02  0.59891492982E+02  0.50400000000E-02 0. -1.
         25    2    1    2    0    0  0.25099823745E+02  0.17048691140E+01  0.11475823459E+03  0.17154640218E+03  0.12500323181E+03 0.  0.
         23    2    1    2    0    0 -0.25099823745E+02 -0.17048691140E+01  0.40571260941E+02  0.10356607916E+03  0.91907550332E+02 0.  0.
        -11    1    4    4    0    0  0.67233639286E+01 -0.13480770135E+02  0.61754017154E+02  0.63564875685E+02  0.51100000000E-03 0.  1.
         11    1    4    4    0    0 -0.31823187673E+02  0.11775901021E+02 -0.21182756214E+02  0.40001203477E+02  0.51100000000E-03 0. -1.
    9000005    1    3    3    0    0  0.52999637037E+02 -0.45289574456E+02  0.82735552715E+02  0.10819555797E+03  0.10000000000E+01 0.  0.
    9000005    1    3    3    0    0 -0.27899813293E+02  0.46994443570E+02  0.32022681878E+02  0.63350844216E+02  0.10000000000E+01 0.  0.
<mgrwt>
<rscale>  0 0.11855435E+03</rscale>
<asrwt>0</asrwt>
<pdfrwt beam="2">  1        1 0.92140757E-02 0.12750967E+03</pdfrwt>
<pdfrwt beam="1">  1       -1 0.33110922E-01 0.12750967E+03</pdfrwt>
<totfact> 0.58463391E+03</totfact>
</mgrwt>
</event>
<event>
 8    2  0.1409546E-003  0.1446590E+03  0.7818608E-02  0.1217108E+00
         -1   -1    0    0    0  501 -0.00000000000E+00  0.00000000000E+00  0.11501541020E+02  0.11501542125E+02  0.50400000000E-02 0.  1.
          1   -1    0    0  501    0  0.00000000000E+00 -0.00000000000E+00 -0.16921838719E+04  0.16921838719E+04  0.50400000000E-02 0. -1.
         25    2    1    2    0    0 -0.72369154928E+02 -0.79798161631E+01 -0.12112011967E+04  0.12198092282E+04  0.12500096842E+03 0.  0.
         23    2    1    2    0    0  0.72369154928E+02  0.79798161631E+01 -0.46948113419E+03  0.48387618591E+03  0.91775028610E+02 0.  0.
        -11    1    4    4    0    0  0.63132219700E+02  0.25216309631E+01 -0.13321617743E+03  0.14744010892E+03  0.51100000000E-03 0.  1.
         11    1    4    4    0    0  0.92369352282E+01  0.54581852000E+01 -0.33626495676E+03  0.33643607699E+03  0.51100000000E-03 0. -1.
    9000005    1    3    3    0    0 -0.70098635814E+02 -0.33894644945E+02 -0.11576441848E+04  0.11602601969E+04  0.10000000000E+01 0.  0.
    9000005    1    3    3    0    0 -0.22705191149E+01  0.25914828782E+02 -0.53557011869E+02  0.59549031295E+02  0.10000000000E+01 0.  0.
<mgrwt>
<rscale>  0 0.13722796E+03</rscale>
<asrwt>0</asrwt>
<pdfrwt beam="2">  1        1 0.26033578E+00 0.14465896E+03</pdfrwt>
<pdfrwt beam="1">  1       -1 0.17694693E-02 0.14465896E+03</pdfrwt>
<totfact> 0.43400099E+03</totfact>
</mgrwt>
</event>
<event>
 8    2  0.1409546E-003  0.2165104E+03  0.7818608E-02  0.1139959E+00
         -1   -1    0    0    0  501 -0.00000000000E+00  0.00000000000E+00  0.67970816847E+02  0.67970817034E+02  0.50400000000E-02 0.  1.
          1   -1    0    0  501    0  0.00000000000E+00 -0.00000000000E+00 -0.66878237163E+03  0.66878237164E+03  0.50400000000E-02 0. -1.
         25    2    1    2    0    0 -0.28928387327E+02 -0.17438047947E+03 -0.39433104091E+03  0.44985966203E+03  0.12502536735E+03 0.  0.
         23    2    1    2    0    0  0.28928387327E+02  0.17438047947E+03 -0.20648051387E+03  0.28689352665E+03  0.91805717766E+02 0.  0.
        -11    1    4    4    0    0  0.50209187138E+02  0.15558596381E+03 -0.19897780144E+03  0.25752693078E+03  0.51100000000E-03 0. -1.
         11    1    4    4    0    0 -0.21280799811E+02  0.18794515652E+02 -0.75027124289E+01  0.29366595874E+02  0.51100000000E-03 0.  1.
    9000005    1    3    3    0    0  0.39737657672E+02 -0.12661439027E+03 -0.23362475972E+03  0.26868534313E+03  0.10000000000E+01 0.  0.
    9000005    1    3    3    0    0 -0.68666044999E+02 -0.47766089200E+02 -0.16070628119E+03  0.18117431890E+03  0.10000000000E+01 0.  0.
<mgrwt>
<rscale>  0 0.21204199E+03</rscale>
<asrwt>0</asrwt>
<pdfrwt beam="2">  1        1 0.10288959E+00 0.21651038E+03</pdfrwt>
<pdfrwt beam="1">  1       -1 0.10457049E-01 0.21651038E+03</pdfrwt>
<totfact> 0.17073803E+03</totfact>
</mgrwt>
</event>
<event>
 8    2  0.1409546E-003  0.1254068E+03  0.7818608E-02  0.1247931E+00
          1   -1    0    0  501    0  0.00000000000E+00  0.00000000000E+00  0.91781173681E+02  0.91781173819E+02  0.50400000000E-02 0. -1.
         -1   -1    0    0    0  501 -0.00000000000E+00 -0.00000000000E+00 -0.16308758409E+03  0.16308758417E+03  0.50400000000E-02 0.  1.
         25    2    1    2    0    0  0.97219100801E+01 -0.28598885577E+01  0.14907432674E+02  0.12628970258E+03  0.12499665167E+03 0.  0.
         23    2    1    2    0    0 -0.97219100801E+01  0.28598885577E+01 -0.86213843084E+02  0.12857905541E+03  0.94852792542E+02 0.  0.
        -11    1    4    4    0    0 -0.29356995786E+02 -0.24952452485E+02 -0.29706584744E+01  0.38643018757E+02  0.51100000000E-03 0. -1.
         11    1    4    4    0    0  0.19635085706E+02  0.27812341042E+02 -0.83243184610E+02  0.89936036655E+02  0.51100000000E-03 0.  1.
    9000005    1    3    3    0    0  0.32027173702E+02  0.71946092459E+01 -0.48355491101E+02  0.58453021968E+02  0.10000000000E+01 0.  0.
    9000005    1    3    3    0    0 -0.22305263622E+02 -0.10054497804E+02  0.63262923775E+02  0.67836680608E+02  0.10000000000E+01 0.  0.
<mgrwt>
<rscale>  0 0.11711685E+03</rscale>
<asrwt>0</asrwt>
<pdfrwt beam="1">  1        1 0.14120181E-01 0.12540677E+03</pdfrwt>
<pdfrwt beam="2">  1       -1 0.25090397E-01 0.12540677E+03</pdfrwt>
<totfact> 0.52961089E+03</totfact>
</mgrwt>
</event>
<event>
 8    2  0.1409546E-003  0.1657526E+03  0.7818608E-02  0.1189653E+00
         -1   -1    0    0    0  501 -0.00000000000E+00  0.00000000000E+00  0.41510280862E+02  0.41510281168E+02  0.50400000000E-02 0. -1.
          1   -1    0    0  501    0  0.00000000000E+00 -0.00000000000E+00 -0.67266613851E+03  0.67266613853E+03  0.50400000000E-02 0.  1.
         25    2    1    2    0    0 -0.95331568788E+02  0.52549609284E+02 -0.19553452462E+03  0.25633506656E+03  0.12499738632E+03 0.  0.
         23    2    1    2    0    0  0.95331568788E+02 -0.52549609284E+02 -0.43562133303E+03  0.45784135313E+03  0.89460546660E+02 0.  0.
        -11    1    4    4    0    0  0.53642079850E+02 -0.75845327337E+02 -0.30026321199E+03  0.31430555656E+03  0.51100000000E-03 0. -1.
         11    1    4    4    0    0  0.41689488938E+02  0.23295718053E+02 -0.13535812103E+03  0.14353579657E+03  0.51100000000E-03 0.  1.
    9000005    1    3    3    0    0 -0.37161917035E+02  0.81528015549E+02 -0.65597676323E+02  0.11104900061E+03  0.10000000000E+01 0.  0.
    9000005    1    3    3    0    0 -0.58169651754E+02 -0.28978406265E+02 -0.12993684830E+03  0.14528606595E+03  0.10000000000E+01 0.  0.
<mgrwt>
<rscale>  0 0.15915593E+03</rscale>
<asrwt>0</asrwt>
<pdfrwt beam="2">  1        1 0.10348709E+00 0.16575257E+03</pdfrwt>
<pdfrwt beam="1">  1       -1 0.63861976E-02 0.16575257E+03</pdfrwt>
<totfact> 0.35662794E+03</totfact>
</mgrwt>
</event>
<event>
 8    2  0.1409546E-003  0.1459072E+03  0.7818608E-02  0.1224926E+00
         -1   -1    0    0    0  501 -0.00000000000E+00  0.00000000000E+00  0.15061159538E+02  0.15061160381E+02  0.50400000000E-02 0.  1.
          1   -1    0    0  501    0  0.00000000000E+00 -0.00000000000E+00 -0.97990373611E+03  0.97990373612E+03  0.50400000000E-02 0. -1.
         25    2    1    2    0    0 -0.74950598206E+02  0.66972311918E+01 -0.56243024696E+03  0.58104792143E+03  0.12500583673E+03 0.  0.
         23    2    1    2    0    0  0.74950598206E+02 -0.66972311918E+01 -0.40241232961E+03  0.41391697508E+03  0.61066637040E+02 0.  0.
        -11    1    4    4    0    0  0.21247114933E+02 -0.24795118909E+02 -0.77479001629E+02  0.84078733985E+02  0.51100000000E-03 0.  1.
         11    1    4    4    0    0  0.53703483272E+02  0.18097887717E+02 -0.32493332798E+03  0.32983824109E+03  0.51100000000E-03 0. -1.
    9000005    1    3    3    0    0 -0.20626274748E+02  0.35391414033E+02 -0.48651095007E+02  0.63607581644E+02  0.10000000000E+01 0.  0.
    9000005    1    3    3    0    0 -0.54324323457E+02 -0.28694182841E+02 -0.51377915196E+03  0.51744033978E+03  0.10000000000E+01 0.  0.
<mgrwt>
<rscale>  0 0.13171942E+03</rscale>
<asrwt>0</asrwt>
<pdfrwt beam="2">  1        1 0.15075437E+00 0.14590718E+03</pdfrwt>
<pdfrwt beam="1">  1       -1 0.23171023E-02 0.14590718E+03</pdfrwt>
<totfact> 0.88722957E+03</totfact>
</mgrwt>
</event>
<event>
 8    2  0.1409546E-003  0.1263128E+03  0.7818608E-02  0.1248046E+00
          1   -1    0    0  501    0  0.00000000000E+00  0.00000000000E+00  0.85619608816E+03  0.85619608817E+03  0.50400000000E-02 0. -1.
         -1   -1    0    0    0  501 -0.00000000000E+00 -0.00000000000E+00 -0.14960567912E+02  0.14960568761E+02  0.50400000000E-02 0.  1.
         25    2    1    2    0    0  0.13876238354E+01 -0.17848735511E+02  0.58598935478E+03  0.59944844994E+03  0.12503766373E+03 0.  0.
         23    2    1    2    0    0 -0.13876238354E+01  0.17848735511E+02  0.25524616546E+03  0.27170820700E+03  0.91401542155E+02 0.  0.
        -11    1    4    4    0    0 -0.35326630182E+02  0.38470761595E+02  0.12305583428E+03  0.13368136986E+03  0.51100000000E-03 0.  1.
         11    1    4    4    0    0  0.33939006347E+02 -0.20622026084E+02  0.13219033118E+03  0.13802683714E+03  0.51100000000E-03 0. -1.
    9000005    1    3    3    0    0  0.43905653376E+01 -0.48214864474E+02  0.55053376189E+03  0.55265936452E+03  0.10000000000E+01 0.  0.
    9000005    1    3    3    0    0 -0.30029415022E+01  0.30366128963E+02  0.35455592898E+02  0.46789085411E+02  0.10000000000E+01 0.  0.
<mgrwt>
<rscale>  0 0.11704896E+03</rscale>
<asrwt>0</asrwt>
<pdfrwt beam="1">  1        1 0.13172252E+00 0.12631279E+03</pdfrwt>
<pdfrwt beam="2">  1       -1 0.23016252E-02 0.12631279E+03</pdfrwt>
<totfact> 0.11034792E+04</totfact>
</mgrwt>
</event>
<event>
 8    2  0.1409546E-003  0.1826403E+03  0.7818608E-02  0.1170720E+00
         -1   -1    0    0    0  501 -0.00000000000E+00  0.00000000000E+00  0.25846341757E+03  0.25846341762E+03  0.50400000000E-02 0.  1.
          1   -1    0    0  501    0  0.00000000000E+00 -0.00000000000E+00 -0.12139956602E+03  0.12139956612E+03  0.50400000000E-02 0. -1.
         25    2    1    2    0    0  0.12943244449E+03  0.31317825165E+02  0.11829264580E+03  0.21760199607E+03  0.12499565907E+03 0.  0.
         23    2    1    2    0    0 -0.12943244449E+03 -0.31317825165E+02  0.18771205759E+02  0.16226098766E+03  0.90789350102E+02 0.  0.
        -11    1    4    4    0    0 -0.43123022609E+02  0.10862245165E+02 -0.30863804048E+02  0.54130932465E+02  0.51100000000E-03 0. -1.
         11    1    4    4    0    0 -0.86309421882E+02 -0.42180070330E+02  0.49635009806E+02  0.10813005520E+03  0.51100000000E-03 0.  1.
    9000005    1    3    3    0    0  0.10641890064E+03  0.30456245295E+02  0.14493443833E+03  0.18237202829E+03  0.10000000000E+01 0.  0.
    9000005    1    3    3    0    0  0.23013543854E+02  0.86157986990E+00 -0.26641792531E+02  0.35229967781E+02  0.10000000000E+01 0.  0.
<mgrwt>
<rscale>  0 0.17701887E+03</rscale>
<asrwt>0</asrwt>
<pdfrwt beam="2">  1        1 0.18676856E-01 0.18264030E+03</pdfrwt>
<pdfrwt beam="1">  1       -1 0.39763603E-01 0.18264030E+03</pdfrwt>
<totfact> 0.17197107E+03</totfact>
</mgrwt>
</event>
<event>
 8    2  0.1409546E-003  0.2358801E+03  0.7818608E-02  0.1125382E+00
         -1   -1    0    0    0  501 -0.00000000000E+00  0.00000000000E+00  0.21020122385E+03  0.21020122391E+03  0.50400000000E-02 0.  1.
          1   -1    0    0  501    0  0.00000000000E+00 -0.00000000000E+00 -0.36594470719E+03  0.36594470722E+03  0.50400000000E-02 0. -1.
         25    2    1    2    0    0  0.12255333561E+03  0.15810043537E+03  0.84365269276E+02  0.25051335594E+03  0.12499750041E+03 0.  0.
         23    2    1    2    0    0 -0.12255333561E+03 -0.15810043537E+03 -0.24010875262E+03  0.32563257519E+03  0.91483841243E+02 0.  0.
        -11    1    4    4    0    0  0.86649002123E+01 -0.11554108379E+02 -0.50105273293E+02  0.52145146736E+02  0.51100000000E-03 0. -1.
         11    1    4    4    0    0 -0.13121823582E+03 -0.14654632699E+03 -0.19000347932E+03  0.27348742846E+03  0.51100000000E-03 0.  1.
    9000005    1    3    3    0    0  0.58804812786E+02  0.13053269380E+03  0.25561143159E+01  0.14319330947E+03  0.10000000000E+01 0.  0.
    9000005    1    3    3    0    0  0.63748522825E+02  0.27567741576E+02  0.81809154960E+02  0.10732004646E+03  0.10000000000E+01 0.  0.
<mgrwt>
<rscale>  0 0.23179639E+03</rscale>
<asrwt>0</asrwt>
<pdfrwt beam="2">  1        1 0.56299186E-01 0.23588015E+03</pdfrwt>
<pdfrwt beam="1">  1       -1 0.32338650E-01 0.23588015E+03</pdfrwt>
<totfact> 0.61303934E+02</totfact>
</mgrwt>
</event>
<event>
 8    2  0.1409546E-003  0.1366449E+03  0.7818608E-02  0.1229360E+00
         -1   -1    0    0    0  501 -0.00000000000E+00  0.00000000000E+00  0.11342051884E+03  0.11342051895E+03  0.50400000000E-02 0.  1.
          1   -1    0    0  501    0  0.00000000000E+00 -0.00000000000E+00 -0.13660703673E+03  0.13660703683E+03  0.50400000000E-02 0. -1.
         25    2    1    2    0    0 -0.52742744956E+02 -0.16293704825E+02 -0.36908073848E+02  0.14154163270E+03  0.12499818363E+03 0.  0.
         23    2    1    2    0    0  0.52742744956E+02  0.16293704825E+02  0.13721555950E+02  0.10848592307E+03  0.92377662044E+02 0.  0.
        -11    1    4    4    0    0 -0.14496335746E+02 -0.17415574411E+02  0.23490820223E+02  0.32638391767E+02  0.51100000000E-03 0.  1.
         11    1    4    4    0    0  0.67239080702E+02  0.33709279236E+02 -0.97692642730E+01  0.75847531305E+02  0.51100000000E-03 0. -1.
    9000005    1    3    3    0    0 -0.53979456025E+02  0.16507339195E+02  0.32224759810E+02  0.65005454116E+02  0.10000000000E+01 0.  0.
    9000005    1    3    3    0    0  0.12367110687E+01 -0.32801044020E+02 -0.69132833658E+02  0.76536178587E+02  0.10000000000E+01 0.  0.
<mgrwt>
<rscale>  0 0.12872501E+03</rscale>
<asrwt>0</asrwt>
<pdfrwt beam="2">  1        1 0.21016467E-01 0.13664490E+03</pdfrwt>
<pdfrwt beam="1">  1       -1 0.17449311E-01 0.13664490E+03</pdfrwt>
<totfact> 0.57448037E+03</totfact>
</mgrwt>
</event>
<event>
 8    2  0.1409546E-003  0.3034466E+03  0.7818608E-02  0.1086013E+00
          1   -1    0    0  501    0  0.00000000000E+00  0.00000000000E+00  0.77716882249E+02  0.77716882413E+02  0.50400000000E-02 0.  1.
         -1   -1    0    0    0  501 -0.00000000000E+00 -0.00000000000E+00 -0.13972259713E+04  0.13972259714E+04  0.50400000000E-02 0. -1.
         25    2    1    2    0    0  0.25417142452E+03 -0.10886442617E+03 -0.10113080664E+04  0.10558521830E+04  0.12500100338E+03 0.  0.
         23    2    1    2    0    0 -0.25417142452E+03  0.10886442617E+03 -0.30820102273E+03  0.41909067081E+03  0.64765296412E+02 0.  0.
        -11    1    4    4    0    0 -0.63831925078E+02  0.25702041807E+01 -0.92428944510E+02  0.11235760051E+03  0.51100000000E-03 0.  1.
         11    1    4    4    0    0 -0.19033949944E+03  0.10629422198E+03 -0.21577207822E+03  0.30673307030E+03  0.51100000000E-03 0. -1.
    9000005    1    3    3    0    0  0.23904119238E+03 -0.13386990569E+03 -0.92522934375E+03  0.96494154322E+03  0.10000000000E+01 0.  0.
    9000005    1    3    3    0    0  0.15130232141E+02  0.25005479521E+02 -0.86078722608E+02  0.90910639733E+02  0.10000000000E+01 0.  0.
<mgrwt>
<rscale>  0 0.29846035E+03</rscale>
<asrwt>0</asrwt>
<pdfrwt beam="1">  1        1 0.11956444E-01 0.30344658E+03</pdfrwt>
<pdfrwt beam="2">  1       -1 0.21495782E+00 0.30344658E+03</pdfrwt>
<totfact> 0.66887971E+01</totfact>
</mgrwt>
</event>
<event>
 8    2  0.1409546E-003  0.1371801E+03  0.7818608E-02  0.1228756E+00
         -1   -1    0    0    0  501 -0.00000000000E+00  0.00000000000E+00  0.64557910470E+02  0.64557910667E+02  0.50400000000E-02 0.  1.
          1   -1    0    0  501    0  0.00000000000E+00 -0.00000000000E+00 -0.23457894526E+03  0.23457894532E+03  0.50400000000E-02 0. -1.
         25    2    1    2    0    0  0.39986887965E+02 -0.39935249828E+02 -0.11005067956E+03  0.17586797354E+03  0.12499846662E+03 0.  0.
         23    2    1    2    0    0 -0.39986887965E+02  0.39935249828E+02 -0.59970355233E+02  0.12326888245E+03  0.91678778816E+02 0.  0.
        -11    1    4    4    0    0  0.37640400100E+01  0.38510828079E+02  0.10693847055E+02  0.40144865694E+02  0.51100000000E-03 0.  1.
         11    1    4    4    0    0 -0.43750927975E+02  0.14244217487E+01 -0.70664202288E+02  0.83124016753E+02  0.51100000000E-03 0. -1.
    9000005    1    3    3    0    0  0.39767810379E+02 -0.51784201213E+02 -0.12425813154E+00  0.65300058787E+02  0.10000000000E+01 0.  0.
    9000005    1    3    3    0    0  0.21907758630E+00  0.11848951385E+02 -0.10992642143E+03  0.11056791475E+03  0.10000000000E+01 0.  0.
<mgrwt>
<rscale>  0 0.12912786E+03</rscale>
<asrwt>0</asrwt>
<pdfrwt beam="2">  1        1 0.36089068E-01 0.13718014E+03</pdfrwt>
<pdfrwt beam="1">  1       -1 0.99319863E-02 0.13718014E+03</pdfrwt>
<totfact> 0.70161066E+03</totfact>
</mgrwt>
</event>
<event>
 8    2  0.1409546E-003  0.1657886E+03  0.7818608E-02  0.1189143E+00
          1   -1    0    0  501    0  0.00000000000E+00  0.00000000000E+00  0.57786295902E+02  0.57786296122E+02  0.50400000000E-02 0. -1.
         -1   -1    0    0    0  501 -0.00000000000E+00 -0.00000000000E+00 -0.46132053293E+03  0.46132053296E+03  0.50400000000E-02 0.  1.
         25    2    1    2    0    0  0.77758682443E+02 -0.76249255624E+02 -0.12983903799E+03  0.21058023654E+03  0.12500199422E+03 0.  0.
         23    2    1    2    0    0 -0.77758682443E+02  0.76249255624E+02 -0.27369519904E+03  0.30852659254E+03  0.91756387496E+02 0.  0.
        -11    1    4    4    0    0  0.14837467044E+02  0.38032955951E+02 -0.60701884520E+02  0.73153092561E+02  0.51100000000E-03 0. -1.
         11    1    4    4    0    0 -0.92596149487E+02  0.38216299673E+02 -0.21299331452E+03  0.23537349998E+03  0.51100000000E-03 0.  1.
    9000005    1    3    3    0    0  0.51481151394E+02 -0.82135794636E+02 -0.14882707344E+03  0.17761502048E+03  0.10000000000E+01 0.  0.
    9000005    1    3    3    0    0  0.26277531049E+02  0.58865390121E+01  0.18988035458E+02  0.32965216064E+02  0.10000000000E+01 0.  0.
<mgrwt>
<rscale>  0 0.15960571E+03</rscale>
<asrwt>0</asrwt>
<pdfrwt beam="1">  1        1 0.88901997E-02 0.16578860E+03</pdfrwt>
<pdfrwt beam="2">  1       -1 0.70972387E-01 0.16578860E+03</pdfrwt>
<totfact> 0.15445624E+03</totfact>
</mgrwt>
</event>
<event>
 8    2  0.1409546E-003  0.1909874E+03  0.7818608E-02  0.1162283E+00
         -1   -1    0    0    0  501 -0.00000000000E+00  0.00000000000E+00  0.34609546882E+02  0.34609547249E+02  0.50400000000E-02 0.  1.
          1   -1    0    0  501    0  0.00000000000E+00 -0.00000000000E+00 -0.96029090384E+03  0.96029090385E+03  0.50400000000E-02 0. -1.
         25    2    1    2    0    0 -0.91596888369E+02 -0.11163068333E+03 -0.43014561015E+03  0.47063937909E+03  0.12499911919E+03 0.  0.
         23    2    1    2    0    0  0.91596888369E+02  0.11163068333E+03 -0.49553574680E+03  0.52426107201E+03  0.91883599431E+02 0.  0.
        -11    1    4    4    0    0  0.64478122801E+02  0.49714136423E+02 -0.39371902284E+03  0.40204924154E+03  0.51100000000E-03 0. -1.
         11    1    4    4    0    0  0.27118765568E+02  0.61916546906E+02 -0.10181672397E+03  0.12221183047E+03  0.51100000000E-03 0.  1.
    9000005    1    3    3    0    0 -0.13812253527E+02 -0.99269008672E+02 -0.15618092808E+03  0.18557639054E+03  0.10000000000E+01 0.  0.
    9000005    1    3    3    0    0 -0.77784634842E+02 -0.12361674657E+02 -0.27396468208E+03  0.28506298856E+03  0.10000000000E+01 0.  0.
<mgrwt>
<rscale>  0 0.18582358E+03</rscale>
<asrwt>0</asrwt>
<pdfrwt beam="2">  1        1 0.14773704E+00 0.19098738E+03</pdfrwt>
<pdfrwt beam="1">  1       -1 0.53245464E-02 0.19098738E+03</pdfrwt>
<totfact> 0.27251737E+03</totfact>
</mgrwt>
</event>
<event>
 8    2  0.1409546E-003  0.1359490E+03  0.7818608E-02  0.1230234E+00
         -1   -1    0    0    0  501 -0.00000000000E+00  0.00000000000E+00  0.22235911589E+02  0.22235912161E+02  0.50400000000E-02 0.  1.
          1   -1    0    0  501    0  0.00000000000E+00 -0.00000000000E+00 -0.84453657110E+03  0.84453657111E+03  0.50400000000E-02 0. -1.
         25    2    1    2    0    0 -0.29760314954E+02 -0.44410177672E+02 -0.25074375309E+03  0.28522720749E+03  0.12499675977E+03 0.  0.
         23    2    1    2    0    0  0.29760314954E+02  0.44410177672E+02 -0.57155690642E+03  0.58154527578E+03  0.93057349425E+02 0.  0.
        -11    1    4    4    0    0 -0.99421081012E+01  0.10971255382E+02 -0.43808260615E+03  0.43833273180E+03  0.51100000000E-03 0. -1.
         11    1    4    4    0    0  0.39702423055E+02  0.33438922291E+02 -0.13347430026E+03  0.14321254398E+03  0.51100000000E-03 0.  1.
    9000005    1    3    3    0    0 -0.27784529329E+01  0.31305956554E+02 -0.16390172717E+03  0.16689085921E+03  0.10000000000E+01 0.  0.
    9000005    1    3    3    0    0 -0.26981862021E+02 -0.75716134226E+02 -0.86842025919E+02  0.11833634829E+03  0.10000000000E+01 0.  0.
<mgrwt>
<rscale>  0 0.12814519E+03</rscale>
<asrwt>0</asrwt>
<pdfrwt beam="2">  1        1 0.12992868E+00 0.13594900E+03</pdfrwt>
<pdfrwt beam="1">  1       -1 0.34209102E-02 0.13594900E+03</pdfrwt>
<totfact> 0.63655264E+03</totfact>
</mgrwt>
</event>
<event>
 8    2  0.1409546E-003  0.1365095E+03  0.7818608E-02  0.1229694E+00
          1   -1    0    0  501    0  0.00000000000E+00  0.00000000000E+00  0.23093645121E+04  0.23093645122E+04  0.50400000000E-02 0. -1.
         -1   -1    0    0    0  501 -0.00000000000E+00 -0.00000000000E+00 -0.67988336617E+01  0.67988355298E+01  0.50400000000E-02 0.  1.
         25    2    1    2    0    0  0.54258924257E+02  0.80945829437E+01  0.15503673938E+04  0.15563656058E+04  0.12500116075E+03 0.  0.
         23    2    1    2    0    0 -0.54258924257E+02 -0.80945829437E+01  0.75219828471E+03  0.75979774186E+03  0.92091236670E+02 0.  0.
        -11    1    4    4    0    0 -0.38914337805E+02 -0.37200365310E+02  0.21660677531E+03  0.22319652322E+03  0.51100000000E-03 0.  1.
         11    1    4    4    0    0 -0.15344586451E+02  0.29105782366E+02  0.53559150940E+03  0.53660121863E+03  0.51100000000E-03 0. -1.
    9000005    1    3    3    0    0  0.52485679122E+02  0.43838204632E+02  0.42821736062E+03  0.43364460407E+03  0.10000000000E+01 0.  0.
    9000005    1    3    3    0    0  0.17732451349E+01 -0.35743621688E+02  0.11221500332E+04  0.11227210018E+04  0.10000000000E+01 0.  0.
<mgrwt>
<rscale>  0 0.12850316E+03</rscale>
<asrwt>0</asrwt>
<pdfrwt beam="1">  1        1 0.35528698E+00 0.13650950E+03</pdfrwt>
<pdfrwt beam="2">  1       -1 0.10459742E-02 0.13650950E+03</pdfrwt>
<totfact> 0.37199814E+03</totfact>
</mgrwt>
</event>
<event>
 8    2  0.1409546E-003  0.1252414E+03  0.7818608E-02  0.1251633E+00
          1   -1    0    0  501    0  0.00000000000E+00  0.00000000000E+00  0.16489028683E+02  0.16489029453E+02  0.50400000000E-02 0.  1.
         -1   -1    0    0    0  501 -0.00000000000E+00 -0.00000000000E+00 -0.70435213591E+03  0.70435213592E+03  0.50400000000E-02 0. -1.
         25    2    1    2    0    0  0.77519683436E+01  0.66732416701E+00 -0.36170530844E+03  0.38277426781E+03  0.12499948645E+03 0.  0.
         23    2    1    2    0    0 -0.77519683436E+01 -0.66732416701E+00 -0.32615779878E+03  0.33806689756E+03  0.88598979594E+02 0.  0.
        -11    1    4    4    0    0  0.81805953256E+01 -0.22393752358E+02 -0.21146903363E+02  0.31868382555E+02  0.51100000000E-03 0.  1.
         11    1    4    4    0    0 -0.15932563669E+02  0.21726428191E+02 -0.30501089542E+03  0.30619851501E+03  0.51100000000E-03 0. -1.
    9000005    1    3    3    0    0 -0.36118814550E+01 -0.24176785240E+02 -0.35333861494E+03  0.35418461209E+03  0.10000000000E+01 0.  0.
    9000005    1    3    3    0    0  0.11363849799E+02  0.24844109407E+02 -0.83666934995E+01  0.28589655727E+02  0.10000000000E+01 0.  0.
<mgrwt>
<rscale>  0 0.11497017E+03</rscale>
<asrwt>0</asrwt>
<pdfrwt beam="1">  1        1 0.25367743E-02 0.12524141E+03</pdfrwt>
<pdfrwt beam="2">  1       -1 0.10836184E+00 0.12524141E+03</pdfrwt>
<totfact> 0.34672292E+03</totfact>
</mgrwt>
</event>
<event>
 8    2  0.1409546E-003  0.1339355E+03  0.7818608E-02  0.1234804E+00
          1   -1    0    0  501    0  0.00000000000E+00  0.00000000000E+00  0.78823865531E+03  0.78823865533E+03  0.50400000000E-02 0. -1.
         -1   -1    0    0    0  501 -0.00000000000E+00 -0.00000000000E+00 -0.22911703757E+02  0.22911704311E+02  0.50400000000E-02 0.  1.
         25    2    1    2    0    0  0.17672875508E+02 -0.44733726644E+02  0.22995144480E+03  0.26611345993E+03  0.12500107905E+03 0.  0.
         23    2    1    2    0    0 -0.17672875508E+02  0.44733726644E+02  0.53537550676E+03  0.54503689971E+03  0.90137960810E+02 0.  0.
        -11    1    4    4    0    0  0.38839109139E+01  0.11512535154E+02  0.45758220198E+03  0.45774348144E+03  0.51100000000E-03 0. -1.
         11    1    4    4    0    0 -0.21556786421E+02  0.33221191490E+02  0.77793304780E+02  0.87293418273E+02  0.51100000000E-03 0.  1.
    9000005    1    3    3    0    0 -0.42997553198E+00 -0.53409953360E+02  0.22956107763E+02  0.58144568796E+02  0.10000000000E+01 0.  0.
    9000005    1    3    3    0    0  0.18102851040E+02  0.86762267160E+01  0.20699533704E+03  0.20796889114E+03  0.10000000000E+01 0.  0.
<mgrwt>
<rscale>  0 0.12517002E+03</rscale>
<asrwt>0</asrwt>
<pdfrwt beam="1">  1        1 0.12126749E+00 0.13393546E+03</pdfrwt>
<pdfrwt beam="2">  1       -1 0.35248775E-02 0.13393546E+03</pdfrwt>
<totfact> 0.67613765E+03</totfact>
</mgrwt>
</event>
<event>
 8    2  0.1409546E-003  0.1491163E+03  0.7818608E-02  0.1210449E+00
          1   -1    0    0  501    0  0.00000000000E+00  0.00000000000E+00  0.57558048626E+03  0.57558048629E+03  0.50400000000E-02 0. -1.
         -1   -1    0    0    0  501 -0.00000000000E+00 -0.00000000000E+00 -0.32212194707E+02  0.32212195102E+02  0.50400000000E-02 0.  1.
         25    2    1    2    0    0 -0.56124466613E+02 -0.58827635957E+02  0.30177925247E+03  0.33661016322E+03  0.12500015303E+03 0.  0.
         23    2    1    2    0    0  0.56124466613E+02  0.58827635957E+02  0.24158903908E+03  0.27118251817E+03  0.92542140931E+02 0.  0.
        -11    1    4    4    0    0 -0.22111071684E+02  0.21808404460E+02  0.10485215298E+03  0.10935483520E+03  0.51100000000E-03 0. -1.
         11    1    4    4    0    0  0.78235538297E+02  0.37019231497E+02  0.13673688610E+03  0.16182768297E+03  0.51100000000E-03 0.  1.
    9000005    1    3    3    0    0 -0.25270076665E+02 -0.36045690561E+02  0.13883947886E+02  0.46169606795E+02  0.10000000000E+01 0.  0.
    9000005    1    3    3    0    0 -0.30854389948E+02 -0.22781945396E+02  0.28789530459E+03  0.29044055643E+03  0.10000000000E+01 0.  0.
<mgrwt>
<rscale>  0 0.14216213E+03</rscale>
<asrwt>0</asrwt>
<pdfrwt beam="1">  1        1 0.88550842E-01 0.14911635E+03</pdfrwt>
<pdfrwt beam="2">  1       -1 0.49557224E-02 0.14911635E+03</pdfrwt>
<totfact> 0.64283561E+03</totfact>
</mgrwt>
</event>
<event>
 8    2  0.1409546E-003  0.1300673E+03  0.7818608E-02  0.1242033E+00
         -1   -1    0    0    0  501 -0.00000000000E+00  0.00000000000E+00  0.58725117215E+02  0.58725117431E+02  0.50400000000E-02 0.  1.
          1   -1    0    0  501    0  0.00000000000E+00 -0.00000000000E+00 -0.21958049336E+03  0.21958049342E+03  0.50400000000E-02 0. -1.
         25    2    1    2    0    0 -0.24405732007E+02 -0.26397424650E+02 -0.10358022022E+03  0.16627195366E+03  0.12500014708E+03 0.  0.
         23    2    1    2    0    0  0.24405732007E+02  0.26397424650E+02 -0.57275155918E+02  0.11203365719E+03  0.89323194492E+02 0.  0.
        -11    1    4    4    0    0  0.37046305052E+02 -0.14469754342E+02  0.95038140794E+00  0.39783234331E+02  0.51100000000E-03 0. -1.
         11    1    4    4    0    0 -0.12640573045E+02  0.40867178993E+02 -0.58225537326E+02  0.72250422856E+02  0.51100000000E-03 0.  1.
    9000005    1    3    3    0    0 -0.66269776287E+02 -0.46905601962E+02 -0.80136927501E+02  0.11408218921E+03  0.10000000000E+01 0.  0.
    9000005    1    3    3    0    0  0.41864044280E+02  0.20508177312E+02 -0.23443292723E+02  0.52189764454E+02  0.10000000000E+01 0.  0.
<mgrwt>
<rscale>  0 0.12064726E+03</rscale>
<asrwt>0</asrwt>
<pdfrwt beam="2">  1        1 0.33781614E-01 0.13006729E+03</pdfrwt>
<pdfrwt beam="1">  1       -1 0.90346335E-02 0.13006729E+03</pdfrwt>
<totfact> 0.87604773E+03</totfact>
</mgrwt>
</event>
<event>
 8    2  0.1409546E-003  0.1577142E+03  0.7818608E-02  0.1198115E+00
         -1   -1    0    0    0  501 -0.00000000000E+00  0.00000000000E+00  0.40889414543E+03  0.40889414546E+03  0.50400000000E-02 0.  1.
          1   -1    0    0  501    0  0.00000000000E+00 -0.00000000000E+00 -0.54158343634E+02  0.54158343868E+02  0.50400000000E-02 0. -1.
         25    2    1    2    0    0  0.20213531026E+02 -0.94017014381E+02  0.15215820054E+03  0.21914807790E+03  0.12500390484E+03 0.  0.
         23    2    1    2    0    0 -0.20213531026E+02  0.94017014381E+02  0.20257760125E+03  0.24390441143E+03  0.95936914456E+02 0.  0.
        -11    1    4    4    0    0  0.27072377221E+02  0.80819613798E+02  0.14542039872E+03  0.16855804919E+03  0.51100000000E-03 0.  1.
         11    1    4    4    0    0 -0.47285908247E+02  0.13197400584E+02  0.57157202536E+02  0.75346362241E+02  0.51100000000E-03 0. -1.
    9000005    1    3    3    0    0  0.31816965996E+02 -0.54404193324E+02  0.16237119514E+01  0.63053723260E+02  0.10000000000E+01 0.  0.
    9000005    1    3    3    0    0 -0.11603434970E+02 -0.39612821057E+02  0.15053448859E+03  0.15609435464E+03  0.10000000000E+01 0.  0.
<mgrwt>
<rscale>  0 0.15193490E+03</rscale>
<asrwt>0</asrwt>
<pdfrwt beam="2">  1        1 0.83320529E-02 0.15771418E+03</pdfrwt>
<pdfrwt beam="1">  1       -1 0.62906792E-01 0.15771418E+03</pdfrwt>
<totfact> 0.21301440E+03</totfact>
</mgrwt>
</event>
<event>
 8    2  0.1409546E-003  0.1336563E+03  0.7818608E-02  0.1235934E+00
          1   -1    0    0  501    0  0.00000000000E+00  0.00000000000E+00  0.67693385988E+02  0.67693386176E+02  0.50400000000E-02 0. -1.
         -1   -1    0    0    0  501 -0.00000000000E+00 -0.00000000000E+00 -0.20496694694E+03  0.20496694700E+03  0.50400000000E-02 0.  1.
         25    2    1    2    0    0 -0.40439897755E+02  0.24604570745E+02 -0.63206794341E+02  0.14784823098E+03  0.12499292108E+03 0.  0.
         23    2    1    2    0    0  0.40439897755E+02 -0.24604570745E+02 -0.74066766606E+02  0.12481210220E+03  0.88608152598E+02 0.  0.
        -11    1    4    4    0    0  0.62777126275E+02  0.53222836672E+01 -0.49349447833E+02  0.80029133998E+02  0.51100000000E-03 0. -1.
         11    1    4    4    0    0 -0.22337228520E+02 -0.29926854412E+02 -0.24717318773E+02  0.44782968197E+02  0.51100000000E-03 0.  1.
    9000005    1    3    3    0    0  0.13394904732E+02 -0.27953293700E+02  0.19027839823E+02  0.36385007761E+02  0.10000000000E+01 0.  0.
    9000005    1    3    3    0    0 -0.53834802487E+02  0.52557864444E+02 -0.82234634164E+02  0.11146322322E+03  0.10000000000E+01 0.  0.
<mgrwt>
<rscale>  0 0.12444863E+03</rscale>
<asrwt>0</asrwt>
<pdfrwt beam="1">  1        1 0.10414367E-01 0.13365628E+03</pdfrwt>
<pdfrwt beam="2">  1       -1 0.31533376E-01 0.13365628E+03</pdfrwt>
<totfact> 0.54170600E+03</totfact>
</mgrwt>
</event>
<event>
 8    2  0.1409546E-003  0.1349068E+03  0.7818608E-02  0.1232085E+00
          1   -1    0    0  501    0  0.00000000000E+00  0.00000000000E+00  0.21703132197E+03  0.21703132202E+03  0.50400000000E-02 0. -1.
         -1   -1    0    0    0  501 -0.00000000000E+00 -0.00000000000E+00 -0.66695545377E+02  0.66695545567E+02  0.50400000000E-02 0.  1.
         25    2    1    2    0    0  0.56025339018E+01  0.50432158260E+02  0.83687407595E+02  0.15875589977E+03  0.12500025020E+03 0.  0.
         23    2    1    2    0    0 -0.56025339018E+01 -0.50432158260E+02  0.66648368994E+02  0.12497096782E+03  0.92741289265E+02 0.  0.
        -11    1    4    4    0    0 -0.14323688995E+02 -0.11142067153E+02 -0.21460983285E+02  0.28104937834E+02  0.51100000000E-03 0.  1.
         11    1    4    4    0    0  0.87211550929E+01 -0.39290091107E+02  0.88109352279E+02  0.96866029982E+02  0.51100000000E-03 0. -1.
    9000005    1    3    3    0    0  0.53366907817E+02  0.62421667094E+02  0.69244574347E+02  0.10742579974E+03  0.10000000000E+01 0.  0.
    9000005    1    3    3    0    0 -0.47764373915E+02 -0.11989508834E+02  0.14442833247E+02  0.51330100037E+02  0.10000000000E+01 0.  0.
<mgrwt>
<rscale>  0 0.12692874E+03</rscale>
<asrwt>0</asrwt>
<pdfrwt beam="1">  1        1 0.33389435E-01 0.13490683E+03</pdfrwt>
<pdfrwt beam="2">  1       -1 0.10260853E-01 0.13490683E+03</pdfrwt>
<totfact> 0.73422370E+03</totfact>
</mgrwt>
</event>
<event>
 8    2  0.1409546E-003  0.1601340E+03  0.7818608E-02  0.1196804E+00
          1   -1    0    0  501    0  0.00000000000E+00  0.00000000000E+00  0.81449476080E+03  0.81449476081E+03  0.50400000000E-02 0. -1.
         -1   -1    0    0    0  501 -0.00000000000E+00 -0.00000000000E+00 -0.28039556546E+02  0.28039556999E+02  0.50400000000E-02 0.  1.
         25    2    1    2    0    0 -0.94371467111E+02  0.33369179581E+02  0.32760125026E+03  0.36464431141E+03  0.12499367473E+03 0.  0.
         23    2    1    2    0    0  0.94371467111E+02 -0.33369179581E+02  0.45885395399E+03  0.47789000640E+03  0.88387958309E+02 0.  0.
        -11    1    4    4    0    0  0.84206128130E+02 -0.40926351412E+01  0.41903779028E+03  0.42743431233E+03  0.51100000000E-03 0. -1.
         11    1    4    4    0    0  0.10165338981E+02 -0.29276544439E+02  0.39816163712E+02  0.50455694069E+02  0.51100000000E-03 0.  1.
    9000005    1    3    3    0    0  0.37360124540E+01  0.23317619769E+02  0.20927110276E+03  0.21060167053E+03  0.10000000000E+01 0.  0.
    9000005    1    3    3    0    0 -0.98107479565E+02  0.10051559812E+02  0.11833014750E+03  0.15404264088E+03  0.10000000000E+01 0.  0.
<mgrwt>
<rscale>  0 0.15302499E+03</rscale>
<asrwt>0</asrwt>
<pdfrwt beam="1">  1        1 0.12530688E+00 0.16013399E+03</pdfrwt>
<pdfrwt beam="2">  1       -1 0.43137782E-02 0.16013399E+03</pdfrwt>
<totfact> 0.48212495E+03</totfact>
</mgrwt>
</event>
<event>
 8    2  0.1409546E-003  0.2648291E+03  0.7818608E-02  0.1106396E+00
         -1   -1    0    0    0  501 -0.00000000000E+00  0.00000000000E+00  0.69090734962E+02  0.69090735146E+02  0.50400000000E-02 0.  1.
          1   -1    0    0  501    0  0.00000000000E+00 -0.00000000000E+00 -0.97496399403E+03  0.97496399405E+03  0.50400000000E-02 0. -1.
         25    2    1    2    0    0  0.17870792855E+03  0.15024644450E+03 -0.52526418443E+03  0.58824901140E+03  0.12499567254E+03 0.  0.
         23    2    1    2    0    0 -0.17870792855E+03 -0.15024644450E+03 -0.38060907464E+03  0.45580571779E+03  0.91570010716E+02 0.  0.
        -11    1    4    4    0    0 -0.11343919579E+03 -0.10009504070E+03 -0.31878650685E+03  0.35286301204E+03  0.51100000000E-03 0. -1.
         11    1    4    4    0    0 -0.65268732761E+02 -0.50151403804E+02 -0.61822567784E+02  0.10294270575E+03  0.51100000000E-03 0.  1.
    9000005    1    3    3    0    0  0.76725473554E+02  0.37022615240E+02 -0.32855091962E+03  0.33941741133E+03  0.10000000000E+01 0.  0.
    9000005    1    3    3    0    0  0.10198245500E+03  0.11322382926E+03 -0.19671326481E+03  0.24883160007E+03  0.10000000000E+01 0.  0.
<mgrwt>
<rscale>  0 0.26124727E+03</rscale>
<asrwt>0</asrwt>
<pdfrwt beam="2">  1        1 0.14999445E+00 0.26482907E+03</pdfrwt>
<pdfrwt beam="1">  1       -1 0.10629345E-01 0.26482907E+03</pdfrwt>
<totfact> 0.92762234E+02</totfact>
</mgrwt>
</event>
<event>
 8    2  0.1409546E-003  0.1745732E+03  0.7818608E-02  0.1179094E+00
          1   -1    0    0  501    0  0.00000000000E+00  0.00000000000E+00  0.10865868618E+04  0.10865868618E+04  0.50400000000E-02 0. -1.
         -1   -1    0    0    0  501 -0.00000000000E+00 -0.00000000000E+00 -0.24847410093E+02  0.24847410604E+02  0.50400000000E-02 0.  1.
         25    2    1    2    0    0  0.27929613290E+02  0.11862438125E+03  0.61752256128E+03  0.64172417393E+03  0.12499597835E+03 0.  0.
         23    2    1    2    0    0 -0.27929613290E+02 -0.11862438125E+03  0.44421689042E+03  0.46971009847E+03  0.91908235465E+02 0.  0.
        -11    1    4    4    0    0 -0.13564543379E+02 -0.11395780740E+03  0.43896552042E+03  0.45371919380E+03  0.51100000000E-03 0. -1.
         11    1    4    4    0    0 -0.14365069911E+02 -0.46665738459E+01  0.52513699973E+01  0.15990904668E+02  0.51100000000E-03 0.  1.
    9000005    1    3    3    0    0  0.32089425002E+02  0.14245086501E+03  0.46791570818E+03  0.49017149050E+03  0.10000000000E+01 0.  0.
    9000005    1    3    3    0    0 -0.41598117117E+01 -0.23826483766E+02  0.14960685310E+03  0.15155268344E+03  0.10000000000E+01 0.  0.
<mgrwt>
<rscale>  0 0.16881078E+03</rscale>
<asrwt>0</asrwt>
<pdfrwt beam="1">  1        1 0.16716720E+00 0.17457320E+03</pdfrwt>
<pdfrwt beam="2">  1       -1 0.38226788E-02 0.17457320E+03</pdfrwt>
<totfact> 0.35944248E+03</totfact>
</mgrwt>
</event>
<event>
 8    2  0.1409546E-003  0.1539809E+03  0.7818608E-02  0.1204207E+00
          1   -1    0    0  501    0  0.00000000000E+00  0.00000000000E+00  0.60278103301E+02  0.60278103512E+02  0.50400000000E-02 0. -1.
         -1   -1    0    0    0  501 -0.00000000000E+00 -0.00000000000E+00 -0.36980357190E+03  0.36980357194E+03  0.50400000000E-02 0.  1.
         25    2    1    2    0    0 -0.60801090001E+02 -0.66247643740E+02 -0.96846462779E+02  0.18190475479E+03  0.12499831845E+03 0.  0.
         23    2    1    2    0    0  0.60801090001E+02  0.66247643740E+02 -0.21267900582E+03  0.24817692066E+03  0.90960989353E+02 0.  0.
        -11    1    4    4    0    0  0.41318410343E+01  0.66660939834E+02 -0.14678445103E+03  0.16126508635E+03  0.51100000000E-03 0. -1.
         11    1    4    4    0    0  0.56669248967E+02 -0.41329609435E+00 -0.65894554792E+02  0.86911834313E+02  0.51100000000E-03 0.  1.
    9000005    1    3    3    0    0 -0.27943971586E+01 -0.71276028823E+02 -0.10085440619E+03  0.12353417417E+03  0.10000000000E+01 0.  0.
    9000005    1    3    3    0    0 -0.58006692842E+02  0.50283850830E+01  0.40079434140E+01  0.58370580616E+02  0.10000000000E+01 0.  0.
<mgrwt>
<rscale>  0 0.14700125E+03</rscale>
<asrwt>0</asrwt>
<pdfrwt beam="1">  1        1 0.92735546E-02 0.15398085E+03</pdfrwt>
<pdfrwt beam="2">  1       -1 0.56892856E-01 0.15398085E+03</pdfrwt>
<totfact> 0.22324704E+03</totfact>
</mgrwt>
</event>
<event>
 8    2  0.1409546E-003  0.1705263E+03  0.7818608E-02  0.1183409E+00
          1   -1    0    0  501    0  0.00000000000E+00  0.00000000000E+00  0.33412935682E+03  0.33412935686E+03  0.50400000000E-02 0. -1.
         -1   -1    0    0    0  501 -0.00000000000E+00 -0.00000000000E+00 -0.82361647856E+02  0.82361648010E+02  0.50400000000E-02 0.  1.
         25    2    1    2    0    0  0.94430213930E+02  0.67357776687E+02  0.19057437931E+03  0.25572998490E+03  0.12500038298E+03 0.  0.
         23    2    1    2    0    0 -0.94430213930E+02 -0.67357776687E+02  0.61193329661E+02  0.16076101997E+03  0.92980355802E+02 0.  0.
        -11    1    4    4    0    0 -0.35603144341E+02 -0.38657214540E+02 -0.20209679251E+02  0.56306263050E+02  0.51100000000E-03 0.  1.
         11    1    4    4    0    0 -0.58827069590E+02 -0.28700562146E+02  0.81403008912E+02  0.10445475692E+03  0.51100000000E-03 0. -1.
    9000005    1    3    3    0    0  0.53644656931E+02  0.57245519253E+02  0.21276875884E+02  0.81292706556E+02  0.10000000000E+01 0.  0.
    9000005    1    3    3    0    0  0.40785556999E+02  0.10112257433E+02  0.16929750342E+03  0.17443727834E+03  0.10000000000E+01 0.  0.
<mgrwt>
<rscale>  0 0.16477501E+03</rscale>
<asrwt>0</asrwt>
<pdfrwt beam="1">  1        1 0.51404518E-01 0.17052634E+03</pdfrwt>
<pdfrwt beam="2">  1       -1 0.12671022E-01 0.17052634E+03</pdfrwt>
<totfact> 0.31426030E+03</totfact>
</mgrwt>
</event>
<event>
 8    2  0.1409546E-003  0.1333702E+03  0.7818608E-02  0.1234390E+00
          1   -1    0    0  501    0  0.00000000000E+00  0.00000000000E+00  0.52972576462E+03  0.52972576464E+03  0.50400000000E-02 0. -1.
         -1   -1    0    0    0  501 -0.00000000000E+00 -0.00000000000E+00 -0.44352961707E+02  0.44352961994E+02  0.50400000000E-02 0.  1.
         25    2    1    2    0    0 -0.60713117989E+01 -0.46108383445E+02  0.44092303470E+03  0.46065250673E+03  0.12499906232E+03 0.  0.
         23    2    1    2    0    0  0.60713117989E+01  0.46108383445E+02  0.44449768209E+02  0.11342621990E+03  0.93417779979E+02 0.  0.
        -11    1    4    4    0    0 -0.11604465811E+02  0.39997835317E+02 -0.20084085245E+02  0.46237008308E+02  0.51100000000E-03 0.  1.
         11    1    4    4    0    0  0.17675777610E+02  0.61105481276E+01  0.64533853454E+02  0.67189211593E+02  0.51100000000E-03 0. -1.
    9000005    1    3    3    0    0  0.25381423472E+02 -0.13475471709E+02  0.39526996929E+03  0.39631446305E+03  0.10000000000E+01 0.  0.
    9000005    1    3    3    0    0 -0.31452735271E+02 -0.32632911736E+02  0.45653065408E+02  0.64338043688E+02  0.10000000000E+01 0.  0.
<mgrwt>
<rscale>  0 0.12543572E+03</rscale>
<asrwt>0</asrwt>
<pdfrwt beam="1">  1        1 0.81496272E-01 0.13337020E+03</pdfrwt>
<pdfrwt beam="2">  1       -1 0.68235325E-02 0.13337020E+03</pdfrwt>
<totfact> 0.44347620E+03</totfact>
</mgrwt>
</event>
<event>
 8    2  0.1409546E-003  0.1391283E+03  0.7818608E-02  0.1223650E+00
         -1   -1    0    0    0  501 -0.00000000000E+00  0.00000000000E+00  0.40775578764E+03  0.40775578768E+03  0.50400000000E-02 0.  1.
          1   -1    0    0  501    0  0.00000000000E+00 -0.00000000000E+00 -0.40958683152E+02  0.40958683462E+02  0.50400000000E-02 0. -1.
         25    2    1    2    0    0 -0.25148324653E+02 -0.55670476903E+02  0.24206968079E+03  0.27920318061E+03  0.12500018188E+03 0.  0.
         23    2    1    2    0    0  0.25148324653E+02  0.55670476903E+02  0.12472742370E+03  0.16951129053E+03  0.97187999073E+02 0.  0.
        -11    1    4    4    0    0  0.21185846955E+02  0.94980648631E+01 -0.11289288295E+02  0.25816687972E+02  0.51100000000E-03 0. -1.
         11    1    4    4    0    0  0.39624776984E+01  0.46172412040E+02  0.13601671199E+03  0.14369460256E+03  0.51100000000E-03 0.  1.
    9000005    1    3    3    0    0 -0.40100745000E+02 -0.87561787572E+02  0.13044008272E+03  0.16214423077E+03  0.10000000000E+01 0.  0.
    9000005    1    3    3    0    0  0.14952420346E+02  0.31891310669E+02  0.11162959807E+03  0.11705894984E+03  0.10000000000E+01 0.  0.
<mgrwt>
<rscale>  0 0.13259871E+03</rscale>
<asrwt>0</asrwt>
<pdfrwt beam="2">  1        1 0.63013358E-02 0.13912831E+03</pdfrwt>
<pdfrwt beam="1">  1       -1 0.62731661E-01 0.13912831E+03</pdfrwt>
<totfact> 0.31038682E+03</totfact>
</mgrwt>
</event>
<event>
 8    2  0.1409546E-003  0.1440962E+03  0.7818608E-02  0.1219340E+00
          1   -1    0    0  501    0  0.00000000000E+00  0.00000000000E+00  0.11565073646E+04  0.11565073646E+04  0.50400000000E-02 0. -1.
         -1   -1    0    0    0  501 -0.00000000000E+00 -0.00000000000E+00 -0.16478436759E+02  0.16478437530E+02  0.50400000000E-02 0.  1.
         25    2    1    2    0    0  0.46087551051E+02  0.54907285265E+02  0.41765082563E+03  0.44180984088E+03  0.12499940404E+03 0.  0.
         23    2    1    2    0    0 -0.46087551051E+02 -0.54907285265E+02  0.72237810224E+03  0.73117596129E+03  0.87460227756E+02 0.  0.
        -11    1    4    4    0    0 -0.46856739218E+02 -0.42947605673E+02  0.22914111762E+03  0.23779340324E+03  0.51100000000E-03 0.  1.
         11    1    4    4    0    0  0.76918816749E+00 -0.11959679591E+02  0.49323698462E+03  0.49338255805E+03  0.51100000000E-03 0. -1.
    9000005    1    3    3    0    0  0.79465250653E+01  0.73661865824E+02  0.11924611379E+03  0.14039178534E+03  0.10000000000E+01 0.  0.
    9000005    1    3    3    0    0  0.38141025986E+02 -0.18754580560E+02  0.29840471184E+03  0.30141805554E+03  0.10000000000E+01 0.  0.
<mgrwt>
<rscale>  0 0.13562523E+03</rscale>
<asrwt>0</asrwt>
<pdfrwt beam="1">  1        1 0.17792420E+00 0.14409623E+03</pdfrwt>
<pdfrwt beam="2">  1       -1 0.25351443E-02 0.14409623E+03</pdfrwt>
<totfact> 0.58184565E+03</totfact>
</mgrwt>
</event>
<event>
 8    2  0.1409546E-003  0.1543236E+03  0.7818608E-02  0.1203738E+00
          1   -1    0    0  501    0  0.00000000000E+00  0.00000000000E+00  0.80208081884E+03  0.80208081886E+03  0.50400000000E-02 0. -1.
         -1   -1    0    0    0  501 -0.00000000000E+00 -0.00000000000E+00 -0.34781518230E+02  0.34781518596E+02  0.50400000000E-02 0.  1.
         25    2    1    2    0    0 -0.90357819710E+02  0.51096602007E+01  0.18659268020E+03  0.24214170763E+03  0.12500053623E+03 0.  0.
         23    2    1    2    0    0  0.90357819710E+02 -0.51096602007E+01  0.58070662041E+03  0.59472062983E+03  0.91004419359E+02 0.  0.
        -11    1    4    4    0    0  0.19326766104E+01 -0.79683023534E+01  0.30619157330E+03  0.30630133634E+03  0.51100000000E-03 0. -1.
         11    1    4    4    0    0  0.88425143099E+02  0.28586421527E+01  0.27451504711E+03  0.28841929349E+03  0.51100000000E-03 0.  1.
    9000005    1    3    3    0    0 -0.45028213793E+02 -0.15544983526E+02 -0.13916401659E+01  0.47666793605E+02  0.10000000000E+01 0.  0.
    9000005    1    3    3    0    0 -0.45329605917E+02  0.20654643727E+02  0.18798432037E+03  0.19447491402E+03  0.10000000000E+01 0.  0.
<mgrwt>
<rscale>  0 0.14737339E+03</rscale>
<asrwt>0</asrwt>
<pdfrwt beam="1">  1        1 0.12339705E+00 0.15432362E+03</pdfrwt>
<pdfrwt beam="2">  1       -1 0.53510026E-02 0.15432362E+03</pdfrwt>
<totfact> 0.35805938E+03</totfact>
</mgrwt>
</event>
<event>
 8    2  0.1409546E-003  0.3491594E+03  0.7818608E-02  0.1064064E+00
          1   -1    0    0  501    0  0.00000000000E+00  0.00000000000E+00  0.27706247553E+03  0.27706247557E+03  0.50400000000E-02 0. -1.
         -1   -1    0    0    0  501 -0.00000000000E+00 -0.00000000000E+00 -0.42758392900E+03  0.42758392903E+03  0.50400000000E-02 0.  1.
         25    2    1    2    0    0  0.31269408407E+03 -0.92246728892E+02 -0.91273902742E+02  0.36089223439E+03  0.12500092126E+03 0.  0.
         23    2    1    2    0    0 -0.31269408407E+03  0.92246728892E+02 -0.59247550732E+02  0.34375417021E+03  0.91485562062E+02 0.  0.
        -11    1    4    4    0    0 -0.12489740219E+03  0.71492075480E+02 -0.57034331336E+02  0.15480113979E+03  0.51100000000E-03 0.  1.
         11    1    4    4    0    0 -0.18779668188E+03  0.20754653413E+02 -0.22132193964E+01  0.18895303042E+03  0.51100000000E-03 0. -1.
    9000005    1    3    3    0    0  0.30176795001E+03 -0.54784146368E+02 -0.96459653194E+02  0.32151308378E+03  0.10000000000E+01 0.  0.
    9000005    1    3    3    0    0  0.10926134060E+02 -0.37462582524E+02  0.51857504521E+01  0.39379150608E+02  0.10000000000E+01 0.  0.
<mgrwt>
<rscale>  0 0.34649159E+03</rscale>
<asrwt>0</asrwt>
<pdfrwt beam="1">  1        1 0.42624996E-01 0.34915939E+03</pdfrwt>
<pdfrwt beam="2">  1       -1 0.65782143E-01 0.34915939E+03</pdfrwt>
<totfact> 0.23552324E+02</totfact>
</mgrwt>
</event>
<event>
 8    2  0.1409546E-003  0.1759099E+03  0.7818608E-02  0.1177737E+00
         -1   -1    0    0    0  501 -0.00000000000E+00  0.00000000000E+00  0.13969242048E+02  0.13969242957E+02  0.50400000000E-02 0.  1.
          1   -1    0    0  501    0  0.00000000000E+00 -0.00000000000E+00 -0.28260847329E+04  0.28260847329E+04  0.50400000000E-02 0. -1.
         25    2    1    2    0    0 -0.47581248991E+02 -0.11425846115E+03 -0.67957684288E+03  0.70197504935E+03  0.12500125329E+03 0.  0.
         23    2    1    2    0    0  0.47581248991E+02  0.11425846115E+03 -0.21325386479E+04  0.21380789265E+04  0.91331482606E+02 0.  0.
        -11    1    4    4    0    0  0.33286834833E+01  0.10620428327E+03 -0.16628599993E+04  0.16662514238E+04  0.51100000000E-03 0.  1.
         11    1    4    4    0    0  0.44252565507E+02  0.80541778836E+01 -0.46967864862E+03  0.47182750270E+03  0.51100000000E-03 0. -1.
    9000005    1    3    3    0    0 -0.53625813131E+02 -0.17829032140E+02 -0.10420591110E+03  0.11854734974E+03  0.10000000000E+01 0.  0.
    9000005    1    3    3    0    0  0.60445641402E+01 -0.96429429014E+02 -0.57537093178E+03  0.58342769961E+03  0.10000000000E+01 0.  0.
<mgrwt>
<rscale>  0 0.17010632E+03</rscale>
<asrwt>0</asrwt>
<pdfrwt beam="2">  1        1 0.43478181E+00 0.17590988E+03</pdfrwt>
<pdfrwt beam="1">  1       -1 0.21491165E-02 0.17590988E+03</pdfrwt>
<totfact> 0.59976478E+02</totfact>
</mgrwt>
</event>
<event>
 8    2  0.1409546E-003  0.1377141E+03  0.7818608E-02  0.1227570E+00
          1   -1    0    0  501    0  0.00000000000E+00  0.00000000000E+00  0.31116368823E+03  0.31116368827E+03  0.50400000000E-02 0. -1.
         -1   -1    0    0    0  501 -0.00000000000E+00 -0.00000000000E+00 -0.50001429727E+02  0.50001429981E+02  0.50400000000E-02 0.  1.
         25    2    1    2    0    0  0.51153099517E+02 -0.26858022389E+02  0.11928286515E+03  0.18219101255E+03  0.12500868042E+03 0.  0.
         23    2    1    2    0    0 -0.51153099517E+02  0.26858022389E+02  0.14187939335E+03  0.17897410569E+03  0.92541748923E+02 0.  0.
        -11    1    4    4    0    0  0.18851090880E+02  0.10249632488E+02  0.83818544681E+02  0.86521483032E+02  0.51100000000E-03 0. -1.
         11    1    4    4    0    0 -0.70004190396E+02  0.16608389901E+02  0.58060848673E+02  0.92452622662E+02  0.51100000000E-03 0.  1.
    9000005    1    3    3    0    0  0.48915063581E+02  0.43529301016E+02  0.72189395020E+02  0.97466877683E+02  0.10000000000E+01 0.  0.
    9000005    1    3    3    0    0  0.22380359356E+01 -0.70387323405E+02  0.47093470126E+02  0.84724134870E+02  0.10000000000E+01 0.  0.
<mgrwt>
<rscale>  0 0.12992301E+03</rscale>
<asrwt>0</asrwt>
<pdfrwt beam="1">  1        1 0.47871337E-01 0.13771406E+03</pdfrwt>
<pdfrwt beam="2">  1       -1 0.76925276E-02 0.13771406E+03</pdfrwt>
<totfact> 0.72881549E+03</totfact>
</mgrwt>
</event>
<event>
 8    2  0.1409546E-003  0.1386731E+03  0.7818608E-02  0.1230548E+00
          1   -1    0    0  501    0  0.00000000000E+00  0.00000000000E+00  0.58603748564E+03  0.58603748566E+03  0.50400000000E-02 0. -1.
         -1   -1    0    0    0  501 -0.00000000000E+00 -0.00000000000E+00 -0.24718385611E+02  0.24718386125E+02  0.50400000000E-02 0.  1.
         25    2    1    2    0    0  0.51549860135E+02  0.30783768543E+02  0.29047930565E+03  0.32188267306E+03  0.12500079888E+03 0.  0.
         23    2    1    2    0    0 -0.51549860135E+02 -0.30783768543E+02  0.27083979438E+03  0.28887319872E+03  0.80551239815E+02 0.  0.
        -11    1    4    4    0    0  0.18510897054E+02 -0.10195667525E+02  0.11301212354E+03  0.11497106164E+03  0.51100000000E-03 0. -1.
         11    1    4    4    0    0 -0.70060757189E+02 -0.20588101017E+02  0.15782767084E+03  0.17390213709E+03  0.51100000000E-03 0.  1.
    9000005    1    3    3    0    0  0.87166108835E+02  0.39827996585E+02  0.24702543066E+03  0.26496558877E+03  0.10000000000E+01 0.  0.
    9000005    1    3    3    0    0 -0.35616248700E+02 -0.90442280423E+01  0.43453874989E+02  0.56917084288E+02  0.10000000000E+01 0.  0.
<mgrwt>
<rscale>  0 0.12793800E+03</rscale>
<asrwt>0</asrwt>
<pdfrwt beam="1">  1        1 0.90159607E-01 0.13867310E+03</pdfrwt>
<pdfrwt beam="2">  1       -1 0.38028289E-02 0.13867310E+03</pdfrwt>
<totfact> 0.92300965E+03</totfact>
</mgrwt>
</event>
<event>
 8    2  0.1409546E-003  0.1990866E+03  0.7818608E-02  0.1154959E+00
         -1   -1    0    0    0  501 -0.00000000000E+00  0.00000000000E+00  0.43584275182E+03  0.43584275185E+03  0.50400000000E-02 0.  1.
          1   -1    0    0  501    0  0.00000000000E+00 -0.00000000000E+00 -0.83119491896E+02  0.83119492049E+02  0.50400000000E-02 0. -1.
         25    2    1    2    0    0  0.14837789285E+03 -0.44647760856E+02  0.21400736117E+03  0.29229204033E+03  0.12500425820E+03 0.  0.
         23    2    1    2    0    0 -0.14837789285E+03  0.44647760856E+02  0.13871589875E+03  0.22667020357E+03  0.90154639281E+02 0.  0.
        -11    1    4    4    0    0 -0.10451996922E+03  0.70995638685E+02  0.11251663267E+03  0.16918864413E+03  0.51100000000E-03 0.  1.
         11    1    4    4    0    0 -0.43857923634E+02 -0.26347877828E+02  0.26199266088E+02  0.57481559437E+02  0.51100000000E-03 0. -1.
    9000005    1    3    3    0    0  0.16663727594E+03 -0.48999126588E+02  0.16406496481E+03  0.23892929669E+03  0.10000000000E+01 0.  0.
    9000005    1    3    3    0    0 -0.18259383085E+02  0.43513657324E+01  0.49942396361E+02  0.53362743639E+02  0.10000000000E+01 0.  0.
<mgrwt>
<rscale>  0 0.19393568E+03</rscale>
<asrwt>0</asrwt>
<pdfrwt beam="2">  1        1 0.12787614E-01 0.19908663E+03</pdfrwt>
<pdfrwt beam="1">  1       -1 0.67052730E-01 0.19908663E+03</pdfrwt>
<totfact> 0.10702339E+03</totfact>
</mgrwt>
</event>
<event>
 8    2  0.1409546E-003  0.1498188E+03  0.7818608E-02  0.1210724E+00
         -1   -1    0    0    0  501 -0.00000000000E+00  0.00000000000E+00  0.42874246533E+03  0.42874246536E+03  0.50400000000E-02 0.  1.
          1   -1    0    0  501    0  0.00000000000E+00 -0.00000000000E+00 -0.42740969570E+02  0.42740969867E+02  0.50400000000E-02 0. -1.
         25    2    1    2    0    0  0.64959353567E+02 -0.51003868776E+02  0.20543518967E+03  0.25426221946E+03  0.12499818736E+03 0.  0.
         23    2    1    2    0    0 -0.64959353567E+02  0.51003868776E+02  0.18056630609E+03  0.21722121577E+03  0.88089462705E+02 0.  0.
        -11    1    4    4    0    0 -0.13444353845E+02 -0.23590195037E+02  0.23683549135E+02  0.36029966030E+02  0.51100000000E-03 0. -1.
         11    1    4    4    0    0 -0.51514999722E+02  0.74594063813E+02  0.15688275695E+03  0.18119124974E+03  0.51100000000E-03 0.  1.
    9000005    1    3    3    0    0 -0.19752161822E+02 -0.42437149346E+02  0.13774779515E+03  0.14548716304E+03  0.10000000000E+01 0.  0.
    9000005    1    3    3    0    0  0.84711515389E+02 -0.85667194301E+01  0.67687394523E+02  0.10877505642E+03  0.10000000000E+01 0.  0.
<mgrwt>
<rscale>  0 0.14195397E+03</rscale>
<asrwt>0</asrwt>
<pdfrwt beam="2">  1        1 0.65755337E-02 0.14981875E+03</pdfrwt>
<pdfrwt beam="1">  1       -1 0.65960381E-01 0.14981875E+03</pdfrwt>
<totfact> 0.26689259E+03</totfact>
</mgrwt>
</event>
<event>
 8    2  0.1409546E-003  0.2969202E+03  0.7818608E-02  0.1088500E+00
          1   -1    0    0  501    0  0.00000000000E+00  0.00000000000E+00  0.17825503512E+04  0.17825503512E+04  0.50400000000E-02 0. -1.
         -1   -1    0    0    0  501 -0.00000000000E+00 -0.00000000000E+00 -0.61790255794E+02  0.61790256000E+02  0.50400000000E-02 0.  1.
         25    2    1    2    0    0  0.21237460355E+03 -0.16563190858E+03  0.42864755680E+03  0.52144061866E+03  0.12499875787E+03 0.  0.
         23    2    1    2    0    0 -0.21237460355E+03  0.16563190858E+03  0.12921125386E+04  0.13228999885E+04  0.89289786068E+02 0.  0.
        -11    1    4    4    0    0 -0.90250897438E+02  0.24552747862E+02  0.33741315557E+03  0.35013668683E+03  0.51100000000E-03 0.  1.
         11    1    4    4    0    0 -0.12212370611E+03  0.14107916072E+03  0.95469938304E+03  0.97276330171E+03  0.51100000000E-03 0. -1.
    9000005    1    3    3    0    0  0.15438227458E+03 -0.59835172175E+02  0.17704389697E+03  0.24240395209E+03  0.10000000000E+01 0.  0.
    9000005    1    3    3    0    0  0.57992328966E+02 -0.10579673640E+03  0.25160365983E+03  0.27903666657E+03  0.10000000000E+01 0.  0.
<mgrwt>
<rscale>  0 0.29356935E+03</rscale>
<asrwt>0</asrwt>
<pdfrwt beam="1">  1        1 0.27423853E+00 0.29692018E+03</pdfrwt>
<pdfrwt beam="2">  1       -1 0.95061928E-02 0.29692018E+03</pdfrwt>
<totfact> 0.30729301E+02</totfact>
</mgrwt>
</event>
<event>
 8    2  0.1409546E-003  0.1357455E+03  0.7818608E-02  0.1231719E+00
         -1   -1    0    0    0  501 -0.00000000000E+00  0.00000000000E+00  0.16993752851E+02  0.16993753598E+02  0.50400000000E-02 0.  1.
          1   -1    0    0  501    0  0.00000000000E+00 -0.00000000000E+00 -0.90256344090E+03  0.90256344091E+03  0.50400000000E-02 0. -1.
         25    2    1    2    0    0 -0.49235900924E+02  0.19432024434E+02 -0.38627182750E+03  0.40942980859E+03  0.12500026369E+03 0.  0.
         23    2    1    2    0    0  0.49235900924E+02 -0.19432024434E+02 -0.49929786054E+03  0.51012738592E+03  0.90165507887E+02 0.  0.
        -11    1    4    4    0    0 -0.81331785326E+01 -0.45928444329E+01 -0.23133154961E+01  0.96225901853E+01  0.51100000000E-03 0.  1.
         11    1    4    4    0    0  0.57369079457E+02 -0.14839180001E+02 -0.49698454505E+03  0.50050479574E+03  0.51100000000E-03 0. -1.
    9000005    1    3    3    0    0 -0.74729659687E+02  0.54346765937E+02 -0.27017925139E+03  0.28554495423E+03  0.10000000000E+01 0.  0.
    9000005    1    3    3    0    0  0.25493758762E+02 -0.34914741504E+02 -0.11609257612E+03  0.12388485436E+03  0.10000000000E+01 0.  0.
<mgrwt>
<rscale>  0 0.12716850E+03</rscale>
<asrwt>0</asrwt>
<pdfrwt beam="2">  1        1 0.13885588E+00 0.13574551E+03</pdfrwt>
<pdfrwt beam="1">  1       -1 0.26144243E-02 0.13574551E+03</pdfrwt>
<totfact> 0.84831163E+03</totfact>
</mgrwt>
</event>
<event>
 8    2  0.1409546E-003  0.1337411E+03  0.7818608E-02  0.1235417E+00
          1   -1    0    0  501    0  0.00000000000E+00  0.00000000000E+00  0.93313919130E+02  0.93313919266E+02  0.50400000000E-02 0. -1.
         -1   -1    0    0    0  501 -0.00000000000E+00 -0.00000000000E+00 -0.15631983812E+03  0.15631983820E+03  0.50400000000E-02 0.  1.
         25    2    1    2    0    0 -0.20705567643E+02  0.42800893440E+02 -0.71641831469E+01  0.13393289309E+03  0.12500422921E+03 0.  0.
         23    2    1    2    0    0  0.20705567643E+02 -0.42800893440E+02 -0.55841735842E+02  0.11570086438E+03  0.89486052242E+02 0.  0.
        -11    1    4    4    0    0 -0.68209857143E+00 -0.19461872354E+02 -0.75810921355E+02  0.78272124865E+02  0.51100000000E-03 0.  1.
         11    1    4    4    0    0  0.21387666215E+02 -0.23339021087E+02  0.19969185513E+02  0.37428739515E+02  0.51100000000E-03 0. -1.
    9000005    1    3    3    0    0 -0.68346472545E+02 -0.19344135980E+01 -0.35495814229E+01  0.68473219536E+02  0.10000000000E+01 0.  0.
    9000005    1    3    3    0    0  0.47640904902E+02  0.44735307039E+02 -0.36146017240E+01  0.65459673550E+02  0.10000000000E+01 0.  0.
<mgrwt>
<rscale>  0 0.12477759E+03</rscale>
<asrwt>0</asrwt>
<pdfrwt beam="1">  1        1 0.14355988E-01 0.13374115E+03</pdfrwt>
<pdfrwt beam="2">  1       -1 0.24049206E-01 0.13374115E+03</pdfrwt>
<totfact> 0.55806328E+03</totfact>
</mgrwt>
</event>
<event>
 8    2  0.1409546E-003  0.1575622E+03  0.7818608E-02  0.1199244E+00
         -1   -1    0    0    0  501 -0.00000000000E+00  0.00000000000E+00  0.56708533587E+01  0.56708555984E+01  0.50400000000E-02 0.  1.
          1   -1    0    0  501    0  0.00000000000E+00 -0.00000000000E+00 -0.37823840522E+04  0.37823840522E+04  0.50400000000E-02 0. -1.
         25    2    1    2    0    0 -0.19895433184E+02 -0.93835387120E+02 -0.22882512124E+04  0.22936694324E+04  0.12499978414E+03 0.  0.
         23    2    1    2    0    0  0.19895433184E+02  0.93835387120E+02 -0.14884619864E+04  0.14943854754E+04  0.92021496455E+02 0.  0.
        -11    1    4    4    0    0  0.31718162973E+02  0.96509158136E+02 -0.88653649927E+03  0.89233795392E+03  0.51100000000E-03 0.  1.
         11    1    4    4    0    0 -0.11822729789E+02 -0.26737710153E+01 -0.60192548716E+03  0.60204752145E+03  0.51100000000E-03 0. -1.
    9000005    1    3    3    0    0  0.39282657327E+02 -0.89987360897E+02 -0.13962583062E+04  0.13997067943E+04  0.10000000000E+01 0.  0.
    9000005    1    3    3    0    0 -0.59178090511E+02 -0.38480262238E+01 -0.89199290620E+03  0.89396263815E+03  0.10000000000E+01 0.  0.
<mgrwt>
<rscale>  0 0.15100459E+03</rscale>
<asrwt>0</asrwt>
<pdfrwt beam="2">  1        1 0.58190322E+00 0.15756222E+03</pdfrwt>
<pdfrwt beam="1">  1       -1 0.87244217E-03 0.15756222E+03</pdfrwt>
<totfact> 0.44640139E+02</totfact>
</mgrwt>
</event>
<event>
 8    2  0.1409546E-003  0.1269424E+03  0.7818608E-02  0.1246773E+00
         -1   -1    0    0    0  501 -0.00000000000E+00  0.00000000000E+00  0.11697911824E+03  0.11697911835E+03  0.50400000000E-02 0.  1.
          1   -1    0    0  501    0  0.00000000000E+00 -0.00000000000E+00 -0.10452713625E+03  0.10452713638E+03  0.50400000000E-02 0. -1.
         25    2    1    2    0    0 -0.18722108833E+02 -0.11776726718E+02  0.41949259530E+01  0.12701164750E+03  0.12500061018E+03 0.  0.
         23    2    1    2    0    0  0.18722108833E+02  0.11776726718E+02  0.82570560350E+01  0.94494607226E+02  0.91497776853E+02 0.  0.
        -11    1    4    4    0    0 -0.11604730768E+02  0.24285716014E+02 -0.32484883157E+02  0.42186886736E+02  0.51100000000E-03 0. -1.
         11    1    4    4    0    0  0.30326839601E+02 -0.12508989295E+02  0.40741939192E+02  0.52307720489E+02  0.51100000000E-03 0.  1.
    9000005    1    3    3    0    0  0.35763585545E+02 -0.42007134018E+02 -0.22012500262E+02  0.59406931642E+02  0.10000000000E+01 0.  0.
    9000005    1    3    3    0    0 -0.54485694378E+02  0.30230407299E+02  0.26207426215E+02  0.67604715857E+02  0.10000000000E+01 0.  0.
<mgrwt>
<rscale>  0 0.11779872E+03</rscale>
<asrwt>0</asrwt>
<pdfrwt beam="2">  1        1 0.16081098E-01 0.12694235E+03</pdfrwt>
<pdfrwt beam="1">  1       -1 0.17996787E-01 0.12694235E+03</pdfrwt>
<totfact> 0.76582360E+03</totfact>
</mgrwt>
</event>
<event>
 8    2  0.1409546E-003  0.1840052E+03  0.7818608E-02  0.1169697E+00
         -1   -1    0    0    0  501 -0.00000000000E+00  0.00000000000E+00  0.26160388702E+02  0.26160389188E+02  0.50400000000E-02 0.  1.
          1   -1    0    0  501    0  0.00000000000E+00 -0.00000000000E+00 -0.11507628711E+04  0.11507628711E+04  0.50400000000E-02 0. -1.
         25    2    1    2    0    0 -0.95834800407E+02  0.95132967938E+02 -0.54134623018E+03  0.57176363735E+03  0.12499330183E+03 0.  0.
         23    2    1    2    0    0  0.95834800407E+02 -0.95132967938E+02 -0.58325625223E+03  0.60515962297E+03  0.88293391287E+02 0.  0.
        -11    1    4    4    0    0  0.61071095207E+02 -0.62791960706E+02 -0.51261054640E+03  0.52004046120E+03  0.51100000000E-03 0.  1.
         11    1    4    4    0    0  0.34763705200E+02 -0.32341007233E+02 -0.70645705829E+02  0.85119161770E+02  0.51100000000E-03 0. -1.
    9000005    1    3    3    0    0 -0.10475912129E+02  0.95167212201E+02 -0.33612159217E+03  0.34949287223E+03  0.10000000000E+01 0.  0.
    9000005    1    3    3    0    0 -0.85358888278E+02 -0.34244262425E-01 -0.20522463801E+03  0.22227076512E+03  0.10000000000E+01 0.  0.
<mgrwt>
<rscale>  0 0.17805637E+03</rscale>
<asrwt>0</asrwt>
<pdfrwt beam="2">  1        1 0.17704040E+00 0.18400521E+03</pdfrwt>
<pdfrwt beam="1">  1       -1 0.40246761E-02 0.18400521E+03</pdfrwt>
<totfact> 0.30037036E+03</totfact>
</mgrwt>
</event>
<event>
 8    2  0.1409546E-003  0.1255892E+03  0.7818608E-02  0.1248877E+00
         -1   -1    0    0    0  501 -0.00000000000E+00  0.00000000000E+00  0.54856338807E+01  0.54856361960E+01  0.50400000000E-02 0.  1.
          1   -1    0    0  501    0  0.00000000000E+00 -0.00000000000E+00 -0.24756508319E+04  0.24756508319E+04  0.50400000000E-02 0. -1.
         25    2    1    2    0    0 -0.11919893667E+02 -0.23903606675E+01 -0.18197449259E+04  0.18240735297E+04  0.12499939446E+03 0.  0.
         23    2    1    2    0    0  0.11919893667E+02  0.23903606675E+01 -0.65042027218E+03  0.65706293849E+03  0.92397927400E+02 0.  0.
        -11    1    4    4    0    0 -0.38692548319E+01 -0.21678456808E+02 -0.58703158038E+03  0.58744446800E+03  0.51100000000E-03 0. -1.
         11    1    4    4    0    0  0.15789148499E+02  0.24068817475E+02 -0.63388691802E+02  0.69618470491E+02  0.51100000000E-03 0.  1.
    9000005    1    3    3    0    0 -0.23082488314E+02 -0.50261095780E+02 -0.44149632502E+03  0.44494829365E+03  0.10000000000E+01 0.  0.
    9000005    1    3    3    0    0  0.11162594648E+02  0.47870735113E+02 -0.13782486009E+04  0.13791252360E+04  0.10000000000E+01 0.  0.
<mgrwt>
<rscale>  0 0.11656322E+03</rscale>
<asrwt>0</asrwt>
<pdfrwt beam="2">  1        1 0.38086847E+00 0.12558920E+03</pdfrwt>
<pdfrwt beam="1">  1       -1 0.84394583E-03 0.12558920E+03</pdfrwt>
<totfact> 0.39381399E+03</totfact>
</mgrwt>
</event>
<event>
 8    2  0.1409546E-003  0.1331025E+03  0.7818608E-02  0.1229919E+00
          1   -1    0    0  501    0  0.00000000000E+00  0.00000000000E+00  0.12458896509E+04  0.12458896509E+04  0.50400000000E-02 0. -1.
         -1   -1    0    0    0  501 -0.00000000000E+00 -0.00000000000E+00 -0.12504797068E+02  0.12504798084E+02  0.50400000000E-02 0.  1.
         25    2    1    2    0    0  0.40637278868E+02 -0.20977919083E+02  0.59374524106E+03  0.60848146668E+03  0.12499928998E+03 0.  0.
         23    2    1    2    0    0 -0.40637278868E+02  0.20977919083E+02  0.63963961274E+03  0.64991298227E+03  0.10562475478E+03 0.  0.
        -11    1    4    4    0    0 -0.76383045910E+02  0.12922684097E+02  0.39253080765E+03  0.40010223746E+03  0.51100000000E-03 0.  1.
         11    1    4    4    0    0  0.35745767043E+02  0.80552349861E+01  0.24710880509E+03  0.24981074482E+03  0.51100000000E-03 0. -1.
    9000005    1    3    3    0    0 -0.18214141810E+02 -0.55299414266E+02  0.18059961010E+03  0.18975510361E+03  0.10000000000E+01 0.  0.
    9000005    1    3    3    0    0  0.58851420678E+02  0.34321495182E+02  0.41314563096E+03  0.41872636307E+03  0.10000000000E+01 0.  0.
<mgrwt>
<rscale>  0 0.12835380E+03</rscale>
<asrwt>0</asrwt>
<pdfrwt beam="1">  1        1 0.19167533E+00 0.13310253E+03</pdfrwt>
<pdfrwt beam="2">  1       -1 0.19238150E-02 0.13310253E+03</pdfrwt>
<totfact> 0.75076503E+03</totfact>
</mgrwt>
</event>
<event>
 8    2  0.1409546E-003  0.1435462E+03  0.7818608E-02  0.1219177E+00
         -1   -1    0    0    0  501 -0.00000000000E+00  0.00000000000E+00  0.22514080235E+02  0.22514080799E+02  0.50400000000E-02 0.  1.
          1   -1    0    0  501    0  0.00000000000E+00 -0.00000000000E+00 -0.74878421030E+03  0.74878421031E+03  0.50400000000E-02 0. -1.
         25    2    1    2    0    0 -0.41613233778E+02 -0.56987485820E+02 -0.44218164802E+03  0.46489797259E+03  0.12500512114E+03 0.  0.
         23    2    1    2    0    0  0.41613233778E+02  0.56987485820E+02 -0.28408848205E+03  0.30640031852E+03  0.90529855809E+02 0.  0.
        -11    1    4    4    0    0  0.21201291344E+02 -0.18720383575E+01 -0.20315311679E+03  0.20426499491E+03  0.51100000000E-03 0. -1.
         11    1    4    4    0    0  0.20411942434E+02  0.58859524177E+02 -0.80935365254E+02  0.10213532361E+03  0.51100000000E-03 0.  1.
    9000005    1    3    3    0    0  0.20303783585E+02 -0.67194422608E+02 -0.14422484642E+03  0.16040305603E+03  0.10000000000E+01 0.  0.
    9000005    1    3    3    0    0 -0.61917017362E+02  0.10206936788E+02 -0.29795680159E+03  0.30449491656E+03  0.10000000000E+01 0.  0.
<mgrwt>
<rscale>  0 0.13574135E+03</rscale>
<asrwt>0</asrwt>
<pdfrwt beam="2">  1        1 0.11519755E+00 0.14354621E+03</pdfrwt>
<pdfrwt beam="1">  1       -1 0.34637053E-02 0.14354621E+03</pdfrwt>
<totfact> 0.75131097E+03</totfact>
</mgrwt>
</event>
<event>
 8    2  0.1409546E-003  0.1385230E+03  0.7818608E-02  0.1226910E+00
         -1   -1    0    0    0  501 -0.00000000000E+00  0.00000000000E+00  0.19276390897E+03  0.19276390904E+03  0.50400000000E-02 0.  1.
          1   -1    0    0  501    0  0.00000000000E+00 -0.00000000000E+00 -0.79510194271E+02  0.79510194431E+02  0.50400000000E-02 0. -1.
         25    2    1    2    0    0  0.14306726563E+02  0.57939335297E+02  0.55720889553E+02  0.14930990206E+03  0.12500792103E+03 0.  0.
         23    2    1    2    0    0 -0.14306726563E+02 -0.57939335297E+02  0.57532825146E+02  0.12296420141E+03  0.90821362352E+02 0.  0.
        -11    1    4    4    0    0 -0.38633158699E+02 -0.61850173390E+02  0.64503387269E+02  0.97358368253E+02  0.51100000000E-03 0.  1.
         11    1    4    4    0    0  0.24326432136E+02  0.39108380929E+01 -0.69705621233E+01  0.25605833157E+02  0.51100000000E-03 0. -1.
    9000005    1    3    3    0    0 -0.72092405030E+01  0.34063902271E+01  0.83881333146E+02  0.84265382533E+02  0.10000000000E+01 0.  0.
    9000005    1    3    3    0    0  0.21515967066E+02  0.54532945070E+02 -0.28160443593E+02  0.65044519524E+02  0.10000000000E+01 0.  0.
<mgrwt>
<rscale>  0 0.13036875E+03</rscale>
<asrwt>0</asrwt>
<pdfrwt beam="2">  1        1 0.12232338E-01 0.13852303E+03</pdfrwt>
<pdfrwt beam="1">  1       -1 0.29655985E-01 0.13852303E+03</pdfrwt>
<totfact> 0.48712551E+03</totfact>
</mgrwt>
</event>
<event>
 8    2  0.1409546E-003  0.1304796E+03  0.7818608E-02  0.1241053E+00
          1   -1    0    0  501    0  0.00000000000E+00  0.00000000000E+00  0.52831305501E+03  0.52831305504E+03  0.50400000000E-02 0. -1.
         -1   -1    0    0    0  501 -0.00000000000E+00 -0.00000000000E+00 -0.29792705480E+02  0.29792705906E+02  0.50400000000E-02 0.  1.
         25    2    1    2    0    0  0.23390090279E+02  0.29171778302E+02  0.39522892722E+03  0.41621007571E+03  0.12500733274E+03 0.  0.
         23    2    1    2    0    0 -0.23390090279E+02 -0.29171778302E+02  0.10329142231E+03  0.14189568523E+03  0.89817473756E+02 0.  0.
        -11    1    4    4    0    0  0.75756064734E+01 -0.41520578599E+01  0.10168675019E+03  0.10205304778E+03  0.51100000000E-03 0. -1.
         11    1    4    4    0    0 -0.30965696752E+02 -0.25019720442E+02  0.16046721289E+01  0.39842637454E+02  0.51100000000E-03 0.  1.
    9000005    1    3    3    0    0 -0.68540091930E+01  0.38904420207E+02  0.30034105303E+02  0.49634452097E+02  0.10000000000E+01 0.  0.
    9000005    1    3    3    0    0  0.30244099472E+02 -0.97326419055E+01  0.36519482192E+03  0.36657562361E+03  0.10000000000E+01 0.  0.
<mgrwt>
<rscale>  0 0.12124771E+03</rscale>
<asrwt>0</asrwt>
<pdfrwt beam="1">  1        1 0.81278927E-01 0.13047959E+03</pdfrwt>
<pdfrwt beam="2">  1       -1 0.45834934E-02 0.13047959E+03</pdfrwt>
<totfact> 0.80244605E+03</totfact>
</mgrwt>
</event>
<event>
 8    2  0.1409546E-003  0.1274084E+03  0.7818608E-02  0.1245101E+00
          1   -1    0    0  501    0  0.00000000000E+00  0.00000000000E+00  0.10026044662E+04  0.10026044662E+04  0.50400000000E-02 0. -1.
         -1   -1    0    0    0  501 -0.00000000000E+00 -0.00000000000E+00 -0.13914897153E+02  0.13914898066E+02  0.50400000000E-02 0.  1.
         25    2    1    2    0    0 -0.24679110767E+02 -0.46285125290E+00  0.71793307760E+03  0.72915073978E+03  0.12499449856E+03 0.  0.
         23    2    1    2    0    0  0.24679110767E+02  0.46285125290E+00  0.27075649140E+03  0.28736862445E+03  0.93071885899E+02 0.  0.
        -11    1    4    4    0    0  0.11445853630E+02 -0.20568399827E+02  0.10239530602E+02  0.25669332363E+02  0.51100000000E-03 0.  1.
         11    1    4    4    0    0  0.13233257137E+02  0.21031251079E+02  0.26051696080E+03  0.26169929209E+03  0.51100000000E-03 0. -1.
    9000005    1    3    3    0    0 -0.67067392651E+02  0.84612836006E+00  0.23582202910E+03  0.24517703909E+03  0.10000000000E+01 0.  0.
    9000005    1    3    3    0    0  0.42388281885E+02 -0.13089796130E+01  0.48211104851E+03  0.48397370069E+03  0.10000000000E+01 0.  0.
<mgrwt>
<rscale>  0 0.11879363E+03</rscale>
<asrwt>0</asrwt>
<pdfrwt beam="1">  1        1 0.15424686E+00 0.12740839E+03</pdfrwt>
<pdfrwt beam="2">  1       -1 0.21407532E-02 0.12740839E+03</pdfrwt>
<totfact> 0.95016332E+03</totfact>
</mgrwt>
</event>
<event>
 8    2  0.1409546E-003  0.1299045E+03  0.7818608E-02  0.1239922E+00
          1   -1    0    0  501    0  0.00000000000E+00  0.00000000000E+00  0.31918129467E+03  0.31918129471E+03  0.50400000000E-02 0. -1.
         -1   -1    0    0    0  501 -0.00000000000E+00 -0.00000000000E+00 -0.41743492560E+02  0.41743492864E+02  0.50400000000E-02 0.  1.
         25    2    1    2    0    0  0.31784402165E+02 -0.15498027848E+02  0.16076841399E+03  0.20669222241E+03  0.12499901912E+03 0.  0.
         23    2    1    2    0    0 -0.31784402165E+02  0.15498027848E+02  0.11666938812E+03  0.15423256516E+03  0.94474869373E+02 0.  0.
        -11    1    4    4    0    0  0.22972280250E+02 -0.31618934298E+01  0.85361515733E+02  0.88455138903E+02  0.51100000000E-03 0. -1.
         11    1    4    4    0    0 -0.54756682415E+02  0.18659921278E+02  0.31307872390E+02  0.65777426257E+02  0.51100000000E-03 0.  1.
    9000005    1    3    3    0    0  0.59737278798E+02  0.35353460006E+02  0.10718074128E+03  0.12769933795E+03  0.10000000000E+01 0.  0.
    9000005    1    3    3    0    0 -0.27952876633E+02 -0.50851487854E+02  0.53587672707E+02  0.78992884459E+02  0.10000000000E+01 0.  0.
<mgrwt>
<rscale>  0 0.12194530E+03</rscale>
<asrwt>0</asrwt>
<pdfrwt beam="1">  1        1 0.49104812E-01 0.12990455E+03</pdfrwt>
<pdfrwt beam="2">  1       -1 0.64220762E-02 0.12990455E+03</pdfrwt>
<totfact> 0.92187286E+03</totfact>
</mgrwt>
</event>
<event>
 8    2  0.1409546E-003  0.1460487E+03  0.7818608E-02  0.1215084E+00
         -1   -1    0    0    0  501 -0.00000000000E+00  0.00000000000E+00  0.12304560969E+03  0.12304560979E+03  0.50400000000E-02 0.  1.
          1   -1    0    0  501    0  0.00000000000E+00 -0.00000000000E+00 -0.18591702104E+03  0.18591702111E+03  0.50400000000E-02 0. -1.
         25    2    1    2    0    0  0.70759180505E+02  0.26408936366E+02 -0.10823760795E+03  0.18178448046E+03  0.12500369600E+03 0.  0.
         23    2    1    2    0    0 -0.70759180505E+02 -0.26408936366E+02  0.45366196599E+02  0.12717815044E+03  0.91716392264E+02 0.  0.
        -11    1    4    4    0    0 -0.29347165263E+02  0.98837472400E+01 -0.23593755109E+02  0.38930834167E+02  0.51100000000E-03 0. -1.
         11    1    4    4    0    0 -0.41412015242E+02 -0.36292683606E+02  0.68959951709E+02  0.88247316274E+02  0.51100000000E-03 0.  1.
    9000005    1    3    3    0    0 -0.31507487597E+02  0.23721273266E+02 -0.11771862132E+02  0.41170345129E+02  0.10000000000E+01 0.  0.
    9000005    1    3    3    0    0  0.10226666810E+03  0.26876630992E+01 -0.96465745818E+02  0.14061413533E+03  0.10000000000E+01 0.  0.
<mgrwt>
<rscale>  0 0.13870366E+03</rscale>
<asrwt>0</asrwt>
<pdfrwt beam="2">  1        1 0.28602619E-01 0.14604868E+03</pdfrwt>
<pdfrwt beam="1">  1       -1 0.18930094E-01 0.14604868E+03</pdfrwt>
<totfact> 0.34370548E+03</totfact>
</mgrwt>
</event>
<event>
 8    2  0.1409546E-003  0.1268351E+03  0.7818608E-02  0.1247187E+00
         -1   -1    0    0    0  501 -0.00000000000E+00  0.00000000000E+00  0.49863494957E+03  0.49863494960E+03  0.50400000000E-02 0.  1.
          1   -1    0    0  501    0  0.00000000000E+00 -0.00000000000E+00 -0.24389685390E+02  0.24389685911E+02  0.50400000000E-02 0. -1.
         25    2    1    2    0    0  0.13033971408E+02 -0.17148733529E+02  0.26386339229E+03  0.29276446614E+03  0.12499271727E+03 0.  0.
         23    2    1    2    0    0 -0.13033971408E+02  0.17148733529E+02  0.21038187189E+03  0.23026016937E+03  0.91078263622E+02 0.  0.
        -11    1    4    4    0    0  0.18628762906E+02  0.34970084326E+02  0.17541363797E+03  0.17983292800E+03  0.51100000000E-03 0.  1.
         11    1    4    4    0    0 -0.31662734314E+02 -0.17821350797E+02  0.34968233916E+02  0.50427241368E+02  0.51100000000E-03 0. -1.
    9000005    1    3    3    0    0 -0.11741485883E+02 -0.38563002186E+02  0.25588719343E+03  0.25904482892E+03  0.10000000000E+01 0.  0.
    9000005    1    3    3    0    0  0.24775457291E+02  0.21414268657E+02  0.79761988618E+01  0.33719637222E+02  0.10000000000E+01 0.  0.
<mgrwt>
<rscale>  0 0.11755409E+03</rscale>
<asrwt>0</asrwt>
<pdfrwt beam="2">  1        1 0.37522596E-02 0.12683510E+03</pdfrwt>
<pdfrwt beam="1">  1       -1 0.76713064E-01 0.12683510E+03</pdfrwt>
<totfact> 0.42185082E+03</totfact>
</mgrwt>
</event>
<event>
 8    2  0.1409546E-003  0.1340106E+03  0.7818608E-02  0.1237782E+00
          1   -1    0    0  501    0  0.00000000000E+00  0.00000000000E+00  0.13101156725E+04  0.13101156726E+04  0.50400000000E-02 0.  1.
         -1   -1    0    0    0  501 -0.00000000000E+00 -0.00000000000E+00 -0.10093149314E+02  0.10093150573E+02  0.50400000000E-02 0. -1.
         25    2    1    2    0    0  0.21406160684E+02  0.43313877288E+02  0.75770211685E+03  0.76946172180E+03  0.12499811101E+03 0.  0.
         23    2    1    2    0    0 -0.21406160684E+02 -0.43313877288E+02  0.54232040638E+03  0.55074710133E+03  0.82925453043E+02 0.  0.
        -11    1    4    4    0    0  0.30610995492E+02 -0.63339439451E+01  0.21524481924E+03  0.21750283699E+03  0.51100000000E-03 0.  1.
         11    1    4    4    0    0 -0.52017156176E+02 -0.36979933343E+02  0.32707558714E+03  0.33324426434E+03  0.51100000000E-03 0. -1.
    9000005    1    3    3    0    0  0.66333207909E+02 -0.54475061327E+01  0.42954628578E+03  0.43467318922E+03  0.10000000000E+01 0.  0.
    9000005    1    3    3    0    0 -0.44927047225E+02  0.48761383421E+02  0.32815583107E+03  0.33478853258E+03  0.10000000000E+01 0.  0.
<mgrwt>
<rscale>  0 0.12327994E+03</rscale>
<asrwt>0</asrwt>
<pdfrwt beam="1">  1        1 0.20155621E+00 0.13401061E+03</pdfrwt>
<pdfrwt beam="2">  1       -1 0.15527927E-02 0.13401061E+03</pdfrwt>
<totfact> 0.92539872E+03</totfact>
</mgrwt>
</event>
<event>
 8    2  0.1409546E-003  0.1865692E+03  0.7818608E-02  0.1166210E+00
          1   -1    0    0  501    0  0.00000000000E+00  0.00000000000E+00  0.29193778568E+03  0.29193778573E+03  0.50400000000E-02 0. -1.
         -1   -1    0    0    0  501 -0.00000000000E+00 -0.00000000000E+00 -0.12235576964E+03  0.12235576974E+03  0.50400000000E-02 0.  1.
         25    2    1    2    0    0 -0.80419049292E+01  0.13826814536E+03  0.16093517400E+03  0.24639034321E+03  0.12500127495E+03 0.  0.
         23    2    1    2    0    0  0.80419049292E+01 -0.13826814536E+03  0.86468420467E+01  0.16790321226E+03  0.94519672837E+02 0.  0.
        -11    1    4    4    0    0  0.61801338879E+01 -0.11854934062E+03  0.44635252444E+02  0.12682446916E+03  0.51100000000E-03 0. -1.
         11    1    4    4    0    0  0.18617710413E+01 -0.19718804748E+02 -0.35988410397E+02  0.41078743107E+02  0.51100000000E-03 0.  1.
    9000005    1    3    3    0    0  0.37211564819E+01  0.98450368426E+00 -0.19194509940E+02  0.19602180106E+02  0.10000000000E+01 0.  0.
    9000005    1    3    3    0    0 -0.11763061411E+02  0.13728364168E+03  0.18012968394E+03  0.22678816310E+03  0.10000000000E+01 0.  0.
<mgrwt>
<rscale>  0 0.18165634E+03</rscale>
<asrwt>0</asrwt>
<pdfrwt beam="1">  1        1 0.44913505E-01 0.18656921E+03</pdfrwt>
<pdfrwt beam="2">  1       -1 0.18823965E-01 0.18656921E+03</pdfrwt>
<totfact> 0.19954193E+03</totfact>
</mgrwt>
</event>
<event>
 8    2  0.1409546E-003  0.2143861E+03  0.7818608E-02  0.1141551E+00
          1   -1    0    0  501    0  0.00000000000E+00  0.00000000000E+00  0.12974637077E+03  0.12974637087E+03  0.50400000000E-02 0. -1.
         -1   -1    0    0    0  501 -0.00000000000E+00 -0.00000000000E+00 -0.32832296509E+03  0.32832296513E+03  0.50400000000E-02 0.  1.
         25    2    1    2    0    0  0.52572926291E+02  0.16604816524E+03 -0.87746373897E+02  0.23164802623E+03  0.12500190464E+03 0.  0.
         23    2    1    2    0    0 -0.52572926291E+02 -0.16604816524E+03 -0.11083022043E+03  0.22642130977E+03  0.92991214637E+02 0.  0.
        -11    1    4    4    0    0 -0.46901359030E+02 -0.13627872437E+03 -0.12697970270E+03  0.19208194369E+03  0.51100000000E-03 0.  1.
         11    1    4    4    0    0 -0.56715672615E+01 -0.29769440871E+02  0.16149482269E+02  0.34339366080E+02  0.51100000000E-03 0. -1.
    9000005    1    3    3    0    0  0.20661030051E+02  0.82187147279E+02  0.24236982762E+02  0.88147811510E+02  0.10000000000E+01 0.  0.
    9000005    1    3    3    0    0  0.31911896241E+02  0.83861017963E+02 -0.11198335666E+03  0.14350021472E+03  0.10000000000E+01 0.  0.
<mgrwt>
<rscale>  0 0.21001832E+03</rscale>
<asrwt>0</asrwt>
<pdfrwt beam="1">  1        1 0.19960980E-01 0.21438606E+03</pdfrwt>
<pdfrwt beam="2">  1       -1 0.50511225E-01 0.21438606E+03</pdfrwt>
<totfact> 0.10287363E+03</totfact>
</mgrwt>
</event>
<event>
 8    2  0.1409546E-003  0.1259737E+03  0.7818608E-02  0.1246686E+00
         -1   -1    0    0    0  501 -0.00000000000E+00  0.00000000000E+00  0.35735944095E+02  0.35735944451E+02  0.50400000000E-02 0.  1.
          1   -1    0    0  501    0  0.00000000000E+00 -0.00000000000E+00 -0.37578661825E+03  0.37578661828E+03  0.50400000000E-02 0. -1.
         25    2    1    2    0    0  0.12398634683E+02  0.95199609227E+01 -0.13353952209E+03  0.18358154658E+03  0.12500009795E+03 0.  0.
         23    2    1    2    0    0 -0.12398634683E+02 -0.95199609227E+01 -0.20651115206E+03  0.22794101615E+03  0.95214994196E+02 0.  0.
        -11    1    4    4    0    0 -0.42044655063E+02  0.15980784857E+01 -0.38691470376E+02  0.57160622410E+02  0.51100000000E-03 0.  1.
         11    1    4    4    0    0  0.29646020380E+02 -0.11118039408E+02 -0.16781968169E+03  0.17078039374E+03  0.51100000000E-03 0. -1.
    9000005    1    3    3    0    0  0.69180356731E+01  0.19726221831E+02  0.20386888074E+02  0.29216574930E+02  0.10000000000E+01 0.  0.
    9000005    1    3    3    0    0  0.54805990096E+01 -0.10206260908E+02 -0.15392641016E+03  0.15436497165E+03  0.10000000000E+01 0.  0.
<mgrwt>
<rscale>  0 0.11785016E+03</rscale>
<asrwt>0</asrwt>
<pdfrwt beam="2">  1        1 0.57813323E-01 0.12597373E+03</pdfrwt>
<pdfrwt beam="1">  1       -1 0.54978379E-02 0.12597373E+03</pdfrwt>
<totfact> 0.94574073E+03</totfact>
</mgrwt>
</event>
<event>
 8    2  0.1409546E-003  0.1311229E+03  0.7818608E-02  0.1239699E+00
          1   -1    0    0  501    0  0.00000000000E+00  0.00000000000E+00  0.34325866210E+02  0.34325866580E+02  0.50400000000E-02 0.  1.
         -1   -1    0    0    0  501 -0.00000000000E+00 -0.00000000000E+00 -0.40742715466E+03  0.40742715469E+03  0.50400000000E-02 0. -1.
         25    2    1    2    0    0  0.82159311500E+01 -0.38735182497E+02 -0.15920165255E+03  0.20624837736E+03  0.12500124441E+03 0.  0.
         23    2    1    2    0    0 -0.82159311500E+01  0.38735182497E+02 -0.21389963590E+03  0.23550464390E+03  0.90230079100E+02 0.  0.
        -11    1    4    4    0    0  0.12450504447E+01  0.34901356979E+02 -0.17907946360E+02  0.39247285418E+02  0.51100000000E-03 0.  1.
         11    1    4    4    0    0 -0.94609815947E+01  0.38338255174E+01 -0.19599168954E+03  0.19625735849E+03  0.51100000000E-03 0. -1.
    9000005    1    3    3    0    0  0.32754670823E+02 -0.60865592372E+02 -0.34535711104E+02  0.77273566871E+02  0.10000000000E+01 0.  0.
    9000005    1    3    3    0    0 -0.24538739673E+02  0.22130409876E+02 -0.12466594144E+03  0.12897481049E+03  0.10000000000E+01 0.  0.
<mgrwt>
<rscale>  0 0.12208378E+03</rscale>
<asrwt>0</asrwt>
<pdfrwt beam="1">  1        1 0.52809028E-02 0.13112295E+03</pdfrwt>
<pdfrwt beam="2">  1       -1 0.62681097E-01 0.13112295E+03</pdfrwt>
<totfact> 0.39388958E+03</totfact>
</mgrwt>
</event>
<event>
 8    2  0.1409546E-003  0.1308018E+03  0.7818608E-02  0.1238848E+00
          1   -1    0    0  501    0  0.00000000000E+00  0.00000000000E+00  0.52287036503E+02  0.52287036746E+02  0.50400000000E-02 0. -1.
         -1   -1    0    0    0  501 -0.00000000000E+00 -0.00000000000E+00 -0.50839691760E+03  0.50839691762E+03  0.50400000000E-02 0.  1.
         25    2    1    2    0    0  0.35779361291E+02 -0.14284094950E+02 -0.46523117512E+02  0.13882904233E+03  0.12499961787E+03 0.  0.
         23    2    1    2    0    0 -0.35779361291E+02  0.14284094950E+02 -0.40958676358E+03  0.42185491204E+03  0.93359797825E+02 0.  0.
        -11    1    4    4    0    0 -0.22360809200E+02 -0.20374630842E+02 -0.35212113876E+03  0.35341820515E+03  0.51100000000E-03 0.  1.
         11    1    4    4    0    0 -0.13418552091E+02  0.34658725792E+02 -0.57465624822E+02  0.68436706892E+02  0.51100000000E-03 0. -1.
    9000005    1    3    3    0    0 -0.25101966661E+02 -0.25690700106E+02  0.25326374003E+02  0.43960732732E+02  0.10000000000E+01 0.  0.
    9000005    1    3    3    0    0  0.60881327952E+02  0.11406605155E+02 -0.71849491515E+02  0.94868309594E+02  0.10000000000E+01 0.  0.
<mgrwt>
<rscale>  0 0.12261301E+03</rscale>
<asrwt>0</asrwt>
<pdfrwt beam="1">  1        1 0.80441598E-02 0.13080177E+03</pdfrwt>
<pdfrwt beam="2">  1       -1 0.78214907E-01 0.13080177E+03</pdfrwt>
<totfact> 0.14408722E+03</totfact>
</mgrwt>
</event>
<event>
 8    2  0.1409546E-003  0.1261197E+03  0.7818608E-02  0.1249512E+00
         -1   -1    0    0    0  501 -0.00000000000E+00  0.00000000000E+00  0.12241456803E+03  0.12241456813E+03  0.50400000000E-02 0.  1.
          1   -1    0    0  501    0  0.00000000000E+00 -0.00000000000E+00 -0.96171963014E+02  0.96171963146E+02  0.50400000000E-02 0. -1.
         25    2    1    2    0    0  0.45434156745E+01 -0.16166023048E+02  0.13639529145E+02  0.12685512904E+03  0.12499681629E+03 0.  0.
         23    2    1    2    0    0 -0.45434156745E+01  0.16166023048E+02  0.12603075871E+02  0.91731402238E+02  0.89296302880E+02 0.  0.
        -11    1    4    4    0    0  0.23258112668E+02 -0.68860481471E+01  0.39739408561E+02  0.46557255686E+02  0.51100000000E-03 0.  1.
         11    1    4    4    0    0 -0.27801528342E+02  0.23052071195E+02 -0.27136332690E+02  0.45174146552E+02  0.51100000000E-03 0. -1.
    9000005    1    3    3    0    0 -0.78757691146E+01 -0.62304508544E+02  0.37798275914E+02  0.73304769191E+02  0.10000000000E+01 0.  0.
    9000005    1    3    3    0    0  0.12419184789E+02  0.46138485496E+02 -0.24158746769E+02  0.53550359851E+02  0.10000000000E+01 0.  0.
<mgrwt>
<rscale>  0 0.11619361E+03</rscale>
<asrwt>0</asrwt>
<pdfrwt beam="2">  1        1 0.14795687E-01 0.12611973E+03</pdfrwt>
<pdfrwt beam="1">  1       -1 0.18833010E-01 0.12611973E+03</pdfrwt>
<totfact> 0.79284915E+03</totfact>
</mgrwt>
</event>
<event>
 8    2  0.1409546E-003  0.1289429E+03  0.7818608E-02  0.1244332E+00
          1   -1    0    0  501    0  0.00000000000E+00  0.00000000000E+00  0.17356649277E+03  0.17356649284E+03  0.50400000000E-02 0. -1.
         -1   -1    0    0    0  501 -0.00000000000E+00 -0.00000000000E+00 -0.86265003054E+02  0.86265003201E+02  0.50400000000E-02 0.  1.
         25    2    1    2    0    0 -0.30081333781E+02  0.97740718124E+01  0.10192495335E+03  0.16436228678E+03  0.12500338427E+03 0.  0.
         23    2    1    2    0    0  0.30081333781E+02 -0.97740718124E+01 -0.14623463637E+02  0.95469209261E+02  0.88882535440E+02 0.  0.
        -11    1    4    4    0    0  0.31562791159E+02  0.34608971557E+02  0.46279196124E+01  0.47068124439E+02  0.51100000000E-03 0.  1.
         11    1    4    4    0    0 -0.14814573781E+01 -0.44383043369E+02 -0.19251383249E+02  0.48401084822E+02  0.51100000000E-03 0. -1.
    9000005    1    3    3    0    0 -0.55040800988E+02 -0.29035429129E+02  0.12141994896E+02  0.63411150109E+02  0.10000000000E+01 0.  0.
    9000005    1    3    3    0    0  0.24959467207E+02  0.38809500941E+02  0.89782958453E+02  0.10095113667E+03  0.10000000000E+01 0.  0.
<mgrwt>
<rscale>  0 0.11925455E+03</rscale>
<asrwt>0</asrwt>
<pdfrwt beam="1">  1        1 0.26702537E-01 0.12894288E+03</pdfrwt>
<pdfrwt beam="2">  1       -1 0.13271539E-01 0.12894288E+03</pdfrwt>
<totfact> 0.65033301E+03</totfact>
</mgrwt>
</event>
<event>
 8    2  0.1409546E-003  0.1929145E+03  0.7818608E-02  0.1160662E+00
         -1   -1    0    0    0  501 -0.00000000000E+00  0.00000000000E+00  0.41604472315E+03  0.41604472318E+03  0.50400000000E-02 0. -1.
          1   -1    0    0  501    0  0.00000000000E+00 -0.00000000000E+00 -0.88403743224E+02  0.88403743367E+02  0.50400000000E-02 0.  1.
         25    2    1    2    0    0 -0.14392866103E+03  0.29575935684E+02  0.24881227946E+03  0.31483890669E+03  0.12500316522E+03 0.  0.
         23    2    1    2    0    0  0.14392866103E+03 -0.29575935684E+02  0.78828700464E+02  0.18960955986E+03  0.90264199648E+02 0.  0.
        -11    1    4    4    0    0  0.41933726256E+02  0.18397669725E+02  0.59770761734E+02  0.75295787449E+02  0.51100000000E-03 0.  1.
         11    1    4    4    0    0  0.10199493477E+03 -0.47973605409E+02  0.19057938731E+02  0.11431377242E+03  0.51100000000E-03 0. -1.
    9000005    1    3    3    0    0 -0.24842221184E+01 -0.55959043163E+01  0.12047698677E+03  0.12063660243E+03  0.10000000000E+01 0.  0.
    9000005    1    3    3    0    0 -0.14144443891E+03  0.35171840001E+02  0.12833529269E+03  0.19420230425E+03  0.10000000000E+01 0.  0.
<mgrwt>
<rscale>  0 0.18758030E+03</rscale>
<asrwt>0</asrwt>
<pdfrwt beam="2">  1        1 0.13600576E-01 0.19291445E+03</pdfrwt>
<pdfrwt beam="1">  1       -1 0.64006879E-01 0.19291445E+03</pdfrwt>
<totfact> 0.10800786E+03</totfact>
</mgrwt>
</event>
<event>
 8    2  0.1409546E-003  0.1301988E+03  0.7818608E-02  0.1240621E+00
         -1   -1    0    0    0  501 -0.00000000000E+00  0.00000000000E+00  0.53721087960E+03  0.53721087962E+03  0.50400000000E-02 0.  1.
          1   -1    0    0  501    0  0.00000000000E+00 -0.00000000000E+00 -0.24464117325E+02  0.24464117844E+02  0.50400000000E-02 0. -1.
         25    2    1    2    0    0  0.72643227078E+01  0.35709572062E+02  0.27722826155E+03  0.30627966863E+03  0.12499512986E+03 0.  0.
         23    2    1    2    0    0 -0.72643227078E+01 -0.35709572062E+02  0.23551850072E+03  0.25539532884E+03  0.91814301121E+02 0.  0.
        -11    1    4    4    0    0  0.29167256069E+02 -0.34274644182E+02  0.19811202159E+03  0.20315967405E+03  0.51100000000E-03 0.  1.
         11    1    4    4    0    0 -0.36431578777E+02 -0.14349278806E+01  0.37406479123E+02  0.52235654786E+02  0.51100000000E-03 0. -1.
    9000005    1    3    3    0    0 -0.28758786786E+02  0.69120801689E+02  0.11898641777E+03  0.14058278934E+03  0.10000000000E+01 0.  0.
    9000005    1    3    3    0    0  0.36023109494E+02 -0.33411229627E+02  0.15824184378E+03  0.16569687929E+03  0.10000000000E+01 0.  0.
<mgrwt>
<rscale>  0 0.12151343E+03</rscale>
<asrwt>0</asrwt>
<pdfrwt beam="2">  1        1 0.37637106E-02 0.13019880E+03</pdfrwt>
<pdfrwt beam="1">  1       -1 0.82647823E-01 0.13019880E+03</pdfrwt>
<totfact> 0.36144515E+03</totfact>
</mgrwt>
</event>
<event>
 8    2  0.1409546E-003  0.2087124E+03  0.7818608E-02  0.1146343E+00
          1   -1    0    0  501    0  0.00000000000E+00  0.00000000000E+00  0.47830009230E+03  0.47830009233E+03  0.50400000000E-02 0. -1.
         -1   -1    0    0    0  501 -0.00000000000E+00 -0.00000000000E+00 -0.13739353838E+03  0.13739353847E+03  0.50400000000E-02 0.  1.
         25    2    1    2    0    0  0.32052848304E+01  0.16711128613E+03  0.36793082668E+03  0.42300587211E+03  0.12499767524E+03 0.  0.
         23    2    1    2    0    0 -0.32052848304E+01 -0.16711128613E+03 -0.27024272758E+02  0.19268775869E+03  0.91988071111E+02 0.  0.
        -11    1    4    4    0    0  0.43840457760E+02 -0.71709361241E+02 -0.60330144794E+01  0.84265149915E+02  0.51100000000E-03 0.  1.
         11    1    4    4    0    0 -0.47045742591E+02 -0.95401924891E+02 -0.20991258278E+02  0.10842260877E+03  0.51100000000E-03 0. -1.
    9000005    1    3    3    0    0 -0.60821175179E+02  0.76148241791E+02  0.17381485838E+03  0.19927462225E+03  0.10000000000E+01 0.  0.
    9000005    1    3    3    0    0  0.64026460010E+02  0.90963044341E+02  0.19411596830E+03  0.22373124986E+03  0.10000000000E+01 0.  0.
<mgrwt>
<rscale>  0 0.20407805E+03</rscale>
<asrwt>0</asrwt>
<pdfrwt beam="1">  1        1 0.73584631E-01 0.20871242E+03</pdfrwt>
<pdfrwt beam="2">  1       -1 0.21137467E-01 0.20871242E+03</pdfrwt>
<totfact> 0.88388195E+02</totfact>
</mgrwt>
</event>
<event>
 8    2  0.1409546E-003  0.1445389E+03  0.7818608E-02  0.1217897E+00
         -1   -1    0    0    0  501 -0.00000000000E+00  0.00000000000E+00  0.45377238097E+02  0.45377238377E+02  0.50400000000E-02 0.  1.
          1   -1    0    0  501    0  0.00000000000E+00 -0.00000000000E+00 -0.41183467277E+03  0.41183467280E+03  0.50400000000E-02 0. -1.
         25    2    1    2    0    0  0.56778891454E+02  0.45194466572E+02 -0.13153540148E+03  0.19543043347E+03  0.12500044063E+03 0.  0.
         23    2    1    2    0    0 -0.56778891454E+02 -0.45194466572E+02 -0.23492203319E+03  0.26178147771E+03  0.89859880207E+02 0.  0.
        -11    1    4    4    0    0 -0.29842257594E+02  0.86794194474E+01 -0.17158503914E+03  0.17437694320E+03  0.51100000000E-03 0. -1.
         11    1    4    4    0    0 -0.26936633860E+02 -0.53873886020E+02 -0.63336994046E+02  0.87404534514E+02  0.51100000000E-03 0.  1.
    9000005    1    3    3    0    0 -0.83066729022E+01  0.24545387897E+02 -0.12404994710E+03  0.12673147303E+03  0.10000000000E+01 0.  0.
    9000005    1    3    3    0    0  0.65085564356E+02  0.20649078675E+02 -0.74854543854E+01  0.68698960437E+02  0.10000000000E+01 0.  0.
<mgrwt>
<rscale>  0 0.13665887E+03</rscale>
<asrwt>0</asrwt>
<pdfrwt beam="2">  1        1 0.63359178E-01 0.14453890E+03</pdfrwt>
<pdfrwt beam="1">  1       -1 0.69811139E-02 0.14453890E+03</pdfrwt>
<totfact> 0.59555093E+03</totfact>
</mgrwt>
</event>
<event>
 8    2  0.1409546E-003  0.2472131E+03  0.7818608E-02  0.1117490E+00
         -1   -1    0    0    0  501 -0.00000000000E+00  0.00000000000E+00  0.37742036968E+03  0.37742036971E+03  0.50400000000E-02 0.  1.
          1   -1    0    0  501    0  0.00000000000E+00 -0.00000000000E+00 -0.16335514880E+03  0.16335514887E+03  0.50400000000E-02 0. -1.
         25    2    1    2    0    0  0.21175491707E+03 -0.25491494062E+02  0.40484390737E+02  0.25050609126E+03  0.12499741874E+03 0.  0.
         23    2    1    2    0    0 -0.21175491707E+03  0.25491494062E+02  0.17358083015E+03  0.29026942733E+03  0.92930483037E+02 0.  0.
        -11    1    4    4    0    0 -0.15013674039E+03  0.45353710909E+02  0.78885550176E+02  0.17555890731E+03  0.51100000000E-03 0. -1.
         11    1    4    4    0    0 -0.61618176674E+02 -0.19862216847E+02  0.94695279970E+02  0.11471052002E+03  0.51100000000E-03 0.  1.
    9000005    1    3    3    0    0  0.19268324794E+03  0.14104408915E+02  0.60148277782E+02  0.20234768026E+03  0.10000000000E+01 0.  0.
    9000005    1    3    3    0    0  0.19071669127E+02 -0.39595902976E+02 -0.19663887045E+02  0.48158410995E+02  0.10000000000E+01 0.  0.
<mgrwt>
<rscale>  0 0.24348902E+03</rscale>
<asrwt>0</asrwt>
<pdfrwt beam="2">  1        1 0.25131562E-01 0.24721310E+03</pdfrwt>
<pdfrwt beam="1">  1       -1 0.58064671E-01 0.24721310E+03</pdfrwt>
<totfact> 0.58997308E+02</totfact>
</mgrwt>
</event>
<event>
 8    2  0.1409546E-003  0.1320802E+03  0.7818608E-02  0.1236595E+00
          1   -1    0    0  501    0  0.00000000000E+00  0.00000000000E+00  0.68796456841E+03  0.68796456842E+03  0.50400000000E-02 0. -1.
         -1   -1    0    0    0  501 -0.00000000000E+00 -0.00000000000E+00 -0.20112276609E+02  0.20112277240E+02  0.50400000000E-02 0.  1.
         25    2    1    2    0    0  0.15722036980E+02 -0.39664287436E+02  0.35319901385E+03  0.37708715728E+03  0.12499897060E+03 0.  0.
         23    2    1    2    0    0 -0.15722036980E+02  0.39664287436E+02  0.31465327794E+03  0.33098968839E+03  0.93418683109E+02 0.  0.
        -11    1    4    4    0    0  0.29064096419E+02  0.22435324544E+02  0.50064557007E+02  0.62084823883E+02  0.51100000000E-03 0.  1.
         11    1    4    4    0    0 -0.44786133399E+02  0.17228962892E+02  0.26458872094E+03  0.26890486450E+03  0.51100000000E-03 0. -1.
    9000005    1    3    3    0    0  0.28688329497E+02 -0.47922374754E+02  0.35689859523E+03  0.36124393633E+03  0.10000000000E+01 0.  0.
    9000005    1    3    3    0    0 -0.12966292516E+02  0.82580873175E+01 -0.36995813799E+01  0.15843220953E+02  0.10000000000E+01 0.  0.
<mgrwt>
<rscale>  0 0.12402863E+03</rscale>
<asrwt>0</asrwt>
<pdfrwt beam="1">  1        1 0.10584069E+00 0.13208021E+03</pdfrwt>
<pdfrwt beam="2">  1       -1 0.30941969E-02 0.13208021E+03</pdfrwt>
<totfact> 0.99607794E+03</totfact>
</mgrwt>
</event>
<event>
 8    2  0.1409546E-003  0.1376298E+03  0.7818608E-02  0.1227423E+00
          1   -1    0    0  501    0  0.00000000000E+00  0.00000000000E+00  0.35595850762E+02  0.35595851119E+02  0.50400000000E-02 0. -1.
         -1   -1    0    0    0  501 -0.00000000000E+00 -0.00000000000E+00 -0.42940512126E+03  0.42940512129E+03  0.50400000000E-02 0.  1.
         25    2    1    2    0    0  0.37914736663E+02  0.43323225268E+02 -0.21784004876E+03  0.25767468342E+03  0.12501010571E+03 0.  0.
         23    2    1    2    0    0 -0.37914736663E+02 -0.43323225268E+02 -0.17596922174E+03  0.20732628899E+03  0.93298413717E+02 0.  0.
        -11    1    4    4    0    0 -0.72470817728E+01 -0.68514714125E+02 -0.97429145779E+02  0.11932822253E+03  0.51100000000E-03 0. -1.
         11    1    4    4    0    0 -0.30667654890E+02  0.25191488857E+02 -0.78540075964E+02  0.87998066456E+02  0.51100000000E-03 0.  1.
    9000005    1    3    3    0    0 -0.45583939339E+02  0.23166366127E+02 -0.70055077730E+02  0.86736900804E+02  0.10000000000E+01 0.  0.
    9000005    1    3    3    0    0  0.83498676002E+02  0.20156859140E+02 -0.14778497103E+03  0.17093778262E+03  0.10000000000E+01 0.  0.
<mgrwt>
<rscale>  0 0.13002233E+03</rscale>
<asrwt>0</asrwt>
<pdfrwt beam="1">  1        1 0.54762851E-02 0.13762978E+03</pdfrwt>
<pdfrwt beam="2">  1       -1 0.66062323E-01 0.13762978E+03</pdfrwt>
<totfact> 0.33968871E+03</totfact>
</mgrwt>
</event>
<event>
 8    2  0.1409546E-003  0.1423123E+03  0.7818608E-02  0.1220842E+00
         -1   -1    0    0    0  501 -0.00000000000E+00  0.00000000000E+00  0.50208674340E+02  0.50208674593E+02  0.50400000000E-02 0.  1.
          1   -1    0    0  501    0  0.00000000000E+00 -0.00000000000E+00 -0.38056423770E+03  0.38056423773E+03  0.50400000000E-02 0. -1.
         25    2    1    2    0    0  0.33454323284E+02  0.59180938570E+02 -0.10021437687E+03  0.17405664594E+03  0.12502487523E+03 0.  0.
         23    2    1    2    0    0 -0.33454323284E+02 -0.59180938570E+02 -0.23014118649E+03  0.25671626639E+03  0.91195945489E+02 0.  0.
        -11    1    4    4    0    0 -0.21776519069E+01 -0.73307054533E+02 -0.11351525401E+03  0.13514577058E+03  0.51100000000E-03 0. -1.
         11    1    4    4    0    0 -0.31276671377E+02  0.14126115963E+02 -0.11662593248E+03  0.12157049581E+03  0.51100000000E-03 0.  1.
    9000005    1    3    3    0    0  0.66842991329E+02  0.74113690812E+02 -0.49198131868E+02  0.11127569741E+03  0.10000000000E+01 0.  0.
    9000005    1    3    3    0    0 -0.33388668045E+02 -0.14932752243E+02 -0.51016245005E+02  0.62780948525E+02  0.10000000000E+01 0.  0.
<mgrwt>
<rscale>  0 0.13456013E+03</rscale>
<asrwt>0</asrwt>
<pdfrwt beam="2">  1        1 0.58548342E-01 0.14231231E+03</pdfrwt>
<pdfrwt beam="1">  1       -1 0.77244117E-02 0.14231231E+03</pdfrwt>
<totfact> 0.56453487E+03</totfact>
</mgrwt>
</event>
<event>
 8    2  0.1409546E-003  0.1643082E+03  0.7818608E-02  0.1191431E+00
         -1   -1    0    0    0  501 -0.00000000000E+00  0.00000000000E+00  0.34604267853E+02  0.34604268220E+02  0.50400000000E-02 0.  1.
          1   -1    0    0  501    0  0.00000000000E+00 -0.00000000000E+00 -0.66867986171E+03  0.66867986173E+03  0.50400000000E-02 0. -1.
         25    2    1    2    0    0 -0.87170257788E+02  0.61427855610E+02 -0.36932713094E+03  0.40422732079E+03  0.12500064774E+03 0.  0.
         23    2    1    2    0    0  0.87170257788E+02 -0.61427855610E+02 -0.26474846291E+03  0.29905680916E+03  0.89281527769E+02 0.  0.
        -11    1    4    4    0    0  0.64079687558E+02 -0.32999589012E+02 -0.24894306718E+03  0.25916757114E+03  0.51100000000E-03 0. -1.
         11    1    4    4    0    0  0.23090570229E+02 -0.28428266599E+02 -0.15805395736E+02  0.39889238022E+02  0.51100000000E-03 0.  1.
    9000005    1    3    3    0    0 -0.10889944412E+03  0.77522057891E+02 -0.33377620414E+03  0.35955015344E+03  0.10000000000E+01 0.  0.
    9000005    1    3    3    0    0  0.21729186335E+02 -0.16094202280E+02 -0.35550926804E+02  0.44677167350E+02  0.10000000000E+01 0.  0.
<mgrwt>
<rscale>  0 0.15760160E+03</rscale>
<asrwt>0</asrwt>
<pdfrwt beam="2">  1        1 0.10287382E+00 0.16430824E+03</pdfrwt>
<pdfrwt beam="1">  1       -1 0.53237340E-02 0.16430824E+03</pdfrwt>
<totfact> 0.47195517E+03</totfact>
</mgrwt>
</event>
<event>
 8    2  0.1409546E-003  0.2341020E+03  0.7818608E-02  0.1126663E+00
         -1   -1    0    0    0  501 -0.00000000000E+00  0.00000000000E+00  0.21629180572E+03  0.21629180578E+03  0.50400000000E-02 0.  1.
          1   -1    0    0  501    0  0.00000000000E+00 -0.00000000000E+00 -0.23802018595E+03  0.23802018600E+03  0.50400000000E-02 0. -1.
         25    2    1    2    0    0 -0.17629346507E+03  0.89994827364E+02  0.83479439432E+01  0.23425075719E+03  0.12500109719E+03 0.  0.
         23    2    1    2    0    0  0.17629346507E+03 -0.89994827364E+02 -0.30076324168E+02  0.22006123459E+03  0.91344988453E+02 0.  0.
        -11    1    4    4    0    0  0.17515818836E+03 -0.60459889516E+02 -0.38647884619E+02  0.18928668251E+03  0.51100000000E-03 0. -1.
         11    1    4    4    0    0  0.11352767091E+01 -0.29534937848E+02  0.85715604510E+01  0.30774552080E+02  0.51100000000E-03 0.  1.
    9000005    1    3    3    0    0 -0.12057645990E+03  0.79864092013E+02  0.60953830834E+02  0.15695007286E+03  0.10000000000E+01 0.  0.
    9000005    1    3    3    0    0 -0.55717005166E+02  0.10130735351E+02 -0.52605886891E+02  0.77300684337E+02  0.10000000000E+01 0.  0.
<mgrwt>
<rscale>  0 0.22996728E+03</rscale>
<asrwt>0</asrwt>
<pdfrwt beam="2">  1        1 0.36618490E-01 0.23410196E+03</pdfrwt>
<pdfrwt beam="1">  1       -1 0.33275663E-01 0.23410196E+03</pdfrwt>
<totfact> 0.10037131E+03</totfact>
</mgrwt>
</event>
<event>
 8    2  0.1409546E-003  0.1584634E+03  0.7818608E-02  0.1197892E+00
         -1   -1    0    0    0  501 -0.00000000000E+00  0.00000000000E+00  0.13818404445E+03  0.13818404455E+03  0.50400000000E-02 0.  1.
          1   -1    0    0  501    0  0.00000000000E+00 -0.00000000000E+00 -0.24341801992E+03  0.24341801997E+03  0.50400000000E-02 0. -1.
         25    2    1    2    0    0 -0.13134105257E+02 -0.96503308523E+02  0.59164544568E+02  0.16914809814E+03  0.12500096997E+03 0.  0.
         23    2    1    2    0    0  0.13134105257E+02  0.96503308523E+02 -0.16439852003E+03  0.21245396637E+03  0.92867761697E+02 0.  0.
        -11    1    4    4    0    0 -0.34542255924E+01 -0.71676289479E+01  0.75616571107E+01  0.10976576775E+02  0.51100000000E-03 0.  1.
         11    1    4    4    0    0  0.16588330849E+02  0.10367093747E+03 -0.17196017714E+03  0.20147738960E+03  0.51100000000E-03 0. -1.
    9000005    1    3    3    0    0 -0.67048115167E+02 -0.72278101197E+02  0.28928829706E+02  0.10274945668E+03  0.10000000000E+01 0.  0.
    9000005    1    3    3    0    0  0.53914009910E+02 -0.24225207326E+02  0.30235714862E+02  0.66398641460E+02  0.10000000000E+01 0.  0.
<mgrwt>
<rscale>  0 0.15211985E+03</rscale>
<asrwt>0</asrwt>
<pdfrwt beam="2">  1        1 0.37448926E-01 0.15846336E+03</pdfrwt>
<pdfrwt beam="1">  1       -1 0.21259084E-01 0.15846336E+03</pdfrwt>
<totfact> 0.20454919E+03</totfact>
</mgrwt>
</event>
<event>
 8    2  0.1409546E-003  0.1286882E+03  0.7818608E-02  0.1242991E+00
         -1   -1    0    0    0  501 -0.00000000000E+00  0.00000000000E+00  0.32740295354E+03  0.32740295358E+03  0.50400000000E-02 0.  1.
          1   -1    0    0  501    0  0.00000000000E+00 -0.00000000000E+00 -0.39735806633E+02  0.39735806952E+02  0.50400000000E-02 0. -1.
         25    2    1    2    0    0 -0.24156483831E+02 -0.18770765824E+02  0.13976334088E+03  0.18998537858E+03  0.12499910103E+03 0.  0.
         23    2    1    2    0    0  0.24156483831E+02  0.18770765824E+02  0.14790380603E+03  0.17715338195E+03  0.92584596663E+02 0.  0.
        -11    1    4    4    0    0 -0.25333259532E+02  0.20456499229E+02  0.11021362329E+03  0.11492295314E+03  0.51100000000E-03 0.  1.
         11    1    4    4    0    0  0.49489743363E+02 -0.16857334051E+01  0.37690182735E+02  0.62230428812E+02  0.51100000000E-03 0. -1.
    9000005    1    3    3    0    0 -0.68654850023E+02  0.12886949667E+02  0.53965508632E+02  0.88277052654E+02  0.10000000000E+01 0.  0.
    9000005    1    3    3    0    0  0.44498366192E+02 -0.31657715491E+02  0.85797832248E+02  0.10170832592E+03  0.10000000000E+01 0.  0.
<mgrwt>
<rscale>  0 0.12006432E+03</rscale>
<asrwt>0</asrwt>
<pdfrwt beam="2">  1        1 0.61132011E-02 0.12868820E+03</pdfrwt>
<pdfrwt beam="1">  1       -1 0.50369685E-01 0.12868820E+03</pdfrwt>
<totfact> 0.48530573E+03</totfact>
</mgrwt>
</event>
<event>
 8    2  0.1409546E-003  0.1448009E+03  0.7818608E-02  0.1217041E+00
          1   -1    0    0  501    0  0.00000000000E+00  0.00000000000E+00  0.17860824036E+02  0.17860824747E+02  0.50400000000E-02 0. -1.
         -1   -1    0    0    0  501 -0.00000000000E+00 -0.00000000000E+00 -0.10749773886E+04  0.10749773886E+04  0.50400000000E-02 0.  1.
         25    2    1    2    0    0 -0.28015340539E+02 -0.67500493118E+02 -0.40023265046E+03  0.42562127468E+03  0.12500447627E+03 0.  0.
         23    2    1    2    0    0  0.28015340539E+02  0.67500493118E+02 -0.65688391411E+03  0.66721693869E+03  0.91327929890E+02 0.  0.
        -11    1    4    4    0    0 -0.11975175934E+02  0.20572471754E+02 -0.46631519420E+03  0.46692236161E+03  0.51100000000E-03 0.  1.
         11    1    4    4    0    0  0.39990516473E+02  0.46928021364E+02 -0.19056871992E+03  0.20029457708E+03  0.51100000000E-03 0. -1.
    9000005    1    3    3    0    0  0.42282589010E+02  0.22430846789E-01 -0.17789340566E+03  0.18285207577E+03  0.10000000000E+01 0.  0.
    9000005    1    3    3    0    0 -0.70297929549E+02 -0.67522923965E+02 -0.22233924480E+03  0.24276919890E+03  0.10000000000E+01 0.  0.
<mgrwt>
<rscale>  0 0.13727674E+03</rscale>
<asrwt>0</asrwt>
<pdfrwt beam="1">  1        1 0.27478200E-02 0.14480088E+03</pdfrwt>
<pdfrwt beam="2">  1       -1 0.16538109E+00 0.14480088E+03</pdfrwt>
<totfact> 0.11008833E+03</totfact>
</mgrwt>
</event>
<event>
 8    2  0.1409546E-003  0.1582975E+03  0.7818608E-02  0.1198761E+00
         -1   -1    0    0    0  501 -0.00000000000E+00  0.00000000000E+00  0.19575727637E+02  0.19575728286E+02  0.50400000000E-02 0.  1.
          1   -1    0    0  501    0  0.00000000000E+00 -0.00000000000E+00 -0.11185891614E+04  0.11185891614E+04  0.50400000000E-02 0. -1.
         25    2    1    2    0    0  0.45780833473E+02  0.85669892184E+02 -0.70233762377E+03  0.71995570941E+03  0.12499148217E+03 0.  0.
         23    2    1    2    0    0 -0.45780833473E+02 -0.85669892184E+02 -0.39667580995E+03  0.41820918024E+03  0.90066670293E+02 0.  0.
        -11    1    4    4    0    0 -0.61752008173E+02 -0.26820176730E+02 -0.25949033549E+03  0.26808182819E+03  0.51100000000E-03 0.  1.
         11    1    4    4    0    0  0.15971174701E+02 -0.58849715454E+02 -0.13718547446E+03  0.15012735205E+03  0.51100000000E-03 0. -1.
    9000005    1    3    3    0    0  0.25306966658E+02  0.38788048859E+02 -0.62802543564E+03  0.62973161197E+03  0.10000000000E+01 0.  0.
    9000005    1    3    3    0    0  0.20473866814E+02  0.46881843324E+02 -0.74312188126E+02  0.90224097445E+02  0.10000000000E+01 0.  0.
<mgrwt>
<rscale>  0 0.15140196E+03</rscale>
<asrwt>0</asrwt>
<pdfrwt beam="2">  1        1 0.17209059E+00 0.15829746E+03</pdfrwt>
<pdfrwt beam="1">  1       -1 0.30116513E-02 0.15829746E+03</pdfrwt>
<totfact> 0.48283871E+03</totfact>
</mgrwt>
</event>
<event>
 8    2  0.1409546E-003  0.1268348E+03  0.7818608E-02  0.1246949E+00
         -1   -1    0    0    0  501 -0.00000000000E+00  0.00000000000E+00  0.48799485221E+02  0.48799485482E+02  0.50400000000E-02 0.  1.
          1   -1    0    0  501    0  0.00000000000E+00 -0.00000000000E+00 -0.24994292700E+03  0.24994292705E+03  0.50400000000E-02 0. -1.
         25    2    1    2    0    0  0.74841883852E+01 -0.20380804291E+02 -0.11653884021E+03  0.17224505098E+03  0.12496265862E+03 0.  0.
         23    2    1    2    0    0 -0.74841883852E+01  0.20380804291E+02 -0.84604601569E+02  0.12649736155E+03  0.91500019748E+02 0.  0.
        -11    1    4    4    0    0  0.34673421957E+02 -0.10160993240E+02 -0.13939929351E+02  0.38727427030E+02  0.51100000000E-03 0.  1.
         11    1    4    4    0    0 -0.42157610342E+02  0.30541797531E+02 -0.70664672218E+02  0.87769934522E+02  0.51100000000E-03 0. -1.
    9000005    1    3    3    0    0 -0.26386531675E+02 -0.42273294462E+02 -0.12175961085E+03  0.13156626967E+03  0.10000000000E+01 0.  0.
    9000005    1    3    3    0    0  0.33870720060E+02  0.21892490170E+02  0.52207706418E+01  0.40678781316E+02  0.10000000000E+01 0.  0.
<mgrwt>
<rscale>  0 0.11769489E+03</rscale>
<asrwt>0</asrwt>
<pdfrwt beam="2">  1        1 0.38452757E-01 0.12683476E+03</pdfrwt>
<pdfrwt beam="1">  1       -1 0.75076133E-02 0.12683476E+03</pdfrwt>
<totfact> 0.98507593E+03</totfact>
</mgrwt>
</event>
<event>
 8    2  0.1409546E-003  0.1473211E+03  0.7818608E-02  0.1213032E+00
          1   -1    0    0  501    0  0.00000000000E+00  0.00000000000E+00  0.24852820764E+04  0.24852820765E+04  0.50400000000E-02 0. -1.
         -1   -1    0    0    0  501 -0.00000000000E+00 -0.00000000000E+00 -0.10876789933E+02  0.10876791101E+02  0.50400000000E-02 0.  1.
         25    2    1    2    0    0 -0.13279556567E+02  0.76824684780E+02  0.59863914180E+03  0.61650007497E+03  0.12500056613E+03 0.  0.
         23    2    1    2    0    0  0.13279556567E+02 -0.76824684780E+02  0.18757661447E+04  0.18796587926E+04  0.92413029676E+02 0.  0.
        -11    1    4    4    0    0  0.44824055063E+02 -0.86966439527E+01  0.66159030189E+03  0.66316404840E+03  0.51100000000E-03 0.  1.
         11    1    4    4    0    0 -0.31544498496E+02 -0.68128040827E+02  0.12141758428E+04  0.12164947442E+04  0.51100000000E-03 0. -1.
    9000005    1    3    3    0    0 -0.52951780668E+01  0.93784449444E+02  0.58687681817E+03  0.59434750910E+03  0.10000000000E+01 0.  0.
    9000005    1    3    3    0    0 -0.79843784998E+01 -0.16959764664E+02  0.11762323626E+02  0.22152565869E+02  0.10000000000E+01 0.  0.
<mgrwt>
<rscale>  0 0.14022061E+03</rscale>
<asrwt>0</asrwt>
<pdfrwt beam="1">  1        1 0.38235122E+00 0.14732115E+03</pdfrwt>
<pdfrwt beam="2">  1       -1 0.16733518E-02 0.14732115E+03</pdfrwt>
<totfact> 0.14587372E+03</totfact>
</mgrwt>
</event>
<event>
 8    2  0.1409546E-003  0.1426984E+03  0.7818608E-02  0.1219995E+00
          1   -1    0    0  501    0  0.00000000000E+00  0.00000000000E+00  0.28944320865E+03  0.28944320869E+03  0.50400000000E-02 0. -1.
         -1   -1    0    0    0  501 -0.00000000000E+00 -0.00000000000E+00 -0.78928999414E+02  0.78928999575E+02  0.50400000000E-02 0.  1.
         25    2    1    2    0    0 -0.40237780283E+02  0.55834138640E+02  0.17492982670E+02  0.14376657762E+03  0.12500517749E+03 0.  0.
         23    2    1    2    0    0  0.40237780283E+02 -0.55834138640E+02  0.19302122656E+03  0.22460563064E+03  0.91945448027E+02 0.  0.
        -11    1    4    4    0    0 -0.15457698288E+02 -0.56482609971E+02  0.11027690412E+03  0.12486080749E+03  0.51100000000E-03 0.  1.
         11    1    4    4    0    0  0.55695478571E+02  0.64847133101E+00  0.82744322448E+02  0.99744823153E+02  0.51100000000E-03 0. -1.
    9000005    1    3    3    0    0  0.13980047789E+02  0.19041173557E+02 -0.46504557974E+02  0.52169741603E+02  0.10000000000E+01 0.  0.
    9000005    1    3    3    0    0 -0.54217828072E+02  0.36792965083E+02  0.63997540644E+02  0.91596836020E+02  0.10000000000E+01 0.  0.
<mgrwt>
<rscale>  0 0.13515960E+03</rscale>
<asrwt>0</asrwt>
<pdfrwt beam="1">  1        1 0.44529724E-01 0.14269837E+03</pdfrwt>
<pdfrwt beam="2">  1       -1 0.12142923E-01 0.14269837E+03</pdfrwt>
<totfact> 0.39820143E+03</totfact>
</mgrwt>
</event>
<event>
 8    2  0.1409546E-003  0.1260885E+03  0.7818608E-02  0.1247369E+00
          1   -1    0    0  501    0  0.00000000000E+00  0.00000000000E+00  0.34683915047E+02  0.34683915413E+02  0.50400000000E-02 0. -1.
         -1   -1    0    0    0  501 -0.00000000000E+00 -0.00000000000E+00 -0.35392456767E+03  0.35392456771E+03  0.50400000000E-02 0.  1.
         25    2    1    2    0    0 -0.16138755806E+02 -0.35496421007E+01 -0.19598262558E+03  0.23303970216E+03  0.12500101542E+03 0.  0.
         23    2    1    2    0    0  0.16138755806E+02  0.35496421007E+01 -0.12325802704E+03  0.15556878096E+03  0.93466812184E+02 0.  0.
        -11    1    4    4    0    0  0.18548452708E+02 -0.36827185056E+02 -0.22452892417E+02  0.46951241040E+02  0.51100000000E-03 0. -1.
         11    1    4    4    0    0 -0.24096969026E+01  0.40376827156E+02 -0.10080513463E+03  0.10861753992E+03  0.51100000000E-03 0.  1.
    9000005    1    3    3    0    0  0.42574099255E+02 -0.38778714956E+02 -0.91250611667E+02  0.10790744548E+03  0.10000000000E+01 0.  0.
    9000005    1    3    3    0    0 -0.58712855061E+02  0.35229072856E+02 -0.10473201391E+03  0.12513225668E+03  0.10000000000E+01 0.  0.
<mgrwt>
<rscale>  0 0.11744698E+03</rscale>
<asrwt>0</asrwt>
<pdfrwt beam="1">  1        1 0.53359872E-02 0.12608851E+03</pdfrwt>
<pdfrwt beam="2">  1       -1 0.54449931E-01 0.12608851E+03</pdfrwt>
<totfact> 0.50505962E+03</totfact>
</mgrwt>
</event>
<event>
 8    2  0.1409546E-003  0.3966747E+03  0.7818608E-02  0.1045759E+00
         -1   -1    0    0    0  501 -0.00000000000E+00  0.00000000000E+00  0.20058345164E+03  0.20058345170E+03  0.50400000000E-02 0.  1.
          1   -1    0    0  501    0  0.00000000000E+00 -0.00000000000E+00 -0.11353885481E+04  0.11353885481E+04  0.50400000000E-02 0. -1.
         25    2    1    2    0    0 -0.33950887326E+03  0.16266541027E+03 -0.85200604454E+03  0.93982184250E+03  0.12499793995E+03 0.  0.
         23    2    1    2    0    0  0.33950887326E+03 -0.16266541027E+03 -0.82799051962E+02  0.39615015735E+03  0.91394493476E+02 0.  0.
        -11    1    4    4    0    0  0.22832103334E+03 -0.86028670830E+02 -0.92088500621E+02  0.26079056428E+03  0.51100000000E-03 0.  1.
         11    1    4    4    0    0  0.11118783993E+03 -0.76636739443E+02  0.92894486586E+01  0.13535959307E+03  0.51100000000E-03 0. -1.
    9000005    1    3    3    0    0 -0.81774288320E+02  0.42504334700E+02 -0.10075866787E+03  0.13655387893E+03  0.10000000000E+01 0.  0.
    9000005    1    3    3    0    0 -0.25773458494E+03  0.12016107557E+03 -0.75124737667E+03  0.80326796358E+03  0.10000000000E+01 0.  0.
<mgrwt>
<rscale>  0 0.39433556E+03</rscale>
<asrwt>0</asrwt>
<pdfrwt beam="2">  1        1 0.17467516E+00 0.39667467E+03</pdfrwt>
<pdfrwt beam="1">  1       -1 0.30858993E-01 0.39667467E+03</pdfrwt>
<totfact> 0.12248621E+02</totfact>
</mgrwt>
</event>
<event>
 8    2  0.1409546E-003  0.1466728E+03  0.7818608E-02  0.1211916E+00
         -1   -1    0    0    0  501 -0.00000000000E+00  0.00000000000E+00  0.56131658615E+02  0.56131658841E+02  0.50400000000E-02 0.  1.
          1   -1    0    0  501    0  0.00000000000E+00 -0.00000000000E+00 -0.34255732005E+03  0.34255732008E+03  0.50400000000E-02 0. -1.
         25    2    1    2    0    0  0.13960860770E+02  0.75450531073E+02 -0.19226721944E+03  0.24182552229E+03  0.12500084514E+03 0.  0.
         23    2    1    2    0    0 -0.13960860770E+02 -0.75450531073E+02 -0.94158441994E+02  0.15686345664E+03  0.99260483361E+02 0.  0.
        -11    1    4    4    0    0 -0.36529082480E+02 -0.53099147307E+01  0.48987147471E+00  0.36916243520E+02  0.51100000000E-03 0.  1.
         11    1    4    4    0    0  0.22568221711E+02 -0.70140616343E+02 -0.94648313469E+02  0.11994721312E+03  0.51100000000E-03 0. -1.
    9000005    1    3    3    0    0 -0.35051184844E+02  0.55346952907E+02 -0.17375919217E+03  0.18570171679E+03  0.10000000000E+01 0.  0.
    9000005    1    3    3    0    0  0.49012045614E+02  0.20103578166E+02 -0.18508027271E+02  0.56123805500E+02  0.10000000000E+01 0.  0.
<mgrwt>
<rscale>  0 0.14105512E+03</rscale>
<asrwt>0</asrwt>
<pdfrwt beam="2">  1        1 0.52701125E-01 0.14667276E+03</pdfrwt>
<pdfrwt beam="1">  1       -1 0.86356400E-02 0.14667276E+03</pdfrwt>
<totfact> 0.54504321E+03</totfact>
</mgrwt>
</event>
<event>
 8    2  0.1409546E-003  0.1462639E+03  0.7818608E-02  0.1214390E+00
          1   -1    0    0  501    0  0.00000000000E+00  0.00000000000E+00  0.86953933013E+01  0.86953947620E+01  0.50400000000E-02 0. -1.
         -1   -1    0    0    0  501 -0.00000000000E+00 -0.00000000000E+00 -0.20821024528E+04  0.20821024528E+04  0.50400000000E-02 0.  1.
         25    2    1    2    0    0  0.72715543025E+02 -0.21934841822E+02 -0.12864984113E+04  0.12947861980E+04  0.12499779471E+03 0.  0.
         23    2    1    2    0    0 -0.72715543025E+02  0.21934841822E+02 -0.78690864815E+03  0.79601164955E+03  0.92955033261E+02 0.  0.
        -11    1    4    4    0    0 -0.34749499738E+02  0.23995179324E+02 -0.10686859321E+03  0.11490949733E+03  0.51100000000E-03 0. -1.
         11    1    4    4    0    0 -0.37966043287E+02 -0.20603375017E+01 -0.68004005494E+03  0.68110215222E+03  0.51100000000E-03 0.  1.
    9000005    1    3    3    0    0  0.10029667301E+03 -0.42302274496E+02 -0.10783441888E+04  0.10838247527E+04  0.10000000000E+01 0.  0.
    9000005    1    3    3    0    0 -0.27581129984E+02  0.20367432674E+02 -0.20815422259E+03  0.21096144535E+03  0.10000000000E+01 0.  0.
<mgrwt>
<rscale>  0 0.13921415E+03</rscale>
<asrwt>0</asrwt>
<pdfrwt beam="1">  1        1 0.13377546E-02 0.14626393E+03</pdfrwt>
<pdfrwt beam="2">  1       -1 0.32032306E+00 0.14626393E+03</pdfrwt>
<totfact> 0.30901800E+02</totfact>
</mgrwt>
</event>
<event>
 8    2  0.1409546E-003  0.1314414E+03  0.7818608E-02  0.1239977E+00
          1   -1    0    0  501    0  0.00000000000E+00  0.00000000000E+00  0.16194652279E+02  0.16194653064E+02  0.50400000000E-02 0. -1.
         -1   -1    0    0    0  501 -0.00000000000E+00 -0.00000000000E+00 -0.90036856656E+03  0.90036856658E+03  0.50400000000E-02 0.  1.
         25    2    1    2    0    0  0.38569503152E+02  0.12701320750E+02 -0.35562355396E+03  0.37913711249E+03  0.12501163073E+03 0.  0.
         23    2    1    2    0    0 -0.38569503152E+02 -0.12701320750E+02 -0.52855036032E+03  0.53742610715E+03  0.88387822250E+02 0.  0.
        -11    1    4    4    0    0  0.11718772319E+02 -0.51681350450E+01 -0.38362844704E+03  0.38384218713E+03  0.51100000000E-03 0.  1.
         11    1    4    4    0    0 -0.50288275470E+02 -0.75331857048E+01 -0.14492191328E+03  0.15358392001E+03  0.51100000000E-03 0. -1.
    9000005    1    3    3    0    0 -0.43663708296E+02  0.28198070684E+00 -0.78867828013E+02  0.90153941848E+02  0.10000000000E+01 0.  0.
    9000005    1    3    3    0    0  0.82233211448E+02  0.12419340043E+02 -0.27675572595E+03  0.28898317065E+03  0.10000000000E+01 0.  0.
<mgrwt>
<rscale>  0 0.12191108E+03</rscale>
<asrwt>0</asrwt>
<pdfrwt beam="1">  1        1 0.24914857E-02 0.13144139E+03</pdfrwt>
<pdfrwt beam="2">  1       -1 0.13851820E+00 0.13144139E+03</pdfrwt>
<totfact> 0.19929183E+03</totfact>
</mgrwt>
</event>
<event>
 8    2  0.1409546E-003  0.2241366E+03  0.7818608E-02  0.1134354E+00
         -1   -1    0    0    0  501 -0.00000000000E+00  0.00000000000E+00  0.18637941460E+02  0.18637942141E+02  0.50400000000E-02 0.  1.
          1   -1    0    0  501    0  0.00000000000E+00 -0.00000000000E+00 -0.28870816936E+04  0.28870816936E+04  0.50400000000E-02 0. -1.
         25    2    1    2    0    0  0.11622596063E+03 -0.14526753221E+03 -0.94060351352E+03  0.96693960864E+03  0.12500442903E+03 0.  0.
         23    2    1    2    0    0 -0.11622596063E+03  0.14526753221E+03 -0.19278402387E+04  0.19387800271E+04  0.87686247593E+02 0.  0.
        -11    1    4    4    0    0 -0.51584318020E+02  0.83927217297E+01 -0.62323894329E+03  0.62542638262E+03  0.51100000000E-03 0. -1.
         11    1    4    4    0    0 -0.64641642606E+02  0.13687481048E+03 -0.13046012954E+04  0.13133536445E+04  0.51100000000E-03 0.  1.
    9000005    1    3    3    0    0 -0.97970457442E+01 -0.20715672725E+02 -0.33926033400E+03  0.34003484443E+03  0.10000000000E+01 0.  0.
    9000005    1    3    3    0    0  0.12602300637E+03 -0.12455185948E+03 -0.60134317952E+03  0.62690476421E+03  0.10000000000E+01 0.  0.
<mgrwt>
<rscale>  0 0.21936999E+03</rscale>
<asrwt>0</asrwt>
<pdfrwt beam="2">  1        1 0.44416606E+00 0.22413665E+03</pdfrwt>
<pdfrwt beam="1">  1       -1 0.28673779E-02 0.22413665E+03</pdfrwt>
<totfact> 0.35324872E+02</totfact>
</mgrwt>
</event>
<event>
 8    2  0.1409546E-003  0.3132178E+03  0.7818608E-02  0.1080345E+00
          1   -1    0    0  501    0  0.00000000000E+00  0.00000000000E+00  0.36648596313E+04  0.36648596313E+04  0.50400000000E-02 0. -1.
         -1   -1    0    0    0  501 -0.00000000000E+00 -0.00000000000E+00 -0.25702619010E+02  0.25702619504E+02  0.50400000000E-02 0.  1.
         25    2    1    2    0    0 -0.28462113933E+03 -0.38353459105E+02  0.18827246381E+04  0.19086009072E+04  0.12500071673E+03 0.  0.
         23    2    1    2    0    0  0.28462113933E+03  0.38353459105E+02  0.17564323741E+04  0.17819613436E+04  0.88607924676E+02 0.  0.
        -11    1    4    4    0    0  0.25821886583E+03  0.12698667579E+02  0.14033619222E+04  0.14269768476E+04  0.51100000000E-03 0.  1.
         11    1    4    4    0    0  0.26402273507E+02  0.25654791526E+02  0.35307045190E+03  0.35498449597E+03  0.51100000000E-03 0. -1.
    9000005    1    3    3    0    0 -0.39088929809E+02 -0.23912879185E+02  0.11419561893E+03  0.12305043522E+03  0.10000000000E+01 0.  0.
    9000005    1    3    3    0    0 -0.24553220952E+03 -0.14440579920E+02  0.17685290192E+04  0.17855504720E+04  0.10000000000E+01 0.  0.
<mgrwt>
<rscale>  0 0.31000215E+03</rscale>
<asrwt>0</asrwt>
<pdfrwt beam="1">  1        1 0.56382408E+00 0.31321775E+03</pdfrwt>
<pdfrwt beam="2">  1       -1 0.39542525E-02 0.31321775E+03</pdfrwt>
<totfact> 0.57786290E+01</totfact>
</mgrwt>
</event>
<event>
 8    2  0.1409546E-003  0.2276595E+03  0.7818608E-02  0.1131393E+00
          1   -1    0    0  501    0  0.00000000000E+00  0.00000000000E+00  0.40203589759E+03  0.40203589762E+03  0.50400000000E-02 0. -1.
         -1   -1    0    0    0  501 -0.00000000000E+00 -0.00000000000E+00 -0.13848001769E+03  0.13848001778E+03  0.50400000000E-02 0.  1.
         25    2    1    2    0    0 -0.18244425081E+03 -0.54023975146E+02  0.23569545448E+03  0.32769072812E+03  0.12499748592E+03 0.  0.
         23    2    1    2    0    0  0.18244425081E+03  0.54023975146E+02  0.27860425422E+02  0.21282518728E+03  0.91180384375E+02 0.  0.
        -11    1    4    4    0    0  0.12516261331E+03  0.76083806759E+02  0.27333841092E+01  0.14649879457E+03  0.51100000000E-03 0.  1.
         11    1    4    4    0    0  0.57281637492E+02 -0.22059831613E+02  0.25127041313E+02  0.66326392710E+02  0.51100000000E-03 0. -1.
    9000005    1    3    3    0    0 -0.32686539926E+02 -0.24203149925E+02 -0.66745399611E+01  0.41228046793E+02  0.10000000000E+01 0.  0.
    9000005    1    3    3    0    0 -0.14975771088E+03 -0.29820825221E+02  0.24236999444E+03  0.28646268132E+03  0.10000000000E+01 0.  0.
<mgrwt>
<rscale>  0 0.22337357E+03</rscale>
<asrwt>0</asrwt>
<pdfrwt beam="1">  1        1 0.61851676E-01 0.22765954E+03</pdfrwt>
<pdfrwt beam="2">  1       -1 0.21304618E-01 0.22765954E+03</pdfrwt>
<totfact> 0.10935479E+03</totfact>
</mgrwt>
</event>
<event>
 8    2  0.1409546E-003  0.1300244E+03  0.7818608E-02  0.1240323E+00
         -1   -1    0    0    0  501 -0.00000000000E+00  0.00000000000E+00  0.51765381994E+02  0.51765382239E+02  0.50400000000E-02 0.  1.
          1   -1    0    0  501    0  0.00000000000E+00 -0.00000000000E+00 -0.30691241260E+03  0.30691241264E+03  0.50400000000E-02 0. -1.
         25    2    1    2    0    0  0.26637631271E+02 -0.23895939457E+02 -0.68335530779E+02  0.14688801993E+03  0.12500306520E+03 0.  0.
         23    2    1    2    0    0 -0.26637631271E+02  0.23895939457E+02 -0.18681149983E+03  0.21178977495E+03  0.93143936913E+02 0.  0.
        -11    1    4    4    0    0 -0.28618966257E+02  0.55116872339E+02 -0.84934760909E+02  0.10521800443E+03  0.51100000000E-03 0. -1.
         11    1    4    4    0    0  0.19813349860E+01 -0.31220932882E+02 -0.10187673892E+03  0.10657177052E+03  0.51100000000E-03 0.  1.
    9000005    1    3    3    0    0  0.27290355851E+02 -0.67714910972E+02 -0.72450769495E+02  0.10286003447E+03  0.10000000000E+01 0.  0.
    9000005    1    3    3    0    0 -0.65272457954E+00  0.43818971515E+02  0.41152387161E+01  0.44027985461E+02  0.10000000000E+01 0.  0.
<mgrwt>
<rscale>  0 0.12169740E+03</rscale>
<asrwt>0</asrwt>
<pdfrwt beam="2">  1        1 0.47217293E-01 0.13002440E+03</pdfrwt>
<pdfrwt beam="1">  1       -1 0.79639051E-02 0.13002440E+03</pdfrwt>
<totfact> 0.70093858E+03</totfact>
</mgrwt>
</event>
<event>
 8    2  0.1409546E-003  0.2326593E+03  0.7818608E-02  0.1127585E+00
         -1   -1    0    0    0  501 -0.00000000000E+00  0.00000000000E+00  0.60827296324E+02  0.60827296533E+02  0.50400000000E-02 0.  1.
          1   -1    0    0  501    0  0.00000000000E+00 -0.00000000000E+00 -0.83244237695E+03  0.83244237696E+03  0.50400000000E-02 0. -1.
         25    2    1    2    0    0  0.10372332127E+03 -0.16657388438E+03 -0.41564422802E+03  0.47633019863E+03  0.12499979000E+03 0.  0.
         23    2    1    2    0    0 -0.10372332127E+03  0.16657388438E+03 -0.35597085260E+03  0.41693947487E+03  0.92832599175E+02 0.  0.
        -11    1    4    4    0    0 -0.81637007345E+02  0.45467235644E+02 -0.13929948756E+03  0.16773853976E+03  0.51100000000E-03 0.  1.
         11    1    4    4    0    0 -0.22086313923E+02  0.12110664874E+03 -0.21667136504E+03  0.24920093511E+03  0.51100000000E-03 0. -1.
    9000005    1    3    3    0    0  0.62017803181E+02 -0.52451874647E+02 -0.61396677665E+02  0.10182317562E+03  0.10000000000E+01 0.  0.
    9000005    1    3    3    0    0  0.41705518087E+02 -0.11412200974E+03 -0.35424755036E+03  0.37450702301E+03  0.10000000000E+01 0.  0.
<mgrwt>
<rscale>  0 0.22866237E+03</rscale>
<asrwt>0</asrwt>
<pdfrwt beam="2">  1        1 0.12806805E+00 0.23265927E+03</pdfrwt>
<pdfrwt beam="1">  1       -1 0.93580462E-02 0.23265927E+03</pdfrwt>
<totfact> 0.14625874E+03</totfact>
</mgrwt>
</event>
<event>
 8    2  0.1409546E-003  0.1364452E+03  0.7818608E-02  0.1230127E+00
         -1   -1    0    0    0  501 -0.00000000000E+00  0.00000000000E+00  0.57555196854E+03  0.57555196856E+03  0.50400000000E-02 0.  1.
          1   -1    0    0  501    0  0.00000000000E+00 -0.00000000000E+00 -0.31751946614E+02  0.31751947014E+02  0.50400000000E-02 0. -1.
         25    2    1    2    0    0 -0.18042044044E+02  0.51636446754E+02  0.16636688290E+03  0.21516329452E+03  0.12500186237E+03 0.  0.
         23    2    1    2    0    0  0.18042044044E+02 -0.51636446754E+02  0.37743313902E+03  0.39214062105E+03  0.91250502799E+02 0.  0.
        -11    1    4    4    0    0  0.25484271531E+01  0.26244244847E+02  0.11340772380E+03  0.11643267018E+03  0.51100000000E-03 0.  1.
         11    1    4    4    0    0  0.15493616891E+02 -0.77880691601E+02  0.26402541522E+03  0.27570795087E+03  0.51100000000E-03 0. -1.
    9000005    1    3    3    0    0 -0.55541795763E+02  0.74052186183E+02  0.11799592992E+03  0.14997552078E+03  0.10000000000E+01 0.  0.
    9000005    1    3    3    0    0  0.37499751720E+02 -0.22415739429E+02  0.48370952984E+02  0.65187773745E+02  0.10000000000E+01 0.  0.
<mgrwt>
<rscale>  0 0.12821604E+03</rscale>
<asrwt>0</asrwt>
<pdfrwt beam="2">  1        1 0.48849155E-02 0.13644524E+03</pdfrwt>
<pdfrwt beam="1">  1       -1 0.88546447E-01 0.13644524E+03</pdfrwt>
<totfact> 0.21940978E+03</totfact>
</mgrwt>
</event>
<event>
 8    2  0.1409546E-003  0.1314126E+03  0.7818608E-02  0.1239063E+00
          1   -1    0    0  501    0  0.00000000000E+00  0.00000000000E+00  0.25571136101E+03  0.25571136106E+03  0.50400000000E-02 0.  1.
         -1   -1    0    0    0  501 -0.00000000000E+00 -0.00000000000E+00 -0.52189795782E+02  0.52189796026E+02  0.50400000000E-02 0. -1.
         25    2    1    2    0    0  0.64380734013E+01 -0.40048003768E+02  0.12570272287E+03  0.18185277909E+03  0.12499586926E+03 0.  0.
         23    2    1    2    0    0 -0.64380734013E+01  0.40048003768E+02  0.77818842362E+02  0.12604837800E+03  0.90482760646E+02 0.  0.
        -11    1    4    4    0    0  0.20123050307E+02 -0.11150911523E+02  0.62161742798E+02  0.66282442995E+02  0.51100000000E-03 0.  1.
         11    1    4    4    0    0 -0.26561123709E+02  0.51198915291E+02  0.15657099564E+02  0.59765935002E+02  0.51100000000E-03 0. -1.
    9000005    1    3    3    0    0 -0.50804415239E+02 -0.48774400904E+02  0.49264554077E+02  0.85953633313E+02  0.10000000000E+01 0.  0.
    9000005    1    3    3    0    0  0.57242488640E+02  0.87263971356E+01  0.76438168788E+02  0.95899145775E+02  0.10000000000E+01 0.  0.
<mgrwt>
<rscale>  0 0.12247860E+03</rscale>
<asrwt>0</asrwt>
<pdfrwt beam="1">  1        1 0.39340209E-01 0.13141255E+03</pdfrwt>
<pdfrwt beam="2">  1       -1 0.80291994E-02 0.13141255E+03</pdfrwt>
<totfact> 0.86803964E+03</totfact>
</mgrwt>
</event>
<event>
 8    2  0.1409546E-003  0.1703561E+03  0.7818608E-02  0.1183929E+00
         -1   -1    0    0    0  501 -0.00000000000E+00  0.00000000000E+00  0.43804942636E+02  0.43804942926E+02  0.50400000000E-02 0.  1.
          1   -1    0    0  501    0  0.00000000000E+00 -0.00000000000E+00 -0.57850006876E+03  0.57850006878E+03  0.50400000000E-02 0. -1.
         25    2    1    2    0    0 -0.66671519123E+02  0.94608875092E+02 -0.26696012939E+03  0.31668424084E+03  0.12500106800E+03 0.  0.
         23    2    1    2    0    0  0.66671519123E+02 -0.94608875092E+02 -0.26773499673E+03  0.30562077087E+03  0.91247446017E+02 0.  0.
        -11    1    4    4    0    0  0.42926621628E+02 -0.20838891072E+02 -0.18982572873E+03  0.19573135036E+03  0.51100000000E-03 0.  1.
         11    1    4    4    0    0  0.23744897495E+02 -0.73769984020E+02 -0.77909267997E+02  0.10988942051E+03  0.51100000000E-03 0. -1.
    9000005    1    3    3    0    0  0.16174420586E+02  0.85002068358E+02 -0.14698038696E+03  0.17056141902E+03  0.10000000000E+01 0.  0.
    9000005    1    3    3    0    0 -0.82845939709E+02  0.96068067346E+01 -0.11997974243E+03  0.14612282182E+03  0.10000000000E+01 0.  0.
<mgrwt>
<rscale>  0 0.16429744E+03</rscale>
<asrwt>0</asrwt>
<pdfrwt beam="2">  1        1 0.89000005E-01 0.17035609E+03</pdfrwt>
<pdfrwt beam="1">  1       -1 0.67392224E-02 0.17035609E+03</pdfrwt>
<totfact> 0.40593130E+03</totfact>
</mgrwt>
</event>
<event>
 8    2  0.1409546E-003  0.1304211E+03  0.7818608E-02  0.1241270E+00
         -1   -1    0    0    0  501 -0.00000000000E+00  0.00000000000E+00  0.36623786975E+02  0.36623787322E+02  0.50400000000E-02 0.  1.
          1   -1    0    0  501    0  0.00000000000E+00 -0.00000000000E+00 -0.35311864182E+03  0.35311864186E+03  0.50400000000E-02 0. -1.
         25    2    1    2    0    0  0.17339635266E+02 -0.32923109726E+02 -0.17837674658E+03  0.22097041096E+03  0.12500025879E+03 0.  0.
         23    2    1    2    0    0 -0.17339635266E+02  0.32923109726E+02 -0.13811810827E+03  0.16877201822E+03  0.89570018396E+02 0.  0.
        -11    1    4    4    0    0 -0.22957105530E+02  0.68359711431E+01  0.38999235086E+01  0.24268675272E+02  0.51100000000E-03 0.  1.
         11    1    4    4    0    0  0.56174702640E+01  0.26087138583E+02 -0.14201803178E+03  0.14450334295E+03  0.51100000000E-03 0. -1.
    9000005    1    3    3    0    0 -0.49380834718E+02 -0.25462521729E+02 -0.44464986419E+02  0.71168404981E+02  0.10000000000E+01 0.  0.
    9000005    1    3    3    0    0  0.66720469984E+02 -0.74605879978E+01 -0.13391176016E+03  0.14980200598E+03  0.10000000000E+01 0.  0.
<mgrwt>
<rscale>  0 0.12111403E+03</rscale>
<asrwt>0</asrwt>
<pdfrwt beam="2">  1        1 0.54325943E-01 0.13042108E+03</pdfrwt>
<pdfrwt beam="1">  1       -1 0.56344290E-02 0.13042108E+03</pdfrwt>
<totfact> 0.98818597E+03</totfact>
</mgrwt>
</event>
<event>
 8    2  0.1409546E-003  0.1925531E+03  0.7818608E-02  0.1160768E+00
         -1   -1    0    0    0  501 -0.00000000000E+00  0.00000000000E+00  0.31559017811E+03  0.31559017815E+03  0.50400000000E-02 0.  1.
          1   -1    0    0  501    0  0.00000000000E+00 -0.00000000000E+00 -0.10765101261E+03  0.10765101273E+03  0.50400000000E-02 0. -1.
         25    2    1    2    0    0 -0.13927690264E+03  0.45318823317E+02  0.13675057591E+03  0.23617245600E+03  0.12499943041E+03 0.  0.
         23    2    1    2    0    0  0.13927690264E+03 -0.45318823317E+02  0.71188589585E+02  0.18706873489E+03  0.92060007224E+02 0.  0.
        -11    1    4    4    0    0  0.12331764871E+03 -0.56339216474E+02  0.87806853688E+02  0.16152830511E+03  0.51100000000E-03 0.  1.
         11    1    4    4    0    0  0.15959253927E+02  0.11020393157E+02 -0.16618264102E+02  0.25540429779E+02  0.51100000000E-03 0. -1.
    9000005    1    3    3    0    0 -0.50170419963E+02  0.51363262008E+02  0.12756206772E+03  0.14638420968E+03  0.10000000000E+01 0.  0.
    9000005    1    3    3    0    0 -0.89106482673E+02 -0.60444386915E+01  0.91885081960E+01  0.89788246315E+02  0.10000000000E+01 0.  0.
<mgrwt>
<rscale>  0 0.18746520E+03</rscale>
<asrwt>0</asrwt>
<pdfrwt beam="2">  1        1 0.16561695E-01 0.19255313E+03</pdfrwt>
<pdfrwt beam="1">  1       -1 0.48552334E-01 0.19255313E+03</pdfrwt>
<totfact> 0.14055457E+03</totfact>
</mgrwt>
</event>
<event>
 8    2  0.1409546E-003  0.1605102E+03  0.7818608E-02  0.1195295E+00
          1   -1    0    0  501    0  0.00000000000E+00  0.00000000000E+00  0.30731270378E+02  0.30731270792E+02  0.50400000000E-02 0. -1.
         -1   -1    0    0    0  501 -0.00000000000E+00 -0.00000000000E+00 -0.72043014568E+03  0.72043014570E+03  0.50400000000E-02 0.  1.
         25    2    1    2    0    0 -0.92348776979E+02 -0.40128237889E+02 -0.37738100072E+03  0.41009746363E+03  0.12499975157E+03 0.  0.
         23    2    1    2    0    0  0.92348776979E+02  0.40128237889E+02 -0.31231787459E+03  0.34106395285E+03  0.92970925915E+02 0.  0.
        -11    1    4    4    0    0  0.18267224748E+02  0.71675514575E+01 -0.20808029032E+03  0.20900352273E+03  0.51100000000E-03 0.  1.
         11    1    4    4    0    0  0.74081552231E+02  0.32960686432E+02 -0.10423758427E+03  0.13206043013E+03  0.51100000000E-03 0. -1.
    9000005    1    3    3    0    0  0.31132347338E+02 -0.14651809647E+02 -0.81769160801E+02  0.88719187524E+02  0.10000000000E+01 0.  0.
    9000005    1    3    3    0    0 -0.12348112432E+03 -0.25476428242E+02 -0.29561183991E+03  0.32137827611E+03  0.10000000000E+01 0.  0.
<mgrwt>
<rscale>  0 0.15429260E+03</rscale>
<asrwt>0</asrwt>
<pdfrwt beam="1">  1        1 0.47278883E-02 0.16051016E+03</pdfrwt>
<pdfrwt beam="2">  1       -1 0.11083539E+00 0.16051016E+03</pdfrwt>
<totfact> 0.14106041E+03</totfact>
</mgrwt>
</event>
<event>
 8    2  0.1409546E-003  0.1359127E+03  0.7818608E-02  0.1231905E+00
         -1   -1    0    0    0  501 -0.00000000000E+00  0.00000000000E+00  0.17977407507E+02  0.17977408213E+02  0.50400000000E-02 0.  1.
          1   -1    0    0  501    0  0.00000000000E+00 -0.00000000000E+00 -0.81008562155E+03  0.81008562157E+03  0.50400000000E-02 0. -1.
         25    2    1    2    0    0 -0.48055767394E+02 -0.23202860435E+02 -0.49668974028E+03  0.51494947807E+03  0.12499814940E+03 0.  0.
         23    2    1    2    0    0  0.48055767394E+02  0.23202860435E+02 -0.29541847377E+03  0.31311355172E+03  0.88996023006E+02 0.  0.
        -11    1    4    4    0    0  0.70178285183E+02  0.19365501387E+02 -0.26780396265E+03  0.27752293016E+03  0.51100000000E-03 0. -1.
         11    1    4    4    0    0 -0.22122517789E+02  0.38373590477E+01 -0.27614511121E+02  0.35590621553E+02  0.51100000000E-03 0.  1.
    9000005    1    3    3    0    0 -0.31901353207E+02  0.37141946257E+02 -0.37474543986E+03  0.37793169383E+03  0.10000000000E+01 0.  0.
    9000005    1    3    3    0    0 -0.16154414187E+02 -0.60344806691E+02 -0.12194430042E+03  0.13701778424E+03  0.10000000000E+01 0.  0.
<mgrwt>
<rscale>  0 0.12704631E+03</rscale>
<asrwt>0</asrwt>
<pdfrwt beam="2">  1        1 0.12462853E+00 0.13591272E+03</pdfrwt>
<pdfrwt beam="1">  1       -1 0.27657557E-02 0.13591272E+03</pdfrwt>
<totfact> 0.92477241E+03</totfact>
</mgrwt>
</event>
<event>
 8    2  0.1409546E-003  0.1336950E+03  0.7818608E-02  0.1234672E+00
         -1   -1    0    0    0  501 -0.00000000000E+00  0.00000000000E+00  0.77903054148E+02  0.77903054311E+02  0.50400000000E-02 0.  1.
          1   -1    0    0  501    0  0.00000000000E+00 -0.00000000000E+00 -0.21887414671E+03  0.21887414677E+03  0.50400000000E-02 0. -1.
         25    2    1    2    0    0  0.35060272225E+02 -0.31969331567E+02 -0.15721777729E+02  0.13461620703E+03  0.12499235197E+03 0.  0.
         23    2    1    2    0    0 -0.35060272225E+02  0.31969331567E+02 -0.12524931484E+03  0.16216099405E+03  0.91419561770E+02 0.  0.
        -11    1    4    4    0    0 -0.34042811273E+02 -0.25812814508E+02 -0.36170167101E+02  0.55977632859E+02  0.51100000000E-03 0.  1.
         11    1    4    4    0    0 -0.10174609528E+01  0.57782146074E+02 -0.89079147734E+02  0.10618336119E+03  0.51100000000E-03 0. -1.
    9000005    1    3    3    0    0 -0.28970395881E+02  0.29187290122E+02 -0.20452788753E+02  0.45940160100E+02  0.10000000000E+01 0.  0.
    9000005    1    3    3    0    0  0.64030668107E+02 -0.61156621689E+02  0.47310110239E+01  0.88676046935E+02  0.10000000000E+01 0.  0.
<mgrwt>
<rscale>  0 0.12525487E+03</rscale>
<asrwt>0</asrwt>
<pdfrwt beam="2">  1        1 0.33672946E-01 0.13369498E+03</pdfrwt>
<pdfrwt beam="1">  1       -1 0.11985085E-01 0.13369498E+03</pdfrwt>
<totfact> 0.57210562E+03</totfact>
</mgrwt>
</event>
<event>
 8    2  0.1409546E-003  0.1549001E+03  0.7818608E-02  0.1201792E+00
          1   -1    0    0  501    0  0.00000000000E+00  0.00000000000E+00  0.11993248531E+04  0.11993248532E+04  0.50400000000E-02 0. -1.
         -1   -1    0    0    0  501 -0.00000000000E+00 -0.00000000000E+00 -0.18063659462E+02  0.18063660166E+02  0.50400000000E-02 0.  1.
         25    2    1    2    0    0 -0.12417271958E+02 -0.90634357351E+02  0.76728299232E+03  0.78276256304E+03  0.12500105765E+03 0.  0.
         23    2    1    2    0    0  0.12417271958E+02  0.90634357351E+02  0.41397820136E+03  0.43462595028E+03  0.95671260476E+02 0.  0.
        -11    1    4    4    0    0  0.31401004284E+02  0.66524944383E+02  0.13309859347E+03  0.15207506988E+03  0.51100000000E-03 0.  1.
         11    1    4    4    0    0 -0.18983732326E+02  0.24109412968E+02  0.28087960788E+03  0.28255088040E+03  0.51100000000E-03 0. -1.
    9000005    1    3    3    0    0  0.49165214412E+01 -0.10525560404E+03  0.73910591532E+03  0.74657984732E+03  0.10000000000E+01 0.  0.
    9000005    1    3    3    0    0 -0.17333793399E+02  0.14621246690E+02  0.28177077002E+02  0.36182715718E+02  0.10000000000E+01 0.  0.
<mgrwt>
<rscale>  0 0.14893131E+03</rscale>
<asrwt>0</asrwt>
<pdfrwt beam="1">  1        1 0.18451157E+00 0.15490010E+03</pdfrwt>
<pdfrwt beam="2">  1       -1 0.27790238E-02 0.15490010E+03</pdfrwt>
<totfact> 0.47676510E+03</totfact>
</mgrwt>
</event>
<event>
 8    2  0.1409546E-003  0.1389658E+03  0.7818608E-02  0.1225839E+00
         -1   -1    0    0    0  501 -0.00000000000E+00  0.00000000000E+00  0.13513007082E+02  0.13513008022E+02  0.50400000000E-02 0.  1.
          1   -1    0    0  501    0  0.00000000000E+00 -0.00000000000E+00 -0.11702116448E+04  0.11702116449E+04  0.50400000000E-02 0. -1.
         25    2    1    2    0    0 -0.60733628165E+02  0.12676100715E+00 -0.72642960863E+03  0.73960222970E+03  0.12499156863E+03 0.  0.
         23    2    1    2    0    0  0.60733628165E+02 -0.12676100715E+00 -0.43026902913E+03  0.44412242317E+03  0.91786162779E+02 0.  0.
        -11    1    4    4    0    0  0.72888680352E+02  0.28136538260E+02 -0.33580657867E+03  0.34477598928E+03  0.51100000000E-03 0. -1.
         11    1    4    4    0    0 -0.12155052187E+02 -0.28263299267E+02 -0.94462450465E+02  0.99346433893E+02  0.51100000000E-03 0.  1.
    9000005    1    3    3    0    0  0.21201424977E+02  0.12979077361E+02 -0.45742045678E+03  0.45809653039E+03  0.10000000000E+01 0.  0.
    9000005    1    3    3    0    0 -0.81935053142E+02 -0.12852316354E+02 -0.26900915184E+03  0.28150569931E+03  0.10000000000E+01 0.  0.
<mgrwt>
<rscale>  0 0.13109575E+03</rscale>
<asrwt>0</asrwt>
<pdfrwt beam="2">  1        1 0.18003248E+00 0.13896576E+03</pdfrwt>
<pdfrwt beam="1">  1       -1 0.20789252E-02 0.13896576E+03</pdfrwt>
<totfact> 0.75761847E+03</totfact>
</mgrwt>
</event>
<event>
 8    2  0.1409546E-003  0.1320439E+03  0.7818608E-02  0.1238262E+00
         -1   -1    0    0    0  501 -0.00000000000E+00  0.00000000000E+00  0.91058403807E+01  0.91058417755E+01  0.50400000000E-02 0.  1.
          1   -1    0    0  501    0  0.00000000000E+00 -0.00000000000E+00 -0.18729217054E+04  0.18729217054E+04  0.50400000000E-02 0. -1.
         25    2    1    2    0    0  0.41536040437E+01 -0.42352587156E+02 -0.14682624258E+04  0.14741879640E+04  0.12499843250E+03 0.  0.
         23    2    1    2    0    0 -0.41536040437E+01  0.42352587156E+02 -0.39555343929E+03  0.40783958325E+03  0.89775321033E+02 0.  0.
        -11    1    4    4    0    0  0.23918207452E+02  0.35611763832E+02 -0.78351438151E+02  0.89326514718E+02  0.51100000000E-03 0.  1.
         11    1    4    4    0    0 -0.28071811496E+02  0.67408233243E+01 -0.31720200114E+03  0.31851306853E+03  0.51100000000E-03 0. -1.
    9000005    1    3    3    0    0 -0.66750290507E+01 -0.15265151042E+02 -0.13980547467E+04  0.13981543748E+04  0.10000000000E+01 0.  0.
    9000005    1    3    3    0    0  0.10828633094E+02 -0.27087436115E+02 -0.70207679037E+02  0.76033589194E+02  0.10000000000E+01 0.  0.
<mgrwt>
<rscale>  0 0.12297924E+03</rscale>
<asrwt>0</asrwt>
<pdfrwt beam="2">  1        1 0.28814150E+00 0.13204394E+03</pdfrwt>
<pdfrwt beam="1">  1       -1 0.14009001E-02 0.13204394E+03</pdfrwt>
<totfact> 0.46471931E+03</totfact>
</mgrwt>
</event>
<event>
 8    2  0.1409546E-003  0.1474381E+03  0.7818608E-02  0.1212239E+00
         -1   -1    0    0    0  501 -0.00000000000E+00  0.00000000000E+00  0.25191516940E+02  0.25191517444E+02  0.50400000000E-02 0.  1.
          1   -1    0    0  501    0  0.00000000000E+00 -0.00000000000E+00 -0.78054387788E+03  0.78054387789E+03  0.50400000000E-02 0. -1.
         25    2    1    2    0    0 -0.26817374791E+01 -0.78137886426E+02 -0.51776239912E+03  0.53834551096E+03  0.12500106484E+03 0.  0.
         23    2    1    2    0    0  0.26817374791E+01  0.78137886426E+02 -0.23758996181E+03  0.26738988438E+03  0.94528510526E+02 0.  0.
        -11    1    4    4    0    0 -0.18304213599E+02  0.53925403070E+02 -0.22639754273E+03  0.23344986761E+03  0.51100000000E-03 0. -1.
         11    1    4    4    0    0  0.20985951078E+02  0.24212483356E+02 -0.11192419078E+02  0.33940016765E+02  0.51100000000E-03 0.  1.
    9000005    1    3    3    0    0 -0.20798973262E+02  0.12059801432E+02 -0.17654215410E+02  0.29844721829E+02  0.10000000000E+01 0.  0.
    9000005    1    3    3    0    0  0.18117235783E+02 -0.90197687858E+02 -0.50010818371E+03  0.50850078913E+03  0.10000000000E+01 0.  0.
<mgrwt>
<rscale>  0 0.14081321E+03</rscale>
<asrwt>0</asrwt>
<pdfrwt beam="2">  1        1 0.12008366E+00 0.14743808E+03</pdfrwt>
<pdfrwt beam="1">  1       -1 0.38756186E-02 0.14743808E+03</pdfrwt>
<totfact> 0.59992473E+03</totfact>
</mgrwt>
</event>
<event>
 8    2  0.1409546E-003  0.1340854E+03  0.7818608E-02  0.1233606E+00
         -1   -1    0    0    0  501 -0.00000000000E+00  0.00000000000E+00  0.14175485611E+02  0.14175486507E+02  0.50400000000E-02 0.  1.
          1   -1    0    0  501    0  0.00000000000E+00 -0.00000000000E+00 -0.12080070107E+04  0.12080070107E+04  0.50400000000E-02 0. -1.
         25    2    1    2    0    0  0.17121336431E+02 -0.45390917428E+02 -0.90897756871E+03  0.91881397414E+03  0.12500169242E+03 0.  0.
         23    2    1    2    0    0 -0.17121336431E+02  0.45390917428E+02 -0.28485395635E+03  0.30336852305E+03  0.92397017179E+02 0.  0.
        -11    1    4    4    0    0 -0.32757520861E+02  0.12444979985E+02 -0.30628396109E+02  0.46540641897E+02  0.51100000000E-03 0.  1.
         11    1    4    4    0    0  0.15636184429E+02  0.32945937443E+02 -0.25422556024E+03  0.25682788116E+03  0.51100000000E-03 0. -1.
    9000005    1    3    3    0    0  0.49597923507E+02 -0.26287149074E+02 -0.82329997425E+03  0.82521198236E+03  0.10000000000E+01 0.  0.
    9000005    1    3    3    0    0 -0.32476587076E+02 -0.19103768353E+02 -0.85677594462E+02  0.93601991786E+02  0.10000000000E+01 0.  0.
<mgrwt>
<rscale>  0 0.12594127E+03</rscale>
<asrwt>0</asrwt>
<pdfrwt beam="2">  1        1 0.18584715E+00 0.13408542E+03</pdfrwt>
<pdfrwt beam="1">  1       -1 0.21808449E-02 0.13408542E+03</pdfrwt>
<totfact> 0.66496407E+03</totfact>
</mgrwt>
</event>
<event>
 8    2  0.1409546E-003  0.1640318E+03  0.7818608E-02  0.1191557E+00
         -1   -1    0    0    0  501 -0.00000000000E+00  0.00000000000E+00  0.93867583574E+02  0.93867583710E+02  0.50400000000E-02 0.  1.
          1   -1    0    0  501    0  0.00000000000E+00 -0.00000000000E+00 -0.24957497817E+03  0.24957497822E+03  0.50400000000E-02 0. -1.
         25    2    1    2    0    0  0.10567567174E+03 -0.10751039533E+02 -0.10669184207E+03  0.19567726186E+03  0.12499403664E+03 0.  0.
         23    2    1    2    0    0 -0.10567567174E+03  0.10751039533E+02 -0.49015552533E+02  0.14776530008E+03  0.90272515571E+02 0.  0.
        -11    1    4    4    0    0 -0.31217294735E+02  0.44860069840E+02 -0.52468124866E+01  0.54904229328E+02  0.51100000000E-03 0.  1.
         11    1    4    4    0    0 -0.74458377008E+02 -0.34109030306E+02 -0.43768740047E+02  0.92861070749E+02  0.51100000000E-03 0. -1.
    9000005    1    3    3    0    0  0.61198418678E+02  0.30900692042E+02 -0.11528280020E+03  0.13413136561E+03  0.10000000000E+01 0.  0.
    9000005    1    3    3    0    0  0.44477253065E+02 -0.41651731576E+02  0.85909581352E+01  0.61545896250E+02  0.10000000000E+01 0.  0.
<mgrwt>
<rscale>  0 0.15749289E+03</rscale>
<asrwt>0</asrwt>
<pdfrwt beam="2">  1        1 0.38396150E-01 0.16403183E+03</pdfrwt>
<pdfrwt beam="1">  1       -1 0.14441167E-01 0.16403183E+03</pdfrwt>
<totfact> 0.36782258E+03</totfact>
</mgrwt>
</event>
<event>
 8    2  0.1409546E-003  0.1464926E+03  0.7818608E-02  0.1214047E+00
          1   -1    0    0  501    0  0.00000000000E+00  0.00000000000E+00  0.86293628871E+03  0.86293628872E+03  0.50400000000E-02 0. -1.
         -1   -1    0    0    0  501 -0.00000000000E+00 -0.00000000000E+00 -0.21442029389E+02  0.21442029982E+02  0.50400000000E-02 0.  1.
         25    2    1    2    0    0  0.36388438903E+02 -0.67168772353E+02  0.54612278812E+03  0.56542920983E+03  0.12499731661E+03 0.  0.
         23    2    1    2    0    0 -0.36388438903E+02  0.67168772353E+02  0.29537147120E+03  0.31894910887E+03  0.92997126774E+02 0.  0.
        -11    1    4    4    0    0 -0.69675792497E+00  0.71128271868E+02  0.11642493962E+03  0.13643490425E+03  0.51100000000E-03 0.  1.
         11    1    4    4    0    0 -0.35691680978E+02 -0.39594995145E+01  0.17894653157E+03  0.18251420462E+03  0.51100000000E-03 0. -1.
    9000005    1    3    3    0    0  0.36698983948E+02 -0.69394558775E+02  0.55278259175E+03  0.55832966422E+03  0.10000000000E+01 0.  0.
    9000005    1    3    3    0    0 -0.31054504535E+00  0.22257864220E+01 -0.66598036301E+01  0.70995456061E+01  0.10000000000E+01 0.  0.
<mgrwt>
<rscale>  0 0.13946774E+03</rscale>
<asrwt>0</asrwt>
<pdfrwt beam="1">  1        1 0.13275942E+00 0.14649263E+03</pdfrwt>
<pdfrwt beam="2">  1       -1 0.32987740E-02 0.14649263E+03</pdfrwt>
<totfact> 0.65155043E+03</totfact>
</mgrwt>
</event>
<event>
 8    2  0.1409546E-003  0.1392696E+03  0.7818608E-02  0.1225480E+00
         -1   -1    0    0    0  501 -0.00000000000E+00  0.00000000000E+00  0.48677096022E+02  0.48677096283E+02  0.50400000000E-02 0.  1.
          1   -1    0    0  501    0  0.00000000000E+00 -0.00000000000E+00 -0.35385026542E+03  0.35385026545E+03  0.50400000000E-02 0. -1.
         25    2    1    2    0    0  0.23273718030E+02 -0.56815411634E+02 -0.23096158490E+03  0.26970218110E+03  0.12500542325E+03 0.  0.
         23    2    1    2    0    0 -0.23273718030E+02  0.56815411634E+02 -0.74211584500E+02  0.13282518064E+03  0.91463175034E+02 0.  0.
        -11    1    4    4    0    0 -0.29030537891E+01  0.70659207247E+02 -0.80753254008E+02  0.10734169424E+03  0.51100000000E-03 0. -1.
         11    1    4    4    0    0 -0.20370664241E+02 -0.13843795613E+02  0.65416695070E+01  0.25483486394E+02  0.51100000000E-03 0.  1.
    9000005    1    3    3    0    0  0.27566342415E+01 -0.78754607193E+02 -0.22586395110E+03  0.23921833457E+03  0.10000000000E+01 0.  0.
    9000005    1    3    3    0    0  0.20517083788E+02  0.21939195559E+02 -0.50976337921E+01  0.30483846530E+02  0.10000000000E+01 0.  0.
<mgrwt>
<rscale>  0 0.13134027E+03</rscale>
<asrwt>0</asrwt>
<pdfrwt beam="2">  1        1 0.54438501E-01 0.13926957E+03</pdfrwt>
<pdfrwt beam="1">  1       -1 0.74887842E-02 0.13926957E+03</pdfrwt>
<totfact> 0.64715544E+03</totfact>
</mgrwt>
</event>
<event>
 8    2  0.1409546E-003  0.1367024E+03  0.7818608E-02  0.1231107E+00
          1   -1    0    0  501    0  0.00000000000E+00  0.00000000000E+00  0.23329393888E+03  0.23329393893E+03  0.50400000000E-02 0. -1.
         -1   -1    0    0    0  501 -0.00000000000E+00 -0.00000000000E+00 -0.62697379772E+02  0.62697379975E+02  0.50400000000E-02 0.  1.
         25    2    1    2    0    0  0.55180033851E+02 -0.42523420419E+01  0.80522214679E+02  0.15865490595E+03  0.12499853429E+03 0.  0.
         23    2    1    2    0    0 -0.55180033851E+02  0.42523420419E+01  0.90074344430E+02  0.13733641296E+03  0.87664041960E+02 0.  0.
        -11    1    4    4    0    0 -0.62693072562E+02  0.33877606293E+02  0.74273793958E+02  0.10293060781E+03  0.51100000000E-03 0.  1.
         11    1    4    4    0    0  0.75130387119E+01 -0.29625264251E+02  0.15800550472E+02  0.34405805151E+02  0.51100000000E-03 0. -1.
    9000005    1    3    3    0    0  0.96540119319E+01  0.58185150676E+02  0.28630438907E+02  0.65569914882E+02  0.10000000000E+01 0.  0.
    9000005    1    3    3    0    0  0.45526021919E+02 -0.62437492718E+02  0.51891775771E+02  0.93084991064E+02  0.10000000000E+01 0.  0.
<mgrwt>
<rscale>  0 0.12756973E+03</rscale>
<asrwt>0</asrwt>
<pdfrwt beam="1">  1        1 0.35891375E-01 0.13670242E+03</pdfrwt>
<pdfrwt beam="2">  1       -1 0.96457508E-02 0.13670242E+03</pdfrwt>
<totfact> 0.73843529E+03</totfact>
</mgrwt>
</event>
<event>
 8    2  0.1409546E-003  0.1369627E+03  0.7818608E-02  0.1229139E+00
          1   -1    0    0  501    0  0.00000000000E+00  0.00000000000E+00  0.43263428283E+03  0.43263428285E+03  0.50400000000E-02 0. -1.
         -1   -1    0    0    0  501 -0.00000000000E+00 -0.00000000000E+00 -0.42075696149E+02  0.42075696451E+02  0.50400000000E-02 0.  1.
         25    2    1    2    0    0 -0.45019064914E+02 -0.33282356830E+02  0.31483182037E+03  0.34333344001E+03  0.12499737767E+03 0.  0.
         23    2    1    2    0    0  0.45019064914E+02  0.33282356830E+02  0.75726766302E+02  0.13137653930E+03  0.91601421721E+02 0.  0.
        -11    1    4    4    0    0  0.17537299052E+01  0.38024006803E+02 -0.62382741115E+01  0.38572227393E+02  0.51100000000E-03 0.  1.
         11    1    4    4    0    0  0.43265335009E+02 -0.47416499724E+01  0.81965040413E+02  0.92804311905E+02  0.51100000000E-03 0. -1.
    9000005    1    3    3    0    0  0.33863136915E+02 -0.13395839253E+02  0.19576614527E+03  0.19912695494E+03  0.10000000000E+01 0.  0.
    9000005    1    3    3    0    0 -0.78882201829E+02 -0.19886517578E+02  0.11906567511E+03  0.14420648507E+03  0.10000000000E+01 0.  0.
<mgrwt>
<rscale>  0 0.12887183E+03</rscale>
<asrwt>0</asrwt>
<pdfrwt beam="1">  1        1 0.66559123E-01 0.13696268E+03</pdfrwt>
<pdfrwt beam="2">  1       -1 0.64731838E-02 0.13696268E+03</pdfrwt>
<totfact> 0.62449435E+03</totfact>
</mgrwt>
</event>
<event>
 8    2  0.1409546E-003  0.1819294E+03  0.7818608E-02  0.1170947E+00
         -1   -1    0    0    0  501 -0.00000000000E+00  0.00000000000E+00  0.58749501315E+02  0.58749501531E+02  0.50400000000E-02 0.  1.
          1   -1    0    0  501    0  0.00000000000E+00 -0.00000000000E+00 -0.54716284642E+03  0.54716284644E+03  0.50400000000E-02 0. -1.
         25    2    1    2    0    0  0.44143186603E+02  0.12459792378E+03 -0.34204120497E+03  0.38741514193E+03  0.12500017104E+03 0.  0.
         23    2    1    2    0    0 -0.44143186603E+02 -0.12459792378E+03 -0.14637214013E+03  0.21849720605E+03  0.94037025203E+02 0.  0.
        -11    1    4    4    0    0 -0.53059217235E+02 -0.10578475474E+03 -0.66068415615E+02  0.13553866759E+03  0.51100000000E-03 0.  1.
         11    1    4    4    0    0  0.89160306315E+01 -0.18813169039E+02 -0.80303724516E+02  0.82958538457E+02  0.51100000000E-03 0. -1.
    9000005    1    3    3    0    0  0.42738495300E+02  0.14680889349E+03 -0.32563557489E+03  0.35974846465E+03  0.10000000000E+01 0.  0.
    9000005    1    3    3    0    0  0.14046913028E+01 -0.22210969704E+02 -0.16405630083E+02  0.27666677272E+02  0.10000000000E+01 0.  0.
<mgrwt>
<rscale>  0 0.17678895E+03</rscale>
<asrwt>0</asrwt>
<pdfrwt beam="2">  1        1 0.84178896E-01 0.18192940E+03</pdfrwt>
<pdfrwt beam="1">  1       -1 0.90383852E-02 0.18192940E+03</pdfrwt>
<totfact> 0.28104912E+03</totfact>
</mgrwt>
</event>
<event>
 8    2  0.1409546E-003  0.1396229E+03  0.7818608E-02  0.1225137E+00
          1   -1    0    0  501    0  0.00000000000E+00  0.00000000000E+00  0.12623177855E+04  0.12623177855E+04  0.50400000000E-02 0. -1.
         -1   -1    0    0    0  501 -0.00000000000E+00 -0.00000000000E+00 -0.13177993913E+02  0.13177994877E+02  0.50400000000E-02 0.  1.
         25    2    1    2    0    0 -0.45265304067E+02  0.42677814689E+02  0.53508804531E+03  0.55300430263E+03  0.12499679549E+03 0.  0.
         23    2    1    2    0    0  0.45265304067E+02 -0.42677814689E+02  0.71405174631E+03  0.72249147779E+03  0.90849851086E+02 0.  0.
        -11    1    4    4    0    0  0.17961144339E+02  0.16410859355E+01  0.21837110953E+02  0.28322346020E+02  0.51100000000E-03 0.  1.
         11    1    4    4    0    0  0.27304159728E+02 -0.44318900625E+02  0.69221463536E+03  0.69416913177E+03  0.51100000000E-03 0. -1.
    9000005    1    3    3    0    0 -0.38133023223E+01  0.70471691023E+02  0.43985236585E+03  0.44547940946E+03  0.10000000000E+01 0.  0.
    9000005    1    3    3    0    0 -0.41452001745E+02 -0.27793876334E+02  0.95235679461E+02  0.10752489318E+03  0.10000000000E+01 0.  0.
<mgrwt>
<rscale>  0 0.13157498E+03</rscale>
<asrwt>0</asrwt>
<pdfrwt beam="1">  1        1 0.19420272E+00 0.13962286E+03</pdfrwt>
<pdfrwt beam="2">  1       -1 0.20273839E-02 0.13962286E+03</pdfrwt>
<totfact> 0.67994941E+03</totfact>
</mgrwt>
</event>
<event>
 8    2  0.1409546E-003  0.2099696E+03  0.7818608E-02  0.1144950E+00
         -1   -1    0    0    0  501 -0.00000000000E+00  0.00000000000E+00  0.39289429171E+02  0.39289429494E+02  0.50400000000E-02 0.  1.
          1   -1    0    0  501    0  0.00000000000E+00 -0.00000000000E+00 -0.13848400582E+04  0.13848400582E+04  0.50400000000E-02 0. -1.
         25    2    1    2    0    0  0.89029987215E+02 -0.14330404429E+03 -0.10497488980E+04  0.10705419161E+04  0.12499943025E+03 0.  0.
         23    2    1    2    0    0 -0.89029987215E+02  0.14330404429E+03 -0.29580173108E+03  0.35358757164E+03  0.95200414789E+02 0.  0.
        -11    1    4    4    0    0 -0.60738093089E+02  0.89276216355E+02 -0.95311008542E+02  0.14402620285E+03  0.51100000000E-03 0.  1.
         11    1    4    4    0    0 -0.28291894125E+02  0.54027827938E+02 -0.20049072254E+03  0.20956136879E+03  0.51100000000E-03 0. -1.
    9000005    1    3    3    0    0 -0.58588454056E+01 -0.50817146606E+02 -0.10788215213E+03  0.11939961142E+03  0.10000000000E+01 0.  0.
    9000005    1    3    3    0    0  0.94888832620E+02 -0.92486897687E+02 -0.94186674584E+03  0.95114230466E+03  0.10000000000E+01 0.  0.
<mgrwt>
<rscale>  0 0.20578238E+03</rscale>
<asrwt>0</asrwt>
<pdfrwt beam="2">  1        1 0.21305228E+00 0.20996963E+03</pdfrwt>
<pdfrwt beam="1">  1       -1 0.60445286E-02 0.20996963E+03</pdfrwt>
<totfact> 0.11332107E+03</totfact>
</mgrwt>
</event>
<event>
 8    2  0.1409546E-003  0.1856623E+03  0.7818608E-02  0.1167707E+00
          1   -1    0    0  501    0  0.00000000000E+00  0.00000000000E+00  0.52726569793E+03  0.52726569795E+03  0.50400000000E-02 0. -1.
         -1   -1    0    0    0  501 -0.00000000000E+00 -0.00000000000E+00 -0.58761840911E+02  0.58761841127E+02  0.50400000000E-02 0.  1.
         25    2    1    2    0    0  0.13645906914E+03  0.14979779168E+02  0.21729700750E+03  0.28581195907E+03  0.12500006059E+03 0.  0.
         23    2    1    2    0    0 -0.13645906914E+03 -0.14979779168E+02  0.25120684952E+03  0.30021558001E+03  0.90438055602E+02 0.  0.
        -11    1    4    4    0    0 -0.10352220664E+03  0.30750827181E+02  0.16184982409E+03  0.19457087706E+03  0.51100000000E-03 0.  1.
         11    1    4    4    0    0 -0.32936862493E+02 -0.45730606349E+02  0.89357025430E+02  0.10564470295E+03  0.51100000000E-03 0. -1.
    9000005    1    3    3    0    0  0.46300302584E+02 -0.26561472387E+02  0.16537704255E+03  0.17378088514E+03  0.10000000000E+01 0.  0.
    9000005    1    3    3    0    0  0.90158766552E+02  0.41541251555E+02  0.51919964942E+02  0.11203107393E+03  0.10000000000E+01 0.  0.
<mgrwt>
<rscale>  0 0.18009950E+03</rscale>
<asrwt>0</asrwt>
<pdfrwt beam="1">  1        1 0.81117800E-01 0.18566229E+03</pdfrwt>
<pdfrwt beam="2">  1       -1 0.90402832E-02 0.18566229E+03</pdfrwt>
<totfact> 0.29542902E+03</totfact>
</mgrwt>
</event>
<event>
 8    2  0.1409546E-003  0.1256452E+03  0.7818608E-02  0.1249144E+00
          1   -1    0    0  501    0  0.00000000000E+00  0.00000000000E+00  0.10684190164E+03  0.10684190176E+03  0.50400000000E-02 0. -1.
         -1   -1    0    0    0  501 -0.00000000000E+00 -0.00000000000E+00 -0.12204932647E+03  0.12204932657E+03  0.50400000000E-02 0.  1.
         25    2    1    2    0    0 -0.12083066072E+02 -0.39200391129E+01  0.24755146389E+02  0.12806069078E+03  0.12500142423E+03 0.  0.
         23    2    1    2    0    0  0.12083066072E+02  0.39200391129E+01 -0.39962571215E+02  0.10083053755E+03  0.91697453684E+02 0.  0.
        -11    1    4    4    0    0 -0.18880625890E+02 -0.13265858079E+02  0.20430784478E+02  0.30820090513E+02  0.51100000000E-03 0. -1.
         11    1    4    4    0    0  0.30963691962E+02  0.17185897192E+02 -0.60393355693E+02  0.70010447037E+02  0.51100000000E-03 0.  1.
    9000005    1    3    3    0    0  0.54452053505E+02 -0.15810755082E+01  0.28274886229E+02  0.61383997279E+02  0.10000000000E+01 0.  0.
    9000005    1    3    3    0    0 -0.66535119577E+02 -0.23389636047E+01 -0.35197398401E+01  0.66676693503E+02  0.10000000000E+01 0.  0.
<mgrwt>
<rscale>  0 0.11640745E+03</rscale>
<asrwt>0</asrwt>
<pdfrwt beam="1">  1        1 0.16437216E-01 0.12564523E+03</pdfrwt>
<pdfrwt beam="2">  1       -1 0.18776819E-01 0.12564523E+03</pdfrwt>
<totfact> 0.69544609E+03</totfact>
</mgrwt>
</event>
<event>
 8    2  0.1409546E-003  0.1560311E+03  0.7818608E-02  0.1201733E+00
          1   -1    0    0  501    0  0.00000000000E+00  0.00000000000E+00  0.31481455629E+02  0.31481456033E+02  0.50400000000E-02 0. -1.
         -1   -1    0    0    0  501 -0.00000000000E+00 -0.00000000000E+00 -0.65153327995E+03  0.65153327997E+03  0.50400000000E-02 0.  1.
         25    2    1    2    0    0  0.70479777342E+01  0.93126534555E+02 -0.36265176879E+03  0.39479364350E+03  0.12499396028E+03 0.  0.
         23    2    1    2    0    0 -0.70479777342E+01 -0.93126534555E+02 -0.25740005553E+03  0.28822109251E+03  0.89968795434E+02 0.  0.
        -11    1    4    4    0    0  0.62742255885E+01 -0.56865076669E+02 -0.23840337964E+03  0.24517172405E+03  0.51100000000E-03 0.  1.
         11    1    4    4    0    0 -0.13322203323E+02 -0.36261457885E+02 -0.18996675892E+02  0.43049368457E+02  0.51100000000E-03 0. -1.
    9000005    1    3    3    0    0  0.11956377551E+02 -0.16116344836E+02 -0.18565099858E+03  0.18673506582E+03  0.10000000000E+01 0.  0.
    9000005    1    3    3    0    0 -0.49083998163E+01  0.10924287939E+03 -0.17700077021E+03  0.20805857767E+03  0.10000000000E+01 0.  0.
<mgrwt>
<rscale>  0 0.14897924E+03</rscale>
<asrwt>0</asrwt>
<pdfrwt beam="1">  1        1 0.48433014E-02 0.15603114E+03</pdfrwt>
<pdfrwt beam="2">  1       -1 0.10023588E+00 0.15603114E+03</pdfrwt>
<totfact> 0.17090300E+03</totfact>
</mgrwt>
</event>
<event>
 8    2  0.1409546E-003  0.1401356E+03  0.7818608E-02  0.1222810E+00
         -1   -1    0    0    0  501 -0.00000000000E+00  0.00000000000E+00  0.24178839587E+02  0.24178840112E+02  0.50400000000E-02 0.  1.
          1   -1    0    0  501    0  0.00000000000E+00 -0.00000000000E+00 -0.80977897791E+03  0.80977897792E+03  0.50400000000E-02 0. -1.
         25    2    1    2    0    0 -0.52331865940E+02  0.35703996342E+02 -0.25291737670E+03  0.28914559909E+03  0.12499831396E+03 0.  0.
         23    2    1    2    0    0  0.52331865940E+02 -0.35703996342E+02 -0.53268276163E+03  0.54481221895E+03  0.95163174764E+02 0.  0.
        -11    1    4    4    0    0 -0.20348267964E+02 -0.11899887372E+02 -0.27529721321E+03  0.27630456914E+03  0.51100000000E-03 0.  1.
         11    1    4    4    0    0  0.72680133903E+02 -0.23804108970E+02 -0.25738554842E+03  0.26850764980E+03  0.51100000000E-03 0. -1.
    9000005    1    3    3    0    0 -0.36190002504E+02 -0.45233087176E+01 -0.24159572090E+03  0.24433515703E+03  0.10000000000E+01 0.  0.
    9000005    1    3    3    0    0 -0.16141863435E+02  0.40227305060E+02 -0.11321655790E+02  0.44810442058E+02  0.10000000000E+01 0.  0.
<mgrwt>
<rscale>  0 0.13318134E+03</rscale>
<asrwt>0</asrwt>
<pdfrwt beam="2">  1        1 0.12458136E+00 0.14013557E+03</pdfrwt>
<pdfrwt beam="1">  1       -1 0.37198221E-02 0.14013557E+03</pdfrwt>
<totfact> 0.60137593E+03</totfact>
</mgrwt>
</event>
<event>
 8    2  0.1409546E-003  0.1755756E+03  0.7818608E-02  0.1177942E+00
          1   -1    0    0  501    0  0.00000000000E+00  0.00000000000E+00  0.34767220965E+03  0.34767220969E+03  0.50400000000E-02 0. -1.
         -1   -1    0    0    0  501 -0.00000000000E+00 -0.00000000000E+00 -0.78529028533E+02  0.78529028695E+02  0.50400000000E-02 0.  1.
         25    2    1    2    0    0  0.42669486071E+02 -0.11567430568E+03  0.12759105205E+03  0.21703974519E+03  0.12500217754E+03 0.  0.
         23    2    1    2    0    0 -0.42669486071E+02  0.11567430568E+03  0.14155212907E+03  0.20916149320E+03  0.92251259915E+02 0.  0.
        -11    1    4    4    0    0  0.12477826638E+02  0.92211806088E+02  0.74266123787E+02  0.11905532530E+03  0.51100000000E-03 0.  1.
         11    1    4    4    0    0 -0.55147312709E+02  0.23462499596E+02  0.67286005280E+02  0.90106167897E+02  0.51100000000E-03 0. -1.
    9000005    1    3    3    0    0  0.32013804185E+02 -0.14272653276E+03  0.11024628351E+03  0.18316929284E+03  0.10000000000E+01 0.  0.
    9000005    1    3    3    0    0  0.10655681887E+02  0.27052227076E+02  0.17344768544E+02  0.33870452346E+02  0.10000000000E+01 0.  0.
<mgrwt>
<rscale>  0 0.16990962E+03</rscale>
<asrwt>0</asrwt>
<pdfrwt beam="1">  1        1 0.53488033E-01 0.17557555E+03</pdfrwt>
<pdfrwt beam="2">  1       -1 0.12081389E-01 0.17557555E+03</pdfrwt>
<totfact> 0.32234651E+03</totfact>
</mgrwt>
</event>
<event>
 8    2  0.1409546E-003  0.2829471E+03  0.7818608E-02  0.1096083E+00
          1   -1    0    0  501    0  0.00000000000E+00  0.00000000000E+00  0.20820233685E+04  0.20820233685E+04  0.50400000000E-02 0. -1.
         -1   -1    0    0    0  501 -0.00000000000E+00 -0.00000000000E+00 -0.39070811788E+02  0.39070812113E+02  0.50400000000E-02 0.  1.
         25    2    1    2    0    0  0.17021119605E+03 -0.18831283833E+03  0.77559396283E+03  0.82559376849E+03  0.12500199616E+03 0.  0.
         23    2    1    2    0    0 -0.17021119605E+03  0.18831283833E+03  0.12673585939E+04  0.12955004121E+04  0.87692280175E+02 0.  0.
        -11    1    4    4    0    0 -0.13201436244E+03  0.88324609142E+02  0.84435151826E+03  0.85916151849E+03  0.51100000000E-03 0.  1.
         11    1    4    4    0    0 -0.38196833610E+02  0.99988229189E+02  0.42300707561E+03  0.43633889362E+03  0.51100000000E-03 0. -1.
    9000005    1    3    3    0    0  0.13068346029E+03 -0.19161168883E+03  0.72560394160E+03  0.76177115077E+03  0.10000000000E+01 0.  0.
    9000005    1    3    3    0    0  0.39527735760E+02  0.32988504998E+01  0.49990021233E+02  0.63822617713E+02  0.10000000000E+01 0.  0.
<mgrwt>
<rscale>  0 0.27927919E+03</rscale>
<asrwt>0</asrwt>
<pdfrwt beam="1">  1        1 0.32031134E+00 0.28294712E+03</pdfrwt>
<pdfrwt beam="2">  1       -1 0.60108931E-02 0.28294712E+03</pdfrwt>
<totfact> 0.39678783E+02</totfact>
</mgrwt>
</event>
<event>
 8    2  0.1409546E-003  0.1340970E+03  0.7818608E-02  0.1233926E+00
         -1   -1    0    0    0  501 -0.00000000000E+00  0.00000000000E+00  0.24429176287E+02  0.24429176807E+02  0.50400000000E-02 0.  1.
          1   -1    0    0  501    0  0.00000000000E+00 -0.00000000000E+00 -0.61844745541E+03  0.61844745543E+03  0.50400000000E-02 0. -1.
         25    2    1    2    0    0 -0.25367868041E+02  0.41396825737E+02 -0.25145463868E+03  0.28497623127E+03  0.12499916466E+03 0.  0.
         23    2    1    2    0    0  0.25367868041E+02 -0.41396825737E+02 -0.34256364044E+03  0.35790040096E+03  0.91573049244E+02 0.  0.
        -11    1    4    4    0    0  0.12066658590E+01 -0.65663223089E+02 -0.17601933320E+03  0.18787208566E+03  0.51100000000E-03 0.  1.
         11    1    4    4    0    0  0.24161202182E+02  0.24266397351E+02 -0.16654430724E+03  0.17002831530E+03  0.51100000000E-03 0. -1.
    9000005    1    3    3    0    0  0.43876585212E+02  0.31912065770E+02 -0.58697519194E+02  0.79937059185E+02  0.10000000000E+01 0.  0.
    9000005    1    3    3    0    0 -0.69244453253E+02  0.94847599674E+01 -0.19275711948E+03  0.20503917209E+03  0.10000000000E+01 0.  0.
<mgrwt>
<rscale>  0 0.12573446E+03</rscale>
<asrwt>0</asrwt>
<pdfrwt beam="2">  1        1 0.95145751E-01 0.13409704E+03</pdfrwt>
<pdfrwt beam="1">  1       -1 0.37583353E-02 0.13409704E+03</pdfrwt>
<totfact> 0.87079131E+03</totfact>
</mgrwt>
</event>
<event>
 8    2  0.1409546E-003  0.1277586E+03  0.7818608E-02  0.1244750E+00
         -1   -1    0    0    0  501 -0.00000000000E+00  0.00000000000E+00  0.24076501803E+02  0.24076502331E+02  0.50400000000E-02 0.  1.
          1   -1    0    0  501    0  0.00000000000E+00 -0.00000000000E+00 -0.52231270413E+03  0.52231270415E+03  0.50400000000E-02 0. -1.
         25    2    1    2    0    0  0.24151398145E+02 -0.10597823322E+02 -0.29913683106E+03  0.32527695610E+03  0.12500660213E+03 0.  0.
         23    2    1    2    0    0 -0.24151398145E+02  0.10597823322E+02 -0.19909937126E+03  0.22111225038E+03  0.92490344052E+02 0.  0.
        -11    1    4    4    0    0  0.14127601042E+02 -0.26857708904E+01 -0.17146602488E+03  0.17206801029E+03  0.51100000000E-03 0. -1.
         11    1    4    4    0    0 -0.38278999187E+02  0.13283594212E+02 -0.27633346374E+02  0.49044240091E+02  0.51100000000E-03 0.  1.
    9000005    1    3    3    0    0 -0.43560269985E+02  0.11341822721E+02 -0.55565677358E+02  0.71516980948E+02  0.10000000000E+01 0.  0.
    9000005    1    3    3    0    0  0.67711668130E+02 -0.21939646042E+02 -0.24357115371E+03  0.25375997515E+03  0.10000000000E+01 0.  0.
<mgrwt>
<rscale>  0 0.11900376E+03</rscale>
<asrwt>0</asrwt>
<pdfrwt beam="2">  1        1 0.80355792E-01 0.12775858E+03</pdfrwt>
<pdfrwt beam="1">  1       -1 0.37040776E-02 0.12775858E+03</pdfrwt>
<totfact> 0.11119559E+04</totfact>
</mgrwt>
</event>
<event>
 8    2  0.1409546E-003  0.1976318E+03  0.7818608E-02  0.1156050E+00
         -1   -1    0    0    0  501 -0.00000000000E+00  0.00000000000E+00  0.65644992015E+02  0.65644992209E+02  0.50400000000E-02 0.  1.
          1   -1    0    0  501    0  0.00000000000E+00 -0.00000000000E+00 -0.54049403937E+03  0.54049403939E+03  0.50400000000E-02 0. -1.
         25    2    1    2    0    0  0.10794246838E+03  0.10854674285E+03 -0.23428787926E+03  0.30651126734E+03  0.12499749907E+03 0.  0.
         23    2    1    2    0    0 -0.10794246838E+03 -0.10854674285E+03 -0.24056116810E+03  0.29962776427E+03  0.92049712982E+02 0.  0.
        -11    1    4    4    0    0 -0.33814631345E+02 -0.79882906837E+02 -0.70027494110E+02  0.11148344285E+03  0.51100000000E-03 0.  1.
         11    1    4    4    0    0 -0.74127837031E+02 -0.28663836015E+02 -0.17053367399E+03  0.18814432142E+03  0.51100000000E-03 0. -1.
    9000005    1    3    3    0    0  0.12700606519E+03  0.12048014264E+03 -0.20986333256E+03  0.27329402429E+03  0.10000000000E+01 0.  0.
    9000005    1    3    3    0    0 -0.19063596810E+02 -0.11933399783E+02 -0.24424546703E+02  0.33217243043E+02  0.10000000000E+01 0.  0.
<mgrwt>
<rscale>  0 0.19269864E+03</rscale>
<asrwt>0</asrwt>
<pdfrwt beam="2">  1        1 0.83152926E-01 0.19763185E+03</pdfrwt>
<pdfrwt beam="1">  1       -1 0.10099230E-01 0.19763185E+03</pdfrwt>
<totfact> 0.24153081E+03</totfact>
</mgrwt>
</event>
<event>
 8    2  0.1409546E-003  0.1529202E+03  0.7818608E-02  0.1205607E+00
          1   -1    0    0  501    0  0.00000000000E+00  0.00000000000E+00  0.47129961888E+03  0.47129961891E+03  0.50400000000E-02 0.  1.
         -1   -1    0    0    0  501 -0.00000000000E+00 -0.00000000000E+00 -0.45519697103E+02  0.45519697382E+02  0.50400000000E-02 0. -1.
         25    2    1    2    0    0  0.45598802090E+02  0.75366326021E+02  0.15436176652E+03  0.21728356768E+03  0.12500103988E+03 0.  0.
         23    2    1    2    0    0 -0.45598802090E+02 -0.75366326021E+02  0.27141815526E+03  0.29953574861E+03  0.91074232583E+02 0.  0.
        -11    1    4    4    0    0  0.24506896924E+02 -0.26033436325E+02  0.45274673074E+02  0.57689893620E+02  0.51100000000E-03 0.  1.
         11    1    4    4    0    0 -0.70105699014E+02 -0.49332889696E+02  0.22614348219E+03  0.24184585499E+03  0.51100000000E-03 0. -1.
    9000005    1    3    3    0    0 -0.13891794784E+02  0.29468078705E+02  0.13610397807E+03  0.13995228641E+03  0.10000000000E+01 0.  0.
    9000005    1    3    3    0    0  0.59490596875E+02  0.45898247316E+02  0.18257788441E+02  0.77331281264E+02  0.10000000000E+01 0.  0.
<mgrwt>
<rscale>  0 0.14589691E+03</rscale>
<asrwt>0</asrwt>
<pdfrwt beam="1">  1        1 0.72507638E-01 0.15292022E+03</pdfrwt>
<pdfrwt beam="2">  1       -1 0.70030299E-02 0.15292022E+03</pdfrwt>
<totfact> 0.50024096E+03</totfact>
</mgrwt>
</event>
<event>
 8    2  0.1409546E-003  0.1323151E+03  0.7818608E-02  0.1237430E+00
         -1   -1    0    0    0  501 -0.00000000000E+00  0.00000000000E+00  0.41051254399E+02  0.41051254709E+02  0.50400000000E-02 0.  1.
          1   -1    0    0  501    0  0.00000000000E+00 -0.00000000000E+00 -0.38013029354E+03  0.38013029357E+03  0.50400000000E-02 0. -1.
         25    2    1    2    0    0 -0.37006223975E+02 -0.22636548276E+02 -0.26563060023E+03  0.29676068914E+03  0.12500166763E+03 0.  0.
         23    2    1    2    0    0  0.37006223975E+02  0.22636548276E+02 -0.73448438915E+02  0.12442085915E+03  0.90575952000E+02 0.  0.
        -11    1    4    4    0    0 -0.48289166949E+01  0.40220367453E+02 -0.67403327378E+02  0.78639716024E+02  0.51100000000E-03 0. -1.
         11    1    4    4    0    0  0.41835140670E+02 -0.17583819177E+02 -0.60451115379E+01  0.45781143121E+02  0.51100000000E-03 0.  1.
    9000005    1    3    3    0    0 -0.42721557659E+02 -0.44690674485E+02 -0.26685316606E+03  0.27392334715E+03  0.10000000000E+01 0.  0.
    9000005    1    3    3    0    0  0.57153336839E+01  0.22054126209E+02  0.12225658360E+01  0.22837341991E+02  0.10000000000E+01 0.  0.
<mgrwt>
<rscale>  0 0.12350124E+03</rscale>
<asrwt>0</asrwt>
<pdfrwt beam="2">  1        1 0.58481581E-01 0.13231512E+03</pdfrwt>
<pdfrwt beam="1">  1       -1 0.63155779E-02 0.13231512E+03</pdfrwt>
<totfact> 0.76125448E+03</totfact>
</mgrwt>
</event>
<event>
 8    2  0.1409546E-003  0.1568574E+03  0.7818608E-02  0.1200074E+00
          1   -1    0    0  501    0  0.00000000000E+00  0.00000000000E+00  0.26281719891E+03  0.26281719896E+03  0.50400000000E-02 0. -1.
         -1   -1    0    0    0  501 -0.00000000000E+00 -0.00000000000E+00 -0.79556090377E+02  0.79556090537E+02  0.50400000000E-02 0.  1.
         25    2    1    2    0    0 -0.49553590231E+02  0.80680881790E+02  0.97200150559E+02  0.18453216704E+03  0.12505714058E+03 0.  0.
         23    2    1    2    0    0  0.49553590231E+02 -0.80680881790E+02  0.86060957977E+02  0.15784112246E+03  0.92424934197E+02 0.  0.
        -11    1    4    4    0    0  0.87580563478E+00 -0.47444202376E+02  0.86766398595E+02  0.98894526138E+02  0.51100000000E-03 0. -1.
         11    1    4    4    0    0  0.48677784596E+02 -0.33236679415E+02 -0.70544061772E+00  0.58946596326E+02  0.51100000000E-03 0.  1.
    9000005    1    3    3    0    0 -0.89219310929E+02  0.34073231967E+02  0.55441253632E+02  0.11043461044E+03  0.10000000000E+01 0.  0.
    9000005    1    3    3    0    0  0.39665720698E+02  0.46607649824E+02  0.41758896927E+02  0.74097556594E+02  0.10000000000E+01 0.  0.
<mgrwt>
<rscale>  0 0.15032503E+03</rscale>
<asrwt>0</asrwt>
<pdfrwt beam="1">  1        1 0.40433416E-01 0.15685742E+03</pdfrwt>
<pdfrwt beam="2">  1       -1 0.12239398E-01 0.15685742E+03</pdfrwt>
<totfact> 0.44551718E+03</totfact>
</mgrwt>
</event>
<event>
 8    2  0.1409546E-003  0.1499743E+03  0.7818608E-02  0.1210189E+00
         -1   -1    0    0    0  501 -0.00000000000E+00  0.00000000000E+00  0.51988322346E+03  0.51988322349E+03  0.50400000000E-02 0.  1.
          1   -1    0    0  501    0  0.00000000000E+00 -0.00000000000E+00 -0.38526257376E+02  0.38526257706E+02  0.50400000000E-02 0. -1.
         25    2    1    2    0    0 -0.50503100193E+02 -0.65698643423E+02  0.18593752220E+03  0.23888293899E+03  0.12500168599E+03 0.  0.
         23    2    1    2    0    0  0.50503100193E+02  0.65698643423E+02  0.29541944388E+03  0.31952654220E+03  0.89205876886E+02 0.  0.
        -11    1    4    4    0    0 -0.11719018002E+02  0.50020940198E+02  0.18309164214E+03  0.19016303338E+03  0.51100000000E-03 0. -1.
         11    1    4    4    0    0  0.62222118195E+02  0.15677703225E+02  0.11232780174E+03  0.12936350883E+03  0.51100000000E-03 0.  1.
    9000005    1    3    3    0    0 -0.85230088160E+02 -0.52787306858E+02  0.85291075765E+02  0.13162915824E+03  0.10000000000E+01 0.  0.
    9000005    1    3    3    0    0  0.34726987967E+02 -0.12911336565E+02  0.10064644644E+03  0.10725378075E+03  0.10000000000E+01 0.  0.
<mgrwt>
<rscale>  0 0.14235916E+03</rscale>
<asrwt>0</asrwt>
<pdfrwt beam="2">  1        1 0.59271169E-02 0.14997432E+03</pdfrwt>
<pdfrwt beam="1">  1       -1 0.79982029E-01 0.14997432E+03</pdfrwt>
<totfact> 0.20912820E+03</totfact>
</mgrwt>
</event>
<event>
 8    2  0.1409546E-003  0.1368574E+03  0.7818608E-02  0.1233214E+00
          1   -1    0    0  501    0  0.00000000000E+00  0.00000000000E+00  0.85046834580E+03  0.85046834581E+03  0.50400000000E-02 0. -1.
         -1   -1    0    0    0  501 -0.00000000000E+00 -0.00000000000E+00 -0.16611518794E+02  0.16611519558E+02  0.50400000000E-02 0.  1.
         25    2    1    2    0    0 -0.55251073678E+02  0.73393478538E+01  0.53725812061E+03  0.55441520977E+03  0.12499355781E+03 0.  0.
         23    2    1    2    0    0  0.55251073678E+02 -0.73393478538E+01  0.29659870640E+03  0.31266465560E+03  0.81742565762E+02 0.  0.
        -11    1    4    4    0    0 -0.42585484838E+01 -0.13517958949E+02  0.50582814327E+01  0.15048477021E+02  0.51100000000E-03 0.  1.
         11    1    4    4    0    0  0.59509622162E+02  0.61786110955E+01  0.29154042496E+03  0.29761617858E+03  0.51100000000E-03 0. -1.
    9000005    1    3    3    0    0 -0.60631939844E+02  0.47668212422E+02  0.46611203192E+03  0.47245096773E+03  0.10000000000E+01 0.  0.
    9000005    1    3    3    0    0  0.53808661662E+01 -0.40328864568E+02  0.71146088689E+02  0.81964242044E+02  0.10000000000E+01 0.  0.
<mgrwt>
<rscale>  0 0.12619439E+03</rscale>
<asrwt>0</asrwt>
<pdfrwt beam="1">  1        1 0.13084133E+00 0.13685736E+03</pdfrwt>
<pdfrwt beam="2">  1       -1 0.25556174E-02 0.13685736E+03</pdfrwt>
<totfact> 0.96309378E+03</totfact>
</mgrwt>
</event>
<event>
 8    2  0.1409546E-003  0.1453778E+03  0.7818608E-02  0.1216583E+00
          1   -1    0    0  501    0  0.00000000000E+00  0.00000000000E+00  0.12694788122E+04  0.12694788122E+04  0.50400000000E-02 0. -1.
         -1   -1    0    0    0  501 -0.00000000000E+00 -0.00000000000E+00 -0.13543321899E+02  0.13543322837E+02  0.50400000000E-02 0.  1.
         25    2    1    2    0    0 -0.72438009631E+02  0.16194223248E+02  0.71881815771E+03  0.73337183696E+03  0.12500075713E+03 0.  0.
         23    2    1    2    0    0  0.72438009631E+02 -0.16194223248E+02  0.53711733260E+03  0.54965029810E+03  0.90060552483E+02 0.  0.
        -11    1    4    4    0    0  0.20414496113E+02  0.16959241104E+02  0.37895230903E+03  0.37988053389E+03  0.51100000000E-03 0. -1.
         11    1    4    4    0    0  0.52023513519E+02 -0.33153464351E+02  0.15816502357E+03  0.16976976420E+03  0.51100000000E-03 0.  1.
    9000005    1    3    3    0    0 -0.47023562466E+02  0.28177418346E+02  0.69310798315E+03  0.69527322589E+03  0.10000000000E+01 0.  0.
    9000005    1    3    3    0    0 -0.25414447166E+02 -0.11983195098E+02  0.25710174561E+02  0.38098611070E+02  0.10000000000E+01 0.  0.
<mgrwt>
<rscale>  0 0.13760918E+03</rscale>
<asrwt>0</asrwt>
<pdfrwt beam="1">  1        1 0.19530448E+00 0.14537781E+03</pdfrwt>
<pdfrwt beam="2">  1       -1 0.20835875E-02 0.14537781E+03</pdfrwt>
<totfact> 0.64743303E+03</totfact>
</mgrwt>
</event>
<event>
 8    2  0.1409546E-003  0.1911892E+03  0.7818608E-02  0.1159262E+00
          1   -1    0    0  501    0  0.00000000000E+00  0.00000000000E+00  0.25396048175E+03  0.25396048180E+03  0.50400000000E-02 0. -1.
         -1   -1    0    0    0  501 -0.00000000000E+00 -0.00000000000E+00 -0.21300164174E+03  0.21300164180E+03  0.50400000000E-02 0.  1.
         25    2    1    2    0    0  0.72146300053E+02  0.12539152882E+03  0.15942995916E+03  0.24894020668E+03  0.12500076205E+03 0.  0.
         23    2    1    2    0    0 -0.72146300053E+02 -0.12539152882E+03 -0.11847111916E+03  0.21802191692E+03  0.11211612763E+03 0.  0.
        -11    1    4    4    0    0 -0.89292674431E+02 -0.45480793936E+02 -0.53376914302E+02  0.11353756781E+03  0.51100000000E-03 0.  1.
         11    1    4    4    0    0  0.17146374379E+02 -0.79910734881E+02 -0.65094204854E+02  0.10448434911E+03  0.51100000000E-03 0. -1.
    9000005    1    3    3    0    0  0.47207917517E+02  0.27803667243E+02 -0.61376128889E+01  0.55138930715E+02  0.10000000000E+01 0.  0.
    9000005    1    3    3    0    0  0.24938382536E+02  0.97587861574E+02  0.16556757205E+03  0.19380127596E+03  0.10000000000E+01 0.  0.
<mgrwt>
<rscale>  0 0.18911464E+03</rscale>
<asrwt>0</asrwt>
<pdfrwt beam="1">  1        1 0.39070843E-01 0.19118921E+03</pdfrwt>
<pdfrwt beam="2">  1       -1 0.32769484E-01 0.19118921E+03</pdfrwt>
<totfact> 0.94797959E+02</totfact>
</mgrwt>
</event>
<event>
 8    2  0.1409546E-003  0.1528862E+03  0.7818608E-02  0.1205024E+00
          1   -1    0    0  501    0  0.00000000000E+00  0.00000000000E+00  0.58593700820E+03  0.58593700822E+03  0.50400000000E-02 0. -1.
         -1   -1    0    0    0  501 -0.00000000000E+00 -0.00000000000E+00 -0.34352972367E+02  0.34352972737E+02  0.50400000000E-02 0.  1.
         25    2    1    2    0    0 -0.31813050898E+02  0.82077561415E+02  0.34010660588E+03  0.37288963647E+03  0.12500152531E+03 0.  0.
         23    2    1    2    0    0  0.31813050898E+02 -0.82077561415E+02  0.21147742996E+03  0.24740034449E+03  0.93463526453E+02 0.  0.
        -11    1    4    4    0    0 -0.29174719957E+02 -0.48487548265E+02  0.11774735192E+03  0.13063937195E+03  0.51100000000E-03 0.  1.
         11    1    4    4    0    0  0.60987770855E+02 -0.33590013151E+02  0.93730078043E+02  0.11676097254E+03  0.51100000000E-03 0. -1.
    9000005    1    3    3    0    0 -0.34801922237E+02  0.72832582750E+02  0.83660674527E+02  0.11625776260E+03  0.10000000000E+01 0.  0.
    9000005    1    3    3    0    0  0.29888713388E+01  0.92449786651E+01  0.25644593135E+03  0.25663187387E+03  0.10000000000E+01 0.  0.
<mgrwt>
<rscale>  0 0.14635572E+03</rscale>
<asrwt>0</asrwt>
<pdfrwt beam="1">  1        1 0.90144151E-01 0.15288616E+03</pdfrwt>
<pdfrwt beam="2">  1       -1 0.52850730E-02 0.15288616E+03</pdfrwt>
<totfact> 0.57107926E+03</totfact>
</mgrwt>
</event>
<event>
 8    2  0.1409546E-003  0.1532989E+03  0.7818608E-02  0.1205361E+00
          1   -1    0    0  501    0  0.00000000000E+00  0.00000000000E+00  0.89256220422E+02  0.89256220564E+02  0.50400000000E-02 0. -1.
         -1   -1    0    0    0  501 -0.00000000000E+00 -0.00000000000E+00 -0.22088695040E+03  0.22088695045E+03  0.50400000000E-02 0.  1.
         25    2    1    2    0    0  0.49060545996E+01 -0.88606599635E+02 -0.58501382107E+02  0.16408218239E+03  0.12500140799E+03 0.  0.
         23    2    1    2    0    0 -0.49060545996E+01  0.88606599635E+02 -0.73129347868E+02  0.14606098863E+03  0.90059491494E+02 0.  0.
        -11    1    4    4    0    0 -0.10295886641E+02  0.99639634953E+02 -0.83171658446E+02  0.13019825999E+03  0.51100000000E-03 0.  1.
         11    1    4    4    0    0  0.53898320415E+01 -0.11033035318E+02  0.10042310579E+02  0.15862728636E+02  0.51100000000E-03 0. -1.
    9000005    1    3    3    0    0  0.46292245453E+02  0.10154170066E-01  0.63349956827E+01  0.46734401275E+02  0.10000000000E+01 0.  0.
    9000005    1    3    3    0    0 -0.41386190854E+02 -0.88616753805E+02 -0.64836377790E+02  0.11734778112E+03  0.10000000000E+01 0.  0.
<mgrwt>
<rscale>  0 0.14609032E+03</rscale>
<asrwt>0</asrwt>
<pdfrwt beam="1">  1        1 0.13731726E-01 0.15329889E+03</pdfrwt>
<pdfrwt beam="2">  1       -1 0.33982608E-01 0.15329889E+03</pdfrwt>
<totfact> 0.33432075E+03</totfact>
</mgrwt>
</event>
<event>
 8    2  0.1409546E-003  0.1250023E+03  0.7818608E-02  0.1251824E+00
         -1   -1    0    0    0  501 -0.00000000000E+00  0.00000000000E+00  0.39219142769E+02  0.39219143092E+02  0.50400000000E-02 0.  1.
          1   -1    0    0  501    0  0.00000000000E+00 -0.00000000000E+00 -0.29687152798E+03  0.29687152802E+03  0.50400000000E-02 0. -1.
         25    2    1    2    0    0 -0.62377568739E+00  0.57855730450E+00 -0.17079060960E+03  0.21164829874E+03  0.12499938484E+03 0.  0.
         23    2    1    2    0    0  0.62377568739E+00 -0.57855730450E+00 -0.86861775614E+02  0.12444237237E+03  0.89107868078E+02 0.  0.
        -11    1    4    4    0    0 -0.30127118974E+02  0.24317515617E+02 -0.72795111246E+02  0.82450670616E+02  0.51100000000E-03 0. -1.
         11    1    4    4    0    0  0.30750894662E+02 -0.24896072921E+02 -0.14066664367E+02  0.41991701753E+02  0.51100000000E-03 0.  1.
    9000005    1    3    3    0    0 -0.30462183114E+02 -0.11389754951E+02 -0.17607175146E+03  0.17905287705E+03  0.10000000000E+01 0.  0.
    9000005    1    3    3    0    0  0.29838407427E+02  0.11968312255E+02  0.52811418645E+01  0.32595421694E+02  0.10000000000E+01 0.  0.
<mgrwt>
<rscale>  0 0.11486095E+03</rscale>
<asrwt>0</asrwt>
<pdfrwt beam="2">  1        1 0.45672542E-01 0.12500228E+03</pdfrwt>
<pdfrwt beam="1">  1       -1 0.60337145E-02 0.12500228E+03</pdfrwt>
<totfact> 0.11031224E+04</totfact>
</mgrwt>
</event>
<event>
 8    2  0.1409546E-003  0.1478143E+03  0.7818608E-02  0.1212779E+00
          1   -1    0    0  501    0  0.00000000000E+00  0.00000000000E+00  0.14094887096E+03  0.14094887105E+03  0.50400000000E-02 0. -1.
         -1   -1    0    0    0  501 -0.00000000000E+00 -0.00000000000E+00 -0.13154412567E+03  0.13154412577E+03  0.50400000000E-02 0.  1.
         25    2    1    2    0    0  0.78603489586E+02  0.67718801875E+01  0.28799396959E+02  0.15059369746E+03  0.12499875804E+03 0.  0.
         23    2    1    2    0    0 -0.78603489586E+02 -0.67718801875E+01 -0.19394651671E+02  0.12189929936E+03  0.90878598881E+02 0.  0.
        -11    1    4    4    0    0  0.16576336788E+01  0.20859799255E+01 -0.38767903612E+02  0.38859354246E+02  0.51100000000E-03 0.  1.
         11    1    4    4    0    0 -0.80261123265E+02 -0.88578601130E+01  0.19373251941E+02  0.83039945114E+02  0.51100000000E-03 0. -1.
    9000005    1    3    3    0    0 -0.23092358329E+02  0.30912170111E+02 -0.86598228991E+01  0.39557702244E+02  0.10000000000E+01 0.  0.
    9000005    1    3    3    0    0  0.10169584792E+03 -0.24140289923E+02  0.37459219858E+02  0.11103599521E+03  0.10000000000E+01 0.  0.
<mgrwt>
<rscale>  0 0.14040923E+03</rscale>
<asrwt>0</asrwt>
<pdfrwt beam="1">  1        1 0.21684442E-01 0.14781426E+03</pdfrwt>
<pdfrwt beam="2">  1       -1 0.20237558E-01 0.14781426E+03</pdfrwt>
<totfact> 0.43774341E+03</totfact>
</mgrwt>
</event>
<event>
 8    2  0.1409546E-003  0.1476174E+03  0.7818608E-02  0.1212631E+00
          1   -1    0    0  501    0  0.00000000000E+00  0.00000000000E+00  0.23997602389E+04  0.23997602389E+04  0.50400000000E-02 0. -1.
         -1   -1    0    0    0  501 -0.00000000000E+00 -0.00000000000E+00 -0.76742676039E+01  0.76742692589E+01  0.50400000000E-02 0.  1.
         25    2    1    2    0    0 -0.48150128877E+02 -0.62013262784E+02  0.11463436296E+04  0.11558090762E+04  0.12500729462E+03 0.  0.
         23    2    1    2    0    0  0.48150128877E+02  0.62013262784E+02  0.12457423416E+04  0.12516254319E+04  0.92348040064E+02 0.  0.
        -11    1    4    4    0    0  0.11383871976E+02  0.63369645671E+02  0.40563490640E+03  0.41071277290E+03  0.51100000000E-03 0.  1.
         11    1    4    4    0    0  0.36766256901E+02 -0.13563828870E+01  0.84010743521E+03  0.84091265903E+03  0.51100000000E-03 0. -1.
    9000005    1    3    3    0    0 -0.70529884297E+02  0.93925077042E+01  0.64441519329E+03  0.64833218733E+03  0.10000000000E+01 0.  0.
    9000005    1    3    3    0    0  0.22379755420E+02 -0.71405770488E+02  0.50192843635E+03  0.50747688886E+03  0.10000000000E+01 0.  0.
<mgrwt>
<rscale>  0 0.14052035E+03</rscale>
<asrwt>0</asrwt>
<pdfrwt beam="1">  1        1 0.36919338E+00 0.14761742E+03</pdfrwt>
<pdfrwt beam="2">  1       -1 0.11806583E-02 0.14761742E+03</pdfrwt>
<totfact> 0.27364250E+03</totfact>
</mgrwt>
</event>
<event>
 8    2  0.1409546E-003  0.1357028E+03  0.7818608E-02  0.1231182E+00
          1   -1    0    0  501    0  0.00000000000E+00  0.00000000000E+00  0.51497431491E+03  0.51497431494E+03  0.50400000000E-02 0. -1.
         -1   -1    0    0    0  501 -0.00000000000E+00 -0.00000000000E+00 -0.34543567083E+02  0.34543567450E+02  0.50400000000E-02 0.  1.
         25    2    1    2    0    0 -0.12240828037E+02 -0.51389806313E+02  0.14867199065E+03  0.20129235681E+03  0.12499800815E+03 0.  0.
         23    2    1    2    0    0  0.12240828037E+02  0.51389806313E+02  0.33175875718E+03  0.34822552558E+03  0.91686387394E+02 0.  0.
        -11    1    4    4    0    0 -0.31616439376E+01  0.41046007602E+02  0.32629861127E+03  0.32888532113E+03  0.51100000000E-03 0. -1.
         11    1    4    4    0    0  0.15402471974E+02  0.10343798711E+02  0.54601459092E+01  0.19340204454E+02  0.51100000000E-03 0.  1.
    9000005    1    3    3    0    0 -0.50457900612E+02 -0.54892160090E+02  0.14459086618E+03  0.16268579396E+03  0.10000000000E+01 0.  0.
    9000005    1    3    3    0    0  0.38217072575E+02  0.35023537765E+01  0.40811244681E+01  0.38606562850E+02  0.10000000000E+01 0.  0.
<mgrwt>
<rscale>  0 0.12752051E+03</rscale>
<asrwt>0</asrwt>
<pdfrwt beam="1">  1        1 0.79226809E-01 0.13570281E+03</pdfrwt>
<pdfrwt beam="2">  1       -1 0.53143955E-02 0.13570281E+03</pdfrwt>
<totfact> 0.66849481E+03</totfact>
</mgrwt>
</event>
<event>
 8    2  0.1409546E-003  0.1351338E+03  0.7818608E-02  0.1233915E+00
         -1   -1    0    0    0  501 -0.00000000000E+00  0.00000000000E+00  0.10867298987E+03  0.10867298999E+03  0.50400000000E-02 0.  1.
          1   -1    0    0  501    0  0.00000000000E+00 -0.00000000000E+00 -0.32962272762E+03  0.32962272766E+03  0.50400000000E-02 0. -1.
         25    2    1    2    0    0  0.20584156395E+01 -0.51292787534E+02  0.53811777359E+02  0.14545395090E+03  0.12500382923E+03 0.  0.
         23    2    1    2    0    0 -0.20584156395E+01  0.51292787534E+02 -0.27476151510E+03  0.29284176674E+03  0.87333974140E+02 0.  0.
        -11    1    4    4    0    0  0.21046300549E+02 -0.17416479558E+02 -0.99462448046E+02  0.10314581474E+03  0.51100000000E-03 0.  1.
         11    1    4    4    0    0 -0.23104716189E+02  0.68709267091E+02 -0.17529906706E+03  0.18969595200E+03  0.51100000000E-03 0. -1.
    9000005    1    3    3    0    0 -0.51128169611E+01  0.19759889032E+02 -0.29393989985E+02  0.35799451938E+02  0.10000000000E+01 0.  0.
    9000005    1    3    3    0    0  0.71712326006E+01 -0.71052676565E+02  0.83205767344E+02  0.10965449897E+03  0.10000000000E+01 0.  0.
<mgrwt>
<rscale>  0 0.12574165E+03</rscale>
<asrwt>0</asrwt>
<pdfrwt beam="2">  1        1 0.50711188E-01 0.13513380E+03</pdfrwt>
<pdfrwt beam="1">  1       -1 0.16718922E-01 0.13513380E+03</pdfrwt>
<totfact> 0.20517141E+03</totfact>
</mgrwt>
</event>
<event>
 8    2  0.1409546E-003  0.1376633E+03  0.7818608E-02  0.1227768E+00
         -1   -1    0    0    0  501 -0.00000000000E+00  0.00000000000E+00  0.10424099275E+03  0.10424099287E+03  0.50400000000E-02 0.  1.
          1   -1    0    0  501    0  0.00000000000E+00 -0.00000000000E+00 -0.14610401178E+03  0.14610401187E+03  0.50400000000E-02 0. -1.
         25    2    1    2    0    0 -0.57594809922E+02  0.31224620326E+01 -0.16419857341E+02  0.13863909548E+03  0.12499710069E+03 0.  0.
         23    2    1    2    0    0  0.57594809922E+02 -0.31224620326E+01 -0.25443161694E+02  0.11170590927E+03  0.92216830290E+02 0.  0.
        -11    1    4    4    0    0  0.17022546141E+02  0.37361450232E+02 -0.34564942038E+02  0.53669174196E+02  0.51100000000E-03 0. -1.
         11    1    4    4    0    0  0.40572263782E+02 -0.40483912265E+02  0.91217803438E+01  0.58036735070E+02  0.51100000000E-03 0.  1.
    9000005    1    3    3    0    0  0.14199077285E+02  0.49703510973E+02 -0.11147735401E+02  0.52889741949E+02  0.10000000000E+01 0.  0.
    9000005    1    3    3    0    0 -0.71793887207E+02 -0.46581048941E+02 -0.52721219391E+01  0.85749353528E+02  0.10000000000E+01 0.  0.
<mgrwt>
<rscale>  0 0.12978983E+03</rscale>
<asrwt>0</asrwt>
<pdfrwt beam="2">  1        1 0.22477540E-01 0.13766331E+03</pdfrwt>
<pdfrwt beam="1">  1       -1 0.16037076E-01 0.13766331E+03</pdfrwt>
<totfact> 0.60325047E+03</totfact>
</mgrwt>
</event>
<event>
 8    2  0.1409546E-003  0.1370030E+03  0.7818608E-02  0.1229248E+00
         -1   -1    0    0    0  501 -0.00000000000E+00  0.00000000000E+00  0.19203011105E+02  0.19203011766E+02  0.50400000000E-02 0.  1.
          1   -1    0    0  501    0  0.00000000000E+00 -0.00000000000E+00 -0.81302516318E+03  0.81302516319E+03  0.50400000000E-02 0. -1.
         25    2    1    2    0    0  0.13126653074E+01  0.56059351119E+02 -0.53246886725E+03  0.54981170917E+03  0.12500178804E+03 0.  0.
         23    2    1    2    0    0 -0.13126653074E+01 -0.56059351119E+02 -0.26135328482E+03  0.28241646579E+03  0.91154521127E+02 0.  0.
        -11    1    4    4    0    0 -0.22126116806E+02 -0.32785058212E+02 -0.24300132674E+03  0.24619924834E+03  0.51100000000E-03 0. -1.
         11    1    4    4    0    0  0.20813451499E+02 -0.23274292907E+02 -0.18351958081E+02  0.36217217442E+02  0.51100000000E-03 0.  1.
    9000005    1    3    3    0    0  0.52828320373E+02  0.77615413900E+00 -0.31930662014E+03  0.32364973585E+03  0.10000000000E+01 0.  0.
    9000005    1    3    3    0    0 -0.51515655065E+02  0.55283196980E+02 -0.21316224711E+03  0.22616197332E+03  0.10000000000E+01 0.  0.
<mgrwt>
<rscale>  0 0.12879972E+03</rscale>
<asrwt>0</asrwt>
<pdfrwt beam="2">  1        1 0.12508077E+00 0.13700300E+03</pdfrwt>
<pdfrwt beam="1">  1       -1 0.29543101E-02 0.13700300E+03</pdfrwt>
<totfact> 0.83597167E+03</totfact>
</mgrwt>
</event>
<event>
 8    2  0.1409546E-003  0.1459069E+03  0.7818608E-02  0.1215659E+00
         -1   -1    0    0    0  501 -0.00000000000E+00  0.00000000000E+00  0.17531486375E+04  0.17531486375E+04  0.50400000000E-02 0.  1.
          1   -1    0    0  501    0  0.00000000000E+00 -0.00000000000E+00 -0.10469585849E+02  0.10469587062E+02  0.50400000000E-02 0. -1.
         25    2    1    2    0    0  0.72433883400E+02 -0.20421752423E+02  0.11622271885E+04  0.11713500147E+04  0.12500041501E+03 0.  0.
         23    2    1    2    0    0 -0.72433883400E+02  0.20421752423E+02  0.58045186309E+03  0.59226820983E+03  0.90518238931E+02 0.  0.
        -11    1    4    4    0    0 -0.14961158805E+02  0.11168927918E+02  0.43777206537E+03  0.43817001546E+03  0.51100000000E-03 0.  1.
         11    1    4    4    0    0 -0.57472724595E+02  0.92528245051E+01  0.14267979771E+03  0.15409819438E+03  0.51100000000E-03 0. -1.
    9000005    1    3    3    0    0 -0.19503785998E+02  0.23880271774E+02  0.53367411342E+03  0.53456498612E+03  0.10000000000E+01 0.  0.
    9000005    1    3    3    0    0  0.91937669398E+02 -0.44302024197E+02  0.62855307512E+03  0.63678502860E+03  0.10000000000E+01 0.  0.
<mgrwt>
<rscale>  0 0.13828228E+03</rscale>
<asrwt>0</asrwt>
<pdfrwt beam="2">  1        1 0.16107042E-02 0.14590689E+03</pdfrwt>
<pdfrwt beam="1">  1       -1 0.26971540E+00 0.14590689E+03</pdfrwt>
<totfact> 0.48823183E+02</totfact>
</mgrwt>
</event>
<event>
 8    2  0.1409546E-003  0.1327992E+03  0.7818608E-02  0.1236200E+00
         -1   -1    0    0    0  501 -0.00000000000E+00  0.00000000000E+00  0.42879788999E+03  0.42879789002E+03  0.50400000000E-02 0.  1.
          1   -1    0    0  501    0  0.00000000000E+00 -0.00000000000E+00 -0.32105637567E+02  0.32105637962E+02  0.50400000000E-02 0. -1.
         25    2    1    2    0    0 -0.15246173050E+02 -0.42162384479E+02  0.22568260883E+03  0.26185544515E+03  0.12500208706E+03 0.  0.
         23    2    1    2    0    0  0.15246173050E+02  0.42162384479E+02  0.17100964360E+03  0.19904808283E+03  0.91464357095E+02 0.  0.
        -11    1    4    4    0    0 -0.19022488578E+02 -0.21992069328E+02  0.51721925321E+02  0.59335181336E+02  0.51100000000E-03 0.  1.
         11    1    4    4    0    0  0.34268661628E+02  0.64154453807E+02  0.11928771828E+03  0.13971290150E+03  0.51100000000E-03 0. -1.
    9000005    1    3    3    0    0 -0.38209414665E+02  0.53988545933E+01  0.19893481938E+03  0.20264542769E+03  0.10000000000E+01 0.  0.
    9000005    1    3    3    0    0  0.22963241615E+02 -0.47561239072E+02  0.26747789445E+02  0.59210017461E+02  0.10000000000E+01 0.  0.
<mgrwt>
<rscale>  0 0.12427952E+03</rscale>
<asrwt>0</asrwt>
<pdfrwt beam="2">  1        1 0.49393292E-02 0.13279923E+03</pdfrwt>
<pdfrwt beam="1">  1       -1 0.65968901E-01 0.13279923E+03</pdfrwt>
<totfact> 0.39130331E+03</totfact>
</mgrwt>
</event>
<event>
 8    2  0.1409546E-003  0.1288158E+03  0.7818608E-02  0.1242610E+00
          1   -1    0    0  501    0  0.00000000000E+00  0.00000000000E+00  0.91393578345E+03  0.91393578347E+03  0.50400000000E-02 0. -1.
         -1   -1    0    0    0  501 -0.00000000000E+00 -0.00000000000E+00 -0.15587653320E+02  0.15587654134E+02  0.50400000000E-02 0.  1.
         25    2    1    2    0    0  0.12650605307E+02 -0.28463932743E+02  0.36045063062E+03  0.38277690407E+03  0.12499307137E+03 0.  0.
         23    2    1    2    0    0 -0.12650605307E+02  0.28463932743E+02  0.53789749951E+03  0.54674653353E+03  0.92886052069E+02 0.  0.
        -11    1    4    4    0    0 -0.37876074457E+02  0.17947171801E+01  0.44857643746E+03  0.45017623023E+03  0.51100000000E-03 0. -1.
         11    1    4    4    0    0  0.25225469150E+02  0.26669215563E+02  0.89321062052E+02  0.96570303298E+02  0.51100000000E-03 0.  1.
    9000005    1    3    3    0    0 -0.31927095833E+02 -0.56365301440E+02  0.11730384528E+03  0.13400589081E+03  0.10000000000E+01 0.  0.
    9000005    1    3    3    0    0  0.44577701140E+02  0.27901368697E+02  0.24314678534E+03  0.24877101326E+03  0.10000000000E+01 0.  0.
<mgrwt>
<rscale>  0 0.12029557E+03</rscale>
<asrwt>0</asrwt>
<pdfrwt beam="1">  1        1 0.14060552E+00 0.12881576E+03</pdfrwt>
<pdfrwt beam="2">  1       -1 0.23981004E-02 0.12881576E+03</pdfrwt>
<totfact> 0.93948540E+03</totfact>
</mgrwt>
</event>
<event>
 8    2  0.1409546E-003  0.1268841E+03  0.7818608E-02  0.1247722E+00
          1   -1    0    0  501    0  0.00000000000E+00  0.00000000000E+00  0.71612312609E+03  0.71612312610E+03  0.50400000000E-02 0. -1.
         -1   -1    0    0    0  501 -0.00000000000E+00 -0.00000000000E+00 -0.19726068606E+02  0.19726069249E+02  0.50400000000E-02 0.  1.
         25    2    1    2    0    0  0.34943958956E+01  0.21504882441E+02  0.25448404028E+03  0.28436192145E+03  0.12499961938E+03 0.  0.
         23    2    1    2    0    0 -0.34943958956E+01 -0.21504882441E+02  0.44191301720E+03  0.45148727390E+03  0.89883107132E+02 0.  0.
        -11    1    4    4    0    0  0.34510810254E+02  0.50828842569E+01  0.89879962540E+02  0.96411821906E+02  0.51100000000E-03 0. -1.
         11    1    4    4    0    0 -0.38005206149E+02 -0.26587766698E+02  0.35203305466E+03  0.35507545199E+03  0.51100000000E-03 0.  1.
    9000005    1    3    3    0    0 -0.34221285176E+02 -0.39966091886E+02  0.13366819247E+03  0.14365434396E+03  0.10000000000E+01 0.  0.
    9000005    1    3    3    0    0  0.37715681072E+02  0.61470974328E+02  0.12081584781E+03  0.14070757750E+03  0.10000000000E+01 0.  0.
<mgrwt>
<rscale>  0 0.11723959E+03</rscale>
<asrwt>0</asrwt>
<pdfrwt beam="1">  1        1 0.11017279E+00 0.12688410E+03</pdfrwt>
<pdfrwt beam="2">  1       -1 0.30347799E-02 0.12688410E+03</pdfrwt>
<totfact> 0.96497056E+03</totfact>
</mgrwt>
</event>
<event>
 8    2  0.1409546E-003  0.1326705E+03  0.7818608E-02  0.1236445E+00
          1   -1    0    0  501    0  0.00000000000E+00  0.00000000000E+00  0.59796064628E+03  0.59796064630E+03  0.50400000000E-02 0. -1.
         -1   -1    0    0    0  501 -0.00000000000E+00 -0.00000000000E+00 -0.23489385718E+02  0.23489386259E+02  0.50400000000E-02 0.  1.
         25    2    1    2    0    0 -0.42507720414E+01 -0.44249541177E+02  0.37085378252E+03  0.39387053066E+03  0.12500150381E+03 0.  0.
         23    2    1    2    0    0  0.42507720414E+01  0.44249541177E+02  0.20361747804E+03  0.22757950190E+03  0.91412588651E+02 0.  0.
        -11    1    4    4    0    0 -0.25834404554E+02  0.60026154142E+02  0.10948704823E+03  0.12750674245E+03  0.51100000000E-03 0.  1.
         11    1    4    4    0    0  0.30085176595E+02 -0.15776612965E+02  0.94130429806E+02  0.10007275945E+03  0.51100000000E-03 0. -1.
    9000005    1    3    3    0    0  0.14364019955E+02 -0.77209701398E+02  0.14538089626E+03  0.16524003164E+03  0.10000000000E+01 0.  0.
    9000005    1    3    3    0    0 -0.18614791996E+02  0.32960160222E+02  0.22547288627E+03  0.22863049903E+03  0.10000000000E+01 0.  0.
<mgrwt>
<rscale>  0 0.12412399E+03</rscale>
<asrwt>0</asrwt>
<pdfrwt beam="1">  1        1 0.91993963E-01 0.13267052E+03</pdfrwt>
<pdfrwt beam="2">  1       -1 0.36137510E-02 0.13267052E+03</pdfrwt>
<totfact> 0.96501328E+03</totfact>
</mgrwt>
</event>
<event>
 8    2  0.1409546E-003  0.2184807E+03  0.7818608E-02  0.1138204E+00
          1   -1    0    0  501    0  0.00000000000E+00  0.00000000000E+00  0.24196808454E+03  0.24196808460E+03  0.50400000000E-02 0. -1.
         -1   -1    0    0    0  501 -0.00000000000E+00 -0.00000000000E+00 -0.20602152249E+03  0.20602152256E+03  0.50400000000E-02 0.  1.
         25    2    1    2    0    0  0.17378924381E+03 -0.43657540013E+02  0.93611906510E+02  0.23769097857E+03  0.12500052075E+03 0.  0.
         23    2    1    2    0    0 -0.17378924381E+03  0.43657540013E+02 -0.57665344461E+02  0.21029862859E+03  0.93763207980E+02 0.  0.
        -11    1    4    4    0    0 -0.12846171205E+03  0.27508597357E+02  0.47844720329E+01  0.13146111807E+03  0.51100000000E-03 0. -1.
         11    1    4    4    0    0 -0.45327531758E+02  0.16148942656E+02 -0.62449816494E+02  0.78837510518E+02  0.51100000000E-03 0.  1.
    9000005    1    3    3    0    0  0.16781914834E+03 -0.49195413481E+02  0.11865560899E+03  0.21133766537E+03  0.10000000000E+01 0.  0.
    9000005    1    3    3    0    0  0.59700954638E+01  0.55378734684E+01 -0.25043702483E+02  0.26353313197E+02  0.10000000000E+01 0.  0.
<mgrwt>
<rscale>  0 0.21430164E+03</rscale>
<asrwt>0</asrwt>
<pdfrwt beam="1">  1        1 0.37225859E-01 0.21848069E+03</pdfrwt>
<pdfrwt beam="2">  1       -1 0.31695619E-01 0.21848069E+03</pdfrwt>
<totfact> 0.10680225E+03</totfact>
</mgrwt>
</event>
<event>
 8    2  0.1409546E-003  0.1358329E+03  0.7818608E-02  0.1233787E+00
          1   -1    0    0  501    0  0.00000000000E+00  0.00000000000E+00  0.13033401210E+03  0.13033401219E+03  0.50400000000E-02 0. -1.
         -1   -1    0    0    0  501 -0.00000000000E+00 -0.00000000000E+00 -0.12672510521E+03  0.12672510531E+03  0.50400000000E-02 0.  1.
         25    2    1    2    0    0 -0.13579554349E+02  0.51391267068E+02 -0.48570622792E+02  0.14425564129E+03  0.12500047207E+03 0.  0.
         23    2    1    2    0    0  0.13579554349E+02 -0.51391267068E+02  0.52179529683E+02  0.11280347621E+03  0.84713955762E+02 0.  0.
        -11    1    4    4    0    0  0.46146351500E+02 -0.43944475400E+02  0.46574949581E+02  0.78929263291E+02  0.51100000000E-03 0. -1.
         11    1    4    4    0    0 -0.32566797150E+02 -0.74467916680E+01  0.56045801024E+01  0.33874212923E+02  0.51100000000E-03 0.  1.
    9000005    1    3    3    0    0 -0.13028076058E+02  0.36789075257E+01 -0.83827294848E+02  0.84919258639E+02  0.10000000000E+01 0.  0.
    9000005    1    3    3    0    0 -0.55147829150E+00  0.47712359542E+02  0.35256672056E+02  0.59336382648E+02  0.10000000000E+01 0.  0.
<mgrwt>
<rscale>  0 0.12582421E+03</rscale>
<asrwt>0</asrwt>
<pdfrwt beam="1">  1        1 0.20051386E-01 0.13583293E+03</pdfrwt>
<pdfrwt beam="2">  1       -1 0.19496170E-01 0.13583293E+03</pdfrwt>
<totfact> 0.51079384E+03</totfact>
</mgrwt>
</event>
<event>
 8    2  0.1409546E-003  0.1314736E+03  0.7818608E-02  0.1238403E+00
          1   -1    0    0  501    0  0.00000000000E+00  0.00000000000E+00  0.23846912907E+03  0.23846912913E+03  0.50400000000E-02 0. -1.
         -1   -1    0    0    0  501 -0.00000000000E+00 -0.00000000000E+00 -0.56979695241E+02  0.56979695464E+02  0.50400000000E-02 0.  1.
         25    2    1    2    0    0  0.18127924139E+02  0.36507616645E+02  0.11822655137E+03  0.17681298109E+03  0.12499554043E+03 0.  0.
         23    2    1    2    0    0 -0.18127924139E+02 -0.36507616645E+02  0.63262882462E+02  0.11863584350E+03  0.91710650193E+02 0.  0.
        -11    1    4    4    0    0 -0.32741982535E+02 -0.26082294930E+02 -0.10138618758E+02  0.43071047349E+02  0.51100000000E-03 0.  1.
         11    1    4    4    0    0  0.14614058396E+02 -0.10425321715E+02  0.73401501221E+02  0.75564796151E+02  0.51100000000E-03 0. -1.
    9000005    1    3    3    0    0 -0.17709794972E+02  0.18790781412E+02  0.13200892032E+03  0.13451425705E+03  0.10000000000E+01 0.  0.
    9000005    1    3    3    0    0  0.35837719111E+02  0.17716835233E+02 -0.13782368953E+02  0.42298724043E+02  0.10000000000E+01 0.  0.
<mgrwt>
<rscale>  0 0.12289095E+03</rscale>
<asrwt>0</asrwt>
<pdfrwt beam="1">  1        1 0.36687559E-01 0.13147362E+03</pdfrwt>
<pdfrwt beam="2">  1       -1 0.87661068E-02 0.13147362E+03</pdfrwt>
<totfact> 0.82872336E+03</totfact>
</mgrwt>
</event>
<event>
 8    2  0.1409546E-003  0.1256717E+03  0.7818608E-02  0.1249546E+00
          1   -1    0    0  501    0  0.00000000000E+00  0.00000000000E+00  0.84810451284E+03  0.84810451285E+03  0.50400000000E-02 0. -1.
         -1   -1    0    0    0  501 -0.00000000000E+00 -0.00000000000E+00 -0.14167418795E+02  0.14167419692E+02  0.50400000000E-02 0.  1.
         25    2    1    2    0    0 -0.73960885805E+01 -0.10648358879E+02  0.42668706981E+03  0.44480920820E+03  0.12500114591E+03 0.  0.
         23    2    1    2    0    0  0.73960885805E+01  0.10648358879E+02  0.40725002423E+03  0.41746272434E+03  0.90854027484E+02 0.  0.
        -11    1    4    4    0    0  0.34952067523E+02  0.34706703284E+02  0.15677994367E+03  0.16433548921E+03  0.51100000000E-03 0.  1.
         11    1    4    4    0    0 -0.27555978943E+02 -0.24058344405E+02  0.25047008056E+03  0.25312723513E+03  0.51100000000E-03 0. -1.
    9000005    1    3    3    0    0  0.14589705171E+02  0.20247202293E+02  0.39383986834E+03  0.39463103095E+03  0.10000000000E+01 0.  0.
    9000005    1    3    3    0    0 -0.21985793752E+02 -0.30895561172E+02  0.32847201475E+02  0.50178177246E+02  0.10000000000E+01 0.  0.
<mgrwt>
<rscale>  0 0.11617389E+03</rscale>
<asrwt>0</asrwt>
<pdfrwt beam="1">  1        1 0.13047762E+00 0.12567170E+03</pdfrwt>
<pdfrwt beam="2">  1       -1 0.21796029E-02 0.12567170E+03</pdfrwt>
<totfact> 0.12109656E+04</totfact>
</mgrwt>
</event>
<event>
 8    2  0.1409546E-003  0.3424778E+03  0.7818608E-02  0.1066934E+00
         -1   -1    0    0    0  501 -0.00000000000E+00  0.00000000000E+00  0.73134057015E+02  0.73134057189E+02  0.50400000000E-02 0.  1.
          1   -1    0    0  501    0  0.00000000000E+00 -0.00000000000E+00 -0.18855803752E+04  0.18855803753E+04  0.50400000000E-02 0. -1.
         25    2    1    2    0    0  0.18946662029E+03 -0.25645393933E+03 -0.50682520935E+03  0.61168850034E+03  0.12499922163E+03 0.  0.
         23    2    1    2    0    0 -0.18946662029E+03  0.25645393933E+03 -0.13056211089E+04  0.13470259321E+04  0.90366800370E+02 0.  0.
        -11    1    4    4    0    0 -0.97699565909E+02  0.17421503667E+03 -0.94667891984E+03  0.96752109096E+03  0.51100000000E-03 0. -1.
         11    1    4    4    0    0 -0.91767054384E+02  0.82238902652E+02 -0.35894218905E+03  0.37950484115E+03  0.51100000000E-03 0.  1.
    9000005    1    3    3    0    0  0.18758758351E+03 -0.26714633865E+03 -0.46284308573E+03  0.56637530821E+03  0.10000000000E+01 0.  0.
    9000005    1    3    3    0    0  0.18790367860E+01  0.10692399326E+02 -0.43982123618E+02  0.45313192125E+02  0.10000000000E+01 0.  0.
<mgrwt>
<rscale>  0 0.33967658E+03</rscale>
<asrwt>0</asrwt>
<pdfrwt beam="2">  1        1 0.29008925E+00 0.34247778E+03</pdfrwt>
<pdfrwt beam="1">  1       -1 0.11251395E-01 0.34247778E+03</pdfrwt>
<totfact> 0.20071779E+02</totfact>
</mgrwt>
</event>
<event>
 8    2  0.1409546E-003  0.2664588E+03  0.7818608E-02  0.1105406E+00
          1   -1    0    0  501    0  0.00000000000E+00  0.00000000000E+00  0.83669265988E+03  0.83669265990E+03  0.50400000000E-02 0. -1.
         -1   -1    0    0    0  501 -0.00000000000E+00 -0.00000000000E+00 -0.10744206496E+03  0.10744206508E+03  0.50400000000E-02 0.  1.
         25    2    1    2    0    0  0.17509575983E+03  0.15721524010E+03  0.60833092027E+03  0.66412862098E+03  0.12500063929E+03 0.  0.
         23    2    1    2    0    0 -0.17509575983E+03 -0.15721524010E+03  0.12091967465E+03  0.28000610399E+03  0.91688023868E+02 0.  0.
        -11    1    4    4    0    0 -0.71572106735E+02 -0.11161158368E+03  0.32729284401E+02  0.13656836431E+03  0.51100000000E-03 0. -1.
         11    1    4    4    0    0 -0.10352365310E+03 -0.45603656425E+02  0.88190390252E+02  0.14343773968E+03  0.51100000000E-03 0.  1.
    9000005    1    3    3    0    0  0.59782376083E+02  0.32578057600E+02  0.33876771002E+03  0.34554279573E+03  0.10000000000E+01 0.  0.
    9000005    1    3    3    0    0  0.11531338375E+03  0.12463718250E+03  0.26956321025E+03  0.31858582526E+03  0.10000000000E+01 0.  0.
<mgrwt>
<rscale>  0 0.26291160E+03</rscale>
<asrwt>0</asrwt>
<pdfrwt beam="1">  1        1 0.12872195E+00 0.26645885E+03</pdfrwt>
<pdfrwt beam="2">  1       -1 0.16529548E-01 0.26645885E+03</pdfrwt>
<totfact> 0.59323977E+02</totfact>
</mgrwt>
</event>
<event>
 8    2  0.1409546E-003  0.1330819E+03  0.7818608E-02  0.1235549E+00
         -1   -1    0    0    0  501 -0.00000000000E+00  0.00000000000E+00  0.36203887900E+03  0.36203887903E+03  0.50400000000E-02 0.  1.
          1   -1    0    0  501    0  0.00000000000E+00 -0.00000000000E+00 -0.39645246740E+02  0.39645247060E+02  0.50400000000E-02 0. -1.
         25    2    1    2    0    0 -0.35878573632E+02 -0.28242766130E+02  0.21743676367E+03  0.25493044447E+03  0.12500343770E+03 0.  0.
         23    2    1    2    0    0  0.35878573632E+02  0.28242766130E+02  0.10495686859E+03  0.14675368163E+03  0.91846463855E+02 0.  0.
        -11    1    4    4    0    0  0.14800890171E+02  0.60731666213E+02  0.53013449936E+02  0.81962354196E+02  0.51100000000E-03 0.  1.
         11    1    4    4    0    0  0.21077683461E+02 -0.32488900084E+02  0.51943418655E+02  0.64791327433E+02  0.51100000000E-03 0. -1.
    9000005    1    3    3    0    0 -0.18848932843E+02 -0.66716553808E+02  0.19558171433E+03  0.20750804274E+03  0.10000000000E+01 0.  0.
    9000005    1    3    3    0    0 -0.17029640789E+02  0.38473787678E+02  0.21855049334E+02  0.47422401722E+02  0.10000000000E+01 0.  0.
<mgrwt>
<rscale>  0 0.12469377E+03</rscale>
<asrwt>0</asrwt>
<pdfrwt beam="2">  1        1 0.60992690E-02 0.13308187E+03</pdfrwt>
<pdfrwt beam="1">  1       -1 0.55698287E-01 0.13308187E+03</pdfrwt>
<totfact> 0.40527668E+03</totfact>
</mgrwt>
</event>
<event>
 8    2  0.1409546E-003  0.1641701E+03  0.7818608E-02  0.1191067E+00
         -1   -1    0    0    0  501 -0.00000000000E+00  0.00000000000E+00  0.19420274319E+02  0.19420274973E+02  0.50400000000E-02 0.  1.
          1   -1    0    0  501    0  0.00000000000E+00 -0.00000000000E+00 -0.12005642180E+04  0.12005642181E+04  0.50400000000E-02 0. -1.
         25    2    1    2    0    0  0.10397684587E+03 -0.22596746011E+02 -0.59613048219E+03  0.61832303226E+03  0.12502009050E+03 0.  0.
         23    2    1    2    0    0 -0.10397684587E+03  0.22596746011E+02 -0.58501346154E+03  0.60166146076E+03  0.91836625486E+02 0.  0.
        -11    1    4    4    0    0 -0.10168340686E+03  0.32789825615E+02 -0.58055169357E+03  0.59030073420E+03  0.51100000000E-03 0. -1.
         11    1    4    4    0    0 -0.22934390093E+01 -0.10193079604E+02 -0.44617679673E+01  0.11360726559E+02  0.51100000000E-03 0.  1.
    9000005    1    3    3    0    0  0.88133547618E+01 -0.23045269580E+02 -0.13841659317E+02  0.28308147322E+02  0.10000000000E+01 0.  0.
    9000005    1    3    3    0    0  0.95163491109E+02  0.44852356826E+00 -0.58228882287E+03  0.59001488494E+03  0.10000000000E+01 0.  0.
<mgrwt>
<rscale>  0 0.15791823E+03</rscale>
<asrwt>0</asrwt>
<pdfrwt beam="2">  1        1 0.18470213E+00 0.16417010E+03</pdfrwt>
<pdfrwt beam="1">  1       -1 0.29877355E-02 0.16417010E+03</pdfrwt>
<totfact> 0.42881450E+03</totfact>
</mgrwt>
</event>
<event>
 8    2  0.1409546E-003  0.2229902E+03  0.7818608E-02  0.1134777E+00
          1   -1    0    0  501    0  0.00000000000E+00  0.00000000000E+00  0.72641836268E+03  0.72641836270E+03  0.50400000000E-02 0. -1.
         -1   -1    0    0    0  501 -0.00000000000E+00 -0.00000000000E+00 -0.67334493222E+02  0.67334493411E+02  0.50400000000E-02 0.  1.
         25    2    1    2    0    0 -0.74653280509E+02  0.16889889258E+03  0.43538740729E+03  0.48916952207E+03  0.12499871472E+03 0.  0.
         23    2    1    2    0    0  0.74653280509E+02 -0.16889889258E+03  0.22369646216E+03  0.30458333404E+03  0.92902916996E+02 0.  0.
        -11    1    4    4    0    0  0.19483001932E+02 -0.86465216303E+02  0.17017436558E+03  0.19187270701E+03  0.51100000000E-03 0.  1.
         11    1    4    4    0    0  0.55170278577E+02 -0.82433676278E+02  0.53522096581E+02  0.11271062703E+03  0.51100000000E-03 0. -1.
    9000005    1    3    3    0    0 -0.65270846321E+02  0.16613759837E+03  0.44242599666E+03  0.47707834523E+03  0.10000000000E+01 0.  0.
    9000005    1    3    3    0    0 -0.93824341878E+01  0.27612942100E+01 -0.70385893628E+01  0.12091176834E+02  0.10000000000E+01 0.  0.
<mgrwt>
<rscale>  0 0.21880492E+03</rscale>
<asrwt>0</asrwt>
<pdfrwt beam="1">  1        1 0.11175668E+00 0.22299019E+03</pdfrwt>
<pdfrwt beam="2">  1       -1 0.10359152E-01 0.22299019E+03</pdfrwt>
<totfact> 0.15368825E+03</totfact>
</mgrwt>
</event>
<event>
 8    2  0.1409546E-003  0.1345043E+03  0.7818608E-02  0.1233127E+00
         -1   -1    0    0    0  501 -0.00000000000E+00  0.00000000000E+00  0.34663590055E+03  0.34663590059E+03  0.50400000000E-02 0.  1.
          1   -1    0    0  501    0  0.00000000000E+00 -0.00000000000E+00 -0.43736667490E+02  0.43736667780E+02  0.50400000000E-02 0. -1.
         25    2    1    2    0    0  0.49600321642E+02  0.24707349516E+01  0.12244152312E+03  0.18188826506E+03  0.12500047178E+03 0.  0.
         23    2    1    2    0    0 -0.49600321642E+02 -0.24707349516E+01  0.18045770994E+03  0.20848430330E+03  0.91839115891E+02 0.  0.
        -11    1    4    4    0    0 -0.13881592315E+02 -0.45248775242E+02  0.99698297164E+02  0.11036258752E+03  0.51100000000E-03 0. -1.
         11    1    4    4    0    0 -0.35718729327E+02  0.42778040291E+02  0.80759412778E+02  0.98121715784E+02  0.51100000000E-03 0.  1.
    9000005    1    3    3    0    0  0.28615176377E+02  0.14773134762E+02 -0.19641758605E+02  0.37734235263E+02  0.10000000000E+01 0.  0.
    9000005    1    3    3    0    0  0.20985145265E+02 -0.12302399810E+02  0.14208328172E+03  0.14415402980E+03  0.10000000000E+01 0.  0.
<mgrwt>
<rscale>  0 0.12625079E+03</rscale>
<asrwt>0</asrwt>
<pdfrwt beam="2">  1        1 0.67287182E-02 0.13450433E+03</pdfrwt>
<pdfrwt beam="1">  1       -1 0.53328599E-01 0.13450433E+03</pdfrwt>
<totfact> 0.38490768E+03</totfact>
</mgrwt>
</event>
<event>
 8    2  0.1409546E-003  0.1306013E+03  0.7818608E-02  0.1240523E+00
          1   -1    0    0  501    0  0.00000000000E+00  0.00000000000E+00  0.12062111499E+04  0.12062111499E+04  0.50400000000E-02 0. -1.
         -1   -1    0    0    0  501 -0.00000000000E+00 -0.00000000000E+00 -0.10950436755E+02  0.10950437915E+02  0.50400000000E-02 0.  1.
         25    2    1    2    0    0 -0.31061756029E+01  0.37703562395E+02  0.74297265711E+03  0.75436402013E+03  0.12500199483E+03 0.  0.
         23    2    1    2    0    0  0.31061756029E+01 -0.37703562395E+02  0.45228805601E+03  0.46279756767E+03  0.90475942040E+02 0.  0.
        -11    1    4    4    0    0 -0.87444541974E+01 -0.44105780081E+01  0.68910907251E+00  0.98180216516E+01  0.51100000000E-03 0.  1.
         11    1    4    4    0    0  0.11850629800E+02 -0.33292984387E+02  0.45159894694E+03  0.45297954602E+03  0.51100000000E-03 0. -1.
    9000005    1    3    3    0    0 -0.61136065855E+02 -0.44820860694E+00  0.34714510548E+03  0.35248906890E+03  0.10000000000E+01 0.  0.
    9000005    1    3    3    0    0  0.58029890252E+02  0.38151771002E+02  0.39582755163E+03  0.40187495123E+03  0.10000000000E+01 0.  0.
<mgrwt>
<rscale>  0 0.12157414E+03</rscale>
<asrwt>0</asrwt>
<pdfrwt beam="1">  1        1 0.18557078E+00 0.13060132E+03</pdfrwt>
<pdfrwt beam="2">  1       -1 0.16846842E-02 0.13060132E+03</pdfrwt>
<totfact> 0.96592239E+03</totfact>
</mgrwt>
</event>
<event>
 8    2  0.1409546E-003  0.1478612E+03  0.7818608E-02  0.1215715E+00
          1   -1    0    0  501    0  0.00000000000E+00  0.00000000000E+00  0.75372292129E+02  0.75372292298E+02  0.50400000000E-02 0. -1.
         -1   -1    0    0    0  501 -0.00000000000E+00 -0.00000000000E+00 -0.25976414868E+03  0.25976414872E+03  0.50400000000E-02 0.  1.
         25    2    1    2    0    0 -0.78476474152E+02  0.89963606427E+01 -0.16314275499E+03  0.22017831568E+03  0.12499376261E+03 0.  0.
         23    2    1    2    0    0  0.78476474152E+02 -0.89963606427E+01 -0.21249101554E+02  0.11495812534E+03  0.80773478101E+02 0.  0.
        -11    1    4    4    0    0  0.64615700970E+02 -0.88042864095E+01 -0.50571735575E+02  0.82523964461E+02  0.51100000000E-03 0.  1.
         11    1    4    4    0    0  0.13860773182E+02 -0.19207423321E+00  0.29322634021E+02  0.32434160879E+02  0.51100000000E-03 0. -1.
    9000005    1    3    3    0    0 -0.47662033026E+02  0.15204933112E+02  0.39098644627E+01  0.50191099044E+02  0.10000000000E+01 0.  0.
    9000005    1    3    3    0    0 -0.30814441127E+02 -0.62085724693E+01 -0.16705261945E+03  0.16998721664E+03  0.10000000000E+01 0.  0.
<mgrwt>
<rscale>  0 0.13824147E+03</rscale>
<asrwt>0</asrwt>
<pdfrwt beam="1">  1        1 0.11595737E-01 0.14786119E+03</pdfrwt>
<pdfrwt beam="2">  1       -1 0.39963715E-01 0.14786119E+03</pdfrwt>
<totfact> 0.31447489E+03</totfact>
</mgrwt>
</event>
<event>
 8    2  0.1409546E-003  0.1465667E+03  0.7818608E-02  0.1213445E+00
          1   -1    0    0  501    0  0.00000000000E+00  0.00000000000E+00  0.21489971512E+03  0.21489971518E+03  0.50400000000E-02 0. -1.
         -1   -1    0    0    0  501 -0.00000000000E+00 -0.00000000000E+00 -0.84850211199E+02  0.84850211349E+02  0.50400000000E-02 0.  1.
         25    2    1    2    0    0 -0.76475523790E+02  0.29015337252E+01  0.88115187749E+02  0.17101486857E+03  0.12499949729E+03 0.  0.
         23    2    1    2    0    0  0.76475523790E+02 -0.29015337252E+01  0.41934316170E+02  0.12873505796E+03  0.94643032693E+02 0.  0.
        -11    1    4    4    0    0  0.95693233974E+02  0.87754123612E+01  0.21766956736E+02  0.98529200222E+02  0.51100000000E-03 0. -1.
         11    1    4    4    0    0 -0.19217710184E+02 -0.11676946086E+02  0.20167359434E+02  0.30205857734E+02  0.51100000000E-03 0.  1.
    9000005    1    3    3    0    0 -0.50975987585E+02 -0.15035056897E+02  0.11699596970E+03  0.12850549083E+03  0.10000000000E+01 0.  0.
    9000005    1    3    3    0    0 -0.25499536205E+02  0.17936590622E+02 -0.28880781954E+02  0.42509377743E+02  0.10000000000E+01 0.  0.
<mgrwt>
<rscale>  0 0.13991406E+03</rscale>
<asrwt>0</asrwt>
<pdfrwt beam="1">  1        1 0.33061495E-01 0.14656670E+03</pdfrwt>
<pdfrwt beam="2">  1       -1 0.13053879E-01 0.14656670E+03</pdfrwt>
<totfact> 0.51561330E+03</totfact>
</mgrwt>
</event>
<event>
 8    2  0.1409546E-003  0.1296622E+03  0.7818608E-02  0.1241299E+00
          1   -1    0    0  501    0  0.00000000000E+00  0.00000000000E+00  0.10131753789E+04  0.10131753789E+04  0.50400000000E-02 0.  1.
         -1   -1    0    0    0  501 -0.00000000000E+00 -0.00000000000E+00 -0.13207307034E+02  0.13207307996E+02  0.50400000000E-02 0. -1.
         25    2    1    2    0    0 -0.25774669569E+02  0.22862514246E+02  0.64836678198E+03  0.66120478372E+03  0.12500101558E+03 0.  0.
         23    2    1    2    0    0  0.25774669569E+02 -0.22862514246E+02  0.35160128985E+03  0.36517790315E+03  0.92435954989E+02 0.  0.
        -11    1    4    4    0    0  0.30796346893E+02 -0.31240999553E+02  0.35263690294E+03  0.35535503423E+03  0.51100000000E-03 0.  1.
         11    1    4    4    0    0 -0.50216773238E+01  0.83784853074E+01 -0.10356130866E+01  0.98228689250E+01  0.51100000000E-03 0. -1.
    9000005    1    3    3    0    0 -0.25052655262E+02  0.74125124153E+02  0.37685195536E+03  0.38489032960E+03  0.10000000000E+01 0.  0.
    9000005    1    3    3    0    0 -0.72201430692E+00 -0.51262609908E+02  0.27151482662E+03  0.27631445412E+03  0.10000000000E+01 0.  0.
<mgrwt>
<rscale>  0 0.12109664E+03</rscale>
<asrwt>0</asrwt>
<pdfrwt beam="1">  1        1 0.15587321E+00 0.12966218E+03</pdfrwt>
<pdfrwt beam="2">  1       -1 0.20318925E-02 0.12966218E+03</pdfrwt>
<totfact> 0.10074630E+04</totfact>
</mgrwt>
</event>
<event>
 8    2  0.1409546E-003  0.1570025E+03  0.7818608E-02  0.1200328E+00
          1   -1    0    0  501    0  0.00000000000E+00  0.00000000000E+00  0.95024648138E+03  0.95024648139E+03  0.50400000000E-02 0. -1.
         -1   -1    0    0    0  501 -0.00000000000E+00 -0.00000000000E+00 -0.26662203665E+02  0.26662204141E+02  0.50400000000E-02 0.  1.
         25    2    1    2    0    0  0.52372928206E+02  0.79245116436E+02  0.28894566241E+03  0.32884553285E+03  0.12500830597E+03 0.  0.
         23    2    1    2    0    0 -0.52372928206E+02 -0.79245116436E+02  0.63463861530E+03  0.64806315268E+03  0.90537095958E+02 0.  0.
        -11    1    4    4    0    0 -0.51365190937E+02 -0.98088040356E+02  0.57304304632E+03  0.58364199595E+03  0.51100000000E-03 0.  1.
         11    1    4    4    0    0 -0.10077372689E+01  0.18842923920E+02  0.61595568984E+02  0.64421156735E+02  0.51100000000E-03 0. -1.
    9000005    1    3    3    0    0 -0.65323863462E+00  0.95829032428E+02  0.13814737959E+03  0.16813485262E+03  0.10000000000E+01 0.  0.
    9000005    1    3    3    0    0  0.53026166841E+02 -0.16583915991E+02  0.15079828282E+03  0.16071068024E+03  0.10000000000E+01 0.  0.
<mgrwt>
<rscale>  0 0.15011811E+03</rscale>
<asrwt>0</asrwt>
<pdfrwt beam="1">  1        1 0.14619176E+00 0.15700251E+03</pdfrwt>
<pdfrwt beam="2">  1       -1 0.41018777E-02 0.15700251E+03</pdfrwt>
<totfact> 0.40645878E+03</totfact>
</mgrwt>
</event>
<event>
 8    2  0.1409546E-003  0.2672677E+03  0.7818608E-02  0.1104818E+00
          1   -1    0    0  501    0  0.00000000000E+00  0.00000000000E+00  0.26360550860E+03  0.26360550865E+03  0.50400000000E-02 0. -1.
         -1   -1    0    0    0  501 -0.00000000000E+00 -0.00000000000E+00 -0.25874977891E+03  0.25874977896E+03  0.50400000000E-02 0.  1.
         25    2    1    2    0    0 -0.75647129234E+02  0.22381239465E+03  0.18511362995E+02  0.26790799751E+03  0.12497019008E+03 0.  0.
         23    2    1    2    0    0  0.75647129234E+02 -0.22381239465E+03 -0.13655633305E+02  0.25444729009E+03  0.93501181568E+02 0.  0.
        -11    1    4    4    0    0 -0.32455282408E+01 -0.10540663244E+03  0.22087979294E+02  0.10774493234E+03  0.51100000000E-03 0.  1.
         11    1    4    4    0    0  0.78892657475E+02 -0.11840576221E+03 -0.35743612599E+02  0.14670235775E+03  0.51100000000E-03 0. -1.
    9000005    1    3    3    0    0  0.42889280285E+01  0.16444184686E+03 -0.85379876667E+01  0.16472223024E+03  0.10000000000E+01 0.  0.
    9000005    1    3    3    0    0 -0.79936057262E+02  0.59370547793E+02  0.27049350662E+02  0.10318576727E+03  0.10000000000E+01 0.  0.
<mgrwt>
<rscale>  0 0.26390811E+03</rscale>
<asrwt>0</asrwt>
<pdfrwt beam="1">  1        1 0.40554694E-01 0.26726770E+03</pdfrwt>
<pdfrwt beam="2">  1       -1 0.39807658E-01 0.26726770E+03</pdfrwt>
<totfact> 0.64515548E+02</totfact>
</mgrwt>
</event>
<event>
 8    2  0.1409546E-003  0.1361576E+03  0.7818608E-02  0.1230233E+00
          1   -1    0    0  501    0  0.00000000000E+00  0.00000000000E+00  0.25435884355E+03  0.25435884360E+03  0.50400000000E-02 0. -1.
         -1   -1    0    0    0  501 -0.00000000000E+00 -0.00000000000E+00 -0.58075206610E+02  0.58075206828E+02  0.50400000000E-02 0.  1.
         25    2    1    2    0    0 -0.44889153981E+02 -0.30025989556E+02  0.11423609108E+03  0.17773231720E+03  0.12498918305E+03 0.  0.
         23    2    1    2    0    0  0.44889153981E+02  0.30025989556E+02  0.82047545855E+02  0.13470173322E+03  0.92174622095E+02 0.  0.
        -11    1    4    4    0    0  0.21311405187E+02  0.50958264577E+02  0.10102562737E+02  0.56151424682E+02  0.51100000000E-03 0.  1.
         11    1    4    4    0    0  0.23577748794E+02 -0.20932275021E+02  0.71944983117E+02  0.78550308540E+02  0.51100000000E-03 0. -1.
    9000005    1    3    3    0    0 -0.17145668044E+02  0.49057288944E+02  0.37464640598E+02  0.64071763097E+02  0.10000000000E+01 0.  0.
    9000005    1    3    3    0    0 -0.27743485937E+02 -0.79083278500E+02  0.76771450484E+02  0.11366055411E+03  0.10000000000E+01 0.  0.
<mgrwt>
<rscale>  0 0.12814605E+03</rscale>
<asrwt>0</asrwt>
<pdfrwt beam="1">  1        1 0.39132130E-01 0.13615760E+03</pdfrwt>
<pdfrwt beam="2">  1       -1 0.89346471E-02 0.13615760E+03</pdfrwt>
<totfact> 0.74524975E+03</totfact>
</mgrwt>
</event>
<event>
 8    2  0.1409546E-003  0.1331229E+03  0.7818608E-02  0.1237669E+00
          1   -1    0    0  501    0  0.00000000000E+00  0.00000000000E+00  0.53381832036E+03  0.53381832038E+03  0.50400000000E-02 0. -1.
         -1   -1    0    0    0  501 -0.00000000000E+00 -0.00000000000E+00 -0.25109876462E+02  0.25109876967E+02  0.50400000000E-02 0.  1.
         25    2    1    2    0    0  0.25324072567E+02  0.38160788174E+02  0.27876184520E+03  0.30891725788E+03  0.12499660584E+03 0.  0.
         23    2    1    2    0    0 -0.25324072567E+02 -0.38160788174E+02  0.22994659870E+03  0.25001093947E+03  0.86789845010E+02 0.  0.
        -11    1    4    4    0    0 -0.39933663026E+02  0.10589745784E+02  0.61850154730E+02  0.74379310287E+02  0.51100000000E-03 0.  1.
         11    1    4    4    0    0  0.14609590460E+02 -0.48750533957E+02  0.16809644397E+03  0.17563162919E+03  0.51100000000E-03 0. -1.
    9000005    1    3    3    0    0 -0.45216529537E+02  0.25037381035E+02  0.62768333581E+02  0.81315857574E+02  0.10000000000E+01 0.  0.
    9000005    1    3    3    0    0  0.70540602103E+02  0.13123407139E+02  0.21599351162E+03  0.22760140030E+03  0.10000000000E+01 0.  0.
<mgrwt>
<rscale>  0 0.12335110E+03</rscale>
<asrwt>0</asrwt>
<pdfrwt beam="1">  1        1 0.82125896E-01 0.13312290E+03</pdfrwt>
<pdfrwt beam="2">  1       -1 0.38630579E-02 0.13312290E+03</pdfrwt>
<totfact> 0.10190706E+04</totfact>
</mgrwt>
</event>
<event>
 8    2  0.1409546E-003  0.1273032E+03  0.7818608E-02  0.1246426E+00
          1   -1    0    0  501    0  0.00000000000E+00  0.00000000000E+00  0.87585513956E+02  0.87585514101E+02  0.50400000000E-02 0. -1.
         -1   -1    0    0    0  501 -0.00000000000E+00 -0.00000000000E+00 -0.16380513112E+03  0.16380513119E+03  0.50400000000E-02 0.  1.
         25    2    1    2    0    0 -0.44933325658E+01  0.23685689616E+02 -0.90678334492E+02  0.15629671822E+03  0.12499960740E+03 0.  0.
         23    2    1    2    0    0  0.44933325658E+01 -0.23685689616E+02  0.14458717331E+02  0.95093927071E+02  0.90843813927E+02 0.  0.
        -11    1    4    4    0    0 -0.43030215956E+02 -0.75588120411E+01  0.43954847579E+01  0.43909627774E+02  0.51100000000E-03 0. -1.
         11    1    4    4    0    0  0.47523548522E+02 -0.16126877575E+02  0.10063232573E+02  0.51184299297E+02  0.51100000000E-03 0.  1.
    9000005    1    3    3    0    0 -0.99287046995E+01 -0.50046797011E+01  0.30063879809E+02  0.32069656454E+02  0.10000000000E+01 0.  0.
    9000005    1    3    3    0    0  0.54353721338E+01  0.28690369317E+02 -0.12074221430E+03  0.12422706177E+03  0.10000000000E+01 0.  0.
<mgrwt>
<rscale>  0 0.11800433E+03</rscale>
<asrwt>0</asrwt>
<pdfrwt beam="1">  1        1 0.13474694E-01 0.12730320E+03</pdfrwt>
<pdfrwt beam="2">  1       -1 0.25200789E-01 0.12730320E+03</pdfrwt>
<totfact> 0.55932366E+03</totfact>
</mgrwt>
</event>
<event>
 8    2  0.1409546E-003  0.1598654E+03  0.7818608E-02  0.1196405E+00
         -1   -1    0    0    0  501 -0.00000000000E+00  0.00000000000E+00  0.14757921516E+03  0.14757921524E+03  0.50400000000E-02 0.  1.
          1   -1    0    0  501    0  0.00000000000E+00 -0.00000000000E+00 -0.14823862884E+03  0.14823862893E+03  0.50400000000E-02 0. -1.
         25    2    1    2    0    0 -0.85155483600E+02 -0.51785236132E+02  0.87425573847E+01  0.16010431001E+03  0.12499516273E+03 0.  0.
         23    2    1    2    0    0  0.85155483600E+02  0.51785236132E+02 -0.94019710728E+01  0.13571353416E+03  0.91632959274E+02 0.  0.
        -11    1    4    4    0    0  0.78002410595E+02  0.52335990570E+02  0.27693730046E+02  0.97930458243E+02  0.51100000000E-03 0.  1.
         11    1    4    4    0    0  0.71530730047E+01 -0.55075443756E+00 -0.37095701119E+02  0.37783075915E+02  0.51100000000E-03 0. -1.
    9000005    1    3    3    0    0 -0.19473375186E+02  0.70023806448E+01  0.56264012674E+02  0.59957358164E+02  0.10000000000E+01 0.  0.
    9000005    1    3    3    0    0 -0.65682108414E+02 -0.58787616777E+02 -0.47521455289E+02  0.10014695185E+03  0.10000000000E+01 0.  0.
<mgrwt>
<rscale>  0 0.15335945E+03</rscale>
<asrwt>0</asrwt>
<pdfrwt beam="2">  1        1 0.22805943E-01 0.15986544E+03</pdfrwt>
<pdfrwt beam="1">  1       -1 0.22704495E-01 0.15986544E+03</pdfrwt>
<totfact> 0.34220251E+03</totfact>
</mgrwt>
</event>
<event>
 8    2  0.1409546E-003  0.1438976E+03  0.7818608E-02  0.1218808E+00
         -1   -1    0    0    0  501 -0.00000000000E+00  0.00000000000E+00  0.19791829484E+02  0.19791830125E+02  0.50400000000E-02 0.  1.
          1   -1    0    0  501    0  0.00000000000E+00 -0.00000000000E+00 -0.85279450480E+03  0.85279450482E+03  0.50400000000E-02 0. -1.
         25    2    1    2    0    0 -0.35885593927E+02 -0.61591248078E+02 -0.50282990037E+03  0.52301475751E+03  0.12500108071E+03 0.  0.
         23    2    1    2    0    0  0.35885593927E+02  0.61591248078E+02 -0.33017277495E+03  0.34957157743E+03  0.90027599869E+02 0.  0.
        -11    1    4    4    0    0  0.34566697537E+02  0.72891791692E+01 -0.36044421517E+02  0.50469684309E+02  0.51100000000E-03 0.  1.
         11    1    4    4    0    0  0.13188963900E+01  0.54302068909E+02 -0.29412835343E+03  0.29910189312E+03  0.51100000000E-03 0. -1.
    9000005    1    3    3    0    0 -0.25815415740E+02 -0.78103013106E+02 -0.49554000088E+03  0.50232201706E+03  0.10000000000E+01 0.  0.
    9000005    1    3    3    0    0 -0.10070178186E+02  0.16511765028E+02 -0.72898994895E+01  0.20692740457E+02  0.10000000000E+01 0.  0.
<mgrwt>
<rscale>  0 0.13600513E+03</rscale>
<asrwt>0</asrwt>
<pdfrwt beam="2">  1        1 0.13119913E+00 0.14389763E+03</pdfrwt>
<pdfrwt beam="1">  1       -1 0.30448975E-02 0.14389763E+03</pdfrwt>
<totfact> 0.74537638E+03</totfact>
</mgrwt>
</event>
<event>
 8    2  0.1409546E-003  0.3242334E+03  0.7818608E-02  0.1075009E+00
          1   -1    0    0  501    0  0.00000000000E+00  0.00000000000E+00  0.13685457002E+03  0.13685457011E+03  0.50400000000E-02 0. -1.
         -1   -1    0    0    0  501 -0.00000000000E+00 -0.00000000000E+00 -0.85366560038E+03  0.85366560040E+03  0.50400000000E-02 0.  1.
         25    2    1    2    0    0 -0.26314283053E+03  0.14233393128E+03 -0.18466430609E+03  0.37313292347E+03  0.12499670148E+03 0.  0.
         23    2    1    2    0    0  0.26314283053E+03 -0.14233393128E+03 -0.53214672428E+03  0.61738724703E+03  0.92107433922E+02 0.  0.
        -11    1    4    4    0    0  0.17544913739E+03 -0.11243983963E+03 -0.43931106139E+03  0.48622970498E+03  0.51100000000E-03 0.  1.
         11    1    4    4    0    0  0.87693693145E+02 -0.29894091652E+02 -0.92835662892E+02  0.13115754206E+03  0.51100000000E-03 0. -1.
    9000005    1    3    3    0    0 -0.29712588336E+02  0.54924833510E+02 -0.83151036056E+02  0.10399360576E+03  0.10000000000E+01 0.  0.
    9000005    1    3    3    0    0 -0.23343024220E+03  0.87409097768E+02 -0.10151327003E+03  0.26913931771E+03  0.10000000000E+01 0.  0.
<mgrwt>
<rscale>  0 0.32139511E+03</rscale>
<asrwt>0</asrwt>
<pdfrwt beam="1">  1        1 0.21054550E-01 0.32423336E+03</pdfrwt>
<pdfrwt beam="2">  1       -1 0.13133317E+00 0.32423336E+03</pdfrwt>
<totfact> 0.12671742E+02</totfact>
</mgrwt>
</event>
<event>
 8    2  0.1409546E-003  0.1330555E+03  0.7818608E-02  0.1236017E+00
         -1   -1    0    0    0  501 -0.00000000000E+00  0.00000000000E+00  0.33822215780E+02  0.33822216155E+02  0.50400000000E-02 0.  1.
          1   -1    0    0  501    0  0.00000000000E+00 -0.00000000000E+00 -0.43979200480E+03  0.43979200483E+03  0.50400000000E-02 0. -1.
         25    2    1    2    0    0 -0.40990599523E+02 -0.19971379373E+02 -0.16418930144E+03  0.21133360586E+03  0.12499872406E+03 0.  0.
         23    2    1    2    0    0  0.40990599523E+02  0.19971379373E+02 -0.24178048759E+03  0.26228061513E+03  0.90852802108E+02 0.  0.
        -11    1    4    4    0    0 -0.34647941950E+01 -0.58925508849E+00 -0.19341094927E+03  0.19344287869E+03  0.51100000000E-03 0. -1.
         11    1    4    4    0    0  0.44455393718E+02  0.20560634462E+02 -0.48369538322E+02  0.68837736437E+02  0.51100000000E-03 0.  1.
    9000005    1    3    3    0    0 -0.28724481914E+02  0.43764276701E+01  0.13149522414E+02  0.31908602603E+02  0.10000000000E+01 0.  0.
    9000005    1    3    3    0    0 -0.12266117609E+02 -0.24347807043E+02 -0.17733882385E+03  0.17942500326E+03  0.10000000000E+01 0.  0.
<mgrwt>
<rscale>  0 0.12439548E+03</rscale>
<asrwt>0</asrwt>
<pdfrwt beam="2">  1        1 0.67660304E-01 0.13305550E+03</pdfrwt>
<pdfrwt beam="1">  1       -1 0.52034182E-02 0.13305550E+03</pdfrwt>
<totfact> 0.84472877E+03</totfact>
</mgrwt>
</event>
<event>
 8    2  0.1409546E-003  0.1367930E+03  0.7818608E-02  0.1229237E+00
          1   -1    0    0  501    0  0.00000000000E+00  0.00000000000E+00  0.99615191060E+03  0.99615191061E+03  0.50400000000E-02 0. -1.
         -1   -1    0    0    0  501 -0.00000000000E+00 -0.00000000000E+00 -0.18226155764E+02  0.18226156461E+02  0.50400000000E-02 0.  1.
         25    2    1    2    0    0  0.53389709517E+02 -0.15381153533E+02  0.74979359092E+03  0.76216976474E+03  0.12500112136E+03 0.  0.
         23    2    1    2    0    0 -0.53389709517E+02  0.15381153533E+02  0.22813216392E+03  0.25220830233E+03  0.92074440448E+02 0.  0.
        -11    1    4    4    0    0  0.32251821512E+01 -0.31406313672E+02  0.95699268483E+02  0.10077255741E+03  0.51100000000E-03 0. -1.
         11    1    4    4    0    0 -0.56614891668E+02  0.46787467205E+02  0.13243289544E+03  0.15143574492E+03  0.51100000000E-03 0.  1.
    9000005    1    3    3    0    0 -0.39462208545E+02 -0.18477747757E+02  0.26348827025E+03  0.26706883312E+03  0.10000000000E+01 0.  0.
    9000005    1    3    3    0    0  0.92851918062E+02  0.30965942243E+01  0.48630532066E+03  0.49510093162E+03  0.10000000000E+01 0.  0.
<mgrwt>
<rscale>  0 0.12880712E+03</rscale>
<asrwt>0</asrwt>
<pdfrwt beam="1">  1        1 0.15325417E+00 0.13679299E+03</pdfrwt>
<pdfrwt beam="2">  1       -1 0.28040234E-02 0.13679299E+03</pdfrwt>
<totfact> 0.65225116E+03</totfact>
</mgrwt>
</event>
<event>
 8    2  0.1409546E-003  0.1282554E+03  0.7818608E-02  0.1244466E+00
          1   -1    0    0  501    0  0.00000000000E+00  0.00000000000E+00  0.22987222798E+03  0.22987222803E+03  0.50400000000E-02 0. -1.
         -1   -1    0    0    0  501 -0.00000000000E+00 -0.00000000000E+00 -0.84972926187E+02  0.84972926337E+02  0.50400000000E-02 0.  1.
         25    2    1    2    0    0 -0.24733802451E+02  0.14578442937E+02 -0.14395735897E+02  0.12906078567E+03  0.12500062882E+03 0.  0.
         23    2    1    2    0    0  0.24733802451E+02 -0.14578442937E+02  0.15929503769E+03  0.18578436870E+03  0.91195562602E+02 0.  0.
        -11    1    4    4    0    0 -0.18848920713E+02  0.21675403709E+02  0.98744400786E+02  0.10283754968E+03  0.51100000000E-03 0. -1.
         11    1    4    4    0    0  0.43582723165E+02 -0.36253846646E+02  0.60550636900E+02  0.82946819013E+02  0.51100000000E-03 0.  1.
    9000005    1    3    3    0    0 -0.21601195877E+02  0.67721240236E+01  0.54825204819E+02  0.59323489535E+02  0.10000000000E+01 0.  0.
    9000005    1    3    3    0    0 -0.31326065743E+01  0.78063189136E+01 -0.69220940716E+02  0.69737296137E+02  0.10000000000E+01 0.  0.
<mgrwt>
<rscale>  0 0.11917372E+03</rscale>
<asrwt>0</asrwt>
<pdfrwt beam="1">  1        1 0.35364957E-01 0.12825541E+03</pdfrwt>
<pdfrwt beam="2">  1       -1 0.13072758E-01 0.12825541E+03</pdfrwt>
<totfact> 0.46956723E+03</totfact>
</mgrwt>
</event>
<event>
 8    2  0.1409546E-003  0.1369371E+03  0.7818608E-02  0.1229352E+00
         -1   -1    0    0    0  501 -0.00000000000E+00  0.00000000000E+00  0.25547703980E+02  0.25547704477E+02  0.50400000000E-02 0.  1.
          1   -1    0    0  501    0  0.00000000000E+00 -0.00000000000E+00 -0.10026692320E+04  0.10026692320E+04  0.50400000000E-02 0. -1.
         25    2    1    2    0    0 -0.51873758699E+02  0.20892671109E+02 -0.19191335270E+03  0.23575940335E+03  0.12499748308E+03 0.  0.
         23    2    1    2    0    0  0.51873758699E+02 -0.20892671109E+02 -0.78520817530E+03  0.79245753312E+03  0.91157406126E+02 0.  0.
        -11    1    4    4    0    0  0.22345746838E+02  0.15783020924E+02 -0.62178452986E+03  0.62238608413E+03  0.51100000000E-03 0. -1.
         11    1    4    4    0    0  0.29528011860E+02 -0.36675692032E+02 -0.16342364544E+03  0.17007144899E+03  0.51100000000E-03 0.  1.
    9000005    1    3    3    0    0 -0.76340070783E+02  0.34560549077E+02 -0.65755656865E+02  0.10652250640E+03  0.10000000000E+01 0.  0.
    9000005    1    3    3    0    0  0.24466312084E+02 -0.13667877968E+02 -0.12615769583E+03  0.12923689695E+03  0.10000000000E+01 0.  0.
<mgrwt>
<rscale>  0 0.12873010E+03</rscale>
<asrwt>0</asrwt>
<pdfrwt beam="2">  1        1 0.15425677E+00 0.13693707E+03</pdfrwt>
<pdfrwt beam="1">  1       -1 0.39304168E-02 0.13693707E+03</pdfrwt>
<totfact> 0.39396110E+03</totfact>
</mgrwt>
</event>
<event>
 8    2  0.1409546E-003  0.1267408E+03  0.7818608E-02  0.1247558E+00
         -1   -1    0    0    0  501 -0.00000000000E+00  0.00000000000E+00  0.84057397000E+02  0.84057397151E+02  0.50400000000E-02 0.  1.
          1   -1    0    0  501    0  0.00000000000E+00 -0.00000000000E+00 -0.14646755970E+03  0.14646755978E+03  0.50400000000E-02 0. -1.
         25    2    1    2    0    0  0.26108645819E+01 -0.20857902855E+02 -0.51419336007E+02  0.13677416188E+03  0.12498541722E+03 0.  0.
         23    2    1    2    0    0 -0.26108645819E+01  0.20857902855E+02 -0.10990826691E+02  0.93750795055E+02  0.90700300864E+02 0.  0.
        -11    1    4    4    0    0 -0.17147530463E+02 -0.32978250674E+02 -0.16239564517E+01  0.37205376672E+02  0.51100000000E-03 0.  1.
         11    1    4    4    0    0  0.14536665881E+02  0.53836153529E+02 -0.93668702390E+01  0.56545418383E+02  0.51100000000E-03 0. -1.
    9000005    1    3    3    0    0  0.20063626965E+02  0.49913884875E+02 -0.23475643095E+02  0.58703073591E+02  0.10000000000E+01 0.  0.
    9000005    1    3    3    0    0 -0.17452762383E+02 -0.70771787730E+02 -0.27943692912E+02  0.78071088290E+02  0.10000000000E+01 0.  0.
<mgrwt>
<rscale>  0 0.11733558E+03</rscale>
<asrwt>0</asrwt>
<pdfrwt beam="2">  1        1 0.22533471E-01 0.12674077E+03</pdfrwt>
<pdfrwt beam="1">  1       -1 0.12931907E-01 0.12674077E+03</pdfrwt>
<totfact> 0.83655160E+03</totfact>
</mgrwt>
</event>
<event>
 8    2  0.1409546E-003  0.1264106E+03  0.7818608E-02  0.1247980E+00
          1   -1    0    0  501    0  0.00000000000E+00  0.00000000000E+00  0.49451300973E+02  0.49451301230E+02  0.50400000000E-02 0. -1.
         -1   -1    0    0    0  501 -0.00000000000E+00 -0.00000000000E+00 -0.24582677793E+03  0.24582677799E+03  0.50400000000E-02 0.  1.
         25    2    1    2    0    0 -0.17168041379E+02 -0.77741054528E+01 -0.98704838590E+02  0.16038168725E+03  0.12499784832E+03 0.  0.
         23    2    1    2    0    0  0.17168041379E+02  0.77741054528E+01 -0.97670638371E+02  0.13489639196E+03  0.91116983073E+02 0.  0.
        -11    1    4    4    0    0  0.13445443903E+02 -0.11644217430E+02 -0.11010969366E+03  0.11153704496E+03  0.51100000000E-03 0.  1.
         11    1    4    4    0    0  0.37225974761E+01  0.19418322883E+02  0.12439055287E+02  0.23359346999E+02  0.51100000000E-03 0. -1.
    9000005    1    3    3    0    0 -0.64534295996E+02 -0.16094504192E+02 -0.89328385183E+02  0.11137445319E+03  0.10000000000E+01 0.  0.
    9000005    1    3    3    0    0  0.47366254617E+02  0.83203987389E+01 -0.93764534071E+01  0.49007234059E+02  0.10000000000E+01 0.  0.
<mgrwt>
<rscale>  0 0.11708778E+03</rscale>
<asrwt>0</asrwt>
<pdfrwt beam="1">  1        1 0.76078927E-02 0.12641060E+03</pdfrwt>
<pdfrwt beam="2">  1       -1 0.37819503E-01 0.12641060E+03</pdfrwt>
<totfact> 0.60062700E+03</totfact>
</mgrwt>
</event>
<event>
 8    2  0.1409546E-003  0.1253475E+03  0.7818608E-02  0.1250282E+00
          1   -1    0    0  501    0  0.00000000000E+00  0.00000000000E+00  0.10989938356E+03  0.10989938367E+03  0.50400000000E-02 0. -1.
         -1   -1    0    0    0  501 -0.00000000000E+00 -0.00000000000E+00 -0.25968999147E+03  0.25968999152E+03  0.50400000000E-02 0.  1.
         25    2    1    2    0    0  0.79845981834E+01  0.49135810101E+01 -0.22090449857E+03  0.25398974897E+03  0.12499639199E+03 0.  0.
         23    2    1    2    0    0 -0.79845981834E+01 -0.49135810101E+01  0.71113890653E+02  0.11559962622E+03  0.90654239014E+02 0.  0.
        -11    1    4    4    0    0  0.30571583115E+02  0.23453168514E+02  0.13804716731E+02  0.40929732613E+02  0.51100000000E-03 0.  1.
         11    1    4    4    0    0 -0.38556181298E+02 -0.28366749524E+02  0.57309173922E+02  0.74669893604E+02  0.51100000000E-03 0. -1.
    9000005    1    3    3    0    0  0.46138336494E+01 -0.22545122067E+02  0.72606813701E+01  0.24151345385E+02  0.10000000000E+01 0.  0.
    9000005    1    3    3    0    0  0.33707645341E+01  0.27458703077E+02 -0.22816517994E+03  0.22983840359E+03  0.10000000000E+01 0.  0.
<mgrwt>
<rscale>  0 0.11574742E+03</rscale>
<asrwt>0</asrwt>
<pdfrwt beam="1">  1        1 0.16907598E-01 0.12534750E+03</pdfrwt>
<pdfrwt beam="2">  1       -1 0.39952306E-01 0.12534750E+03</pdfrwt>
<totfact> 0.19124977E+03</totfact>
</mgrwt>
</event>
<event>
 8    2  0.1409546E-003  0.1310833E+03  0.7818608E-02  0.1239347E+00
         -1   -1    0    0    0  501 -0.00000000000E+00  0.00000000000E+00  0.10548129964E+03  0.10548129976E+03  0.50400000000E-02 0.  1.
          1   -1    0    0  501    0  0.00000000000E+00 -0.00000000000E+00 -0.12639289422E+03  0.12639289432E+03  0.50400000000E-02 0. -1.
         25    2    1    2    0    0  0.37687279709E+02  0.11723180741E+02 -0.42347064075E+01  0.13115169493E+03  0.12500028130E+03 0.  0.
         23    2    1    2    0    0 -0.37687279709E+02 -0.11723180741E+02 -0.16676888177E+02  0.10072249915E+03  0.91154479957E+02 0.  0.
        -11    1    4    4    0    0 -0.25230344454E+02  0.30506121829E+02 -0.35183421461E+02  0.52962882250E+02  0.51100000000E-03 0. -1.
         11    1    4    4    0    0 -0.12456935255E+02 -0.42229302570E+02  0.18506533283E+02  0.47759616895E+02  0.51100000000E-03 0.  1.
    9000005    1    3    3    0    0  0.73987052601E+02 -0.92129478068E+01 -0.31715618163E+02  0.81029888284E+02  0.10000000000E+01 0.  0.
    9000005    1    3    3    0    0 -0.36299772892E+02  0.20936128548E+02  0.27480911755E+02  0.50121806646E+02  0.10000000000E+01 0.  0.
<mgrwt>
<rscale>  0 0.12230189E+03</rscale>
<asrwt>0</asrwt>
<pdfrwt beam="2">  1        1 0.19445061E-01 0.13108331E+03</pdfrwt>
<pdfrwt beam="1">  1       -1 0.16227892E-01 0.13108331E+03</pdfrwt>
<totfact> 0.70910010E+03</totfact>
</mgrwt>
</event>
<event>
 8    2  0.1409546E-003  0.1259381E+03  0.7818608E-02  0.1248951E+00
          1   -1    0    0  501    0  0.00000000000E+00  0.00000000000E+00  0.70369058615E+02  0.70369058795E+02  0.50400000000E-02 0. -1.
         -1   -1    0    0    0  501 -0.00000000000E+00 -0.00000000000E+00 -0.29192941386E+03  0.29192941390E+03  0.50400000000E-02 0.  1.
         25    2    1    2    0    0 -0.24271832717E+01  0.15206957441E+02 -0.40302513967E+01  0.12600261081E+03  0.12499308873E+03 0.  0.
         23    2    1    2    0    0  0.24271832717E+01 -0.15206957441E+02 -0.21753010385E+03  0.23629586189E+03  0.90990359345E+02 0.  0.
        -11    1    4    4    0    0 -0.37190226511E+02 -0.56701671035E+01 -0.16798522569E+03  0.17214615823E+03  0.51100000000E-03 0.  1.
         11    1    4    4    0    0  0.39617409783E+02 -0.95367903375E+01 -0.49544878155E+02  0.64149703659E+02  0.51100000000E-03 0. -1.
    9000005    1    3    3    0    0  0.39574877262E+02  0.51900130421E+02  0.15160828355E+02  0.67012276222E+02  0.10000000000E+01 0.  0.
    9000005    1    3    3    0    0 -0.42002060534E+02 -0.36693172980E+02 -0.19191079752E+02  0.58990334585E+02  0.10000000000E+01 0.  0.
<mgrwt>
<rscale>  0 0.11651984E+03</rscale>
<asrwt>0</asrwt>
<pdfrwt beam="1">  1        1 0.10826009E-01 0.12593814E+03</pdfrwt>
<pdfrwt beam="2">  1       -1 0.44912217E-01 0.12593814E+03</pdfrwt>
<totfact> 0.27766079E+03</totfact>
</mgrwt>
</event>
<event>
 8    2  0.1409546E-003  0.1940409E+03  0.7818608E-02  0.1159127E+00
          1   -1    0    0  501    0  0.00000000000E+00  0.00000000000E+00  0.18258509566E+03  0.18258509573E+03  0.50400000000E-02 0. -1.
         -1   -1    0    0    0  501 -0.00000000000E+00 -0.00000000000E+00 -0.20931053269E+03  0.20931053275E+03  0.50400000000E-02 0.  1.
         25    2    1    2    0    0 -0.61651006301E+02 -0.13500028821E+03 -0.77701686414E+02  0.20902017738E+03  0.12500383228E+03 0.  0.
         23    2    1    2    0    0  0.61651006301E+02  0.13500028821E+03  0.50976249383E+02  0.18287545111E+03  0.93909148758E+02 0.  0.
        -11    1    4    4    0    0 -0.21129229938E+02  0.28715006574E+02  0.29876301616E+02  0.46514399479E+02  0.51100000000E-03 0. -1.
         11    1    4    4    0    0  0.82780236239E+02  0.10628528164E+03  0.21099947767E+02  0.13636105163E+03  0.51100000000E-03 0.  1.
    9000005    1    3    3    0    0 -0.74174450334E+02 -0.34409313224E+02 -0.79631946867E+00  0.81777038609E+02  0.10000000000E+01 0.  0.
    9000005    1    3    3    0    0  0.12523444033E+02 -0.10059097499E+03 -0.76905366945E+02  0.12724313877E+03  0.10000000000E+01 0.  0.
<mgrwt>
<rscale>  0 0.18926393E+03</rscale>
<asrwt>0</asrwt>
<pdfrwt beam="1">  1        1 0.28090015E-01 0.19404093E+03</pdfrwt>
<pdfrwt beam="2">  1       -1 0.32201620E-01 0.19404093E+03</pdfrwt>
<totfact> 0.14775503E+03</totfact>
</mgrwt>
</event>
<event>
 8    2  0.1409546E-003  0.1418139E+03  0.7818608E-02  0.1221575E+00
          1   -1    0    0  501    0  0.00000000000E+00  0.00000000000E+00  0.84015241500E+02  0.84015241651E+02  0.50400000000E-02 0. -1.
         -1   -1    0    0    0  501 -0.00000000000E+00 -0.00000000000E+00 -0.23528781413E+03  0.23528781419E+03  0.50400000000E-02 0.  1.
         25    2    1    2    0    0 -0.10474382171E+02 -0.66161163002E+02 -0.14954204243E+03  0.20609223331E+03  0.12499669598E+03 0.  0.
         23    2    1    2    0    0  0.10474382171E+02  0.66161163002E+02 -0.17305302048E+01  0.11321082252E+03  0.91250662629E+02 0.  0.
        -11    1    4    4    0    0 -0.15878878309E+02  0.77113864698E+02 -0.17431263788E+02  0.80638302701E+02  0.51100000000E-03 0. -1.
         11    1    4    4    0    0  0.26353260480E+02 -0.10952701696E+02  0.15700733583E+02  0.32572519823E+02  0.51100000000E-03 0.  1.
    9000005    1    3    3    0    0  0.38963379322E+02 -0.14875206394E+02 -0.14362591583E+01  0.41743017785E+02  0.10000000000E+01 0.  0.
    9000005    1    3    3    0    0 -0.49437761493E+02 -0.51285956608E+02 -0.14810578327E+03  0.16434921553E+03  0.10000000000E+01 0.  0.
<mgrwt>
<rscale>  0 0.13404433E+03</rscale>
<asrwt>0</asrwt>
<pdfrwt beam="1">  1        1 0.12925422E-01 0.14181391E+03</pdfrwt>
<pdfrwt beam="2">  1       -1 0.36198125E-01 0.14181391E+03</pdfrwt>
<totfact> 0.32326961E+03</totfact>
</mgrwt>
</event>
<event>
 8    2  0.1409546E-003  0.1531433E+03  0.7818608E-02  0.1205431E+00
         -1   -1    0    0    0  501 -0.00000000000E+00  0.00000000000E+00  0.12498319529E+03  0.12498319540E+03  0.50400000000E-02 0.  1.
          1   -1    0    0  501    0  0.00000000000E+00 -0.00000000000E+00 -0.16004581187E+03  0.16004581195E+03  0.50400000000E-02 0. -1.
         25    2    1    2    0    0  0.49549439670E+02 -0.73295226504E+02  0.17551547116E+01  0.15315335991E+03  0.12500213552E+03 0.  0.
         23    2    1    2    0    0 -0.49549439670E+02  0.73295226504E+02 -0.36817771292E+02  0.13187564744E+03  0.90599673861E+02 0.  0.
        -11    1    4    4    0    0 -0.36571043627E+00  0.49090374587E+01  0.26211149926E+02  0.26669397699E+02  0.51100000000E-03 0.  1.
         11    1    4    4    0    0 -0.49183729234E+02  0.68386189045E+02 -0.63028921218E+02  0.10520624974E+03  0.51100000000E-03 0. -1.
    9000005    1    3    3    0    0  0.18026990491E+01 -0.70095627470E+02 -0.47322698381E+02  0.84599553760E+02  0.10000000000E+01 0.  0.
    9000005    1    3    3    0    0  0.47746740621E+02 -0.31995990341E+01  0.49077853093E+02  0.68553806153E+02  0.10000000000E+01 0.  0.
<mgrwt>
<rscale>  0 0.14603578E+03</rscale>
<asrwt>0</asrwt>
<pdfrwt beam="2">  1        1 0.24622433E-01 0.15314330E+03</pdfrwt>
<pdfrwt beam="1">  1       -1 0.19228184E-01 0.15314330E+03</pdfrwt>
<totfact> 0.40554082E+03</totfact>
</mgrwt>
</event>
<event>
 8    2  0.1409546E-003  0.1432241E+03  0.7818608E-02  0.1219285E+00
         -1   -1    0    0    0  501 -0.00000000000E+00  0.00000000000E+00  0.34971705440E+03  0.34971705443E+03  0.50400000000E-02 0.  1.
          1   -1    0    0  501    0  0.00000000000E+00 -0.00000000000E+00 -0.47776409368E+02  0.47776409634E+02  0.50400000000E-02 0. -1.
         25    2    1    2    0    0 -0.42351488632E+02 -0.55619579753E+02  0.16742908606E+03  0.22033077333E+03  0.12500385824E+03 0.  0.
         23    2    1    2    0    0  0.42351488632E+02  0.55619579753E+02  0.13451155897E+03  0.17716269074E+03  0.91684640218E+02 0.  0.
        -11    1    4    4    0    0 -0.69104978744E+01  0.57101415690E+02  0.10498984822E+03  0.11971296873E+03  0.51100000000E-03 0.  1.
         11    1    4    4    0    0  0.49261986507E+02 -0.14818359376E+01  0.29521710759E+02  0.57449722007E+02  0.51100000000E-03 0. -1.
    9000005    1    3    3    0    0  0.31854479976E+02 -0.34294609053E-01  0.35866244339E+01  0.32071372679E+02  0.10000000000E+01 0.  0.
    9000005    1    3    3    0    0 -0.74205968609E+02 -0.55585285144E+02  0.16384246162E+03  0.18825940065E+03  0.10000000000E+01 0.  0.
<mgrwt>
<rscale>  0 0.13566446E+03</rscale>
<asrwt>0</asrwt>
<pdfrwt beam="2">  1        1 0.73502168E-02 0.14322413E+03</pdfrwt>
<pdfrwt beam="1">  1       -1 0.53802624E-01 0.14322413E+03</pdfrwt>
<totfact> 0.33730729E+03</totfact>
</mgrwt>
</event>
<event>
 8    2  0.1409546E-003  0.1379651E+03  0.7818608E-02  0.1227702E+00
          1   -1    0    0  501    0  0.00000000000E+00  0.00000000000E+00  0.78295925334E+03  0.78295925336E+03  0.50400000000E-02 0. -1.
         -1   -1    0    0    0  501 -0.00000000000E+00 -0.00000000000E+00 -0.19548591158E+02  0.19548591808E+02  0.50400000000E-02 0.  1.
         25    2    1    2    0    0  0.45696943544E+02 -0.36347509476E+02  0.46757970277E+03  0.48750912048E+03  0.12500004807E+03 0.  0.
         23    2    1    2    0    0 -0.45696943544E+02  0.36347509476E+02  0.29583095942E+03  0.31499872469E+03  0.91098232202E+02 0.  0.
        -11    1    4    4    0    0  0.32923703236E+01  0.13434013206E+02 -0.43342046083E+00  0.13838362140E+02  0.51100000000E-03 0.  1.
         11    1    4    4    0    0 -0.48989313867E+02  0.22913496270E+02  0.29626437988E+03  0.30116036255E+03  0.51100000000E-03 0. -1.
    9000005    1    3    3    0    0  0.16323182257E+02  0.40830055935E+02  0.26691864452E+03  0.27051821111E+03  0.10000000000E+01 0.  0.
    9000005    1    3    3    0    0  0.29373761286E+02 -0.77177565411E+02  0.20066105824E+03  0.21699090937E+03  0.10000000000E+01 0.  0.
<mgrwt>
<rscale>  0 0.12983397E+03</rscale>
<asrwt>0</asrwt>
<pdfrwt beam="1">  1        1 0.12045527E+00 0.13796508E+03</pdfrwt>
<pdfrwt beam="2">  1       -1 0.30074756E-02 0.13796508E+03</pdfrwt>
<totfact> 0.86243983E+03</totfact>
</mgrwt>
</event>
<event>
 8    2  0.1409546E-003  0.1901099E+03  0.7818608E-02  0.1163308E+00
          1   -1    0    0  501    0  0.00000000000E+00  0.00000000000E+00  0.10775776027E+02  0.10775777206E+02  0.50400000000E-02 0. -1.
         -1   -1    0    0    0  501 -0.00000000000E+00 -0.00000000000E+00 -0.36765467994E+04  0.36765467994E+04  0.50400000000E-02 0.  1.
         25    2    1    2    0    0 -0.11335187798E+03  0.87566994253E+02 -0.11287288300E+04  0.11446268084E+04  0.12500052845E+03 0.  0.
         23    2    1    2    0    0  0.11335187798E+03 -0.87566994253E+02 -0.25370421934E+04  0.25426957682E+04  0.90565180863E+02 0.  0.
        -11    1    4    4    0    0  0.60256531171E+02 -0.96436491907E+02 -0.15331226637E+04  0.15373340393E+04  0.51100000000E-03 0.  1.
         11    1    4    4    0    0  0.53095346811E+02  0.88694976541E+01 -0.10039195297E+04  0.10053617289E+04  0.51100000000E-03 0. -1.
    9000005    1    3    3    0    0 -0.77169082362E+02  0.10153820817E+03 -0.10399302894E+04  0.10477218533E+04  0.10000000000E+01 0.  0.
    9000005    1    3    3    0    0 -0.36182795620E+02 -0.13971213912E+02 -0.88798540543E+02  0.96904955083E+02  0.10000000000E+01 0.  0.
<mgrwt>
<rscale>  0 0.18472430E+03</rscale>
<asrwt>0</asrwt>
<pdfrwt beam="1">  1        1 0.16578147E-02 0.19010986E+03</pdfrwt>
<pdfrwt beam="2">  1       -1 0.56562159E+00 0.19010986E+03</pdfrwt>
<totfact> 0.59139407E+00</totfact>
</mgrwt>
</event>
<event>
 8    2  0.1409546E-003  0.2327025E+03  0.7818608E-02  0.1127748E+00
         -1   -1    0    0    0  501 -0.00000000000E+00  0.00000000000E+00  0.29756867842E+03  0.29756867846E+03  0.50400000000E-02 0.  1.
          1   -1    0    0  501    0  0.00000000000E+00 -0.00000000000E+00 -0.19514743205E+03  0.19514743211E+03  0.50400000000E-02 0. -1.
         25    2    1    2    0    0  0.13756713549E+03  0.14000385558E+03  0.14261025868E+03  0.27292514959E+03  0.12499862021E+03 0.  0.
         23    2    1    2    0    0 -0.13756713549E+03 -0.14000385558E+03 -0.40189012314E+02  0.21979096098E+03  0.90372083492E+02 0.  0.
        -11    1    4    4    0    0 -0.47992884254E+02 -0.85817274089E+02 -0.57163928974E+02  0.11373493855E+03  0.51100000000E-03 0. -1.
         11    1    4    4    0    0 -0.89574251235E+02 -0.54186581487E+02  0.16974916660E+02  0.10605602243E+03  0.51100000000E-03 0.  1.
    9000005    1    3    3    0    0  0.13289366409E+03  0.52835873306E+02  0.10713656475E+03  0.17869414923E+03  0.10000000000E+01 0.  0.
    9000005    1    3    3    0    0  0.46734713994E+01  0.87167982269E+02  0.35473693936E+02  0.94231000362E+02  0.10000000000E+01 0.  0.
<mgrwt>
<rscale>  0 0.22843211E+03</rscale>
<asrwt>0</asrwt>
<pdfrwt beam="2">  1        1 0.30022682E-01 0.23270250E+03</pdfrwt>
<pdfrwt beam="1">  1       -1 0.45779797E-01 0.23270250E+03</pdfrwt>
<totfact> 0.73292695E+02</totfact>
</mgrwt>
</event>
<event>
 8    2  0.1409546E-003  0.1515806E+03  0.7818608E-02  0.1204847E+00
          1   -1    0    0  501    0  0.00000000000E+00  0.00000000000E+00  0.33099963065E+03  0.33099963069E+03  0.50400000000E-02 0. -1.
         -1   -1    0    0    0  501 -0.00000000000E+00 -0.00000000000E+00 -0.64624138509E+02  0.64624138706E+02  0.50400000000E-02 0.  1.
         25    2    1    2    0    0  0.73869654962E+02 -0.43532017245E+02  0.18948134975E+03  0.24265170492E+03  0.12499962219E+03 0.  0.
         23    2    1    2    0    0 -0.73869654962E+02  0.43532017245E+02  0.76894142393E+02  0.15297206447E+03  0.10067760886E+03 0.  0.
        -11    1    4    4    0    0 -0.46999746016E+02  0.66048247331E+02  0.15881257949E+02  0.82604851282E+02  0.51100000000E-03 0.  1.
         11    1    4    4    0    0 -0.26869908947E+02 -0.22516230086E+02  0.61012884444E+02  0.70367213193E+02  0.51100000000E-03 0. -1.
    9000005    1    3    3    0    0  0.64224986022E+02  0.34147008303E+02  0.80941127259E+02  0.10882707883E+03  0.10000000000E+01 0.  0.
    9000005    1    3    3    0    0  0.96446689407E+01 -0.77679025548E+02  0.10854022249E+03  0.13382462609E+03  0.10000000000E+01 0.  0.
<mgrwt>
<rscale>  0 0.14649553E+03</rscale>
<asrwt>0</asrwt>
<pdfrwt beam="1">  1        1 0.50923021E-01 0.15158057E+03</pdfrwt>
<pdfrwt beam="2">  1       -1 0.99421750E-02 0.15158057E+03</pdfrwt>
<totfact> 0.45982859E+03</totfact>
</mgrwt>
</event>
<event>
 8    2  0.1409546E-003  0.1346164E+03  0.7818608E-02  0.1233405E+00
          1   -1    0    0  501    0  0.00000000000E+00  0.00000000000E+00  0.85549996128E+03  0.85549996130E+03  0.50400000000E-02 0. -1.
         -1   -1    0    0    0  501 -0.00000000000E+00 -0.00000000000E+00 -0.17683711315E+02  0.17683712033E+02  0.50400000000E-02 0.  1.
         25    2    1    2    0    0  0.49811621203E+02 -0.40080353364E+01  0.57848176171E+03  0.59393832467E+03  0.12499729169E+03 0.  0.
         23    2    1    2    0    0 -0.49811621203E+02  0.40080353364E+01  0.25933448826E+03  0.27924534866E+03  0.90699095878E+02 0.  0.
        -11    1    4    4    0    0 -0.37128976115E+02 -0.25886327408E+02  0.23322737922E+03  0.23757877269E+03  0.51100000000E-03 0. -1.
         11    1    4    4    0    0 -0.12682645089E+02  0.29894362744E+02  0.26107109033E+02  0.41666575966E+02  0.51100000000E-03 0.  1.
    9000005    1    3    3    0    0  0.56472233933E+02 -0.40594949767E+02  0.51996930052E+03  0.52460093083E+03  0.10000000000E+01 0.  0.
    9000005    1    3    3    0    0 -0.66606127301E+01  0.36586914431E+02  0.58512461196E+02  0.69337393841E+02  0.10000000000E+01 0.  0.
<mgrwt>
<rscale>  0 0.12607126E+03</rscale>
<asrwt>0</asrwt>
<pdfrwt beam="1">  1        1 0.13161537E+00 0.13461644E+03</pdfrwt>
<pdfrwt beam="2">  1       -1 0.27205711E-02 0.13461644E+03</pdfrwt>
<totfact> 0.87067019E+03</totfact>
</mgrwt>
</event>
<event>
 8    2  0.1409546E-003  0.1276805E+03  0.7818608E-02  0.1246180E+00
          1   -1    0    0  501    0  0.00000000000E+00  0.00000000000E+00  0.79997609564E+02  0.79997609722E+02  0.50400000000E-02 0. -1.
         -1   -1    0    0    0  501 -0.00000000000E+00 -0.00000000000E+00 -0.16906709633E+03  0.16906709641E+03  0.50400000000E-02 0.  1.
         25    2    1    2    0    0  0.54897042633E+01  0.25417499123E+02 -0.12818016610E+02  0.12832232367E+03  0.12500452427E+03 0.  0.
         23    2    1    2    0    0 -0.54897042633E+01 -0.25417499123E+02 -0.76251470159E+02  0.12074238246E+03  0.89934699122E+02 0.  0.
        -11    1    4    4    0    0 -0.75845284925E+00  0.33228638840E+02 -0.38377543570E+02  0.50769612374E+02  0.51100000000E-03 0.  1.
         11    1    4    4    0    0 -0.47312514141E+01 -0.58646137963E+02 -0.37873926589E+02  0.69972770086E+02  0.51100000000E-03 0. -1.
    9000005    1    3    3    0    0 -0.20839918638E+02  0.50855863594E+02  0.37167403437E+02  0.66355383723E+02  0.10000000000E+01 0.  0.
    9000005    1    3    3    0    0  0.26329622901E+02 -0.25438364472E+02 -0.49985420047E+02  0.61966939947E+02  0.10000000000E+01 0.  0.
<mgrwt>
<rscale>  0 0.11815007E+03</rscale>
<asrwt>0</asrwt>
<pdfrwt beam="1">  1        1 0.12307325E-01 0.12768053E+03</pdfrwt>
<pdfrwt beam="2">  1       -1 0.26010322E-01 0.12768053E+03</pdfrwt>
<totfact> 0.59772288E+03</totfact>
</mgrwt>
</event>
<event>
 8    2  0.1409546E-003  0.1277110E+03  0.7818608E-02  0.1245582E+00
         -1   -1    0    0    0  501 -0.00000000000E+00  0.00000000000E+00  0.50423395452E+02  0.50423395703E+02  0.50400000000E-02 0.  1.
          1   -1    0    0  501    0  0.00000000000E+00 -0.00000000000E+00 -0.25650394709E+03  0.25650394714E+03  0.50400000000E-02 0. -1.
         25    2    1    2    0    0  0.20870772325E+02 -0.15800856771E+02 -0.85824409224E+02  0.15386980553E+03  0.12499932649E+03 0.  0.
         23    2    1    2    0    0 -0.20870772325E+02  0.15800856771E+02 -0.12025614242E+03  0.15305753731E+03  0.90993481783E+02 0.  0.
        -11    1    4    4    0    0 -0.15513812809E+02  0.33818149199E+02 -0.12757215082E+03  0.13288716744E+03  0.51100000000E-03 0. -1.
         11    1    4    4    0    0 -0.53569595165E+01 -0.18017292428E+02  0.73160084063E+01  0.20170369877E+02  0.51100000000E-03 0.  1.
    9000005    1    3    3    0    0  0.33172603037E+02 -0.59668834405E+02 -0.15408960073E+02  0.69994481511E+02  0.10000000000E+01 0.  0.
    9000005    1    3    3    0    0 -0.12301830712E+02  0.43867977634E+02 -0.70415449151E+02  0.83875324021E+02  0.10000000000E+01 0.  0.
<mgrwt>
<rscale>  0 0.11850600E+03</rscale>
<asrwt>0</asrwt>
<pdfrwt beam="2">  1        1 0.39462145E-01 0.12771095E+03</pdfrwt>
<pdfrwt beam="1">  1       -1 0.77574456E-02 0.12771095E+03</pdfrwt>
<totfact> 0.90876350E+03</totfact>
</mgrwt>
</event>
<event>
 8    2  0.1409546E-003  0.2357701E+03  0.7818608E-02  0.1125523E+00
         -1   -1    0    0    0  501 -0.00000000000E+00  0.00000000000E+00  0.14346190733E+03  0.14346190742E+03  0.50400000000E-02 0.  1.
          1   -1    0    0  501    0  0.00000000000E+00 -0.00000000000E+00 -0.37491391027E+03  0.37491391030E+03  0.50400000000E-02 0. -1.
         25    2    1    2    0    0 -0.16546344111E+03 -0.11219413266E+03 -0.70168023935E+02  0.24599002912E+03  0.12498747577E+03 0.  0.
         23    2    1    2    0    0  0.16546344111E+03  0.11219413266E+03 -0.16128397900E+03  0.27238578860E+03  0.90641172775E+02 0.  0.
        -11    1    4    4    0    0  0.24558188530E+02  0.16729061372E+00  0.74421715492E+01  0.25661615842E+02  0.51100000000E-03 0.  1.
         11    1    4    4    0    0  0.14090525258E+03  0.11202684205E+03 -0.16872615055E+03  0.24672417276E+03  0.51100000000E-03 0. -1.
    9000005    1    3    3    0    0 -0.17998663987E+03 -0.86664256953E+02 -0.79722279536E+02  0.21508725164E+03  0.10000000000E+01 0.  0.
    9000005    1    3    3    0    0  0.14523198763E+02 -0.25529875707E+02  0.95542556007E+01  0.30902777480E+02  0.10000000000E+01 0.  0.
<mgrwt>
<rscale>  0 0.23159362E+03</rscale>
<asrwt>0</asrwt>
<pdfrwt beam="2">  1        1 0.57679063E-01 0.23577011E+03</pdfrwt>
<pdfrwt beam="1">  1       -1 0.22071063E-01 0.23577011E+03</pdfrwt>
<totfact> 0.11287887E+03</totfact>
</mgrwt>
</event>
<event>
 8    2  0.1409546E-003  0.1470594E+03  0.7818608E-02  0.1213851E+00
          1   -1    0    0  501    0  0.00000000000E+00  0.00000000000E+00  0.16677967774E+04  0.16677967774E+04  0.50400000000E-02 0. -1.
         -1   -1    0    0    0  501 -0.00000000000E+00 -0.00000000000E+00 -0.10792286278E+02  0.10792287454E+02  0.50400000000E-02 0.  1.
         25    2    1    2    0    0  0.56122187708E+02  0.53399528366E+02  0.81652532431E+03  0.82966262211E+03  0.12500100684E+03 0.  0.
         23    2    1    2    0    0 -0.56122187708E+02 -0.53399528366E+02  0.84047916680E+03  0.84892644273E+03  0.90937702675E+02 0.  0.
        -11    1    4    4    0    0 -0.27086895746E+02 -0.85422461615E+01  0.66227110456E+03  0.66287984267E+03  0.51100000000E-03 0.  1.
         11    1    4    4    0    0 -0.29035291962E+02 -0.44857282205E+02  0.17820806224E+03  0.18604660006E+03  0.51100000000E-03 0. -1.
    9000005    1    3    3    0    0  0.74893199870E+02 -0.14610103563E+02  0.44517710105E+03  0.45167034196E+03  0.10000000000E+01 0.  0.
    9000005    1    3    3    0    0 -0.18771012162E+02  0.68009631929E+02  0.37134822326E+03  0.37799228015E+03  0.10000000000E+01 0.  0.
<mgrwt>
<rscale>  0 0.13961301E+03</rscale>
<asrwt>0</asrwt>
<pdfrwt beam="1">  1        1 0.25658402E+00 0.14705938E+03</pdfrwt>
<pdfrwt beam="2">  1       -1 0.16603525E-02 0.14705938E+03</pdfrwt>
<totfact> 0.49329793E+03</totfact>
</mgrwt>
</event>
<event>
 8    2  0.1409546E-003  0.2049479E+03  0.7818608E-02  0.1151061E+00
         -1   -1    0    0    0  501 -0.00000000000E+00  0.00000000000E+00  0.69205475188E+03  0.69205475190E+03  0.50400000000E-02 0.  1.
          1   -1    0    0  501    0  0.00000000000E+00 -0.00000000000E+00 -0.53710545724E+02  0.53710545961E+02  0.50400000000E-02 0. -1.
         25    2    1    2    0    0  0.16174553019E+03 -0.14765837598E+02  0.35882043406E+03  0.41322602205E+03  0.12499597955E+03 0.  0.
         23    2    1    2    0    0 -0.16174553019E+03  0.14765837598E+02  0.27952377209E+03  0.33253927581E+03  0.77904969624E+02 0.  0.
        -11    1    4    4    0    0 -0.33139879296E+02  0.30024446272E+02  0.11340218366E+03  0.12190067363E+03  0.51100000000E-03 0.  1.
         11    1    4    4    0    0 -0.12860565090E+03 -0.15258608674E+02  0.16612158844E+03  0.21063860218E+03  0.51100000000E-03 0. -1.
    9000005    1    3    3    0    0  0.18178523862E+03 -0.32626853059E+01  0.31896465981E+03  0.36714570991E+03  0.10000000000E+01 0.  0.
    9000005    1    3    3    0    0 -0.20039708423E+02 -0.11503152293E+02  0.39855774252E+02  0.46080312147E+02  0.10000000000E+01 0.  0.
<mgrwt>
<rscale>  0 0.19844149E+03</rscale>
<asrwt>0</asrwt>
<pdfrwt beam="2">  1        1 0.82631614E-02 0.20494790E+03</pdfrwt>
<pdfrwt beam="1">  1       -1 0.10646995E+00 0.20494790E+03</pdfrwt>
<totfact> 0.72516115E+02</totfact>
</mgrwt>
</event>
<event>
 8    2  0.1409546E-003  0.1281026E+03  0.7818608E-02  0.1244385E+00
          1   -1    0    0  501    0  0.00000000000E+00  0.00000000000E+00  0.13783636527E+03  0.13783636537E+03  0.50400000000E-02 0. -1.
         -1   -1    0    0    0  501 -0.00000000000E+00 -0.00000000000E+00 -0.10149072518E+03  0.10149072531E+03  0.50400000000E-02 0.  1.
         25    2    1    2    0    0  0.12880618299E+02  0.24884237037E+02  0.58296549303E+02  0.14074357984E+03  0.12500052810E+03 0.  0.
         23    2    1    2    0    0 -0.12880618299E+02 -0.24884237037E+02 -0.21950909208E+02  0.98583510830E+02  0.91933294360E+02 0.  0.
        -11    1    4    4    0    0 -0.28539200289E+02  0.27196350931E+01 -0.49075329677E+02  0.56835467372E+02  0.51100000000E-03 0.  1.
         11    1    4    4    0    0  0.15658581991E+02 -0.27603872130E+02  0.27124420469E+02  0.41748043458E+02  0.51100000000E-03 0. -1.
    9000005    1    3    3    0    0 -0.26146335258E+02 -0.32983967048E+02  0.57079851005E+02  0.70927303067E+02  0.10000000000E+01 0.  0.
    9000005    1    3    3    0    0  0.39026953556E+02  0.57868204085E+02  0.12166982977E+01  0.69816276775E+02  0.10000000000E+01 0.  0.
<mgrwt>
<rscale>  0 0.11922270E+03</rscale>
<asrwt>0</asrwt>
<pdfrwt beam="1">  1        1 0.21205595E-01 0.12810257E+03</pdfrwt>
<pdfrwt beam="2">  1       -1 0.15613958E-01 0.12810257E+03</pdfrwt>
<totfact> 0.67386740E+03</totfact>
</mgrwt>
</event>
<event>
 8    2  0.1409546E-003  0.1465523E+03  0.7818608E-02  0.1214307E+00
         -1   -1    0    0    0  501 -0.00000000000E+00  0.00000000000E+00  0.16018410120E+02  0.16018410913E+02  0.50400000000E-02 0.  1.
          1   -1    0    0  501    0  0.00000000000E+00 -0.00000000000E+00 -0.11055088065E+04  0.11055088065E+04  0.50400000000E-02 0. -1.
         25    2    1    2    0    0  0.74090666026E+02 -0.18906162852E+02 -0.61089096701E+03  0.62822396555E+03  0.12502282804E+03 0.  0.
         23    2    1    2    0    0 -0.74090666026E+02  0.18906162852E+02 -0.47859942934E+03  0.49330325185E+03  0.91890231959E+02 0.  0.
        -11    1    4    4    0    0 -0.61378503731E+02 -0.26044827833E+02 -0.20018044723E+03  0.21099257151E+03  0.51100000000E-03 0.  1.
         11    1    4    4    0    0 -0.12712162295E+02  0.44950990685E+02 -0.27841898211E+03  0.28231068034E+03  0.51100000000E-03 0. -1.
    9000005    1    3    3    0    0  0.46986883538E+02 -0.74242007342E+01 -0.60138665490E+02  0.76684712088E+02  0.10000000000E+01 0.  0.
    9000005    1    3    3    0    0  0.27103782488E+02 -0.11481962118E+02 -0.55075230152E+03  0.55153925346E+03  0.10000000000E+01 0.  0.
<mgrwt>
<rscale>  0 0.13927594E+03</rscale>
<asrwt>0</asrwt>
<pdfrwt beam="2">  1        1 0.17007822E+00 0.14655230E+03</pdfrwt>
<pdfrwt beam="1">  1       -1 0.24643717E-02 0.14655230E+03</pdfrwt>
<totfact> 0.65861906E+03</totfact>
</mgrwt>
</event>
<event>
 8    2  0.1409546E-003  0.1440483E+03  0.7818608E-02  0.1218080E+00
          1   -1    0    0  501    0  0.00000000000E+00  0.00000000000E+00  0.30989383181E+03  0.30989383185E+03  0.50400000000E-02 0. -1.
         -1   -1    0    0    0  501 -0.00000000000E+00 -0.00000000000E+00 -0.54774262684E+02  0.54774262916E+02  0.50400000000E-02 0.  1.
         25    2    1    2    0    0 -0.58778853981E+02 -0.40892312206E+02  0.14959721643E+03  0.20767578698E+03  0.12499108153E+03 0.  0.
         23    2    1    2    0    0  0.58778853981E+02  0.40892312206E+02  0.10552235269E+03  0.15699230778E+03  0.91566822111E+02 0.  0.
        -11    1    4    4    0    0  0.13958649965E+02  0.22219703004E+02  0.10521424413E+03  0.10843706137E+03  0.51100000000E-03 0. -1.
         11    1    4    4    0    0  0.44820204016E+02  0.18672609202E+02  0.30810855818E+00  0.48555246407E+02  0.51100000000E-03 0.  1.
    9000005    1    3    3    0    0 -0.70038053512E+02  0.27112967532E+02  0.78263153991E+02  0.10847379048E+03  0.10000000000E+01 0.  0.
    9000005    1    3    3    0    0  0.11259199530E+02 -0.68005279739E+02  0.71334062440E+02  0.99201996505E+02  0.10000000000E+01 0.  0.
<mgrwt>
<rscale>  0 0.13652729E+03</rscale>
<asrwt>0</asrwt>
<pdfrwt beam="1">  1        1 0.47675974E-01 0.14404827E+03</pdfrwt>
<pdfrwt beam="2">  1       -1 0.84268097E-02 0.14404827E+03</pdfrwt>
<totfact> 0.64011968E+03</totfact>
</mgrwt>
</event>
<event>
 8    2  0.1409546E-003  0.1250941E+03  0.7818608E-02  0.1250808E+00
          1   -1    0    0  501    0  0.00000000000E+00  0.00000000000E+00  0.10729344609E+04  0.10729344609E+04  0.50400000000E-02 0. -1.
         -1   -1    0    0    0  501 -0.00000000000E+00 -0.00000000000E+00 -0.10910813295E+02  0.10910814459E+02  0.50400000000E-02 0.  1.
         25    2    1    2    0    0  0.27336715919E+01 -0.40245111523E+01  0.57644904189E+03  0.58986612125E+03  0.12499949379E+03 0.  0.
         23    2    1    2    0    0 -0.27336715919E+01  0.40245111523E+01  0.48557460567E+03  0.49397915408E+03  0.90603738023E+02 0.  0.
        -11    1    4    4    0    0  0.39502542878E+02 -0.17179786632E+02  0.20857245295E+03  0.21297432730E+03  0.51100000000E-03 0. -1.
         11    1    4    4    0    0 -0.42236214470E+02  0.21204297785E+02  0.27700215273E+03  0.28100482678E+03  0.51100000000E-03 0.  1.
    9000005    1    3    3    0    0 -0.47684967519E+02 -0.29304626614E+02  0.15782524410E+03  0.16745872609E+03  0.10000000000E+01 0.  0.
    9000005    1    3    3    0    0  0.50418639111E+02  0.25280115461E+02  0.41862379779E+03  0.42240739516E+03  0.10000000000E+01 0.  0.
<mgrwt>
<rscale>  0 0.11544378E+03</rscale>
<asrwt>0</asrwt>
<pdfrwt beam="1">  1        1 0.16506682E+00 0.12509414E+03</pdfrwt>
<pdfrwt beam="2">  1       -1 0.16785869E-02 0.12509414E+03</pdfrwt>
<totfact> 0.11986013E+04</totfact>
</mgrwt>
</event>
<event>
 8    2  0.1409546E-003  0.2089795E+03  0.7818608E-02  0.1145915E+00
          1   -1    0    0  501    0  0.00000000000E+00  0.00000000000E+00  0.34292446431E+03  0.34292446434E+03  0.50400000000E-02 0. -1.
         -1   -1    0    0    0  501 -0.00000000000E+00 -0.00000000000E+00 -0.20887335738E+03  0.20887335745E+03  0.50400000000E-02 0.  1.
         25    2    1    2    0    0  0.80129576836E+02  0.14705874302E+03 -0.11405153754E+03  0.23807604374E+03  0.12500170560E+03 0.  0.
         23    2    1    2    0    0 -0.80129576836E+02 -0.14705874302E+03  0.24810264447E+03  0.31372177805E+03  0.93911707721E+02 0.  0.
        -11    1    4    4    0    0 -0.87677737076E+02 -0.11737834544E+03  0.14486019704E+03  0.20603285720E+03  0.51100000000E-03 0.  1.
         11    1    4    4    0    0  0.75481602402E+01 -0.29680397579E+02  0.10324244742E+03  0.10768892085E+03  0.51100000000E-03 0. -1.
    9000005    1    3    3    0    0 -0.17734386675E+02 -0.94891470238E+01  0.16312359366E+01  0.20204289462E+02  0.10000000000E+01 0.  0.
    9000005    1    3    3    0    0  0.97863963512E+02  0.15654789005E+03 -0.11568277348E+03  0.21787175428E+03  0.10000000000E+01 0.  0.
<mgrwt>
<rscale>  0 0.20460051E+03</rscale>
<asrwt>0</asrwt>
<pdfrwt beam="1">  1        1 0.52757609E-01 0.20897954E+03</pdfrwt>
<pdfrwt beam="2">  1       -1 0.32134363E-01 0.20897954E+03</pdfrwt>
<totfact> 0.67311735E+02</totfact>
</mgrwt>
</event>
<event>
 8    2  0.1409546E-003  0.1256331E+03  0.7818608E-02  0.1249931E+00
         -1   -1    0    0    0  501 -0.00000000000E+00  0.00000000000E+00  0.11215027996E+02  0.11215029129E+02  0.50400000000E-02 0.  1.
          1   -1    0    0  501    0  0.00000000000E+00 -0.00000000000E+00 -0.10583307594E+04  0.10583307595E+04  0.50400000000E-02 0. -1.
         25    2    1    2    0    0  0.54082164142E+01 -0.11351933307E+02 -0.65908787752E+03  0.67095492063E+03  0.12500224008E+03 0.  0.
         23    2    1    2    0    0 -0.54082164142E+01  0.11351933307E+02 -0.38802785392E+03  0.39859086795E+03  0.90282608520E+02 0.  0.
        -11    1    4    4    0    0  0.16933256691E+02  0.18902807500E+02 -0.27992629693E+02  0.37784105533E+02  0.51100000000E-03 0.  1.
         11    1    4    4    0    0 -0.22341473105E+02 -0.75508741928E+01 -0.36003522423E+03  0.36080676242E+03  0.51100000000E-03 0. -1.
    9000005    1    3    3    0    0 -0.40580004859E+01 -0.58881920215E+02 -0.18024993220E+03  0.18966967590E+03  0.10000000000E+01 0.  0.
    9000005    1    3    3    0    0  0.94662169002E+01  0.47529986908E+02 -0.47883794532E+03  0.48128524473E+03  0.10000000000E+01 0.  0.
<mgrwt>
<rscale>  0 0.11595035E+03</rscale>
<asrwt>0</asrwt>
<pdfrwt beam="2">  1        1 0.16282004E+00 0.12563310E+03</pdfrwt>
<pdfrwt beam="1">  1       -1 0.17253898E-02 0.12563310E+03</pdfrwt>
<totfact> 0.11804175E+04</totfact>
</mgrwt>
</event>
<event>
 8    2  0.1409546E-003  0.1392636E+03  0.7818608E-02  0.1224196E+00
         -1   -1    0    0    0  501 -0.00000000000E+00  0.00000000000E+00  0.26099126462E+03  0.26099126467E+03  0.50400000000E-02 0.  1.
          1   -1    0    0  501    0  0.00000000000E+00 -0.00000000000E+00 -0.68149307138E+02  0.68149307324E+02  0.50400000000E-02 0. -1.
         25    2    1    2    0    0  0.36320032511E+02 -0.49502175583E+02  0.15826643094E+03  0.21081419066E+03  0.12499899868E+03 0.  0.
         23    2    1    2    0    0 -0.36320032511E+02  0.49502175583E+02  0.34575526546E+02  0.11832638134E+03  0.95058168167E+02 0.  0.
        -11    1    4    4    0    0 -0.31250023376E+02  0.61580923705E+02 -0.11869839380E+02  0.70069017494E+02  0.51100000000E-03 0. -1.
         11    1    4    4    0    0 -0.50700091344E+01 -0.12078748122E+02  0.46445365926E+02  0.48257363843E+02  0.51100000000E-03 0.  1.
    9000005    1    3    3    0    0 -0.34670551865E+02 -0.58082636174E+02  0.80902160137E+02  0.10545994171E+03  0.10000000000E+01 0.  0.
    9000005    1    3    3    0    0  0.70990584376E+02  0.85804605917E+01  0.77364270804E+02  0.10535424895E+03  0.10000000000E+01 0.  0.
<mgrwt>
<rscale>  0 0.13222195E+03</rscale>
<asrwt>0</asrwt>
<pdfrwt beam="2">  1        1 0.10484509E-01 0.13926363E+03</pdfrwt>
<pdfrwt beam="1">  1       -1 0.40152503E-01 0.13926363E+03</pdfrwt>
<totfact> 0.35512338E+03</totfact>
</mgrwt>
</event>
<event>
 8    2  0.1409546E-003  0.1361259E+03  0.7818608E-02  0.1230408E+00
         -1   -1    0    0    0  501 -0.00000000000E+00  0.00000000000E+00  0.94591832309E+02  0.94591832443E+02  0.50400000000E-02 0.  1.
          1   -1    0    0  501    0  0.00000000000E+00 -0.00000000000E+00 -0.15595707073E+03  0.15595707081E+03  0.50400000000E-02 0. -1.
         25    2    1    2    0    0  0.49498888976E+02  0.21341566464E+02 -0.28539542928E+02  0.13908544477E+03  0.12499861186E+03 0.  0.
         23    2    1    2    0    0 -0.49498888976E+02 -0.21341566464E+02 -0.32825695488E+02  0.11146345848E+03  0.91874772508E+02 0.  0.
        -11    1    4    4    0    0 -0.11003586545E+02 -0.26889823256E+02 -0.58183323049E+02  0.65034149436E+02  0.51100000000E-03 0. -1.
         11    1    4    4    0    0 -0.38495302431E+02  0.55482567920E+01  0.25357627560E+02  0.46429309046E+02  0.51100000000E-03 0.  1.
    9000005    1    3    3    0    0 -0.17861623205E+02  0.20768190552E+02  0.36363696171E+02  0.45537607771E+02  0.10000000000E+01 0.  0.
    9000005    1    3    3    0    0  0.67360512181E+02  0.57337591155E+00 -0.64903239099E+02  0.93547836997E+02  0.10000000000E+01 0.  0.
<mgrwt>
<rscale>  0 0.12803056E+03</rscale>
<asrwt>0</asrwt>
<pdfrwt beam="2">  1        1 0.23993395E-01 0.13612588E+03</pdfrwt>
<pdfrwt beam="1">  1       -1 0.14552590E-01 0.13612588E+03</pdfrwt>
<totfact> 0.64664268E+03</totfact>
</mgrwt>
</event>
<event>
 8    2  0.1409546E-003  0.2029205E+03  0.7818608E-02  0.1151241E+00
          1   -1    0    0  501    0  0.00000000000E+00  0.00000000000E+00  0.18472215470E+04  0.18472215470E+04  0.50400000000E-02 0. -1.
         -1   -1    0    0    0  501 -0.00000000000E+00 -0.00000000000E+00 -0.26041871972E+02  0.26041872460E+02  0.50400000000E-02 0.  1.
         25    2    1    2    0    0 -0.14908565624E+03  0.57637036632E+02  0.13815457235E+04  0.13963686169E+04  0.12501266808E+03 0.  0.
         23    2    1    2    0    0  0.14908565624E+03 -0.57637036632E+02  0.43963395149E+03  0.47689480255E+03  0.92747401658E+02 0.  0.
        -11    1    4    4    0    0  0.75502568859E+02 -0.27277847156E+02  0.34009913687E+03  0.34944547750E+03  0.51100000000E-03 0. -1.
         11    1    4    4    0    0  0.73583087379E+02 -0.30359189476E+02  0.99534814620E+02  0.12744932505E+03  0.51100000000E-03 0.  1.
    9000005    1    3    3    0    0 -0.75644677536E+02 -0.35221098302E+02  0.64323264829E+03  0.64862306683E+03  0.10000000000E+01 0.  0.
    9000005    1    3    3    0    0 -0.73440978702E+02  0.92858134934E+02  0.73831307525E+03  0.74774555008E+03  0.10000000000E+01 0.  0.
<mgrwt>
<rscale>  0 0.19822996E+03</rscale>
<asrwt>0</asrwt>
<pdfrwt beam="1">  1        1 0.28418806E+00 0.20292050E+03</pdfrwt>
<pdfrwt beam="2">  1       -1 0.40064400E-02 0.20292050E+03</pdfrwt>
<totfact> 0.10461270E+03</totfact>
</mgrwt>
</event>
<event>
 8    2  0.1409546E-003  0.1466384E+03  0.7818608E-02  0.1214764E+00
          1   -1    0    0  501    0  0.00000000000E+00  0.00000000000E+00  0.19798678323E+03  0.19798678329E+03  0.50400000000E-02 0. -1.
         -1   -1    0    0    0  501 -0.00000000000E+00 -0.00000000000E+00 -0.10211485608E+03  0.10211485621E+03  0.50400000000E-02 0.  1.
         25    2    1    2    0    0  0.73730267970E+02  0.21026198887E+02 -0.20050181820E+01  0.14665214470E+03  0.12499831196E+03 0.  0.
         23    2    1    2    0    0 -0.73730267970E+02 -0.21026198887E+02  0.97876945328E+02  0.15344949480E+03  0.89936630868E+02 0.  0.
        -11    1    4    4    0    0 -0.70322324313E+02 -0.42703645582E+02  0.39857682816E+02  0.91419174808E+02  0.51100000000E-03 0.  1.
         11    1    4    4    0    0 -0.34079436572E+01  0.21677446695E+02  0.58019262512E+02  0.62030319988E+02  0.51100000000E-03 0. -1.
    9000005    1    3    3    0    0  0.62104234987E+02  0.65317410755E+02  0.24927065592E+02  0.93518226834E+02  0.10000000000E+01 0.  0.
    9000005    1    3    3    0    0  0.11626032983E+02 -0.44291211868E+02 -0.26932083774E+02  0.53133917869E+02  0.10000000000E+01 0.  0.
<mgrwt>
<rscale>  0 0.13893868E+03</rscale>
<asrwt>0</asrwt>
<pdfrwt beam="1">  1        1 0.30459505E-01 0.14663844E+03</pdfrwt>
<pdfrwt beam="2">  1       -1 0.15709978E-01 0.14663844E+03</pdfrwt>
<totfact> 0.42732622E+03</totfact>
</mgrwt>
</event>
<event>
 8    2  0.1409546E-003  0.1871453E+03  0.7818608E-02  0.1165902E+00
          1   -1    0    0  501    0  0.00000000000E+00  0.00000000000E+00  0.87027279237E+03  0.87027279238E+03  0.50400000000E-02 0. -1.
         -1   -1    0    0    0  501 -0.00000000000E+00 -0.00000000000E+00 -0.41210253659E+02  0.41210253968E+02  0.50400000000E-02 0.  1.
         25    2    1    2    0    0  0.97978698582E+02 -0.98987278958E+02  0.59521639252E+03  0.62394384303E+03  0.12500023426E+03 0.  0.
         23    2    1    2    0    0 -0.97978698582E+02  0.98987278958E+02  0.23384614619E+03  0.28753920331E+03  0.92717132100E+02 0.  0.
        -11    1    4    4    0    0 -0.79147772252E+02  0.82672948666E+02  0.10183594069E+03  0.15319838481E+03  0.51100000000E-03 0.  1.
         11    1    4    4    0    0 -0.18830926330E+02  0.16314330292E+02  0.13201020550E+03  0.13434081850E+03  0.51100000000E-03 0. -1.
    9000005    1    3    3    0    0  0.31382856665E+02  0.29006228221E+02  0.14535381807E+03  0.15150900104E+03  0.10000000000E+01 0.  0.
    9000005    1    3    3    0    0  0.66595841917E+02 -0.12799350718E+03  0.44986257445E+03  0.47243484199E+03  0.10000000000E+01 0.  0.
<mgrwt>
<rscale>  0 0.18197797E+03</rscale>
<asrwt>0</asrwt>
<pdfrwt beam="1">  1        1 0.13388813E+00 0.18714531E+03</pdfrwt>
<pdfrwt beam="2">  1       -1 0.63400386E-02 0.18714531E+03</pdfrwt>
<totfact> 0.24604203E+03</totfact>
</mgrwt>
</event>
<event>
 8    2  0.1409546E-003  0.1488197E+03  0.7818608E-02  0.1211240E+00
          1   -1    0    0  501    0  0.00000000000E+00  0.00000000000E+00  0.11607412349E+03  0.11607412360E+03  0.50400000000E-02 0. -1.
         -1   -1    0    0    0  501 -0.00000000000E+00 -0.00000000000E+00 -0.19287210699E+03  0.19287210706E+03  0.50400000000E-02 0.  1.
         25    2    1    2    0    0 -0.80485104732E+02 -0.71141251796E+01  0.24080760809E+02  0.15075541590E+03  0.12497539567E+03 0.  0.
         23    2    1    2    0    0  0.80485104732E+02  0.71141251796E+01 -0.10087874431E+03  0.15819081475E+03  0.91210470654E+02 0.  0.
        -11    1    4    4    0    0  0.11393232271E+02  0.20862918868E+02  0.10831881912E+02  0.26122725572E+02  0.51100000000E-03 0. -1.
         11    1    4    4    0    0  0.69091872461E+02 -0.13748793689E+02 -0.11171062622E+03  0.13206808918E+03  0.51100000000E-03 0.  1.
    9000005    1    3    3    0    0  0.12709233556E+02  0.35049225885E+02 -0.16401572762E+02  0.40742906644E+02  0.10000000000E+01 0.  0.
    9000005    1    3    3    0    0 -0.93194338288E+02 -0.42163351065E+02  0.40482333570E+02  0.11001250926E+03  0.10000000000E+01 0.  0.
<mgrwt>
<rscale>  0 0.14156412E+03</rscale>
<asrwt>0</asrwt>
<pdfrwt beam="1">  1        1 0.17857557E-01 0.14881973E+03</pdfrwt>
<pdfrwt beam="2">  1       -1 0.29672632E-01 0.14881973E+03</pdfrwt>
<totfact> 0.29904967E+03</totfact>
</mgrwt>
</event>
<event>
 8    2  0.1409546E-003  0.1313109E+03  0.7818608E-02  0.1238524E+00
         -1   -1    0    0    0  501 -0.00000000000E+00  0.00000000000E+00  0.16300684520E+03  0.16300684527E+03  0.50400000000E-02 0.  1.
          1   -1    0    0  501    0  0.00000000000E+00 -0.00000000000E+00 -0.82455726907E+02  0.82455727062E+02  0.50400000000E-02 0. -1.
         25    2    1    2    0    0  0.16788220640E+02 -0.36567212774E+02  0.48681679227E+02  0.14004447548E+03  0.12499417513E+03 0.  0.
         23    2    1    2    0    0 -0.16788220640E+02  0.36567212774E+02  0.31869439061E+02  0.10541809686E+03  0.92077731278E+02 0.  0.
        -11    1    4    4    0    0 -0.36852680001E+01 -0.35039779072E+01 -0.30067409790E+02  0.30494396095E+02  0.51100000000E-03 0. -1.
         11    1    4    4    0    0 -0.13102952640E+02  0.40071190681E+02  0.61936848852E+02  0.74923700766E+02  0.51100000000E-03 0.  1.
    9000005    1    3    3    0    0  0.55978750300E+02 -0.14464380686E+02 -0.17135672490E+02  0.60311442243E+02  0.10000000000E+01 0.  0.
    9000005    1    3    3    0    0 -0.39190529660E+02 -0.22102832088E+02  0.65817351717E+02  0.79733033232E+02  0.10000000000E+01 0.  0.
<mgrwt>
<rscale>  0 0.12281496E+03</rscale>
<asrwt>0</asrwt>
<pdfrwt beam="2">  1        1 0.12685497E-01 0.13131089E+03</pdfrwt>
<pdfrwt beam="1">  1       -1 0.25077976E-01 0.13131089E+03</pdfrwt>
<totfact> 0.61132442E+03</totfact>
</mgrwt>
</event>
<event>
 8    2  0.1409546E-003  0.1625111E+03  0.7818608E-02  0.1193591E+00
         -1   -1    0    0    0  501 -0.00000000000E+00  0.00000000000E+00  0.51155812852E+02  0.51155813100E+02  0.50400000000E-02 0.  1.
          1   -1    0    0  501    0  0.00000000000E+00 -0.00000000000E+00 -0.46408615718E+03  0.46408615720E+03  0.50400000000E-02 0. -1.
         25    2    1    2    0    0  0.99706169356E+02 -0.29042231780E+02 -0.16289707719E+03  0.23009846354E+03  0.12500029492E+03 0.  0.
         23    2    1    2    0    0 -0.99706169356E+02  0.29042231780E+02 -0.25003326713E+03  0.28514350677E+03  0.89472975502E+02 0.  0.
        -11    1    4    4    0    0 -0.48843744119E+02  0.59825126193E+02 -0.13048579732E+03  0.15162882433E+03  0.51100000000E-03 0.  1.
         11    1    4    4    0    0 -0.50862425237E+02 -0.30782894413E+02 -0.11954746981E+03  0.13351468244E+03  0.51100000000E-03 0. -1.
    9000005    1    3    3    0    0  0.73958541153E+02 -0.31907518336E+02 -0.17532375592E+02  0.82439915877E+02  0.10000000000E+01 0.  0.
    9000005    1    3    3    0    0  0.25747628203E+02  0.28652865554E+01 -0.14536470160E+03  0.14765854766E+03  0.10000000000E+01 0.  0.
<mgrwt>
<rscale>  0 0.15574122E+03</rscale>
<asrwt>0</asrwt>
<pdfrwt beam="2">  1        1 0.71397868E-01 0.16251106E+03</pdfrwt>
<pdfrwt beam="1">  1       -1 0.78701254E-02 0.16251106E+03</pdfrwt>
<totfact> 0.42916766E+03</totfact>
</mgrwt>
</event>
<event>
 8    2  0.1409546E-003  0.1297834E+03  0.7818608E-02  0.1240978E+00
         -1   -1    0    0    0  501 -0.00000000000E+00  0.00000000000E+00  0.16944284628E+02  0.16944285377E+02  0.50400000000E-02 0.  1.
          1   -1    0    0  501    0  0.00000000000E+00 -0.00000000000E+00 -0.13390884735E+04  0.13390884735E+04  0.50400000000E-02 0. -1.
         25    2    1    2    0    0 -0.23519274950E+02  0.25792860061E+02 -0.11511305145E+04  0.11584235790E+04  0.12500119607E+03 0.  0.
         23    2    1    2    0    0  0.23519274950E+02 -0.25792860061E+02 -0.17101367441E+03  0.19760917994E+03  0.92656803502E+02 0.  0.
        -11    1    4    4    0    0  0.18635073714E+02  0.32274004485E+02 -0.93357074673E+02  0.10052074776E+03  0.51100000000E-03 0.  1.
         11    1    4    4    0    0  0.48842012363E+01 -0.58066864546E+02 -0.77656599737E+02  0.97088432178E+02  0.51100000000E-03 0. -1.
    9000005    1    3    3    0    0 -0.53487056346E+02 -0.20337166350E+01 -0.22091823731E+03  0.22731227151E+03  0.10000000000E+01 0.  0.
    9000005    1    3    3    0    0  0.29967781396E+02  0.27826576696E+02 -0.93021227716E+03  0.93111130746E+03  0.10000000000E+01 0.  0.
<mgrwt>
<rscale>  0 0.12129367E+03</rscale>
<asrwt>0</asrwt>
<pdfrwt beam="2">  1        1 0.20601353E+00 0.12978338E+03</pdfrwt>
<pdfrwt beam="1">  1       -1 0.26068141E-02 0.12978338E+03</pdfrwt>
<totfact> 0.41892354E+03</totfact>
</mgrwt>
</event>
<event>
 8    2  0.1409546E-003  0.1343036E+03  0.7818608E-02  0.1234605E+00
         -1   -1    0    0    0  501 -0.00000000000E+00  0.00000000000E+00  0.16479392323E+02  0.16479393094E+02  0.50400000000E-02 0.  1.
          1   -1    0    0  501    0  0.00000000000E+00 -0.00000000000E+00 -0.89968176445E+03  0.89968176446E+03  0.50400000000E-02 0. -1.
         25    2    1    2    0    0 -0.44521071753E+02 -0.20755521023E+02 -0.61047128070E+03  0.62507010679E+03  0.12499814544E+03 0.  0.
         23    2    1    2    0    0  0.44521071753E+02  0.20755521023E+02 -0.27273109143E+03  0.29109105076E+03  0.89100135360E+02 0.  0.
        -11    1    4    4    0    0  0.68053969439E+02  0.39712608919E+01 -0.22678319374E+03  0.23680737031E+03  0.51100000000E-03 0. -1.
         11    1    4    4    0    0 -0.23532897686E+02  0.16784260131E+02 -0.45947897682E+02  0.54283680451E+02  0.51100000000E-03 0.  1.
    9000005    1    3    3    0    0 -0.27991939422E+02  0.51456471359E+02 -0.31867456934E+03  0.32401512042E+03  0.10000000000E+01 0.  0.
    9000005    1    3    3    0    0 -0.16529132331E+02 -0.72211992382E+02 -0.29179671136E+03  0.30105498637E+03  0.10000000000E+01 0.  0.
<mgrwt>
<rscale>  0 0.12529751E+03</rscale>
<asrwt>0</asrwt>
<pdfrwt beam="2">  1        1 0.13841254E+00 0.13430359E+03</pdfrwt>
<pdfrwt beam="1">  1       -1 0.25352919E-02 0.13430359E+03</pdfrwt>
<totfact> 0.89097969E+03</totfact>
</mgrwt>
</event>
<event>
 8    2  0.1409546E-003  0.1425798E+03  0.7818608E-02  0.1220314E+00
          1   -1    0    0  501    0  0.00000000000E+00  0.00000000000E+00  0.29055762687E+02  0.29055763124E+02  0.50400000000E-02 0. -1.
         -1   -1    0    0    0  501 -0.00000000000E+00 -0.00000000000E+00 -0.58235655351E+03  0.58235655353E+03  0.50400000000E-02 0.  1.
         25    2    1    2    0    0 -0.67412123315E+02 -0.12523827118E+02 -0.25866143150E+03  0.29535525080E+03  0.12501098918E+03 0.  0.
         23    2    1    2    0    0  0.67412123315E+02  0.12523827118E+02 -0.29463935932E+03  0.31605706585E+03  0.91534016609E+02 0.  0.
        -11    1    4    4    0    0  0.82840291837E+02  0.39267484205E+01 -0.15953958963E+03  0.17980771387E+03  0.51100000000E-03 0. -1.
         11    1    4    4    0    0 -0.15428168523E+02  0.85970786971E+01 -0.13509976969E+03  0.13624935198E+03  0.51100000000E-03 0.  1.
    9000005    1    3    3    0    0 -0.88859388463E+02  0.22231109825E+01 -0.25372253860E+03  0.26884393192E+03  0.10000000000E+01 0.  0.
    9000005    1    3    3    0    0  0.21447265148E+02 -0.14746938100E+02 -0.49388929021E+01  0.26511318880E+02  0.10000000000E+01 0.  0.
<mgrwt>
<rscale>  0 0.13493301E+03</rscale>
<asrwt>0</asrwt>
<pdfrwt beam="1">  1        1 0.44701178E-02 0.14257976E+03</pdfrwt>
<pdfrwt beam="2">  1       -1 0.89593307E-01 0.14257976E+03</pdfrwt>
<totfact> 0.24222887E+03</totfact>
</mgrwt>
</event>
<event>
 8    2  0.1409546E-003  0.1320586E+03  0.7818608E-02  0.1236865E+00
          1   -1    0    0  501    0  0.00000000000E+00  0.00000000000E+00  0.49845654103E+03  0.49845654106E+03  0.50400000000E-02 0. -1.
         -1   -1    0    0    0  501 -0.00000000000E+00 -0.00000000000E+00 -0.44872347178E+02  0.44872347461E+02  0.50400000000E-02 0.  1.
         25    2    1    2    0    0  0.16986594250E+02  0.39057234346E+02  0.41262053559E+03  0.43323801021E+03  0.12500182063E+03 0.  0.
         23    2    1    2    0    0 -0.16986594250E+02 -0.39057234346E+02  0.40963658264E+02  0.11009087831E+03  0.92886857248E+02 0.  0.
        -11    1    4    4    0    0  0.38629470831E+01 -0.35619074350E+02  0.67349625798E+02  0.76286387469E+02  0.51100000000E-03 0. -1.
         11    1    4    4    0    0 -0.20849541333E+02 -0.34381599955E+01 -0.26385967533E+02  0.33804490839E+02  0.51100000000E-03 0.  1.
    9000005    1    3    3    0    0 -0.17694592194E+02 -0.25850690701E+02  0.29264351076E+02  0.42880753801E+02  0.10000000000E+01 0.  0.
    9000005    1    3    3    0    0  0.34681186444E+02  0.64907925047E+02  0.38335618451E+03  0.39035725641E+03  0.10000000000E+01 0.  0.
<mgrwt>
<rscale>  0 0.12385764E+03</rscale>
<asrwt>0</asrwt>
<pdfrwt beam="1">  1        1 0.76685613E-01 0.13205857E+03</pdfrwt>
<pdfrwt beam="2">  1       -1 0.69034389E-02 0.13205857E+03</pdfrwt>
<totfact> 0.47174808E+03</totfact>
</mgrwt>
</event>
<event>
 8    2  0.1409546E-003  0.1427411E+03  0.7818608E-02  0.1220412E+00
         -1   -1    0    0    0  501 -0.00000000000E+00  0.00000000000E+00  0.17663915482E+03  0.17663915489E+03  0.50400000000E-02 0.  1.
          1   -1    0    0  501    0  0.00000000000E+00 -0.00000000000E+00 -0.93795820225E+02  0.93795820360E+02  0.50400000000E-02 0. -1.
         25    2    1    2    0    0  0.66761007408E+02  0.17109855057E+02  0.34551519212E+02  0.14686331102E+03  0.12500098157E+03 0.  0.
         23    2    1    2    0    0 -0.66761007408E+02 -0.17109855057E+02  0.48291815385E+02  0.12357166424E+03  0.90487996544E+02 0.  0.
        -11    1    4    4    0    0 -0.13206103550E+02 -0.41521911334E+01 -0.26958507867E+02  0.30305164722E+02  0.51100000000E-03 0. -1.
         11    1    4    4    0    0 -0.53554903858E+02 -0.12957663924E+02  0.75250323252E+02  0.93266499513E+02  0.51100000000E-03 0.  1.
    9000005    1    3    3    0    0  0.12274981150E+02 -0.24395801897E+02  0.66040103841E+02  0.71471152417E+02  0.10000000000E+01 0.  0.
    9000005    1    3    3    0    0  0.54486026258E+02  0.41505656954E+02 -0.31488584629E+02  0.75392158601E+02  0.10000000000E+01 0.  0.
<mgrwt>
<rscale>  0 0.13486355E+03</rscale>
<asrwt>0</asrwt>
<pdfrwt beam="2">  1        1 0.14430126E-01 0.14274111E+03</pdfrwt>
<pdfrwt beam="1">  1       -1 0.27175254E-01 0.14274111E+03</pdfrwt>
<totfact> 0.45510212E+03</totfact>
</mgrwt>
</event>
<event>
 8    2  0.1409546E-003  0.1314588E+03  0.7818608E-02  0.1238786E+00
          1   -1    0    0  501    0  0.00000000000E+00  0.00000000000E+00  0.92414963412E+01  0.92414977155E+01  0.50400000000E-02 0. -1.
         -1   -1    0    0    0  501 -0.00000000000E+00 -0.00000000000E+00 -0.15408039477E+04  0.15408039477E+04  0.50400000000E-02 0.  1.
         25    2    1    2    0    0 -0.39882058503E+02 -0.75265925572E+01 -0.67261853961E+03  0.68534451499E+03  0.12503669948E+03 0.  0.
         23    2    1    2    0    0  0.39882058503E+02  0.75265925572E+01 -0.85894391172E+03  0.86470093041E+03  0.90971574535E+02 0.  0.
        -11    1    4    4    0    0  0.68241321655E+02 -0.53344758139E+01 -0.59940152459E+03  0.60329720893E+03  0.51100000000E-03 0.  1.
         11    1    4    4    0    0 -0.28359263152E+02  0.12861068371E+02 -0.25954238713E+03  0.26140372148E+03  0.51100000000E-03 0. -1.
    9000005    1    3    3    0    0  0.45610812708E+02 -0.10228529761E-02 -0.22992132163E+03  0.23440384036E+03  0.10000000000E+01 0.  0.
    9000005    1    3    3    0    0 -0.85492871211E+02 -0.75255697042E+01 -0.44269721798E+03  0.45094067463E+03  0.10000000000E+01 0.  0.
<mgrwt>
<rscale>  0 0.12265149E+03</rscale>
<asrwt>0</asrwt>
<pdfrwt beam="1">  1        1 0.14217700E-02 0.13145876E+03</pdfrwt>
<pdfrwt beam="2">  1       -1 0.23704656E+00 0.13145876E+03</pdfrwt>
<totfact> 0.92381950E+02</totfact>
</mgrwt>
</event>
<event>
 8    2  0.1409546E-003  0.1313262E+03  0.7818608E-02  0.1238923E+00
         -1   -1    0    0    0  501 -0.00000000000E+00  0.00000000000E+00  0.10482829568E+03  0.10482829580E+03  0.50400000000E-02 0.  1.
          1   -1    0    0  501    0  0.00000000000E+00 -0.00000000000E+00 -0.14336472033E+03  0.14336472042E+03  0.50400000000E-02 0. -1.
         25    2    1    2    0    0  0.25828494721E+02 -0.30898761981E+02 -0.62909351153E+02  0.14561644962E+03  0.12499887722E+03 0.  0.
         23    2    1    2    0    0 -0.25828494721E+02  0.30898761981E+02  0.24372926501E+02  0.10257656660E+03  0.91137631288E+02 0.  0.
        -11    1    4    4    0    0  0.27153755533E+02 -0.81025965342E+01 -0.77304227968E+01  0.29372401111E+02  0.51100000000E-03 0. -1.
         11    1    4    4    0    0 -0.52982250253E+02  0.39001358515E+02  0.32103349298E+02  0.73204165485E+02  0.51100000000E-03 0.  1.
    9000005    1    3    3    0    0  0.15096875221E+02 -0.66248049184E+02  0.51732678419E+01  0.68150439193E+02  0.10000000000E+01 0.  0.
    9000005    1    3    3    0    0  0.10731619499E+02  0.35349287203E+02 -0.68082618995E+02  0.77466010430E+02  0.10000000000E+01 0.  0.
<mgrwt>
<rscale>  0 0.12256620E+03</rscale>
<asrwt>0</asrwt>
<pdfrwt beam="2">  1        1 0.22056111E-01 0.13132617E+03</pdfrwt>
<pdfrwt beam="1">  1       -1 0.16127430E-01 0.13132617E+03</pdfrwt>
<totfact> 0.61048740E+03</totfact>
</mgrwt>
</event>
<event>
 8    2  0.1409546E-003  0.1594883E+03  0.7818608E-02  0.1197152E+00
          1   -1    0    0  501    0  0.00000000000E+00  0.00000000000E+00  0.17423871758E+03  0.17423871765E+03  0.50400000000E-02 0. -1.
         -1   -1    0    0    0  501 -0.00000000000E+00 -0.00000000000E+00 -0.17998106033E+03  0.17998106040E+03  0.50400000000E-02 0.  1.
         25    2    1    2    0    0  0.93802541510E+01 -0.98604151095E+02  0.95736674331E+02  0.18601623869E+03  0.12500304981E+03 0.  0.
         23    2    1    2    0    0 -0.93802541510E+01  0.98604151095E+02 -0.10147901708E+03  0.16820353937E+03  0.90463649975E+02 0.  0.
        -11    1    4    4    0    0 -0.31440301499E+02  0.86353885627E+02 -0.10832748040E+03  0.14205748531E+03  0.51100000000E-03 0.  1.
         11    1    4    4    0    0  0.22060047348E+02  0.12250265468E+02  0.68484633168E+01  0.26146054063E+02  0.51100000000E-03 0. -1.
    9000005    1    3    3    0    0 -0.21953905333E+02 -0.11967116939E+03  0.71164780833E+02  0.14095598169E+03  0.10000000000E+01 0.  0.
    9000005    1    3    3    0    0  0.31334159484E+02  0.21067018297E+02  0.24571893498E+02  0.45060256997E+02  0.10000000000E+01 0.  0.
<mgrwt>
<rscale>  0 0.15273515E+03</rscale>
<asrwt>0</asrwt>
<pdfrwt beam="1">  1        1 0.26805957E-01 0.15948834E+03</pdfrwt>
<pdfrwt beam="2">  1       -1 0.27689394E-01 0.15948834E+03</pdfrwt>
<totfact> 0.20110209E+03</totfact>
</mgrwt>
</event>
<event>
 8    2  0.1409546E-003  0.2332115E+03  0.7818608E-02  0.1127034E+00
          1   -1    0    0  501    0  0.00000000000E+00  0.00000000000E+00  0.56410181130E+03  0.56410181132E+03  0.50400000000E-02 0. -1.
         -1   -1    0    0    0  501 -0.00000000000E+00 -0.00000000000E+00 -0.91809471460E+02  0.91809471599E+02  0.50400000000E-02 0.  1.
         25    2    1    2    0    0  0.71469602462E+01 -0.19675601515E+03  0.28398763613E+03  0.36747321818E+03  0.12499432013E+03 0.  0.
         23    2    1    2    0    0 -0.71469602462E+01  0.19675601515E+03  0.18830470371E+03  0.28843806475E+03  0.94730392265E+02 0.  0.
        -11    1    4    4    0    0  0.76772300702E+01  0.11629804084E+03  0.16743398594E+03  0.20400567103E+03  0.51100000000E-03 0. -1.
         11    1    4    4    0    0 -0.14824190316E+02  0.80457974304E+02  0.20870717768E+02  0.84432393713E+02  0.51100000000E-03 0.  1.
    9000005    1    3    3    0    0 -0.42973618499E+02 -0.80965885537E+02  0.18723728993E+03  0.20847304202E+03  0.10000000000E+01 0.  0.
    9000005    1    3    3    0    0  0.50120578745E+02 -0.11579012961E+03  0.96750346198E+02  0.15900017616E+03  0.10000000000E+01 0.  0.
<mgrwt>
<rscale>  0 0.22944061E+03</rscale>
<asrwt>0</asrwt>
<pdfrwt beam="1">  1        1 0.86784894E-01 0.23321147E+03</pdfrwt>
<pdfrwt beam="2">  1       -1 0.14124534E-01 0.23321147E+03</pdfrwt>
<totfact> 0.13545081E+03</totfact>
</mgrwt>
</event>
<event>
 8    2  0.1409546E-003  0.6622528E+03  0.7818608E-02  0.9785821E-01
         -1   -1    0    0    0  501 -0.00000000000E+00  0.00000000000E+00  0.65147599549E+03  0.65147599551E+03  0.50400000000E-02 0.  1.
          1   -1    0    0  501    0  0.00000000000E+00 -0.00000000000E+00 -0.75519421951E+03  0.75519421952E+03  0.50400000000E-02 0. -1.
         25    2    1    2    0    0 -0.29218796987E+03 -0.58101676045E+03 -0.28918000160E+03  0.72263670758E+03  0.12499780859E+03 0.  0.
         23    2    1    2    0    0  0.29218796987E+03  0.58101676045E+03  0.18546177758E+03  0.68403350745E+03  0.10272041036E+03 0.  0.
        -11    1    4    4    0    0  0.20337528096E+03  0.44959508151E+03  0.98665998801E+02  0.50322184128E+03  0.51100000000E-03 0. -1.
         11    1    4    4    0    0  0.88812688915E+02  0.13142167894E+03  0.86795778777E+02  0.18081166617E+03  0.51100000000E-03 0.  1.
    9000005    1    3    3    0    0 -0.61653455336E+02 -0.19610396736E+03 -0.14427991566E+03  0.25114857879E+03  0.10000000000E+01 0.  0.
    9000005    1    3    3    0    0 -0.23053451454E+03 -0.38491279310E+03 -0.14490008594E+03  0.47148812879E+03  0.10000000000E+01 0.  0.
<mgrwt>
<rscale>  0 0.66129037E+03</rscale>
<asrwt>0</asrwt>
<pdfrwt beam="2">  1        1 0.11618373E+00 0.66225277E+03</pdfrwt>
<pdfrwt beam="1">  1       -1 0.10022708E+00 0.66225277E+03</pdfrwt>
<totfact> 0.23824824E+01</totfact>
</mgrwt>
</event>
<event>
 8    2  0.1409546E-003  0.1304080E+03  0.7818608E-02  0.1242049E+00
          1   -1    0    0  501    0  0.00000000000E+00  0.00000000000E+00  0.20128575631E+03  0.20128575637E+03  0.50400000000E-02 0. -1.
         -1   -1    0    0    0  501 -0.00000000000E+00 -0.00000000000E+00 -0.63514609325E+02  0.63514609525E+02  0.50400000000E-02 0.  1.
         25    2    1    2    0    0  0.26060098307E+02  0.26548614838E+02  0.85362366899E+02  0.15586203130E+03  0.12498912530E+03 0.  0.
         23    2    1    2    0    0 -0.26060098307E+02 -0.26548614838E+02  0.52408780083E+02  0.10893833460E+03  0.87959779684E+02 0.  0.
        -11    1    4    4    0    0 -0.30363257298E+02 -0.12877765423E+02 -0.17664851476E+02  0.37414051023E+02  0.51100000000E-03 0.  1.
         11    1    4    4    0    0  0.43031589914E+01 -0.13670849415E+02  0.70073631559E+02  0.71524283577E+02  0.51100000000E-03 0. -1.
    9000005    1    3    3    0    0 -0.76626612848E+01  0.13800029715E+02  0.11067523496E+03  0.11179966383E+03  0.10000000000E+01 0.  0.
    9000005    1    3    3    0    0  0.33722759592E+02  0.12748585124E+02 -0.25312868064E+02  0.44062367467E+02  0.10000000000E+01 0.  0.
<mgrwt>
<rscale>  0 0.12063760E+03</rscale>
<asrwt>0</asrwt>
<pdfrwt beam="1">  1        1 0.30967039E-01 0.13040797E+03</pdfrwt>
<pdfrwt beam="2">  1       -1 0.97714786E-02 0.13040797E+03</pdfrwt>
<totfact> 0.86635402E+03</totfact>
</mgrwt>
</event>
<event>
 8    2  0.1409546E-003  0.1262735E+03  0.7818608E-02  0.1246460E+00
          1   -1    0    0  501    0  0.00000000000E+00  0.00000000000E+00  0.26569396974E+02  0.26569397452E+02  0.50400000000E-02 0. -1.
         -1   -1    0    0    0  501 -0.00000000000E+00 -0.00000000000E+00 -0.46664652088E+03  0.46664652091E+03  0.50400000000E-02 0.  1.
         25    2    1    2    0    0  0.55469068840E+01  0.17028711209E+02 -0.25958541439E+03  0.28866865661E+03  0.12499704303E+03 0.  0.
         23    2    1    2    0    0 -0.55469068840E+01 -0.17028711209E+02 -0.18049170952E+03  0.20454726175E+03  0.94559927570E+02 0.  0.
        -11    1    4    4    0    0  0.11828211370E+02 -0.87855701553E+01 -0.18434567997E+03  0.18493356253E+03  0.51100000000E-03 0.  1.
         11    1    4    4    0    0 -0.17375118254E+02 -0.82431410536E+01  0.38539704429E+01  0.19613699223E+02  0.51100000000E-03 0. -1.
    9000005    1    3    3    0    0 -0.31033435796E+02  0.17801824148E+02 -0.24757154849E+03  0.25014525920E+03  0.10000000000E+01 0.  0.
    9000005    1    3    3    0    0  0.36580342680E+02 -0.77311293927E+00 -0.12013865900E+02  0.38523397411E+02  0.10000000000E+01 0.  0.
<mgrwt>
<rscale>  0 0.11798431E+03</rscale>
<asrwt>0</asrwt>
<pdfrwt beam="1">  1        1 0.40875999E-02 0.12627354E+03</pdfrwt>
<pdfrwt beam="2">  1       -1 0.71791767E-01 0.12627354E+03</pdfrwt>
<totfact> 0.42810274E+03</totfact>
</mgrwt>
</event>
<event>
 8    2  0.1409546E-003  0.2082991E+03  0.7818608E-02  0.1146858E+00
         -1   -1    0    0    0  501 -0.00000000000E+00  0.00000000000E+00  0.11569792186E+03  0.11569792197E+03  0.50400000000E-02 0.  1.
          1   -1    0    0  501    0  0.00000000000E+00 -0.00000000000E+00 -0.36644989612E+03  0.36644989616E+03  0.50400000000E-02 0. -1.
         25    2    1    2    0    0  0.16609604101E+03  0.13271617746E+02 -0.68772462371E+02  0.21935849781E+03  0.12499787321E+03 0.  0.
         23    2    1    2    0    0 -0.16609604101E+03 -0.13271617746E+02 -0.18197951190E+03  0.26278932031E+03  0.90430378988E+02 0.  0.
        -11    1    4    4    0    0 -0.88730290138E+02  0.23750306354E+02 -0.13963574449E+03  0.16713851315E+03  0.51100000000E-03 0. -1.
         11    1    4    4    0    0 -0.77365750870E+02 -0.37021924099E+02 -0.42343767409E+02  0.95650807160E+02  0.51100000000E-03 0.  1.
    9000005    1    3    3    0    0 -0.16206893064E+02  0.13926076547E+02 -0.22965501093E+02  0.31384920444E+02  0.10000000000E+01 0.  0.
    9000005    1    3    3    0    0  0.18230293407E+03 -0.65445880176E+00 -0.45806961278E+02  0.18797357737E+03  0.10000000000E+01 0.  0.
<mgrwt>
<rscale>  0 0.20345356E+03</rscale>
<asrwt>0</asrwt>
<pdfrwt beam="2">  1        1 0.56376906E-01 0.20829906E+03</pdfrwt>
<pdfrwt beam="1">  1       -1 0.17799680E-01 0.20829906E+03</pdfrwt>
<totfact> 0.16446718E+03</totfact>
</mgrwt>
</event>
<event>
 8    2  0.1409546E-003  0.1282559E+03  0.7818608E-02  0.1246018E+00
          1   -1    0    0  501    0  0.00000000000E+00  0.00000000000E+00  0.16187123778E+02  0.16187124563E+02  0.50400000000E-02 0. -1.
         -1   -1    0    0    0  501 -0.00000000000E+00 -0.00000000000E+00 -0.79439347992E+03  0.79439347994E+03  0.50400000000E-02 0.  1.
         25    2    1    2    0    0 -0.19261411295E+02  0.21296083830E+02 -0.53907342411E+03  0.55412068926E+03  0.12500022611E+03 0.  0.
         23    2    1    2    0    0  0.19261411295E+02 -0.21296083830E+02 -0.23913293203E+03  0.25645991524E+03  0.88105639961E+02 0.  0.
        -11    1    4    4    0    0 -0.23617056784E+02 -0.35217051406E+02 -0.15856633184E+03  0.16413801411E+03  0.51100000000E-03 0.  1.
         11    1    4    4    0    0  0.42878468079E+02  0.13920967576E+02 -0.80566600187E+02  0.92321901134E+02  0.51100000000E-03 0. -1.
    9000005    1    3    3    0    0  0.39069284799E+02  0.62662399201E+01 -0.40741958617E+03  0.40933775048E+03  0.10000000000E+01 0.  0.
    9000005    1    3    3    0    0 -0.58330696094E+02  0.15029843910E+02 -0.13165383794E+03  0.14478293877E+03  0.10000000000E+01 0.  0.
<mgrwt>
<rscale>  0 0.11824671E+03</rscale>
<asrwt>0</asrwt>
<pdfrwt beam="1">  1        1 0.24903274E-02 0.12825592E+03</pdfrwt>
<pdfrwt beam="2">  1       -1 0.12221435E+00 0.12825592E+03</pdfrwt>
<totfact> 0.26987807E+03</totfact>
</mgrwt>
</event>
<event>
 8    2  0.1409546E-003  0.2889547E+03  0.7818608E-02  0.1092723E+00
          1   -1    0    0  501    0  0.00000000000E+00  0.00000000000E+00  0.77639155383E+03  0.77639155385E+03  0.50400000000E-02 0. -1.
         -1   -1    0    0    0  501 -0.00000000000E+00 -0.00000000000E+00 -0.10730747987E+03  0.10730747999E+03  0.50400000000E-02 0.  1.
         25    2    1    2    0    0 -0.24492480300E+03 -0.88778161951E+02  0.24921203191E+03  0.38157759120E+03  0.12500040037E+03 0.  0.
         23    2    1    2    0    0  0.24492480300E+03  0.88778161951E+02  0.41987204205E+03  0.50212144263E+03  0.89239510818E+02 0.  0.
        -11    1    4    4    0    0  0.23364112917E+03  0.87884765675E+02  0.34188340614E+03  0.42331568914E+03  0.51100000000E-03 0.  1.
         11    1    4    4    0    0  0.11283673830E+02  0.89339627521E+00  0.77988635909E+02  0.78805753491E+02  0.51100000000E-03 0. -1.
    9000005    1    3    3    0    0 -0.20468424146E+03 -0.35681078589E+02  0.13024229908E+03  0.24521997175E+03  0.10000000000E+01 0.  0.
    9000005    1    3    3    0    0 -0.40240561539E+02 -0.53097083361E+02  0.11896973283E+03  0.13635761945E+03  0.10000000000E+01 0.  0.
<mgrwt>
<rscale>  0 0.28549920E+03</rscale>
<asrwt>0</asrwt>
<pdfrwt beam="1">  1        1 0.11944485E+00 0.28895470E+03</pdfrwt>
<pdfrwt beam="2">  1       -1 0.16508843E-01 0.28895470E+03</pdfrwt>
<totfact> 0.66675715E+02</totfact>
</mgrwt>
</event>
<event>
 8    2  0.1409546E-003  0.1488582E+03  0.7818608E-02  0.1210106E+00
          1   -1    0    0  501    0  0.00000000000E+00  0.00000000000E+00  0.79652990575E+02  0.79652990734E+02  0.50400000000E-02 0. -1.
         -1   -1    0    0    0  501 -0.00000000000E+00 -0.00000000000E+00 -0.32122535736E+03  0.32122535740E+03  0.50400000000E-02 0.  1.
         25    2    1    2    0    0  0.67905858691E+02  0.43861031227E+02 -0.24985855464E+02  0.15094058590E+03  0.12499508708E+03 0.  0.
         23    2    1    2    0    0 -0.67905858691E+02 -0.43861031227E+02 -0.21658651132E+03  0.24993776223E+03  0.94995644096E+02 0.  0.
        -11    1    4    4    0    0 -0.66499255717E+02 -0.53701320822E+01 -0.63586744881E+02  0.92164328535E+02  0.51100000000E-03 0. -1.
         11    1    4    4    0    0 -0.14066029740E+01 -0.38490899145E+02 -0.15299976644E+03  0.15777343369E+03  0.51100000000E-03 0.  1.
    9000005    1    3    3    0    0 -0.55937009835E+01 -0.27439775014E+02 -0.38530491842E+02  0.47642728144E+02  0.10000000000E+01 0.  0.
    9000005    1    3    3    0    0  0.73499559674E+02  0.71300806241E+02  0.13544636378E+02  0.10329785776E+03  0.10000000000E+01 0.  0.
<mgrwt>
<rscale>  0 0.14242227E+03</rscale>
<asrwt>0</asrwt>
<pdfrwt beam="1">  1        1 0.12254306E-01 0.14885821E+03</pdfrwt>
<pdfrwt beam="2">  1       -1 0.49419285E-01 0.14885821E+03</pdfrwt>
<totfact> 0.20001910E+03</totfact>
</mgrwt>
</event>
<event>
 8    2  0.1409546E-003  0.1504069E+03  0.7818608E-02  0.1206595E+00
         -1   -1    0    0    0  501 -0.00000000000E+00  0.00000000000E+00  0.30966953112E+02  0.30966953522E+02  0.50400000000E-02 0.  1.
          1   -1    0    0  501    0  0.00000000000E+00 -0.00000000000E+00 -0.73195618667E+03  0.73195618668E+03  0.50400000000E-02 0. -1.
         25    2    1    2    0    0  0.82592018522E+02  0.13249105863E+02 -0.50974689549E+03  0.53147353547E+03  0.12500096443E+03 0.  0.
         23    2    1    2    0    0 -0.82592018522E+02 -0.13249105863E+02 -0.19124233806E+03  0.23144960474E+03  0.99991536326E+02 0.  0.
        -11    1    4    4    0    0 -0.75907715142E+02  0.13026647673E+02 -0.60535289925E+02  0.97960176062E+02  0.51100000000E-03 0.  1.
         11    1    4    4    0    0 -0.66843033798E+01 -0.26275753535E+02 -0.13070704814E+03  0.13348942868E+03  0.51100000000E-03 0. -1.
    9000005    1    3    3    0    0  0.67565197654E+01  0.42915598022E+02 -0.34470036104E+03  0.34742875243E+03  0.10000000000E+01 0.  0.
    9000005    1    3    3    0    0  0.75835498756E+02 -0.29666492160E+02 -0.16504653445E+03  0.18404478303E+03  0.10000000000E+01 0.  0.
<mgrwt>
<rscale>  0 0.14512485E+03</rscale>
<asrwt>0</asrwt>
<pdfrwt beam="2">  1        1 0.11260863E+00 0.15040685E+03</pdfrwt>
<pdfrwt beam="1">  1       -1 0.47641472E-02 0.15040685E+03</pdfrwt>
<totfact> 0.48691921E+03</totfact>
</mgrwt>
</event>
<event>
 8    2  0.1409546E-003  0.1256696E+03  0.7818608E-02  0.1250686E+00
         -1   -1    0    0    0  501 -0.00000000000E+00  0.00000000000E+00  0.79541164959E+03  0.79541164961E+03  0.50400000000E-02 0.  1.
          1   -1    0    0  501    0  0.00000000000E+00 -0.00000000000E+00 -0.16105863964E+02  0.16105864753E+02  0.50400000000E-02 0. -1.
         25    2    1    2    0    0  0.65798456763E+01 -0.11128846970E+02  0.32524992042E+03  0.34868375260E+03  0.12500281191E+03 0.  0.
         23    2    1    2    0    0 -0.65798456763E+01  0.11128846970E+02  0.45405586520E+03  0.46283376176E+03  0.88776216961E+02 0.  0.
        -11    1    4    4    0    0 -0.40287374785E+02 -0.18424714348E+02  0.25204829067E+03  0.25591186665E+03  0.51100000000E-03 0.  1.
         11    1    4    4    0    0  0.33707529108E+02  0.29553561318E+02  0.20200757454E+03  0.20692189511E+03  0.51100000000E-03 0. -1.
    9000005    1    3    3    0    0  0.60411994897E+02  0.98947054935E+01  0.22273885775E+03  0.23100024475E+03  0.10000000000E+01 0.  0.
    9000005    1    3    3    0    0 -0.53832149221E+02 -0.21023552464E+02  0.10251106267E+03  0.11768350784E+03  0.10000000000E+01 0.  0.
<mgrwt>
<rscale>  0 0.11551440E+03</rscale>
<asrwt>0</asrwt>
<pdfrwt beam="2">  1        1 0.24778263E-02 0.12566960E+03</pdfrwt>
<pdfrwt beam="1">  1       -1 0.12237097E+00 0.12566960E+03</pdfrwt>
<totfact> 0.27061490E+03</totfact>
</mgrwt>
</event>
<event>
 8    2  0.1409546E-003  0.1279091E+03  0.7818608E-02  0.1245174E+00
         -1   -1    0    0    0  501 -0.00000000000E+00  0.00000000000E+00  0.34264914562E+02  0.34264914933E+02  0.50400000000E-02 0.  1.
          1   -1    0    0  501    0  0.00000000000E+00 -0.00000000000E+00 -0.37168563893E+03  0.37168563896E+03  0.50400000000E-02 0. -1.
         25    2    1    2    0    0 -0.13603393196E+02 -0.23471406462E+02 -0.16160103876E+03  0.20609616924E+03  0.12499910407E+03 0.  0.
         23    2    1    2    0    0  0.13603393196E+02  0.23471406462E+02 -0.17581968560E+03  0.19985438465E+03  0.91067304733E+02 0.  0.
        -11    1    4    4    0    0  0.32556940060E+02  0.19489373383E+02 -0.17644309456E+03  0.18047702247E+03  0.51100000000E-03 0. -1.
         11    1    4    4    0    0 -0.18953546865E+02  0.39820330790E+01  0.62340895710E+00  0.19377362183E+02  0.51100000000E-03 0.  1.
    9000005    1    3    3    0    0  0.35969467000E+02 -0.40746809817E+02 -0.13839843979E+03  0.14869173886E+03  0.10000000000E+01 0.  0.
    9000005    1    3    3    0    0 -0.49572860195E+02  0.17275403355E+02 -0.23202598968E+02  0.57404430385E+02  0.10000000000E+01 0.  0.
<mgrwt>
<rscale>  0 0.11874964E+03</rscale>
<asrwt>0</asrwt>
<pdfrwt beam="2">  1        1 0.57182403E-01 0.12790909E+03</pdfrwt>
<pdfrwt beam="1">  1       -1 0.52715256E-02 0.12790909E+03</pdfrwt>
<totfact> 0.10215468E+04</totfact>
</mgrwt>
</event>
<event>
 8    2  0.1409546E-003  0.1844672E+03  0.7818608E-02  0.1168751E+00
          1   -1    0    0  501    0  0.00000000000E+00  0.00000000000E+00  0.12022688745E+04  0.12022688745E+04  0.50400000000E-02 0. -1.
         -1   -1    0    0    0  501 -0.00000000000E+00 -0.00000000000E+00 -0.26870013717E+02  0.26870014190E+02  0.50400000000E-02 0.  1.
         25    2    1    2    0    0  0.99794879205E+02 -0.91945057023E+02  0.46762463106E+03  0.50269369364E+03  0.12496096441E+03 0.  0.
         23    2    1    2    0    0 -0.99794879205E+02  0.91945057023E+02  0.70777422974E+03  0.72644519507E+03  0.91462285882E+02 0.  0.
        -11    1    4    4    0    0 -0.29615003383E+02  0.13261814540E+02  0.45815373209E+02  0.56142431126E+02  0.51100000000E-03 0.  1.
         11    1    4    4    0    0 -0.70179875822E+02  0.78683242483E+02  0.66195885653E+03  0.67030276395E+03  0.51100000000E-03 0. -1.
    9000005    1    3    3    0    0  0.98441068321E+02 -0.12255397434E+02  0.19691484905E+03  0.22049330256E+03  0.10000000000E+01 0.  0.
    9000005    1    3    3    0    0  0.13538108835E+01 -0.79689659589E+02  0.27070978201E+03  0.28220039108E+03  0.10000000000E+01 0.  0.
<mgrwt>
<rscale>  0 0.17902439E+03</rscale>
<asrwt>0</asrwt>
<pdfrwt beam="1">  1        1 0.18496441E+00 0.18446722E+03</pdfrwt>
<pdfrwt beam="2">  1       -1 0.41338490E-02 0.18446722E+03</pdfrwt>
<totfact> 0.26583028E+03</totfact>
</mgrwt>
</event>
<event>
 8    2  0.1409546E-003  0.1292723E+03  0.7818608E-02  0.1242236E+00
          1   -1    0    0  501    0  0.00000000000E+00  0.00000000000E+00  0.16165511327E+03  0.16165511335E+03  0.50400000000E-02 0. -1.
         -1   -1    0    0    0  501 -0.00000000000E+00 -0.00000000000E+00 -0.79765033705E+02  0.79765033864E+02  0.50400000000E-02 0.  1.
         25    2    1    2    0    0  0.26247499394E+02 -0.19934595369E+02  0.51159538924E+02  0.13902741485E+03  0.12500001736E+03 0.  0.
         23    2    1    2    0    0 -0.26247499394E+02  0.19934595369E+02  0.30730540638E+02  0.10239273236E+03  0.91943385817E+02 0.  0.
        -11    1    4    4    0    0 -0.38231784152E+02 -0.10993965567E+01  0.55730460124E+02  0.67592619257E+02  0.51100000000E-03 0. -1.
         11    1    4    4    0    0  0.11984284758E+02  0.21033991925E+02 -0.24999919486E+02  0.34800113104E+02  0.51100000000E-03 0.  1.
    9000005    1    3    3    0    0  0.18681422160E+02  0.31656314430E+02  0.73582667585E+02  0.82258900710E+02  0.10000000000E+01 0.  0.
    9000005    1    3    3    0    0  0.75660772341E+01 -0.51590909799E+02 -0.22423128661E+02  0.56768514139E+02  0.10000000000E+01 0.  0.
<mgrwt>
<rscale>  0 0.12052360E+03</rscale>
<asrwt>0</asrwt>
<pdfrwt beam="1">  1        1 0.24870017E-01 0.12927228E+03</pdfrwt>
<pdfrwt beam="2">  1       -1 0.12271544E-01 0.12927228E+03</pdfrwt>
<totfact> 0.80258492E+03</totfact>
</mgrwt>
</event>
<event>
 8    2  0.1409546E-003  0.3096253E+03  0.7818608E-02  0.1081857E+00
         -1   -1    0    0    0  501 -0.00000000000E+00  0.00000000000E+00  0.76458119711E+02  0.76458119877E+02  0.50400000000E-02 0.  1.
          1   -1    0    0  501    0  0.00000000000E+00 -0.00000000000E+00 -0.12332458791E+04  0.12332458791E+04  0.50400000000E-02 0. -1.
         25    2    1    2    0    0 -0.26883516409E+03 -0.89280714358E+02 -0.67813920765E+03  0.74548014018E+03  0.12499785211E+03 0.  0.
         23    2    1    2    0    0  0.26883516409E+03  0.89280714358E+02 -0.47864855171E+03  0.56422385878E+03  0.94872205424E+02 0.  0.
        -11    1    4    4    0    0  0.18437202793E+03  0.54523361502E+02 -0.23263398422E+03  0.30180194209E+03  0.51100000000E-03 0.  1.
         11    1    4    4    0    0  0.84463136161E+02  0.34757352855E+02 -0.24601456749E+03  0.26242191670E+03  0.51100000000E-03 0. -1.
    9000005    1    3    3    0    0  0.39237894049E+01  0.14779664338E+02 -0.59122878693E+02  0.61076586236E+02  0.10000000000E+01 0.  0.
    9000005    1    3    3    0    0 -0.27275895349E+03 -0.10406037870E+03 -0.61901632896E+03  0.68440355394E+03  0.10000000000E+01 0.  0.
<mgrwt>
<rscale>  0 0.30686675E+03</rscale>
<asrwt>0</asrwt>
<pdfrwt beam="2">  1        1 0.18973012E+00 0.30962535E+03</pdfrwt>
<pdfrwt beam="1">  1       -1 0.11762789E-01 0.30962535E+03</pdfrwt>
<totfact> 0.51284680E+02</totfact>
</mgrwt>
</event>
<event>
 8    2  0.1409546E-003  0.1592387E+03  0.7818608E-02  0.1197840E+00
          1   -1    0    0  501    0  0.00000000000E+00  0.00000000000E+00  0.44234564825E+02  0.44234565112E+02  0.50400000000E-02 0. -1.
         -1   -1    0    0    0  501 -0.00000000000E+00 -0.00000000000E+00 -0.58382873261E+03  0.58382873263E+03  0.50400000000E-02 0.  1.
         25    2    1    2    0    0 -0.41077644022E+02  0.89696440336E+02 -0.42075185613E+03  0.44987674882E+03  0.12499656174E+03 0.  0.
         23    2    1    2    0    0  0.41077644022E+02 -0.89696440336E+02 -0.11884231166E+03  0.17818654892E+03  0.88848899432E+02 0.  0.
        -11    1    4    4    0    0  0.34033801277E+02 -0.48179227600E+02 -0.78914914989E+01  0.59513135019E+02  0.51100000000E-03 0. -1.
         11    1    4    4    0    0  0.70438427458E+01 -0.41517212736E+02 -0.11095082016E+03  0.11867341390E+03  0.51100000000E-03 0.  1.
    9000005    1    3    3    0    0  0.26722998329E+02  0.39334280654E+02 -0.47622661851E+02  0.67306925320E+02  0.10000000000E+01 0.  0.
    9000005    1    3    3    0    0 -0.67800642351E+02  0.50362159682E+02 -0.37312919428E+03  0.38256982350E+03  0.10000000000E+01 0.  0.
<mgrwt>
<rscale>  0 0.15216285E+03</rscale>
<asrwt>0</asrwt>
<pdfrwt beam="1">  1        1 0.68053181E-02 0.15923870E+03</pdfrwt>
<pdfrwt beam="2">  1       -1 0.89819799E-01 0.15923870E+03</pdfrwt>
<totfact> 0.13633018E+03</totfact>
</mgrwt>
</event>
<event>
 8    2  0.1409546E-003  0.1371979E+03  0.7818608E-02  0.1227703E+00
         -1   -1    0    0    0  501 -0.00000000000E+00  0.00000000000E+00  0.93079983813E+01  0.93079997459E+01  0.50400000000E-02 0. -1.
          1   -1    0    0  501    0  0.00000000000E+00 -0.00000000000E+00 -0.18613620851E+04  0.18613620851E+04  0.50400000000E-02 0.  1.
         25    2    1    2    0    0  0.27950673466E+02 -0.49165597001E+02 -0.69613179935E+03  0.70952289603E+03  0.12499904744E+03 0.  0.
         23    2    1    2    0    0 -0.27950673466E+02  0.49165597001E+02 -0.11559222874E+04  0.11611471889E+04  0.94382008781E+02 0.  0.
        -11    1    4    4    0    0 -0.27410366353E+01  0.35785779928E+02 -0.13099957268E+03  0.13582718200E+03  0.51100000000E-03 0. -1.
         11    1    4    4    0    0 -0.25209636831E+02  0.13379817073E+02 -0.10249227147E+04  0.10253200069E+04  0.51100000000E-03 0.  1.
    9000005    1    3    3    0    0 -0.73377331170E+00 -0.98129248399E+01  0.16633301828E+01  0.10029884570E+02  0.10000000000E+01 0.  0.
    9000005    1    3    3    0    0  0.28684446778E+02 -0.39352672161E+02 -0.69779512953E+03  0.69949301146E+03  0.10000000000E+01 0.  0.
<mgrwt>
<rscale>  0 0.12983378E+03</rscale>
<asrwt>0</asrwt>
<pdfrwt beam="2">  1        1 0.28636310E+00 0.13719788E+03</pdfrwt>
<pdfrwt beam="1">  1       -1 0.14320013E-02 0.13719788E+03</pdfrwt>
<totfact> 0.45841011E+03</totfact>
</mgrwt>
</event>
<event>
 8    2  0.1409546E-003  0.1537219E+03  0.7818608E-02  0.1204501E+00
         -1   -1    0    0    0  501 -0.00000000000E+00  0.00000000000E+00  0.93772257889E+02  0.93772258025E+02  0.50400000000E-02 0.  1.
          1   -1    0    0  501    0  0.00000000000E+00 -0.00000000000E+00 -0.30125287668E+03  0.30125287672E+03  0.50400000000E-02 0. -1.
         25    2    1    2    0    0  0.12682194804E+02 -0.88555532418E+02 -0.21811729950E+03  0.26684375970E+03  0.12501006105E+03 0.  0.
         23    2    1    2    0    0 -0.12682194804E+02  0.88555532418E+02  0.10636680714E+02  0.12818137504E+03  0.91183362214E+02 0.  0.
        -11    1    4    4    0    0 -0.76027887198E+00  0.38992572460E+02 -0.40325721900E+02  0.56099577343E+02  0.51100000000E-03 0. -1.
         11    1    4    4    0    0 -0.11921915932E+02  0.49562959958E+02  0.50962402614E+02  0.72081797701E+02  0.51100000000E-03 0.  1.
    9000005    1    3    3    0    0  0.41101648223E+02 -0.10939690243E+03 -0.18261555510E+03  0.21680975235E+03  0.10000000000E+01 0.  0.
    9000005    1    3    3    0    0 -0.28419453420E+02  0.20841370009E+02 -0.35501744400E+02  0.50034007354E+02  0.10000000000E+01 0.  0.
<mgrwt>
<rscale>  0 0.14676856E+03</rscale>
<asrwt>0</asrwt>
<pdfrwt beam="2">  1        1 0.46346596E-01 0.15372194E+03</pdfrwt>
<pdfrwt beam="1">  1       -1 0.14426501E-01 0.15372194E+03</pdfrwt>
<totfact> 0.29077487E+03</totfact>
</mgrwt>
</event>
<event>
 8    2  0.1409546E-003  0.1388244E+03  0.7818608E-02  0.1226193E+00
          1   -1    0    0  501    0  0.00000000000E+00  0.00000000000E+00  0.67185974334E+03  0.67185974336E+03  0.50400000000E-02 0. -1.
         -1   -1    0    0    0  501 -0.00000000000E+00 -0.00000000000E+00 -0.23770681051E+02  0.23770681585E+02  0.50400000000E-02 0.  1.
         25    2    1    2    0    0  0.50254118314E+02 -0.33479515454E+02  0.42461820328E+03  0.44673576478E+03  0.12500348241E+03 0.  0.
         23    2    1    2    0    0 -0.50254118314E+02  0.33479515454E+02  0.22347085901E+03  0.24889466017E+03  0.91449290151E+02 0.  0.
        -11    1    4    4    0    0 -0.18304197110E+02  0.25416287723E+01  0.19546641413E+03  0.19633803137E+03  0.51100000000E-03 0. -1.
         11    1    4    4    0    0 -0.31949921204E+02  0.30937886682E+02  0.28004444885E+02  0.52556628800E+02  0.51100000000E-03 0.  1.
    9000005    1    3    3    0    0 -0.60992165265E+01 -0.41526326933E+02  0.40206710513E+02  0.58131023053E+02  0.10000000000E+01 0.  0.
    9000005    1    3    3    0    0  0.56353334841E+02  0.80468114793E+01  0.38441149277E+03  0.38860474173E+03  0.10000000000E+01 0.  0.
<mgrwt>
<rscale>  0 0.13085469E+03</rscale>
<asrwt>0</asrwt>
<pdfrwt beam="1">  1        1 0.10336303E+00 0.13882444E+03</pdfrwt>
<pdfrwt beam="2">  1       -1 0.36570281E-02 0.13882444E+03</pdfrwt>
<totfact> 0.80941668E+03</totfact>
</mgrwt>
</event>
<event>
 8    2  0.1409546E-003  0.1810635E+03  0.7818608E-02  0.1172403E+00
          1   -1    0    0  501    0  0.00000000000E+00  0.00000000000E+00  0.57174007312E+03  0.57174007314E+03  0.50400000000E-02 0. -1.
         -1   -1    0    0    0  501 -0.00000000000E+00 -0.00000000000E+00 -0.50844029014E+02  0.50844029264E+02  0.50400000000E-02 0.  1.
         25    2    1    2    0    0 -0.60007418032E+01  0.13085454609E+03  0.29762380151E+03  0.34837325333E+03  0.12500030111E+03 0.  0.
         23    2    1    2    0    0  0.60007418032E+01 -0.13085454609E+03  0.22327224260E+03  0.27421084908E+03  0.90455371873E+02 0.  0.
        -11    1    4    4    0    0  0.29374359671E+02 -0.10426113315E+03  0.21020189643E+03  0.23647002803E+03  0.51100000000E-03 0. -1.
         11    1    4    4    0    0 -0.23373617868E+02 -0.26593412941E+02  0.13070346165E+02  0.37740821046E+02  0.51100000000E-03 0.  1.
    9000005    1    3    3    0    0  0.53965588946E+01 -0.15462655112E+02 -0.13625559246E+00  0.16408385558E+02  0.10000000000E+01 0.  0.
    9000005    1    3    3    0    0 -0.11397300698E+02  0.14631720120E+03  0.29776005710E+03  0.33196486777E+03  0.10000000000E+01 0.  0.
<mgrwt>
<rscale>  0 0.17532804E+03</rscale>
<asrwt>0</asrwt>
<pdfrwt beam="1">  1        1 0.87960011E-01 0.18106351E+03</pdfrwt>
<pdfrwt beam="2">  1       -1 0.78221583E-02 0.18106351E+03</pdfrwt>
<totfact> 0.33002366E+03</totfact>
</mgrwt>
</event>
<event>
 8    2  0.1409546E-003  0.1378186E+03  0.7818608E-02  0.1228631E+00
         -1   -1    0    0    0  501 -0.00000000000E+00  0.00000000000E+00  0.12598808287E+03  0.12598808297E+03  0.50400000000E-02 0.  1.
          1   -1    0    0  501    0  0.00000000000E+00 -0.00000000000E+00 -0.13502638506E+03  0.13502638515E+03  0.50400000000E-02 0. -1.
         25    2    1    2    0    0  0.48736773441E+02  0.31526792149E+02 -0.50450557203E+02  0.14676251443E+03  0.12499906085E+03 0.  0.
         23    2    1    2    0    0 -0.48736773441E+02 -0.31526792149E+02  0.41412255019E+02  0.11425195369E+03  0.89271061088E+02 0.  0.
        -11    1    4    4    0    0 -0.10962263961E+02 -0.46789489719E+02  0.53344855370E+02  0.71799033239E+02  0.51100000000E-03 0.  1.
         11    1    4    4    0    0 -0.37774509480E+02  0.15262697570E+02 -0.11932600351E+02  0.42452920452E+02  0.51100000000E-03 0. -1.
    9000005    1    3    3    0    0  0.19171482707E+02 -0.19054863637E+02 -0.77601834828E+02  0.82180766278E+02  0.10000000000E+01 0.  0.
    9000005    1    3    3    0    0  0.29565290734E+02  0.50581655786E+02  0.27151277625E+02  0.64581748156E+02  0.10000000000E+01 0.  0.
<mgrwt>
<rscale>  0 0.12921132E+03</rscale>
<asrwt>0</asrwt>
<pdfrwt beam="2">  1        1 0.20773290E-01 0.13781864E+03</pdfrwt>
<pdfrwt beam="1">  1       -1 0.19382782E-01 0.13781864E+03</pdfrwt>
<totfact> 0.49338209E+03</totfact>
</mgrwt>
</event>
<event>
 8    2  0.1409546E-003  0.1620945E+03  0.7818608E-02  0.1197665E+00
         -1   -1    0    0    0  501 -0.00000000000E+00  0.00000000000E+00  0.75408815722E+02  0.75408815890E+02  0.50400000000E-02 0.  1.
          1   -1    0    0  501    0  0.00000000000E+00 -0.00000000000E+00 -0.28890537403E+03  0.28890537407E+03  0.50400000000E-02 0. -1.
         25    2    1    2    0    0 -0.92450152287E+02  0.45849618892E+02 -0.15782925071E+03  0.22624035051E+03  0.12500162243E+03 0.  0.
         23    2    1    2    0    0  0.92450152287E+02 -0.45849618892E+02 -0.55667307601E+02  0.13807383945E+03  0.72913083839E+02 0.  0.
        -11    1    4    4    0    0  0.80520381522E+01 -0.40151804118E+02 -0.10943294580E+02  0.42388186903E+02  0.51100000000E-03 0.  1.
         11    1    4    4    0    0  0.84398114135E+02 -0.56978147731E+01 -0.44724013021E+02  0.95685652549E+02  0.51100000000E-03 0. -1.
    9000005    1    3    3    0    0 -0.11401020825E+03  0.39143859131E+02 -0.16331217493E+03  0.20298383131E+03  0.10000000000E+01 0.  0.
    9000005    1    3    3    0    0  0.21560055965E+02  0.67057597609E+01  0.54829242259E+01  0.23256519199E+02  0.10000000000E+01 0.  0.
<mgrwt>
<rscale>  0 0.15230850E+03</rscale>
<asrwt>0</asrwt>
<pdfrwt beam="2">  1        1 0.44446980E-01 0.16209449E+03</pdfrwt>
<pdfrwt beam="1">  1       -1 0.11601356E-01 0.16209449E+03</pdfrwt>
<totfact> 0.43107761E+03</totfact>
</mgrwt>
</event>
<event>
 8    2  0.1409546E-003  0.1696271E+03  0.7818608E-02  0.1186954E+00
          1   -1    0    0  501    0  0.00000000000E+00  0.00000000000E+00  0.32762882752E+04  0.32762882752E+04  0.50400000000E-02 0. -1.
         -1   -1    0    0    0  501 -0.00000000000E+00 -0.00000000000E+00 -0.73239975930E+01  0.73239993271E+01  0.50400000000E-02 0.  1.
         25    2    1    2    0    0 -0.22598959691E+02 -0.11243046148E+03  0.18959397264E+04  0.19035127519E+04  0.12498811491E+03 0.  0.
         23    2    1    2    0    0  0.22598959691E+02  0.11243046148E+03  0.13730245513E+04  0.13800995227E+04  0.79542142861E+02 0.  0.
        -11    1    4    4    0    0  0.43016695380E+02  0.10678674246E+03  0.10282419830E+04  0.10346668159E+04  0.51100000000E-03 0.  1.
         11    1    4    4    0    0 -0.20417735689E+02  0.56437190229E+01  0.34478256828E+03  0.34543270674E+03  0.51100000000E-03 0. -1.
    9000005    1    3    3    0    0 -0.43998828323E+01 -0.12792050374E+03  0.18032226771E+04  0.18077599502E+04  0.10000000000E+01 0.  0.
    9000005    1    3    3    0    0 -0.18199076858E+02  0.15490042260E+02  0.92717049229E+02  0.95752801658E+02  0.10000000000E+01 0.  0.
<mgrwt>
<rscale>  0 0.16155307E+03</rscale>
<asrwt>0</asrwt>
<pdfrwt beam="1">  1        1 0.50404376E+00 0.16962709E+03</pdfrwt>
<pdfrwt beam="2">  1       -1 0.11267703E-02 0.16962709E+03</pdfrwt>
<totfact> 0.74089452E+02</totfact>
</mgrwt>
</event>
<event>
 8    2  0.1409546E-003  0.4350017E+03  0.7818608E-02  0.1032958E+00
          1   -1    0    0  501    0  0.00000000000E+00  0.00000000000E+00  0.33047396735E+03  0.33047396739E+03  0.50400000000E-02 0. -1.
         -1   -1    0    0    0  501 -0.00000000000E+00 -0.00000000000E+00 -0.56304878046E+03  0.56304878048E+03  0.50400000000E-02 0.  1.
         25    2    1    2    0    0  0.35027862351E+03  0.22562633878E+03 -0.93971326624E+02  0.44503609666E+03  0.12499663300E+03 0.  0.
         23    2    1    2    0    0 -0.35027862351E+03 -0.22562633878E+03 -0.13860348649E+03  0.44848665121E+03  0.91252347951E+02 0.  0.
        -11    1    4    4    0    0 -0.14460142132E+03 -0.10602858101E+03 -0.10611901652E+03  0.20835756935E+03  0.51100000000E-03 0.  1.
         11    1    4    4    0    0 -0.20567720219E+03 -0.11959775777E+03 -0.32484469970E+02  0.24012908186E+03  0.51100000000E-03 0. -1.
    9000005    1    3    3    0    0  0.28783040384E+03  0.18054447298E+03 -0.12494474764E+03  0.36201496939E+03  0.10000000000E+01 0.  0.
    9000005    1    3    3    0    0  0.62448219666E+02  0.45081865797E+02  0.30973421015E+02  0.83021127266E+02  0.10000000000E+01 0.  0.
<mgrwt>
<rscale>  0 0.43286861E+03</rscale>
<asrwt>0</asrwt>
<pdfrwt beam="1">  1        1 0.50842149E-01 0.43500174E+03</pdfrwt>
<pdfrwt beam="2">  1       -1 0.86622890E-01 0.43500174E+03</pdfrwt>
<totfact> 0.10574019E+02</totfact>
</mgrwt>
</event>
<event>
 8    2  0.1409546E-003  0.1390084E+03  0.7818608E-02  0.1224682E+00
         -1   -1    0    0    0  501 -0.00000000000E+00  0.00000000000E+00  0.31705729998E+02  0.31705730398E+02  0.50400000000E-02 0.  1.
          1   -1    0    0  501    0  0.00000000000E+00 -0.00000000000E+00 -0.68194675260E+03  0.68194675262E+03  0.50400000000E-02 0. -1.
         25    2    1    2    0    0 -0.26024849426E+02  0.54967188276E+02 -0.53397217050E+03  0.55176953666E+03  0.12499863257E+03 0.  0.
         23    2    1    2    0    0  0.26024849426E+02 -0.54967188276E+02 -0.11626885211E+03  0.16188294636E+03  0.94810114321E+02 0.  0.
        -11    1    4    4    0    0 -0.18714349433E+01 -0.63854319588E+02 -0.29607084555E+02  0.70409202913E+02  0.51100000000E-03 0.  1.
         11    1    4    4    0    0  0.27896284369E+02  0.88871313123E+01 -0.86661767556E+02  0.91473743450E+02  0.51100000000E-03 0. -1.
    9000005    1    3    3    0    0 -0.53818627747E+02  0.33177273430E+02 -0.49556738307E+03  0.49958503513E+03  0.10000000000E+01 0.  0.
    9000005    1    3    3    0    0  0.27793778321E+02  0.21789914846E+02 -0.38404787426E+02  0.52184501527E+02  0.10000000000E+01 0.  0.
<mgrwt>
<rscale>  0 0.13188745E+03</rscale>
<asrwt>0</asrwt>
<pdfrwt beam="2">  1        1 0.10491487E+00 0.13900843E+03</pdfrwt>
<pdfrwt beam="1">  1       -1 0.48778052E-02 0.13900843E+03</pdfrwt>
<totfact> 0.51872307E+03</totfact>
</mgrwt>
</event>
<event>
 8    2  0.1409546E-003  0.1716121E+03  0.7818608E-02  0.1182540E+00
          1   -1    0    0  501    0  0.00000000000E+00  0.00000000000E+00  0.74776715823E+03  0.74776715824E+03  0.50400000000E-02 0. -1.
         -1   -1    0    0    0  501 -0.00000000000E+00 -0.00000000000E+00 -0.35611020857E+02  0.35611021213E+02  0.50400000000E-02 0.  1.
         25    2    1    2    0    0  0.83016872005E+02 -0.83269825778E+02  0.45540137614E+03  0.48666324208E+03  0.12500013152E+03 0.  0.
         23    2    1    2    0    0 -0.83016872005E+02  0.83269825778E+02  0.25675476123E+03  0.29671493737E+03  0.91055377246E+02 0.  0.
        -11    1    4    4    0    0 -0.46408003945E+00  0.45258627059E+02  0.35502309231E+02  0.57523670384E+02  0.51100000000E-03 0.  1.
         11    1    4    4    0    0 -0.82552791966E+02  0.38011198720E+02  0.22125245200E+03  0.23919126699E+03  0.51100000000E-03 0. -1.
    9000005    1    3    3    0    0 -0.14006041446E+02  0.60559447762E+01  0.18685671789E+03  0.18748140357E+03  0.10000000000E+01 0.  0.
    9000005    1    3    3    0    0  0.97022913451E+02 -0.89325770555E+02  0.26854465825E+03  0.29918183851E+03  0.10000000000E+01 0.  0.
<mgrwt>
<rscale>  0 0.16557738E+03</rscale>
<asrwt>0</asrwt>
<pdfrwt beam="1">  1        1 0.11504111E+00 0.17161206E+03</pdfrwt>
<pdfrwt beam="2">  1       -1 0.54786184E-02 0.17161206E+03</pdfrwt>
<totfact> 0.38531972E+03</totfact>
</mgrwt>
</event>
<event>
 8    2  0.1409546E-003  0.1721121E+03  0.7818608E-02  0.1181781E+00
         -1   -1    0    0    0  501 -0.00000000000E+00  0.00000000000E+00  0.10410230637E+03  0.10410230650E+03  0.50400000000E-02 0.  1.
          1   -1    0    0  501    0  0.00000000000E+00 -0.00000000000E+00 -0.25837911813E+03  0.25837911818E+03  0.50400000000E-02 0. -1.
         25    2    1    2    0    0  0.57390633835E+02  0.10345868204E+03 -0.11653209122E+03  0.20785166684E+03  0.12500081352E+03 0.  0.
         23    2    1    2    0    0 -0.57390633835E+02 -0.10345868204E+03 -0.37744720544E+02  0.15462975784E+03  0.92132048381E+02 0.  0.
        -11    1    4    4    0    0 -0.40251829681E+02 -0.53597518583E+00 -0.29611383508E+02  0.49973303829E+02  0.51100000000E-03 0. -1.
         11    1    4    4    0    0 -0.17138804154E+02 -0.10292270686E+03 -0.81333370366E+01  0.10465645401E+03  0.51100000000E-03 0.  1.
    9000005    1    3    3    0    0 -0.18169778607E+02  0.63221678580E+02 -0.32643907824E+01  0.65869399149E+02  0.10000000000E+01 0.  0.
    9000005    1    3    3    0    0  0.75560412442E+02  0.40237003465E+02 -0.11326770043E+03  0.14198226769E+03  0.10000000000E+01 0.  0.
<mgrwt>
<rscale>  0 0.16628264E+03</rscale>
<asrwt>0</asrwt>
<pdfrwt beam="2">  1        1 0.39750633E-01 0.17211214E+03</pdfrwt>
<pdfrwt beam="1">  1       -1 0.16015740E-01 0.17211214E+03</pdfrwt>
<totfact> 0.29985918E+03</totfact>
</mgrwt>
</event>
<event>
 8    2  0.1409546E-003  0.1290250E+03  0.7818608E-02  0.1241923E+00
         -1   -1    0    0    0  501 -0.00000000000E+00  0.00000000000E+00  0.68634926843E+02  0.68634927028E+02  0.50400000000E-02 0.  1.
          1   -1    0    0  501    0  0.00000000000E+00 -0.00000000000E+00 -0.22855815435E+03  0.22855815440E+03  0.50400000000E-02 0. -1.
         25    2    1    2    0    0 -0.25558187242E+02 -0.19207519045E+02 -0.27473377642E+02  0.13191751760E+03  0.12500118098E+03 0.  0.
         23    2    1    2    0    0  0.25558187242E+02  0.19207519045E+02 -0.13244984986E+03  0.16527556383E+03  0.93546242841E+02 0.  0.
        -11    1    4    4    0    0  0.26556629907E+02  0.45109604813E+02 -0.12888586579E+03  0.13911037861E+03  0.51100000000E-03 0. -1.
         11    1    4    4    0    0 -0.99844266524E+00 -0.25902085768E+02 -0.35639840749E+01  0.26165185220E+02  0.51100000000E-03 0.  1.
    9000005    1    3    3    0    0 -0.59353742877E+02 -0.27327468237E+02 -0.56680935815E+02  0.86506565061E+02  0.10000000000E+01 0.  0.
    9000005    1    3    3    0    0  0.33795555636E+02  0.81199491922E+01  0.29207558174E+02  0.45410952534E+02  0.10000000000E+01 0.  0.
<mgrwt>
<rscale>  0 0.12071441E+03</rscale>
<asrwt>0</asrwt>
<pdfrwt beam="2">  1        1 0.35162793E-01 0.12902498E+03</pdfrwt>
<pdfrwt beam="1">  1       -1 0.10559220E-01 0.12902498E+03</pdfrwt>
<totfact> 0.65711935E+03</totfact>
</mgrwt>
</event>
<event>
 8    2  0.1409546E-003  0.1269839E+03  0.7818608E-02  0.1246311E+00
          1   -1    0    0  501    0  0.00000000000E+00  0.00000000000E+00  0.21149961297E+04  0.21149961297E+04  0.50400000000E-02 0. -1.
         -1   -1    0    0    0  501 -0.00000000000E+00 -0.00000000000E+00 -0.61101046347E+01  0.61101067133E+01  0.50400000000E-02 0.  1.
         25    2    1    2    0    0 -0.10483756091E+02  0.19794615658E+02  0.97095692190E+03  0.97922534017E+03  0.12499274652E+03 0.  0.
         23    2    1    2    0    0  0.10483756091E+02 -0.19794615658E+02  0.11379291032E+04  0.11418808962E+04  0.92236660025E+02 0.  0.
        -11    1    4    4    0    0  0.32176448097E+01 -0.16988809489E+02  0.36130752865E+02  0.40055014528E+02  0.51100000000E-03 0.  1.
         11    1    4    4    0    0  0.72661112810E+01 -0.28058061696E+01  0.11017983503E+04  0.11018258817E+04  0.51100000000E-03 0. -1.
    9000005    1    3    3    0    0  0.51207638306E+02  0.23551961510E+02  0.64501829748E+03  0.64747704298E+03  0.10000000000E+01 0.  0.
    9000005    1    3    3    0    0 -0.61691394397E+02 -0.37573458522E+01  0.32593862443E+03  0.33174829718E+03  0.10000000000E+01 0.  0.
<mgrwt>
<rscale>  0 0.11807235E+03</rscale>
<asrwt>0</asrwt>
<pdfrwt beam="1">  1        1 0.32538427E+00 0.12698395E+03</pdfrwt>
<pdfrwt beam="2">  1       -1 0.94001554E-03 0.12698395E+03</pdfrwt>
<totfact> 0.57589504E+03</totfact>
</mgrwt>
</event>
<event>
 8    2  0.1409546E-003  0.2026426E+03  0.7818608E-02  0.1151706E+00
          1   -1    0    0  501    0  0.00000000000E+00  0.00000000000E+00  0.80752607376E+02  0.80752607533E+02  0.50400000000E-02 0. -1.
         -1   -1    0    0    0  501 -0.00000000000E+00 -0.00000000000E+00 -0.46565038720E+03  0.46565038723E+03  0.50400000000E-02 0.  1.
         25    2    1    2    0    0 -0.14395348967E+03  0.68648334608E+02 -0.22703657827E+03  0.30431833624E+03  0.12501536253E+03 0.  0.
         23    2    1    2    0    0  0.14395348967E+03 -0.68648334608E+02 -0.15786120156E+03  0.24208465852E+03  0.90827429235E+02 0.  0.
        -11    1    4    4    0    0  0.27885502473E+02 -0.44937532727E+02 -0.12098042459E+02  0.54252610328E+02  0.51100000000E-03 0. -1.
         11    1    4    4    0    0  0.11606798720E+03 -0.23710801881E+02 -0.14576315910E+03  0.18783204819E+03  0.51100000000E-03 0.  1.
    9000005    1    3    3    0    0 -0.80905916651E+02 -0.95183548178E+01 -0.17075296925E+03  0.18919287232E+03  0.10000000000E+01 0.  0.
    9000005    1    3    3    0    0 -0.63047573021E+02  0.78166689426E+02 -0.56283609018E+02  0.11512546392E+03  0.10000000000E+01 0.  0.
<mgrwt>
<rscale>  0 0.19768669E+03</rscale>
<asrwt>0</asrwt>
<pdfrwt beam="1">  1        1 0.12423478E-01 0.20264265E+03</pdfrwt>
<pdfrwt beam="2">  1       -1 0.71638520E-01 0.20264265E+03</pdfrwt>
<totfact> 0.97530735E+02</totfact>
</mgrwt>
</event>
<event>
 8    2  0.1409546E-003  0.1551255E+03  0.7818608E-02  0.1202665E+00
          1   -1    0    0  501    0  0.00000000000E+00  0.00000000000E+00  0.46812916526E+03  0.46812916528E+03  0.50400000000E-02 0. -1.
         -1   -1    0    0    0  501 -0.00000000000E+00 -0.00000000000E+00 -0.46016929535E+02  0.46016929811E+02  0.50400000000E-02 0.  1.
         25    2    1    2    0    0 -0.75861154476E+02  0.51811441104E+02  0.16579895589E+03  0.22705330621E+03  0.12499827959E+03 0.  0.
         23    2    1    2    0    0  0.75861154476E+02 -0.51811441104E+02  0.25631327983E+03  0.28709278888E+03  0.91029840291E+02 0.  0.
        -11    1    4    4    0    0  0.46897243651E+02 -0.43902600298E+02  0.58093548040E+02  0.86612066706E+02  0.51100000000E-03 0.  1.
         11    1    4    4    0    0  0.28963910825E+02 -0.79088408059E+01  0.19821973179E+03  0.20048072218E+03  0.51100000000E-03 0. -1.
    9000005    1    3    3    0    0 -0.10741297028E+03  0.21961937937E+02  0.10121147317E+03  0.14921338815E+03  0.10000000000E+01 0.  0.
    9000005    1    3    3    0    0  0.31551815802E+02  0.29849503167E+02  0.64587482719E+02  0.77839918061E+02  0.10000000000E+01 0.  0.
<mgrwt>
<rscale>  0 0.14822982E+03</rscale>
<asrwt>0</asrwt>
<pdfrwt beam="1">  1        1 0.72019874E-01 0.15512547E+03</pdfrwt>
<pdfrwt beam="2">  1       -1 0.70795274E-02 0.15512547E+03</pdfrwt>
<totfact> 0.49681237E+03</totfact>
</mgrwt>
</event>
<event>
 8    2  0.1409546E-003  0.1427468E+03  0.7818608E-02  0.1226787E+00
          1   -1    0    0  501    0  0.00000000000E+00  0.00000000000E+00  0.29980238556E+02  0.29980238980E+02  0.50400000000E-02 0. -1.
         -1   -1    0    0    0  501 -0.00000000000E+00 -0.00000000000E+00 -0.51350391261E+03  0.51350391263E+03  0.50400000000E-02 0.  1.
         25    2    1    2    0    0 -0.39968442706E+02  0.56158033321E+02 -0.22511364105E+03  0.26655732968E+03  0.12500182999E+03 0.  0.
         23    2    1    2    0    0  0.39968442706E+02 -0.56158033321E+02 -0.25841003300E+03  0.27692682193E+03  0.71843708353E+02 0.  0.
        -11    1    4    4    0    0  0.10190270264E+02 -0.70321854930E+01 -0.17619942286E+03  0.17663388649E+03  0.51100000000E-03 0.  1.
         11    1    4    4    0    0  0.29778172442E+02 -0.49125847828E+02 -0.82210610143E+02  0.10029293544E+03  0.51100000000E-03 0. -1.
    9000005    1    3    3    0    0 -0.60038813290E+02  0.14825323723E+02 -0.20883370646E+03  0.21780028990E+03  0.10000000000E+01 0.  0.
    9000005    1    3    3    0    0  0.20070370584E+02  0.41332709598E+02 -0.16279934584E+02  0.48757039780E+02  0.10000000000E+01 0.  0.
<mgrwt>
<rscale>  0 0.13045147E+03</rscale>
<asrwt>0</asrwt>
<pdfrwt beam="1">  1        1 0.46123448E-02 0.14274683E+03</pdfrwt>
<pdfrwt beam="2">  1       -1 0.79000596E-01 0.14274683E+03</pdfrwt>
<totfact> 0.30148266E+03</totfact>
</mgrwt>
</event>
<event>
 8    2  0.1409546E-003  0.1417335E+03  0.7818608E-02  0.1221085E+00
         -1   -1    0    0    0  501 -0.00000000000E+00  0.00000000000E+00  0.63526691534E+02  0.63526691734E+02  0.50400000000E-02 0.  1.
          1   -1    0    0  501    0  0.00000000000E+00 -0.00000000000E+00 -0.30533935389E+03  0.30533935393E+03  0.50400000000E-02 0. -1.
         25    2    1    2    0    0 -0.54276751840E+02  0.38957761974E+02 -0.59866871911E+02  0.15385848610E+03  0.12499887353E+03 0.  0.
         23    2    1    2    0    0  0.54276751840E+02 -0.38957761974E+02 -0.18194579044E+03  0.21500755956E+03  0.93060770470E+02 0.  0.
        -11    1    4    4    0    0  0.69602303655E+02 -0.49168110896E+02 -0.10173608984E+03  0.13271102358E+03  0.51100000000E-03 0.  1.
         11    1    4    4    0    0 -0.15325551815E+02  0.10210348922E+02 -0.80209700607E+02  0.82296535986E+02  0.51100000000E-03 0. -1.
    9000005    1    3    3    0    0  0.39512982826E+02  0.18623843330E+02 -0.31217792522E+02  0.53699850299E+02  0.10000000000E+01 0.  0.
    9000005    1    3    3    0    0 -0.93789734666E+02  0.20333918644E+02 -0.28649079388E+02  0.10015863580E+03  0.10000000000E+01 0.  0.
<mgrwt>
<rscale>  0 0.13438866E+03</rscale>
<asrwt>0</asrwt>
<pdfrwt beam="2">  1        1 0.46975285E-01 0.14173352E+03</pdfrwt>
<pdfrwt beam="1">  1       -1 0.97733373E-02 0.14173352E+03</pdfrwt>
<totfact> 0.51993908E+03</totfact>
</mgrwt>
</event>
<event>
 8    2  0.1409546E-003  0.1826504E+03  0.7818608E-02  0.1170145E+00
         -1   -1    0    0    0  501 -0.00000000000E+00  0.00000000000E+00  0.14470619711E+03  0.14470619720E+03  0.50400000000E-02 0. -1.
          1   -1    0    0  501    0  0.00000000000E+00 -0.00000000000E+00 -0.25911139247E+03  0.25911139252E+03  0.50400000000E-02 0.  1.
         25    2    1    2    0    0 -0.93665530371E+02  0.94665717740E+02  0.30904000649E+02  0.18524641267E+03  0.12500538570E+03 0.  0.
         23    2    1    2    0    0  0.93665530371E+02 -0.94665717740E+02 -0.14530919600E+03  0.21857117706E+03  0.94465693779E+02 0.  0.
        -11    1    4    4    0    0 -0.12048546839E+02 -0.58907248040E+01 -0.47579302017E+02  0.49433370311E+02  0.51100000000E-03 0.  1.
         11    1    4    4    0    0  0.10571407721E+03 -0.88774992936E+02 -0.97729893988E+02  0.16913780674E+03  0.51100000000E-03 0. -1.
    9000005    1    3    3    0    0 -0.20898744840E+02  0.19924418067E+02 -0.46916648793E+02  0.55099109840E+02  0.10000000000E+01 0.  0.
    9000005    1    3    3    0    0 -0.72766785531E+02  0.74741299672E+02  0.77820649442E+02  0.13014730283E+03  0.10000000000E+01 0.  0.
<mgrwt>
<rscale>  0 0.17760090E+03</rscale>
<asrwt>0</asrwt>
<pdfrwt beam="2">  1        1 0.39863291E-01 0.18265042E+03</pdfrwt>
<pdfrwt beam="1">  1       -1 0.22262492E-01 0.18265042E+03</pdfrwt>
<totfact> 0.17629534E+03</totfact>
</mgrwt>
</event>
<event>
 8    2  0.1409546E-003  0.2168528E+03  0.7818608E-02  0.1139648E+00
          1   -1    0    0  501    0  0.00000000000E+00  0.00000000000E+00  0.21928001594E+03  0.21928001600E+03  0.50400000000E-02 0. -1.
         -1   -1    0    0    0  501 -0.00000000000E+00 -0.00000000000E+00 -0.19909223990E+03  0.19909223997E+03  0.50400000000E-02 0.  1.
         25    2    1    2    0    0 -0.17308357315E+03 -0.37970306913E+02 -0.59639166905E+01  0.21693481242E+03  0.12500190813E+03 0.  0.
         23    2    1    2    0    0  0.17308357315E+03  0.37970306913E+02  0.26151692732E+02  0.20143744355E+03  0.92159997454E+02 0.  0.
        -11    1    4    4    0    0  0.63991071623E+02  0.58748465737E+02  0.24935787852E+02  0.90377170735E+02  0.51100000000E-03 0.  1.
         11    1    4    4    0    0  0.10909250152E+03 -0.20778158824E+02  0.12159048792E+01  0.11106027281E+03  0.51100000000E-03 0. -1.
    9000005    1    3    3    0    0 -0.11817441615E+03 -0.46951245073E+02 -0.58889504067E+02  0.14013773844E+03  0.10000000000E+01 0.  0.
    9000005    1    3    3    0    0 -0.54909156999E+02  0.89809381604E+01  0.52925587376E+02  0.76797073979E+02  0.10000000000E+01 0.  0.
<mgrwt>
<rscale>  0 0.21243989E+03</rscale>
<asrwt>0</asrwt>
<pdfrwt beam="1">  1        1 0.33735387E-01 0.21685282E+03</pdfrwt>
<pdfrwt beam="2">  1       -1 0.30629575E-01 0.21685282E+03</pdfrwt>
<totfact> 0.12811082E+03</totfact>
</mgrwt>
</event>
<event>
 8    2  0.1409546E-003  0.1655314E+03  0.7818608E-02  0.1189517E+00
         -1   -1    0    0    0  501 -0.00000000000E+00  0.00000000000E+00  0.10317492487E+03  0.10317492499E+03  0.50400000000E-02 0.  1.
          1   -1    0    0  501    0  0.00000000000E+00 -0.00000000000E+00 -0.44226677124E+03  0.44226677127E+03  0.50400000000E-02 0. -1.
         25    2    1    2    0    0  0.31423364236E+02  0.10386459590E+03  0.12793617410E+02  0.16602510880E+03  0.12500151200E+03 0.  0.
         23    2    1    2    0    0 -0.31423364236E+02 -0.10386459590E+03 -0.35188546379E+03  0.37941658747E+03  0.91423657313E+02 0.  0.
        -11    1    4    4    0    0 -0.63030511349E+01 -0.69449258620E+02 -0.31632052668E+03  0.32391604403E+03  0.51100000000E-03 0. -1.
         11    1    4    4    0    0 -0.25120313101E+02 -0.34415337282E+02 -0.35564937107E+02  0.55500543440E+02  0.51100000000E-03 0.  1.
    9000005    1    3    3    0    0  0.71849493007E+01 -0.11633437770E+01  0.51101763893E+02  0.51627193786E+02  0.10000000000E+01 0.  0.
    9000005    1    3    3    0    0  0.24238414935E+02  0.10502793968E+03 -0.38308146483E+02  0.11439791501E+03  0.10000000000E+01 0.  0.
<mgrwt>
<rscale>  0 0.15927605E+03</rscale>
<asrwt>0</asrwt>
<pdfrwt beam="2">  1        1 0.68041041E-01 0.16553145E+03</pdfrwt>
<pdfrwt beam="1">  1       -1 0.15873066E-01 0.16553145E+03</pdfrwt>
<totfact> 0.15457834E+03</totfact>
</mgrwt>
</event>
<event>
 8    2  0.1409546E-003  0.1559013E+03  0.7818608E-02  0.1201618E+00
         -1   -1    0    0    0  501 -0.00000000000E+00  0.00000000000E+00  0.13368740600E+02  0.13368741550E+02  0.50400000000E-02 0.  1.
          1   -1    0    0  501    0  0.00000000000E+00 -0.00000000000E+00 -0.17651283736E+04  0.17651283736E+04  0.50400000000E-02 0. -1.
         25    2    1    2    0    0 -0.76254448565E+02  0.53501782015E+02 -0.12658186295E+04  0.12753830897E+04  0.12501216326E+03 0.  0.
         23    2    1    2    0    0  0.76254448565E+02 -0.53501782015E+02 -0.48594100353E+03  0.50311402554E+03  0.91147584604E+02 0.  0.
        -11    1    4    4    0    0  0.20486623111E+02  0.14678151884E+02 -0.32135356435E+02  0.40839086702E+02  0.51100000000E-03 0.  1.
         11    1    4    4    0    0  0.55767825454E+02 -0.68179933899E+02 -0.45380564709E+03  0.46227493883E+03  0.51100000000E-03 0. -1.
    9000005    1    3    3    0    0 -0.71711465186E+02  0.57455728436E+01 -0.11103472277E+04  0.11126758342E+04  0.10000000000E+01 0.  0.
    9000005    1    3    3    0    0 -0.45429833785E+01  0.47756209171E+02 -0.15547140178E+03  0.16270725547E+03  0.10000000000E+01 0.  0.
<mgrwt>
<rscale>  0 0.14907189E+03</rscale>
<asrwt>0</asrwt>
<pdfrwt beam="2">  1        1 0.27155803E+00 0.15590132E+03</pdfrwt>
<pdfrwt beam="1">  1       -1 0.20567308E-02 0.15590132E+03</pdfrwt>
<totfact> 0.31402564E+03</totfact>
</mgrwt>
</event>
<event>
 8    2  0.1409546E-003  0.1641796E+03  0.7818608E-02  0.1191576E+00
          1   -1    0    0  501    0  0.00000000000E+00  0.00000000000E+00  0.94277139066E+02  0.94277139201E+02  0.50400000000E-02 0. -1.
         -1   -1    0    0    0  501 -0.00000000000E+00 -0.00000000000E+00 -0.25633268497E+03  0.25633268502E+03  0.50400000000E-02 0.  1.
         25    2    1    2    0    0  0.41688136000E+02 -0.97938636025E+02 -0.48626559949E+02  0.17122934672E+03  0.12500027894E+03 0.  0.
         23    2    1    2    0    0 -0.41688136000E+02  0.97938636025E+02 -0.11342898596E+03  0.17938047751E+03  0.89338366590E+02 0.  0.
        -11    1    4    4    0    0 -0.32793242827E+02  0.38369719504E+02  0.53831575903E+00  0.50476944578E+02  0.51100000000E-03 0. -1.
         11    1    4    4    0    0 -0.88948931739E+01  0.59568916522E+02 -0.11396730172E+03  0.12890353293E+03  0.51100000000E-03 0.  1.
    9000005    1    3    3    0    0  0.23173360321E+01 -0.11929782774E+03 -0.37274242455E+02  0.12501084314E+03  0.10000000000E+01 0.  0.
    9000005    1    3    3    0    0  0.39370799968E+02  0.21359191719E+02 -0.11352317495E+02  0.46218503584E+02  0.10000000000E+01 0.  0.
<mgrwt>
<rscale>  0 0.15747646E+03</rscale>
<asrwt>0</asrwt>
<pdfrwt beam="1">  1        1 0.14504175E-01 0.16417962E+03</pdfrwt>
<pdfrwt beam="2">  1       -1 0.39435797E-01 0.16417962E+03</pdfrwt>
<totfact> 0.24122916E+03</totfact>
</mgrwt>
</event>
<event>
 8    2  0.1409546E-003  0.1866390E+03  0.7818608E-02  0.1165417E+00
         -1   -1    0    0    0  501 -0.00000000000E+00  0.00000000000E+00  0.33664816517E+02  0.33664816894E+02  0.50400000000E-02 0.  1.
          1   -1    0    0  501    0  0.00000000000E+00 -0.00000000000E+00 -0.94945018623E+03  0.94945018624E+03  0.50400000000E-02 0. -1.
         25    2    1    2    0    0 -0.13856618070E+03  0.30265735184E+01 -0.45681028870E+03  0.49346708058E+03  0.12499749268E+03 0.  0.
         23    2    1    2    0    0  0.13856618070E+03 -0.30265735184E+01 -0.45897508101E+03  0.48964792256E+03  0.99434483412E+02 0.  0.
        -11    1    4    4    0    0  0.22973637082E+02  0.26809578368E+02 -0.21669729412E+03  0.21955468287E+03  0.51100000000E-03 0. -1.
         11    1    4    4    0    0  0.11559254362E+03 -0.29836151887E+02 -0.24227778689E+03  0.27009323968E+03  0.51100000000E-03 0.  1.
    9000005    1    3    3    0    0 -0.11929628511E+03  0.54641058894E+02 -0.30826409484E+03  0.33502985110E+03  0.10000000000E+01 0.  0.
    9000005    1    3    3    0    0 -0.19269895587E+02 -0.51614485376E+02 -0.14854619386E+03  0.15843722948E+03  0.10000000000E+01 0.  0.
<mgrwt>
<rscale>  0 0.18248735E+03</rscale>
<asrwt>0</asrwt>
<pdfrwt beam="2">  1        1 0.14606924E+00 0.18663901E+03</pdfrwt>
<pdfrwt beam="1">  1       -1 0.51792033E-02 0.18663901E+03</pdfrwt>
<totfact> 0.28929963E+03</totfact>
</mgrwt>
</event>
<event>
 8    2  0.1409546E-003  0.1292110E+03  0.7818608E-02  0.1242981E+00
         -1   -1    0    0    0  501 -0.00000000000E+00  0.00000000000E+00  0.50548586554E+01  0.50548611680E+01  0.50400000000E-02 0.  1.
          1   -1    0    0  501    0  0.00000000000E+00 -0.00000000000E+00 -0.25480247533E+04  0.25480247533E+04  0.50400000000E-02 0. -1.
         25    2    1    2    0    0 -0.28893120527E+02 -0.15362517926E+02 -0.15954992427E+04  0.16007227471E+04  0.12499864136E+03 0.  0.
         23    2    1    2    0    0  0.28893120527E+02  0.15362517926E+02 -0.94747065195E+03  0.95235686735E+03  0.90620897783E+02 0.  0.
        -11    1    4    4    0    0  0.52255464738E+02  0.29766911704E+02 -0.43321585040E+03  0.43737018150E+03  0.51100000000E-03 0.  1.
         11    1    4    4    0    0 -0.23362344211E+02 -0.14404393779E+02 -0.51425480155E+03  0.51498668585E+03  0.51100000000E-03 0. -1.
    9000005    1    3    3    0    0  0.46012952328E+01  0.51831979326E+02 -0.51707513171E+03  0.51968780804E+03  0.10000000000E+01 0.  0.
    9000005    1    3    3    0    0 -0.33494415760E+02 -0.67194497252E+02 -0.10784241110E+04  0.10810349391E+04  0.10000000000E+01 0.  0.
<mgrwt>
<rscale>  0 0.12007026E+03</rscale>
<asrwt>0</asrwt>
<pdfrwt beam="2">  1        1 0.39200278E+00 0.12921099E+03</pdfrwt>
<pdfrwt beam="1">  1       -1 0.77767279E-03 0.12921099E+03</pdfrwt>
<totfact> 0.39690919E+03</totfact>
</mgrwt>
</event>
<event>
 8    2  0.1409546E-003  0.1287930E+03  0.7818608E-02  0.1243509E+00
         -1   -1    0    0    0  501 -0.00000000000E+00  0.00000000000E+00  0.12737013744E+02  0.12737014741E+02  0.50400000000E-02 0.  1.
          1   -1    0    0  501    0  0.00000000000E+00 -0.00000000000E+00 -0.99526976648E+03  0.99526976649E+03  0.50400000000E-02 0. -1.
         25    2    1    2    0    0 -0.17932262073E+02 -0.25320908204E+02 -0.57923875804E+03  0.59338450918E+03  0.12499968998E+03 0.  0.
         23    2    1    2    0    0  0.17932262073E+02  0.25320908204E+02 -0.40329399469E+03  0.41462227206E+03  0.91120074162E+02 0.  0.
        -11    1    4    4    0    0  0.20162362013E+01  0.40621859786E+02 -0.72793851588E+02  0.83385523505E+02  0.51100000000E-03 0.  1.
         11    1    4    4    0    0  0.15916025871E+02 -0.15300951582E+02 -0.33050014310E+03  0.33123674855E+03  0.51100000000E-03 0. -1.
    9000005    1    3    3    0    0 -0.27336008724E+02 -0.63113502816E+02 -0.50386004655E+03  0.50853369418E+03  0.10000000000E+01 0.  0.
    9000005    1    3    3    0    0  0.94037466515E+01  0.37792594612E+02 -0.75378711495E+02  0.84850814995E+02  0.10000000000E+01 0.  0.
<mgrwt>
<rscale>  0 0.11975076E+03</rscale>
<asrwt>0</asrwt>
<pdfrwt beam="2">  1        1 0.15311836E+00 0.12879300E+03</pdfrwt>
<pdfrwt beam="1">  1       -1 0.19595414E-02 0.12879300E+03</pdfrwt>
<totfact> 0.10934317E+04</totfact>
</mgrwt>
</event>
<event>
 8    2  0.1409546E-003  0.2149948E+03  0.7818608E-02  0.1141353E+00
          1   -1    0    0  501    0  0.00000000000E+00  0.00000000000E+00  0.11072952269E+04  0.11072952269E+04  0.50400000000E-02 0. -1.
         -1   -1    0    0    0  501 -0.00000000000E+00 -0.00000000000E+00 -0.47706268912E+02  0.47706269178E+02  0.50400000000E-02 0.  1.
         25    2    1    2    0    0 -0.17424388271E+03  0.15387551953E+02  0.29201402237E+03  0.36262232325E+03  0.12500021057E+03 0.  0.
         23    2    1    2    0    0  0.17424388271E+03 -0.15387551953E+02  0.76757493563E+03  0.79237917285E+03  0.89976465464E+02 0.  0.
        -11    1    4    4    0    0  0.17006049320E+03  0.92615524035E+01  0.69700938016E+03  0.71751545191E+03  0.51100000000E-03 0.  1.
         11    1    4    4    0    0  0.41833895134E+01 -0.24649104357E+02  0.70565555475E+02  0.74863720941E+02  0.51100000000E-03 0. -1.
    9000005    1    3    3    0    0 -0.69365484239E+01  0.18718249257E+02  0.12359672500E+03  0.12520239211E+03  0.10000000000E+01 0.  0.
    9000005    1    3    3    0    0 -0.16730733429E+03 -0.33306973040E+01  0.16841729738E+03  0.23741993115E+03  0.10000000000E+01 0.  0.
<mgrwt>
<rscale>  0 0.21026920E+03</rscale>
<asrwt>0</asrwt>
<pdfrwt beam="1">  1        1 0.17035312E+00 0.21499479E+03</pdfrwt>
<pdfrwt beam="2">  1       -1 0.73394258E-02 0.21499479E+03</pdfrwt>
<totfact> 0.13119392E+03</totfact>
</mgrwt>
</event>
<event>
 8    2  0.1409546E-003  0.1329727E+03  0.7818608E-02  0.1236340E+00
         -1   -1    0    0    0  501 -0.00000000000E+00  0.00000000000E+00  0.93748704524E+03  0.93748704526E+03  0.50400000000E-02 0.  1.
          1   -1    0    0  501    0  0.00000000000E+00 -0.00000000000E+00 -0.20957719230E+02  0.20957719836E+02  0.50400000000E-02 0. -1.
         25    2    1    2    0    0 -0.20221666234E+02 -0.40587186451E+02  0.76350983056E+03  0.77500257826E+03  0.12500199782E+03 0.  0.
         23    2    1    2    0    0  0.20221666234E+02  0.40587186451E+02  0.15301949545E+03  0.18344218683E+03  0.90442437115E+02 0.  0.
        -11    1    4    4    0    0  0.14221119558E+02  0.28033593729E+02  0.16957728899E+01  0.31480124917E+02  0.51100000000E-03 0. -1.
         11    1    4    4    0    0  0.60005466761E+01  0.12553592722E+02  0.15132372256E+03  0.15196206191E+03  0.51100000000E-03 0.  1.
    9000005    1    3    3    0    0 -0.66322409982E+02 -0.42730724732E+02  0.34256689807E+03  0.35153613834E+03  0.10000000000E+01 0.  0.
    9000005    1    3    3    0    0  0.46100743747E+02  0.21435382809E+01  0.42094293249E+03  0.42346643993E+03  0.10000000000E+01 0.  0.
<mgrwt>
<rscale>  0 0.12419053E+03</rscale>
<asrwt>0</asrwt>
<pdfrwt beam="2">  1        1 0.32242648E-02 0.13297268E+03</pdfrwt>
<pdfrwt beam="1">  1       -1 0.14422877E+00 0.13297268E+03</pdfrwt>
<totfact> 0.12599399E+03</totfact>
</mgrwt>
</event>
<event>
 8    2  0.1409546E-003  0.1483929E+03  0.7818608E-02  0.1211553E+00
         -1   -1    0    0    0  501 -0.00000000000E+00  0.00000000000E+00  0.23206197458E+02  0.23206198006E+02  0.50400000000E-02 0.  1.
          1   -1    0    0  501    0  0.00000000000E+00 -0.00000000000E+00 -0.81375891184E+03  0.81375891185E+03  0.50400000000E-02 0. -1.
         25    2    1    2    0    0 -0.35662104969E+02  0.71550249914E+02 -0.50641065589E+03  0.52770465493E+03  0.12501690460E+03 0.  0.
         23    2    1    2    0    0  0.35662104969E+02 -0.71550249914E+02 -0.28414205848E+03  0.30926045493E+03  0.92271856981E+02 0.  0.
        -11    1    4    4    0    0  0.25518646962E+02 -0.66835929887E+02 -0.90813283278E+02  0.11560837031E+03  0.51100000000E-03 0.  1.
         11    1    4    4    0    0  0.10143458007E+02 -0.47143200276E+01 -0.19332877520E+03  0.19365208462E+03  0.51100000000E-03 0. -1.
    9000005    1    3    3    0    0 -0.15260855640E+02  0.94038104548E+01 -0.89695664480E+00  0.17975814228E+02  0.10000000000E+01 0.  0.
    9000005    1    3    3    0    0 -0.20401249329E+02  0.62146439459E+02 -0.50551369925E+03  0.50972884070E+03  0.10000000000E+01 0.  0.
<mgrwt>
<rscale>  0 0.14132776E+03</rscale>
<asrwt>0</asrwt>
<pdfrwt beam="2">  1        1 0.12519366E+00 0.14839289E+03</pdfrwt>
<pdfrwt beam="1">  1       -1 0.35701849E-02 0.14839289E+03</pdfrwt>
<totfact> 0.63570138E+03</totfact>
</mgrwt>
</event>
<event>
 8    2  0.1409546E-003  0.1392029E+03  0.7818608E-02  0.1228338E+00
         -1   -1    0    0    0  501 -0.00000000000E+00  0.00000000000E+00  0.10334767201E+03  0.10334767214E+03  0.50400000000E-02 0. -1.
          1   -1    0    0  501    0  0.00000000000E+00 -0.00000000000E+00 -0.14667504500E+03  0.14667504509E+03  0.50400000000E-02 0.  1.
         25    2    1    2    0    0  0.59879781155E+02  0.12912075047E+02 -0.52412648873E+01  0.13930158336E+03  0.12500060158E+03 0.  0.
         23    2    1    2    0    0 -0.59879781155E+02 -0.12912075047E+02 -0.38086108097E+02  0.11072113386E+03  0.84001833200E+02 0.  0.
        -11    1    4    4    0    0 -0.17845685192E+02 -0.31190876122E+02  0.16415732409E+02  0.39507157631E+02  0.51100000000E-03 0. -1.
         11    1    4    4    0    0 -0.42034095963E+02  0.18278801075E+02 -0.54501840506E+02  0.71213976234E+02  0.51100000000E-03 0.  1.
    9000005    1    3    3    0    0  0.66385866679E+02 -0.25025359485E+02  0.38745572558E+02  0.80842880360E+02  0.10000000000E+01 0.  0.
    9000005    1    3    3    0    0 -0.65060855236E+01  0.37937434532E+02 -0.43986837446E+02  0.58458702998E+02  0.10000000000E+01 0.  0.
<mgrwt>
<rscale>  0 0.12940695E+03</rscale>
<asrwt>0</asrwt>
<pdfrwt beam="2">  1        1 0.22565392E-01 0.13920295E+03</pdfrwt>
<pdfrwt beam="1">  1       -1 0.15899642E-01 0.13920295E+03</pdfrwt>
<totfact> 0.60892226E+03</totfact>
</mgrwt>
</event>
<event>
 8    2  0.1409546E-003  0.1334936E+03  0.7818608E-02  0.1235326E+00
         -1   -1    0    0    0  501 -0.00000000000E+00  0.00000000000E+00  0.23214031292E+03  0.23214031298E+03  0.50400000000E-02 0.  1.
          1   -1    0    0  501    0  0.00000000000E+00 -0.00000000000E+00 -0.62100169981E+02  0.62100170185E+02  0.50400000000E-02 0. -1.
         25    2    1    2    0    0  0.46535351065E+02 -0.57018278948E+01  0.67665408130E+02  0.14966345527E+03  0.12498997018E+03 0.  0.
         23    2    1    2    0    0 -0.46535351065E+02  0.57018278948E+01  0.10237473481E+03  0.14457702790E+03  0.90685615876E+02 0.  0.
        -11    1    4    4    0    0 -0.60537913665E+02  0.23455675078E+02  0.35525400991E+02  0.74007173977E+02  0.51100000000E-03 0. -1.
         11    1    4    4    0    0  0.14002562600E+02 -0.17753847183E+02  0.66849333823E+02  0.70569853918E+02  0.51100000000E-03 0.  1.
    9000005    1    3    3    0    0  0.18891622905E+02  0.39446384709E+02 -0.19324664976E+02  0.47826283141E+02  0.10000000000E+01 0.  0.
    9000005    1    3    3    0    0  0.27643728160E+02 -0.45148212604E+02  0.86990073106E+02  0.10183717213E+03  0.10000000000E+01 0.  0.
<mgrwt>
<rscale>  0 0.12483572E+03</rscale>
<asrwt>0</asrwt>
<pdfrwt beam="2">  1        1 0.95538724E-02 0.13349360E+03</pdfrwt>
<pdfrwt beam="1">  1       -1 0.35713894E-01 0.13349360E+03</pdfrwt>
<totfact> 0.49111357E+03</totfact>
</mgrwt>
</event>
<event>
 8    2  0.1409546E-003  0.1498339E+03  0.7818608E-02  0.1209734E+00
         -1   -1    0    0    0  501 -0.00000000000E+00  0.00000000000E+00  0.37153801876E+02  0.37153802218E+02  0.50400000000E-02 0.  1.
          1   -1    0    0  501    0  0.00000000000E+00 -0.00000000000E+00 -0.64635918331E+03  0.64635918333E+03  0.50400000000E-02 0. -1.
         25    2    1    2    0    0  0.50414845023E+02 -0.65449035840E+02 -0.48853189099E+03  0.51099277879E+03  0.12499991428E+03 0.  0.
         23    2    1    2    0    0 -0.50414845023E+02  0.65449035840E+02 -0.12067349045E+03  0.17252020676E+03  0.91519929814E+02 0.  0.
        -11    1    4    4    0    0  0.12924983281E+02  0.13883956161E+02  0.76135309555E+01  0.20439796608E+02  0.51100000000E-03 0.  1.
         11    1    4    4    0    0 -0.63339828303E+02  0.51565079679E+02 -0.12828702140E+03  0.15208041015E+03  0.51100000000E-03 0. -1.
    9000005    1    3    3    0    0  0.85600026801E+02 -0.38759610925E+02 -0.22580782294E+03  0.24458095782E+03  0.10000000000E+01 0.  0.
    9000005    1    3    3    0    0 -0.35185181778E+02 -0.26689424914E+02 -0.26272406805E+03  0.26641182097E+03  0.10000000000E+01 0.  0.
<mgrwt>
<rscale>  0 0.14270597E+03</rscale>
<asrwt>0</asrwt>
<pdfrwt beam="2">  1        1 0.99439866E-01 0.14983395E+03</pdfrwt>
<pdfrwt beam="1">  1       -1 0.57159700E-02 0.14983395E+03</pdfrwt>
<totfact> 0.44353388E+03</totfact>
</mgrwt>
</event>
<event>
 8    2  0.1409546E-003  0.1307095E+03  0.7818608E-02  0.1241978E+00
          1   -1    0    0  501    0  0.00000000000E+00  0.00000000000E+00  0.14977416969E+02  0.14977417817E+02  0.50400000000E-02 0. -1.
         -1   -1    0    0    0  501 -0.00000000000E+00 -0.00000000000E+00 -0.92133467473E+03  0.92133467474E+03  0.50400000000E-02 0.  1.
         25    2    1    2    0    0  0.10987443143E+02 -0.36597322407E+02 -0.64793876694E+03  0.66099138759E+03  0.12499952338E+03 0.  0.
         23    2    1    2    0    0 -0.10987443143E+02  0.36597322407E+02 -0.25841849082E+03  0.27532070497E+03  0.86955656947E+02 0.  0.
        -11    1    4    4    0    0 -0.45832937676E+01  0.46116396278E+02 -0.56493866346E+02  0.73070414823E+02  0.51100000000E-03 0. -1.
         11    1    4    4    0    0 -0.64041493759E+01 -0.95190738714E+01 -0.20192462447E+03  0.20225029015E+03  0.51100000000E-03 0.  1.
    9000005    1    3    3    0    0 -0.23186911781E+02  0.37577639552E+02 -0.14887190525E+03  0.15528540190E+03  0.10000000000E+01 0.  0.
    9000005    1    3    3    0    0  0.34174354924E+02 -0.74174961958E+02 -0.49906686169E+03  0.50570598568E+03  0.10000000000E+01 0.  0.
<mgrwt>
<rscale>  0 0.12068114E+03</rscale>
<asrwt>0</asrwt>
<pdfrwt beam="1">  1        1 0.23042188E-02 0.13070948E+03</pdfrwt>
<pdfrwt beam="2">  1       -1 0.14174375E+00 0.13070948E+03</pdfrwt>
<totfact> 0.20961761E+03</totfact>
</mgrwt>
</event>
<event>
 8    2  0.1409546E-003  0.1513308E+03  0.7818608E-02  0.1207751E+00
          1   -1    0    0  501    0  0.00000000000E+00  0.00000000000E+00  0.38125378020E+03  0.38125378024E+03  0.50400000000E-02 0. -1.
         -1   -1    0    0    0  501 -0.00000000000E+00 -0.00000000000E+00 -0.78388905062E+02  0.78388905224E+02  0.50400000000E-02 0.  1.
         25    2    1    2    0    0 -0.59258393040E+02  0.61417708868E+02  0.29854854721E+03  0.33471218916E+03  0.12496928592E+03 0.  0.
         23    2    1    2    0    0  0.59258393040E+02 -0.61417708868E+02  0.43163279280E+01  0.12493049630E+03  0.91133452201E+02 0.  0.
        -11    1    4    4    0    0  0.33921782897E+02 -0.48177174918E+01  0.40567261925E+02  0.53099910519E+02  0.51100000000E-03 0. -1.
         11    1    4    4    0    0  0.25336610143E+02 -0.56599991376E+02 -0.36250933997E+02  0.71830585778E+02  0.51100000000E-03 0.  1.
    9000005    1    3    3    0    0 -0.30002595548E+02 -0.20234380106E+02  0.16793688793E+02  0.39907566465E+02  0.10000000000E+01 0.  0.
    9000005    1    3    3    0    0 -0.29255797492E+02  0.81652088974E+02  0.28175485842E+03  0.29480462270E+03  0.10000000000E+01 0.  0.
<mgrwt>
<rscale>  0 0.14422741E+03</rscale>
<asrwt>0</asrwt>
<pdfrwt beam="1">  1        1 0.58654427E-01 0.15133081E+03</pdfrwt>
<pdfrwt beam="2">  1       -1 0.12059832E-01 0.15133081E+03</pdfrwt>
<totfact> 0.28615699E+03</totfact>
</mgrwt>
</event>
<event>
 8    2  0.1409546E-003  0.1331140E+03  0.7818608E-02  0.1235891E+00
          1   -1    0    0  501    0  0.00000000000E+00  0.00000000000E+00  0.55786723610E+02  0.55786723838E+02  0.50400000000E-02 0. -1.
         -1   -1    0    0    0  501 -0.00000000000E+00 -0.00000000000E+00 -0.44927028543E+03  0.44927028546E+03  0.50400000000E-02 0.  1.
         25    2    1    2    0    0  0.53598288149E+01  0.45459629387E+02 -0.42683565956E+02  0.13978991025E+03  0.12499610608E+03 0.  0.
         23    2    1    2    0    0 -0.53598288149E+01 -0.45459629387E+02 -0.35079999587E+03  0.36526709905E+03  0.90907155283E+02 0.  0.
        -11    1    4    4    0    0 -0.31761556423E+02 -0.12258146457E+02 -0.28468886783E+03  0.28671729994E+03  0.51100000000E-03 0.  1.
         11    1    4    4    0    0  0.26401727608E+02 -0.33201482930E+02 -0.66111128039E+02  0.78549799110E+02  0.51100000000E-03 0. -1.
    9000005    1    3    3    0    0 -0.56076376946E+01 -0.15709804944E+02 -0.69950579291E+02  0.71918892615E+02  0.10000000000E+01 0.  0.
    9000005    1    3    3    0    0  0.10967466509E+02  0.61169434331E+02  0.27267013334E+02  0.67871017631E+02  0.10000000000E+01 0.  0.
<mgrwt>
<rscale>  0 0.12447573E+03</rscale>
<asrwt>0</asrwt>
<pdfrwt beam="1">  1        1 0.85825732E-02 0.13311398E+03</pdfrwt>
<pdfrwt beam="2">  1       -1 0.69118503E-01 0.13311398E+03</pdfrwt>
<totfact> 0.16926173E+03</totfact>
</mgrwt>
</event>
<event>
 8    2  0.1409546E-003  0.1539556E+03  0.7818608E-02  0.1204184E+00
          1   -1    0    0  501    0  0.00000000000E+00  0.00000000000E+00  0.18749037391E+03  0.18749037398E+03  0.50400000000E-02 0. -1.
         -1   -1    0    0    0  501 -0.00000000000E+00 -0.00000000000E+00 -0.16830053104E+03  0.16830053111E+03  0.50400000000E-02 0.  1.
         25    2    1    2    0    0  0.99418110020E+01  0.89323542615E+02  0.11807312766E+03  0.19401956039E+03  0.12499916587E+03 0.  0.
         23    2    1    2    0    0 -0.99418110020E+01 -0.89323542615E+02 -0.98883284783E+02  0.16177134470E+03  0.91184039640E+02 0.  0.
        -11    1    4    4    0    0 -0.10126786134E+02 -0.60183695581E+01 -0.73853340983E+02  0.74786954371E+02  0.51100000000E-03 0.  1.
         11    1    4    4    0    0  0.18497513159E+00 -0.83305173057E+02 -0.25029943800E+02  0.86984390328E+02  0.51100000000E-03 0. -1.
    9000005    1    3    3    0    0 -0.24092277264E+02  0.10204868875E+03  0.11774623137E+03  0.15766910827E+03  0.10000000000E+01 0.  0.
    9000005    1    3    3    0    0  0.34034088266E+02 -0.12725146136E+02  0.32689628560E+00  0.36350452122E+02  0.10000000000E+01 0.  0.
<mgrwt>
<rscale>  0 0.14701980E+03</rscale>
<asrwt>0</asrwt>
<pdfrwt beam="1">  1        1 0.28844673E-01 0.15395560E+03</pdfrwt>
<pdfrwt beam="2">  1       -1 0.25892389E-01 0.15395560E+03</pdfrwt>
<totfact> 0.20482965E+03</totfact>
</mgrwt>
</event>
<event>
 8    2  0.1409546E-003  0.1374708E+03  0.7818608E-02  0.1229380E+00
         -1   -1    0    0    0  501 -0.00000000000E+00  0.00000000000E+00  0.11269110131E+03  0.11269110142E+03  0.50400000000E-02 0.  1.
          1   -1    0    0  501    0  0.00000000000E+00 -0.00000000000E+00 -0.13120251708E+03  0.13120251718E+03  0.50400000000E-02 0. -1.
         25    2    1    2    0    0  0.18253160267E+02  0.54225865523E+02 -0.13485133439E+02  0.13813062313E+03  0.12499839147E+03 0.  0.
         23    2    1    2    0    0 -0.18253160267E+02 -0.54225865523E+02 -0.50262823342E+01  0.10576299547E+03  0.88808363032E+02 0.  0.
        -11    1    4    4    0    0 -0.44778133353E+01 -0.14769462019E+02 -0.45218916667E+02  0.47780103029E+02  0.51100000000E-03 0. -1.
         11    1    4    4    0    0 -0.13775346931E+02 -0.39456403505E+02  0.40192634333E+02  0.57982892438E+02  0.51100000000E-03 0.  1.
    9000005    1    3    3    0    0 -0.13952587785E+02  0.39743725593E+02  0.50056976652E+02  0.65428887667E+02  0.10000000000E+01 0.  0.
    9000005    1    3    3    0    0  0.32205748052E+02  0.14482139931E+02 -0.63542110091E+02  0.72701735463E+02  0.10000000000E+01 0.  0.
<mgrwt>
<rscale>  0 0.12871185E+03</rscale>
<asrwt>0</asrwt>
<pdfrwt beam="2">  1        1 0.20185003E-01 0.13747080E+03</pdfrwt>
<pdfrwt beam="1">  1       -1 0.17337093E-01 0.13747080E+03</pdfrwt>
<totfact> 0.61113665E+03</totfact>
</mgrwt>
</event>
<event>
 8    2  0.1409546E-003  0.1314063E+03  0.7818608E-02  0.1238985E+00
         -1   -1    0    0    0  501 -0.00000000000E+00  0.00000000000E+00  0.12475015571E+02  0.12475016589E+02  0.50400000000E-02 0.  1.
          1   -1    0    0  501    0  0.00000000000E+00 -0.00000000000E+00 -0.10682519081E+04  0.10682519082E+04  0.50400000000E-02 0. -1.
         25    2    1    2    0    0  0.20428885302E+02  0.35005044645E+02 -0.62003210604E+03  0.63380392603E+03  0.12499964648E+03 0.  0.
         23    2    1    2    0    0 -0.20428885302E+02 -0.35005044645E+02 -0.43574478653E+03  0.44692299871E+03  0.90686025867E+02 0.  0.
        -11    1    4    4    0    0 -0.30060219031E+01 -0.56921739527E+02 -0.16171856352E+03  0.17147015596E+03  0.51100000000E-03 0.  1.
         11    1    4    4    0    0 -0.17422863399E+02  0.21916694882E+02 -0.27402622301E+03  0.27545284275E+03  0.51100000000E-03 0. -1.
    9000005    1    3    3    0    0  0.68481287118E+02  0.37234061234E+02 -0.46461478535E+03  0.47110928750E+03  0.10000000000E+01 0.  0.
    9000005    1    3    3    0    0 -0.48052401816E+02 -0.22290165887E+01 -0.15541732069E+03  0.16269463853E+03  0.10000000000E+01 0.  0.
<mgrwt>
<rscale>  0 0.12252740E+03</rscale>
<asrwt>0</asrwt>
<pdfrwt beam="2">  1        1 0.16434638E+00 0.13140626E+03</pdfrwt>
<pdfrwt beam="1">  1       -1 0.19192341E-02 0.13140626E+03</pdfrwt>
<totfact> 0.99922380E+03</totfact>
</mgrwt>
</event>
<event>
 8    2  0.1409546E-003  0.1266912E+03  0.7818608E-02  0.1247044E+00
         -1   -1    0    0    0  501 -0.00000000000E+00  0.00000000000E+00  0.77407804481E+01  0.77407820889E+01  0.50400000000E-02 0.  1.
          1   -1    0    0  501    0  0.00000000000E+00 -0.00000000000E+00 -0.15761564199E+04  0.15761564199E+04  0.50400000000E-02 0. -1.
         25    2    1    2    0    0 -0.19563777082E+02 -0.66002415776E+01 -0.88432508499E+03  0.89335408201E+03  0.12499742137E+03 0.  0.
         23    2    1    2    0    0  0.19563777082E+02  0.66002415776E+01 -0.68409055442E+03  0.69054311994E+03  0.91889114078E+02 0.  0.
        -11    1    4    4    0    0  0.69936029997E+01 -0.31122767851E+02 -0.54357202977E+03  0.54450719804E+03  0.51100000000E-03 0.  1.
         11    1    4    4    0    0  0.12570174082E+02  0.37723009428E+02 -0.14051852465E+03  0.14603592191E+03  0.51100000000E-03 0. -1.
    9000005    1    3    3    0    0  0.51578340209E+02 -0.14205913858E+02 -0.30932978551E+03  0.31392363621E+03  0.10000000000E+01 0.  0.
    9000005    1    3    3    0    0 -0.71142117291E+02  0.76056722804E+01 -0.57499529948E+03  0.57943044580E+03  0.10000000000E+01 0.  0.
<mgrwt>
<rscale>  0 0.11763858E+03</rscale>
<asrwt>0</asrwt>
<pdfrwt beam="2">  1        1 0.24248535E+00 0.12669120E+03</pdfrwt>
<pdfrwt beam="1">  1       -1 0.11908907E-02 0.12669120E+03</pdfrwt>
<totfact> 0.90462622E+03</totfact>
</mgrwt>
</event>
<event>
 8    2  0.1409546E-003  0.1358823E+03  0.7818608E-02  0.1242629E+00
          1   -1    0    0  501    0  0.00000000000E+00  0.00000000000E+00  0.17697018763E+03  0.17697018770E+03  0.50400000000E-02 0. -1.
         -1   -1    0    0    0  501 -0.00000000000E+00 -0.00000000000E+00 -0.68810783479E+02  0.68810783664E+02  0.50400000000E-02 0.  1.
         25    2    1    2    0    0  0.44126498218E+02  0.29867288966E+02  0.80211875121E+02  0.15779081421E+03  0.12499917337E+03 0.  0.
         23    2    1    2    0    0 -0.44126498218E+02 -0.29867288966E+02  0.27947529028E+02  0.87990157153E+02  0.64202808209E+02 0.  0.
        -11    1    4    4    0    0 -0.24761575209E+02 -0.92199254688E+01 -0.19431870353E+02  0.32798478900E+02  0.51100000000E-03 0.  1.
         11    1    4    4    0    0 -0.19364923009E+02 -0.20647363497E+02  0.47379399380E+02  0.55191678253E+02  0.51100000000E-03 0. -1.
    9000005    1    3    3    0    0 -0.29704604742E+02 -0.12775167731E+02  0.62976267512E+02  0.70799567252E+02  0.10000000000E+01 0.  0.
    9000005    1    3    3    0    0  0.73831102961E+02  0.42642456697E+02  0.17235607610E+02  0.86991246957E+02  0.10000000000E+01 0.  0.
<mgrwt>
<rscale>  0 0.12028395E+03</rscale>
<asrwt>0</asrwt>
<pdfrwt beam="1">  1        1 0.27226182E-01 0.13588229E+03</pdfrwt>
<pdfrwt beam="2">  1       -1 0.10586275E-01 0.13588229E+03</pdfrwt>
<totfact> 0.90266771E+03</totfact>
</mgrwt>
</event>
<event>
 8    2  0.1409546E-003  0.1768749E+03  0.7818608E-02  0.1176684E+00
         -1   -1    0    0    0  501 -0.00000000000E+00  0.00000000000E+00  0.68516310953E+02  0.68516311139E+02  0.50400000000E-02 0.  1.
          1   -1    0    0  501    0  0.00000000000E+00 -0.00000000000E+00 -0.48383083762E+03  0.48383083764E+03  0.50400000000E-02 0. -1.
         25    2    1    2    0    0  0.11525959331E+03  0.48737202432E+02 -0.10552046026E+03  0.20595949611E+03  0.12499863100E+03 0.  0.
         23    2    1    2    0    0 -0.11525959331E+03 -0.48737202432E+02 -0.30979406640E+03  0.34638765267E+03  0.91389023377E+02 0.  0.
        -11    1    4    4    0    0 -0.10115720839E+03 -0.73167560566E+01 -0.15269269096E+03  0.18330677456E+03  0.51100000000E-03 0. -1.
         11    1    4    4    0    0 -0.14102384927E+02 -0.41420446375E+02 -0.15710137545E+03  0.16308087811E+03  0.51100000000E-03 0.  1.
    9000005    1    3    3    0    0 -0.54875045419E+00  0.73363378455E+01  0.25321287366E+02  0.26387318429E+02  0.10000000000E+01 0.  0.
    9000005    1    3    3    0    0  0.11580834377E+03  0.41400864587E+02 -0.13084174763E+03  0.17957217768E+03  0.10000000000E+01 0.  0.
<mgrwt>
<rscale>  0 0.17112103E+03</rscale>
<asrwt>0</asrwt>
<pdfrwt beam="2">  1        1 0.74435511E-01 0.17687495E+03</pdfrwt>
<pdfrwt beam="1">  1       -1 0.10540971E-01 0.17687495E+03</pdfrwt>
<totfact> 0.26101581E+03</totfact>
</mgrwt>
</event>
<event>
 8    2  0.1409546E-003  0.1492786E+03  0.7818608E-02  0.1210652E+00
          1   -1    0    0  501    0  0.00000000000E+00  0.00000000000E+00  0.14545733321E+04  0.14545733321E+04  0.50400000000E-02 0. -1.
         -1   -1    0    0    0  501 -0.00000000000E+00 -0.00000000000E+00 -0.12699044469E+02  0.12699045469E+02  0.50400000000E-02 0.  1.
         25    2    1    2    0    0 -0.81260686906E+02 -0.74108482898E+01  0.75895066520E+03  0.77349222489E+03  0.12500355939E+03 0.  0.
         23    2    1    2    0    0  0.81260686906E+02  0.74108482898E+01  0.68292362247E+03  0.69378015272E+03  0.91038487864E+02 0.  0.
        -11    1    4    4    0    0  0.56654729675E+02 -0.25255633084E+02  0.57553051150E+03  0.57886352024E+03  0.51100000000E-03 0. -1.
         11    1    4    4    0    0  0.24605957231E+02  0.32666481374E+02  0.10739311097E+03  0.11491663248E+03  0.51100000000E-03 0.  1.
    9000005    1    3    3    0    0 -0.14885673687E+02  0.72510552323E+01  0.60467168905E+03  0.60489917558E+03  0.10000000000E+01 0.  0.
    9000005    1    3    3    0    0 -0.66375013220E+02 -0.14661903522E+02  0.15427897615E+03  0.16859304931E+03  0.10000000000E+01 0.  0.
<mgrwt>
<rscale>  0 0.14200861E+03</rscale>
<asrwt>0</asrwt>
<pdfrwt beam="1">  1        1 0.22378036E+00 0.14927863E+03</pdfrwt>
<pdfrwt beam="2">  1       -1 0.19537006E-02 0.14927863E+03</pdfrwt>
<totfact> 0.53610864E+03</totfact>
</mgrwt>
</event>
<event>
 8    2  0.1409546E-003  0.1517311E+03  0.7818608E-02  0.1207207E+00
          1   -1    0    0  501    0  0.00000000000E+00  0.00000000000E+00  0.28904714980E+03  0.28904714984E+03  0.50400000000E-02 0. -1.
         -1   -1    0    0    0  501 -0.00000000000E+00 -0.00000000000E+00 -0.66399369687E+02  0.66399369878E+02  0.50400000000E-02 0.  1.
         25    2    1    2    0    0  0.56224732492E+02  0.65085194723E+02  0.11985331486E+03  0.19335756869E+03  0.12500011669E+03 0.  0.
         23    2    1    2    0    0 -0.56224732492E+02 -0.65085194723E+02  0.10279446525E+03  0.16208895102E+03  0.91152744568E+02 0.  0.
        -11    1    4    4    0    0 -0.46756931116E+02 -0.86183281269E+02  0.64529301855E+02  0.11737887108E+03  0.51100000000E-03 0.  1.
         11    1    4    4    0    0 -0.94678013761E+01  0.21098086546E+02  0.38265163395E+02  0.44710079945E+02  0.51100000000E-03 0. -1.
    9000005    1    3    3    0    0 -0.46697557008E+00 -0.25590936351E+02 -0.78480334710E+01  0.26790030214E+02  0.10000000000E+01 0.  0.
    9000005    1    3    3    0    0  0.56691708062E+02  0.90676131075E+02  0.12770134833E+03  0.16656753848E+03  0.10000000000E+01 0.  0.
<mgrwt>
<rscale>  0 0.14464873E+03</rscale>
<asrwt>0</asrwt>
<pdfrwt beam="1">  1        1 0.44468792E-01 0.15173112E+03</pdfrwt>
<pdfrwt beam="2">  1       -1 0.10215288E-01 0.15173112E+03</pdfrwt>
<totfact> 0.52216461E+03</totfact>
</mgrwt>
</event>
<event>
 8    2  0.1409546E-003  0.1353493E+03  0.7818608E-02  0.1231907E+00
         -1   -1    0    0    0  501 -0.00000000000E+00  0.00000000000E+00  0.11033033982E+04  0.11033033982E+04  0.50400000000E-02 0.  1.
          1   -1    0    0  501    0  0.00000000000E+00 -0.00000000000E+00 -0.13164745210E+02  0.13164746175E+02  0.50400000000E-02 0. -1.
         25    2    1    2    0    0 -0.47882418167E+02 -0.20036251325E+02  0.65306292747E+03  0.66694124838E+03  0.12500105688E+03 0.  0.
         23    2    1    2    0    0  0.47882418167E+02  0.20036251325E+02  0.43707572549E+03  0.44952689597E+03  0.91351316657E+02 0.  0.
        -11    1    4    4    0    0  0.35122929280E+02  0.20909147955E+02  0.43457782553E+03  0.43649593248E+03  0.51100000000E-03 0.  1.
         11    1    4    4    0    0  0.12759488887E+02 -0.87289663090E+00  0.24978999642E+01  0.13030963498E+02  0.51100000000E-03 0. -1.
    9000005    1    3    3    0    0 -0.24752376908E+01 -0.41279218070E+02  0.55741478550E+03  0.55894753219E+03  0.10000000000E+01 0.  0.
    9000005    1    3    3    0    0 -0.45407180476E+02  0.21242966745E+02  0.95648141966E+02  0.10799371619E+03  0.10000000000E+01 0.  0.
<mgrwt>
<rscale>  0 0.12704556E+03</rscale>
<asrwt>0</asrwt>
<pdfrwt beam="2">  1        1 0.20253453E-02 0.13534933E+03</pdfrwt>
<pdfrwt beam="1">  1       -1 0.16973900E+00 0.13534933E+03</pdfrwt>
<totfact> 0.15635485E+03</totfact>
</mgrwt>
</event>
<event>
 8    2  0.1409546E-003  0.1352314E+03  0.7818608E-02  0.1229025E+00
         -1   -1    0    0    0  501 -0.00000000000E+00  0.00000000000E+00  0.33586935469E+02  0.33586935848E+02  0.50400000000E-02 0.  1.
          1   -1    0    0  501    0  0.00000000000E+00 -0.00000000000E+00 -0.57368316272E+03  0.57368316274E+03  0.50400000000E-02 0. -1.
         25    2    1    2    0    0  0.73026412845E+01  0.51080229669E+02 -0.15226614320E+03  0.20364802085E+03  0.12500007839E+03 0.  0.
         23    2    1    2    0    0 -0.73026412845E+01 -0.51080229669E+02 -0.38783008405E+03  0.40362207774E+03  0.99177059409E+02 0.  0.
        -11    1    4    4    0    0 -0.27293725157E+01 -0.57160657312E+02 -0.39115506430E+03  0.39531895293E+03  0.51100000000E-03 0. -1.
         11    1    4    4    0    0 -0.45732687688E+01  0.60804276435E+01  0.33249802555E+01  0.83031248046E+01  0.51100000000E-03 0.  1.
    9000005    1    3    3    0    0 -0.55839001689E+02  0.43334688534E+02 -0.68243372635E+02  0.98255011315E+02  0.10000000000E+01 0.  0.
    9000005    1    3    3    0    0  0.63141642974E+02  0.77455411346E+01 -0.84022770566E+02  0.10539300953E+03  0.10000000000E+01 0.  0.
<mgrwt>
<rscale>  0 0.12894839E+03</rscale>
<asrwt>0</asrwt>
<pdfrwt beam="2">  1        1 0.88258941E-01 0.13523142E+03</pdfrwt>
<pdfrwt beam="1">  1       -1 0.51672213E-02 0.13523142E+03</pdfrwt>
<totfact> 0.60371591E+03</totfact>
</mgrwt>
</event>
<event>
 8    2  0.1409546E-003  0.1647969E+03  0.7818608E-02  0.1190316E+00
         -1   -1    0    0    0  501 -0.00000000000E+00  0.00000000000E+00  0.17690341501E+03  0.17690341508E+03  0.50400000000E-02 0.  1.
          1   -1    0    0  501    0  0.00000000000E+00 -0.00000000000E+00 -0.15476825440E+03  0.15476825448E+03  0.50400000000E-02 0. -1.
         25    2    1    2    0    0 -0.37726542167E+02 -0.10054482088E+03 -0.51101081484E+02  0.17253795541E+03  0.12500189013E+03 0.  0.
         23    2    1    2    0    0  0.37726542167E+02  0.10054482088E+03  0.73236242096E+02  0.15913371415E+03  0.91801082965E+02 0.  0.
        -11    1    4    4    0    0 -0.92202824742E+01 -0.14386279465E+02  0.76009159154E+01  0.18701672887E+02  0.51100000000E-03 0.  1.
         11    1    4    4    0    0  0.46946824641E+02  0.11493110035E+03  0.65635326181E+02  0.14043204127E+03  0.51100000000E-03 0. -1.
    9000005    1    3    3    0    0  0.39129748187E+02 -0.62734348144E+02 -0.23588647876E+01  0.73981753652E+02  0.10000000000E+01 0.  0.
    9000005    1    3    3    0    0 -0.76856290354E+02 -0.37810472738E+02 -0.48742216696E+02  0.98556201754E+02  0.10000000000E+01 0.  0.
<mgrwt>
<rscale>  0 0.15857396E+03</rscale>
<asrwt>0</asrwt>
<pdfrwt beam="2">  1        1 0.23810501E-01 0.16479692E+03</pdfrwt>
<pdfrwt beam="1">  1       -1 0.27215910E-01 0.16479692E+03</pdfrwt>
<totfact> 0.24061634E+03</totfact>
</mgrwt>
</event>
<event>
 8    2  0.1409546E-003  0.1379828E+03  0.7818608E-02  0.1226140E+00
         -1   -1    0    0    0  501 -0.00000000000E+00  0.00000000000E+00  0.13225834227E+02  0.13225835187E+02  0.50400000000E-02 0.  1.
          1   -1    0    0  501    0  0.00000000000E+00 -0.00000000000E+00 -0.12168513576E+04  0.12168513576E+04  0.50400000000E-02 0. -1.
         25    2    1    2    0    0 -0.52216365326E+02 -0.26213531982E+02 -0.55474857347E+03  0.57165132169E+03  0.12500222301E+03 0.  0.
         23    2    1    2    0    0  0.52216365326E+02  0.26213531982E+02 -0.64887694987E+03  0.65842587108E+03  0.95234623740E+02 0.  0.
        -11    1    4    4    0    0 -0.86809621747E+00  0.86837541114E+01 -0.17651125125E+01  0.89037519593E+01  0.51100000000E-03 0.  1.
         11    1    4    4    0    0  0.53084461544E+02  0.17529777870E+02 -0.64711183736E+03  0.64952211912E+03  0.51100000000E-03 0. -1.
    9000005    1    3    3    0    0 -0.87389820003E+02 -0.19255540674E+02 -0.48534683883E+03  0.49352842922E+03  0.10000000000E+01 0.  0.
    9000005    1    3    3    0    0  0.35173454677E+02 -0.69579913074E+01 -0.69401734635E+02  0.78122892467E+02  0.10000000000E+01 0.  0.
<mgrwt>
<rscale>  0 0.13089108E+03</rscale>
<asrwt>0</asrwt>
<pdfrwt beam="2">  1        1 0.18720781E+00 0.13798280E+03</pdfrwt>
<pdfrwt beam="1">  1       -1 0.20347448E-02 0.13798280E+03</pdfrwt>
<totfact> 0.72577700E+03</totfact>
</mgrwt>
</event>
<event>
 8    2  0.1409546E-003  0.1306440E+03  0.7818608E-02  0.1240831E+00
          1   -1    0    0  501    0  0.00000000000E+00  0.00000000000E+00  0.11658906459E+04  0.11658906459E+04  0.50400000000E-02 0. -1.
         -1   -1    0    0    0  501 -0.00000000000E+00 -0.00000000000E+00 -0.13544390308E+02  0.13544391246E+02  0.50400000000E-02 0.  1.
         25    2    1    2    0    0  0.36233867945E+02 -0.11467720023E+02  0.89130376597E+03  0.90082753889E+03  0.12499379909E+03 0.  0.
         23    2    1    2    0    0 -0.36233867945E+02  0.11467720023E+02  0.26104248960E+03  0.27860749824E+03  0.89635678778E+02 0.  0.
        -11    1    4    4    0    0 -0.97948864384E+01 -0.38389065269E+02  0.13069560135E+03  0.13656866532E+03  0.51100000000E-03 0. -1.
         11    1    4    4    0    0 -0.26438981507E+02  0.49856785292E+02  0.13034688825E+03  0.14203883293E+03  0.51100000000E-03 0.  1.
    9000005    1    3    3    0    0  0.20036627288E+02  0.54064482177E+02  0.54202608643E+03  0.54508505119E+03  0.10000000000E+01 0.  0.
    9000005    1    3    3    0    0  0.16197240656E+02 -0.65532202200E+02  0.34927767954E+03  0.35574248770E+03  0.10000000000E+01 0.  0.
<mgrwt>
<rscale>  0 0.12138419E+03</rscale>
<asrwt>0</asrwt>
<pdfrwt beam="1">  1        1 0.17936781E+00 0.13064399E+03</pdfrwt>
<pdfrwt beam="2">  1       -1 0.20837522E-02 0.13064399E+03</pdfrwt>
<totfact> 0.75808021E+03</totfact>
</mgrwt>
</event>
<event>
 8    2  0.1409546E-003  0.1477115E+03  0.7818608E-02  0.1213701E+00
          1   -1    0    0  501    0  0.00000000000E+00  0.00000000000E+00  0.91974512356E+03  0.91974512357E+03  0.50400000000E-02 0. -1.
         -1   -1    0    0    0  501 -0.00000000000E+00 -0.00000000000E+00 -0.24903840588E+02  0.24903841098E+02  0.50400000000E-02 0.  1.
         25    2    1    2    0    0 -0.78471169923E+02 -0.59720260040E+01  0.71008388256E+03  0.72528463496E+03  0.12500116731E+03 0.  0.
         23    2    1    2    0    0  0.78471169923E+02  0.59720260040E+01  0.18475740041E+03  0.21936432971E+03  0.88272433641E+02 0.  0.
        -11    1    4    4    0    0  0.30775171390E+02 -0.23542612282E+02  0.16698260516E+02  0.42192388789E+02  0.51100000000E-03 0.  1.
         11    1    4    4    0    0  0.47695998533E+02  0.29514638286E+02  0.16805913989E+03  0.17717194093E+03  0.51100000000E-03 0. -1.
    9000005    1    3    3    0    0  0.18539213890E+02 -0.52601911910E+01  0.17855198615E+02  0.26290305829E+02  0.10000000000E+01 0.  0.
    9000005    1    3    3    0    0 -0.97010383813E+02 -0.71183481297E+00  0.69222868395E+03  0.69899432913E+03  0.10000000000E+01 0.  0.
<mgrwt>
<rscale>  0 0.13972371E+03</rscale>
<asrwt>0</asrwt>
<pdfrwt beam="1">  1        1 0.14149926E+00 0.14771148E+03</pdfrwt>
<pdfrwt beam="2">  1       -1 0.38313600E-02 0.14771148E+03</pdfrwt>
<totfact> 0.47293464E+03</totfact>
</mgrwt>
</event>
<event>
 8    2  0.1409546E-003  0.1553124E+03  0.7818608E-02  0.1201849E+00
          1   -1    0    0  501    0  0.00000000000E+00  0.00000000000E+00  0.18202575978E+04  0.18202575978E+04  0.50400000000E-02 0. -1.
         -1   -1    0    0    0  501 -0.00000000000E+00 -0.00000000000E+00 -0.12290717595E+02  0.12290718629E+02  0.50400000000E-02 0.  1.
         25    2    1    2    0    0  0.84884814303E+02 -0.35936886081E+02  0.12369403017E+04  0.12466528139E+04  0.12500014755E+03 0.  0.
         23    2    1    2    0    0 -0.84884814303E+02  0.35936886081E+02  0.57102657850E+03  0.58589550256E+03  0.93302170842E+02 0.  0.
        -11    1    4    4    0    0 -0.89013783447E+02  0.31904816700E+01  0.49593794172E+03  0.50387307415E+03  0.51100000000E-03 0. -1.
         11    1    4    4    0    0  0.41289691439E+01  0.32746404411E+02  0.75088636780E+02  0.82022428406E+02  0.51100000000E-03 0.  1.
    9000005    1    3    3    0    0  0.44282188058E+01  0.31250472656E+02  0.99463750726E+02  0.10435630729E+03  0.10000000000E+01 0.  0.
    9000005    1    3    3    0    0  0.80456595497E+02 -0.67187358736E+02  0.11374765510E+04  0.11422965066E+04  0.10000000000E+01 0.  0.
<mgrwt>
<rscale>  0 0.14888552E+03</rscale>
<asrwt>0</asrwt>
<pdfrwt beam="1">  1        1 0.28003971E+00 0.15531236E+03</pdfrwt>
<pdfrwt beam="2">  1       -1 0.18908791E-02 0.15531236E+03</pdfrwt>
<totfact> 0.32699775E+03</totfact>
</mgrwt>
</event>
<event>
 8    2  0.1409546E-003  0.1578847E+03  0.7818608E-02  0.1200438E+00
          1   -1    0    0  501    0  0.00000000000E+00  0.00000000000E+00  0.34279902954E+02  0.34279903324E+02  0.50400000000E-02 0. -1.
         -1   -1    0    0    0  501 -0.00000000000E+00 -0.00000000000E+00 -0.68543003303E+03  0.68543003304E+03  0.50400000000E-02 0.  1.
         25    2    1    2    0    0 -0.68123623935E+02 -0.68282060867E+02 -0.22738474034E+03  0.27682378827E+03  0.12499728654E+03 0.  0.
         23    2    1    2    0    0  0.68123623935E+02  0.68282060867E+02 -0.42376538973E+03  0.44288614809E+03  0.85251197425E+02 0.  0.
        -11    1    4    4    0    0  0.41146943584E+02 -0.80128396598E+01 -0.21369654552E+03  0.21776935077E+03  0.51100000000E-03 0.  1.
         11    1    4    4    0    0  0.26976680351E+02  0.76294900527E+02 -0.21006884421E+03  0.22511679733E+03  0.51100000000E-03 0. -1.
    9000005    1    3    3    0    0 -0.64600116263E+02 -0.10319583606E+03 -0.18885846774E+03  0.22470219500E+03  0.10000000000E+01 0.  0.
    9000005    1    3    3    0    0 -0.35235076718E+01  0.34913775198E+02 -0.38526272597E+02  0.52121593271E+02  0.10000000000E+01 0.  0.
<mgrwt>
<rscale>  0 0.15002851E+03</rscale>
<asrwt>0</asrwt>
<pdfrwt beam="1">  1        1 0.52738317E-02 0.15788474E+03</pdfrwt>
<pdfrwt beam="2">  1       -1 0.10545076E+00 0.15788474E+03</pdfrwt>
<totfact> 0.13585273E+03</totfact>
</mgrwt>
</event>
<event>
 8    2  0.1409546E-003  0.2159558E+03  0.7818608E-02  0.1140298E+00
         -1   -1    0    0    0  501 -0.00000000000E+00  0.00000000000E+00  0.16790029963E+03  0.16790029971E+03  0.50400000000E-02 0.  1.
          1   -1    0    0  501    0  0.00000000000E+00 -0.00000000000E+00 -0.28514633133E+03  0.28514633138E+03  0.50400000000E-02 0. -1.
         25    2    1    2    0    0  0.40195338401E+02 -0.17145704205E+03  0.10984763662E+02  0.21623499360E+03  0.12499489961E+03 0.  0.
         23    2    1    2    0    0 -0.40195338401E+02  0.17145704205E+03 -0.12823079537E+03  0.23681163748E+03  0.92862437335E+02 0.  0.
        -11    1    4    4    0    0 -0.63073741388E+02  0.12440284261E+03 -0.11969877201E+03  0.18379923864E+03  0.51100000000E-03 0. -1.
         11    1    4    4    0    0  0.22878402987E+02  0.47054199438E+02 -0.85320233510E+01  0.53012398839E+02  0.51100000000E-03 0.  1.
    9000005    1    3    3    0    0 -0.40475269116E+02 -0.53285159314E+02  0.27190954606E+02  0.72235058147E+02  0.10000000000E+01 0.  0.
    9000005    1    3    3    0    0  0.80670607516E+02 -0.11817188274E+03 -0.16206190943E+02  0.14399993546E+03  0.10000000000E+01 0.  0.
<mgrwt>
<rscale>  0 0.21160977E+03</rscale>
<asrwt>0</asrwt>
<pdfrwt beam="2">  1        1 0.43868666E-01 0.21595580E+03</pdfrwt>
<pdfrwt beam="1">  1       -1 0.25830815E-01 0.21595580E+03</pdfrwt>
<totfact> 0.12280296E+03</totfact>
</mgrwt>
</event>
<event>
 8    2  0.1409546E-003  0.1527250E+03  0.7818608E-02  0.1206112E+00
         -1   -1    0    0    0  501 -0.00000000000E+00  0.00000000000E+00  0.26625334287E+02  0.26625334764E+02  0.50400000000E-02 0. -1.
          1   -1    0    0  501    0  0.00000000000E+00 -0.00000000000E+00 -0.73108118703E+03  0.73108118705E+03  0.50400000000E-02 0.  1.
         25    2    1    2    0    0 -0.80465489546E+02  0.35002195580E+02 -0.40856033288E+03  0.43617253411E+03  0.12500034083E+03 0.  0.
         23    2    1    2    0    0  0.80465489546E+02 -0.35002195580E+02 -0.29589551986E+03  0.32153398770E+03  0.90167055332E+02 0.  0.
        -11    1    4    4    0    0  0.90176134393E+02 -0.38923974807E+02 -0.17904736535E+03  0.20421745780E+03  0.51100000000E-03 0. -1.
         11    1    4    4    0    0 -0.97106448469E+01  0.39217792268E+01 -0.11684815451E+03  0.11731652990E+03  0.51100000000E-03 0.  1.
    9000005    1    3    3    0    0 -0.57773798738E+02 -0.15833713817E+02 -0.66085159483E+02  0.89200709738E+02  0.10000000000E+01 0.  0.
    9000005    1    3    3    0    0 -0.22691690808E+02  0.50835909398E+02 -0.34247517340E+03  0.34697182437E+03  0.10000000000E+01 0.  0.
<mgrwt>
<rscale>  0 0.14550154E+03</rscale>
<asrwt>0</asrwt>
<pdfrwt beam="2">  1        1 0.11247401E+00 0.15272503E+03</pdfrwt>
<pdfrwt beam="1">  1       -1 0.40962059E-02 0.15272503E+03</pdfrwt>
<totfact> 0.61014490E+03</totfact>
</mgrwt>
</event>
<event>
 8    2  0.1409546E-003  0.1277797E+03  0.7818608E-02  0.1244884E+00
          1   -1    0    0  501    0  0.00000000000E+00  0.00000000000E+00  0.53094019256E+01  0.53094043177E+01  0.50400000000E-02 0. -1.
         -1   -1    0    0    0  501 -0.00000000000E+00 -0.00000000000E+00 -0.24099262952E+04  0.24099262952E+04  0.50400000000E-02 0.  1.
         25    2    1    2    0    0 -0.22336616614E+02  0.14344847417E+02 -0.15501350093E+04  0.15553926151E+04  0.12499176312E+03 0.  0.
         23    2    1    2    0    0  0.22336616614E+02 -0.14344847417E+02 -0.85448188400E+03  0.85984308448E+03  0.92120251647E+02 0.  0.
        -11    1    4    4    0    0  0.29142575148E+02  0.34084182281E+02 -0.31972352794E+03  0.32285314848E+03  0.51100000000E-03 0. -1.
         11    1    4    4    0    0 -0.68059585340E+01 -0.48429029698E+02 -0.53475835606E+03  0.53698993600E+03  0.51100000000E-03 0.  1.
    9000005    1    3    3    0    0 -0.62979730271E+02 -0.28128852028E+02 -0.83342480402E+03  0.83627482486E+03  0.10000000000E+01 0.  0.
    9000005    1    3    3    0    0  0.40643113657E+02  0.42473699445E+02 -0.71671020528E+03  0.71911779020E+03  0.10000000000E+01 0.  0.
<mgrwt>
<rscale>  0 0.11892295E+03</rscale>
<asrwt>0</asrwt>
<pdfrwt beam="1">  1        1 0.81683317E-03 0.12777965E+03</pdfrwt>
<pdfrwt beam="2">  1       -1 0.37075702E+00 0.12777965E+03</pdfrwt>
<totfact> 0.29671377E+02</totfact>
</mgrwt>
</event>
<event>
 8    2  0.1409546E-003  0.1654322E+03  0.7818608E-02  0.1190091E+00
         -1   -1    0    0    0  501 -0.00000000000E+00  0.00000000000E+00  0.59704588134E+02  0.59704588346E+02  0.50400000000E-02 0.  1.
          1   -1    0    0  501    0  0.00000000000E+00 -0.00000000000E+00 -0.51825424013E+03  0.51825424016E+03  0.50400000000E-02 0. -1.
         25    2    1    2    0    0 -0.39409925699E+01  0.10829664378E+03 -0.10094737452E+03  0.19379937442E+03  0.12499652246E+03 0.  0.
         23    2    1    2    0    0  0.39409925699E+01 -0.10829664378E+03 -0.35760227748E+03  0.38415945408E+03  0.89193064888E+02 0.  0.
        -11    1    4    4    0    0 -0.37097420746E+02 -0.85496340559E+02 -0.22774658939E+03  0.24607793858E+03  0.51100000000E-03 0. -1.
         11    1    4    4    0    0  0.41038413316E+02 -0.22800303224E+02 -0.12985568809E+03  0.13808151550E+03  0.51100000000E-03 0.  1.
    9000005    1    3    3    0    0  0.36639494467E+02  0.65747308956E+01  0.93168532968E+01  0.38385979165E+02  0.10000000000E+01 0.  0.
    9000005    1    3    3    0    0 -0.40580487036E+02  0.10172191289E+03 -0.11026422782E+03  0.15541339526E+03  0.10000000000E+01 0.  0.
<mgrwt>
<rscale>  0 0.15877090E+03</rscale>
<asrwt>0</asrwt>
<pdfrwt beam="2">  1        1 0.79731419E-01 0.16543224E+03</pdfrwt>
<pdfrwt beam="1">  1       -1 0.91853216E-02 0.16543224E+03</pdfrwt>
<totfact> 0.29388230E+03</totfact>
</mgrwt>
</event>
<event>
 8    2  0.1409546E-003  0.1433233E+03  0.7818608E-02  0.1218841E+00
          1   -1    0    0  501    0  0.00000000000E+00  0.00000000000E+00  0.41261468526E+03  0.41261468529E+03  0.50400000000E-02 0. -1.
         -1   -1    0    0    0  501 -0.00000000000E+00 -0.00000000000E+00 -0.40906104941E+02  0.40906105251E+02  0.50400000000E-02 0.  1.
         25    2    1    2    0    0  0.22657069137E+02 -0.66350637060E+02  0.21740291716E+03  0.26039510563E+03  0.12500333126E+03 0.  0.
         23    2    1    2    0    0 -0.22657069137E+02  0.66350637060E+02  0.15430566316E+03  0.19312568491E+03  0.92582626180E+02 0.  0.
        -11    1    4    4    0    0  0.10611044311E+02  0.55994630327E+02  0.30763326086E+02  0.64763995545E+02  0.51100000000E-03 0.  1.
         11    1    4    4    0    0 -0.33268113448E+02  0.10356006733E+02  0.12354233707E+03  0.12836168937E+03  0.51100000000E-03 0. -1.
    9000005    1    3    3    0    0  0.43278462723E+02 -0.68060773712E+02  0.57263315022E+02  0.98921087243E+02  0.10000000000E+01 0.  0.
    9000005    1    3    3    0    0 -0.20621393586E+02  0.17101366525E+01  0.16013960214E+03  0.16147401839E+03  0.10000000000E+01 0.  0.
<mgrwt>
<rscale>  0 0.13598102E+03</rscale>
<asrwt>0</asrwt>
<pdfrwt beam="1">  1        1 0.63479181E-01 0.14332335E+03</pdfrwt>
<pdfrwt beam="2">  1       -1 0.62932471E-02 0.14332335E+03</pdfrwt>
<totfact> 0.69366161E+03</totfact>
</mgrwt>
</event>
<event>
 8    2  0.1409546E-003  0.1374896E+03  0.7818608E-02  0.1229173E+00
         -1   -1    0    0    0  501 -0.00000000000E+00  0.00000000000E+00  0.36981907444E+03  0.36981907448E+03  0.50400000000E-02 0.  1.
          1   -1    0    0  501    0  0.00000000000E+00 -0.00000000000E+00 -0.43060711598E+02  0.43060711893E+02  0.50400000000E-02 0. -1.
         25    2    1    2    0    0  0.19017357447E+02  0.54000384885E+02  0.12926922618E+03  0.18871652982E+03  0.12500277732E+03 0.  0.
         23    2    1    2    0    0 -0.19017357447E+02 -0.54000384885E+02  0.19748913666E+03  0.22416325655E+03  0.89272084294E+02 0.  0.
        -11    1    4    4    0    0 -0.27400957185E+02 -0.74064311046E+02  0.11978588075E+03  0.14347470806E+03  0.51100000000E-03 0. -1.
         11    1    4    4    0    0  0.83835997379E+01  0.20063926161E+02  0.77703255908E+02  0.80688548484E+02  0.51100000000E-03 0.  1.
    9000005    1    3    3    0    0 -0.18754487035E+02 -0.27033140434E+02  0.17342897186E+01  0.32962542779E+02  0.10000000000E+01 0.  0.
    9000005    1    3    3    0    0  0.37771844483E+02  0.81033525319E+02  0.12753493646E+03  0.15575398704E+03  0.10000000000E+01 0.  0.
<mgrwt>
<rscale>  0 0.12884958E+03</rscale>
<asrwt>0</asrwt>
<pdfrwt beam="2">  1        1 0.66247250E-02 0.13748962E+03</pdfrwt>
<pdfrwt beam="1">  1       -1 0.56895242E-01 0.13748962E+03</pdfrwt>
<totfact> 0.34890194E+03</totfact>
</mgrwt>
</event>
<event>
 8    2  0.1409546E-003  0.1730676E+03  0.7818608E-02  0.1183434E+00
         -1   -1    0    0    0  501 -0.00000000000E+00  0.00000000000E+00  0.13168141429E+03  0.13168141439E+03  0.50400000000E-02 0.  1.
          1   -1    0    0  501    0  0.00000000000E+00 -0.00000000000E+00 -0.24887919879E+03  0.24887919884E+03  0.50400000000E-02 0. -1.
         25    2    1    2    0    0 -0.39798242126E+02 -0.11288696093E+03 -0.15625206827E+03  0.23316750749E+03  0.12500004675E+03 0.  0.
         23    2    1    2    0    0  0.39798242126E+02  0.11288696093E+03  0.39054283770E+02  0.14739310574E+03  0.76629788687E+02 0.  0.
        -11    1    4    4    0    0  0.16564132406E+02  0.54784006244E+02  0.58524118040E+02  0.81857988096E+02  0.51100000000E-03 0.  1.
         11    1    4    4    0    0  0.23234109720E+02  0.58102954685E+02 -0.19469834270E+02  0.65535117642E+02  0.51100000000E-03 0. -1.
    9000005    1    3    3    0    0 -0.66985779319E+02 -0.30216803728E+02 -0.11589852161E+03  0.13723562646E+03  0.10000000000E+01 0.  0.
    9000005    1    3    3    0    0  0.27187537193E+02 -0.82670157201E+02 -0.40353546665E+02  0.95931881034E+02  0.10000000000E+01 0.  0.
<mgrwt>
<rscale>  0 0.16475147E+03</rscale>
<asrwt>0</asrwt>
<pdfrwt beam="2">  1        1 0.38289107E-01 0.17306755E+03</pdfrwt>
<pdfrwt beam="1">  1       -1 0.20258679E-01 0.17306755E+03</pdfrwt>
<totfact> 0.21574856E+03</totfact>
</mgrwt>
</event>
<event>
 8    2  0.1409546E-003  0.1255234E+03  0.7818608E-02  0.1249722E+00
         -1   -1    0    0    0  501 -0.00000000000E+00  0.00000000000E+00  0.56553846563E+03  0.56553846565E+03  0.50400000000E-02 0.  1.
          1   -1    0    0  501    0  0.00000000000E+00 -0.00000000000E+00 -0.21076008821E+02  0.21076009424E+02  0.50400000000E-02 0. -1.
         25    2    1    2    0    0 -0.96849752213E+01 -0.61102292367E+01  0.28569695366E+03  0.31205587011E+03  0.12499993237E+03 0.  0.
         23    2    1    2    0    0  0.96849752213E+01  0.61102292367E+01  0.25876550315E+03  0.27455860497E+03  0.91058817774E+02 0.  0.
        -11    1    4    4    0    0 -0.19337726315E+02  0.23642445502E+02  0.22371885119E+03  0.22579423657E+03  0.51100000000E-03 0.  1.
         11    1    4    4    0    0  0.29022701537E+02 -0.17532216265E+02  0.35046651960E+02  0.48764368400E+02  0.51100000000E-03 0. -1.
    9000005    1    3    3    0    0  0.51177093265E+02  0.18875975758E+02  0.86449021074E+02  0.10222441284E+03  0.10000000000E+01 0.  0.
    9000005    1    3    3    0    0 -0.60862068486E+02 -0.24986204995E+02  0.19924793258E+03  0.20983145727E+03  0.10000000000E+01 0.  0.
<mgrwt>
<rscale>  0 0.11607155E+03</rscale>
<asrwt>0</asrwt>
<pdfrwt beam="2">  1        1 0.32424629E-02 0.12552337E+03</pdfrwt>
<pdfrwt beam="1">  1       -1 0.87005920E-01 0.12552337E+03</pdfrwt>
<totfact> 0.39793481E+03</totfact>
</mgrwt>
</event>
<event>
 8    2  0.1409546E-003  0.1401424E+03  0.7818608E-02  0.1224203E+00
         -1   -1    0    0    0  501 -0.00000000000E+00  0.00000000000E+00  0.35010500795E+02  0.35010501158E+02  0.50400000000E-02 0.  1.
          1   -1    0    0  501    0  0.00000000000E+00 -0.00000000000E+00 -0.64105873918E+03  0.64105873920E+03  0.50400000000E-02 0. -1.
         25    2    1    2    0    0  0.47309979171E+02  0.42150574396E+02 -0.14427193908E+03  0.20113251173E+03  0.12499995928E+03 0.  0.
         23    2    1    2    0    0 -0.47309979171E+02 -0.42150574396E+02 -0.46177629931E+03  0.47493672863E+03  0.91173683404E+02 0.  0.
        -11    1    4    4    0    0 -0.47690521780E+02 -0.68593025833E+02 -0.32067911568E+03  0.33138268557E+03  0.51100000000E-03 0.  1.
         11    1    4    4    0    0  0.38054260969E+00  0.26442451437E+02 -0.14109718363E+03  0.14355404306E+03  0.51100000000E-03 0. -1.
    9000005    1    3    3    0    0  0.69002545820E+02 -0.14653029770E+02 -0.11178698204E+03  0.13218695837E+03  0.10000000000E+01 0.  0.
    9000005    1    3    3    0    0 -0.21692566649E+02  0.56803604165E+02 -0.32484957041E+02  0.68945553359E+02  0.10000000000E+01 0.  0.
<mgrwt>
<rscale>  0 0.13221684E+03</rscale>
<asrwt>0</asrwt>
<pdfrwt beam="2">  1        1 0.98624413E-01 0.14014241E+03</pdfrwt>
<pdfrwt beam="1">  1       -1 0.53862314E-02 0.14014241E+03</pdfrwt>
<totfact> 0.48863779E+03</totfact>
</mgrwt>
</event>
<event>
 8    2  0.1409546E-003  0.1560329E+03  0.7818608E-02  0.1202017E+00
         -1   -1    0    0    0  501 -0.00000000000E+00  0.00000000000E+00  0.24062397831E+03  0.24062397836E+03  0.50400000000E-02 0.  1.
          1   -1    0    0  501    0  0.00000000000E+00 -0.00000000000E+00 -0.99809404214E+02  0.99809404341E+02  0.50400000000E-02 0. -1.
         25    2    1    2    0    0  0.86343135536E+02  0.35580687631E+02  0.14283543080E+03  0.21153774005E+03  0.12500053114E+03 0.  0.
         23    2    1    2    0    0 -0.86343135536E+02 -0.35580687631E+02 -0.20208567037E+01  0.12889564266E+03  0.88819369779E+02 0.  0.
        -11    1    4    4    0    0 -0.55556013300E+02  0.18028870341E+02 -0.24190982944E+02  0.63219573201E+02  0.51100000000E-03 0.  1.
         11    1    4    4    0    0 -0.30787122236E+02 -0.53609557973E+02  0.22170126241E+02  0.65676069458E+02  0.51100000000E-03 0. -1.
    9000005    1    3    3    0    0  0.31726437352E+02  0.23627507511E+02 -0.16350903274E+02  0.42815627708E+02  0.10000000000E+01 0.  0.
    9000005    1    3    3    0    0  0.54616698185E+02  0.11953180121E+02  0.15918633408E+03  0.16872211234E+03  0.10000000000E+01 0.  0.
<mgrwt>
<rscale>  0 0.14875045E+03</rscale>
<asrwt>0</asrwt>
<pdfrwt beam="2">  1        1 0.15355293E-01 0.15603287E+03</pdfrwt>
<pdfrwt beam="1">  1       -1 0.37019073E-01 0.15603287E+03</pdfrwt>
<totfact> 0.24959586E+03</totfact>
</mgrwt>
</event>
<event>
 8    2  0.1409546E-003  0.1262167E+03  0.7818608E-02  0.1248274E+00
          1   -1    0    0  501    0  0.00000000000E+00  0.00000000000E+00  0.10652836725E+04  0.10652836725E+04  0.50400000000E-02 0. -1.
         -1   -1    0    0    0  501 -0.00000000000E+00 -0.00000000000E+00 -0.11459739384E+02  0.11459740492E+02  0.50400000000E-02 0.  1.
         25    2    1    2    0    0 -0.42769343513E+01 -0.16971265118E+02  0.53717401040E+03  0.55180303116E+03  0.12499740695E+03 0.  0.
         23    2    1    2    0    0  0.42769343513E+01  0.16971265118E+02  0.51664992271E+03  0.52494038183E+03  0.91263058449E+02 0.  0.
        -11    1    4    4    0    0  0.26260845095E+02 -0.27841096233E+02  0.14550983124E+03  0.15045886353E+03  0.51100000000E-03 0.  1.
         11    1    4    4    0    0 -0.21983910744E+02  0.44812361351E+02  0.37114009146E+03  0.37448151830E+03  0.51100000000E-03 0. -1.
    9000005    1    3    3    0    0 -0.44152079847E+02  0.62768869100E+01  0.45787975892E+03  0.46004747483E+03  0.10000000000E+01 0.  0.
    9000005    1    3    3    0    0  0.39875145496E+02 -0.23248152028E+02  0.79294251478E+02  0.91755556336E+02  0.10000000000E+01 0.  0.
<mgrwt>
<rscale>  0 0.11691552E+03</rscale>
<asrwt>0</asrwt>
<pdfrwt beam="1">  1        1 0.16388979E+00 0.12621675E+03</pdfrwt>
<pdfrwt beam="2">  1       -1 0.17630370E-02 0.12621675E+03</pdfrwt>
<totfact> 0.11317508E+04</totfact>
</mgrwt>
</event>
<event>
 8    2  0.1409546E-003  0.1304962E+03  0.7818608E-02  0.1239902E+00
          1   -1    0    0  501    0  0.00000000000E+00  0.00000000000E+00  0.27328944456E+03  0.27328944460E+03  0.50400000000E-02 0. -1.
         -1   -1    0    0    0  501 -0.00000000000E+00 -0.00000000000E+00 -0.83448524946E+02  0.83448525098E+02  0.50400000000E-02 0.  1.
         25    2    1    2    0    0 -0.33134537908E+02  0.17491562912E+02 -0.12640912815E+02  0.13110697657E+03  0.12500157700E+03 0.  0.
         23    2    1    2    0    0  0.33134537908E+02 -0.17491562912E+02  0.20248183242E+03  0.22563099313E+03  0.92231232368E+02 0.  0.
        -11    1    4    4    0    0 -0.13565928831E+02  0.95798037576E+01  0.55825275806E+00  0.16616820137E+02  0.51100000000E-03 0.  1.
         11    1    4    4    0    0  0.46700466738E+02 -0.27071366670E+02  0.20192357967E+03  0.20901417299E+03  0.51100000000E-03 0. -1.
    9000005    1    3    3    0    0 -0.37148410928E+02  0.56053589958E+02 -0.44729726547E+02  0.80769782832E+02  0.10000000000E+01 0.  0.
    9000005    1    3    3    0    0  0.40138730209E+01 -0.38562027046E+02  0.32088813732E+02  0.50337193736E+02  0.10000000000E+01 0.  0.
<mgrwt>
<rscale>  0 0.12195791E+03</rscale>
<asrwt>0</asrwt>
<pdfrwt beam="1">  1        1 0.42044529E-01 0.13049616E+03</pdfrwt>
<pdfrwt beam="2">  1       -1 0.12838235E-01 0.13049616E+03</pdfrwt>
<totfact> 0.39042631E+03</totfact>
</mgrwt>
</event>
<event>
 8    2  0.1409546E-003  0.1363581E+03  0.7818608E-02  0.1231681E+00
          1   -1    0    0  501    0  0.00000000000E+00  0.00000000000E+00  0.98997996062E+03  0.98997996064E+03  0.50400000000E-02 0. -1.
         -1   -1    0    0    0  501 -0.00000000000E+00 -0.00000000000E+00 -0.15183410817E+02  0.15183411653E+02  0.50400000000E-02 0.  1.
         25    2    1    2    0    0  0.53529920627E+02  0.10155554846E+02  0.44578468328E+03  0.46617326822E+03  0.12499977785E+03 0.  0.
         23    2    1    2    0    0 -0.53529920627E+02 -0.10155554846E+02  0.52901186653E+03  0.53899010406E+03  0.87682322378E+02 0.  0.
        -11    1    4    4    0    0 -0.53490428628E+02  0.33641910386E+01  0.14256276891E+03  0.15230458567E+03  0.51100000000E-03 0.  1.
         11    1    4    4    0    0 -0.39491998474E-01 -0.13519745884E+02  0.38644909762E+03  0.38668551840E+03  0.51100000000E-03 0. -1.
    9000005    1    3    3    0    0  0.36454902188E+02 -0.53657884377E+02  0.15600024863E+03  0.16895326580E+03  0.10000000000E+01 0.  0.
    9000005    1    3    3    0    0  0.17075018438E+02  0.63813439223E+02  0.28978443465E+03  0.29722000243E+03  0.10000000000E+01 0.  0.
<mgrwt>
<rscale>  0 0.12719322E+03</rscale>
<asrwt>0</asrwt>
<pdfrwt beam="1">  1        1 0.15230463E+00 0.13635810E+03</pdfrwt>
<pdfrwt beam="2">  1       -1 0.23359092E-02 0.13635810E+03</pdfrwt>
<totfact> 0.85890553E+03</totfact>
</mgrwt>
</event>
<event>
 8    2  0.1409546E-003  0.1617168E+03  0.7818608E-02  0.1194155E+00
          1   -1    0    0  501    0  0.00000000000E+00  0.00000000000E+00  0.13929072797E+03  0.13929072806E+03  0.50400000000E-02 0. -1.
         -1   -1    0    0    0  501 -0.00000000000E+00 -0.00000000000E+00 -0.17179993326E+03  0.17179993333E+03  0.50400000000E-02 0.  1.
         25    2    1    2    0    0  0.61658066604E+02  0.82007022840E+02 -0.57124782111E+02  0.17150963642E+03  0.12500178272E+03 0.  0.
         23    2    1    2    0    0 -0.61658066604E+02 -0.82007022840E+02  0.24615576824E+02  0.13958102497E+03  0.91378700676E+02 0.  0.
        -11    1    4    4    0    0  0.20420098028E+02 -0.79509206737E+00  0.11297031697E+02  0.23350278377E+02  0.51100000000E-03 0. -1.
         11    1    4    4    0    0 -0.82078164632E+02 -0.81211930773E+02  0.13318545128E+02  0.11623074659E+03  0.51100000000E-03 0.  1.
    9000005    1    3    3    0    0  0.79141388767E+02  0.10359755021E+03 -0.60087721783E+02  0.14355259013E+03  0.10000000000E+01 0.  0.
    9000005    1    3    3    0    0 -0.17483322163E+02 -0.21590527367E+02  0.29629396717E+01  0.27957046291E+02  0.10000000000E+01 0.  0.
<mgrwt>
<rscale>  0 0.15525934E+03</rscale>
<asrwt>0</asrwt>
<pdfrwt beam="1">  1        1 0.21429343E-01 0.16171677E+03</pdfrwt>
<pdfrwt beam="2">  1       -1 0.26430759E-01 0.16171677E+03</pdfrwt>
<totfact> 0.28853886E+03</totfact>
</mgrwt>
</event>
<event>
 8    2  0.1409546E-003  0.1547843E+03  0.7818608E-02  0.1201991E+00
         -1   -1    0    0    0  501 -0.00000000000E+00  0.00000000000E+00  0.20000862890E+03  0.20000862897E+03  0.50400000000E-02 0.  1.
          1   -1    0    0  501    0  0.00000000000E+00 -0.00000000000E+00 -0.11147930945E+03  0.11147930957E+03  0.50400000000E-02 0. -1.
         25    2    1    2    0    0 -0.62998455917E+02  0.66064687272E+02  0.43445235292E+01  0.15484526921E+03  0.12499933663E+03 0.  0.
         23    2    1    2    0    0  0.62998455917E+02 -0.66064687272E+02  0.84184795919E+02  0.15664266933E+03  0.95480352104E+02 0.  0.
        -11    1    4    4    0    0  0.38620582518E+02 -0.62536489060E+02  0.49497439719E+01  0.73667237112E+02  0.51100000000E-03 0. -1.
         11    1    4    4    0    0  0.24377873398E+02 -0.35281982114E+01  0.79235051947E+02  0.82975432215E+02  0.51100000000E-03 0.  1.
    9000005    1    3    3    0    0 -0.76692529088E+02  0.22032142829E+02 -0.41385821220E+02  0.89894079525E+02  0.10000000000E+01 0.  0.
    9000005    1    3    3    0    0  0.13694073171E+02  0.44032544443E+02  0.45730344749E+02  0.64951189681E+02  0.10000000000E+01 0.  0.
<mgrwt>
<rscale>  0 0.14877130E+03</rscale>
<asrwt>0</asrwt>
<pdfrwt beam="2">  1        1 0.17150663E-01 0.15478431E+03</pdfrwt>
<pdfrwt beam="1">  1       -1 0.30770558E-01 0.15478431E+03</pdfrwt>
<totfact> 0.29684007E+03</totfact>
</mgrwt>
</event>
<event>
 8    2  0.1409546E-003  0.1303061E+03  0.7818608E-02  0.1240838E+00
          1   -1    0    0  501    0  0.00000000000E+00  0.00000000000E+00  0.10849502795E+03  0.10849502806E+03  0.50400000000E-02 0. -1.
         -1   -1    0    0    0  501 -0.00000000000E+00 -0.00000000000E+00 -0.12043656668E+03  0.12043656679E+03  0.50400000000E-02 0.  1.
         25    2    1    2    0    0 -0.18306182838E+02 -0.31936018958E+02 -0.11646260126E+02  0.13082553031E+03  0.12499863346E+03 0.  0.
         23    2    1    2    0    0  0.18306182838E+02  0.31936018958E+02 -0.29527860867E+00  0.98106064543E+02  0.90937819820E+02 0.  0.
        -11    1    4    4    0    0 -0.90685992145E+01  0.50573977425E+02  0.24317123378E+02  0.56844429577E+02  0.51100000000E-03 0. -1.
         11    1    4    4    0    0  0.27374782053E+02 -0.18637958467E+02 -0.24612401986E+02  0.41261634966E+02  0.51100000000E-03 0.  1.
    9000005    1    3    3    0    0 -0.22601982990E+02 -0.77926343992E+02 -0.20706049857E+02  0.83744284723E+02  0.10000000000E+01 0.  0.
    9000005    1    3    3    0    0  0.42958001519E+01  0.45990325034E+02  0.90597897309E+01  0.47081245583E+02  0.10000000000E+01 0.  0.
<mgrwt>
<rscale>  0 0.12137998E+03</rscale>
<asrwt>0</asrwt>
<pdfrwt beam="1">  1        1 0.16691543E-01 0.13030612E+03</pdfrwt>
<pdfrwt beam="2">  1       -1 0.18528703E-01 0.13030612E+03</pdfrwt>
<totfact> 0.69836858E+03</totfact>
</mgrwt>
</event>
<event>
 8    2  0.1409546E-003  0.1317318E+03  0.7818608E-02  0.1234521E+00
          1   -1    0    0  501    0  0.00000000000E+00  0.00000000000E+00  0.36159742975E+03  0.36159742979E+03  0.50400000000E-02 0. -1.
         -1   -1    0    0    0  501 -0.00000000000E+00 -0.00000000000E+00 -0.59955974316E+02  0.59955974528E+02  0.50400000000E-02 0.  1.
         25    2    1    2    0    0  0.39484437271E+02 -0.12998378260E+02  0.28271945706E+03  0.31190312503E+03  0.12500115752E+03 0.  0.
         23    2    1    2    0    0 -0.39484437271E+02  0.12998378260E+02  0.18921998375E+02  0.10965027928E+03  0.99685320384E+02 0.  0.
        -11    1    4    4    0    0 -0.27047347148E+02  0.21092206017E+02  0.58259945566E+02  0.67606666831E+02  0.51100000000E-03 0. -1.
         11    1    4    4    0    0 -0.12437090123E+02 -0.80938277565E+01 -0.39337947191E+02  0.42043612451E+02  0.51100000000E-03 0.  1.
    9000005    1    3    3    0    0  0.64143816020E+02  0.21466022579E+02  0.79852962227E+02  0.10465521886E+03  0.10000000000E+01 0.  0.
    9000005    1    3    3    0    0 -0.24659378749E+02 -0.34464400839E+02  0.20286649483E+03  0.20724790617E+03  0.10000000000E+01 0.  0.
<mgrwt>
<rscale>  0 0.12535141E+03</rscale>
<asrwt>0</asrwt>
<pdfrwt beam="1">  1        1 0.55630373E-01 0.13173180E+03</pdfrwt>
<pdfrwt beam="2">  1       -1 0.92239962E-02 0.13173180E+03</pdfrwt>
<totfact> 0.45823435E+03</totfact>
</mgrwt>
</event>
<event>
 8    2  0.1409546E-003  0.1901240E+03  0.7818608E-02  0.1163082E+00
          1   -1    0    0  501    0  0.00000000000E+00  0.00000000000E+00  0.81813383658E+03  0.81813383660E+03  0.50400000000E-02 0. -1.
         -1   -1    0    0    0  501 -0.00000000000E+00 -0.00000000000E+00 -0.45158297469E+02  0.45158297750E+02  0.50400000000E-02 0.  1.
         25    2    1    2    0    0 -0.14080325699E+03  0.26362970810E+02  0.25527509582E+03  0.31829628984E+03  0.12500636051E+03 0.  0.
         23    2    1    2    0    0  0.14080325699E+03 -0.26362970810E+02  0.51770044329E+03  0.54499584451E+03  0.92120345982E+02 0.  0.
        -11    1    4    4    0    0 -0.40993274494E+01  0.15987844006E+02  0.27468242216E+02  0.32045592087E+02  0.51100000000E-03 0. -1.
         11    1    4    4    0    0  0.14490258444E+03 -0.42350814816E+02  0.49023220108E+03  0.51295025243E+03  0.51100000000E-03 0.  1.
    9000005    1    3    3    0    0 -0.81737591550E+02 -0.38149966321E+02  0.18597425858E+03  0.20669755358E+03  0.10000000000E+01 0.  0.
    9000005    1    3    3    0    0 -0.59065665437E+02  0.64512937131E+02  0.69300837242E+02  0.11159873625E+03  0.10000000000E+01 0.  0.
<mgrwt>
<rscale>  0 0.18496524E+03</rscale>
<asrwt>0</asrwt>
<pdfrwt beam="1">  1        1 0.12586674E+00 0.19012405E+03</pdfrwt>
<pdfrwt beam="2">  1       -1 0.69474308E-02 0.19012405E+03</pdfrwt>
<totfact> 0.23612723E+03</totfact>
</mgrwt>
</event>
<event>
 8    2  0.1409546E-003  0.1256747E+03  0.7818608E-02  0.1248634E+00
         -1   -1    0    0    0  501 -0.00000000000E+00  0.00000000000E+00  0.73337984670E+02  0.73337984843E+02  0.50400000000E-02 0.  1.
          1   -1    0    0  501    0  0.00000000000E+00 -0.00000000000E+00 -0.16372894591E+03  0.16372894599E+03  0.50400000000E-02 0. -1.
         25    2    1    2    0    0 -0.12701109449E+01  0.12847208218E+02 -0.53614613844E+02  0.13663325957E+03  0.12500982706E+03 0.  0.
         23    2    1    2    0    0  0.12701109449E+01 -0.12847208218E+02 -0.36776347396E+02  0.10043367126E+03  0.92562188039E+02 0.  0.
        -11    1    4    4    0    0  0.80358981791E+01  0.37458240858E+02 -0.31127161647E+02  0.49361884691E+02  0.51100000000E-03 0. -1.
         11    1    4    4    0    0 -0.67657872342E+01 -0.50305449077E+02 -0.56491857492E+01  0.51071786571E+02  0.51100000000E-03 0.  1.
    9000005    1    3    3    0    0 -0.43890393808E+02 -0.64041770619E+01  0.20593103586E+02  0.48912739320E+02  0.10000000000E+01 0.  0.
    9000005    1    3    3    0    0  0.42620282863E+02  0.19251385280E+02 -0.74207717430E+02  0.87720520249E+02  0.10000000000E+01 0.  0.
<mgrwt>
<rscale>  0 0.11670516E+03</rscale>
<asrwt>0</asrwt>
<pdfrwt beam="2">  1        1 0.25189069E-01 0.12567466E+03</pdfrwt>
<pdfrwt beam="1">  1       -1 0.11282767E-01 0.12567466E+03</pdfrwt>
<totfact> 0.89686835E+03</totfact>
</mgrwt>
</event>
<event>
 8    2  0.1409546E-003  0.1336173E+03  0.7818608E-02  0.1235833E+00
         -1   -1    0    0    0  501 -0.00000000000E+00  0.00000000000E+00  0.38845847075E+03  0.38845847078E+03  0.50400000000E-02 0.  1.
          1   -1    0    0  501    0  0.00000000000E+00 -0.00000000000E+00 -0.44456901032E+02  0.44456901318E+02  0.50400000000E-02 0. -1.
         25    2    1    2    0    0  0.29141075925E+02 -0.37267148647E+02  0.93985188781E+02  0.16336096370E+03  0.12496217858E+03 0.  0.
         23    2    1    2    0    0 -0.29141075925E+02  0.37267148647E+02  0.25001638093E+03  0.26955440840E+03  0.88956987802E+02 0.  0.
        -11    1    4    4    0    0 -0.15058998438E+02  0.30867108583E+02  0.21508665957E+02  0.40523752760E+02  0.51100000000E-03 0. -1.
         11    1    4    4    0    0 -0.14082077488E+02  0.64000400637E+01  0.22850771498E+03  0.22903065564E+03  0.51100000000E-03 0.  1.
    9000005    1    3    3    0    0  0.72114252625E+02 -0.12927982754E+02  0.86562265139E+02  0.11340909979E+03  0.10000000000E+01 0.  0.
    9000005    1    3    3    0    0 -0.42973176700E+02 -0.24339165893E+02  0.74229236414E+01  0.49951863904E+02  0.10000000000E+01 0.  0.
<mgrwt>
<rscale>  0 0.12451244E+03</rscale>
<asrwt>0</asrwt>
<pdfrwt beam="2">  1        1 0.68395231E-02 0.13361732E+03</pdfrwt>
<pdfrwt beam="1">  1       -1 0.59762843E-01 0.13361732E+03</pdfrwt>
<totfact> 0.30407648E+03</totfact>
</mgrwt>
</event>
<event>
 8    2  0.1409546E-003  0.2107553E+03  0.7818608E-02  0.1144876E+00
         -1   -1    0    0    0  501 -0.00000000000E+00  0.00000000000E+00  0.16218242569E+03  0.16218242577E+03  0.50400000000E-02 0.  1.
          1   -1    0    0  501    0  0.00000000000E+00 -0.00000000000E+00 -0.28512987246E+03  0.28512987251E+03  0.50400000000E-02 0. -1.
         25    2    1    2    0    0  0.14446923262E+03 -0.89006698329E+02 -0.14251935550E+03  0.25442002672E+03  0.12499692710E+03 0.  0.
         23    2    1    2    0    0 -0.14446923262E+03  0.89006698329E+02  0.19571908732E+02  0.19289227155E+03  0.89614827400E+02 0.  0.
        -11    1    4    4    0    0 -0.73954622903E+02  0.88478614969E+02 -0.11391559620E+02  0.11587717284E+03  0.51100000000E-03 0. -1.
         11    1    4    4    0    0 -0.70514609718E+02  0.52808336038E+00  0.30963468352E+02  0.77015098704E+02  0.51100000000E-03 0.  1.
    9000005    1    3    3    0    0  0.15330449319E+03 -0.10212875309E+03 -0.14936213088E+03  0.23715521496E+03  0.10000000000E+01 0.  0.
    9000005    1    3    3    0    0 -0.88352605655E+01  0.13122054763E+02  0.68427753794E+01  0.17264811767E+02  0.10000000000E+01 0.  0.
<mgrwt>
<rscale>  0 0.20587364E+03</rscale>
<asrwt>0</asrwt>
<pdfrwt beam="2">  1        1 0.43866134E-01 0.21075527E+03</pdfrwt>
<pdfrwt beam="1">  1       -1 0.24951142E-01 0.21075527E+03</pdfrwt>
<totfact> 0.13004872E+03</totfact>
</mgrwt>
</event>
<event>
 8    2  0.1409546E-003  0.1390897E+03  0.7818608E-02  0.1228377E+00
         -1   -1    0    0    0  501 -0.00000000000E+00  0.00000000000E+00  0.49200928727E+02  0.49200928985E+02  0.50400000000E-02 0.  1.
          1   -1    0    0  501    0  0.00000000000E+00 -0.00000000000E+00 -0.30928707375E+03  0.30928707379E+03  0.50400000000E-02 0. -1.
         25    2    1    2    0    0  0.12750533093E+01  0.60988684238E+02 -0.17794591189E+03  0.22585546547E+03  0.12499879342E+03 0.  0.
         23    2    1    2    0    0 -0.12750533093E+01 -0.60988684238E+02 -0.82140233131E+02  0.13263253731E+03  0.84398617808E+02 0.  0.
        -11    1    4    4    0    0 -0.12348696735E+02  0.19372793949E+02 -0.16590727010E+02  0.28338095903E+02  0.51100000000E-03 0. -1.
         11    1    4    4    0    0  0.11073643425E+02 -0.80361478186E+02 -0.65549506122E+02  0.10429444141E+03  0.51100000000E-03 0.  1.
    9000005    1    3    3    0    0  0.22314711483E+02 -0.29546490146E+02 -0.92326113290E+02  0.99478905421E+02  0.10000000000E+01 0.  0.
    9000005    1    3    3    0    0 -0.21039658173E+02  0.90535174384E+02 -0.85619798602E+02  0.12637656005E+03  0.10000000000E+01 0.  0.
<mgrwt>
<rscale>  0 0.12938138E+03</rscale>
<asrwt>0</asrwt>
<pdfrwt beam="2">  1        1 0.47582626E-01 0.13908970E+03</pdfrwt>
<pdfrwt beam="1">  1       -1 0.75693739E-02 0.13908970E+03</pdfrwt>
<totfact> 0.75286070E+03</totfact>
</mgrwt>
</event>
<event>
 8    2  0.1409546E-003  0.1472950E+03  0.7818608E-02  0.1212546E+00
          1   -1    0    0  501    0  0.00000000000E+00  0.00000000000E+00  0.14266900533E+04  0.14266900534E+04  0.50400000000E-02 0. -1.
         -1   -1    0    0    0  501 -0.00000000000E+00 -0.00000000000E+00 -0.12795437073E+02  0.12795438066E+02  0.50400000000E-02 0.  1.
         25    2    1    2    0    0  0.76655700072E+02  0.13956055723E+02  0.72080951609E+03  0.73570522545E+03  0.12499980970E+03 0.  0.
         23    2    1    2    0    0 -0.76655700072E+02 -0.13956055723E+02  0.69308510018E+03  0.70378026597E+03  0.94174512623E+02 0.  0.
        -11    1    4    4    0    0 -0.43362728651E+02 -0.48890868168E+02  0.26305616157E+03  0.27105200122E+03  0.51100000000E-03 0.  1.
         11    1    4    4    0    0 -0.33292971421E+02  0.34934812445E+02  0.43002893861E+03  0.43272826475E+03  0.51100000000E-03 0. -1.
    9000005    1    3    3    0    0 -0.20212303724E+02  0.21015669440E+02  0.49915291395E+02  0.57816363591E+02  0.10000000000E+01 0.  0.
    9000005    1    3    3    0    0  0.96868003796E+02 -0.70596137170E+01  0.67089422470E+03  0.67788886186E+03  0.10000000000E+01 0.  0.
<mgrwt>
<rscale>  0 0.14058332E+03</rscale>
<asrwt>0</asrwt>
<pdfrwt beam="1">  1        1 0.21949057E+00 0.14729501E+03</pdfrwt>
<pdfrwt beam="2">  1       -1 0.19685308E-02 0.14729501E+03</pdfrwt>
<totfact> 0.55282783E+03</totfact>
</mgrwt>
</event>
<event>
 8    2  0.1409546E-003  0.1558167E+03  0.7818608E-02  0.1201718E+00
         -1   -1    0    0    0  501 -0.00000000000E+00  0.00000000000E+00  0.81000383161E+02  0.81000383317E+02  0.50400000000E-02 0.  1.
          1   -1    0    0  501    0  0.00000000000E+00 -0.00000000000E+00 -0.28153974452E+03  0.28153974456E+03  0.50400000000E-02 0. -1.
         25    2    1    2    0    0 -0.50268741087E+02 -0.78277370357E+02 -0.50383147423E+02  0.16375989883E+03  0.12499819951E+03 0.  0.
         23    2    1    2    0    0  0.50268741087E+02  0.78277370357E+02 -0.15015621394E+03  0.19878022905E+03  0.91172352379E+02 0.  0.
        -11    1    4    4    0    0 -0.35931994594E+01  0.55641013179E+00 -0.82329174577E+02  0.82409427018E+02  0.51100000000E-03 0. -1.
         11    1    4    4    0    0  0.53861940547E+02  0.77720960226E+02 -0.67827039358E+02  0.11637080203E+03  0.51100000000E-03 0.  1.
    9000005    1    3    3    0    0 -0.60138011427E+02  0.13834871403E+02 -0.31178968289E+02  0.69145586617E+02  0.10000000000E+01 0.  0.
    9000005    1    3    3    0    0  0.98692703391E+01 -0.92112241760E+02 -0.19204179134E+02  0.94614312211E+02  0.10000000000E+01 0.  0.
<mgrwt>
<rscale>  0 0.14899104E+03</rscale>
<asrwt>0</asrwt>
<pdfrwt beam="2">  1        1 0.43313806E-01 0.15581670E+03</pdfrwt>
<pdfrwt beam="1">  1       -1 0.12461598E-01 0.15581670E+03</pdfrwt>
<totfact> 0.39765534E+03</totfact>
</mgrwt>
</event>
<event>
 8    2  0.1409546E-003  0.1265356E+03  0.7818608E-02  0.1244525E+00
          1   -1    0    0  501    0  0.00000000000E+00  0.00000000000E+00  0.17221978824E+03  0.17221978831E+03  0.50400000000E-02 0. -1.
         -1   -1    0    0    0  501 -0.00000000000E+00 -0.00000000000E+00 -0.74168159484E+02  0.74168159655E+02  0.50400000000E-02 0.  1.
         25    2    1    2    0    0  0.14067103215E+02 -0.13797956851E+02  0.57707458580E+02  0.13907334885E+03  0.12499191405E+03 0.  0.
         23    2    1    2    0    0 -0.14067103215E+02  0.13797956851E+02  0.40344170175E+02  0.10731459912E+03  0.97470529451E+02 0.  0.
        -11    1    4    4    0    0  0.23856609403E+02 -0.27581309223E+02 -0.27201810726E+01  0.36568645258E+02  0.51100000000E-03 0. -1.
         11    1    4    4    0    0 -0.37923712618E+02  0.41379266074E+02  0.43064351248E+02  0.70745953864E+02  0.51100000000E-03 0.  1.
    9000005    1    3    3    0    0  0.69625190191E+02 -0.12004939710E+02  0.36870751326E+02  0.79700928413E+02  0.10000000000E+01 0.  0.
    9000005    1    3    3    0    0 -0.55558086976E+02 -0.17930171415E+01  0.20836707254E+02  0.59372420433E+02  0.10000000000E+01 0.  0.
<mgrwt>
<rscale>  0 0.11913852E+03</rscale>
<asrwt>0</asrwt>
<pdfrwt beam="1">  1        1 0.26495352E-01 0.12653555E+03</pdfrwt>
<pdfrwt beam="2">  1       -1 0.11410486E-01 0.12653555E+03</pdfrwt>
<totfact> 0.82795181E+03</totfact>
</mgrwt>
</event>
<event>
 8    2  0.1409546E-003  0.1299015E+03  0.7818608E-02  0.1241044E+00
          1   -1    0    0  501    0  0.00000000000E+00  0.00000000000E+00  0.76227012592E+03  0.76227012594E+03  0.50400000000E-02 0. -1.
         -1   -1    0    0    0  501 -0.00000000000E+00 -0.00000000000E+00 -0.17181393745E+02  0.17181394484E+02  0.50400000000E-02 0.  1.
         25    2    1    2    0    0 -0.34669826442E+02 -0.68840315535E+01  0.44533017519E+03  0.46388938438E+03  0.12500003701E+03 0.  0.
         23    2    1    2    0    0  0.34669826442E+02  0.68840315535E+01  0.29975855698E+03  0.31556213604E+03  0.92059124802E+02 0.  0.
        -11    1    4    4    0    0  0.25893315805E+02  0.13674850888E+02  0.30267512799E+03  0.30408830700E+03  0.51100000000E-03 0. -1.
         11    1    4    4    0    0  0.87765106366E+01 -0.67908193340E+01 -0.29165710023E+01  0.11473829041E+02  0.51100000000E-03 0.  1.
    9000005    1    3    3    0    0 -0.17060717254E+02  0.91523645919E+01  0.15270118328E+01  0.19446480812E+02  0.10000000000E+01 0.  0.
    9000005    1    3    3    0    0 -0.17609109188E+02 -0.16036396145E+02  0.44380316336E+03  0.44444290357E+03  0.10000000000E+01 0.  0.
<mgrwt>
<rscale>  0 0.12125306E+03</rscale>
<asrwt>0</asrwt>
<pdfrwt beam="1">  1        1 0.11727233E+00 0.12990149E+03</pdfrwt>
<pdfrwt beam="2">  1       -1 0.26432914E-02 0.12990149E+03</pdfrwt>
<totfact> 0.10785053E+04</totfact>
</mgrwt>
</event>
<event>
 8    2  0.1409546E-003  0.3237899E+03  0.7818608E-02  0.1075582E+00
         -1   -1    0    0    0  501 -0.00000000000E+00  0.00000000000E+00  0.64154550684E+02  0.64154550881E+02  0.50400000000E-02 0.  1.
          1   -1    0    0  501    0  0.00000000000E+00 -0.00000000000E+00 -0.17149433409E+04  0.17149433409E+04  0.50400000000E-02 0. -1.
         25    2    1    2    0    0 -0.22299071330E+02 -0.29785464848E+03 -0.57738319414E+03  0.66197528620E+03  0.12500114586E+03 0.  0.
         23    2    1    2    0    0  0.22299071330E+02  0.29785464848E+03 -0.10734055961E+04  0.11171226056E+04  0.80924050902E+02 0.  0.
        -11    1    4    4    0    0 -0.19376511160E+02  0.12237092847E+03 -0.34019084151E+03  0.36204958496E+03  0.51100000000E-03 0.  1.
         11    1    4    4    0    0  0.41675582490E+02  0.17548372001E+03 -0.73321475460E+03  0.75507302066E+03  0.51100000000E-03 0. -1.
    9000005    1    3    3    0    0  0.39716571940E+02 -0.14947488333E+03 -0.20887710712E+03  0.25990535337E+03  0.10000000000E+01 0.  0.
    9000005    1    3    3    0    0 -0.62015643270E+02 -0.14837976515E+03 -0.36850608701E+03  0.40206993283E+03  0.10000000000E+01 0.  0.
<mgrwt>
<rscale>  0 0.32014552E+03</rscale>
<asrwt>0</asrwt>
<pdfrwt beam="2">  1        1 0.26383740E+00 0.32378994E+03</pdfrwt>
<pdfrwt beam="1">  1       -1 0.98699322E-02 0.32378994E+03</pdfrwt>
<totfact> 0.31962512E+02</totfact>
</mgrwt>
</event>
<event>
 8    2  0.1409546E-003  0.1258169E+03  0.7818608E-02  0.1251034E+00
          1   -1    0    0  501    0  0.00000000000E+00  0.00000000000E+00  0.19591878780E+03  0.19591878786E+03  0.50400000000E-02 0. -1.
         -1   -1    0    0    0  501 -0.00000000000E+00 -0.00000000000E+00 -0.62793405452E+02  0.62793405654E+02  0.50400000000E-02 0.  1.
         25    2    1    2    0    0  0.29821241539E+01 -0.14082726015E+02  0.45005011995E+02  0.13362388567E+03  0.12499070158E+03 0.  0.
         23    2    1    2    0    0 -0.29821241539E+01  0.14082726015E+02  0.88120370348E+02  0.12508830784E+03  0.87605187360E+02 0.  0.
        -11    1    4    4    0    0 -0.18032372011E+02 -0.70525135379E+01  0.96030508030E+02  0.97963068859E+02  0.51100000000E-03 0. -1.
         11    1    4    4    0    0  0.15050247857E+02  0.21135239553E+02 -0.79101376820E+01  0.27125238984E+02  0.51100000000E-03 0.  1.
    9000005    1    3    3    0    0  0.63434053118E+02 -0.41118692050E+01  0.14652780392E+02  0.65241785204E+02  0.10000000000E+01 0.  0.
    9000005    1    3    3    0    0 -0.60451928964E+02 -0.99708568103E+01  0.30352231604E+02  0.68382100468E+02  0.10000000000E+01 0.  0.
<mgrwt>
<rscale>  0 0.11531425E+03</rscale>
<asrwt>0</asrwt>
<pdfrwt beam="1">  1        1 0.30141352E-01 0.12581690E+03</pdfrwt>
<pdfrwt beam="2">  1       -1 0.96605239E-02 0.12581690E+03</pdfrwt>
<totfact> 0.90905820E+03</totfact>
</mgrwt>
</event>
<event>
 8    2  0.1409546E-003  0.1674007E+03  0.7818608E-02  0.1188209E+00
          1   -1    0    0  501    0  0.00000000000E+00  0.00000000000E+00  0.52299923568E+03  0.52299923571E+03  0.50400000000E-02 0. -1.
         -1   -1    0    0    0  501 -0.00000000000E+00 -0.00000000000E+00 -0.55638585631E+02  0.55638585859E+02  0.50400000000E-02 0.  1.
         25    2    1    2    0    0  0.56569542887E+02 -0.95904523487E+02  0.37285953262E+03  0.40871411821E+03  0.12500083420E+03 0.  0.
         23    2    1    2    0    0 -0.56569542887E+02  0.95904523487E+02  0.94501117436E+02  0.16992370336E+03  0.86866638931E+02 0.  0.
        -11    1    4    4    0    0 -0.13365341187E+02  0.92010364479E+02  0.42569819200E+02  0.10225814894E+03  0.51100000000E-03 0.  1.
         11    1    4    4    0    0 -0.43204201700E+02  0.38941590079E+01  0.51931298236E+02  0.67665554425E+02  0.51100000000E-03 0. -1.
    9000005    1    3    3    0    0  0.68584796303E+01 -0.22994277128E+02  0.27843877582E+03  0.27947258793E+03  0.10000000000E+01 0.  0.
    9000005    1    3    3    0    0  0.49711063257E+02 -0.72910246360E+02  0.94420756793E+02  0.12924153027E+03  0.10000000000E+01 0.  0.
<mgrwt>
<rscale>  0 0.16043290E+03</rscale>
<asrwt>0</asrwt>
<pdfrwt beam="1">  1        1 0.80461422E-01 0.16740071E+03</pdfrwt>
<pdfrwt beam="2">  1       -1 0.85597823E-02 0.16740071E+03</pdfrwt>
<totfact> 0.32344095E+03</totfact>
</mgrwt>
</event>
<event>
 8    2  0.1409546E-003  0.1278694E+03  0.7818608E-02  0.1245517E+00
         -1   -1    0    0    0  501 -0.00000000000E+00  0.00000000000E+00  0.87425584582E+01  0.87425599110E+01  0.50400000000E-02 0.  1.
          1   -1    0    0  501    0  0.00000000000E+00 -0.00000000000E+00 -0.14626125318E+04  0.14626125318E+04  0.50400000000E-02 0. -1.
         25    2    1    2    0    0  0.22596565637E+02  0.14700589412E+02 -0.69913071642E+03  0.71072803305E+03  0.12499546478E+03 0.  0.
         23    2    1    2    0    0 -0.22596565637E+02 -0.14700589412E+02 -0.75473925688E+03  0.76062705863E+03  0.90528803879E+02 0.  0.
        -11    1    4    4    0    0 -0.64356333808E+01 -0.40660245967E+02 -0.16368358396E+03  0.16878088943E+03  0.51100000000E-03 0.  1.
         11    1    4    4    0    0 -0.16160932257E+02  0.25959656555E+02 -0.59105567292E+03  0.59184616920E+03  0.51100000000E-03 0. -1.
    9000005    1    3    3    0    0 -0.22946728943E+02  0.27028194241E+02 -0.59882983067E+03  0.59987935600E+03  0.10000000000E+01 0.  0.
    9000005    1    3    3    0    0  0.45543294580E+02 -0.12327604829E+02 -0.10030088575E+03  0.11084867705E+03  0.10000000000E+01 0.  0.
<mgrwt>
<rscale>  0 0.11854514E+03</rscale>
<asrwt>0</asrwt>
<pdfrwt beam="2">  1        1 0.22501712E+00 0.12786938E+03</pdfrwt>
<pdfrwt beam="1">  1       -1 0.13450103E-02 0.12786938E+03</pdfrwt>
<totfact> 0.90042678E+03</totfact>
</mgrwt>
</event>
<event>
 8    2  0.1409546E-003  0.1817499E+03  0.7818608E-02  0.1171750E+00
          1   -1    0    0  501    0  0.00000000000E+00  0.00000000000E+00  0.18857785910E+03  0.18857785917E+03  0.50400000000E-02 0. -1.
         -1   -1    0    0    0  501 -0.00000000000E+00 -0.00000000000E+00 -0.22019403440E+03  0.22019403445E+03  0.50400000000E-02 0.  1.
         25    2    1    2    0    0  0.11851233769E+03  0.57989832215E+02  0.94858822168E+02  0.20501518201E+03  0.12500013555E+03 0.  0.
         23    2    1    2    0    0 -0.11851233769E+03 -0.57989832215E+02 -0.12647499746E+03  0.20375671161E+03  0.90071514477E+02 0.  0.
        -11    1    4    4    0    0 -0.10988575273E+03 -0.40996435967E+02 -0.54549545799E+02  0.12934929209E+03  0.51100000000E-03 0. -1.
         11    1    4    4    0    0 -0.86265849558E+01 -0.16993396248E+02 -0.71925451660E+02  0.74407419528E+02  0.51100000000E-03 0.  1.
    9000005    1    3    3    0    0  0.34828057447E+02 -0.27570631594E+02  0.69788673832E+02  0.82732051269E+02  0.10000000000E+01 0.  0.
    9000005    1    3    3    0    0  0.83684280242E+02  0.85560463808E+02  0.25070148336E+02  0.12228313074E+03  0.10000000000E+01 0.  0.
<mgrwt>
<rscale>  0 0.17598173E+03</rscale>
<asrwt>0</asrwt>
<pdfrwt beam="1">  1        1 0.29011978E-01 0.18174991E+03</pdfrwt>
<pdfrwt beam="2">  1       -1 0.33876005E-01 0.18174991E+03</pdfrwt>
<totfact> 0.12985747E+03</totfact>
</mgrwt>
</event>
<event>
 8    2  0.1409546E-003  0.1258785E+03  0.7818608E-02  0.1249298E+00
          1   -1    0    0  501    0  0.00000000000E+00  0.00000000000E+00  0.14351204633E+04  0.14351204633E+04  0.50400000000E-02 0. -1.
         -1   -1    0    0    0  501 -0.00000000000E+00 -0.00000000000E+00 -0.82968419576E+01  0.82968434884E+01  0.50400000000E-02 0.  1.
         25    2    1    2    0    0  0.72102761521E+01 -0.12967745699E+02  0.87665567204E+03  0.88564697351E+03  0.12500097540E+03 0.  0.
         23    2    1    2    0    0 -0.72102761521E+01  0.12967745699E+02  0.55016794926E+03  0.55777033325E+03  0.90569430539E+02 0.  0.
        -11    1    4    4    0    0 -0.21571568125E+01 -0.23716691427E+02  0.45543111857E+03  0.45605332861E+03  0.51100000000E-03 0. -1.
         11    1    4    4    0    0 -0.50531193396E+01  0.36684437126E+02  0.94736830691E+02  0.10171700464E+03  0.51100000000E-03 0.  1.
    9000005    1    3    3    0    0  0.40287327291E+02  0.18679391317E+02  0.12607349544E+03  0.13366942302E+03  0.10000000000E+01 0.  0.
    9000005    1    3    3    0    0 -0.33077051139E+02 -0.31647137016E+02  0.75058217660E+03  0.75197755048E+03  0.10000000000E+01 0.  0.
<mgrwt>
<rscale>  0 0.11631797E+03</rscale>
<asrwt>0</asrwt>
<pdfrwt beam="1">  1        1 0.22078804E+00 0.12587849E+03</pdfrwt>
<pdfrwt beam="2">  1       -1 0.12764357E-02 0.12587849E+03</pdfrwt>
<totfact> 0.10103526E+04</totfact>
</mgrwt>
</event>
<event>
 8    2  0.1409546E-003  0.1271537E+03  0.7818608E-02  0.1246471E+00
          1   -1    0    0  501    0  0.00000000000E+00  0.00000000000E+00  0.40267339508E+03  0.40267339511E+03  0.50400000000E-02 0. -1.
         -1   -1    0    0    0  501 -0.00000000000E+00 -0.00000000000E+00 -0.30516893716E+02  0.30516894132E+02  0.50400000000E-02 0.  1.
         25    2    1    2    0    0 -0.23258082704E+02  0.15309260287E+01  0.20223315926E+03  0.23888558162E+03  0.12499915303E+03 0.  0.
         23    2    1    2    0    0  0.23258082704E+02 -0.15309260287E+01  0.16992334211E+03  0.19430470762E+03  0.91307694449E+02 0.  0.
        -11    1    4    4    0    0 -0.41266165969E+01 -0.38017964320E+02  0.34863233846E+02  0.51747846816E+02  0.51100000000E-03 0.  1.
         11    1    4    4    0    0  0.27384699301E+02  0.36487038292E+02  0.13506010826E+03  0.14255686080E+03  0.51100000000E-03 0. -1.
    9000005    1    3    3    0    0 -0.36203430042E+02 -0.56701725899E+02  0.10031833149E+03  0.12079131467E+03  0.10000000000E+01 0.  0.
    9000005    1    3    3    0    0  0.12945347338E+02  0.58232651928E+02  0.10191482777E+03  0.11809426695E+03  0.10000000000E+01 0.  0.
<mgrwt>
<rscale>  0 0.11797792E+03</rscale>
<asrwt>0</asrwt>
<pdfrwt beam="1">  1        1 0.61949755E-01 0.12715373E+03</pdfrwt>
<pdfrwt beam="2">  1       -1 0.46949066E-02 0.12715373E+03</pdfrwt>
<totfact> 0.10958434E+04</totfact>
</mgrwt>
</event>
<event>
 8    2  0.1409546E-003  0.1396067E+03  0.7818608E-02  0.1225518E+00
         -1   -1    0    0    0  501 -0.00000000000E+00  0.00000000000E+00  0.31938117293E+02  0.31938117691E+02  0.50400000000E-02 0.  1.
          1   -1    0    0  501    0  0.00000000000E+00 -0.00000000000E+00 -0.49637262268E+03  0.49637262270E+03  0.50400000000E-02 0. -1.
         25    2    1    2    0    0  0.46109578014E+02  0.41692999843E+02 -0.21994605547E+03  0.26051159635E+03  0.12500250034E+03 0.  0.
         23    2    1    2    0    0 -0.46109578014E+02 -0.41692999843E+02 -0.24448844991E+03  0.26779914405E+03  0.89874245433E+02 0.  0.
        -11    1    4    4    0    0  0.24434252540E+02  0.42731199050E+01 -0.63944636449E+02  0.68587234831E+02  0.51100000000E-03 0. -1.
         11    1    4    4    0    0 -0.70543830555E+02 -0.45966119748E+02 -0.18054381346E+03  0.19921190921E+03  0.51100000000E-03 0.  1.
    9000005    1    3    3    0    0  0.95685441552E+01  0.76832330143E+02 -0.78550524835E+02  0.11029936058E+03  0.10000000000E+01 0.  0.
    9000005    1    3    3    0    0  0.36541033859E+02 -0.35139330301E+02 -0.14139553064E+03  0.15021223577E+03  0.10000000000E+01 0.  0.
<mgrwt>
<rscale>  0 0.13131468E+03</rscale>
<asrwt>0</asrwt>
<pdfrwt beam="2">  1        1 0.76365013E-01 0.13960668E+03</pdfrwt>
<pdfrwt beam="1">  1       -1 0.49135569E-02 0.13960668E+03</pdfrwt>
<totfact> 0.78917680E+03</totfact>
</mgrwt>
</event>
<event>
 8    2  0.1409546E-003  0.1268328E+03  0.7818608E-02  0.1248190E+00
         -1   -1    0    0    0  501 -0.00000000000E+00  0.00000000000E+00  0.30411269183E+02  0.30411269601E+02  0.50400000000E-02 0.  1.
          1   -1    0    0  501    0  0.00000000000E+00 -0.00000000000E+00 -0.40114581365E+03  0.40114581368E+03  0.50400000000E-02 0. -1.
         25    2    1    2    0    0 -0.66553848668E+01  0.20399346358E+02 -0.24540506767E+03  0.27624300055E+03  0.12500448247E+03 0.  0.
         23    2    1    2    0    0  0.66553848668E+01 -0.20399346358E+02 -0.12532947680E+03  0.15531408273E+03  0.89188334777E+02 0.  0.
        -11    1    4    4    0    0  0.33333002740E+02  0.19149637360E+01 -0.99982935914E+01  0.34852862620E+02  0.51100000000E-03 0.  1.
         11    1    4    4    0    0 -0.26677617873E+02 -0.22314310094E+02 -0.11533118321E+03  0.12046122011E+03  0.51100000000E-03 0. -1.
    9000005    1    3    3    0    0  0.43321302622E+02  0.51202351956E+02 -0.14833693858E+03  0.16279822927E+03  0.10000000000E+01 0.  0.
    9000005    1    3    3    0    0 -0.49976687489E+02 -0.30803005598E+02 -0.97068129089E+02  0.11344477128E+03  0.10000000000E+01 0.  0.
<mgrwt>
<rscale>  0 0.11696482E+03</rscale>
<asrwt>0</asrwt>
<pdfrwt beam="2">  1        1 0.61714737E-01 0.12683276E+03</pdfrwt>
<pdfrwt beam="1">  1       -1 0.46786571E-02 0.12683276E+03</pdfrwt>
<totfact> 0.11065194E+04</totfact>
</mgrwt>
</event>
<event>
 8    2  0.1409546E-003  0.1605817E+03  0.7818608E-02  0.1195781E+00
          1   -1    0    0  501    0  0.00000000000E+00  0.00000000000E+00  0.69433846610E+03  0.69433846612E+03  0.50400000000E-02 0. -1.
         -1   -1    0    0    0  501 -0.00000000000E+00 -0.00000000000E+00 -0.53232122090E+02  0.53232122329E+02  0.50400000000E-02 0.  1.
         25    2    1    2    0    0 -0.93043642876E+02  0.38781708640E+02  0.57476408490E+03  0.59677485683E+03  0.12500134416E+03 0.  0.
         23    2    1    2    0    0  0.93043642876E+02 -0.38781708640E+02  0.66342259108E+02  0.15079573162E+03  0.90426306608E+02 0.  0.
        -11    1    4    4    0    0  0.88267016185E+02 -0.49413144615E+02  0.20135226002E+02  0.10314141910E+03  0.51100000000E-03 0.  1.
         11    1    4    4    0    0  0.47766266914E+01  0.10631435975E+02  0.46207033105E+02  0.47654312524E+02  0.51100000000E-03 0. -1.
    9000005    1    3    3    0    0 -0.65437873741E+02  0.32987753949E+02  0.56027510520E+03  0.56504822868E+03  0.10000000000E+01 0.  0.
    9000005    1    3    3    0    0 -0.27605769135E+02  0.57939546908E+01  0.14488979700E+02  0.31726628142E+02  0.10000000000E+01 0.  0.
<mgrwt>
<rscale>  0 0.15388319E+03</rscale>
<asrwt>0</asrwt>
<pdfrwt beam="1">  1        1 0.10682130E+00 0.16058168E+03</pdfrwt>
<pdfrwt beam="2">  1       -1 0.81895574E-02 0.16058168E+03</pdfrwt>
<totfact> 0.23399227E+03</totfact>
</mgrwt>
</event>
<event>
 8    2  0.1409546E-003  0.1262118E+03  0.7818608E-02  0.1249253E+00
          1   -1    0    0  501    0  0.00000000000E+00  0.00000000000E+00  0.88202627197E+03  0.88202627198E+03  0.50400000000E-02 0. -1.
         -1   -1    0    0    0  501 -0.00000000000E+00 -0.00000000000E+00 -0.13398966608E+02  0.13398967556E+02  0.50400000000E-02 0.  1.
         25    2    1    2    0    0  0.66644438183E+01  0.16111995981E+02  0.49247239107E+03  0.50838810481E+03  0.12500159168E+03 0.  0.
         23    2    1    2    0    0 -0.66644438183E+01 -0.16111995981E+02  0.37615491429E+03  0.38703713472E+03  0.89449499090E+02 0.  0.
        -11    1    4    4    0    0 -0.46812670088E+02  0.57723862877E+00  0.16873739162E+03  0.17511158333E+03  0.51100000000E-03 0.  1.
         11    1    4    4    0    0  0.40148226269E+02 -0.16689234610E+02  0.20741752267E+03  0.21192555140E+03  0.51100000000E-03 0. -1.
    9000005    1    3    3    0    0  0.27524855366E+02 -0.48390668144E+02  0.17074113559E+03  0.17959067294E+03  0.10000000000E+01 0.  0.
    9000005    1    3    3    0    0 -0.20860411548E+02  0.64502664126E+02  0.32173125548E+03  0.32879743187E+03  0.10000000000E+01 0.  0.
<mgrwt>
<rscale>  0 0.11634395E+03</rscale>
<asrwt>0</asrwt>
<pdfrwt beam="1">  1        1 0.13569637E+00 0.12621176E+03</pdfrwt>
<pdfrwt beam="2">  1       -1 0.20613792E-02 0.12621176E+03</pdfrwt>
<totfact> 0.12349736E+04</totfact>
</mgrwt>
</event>
<event>
 8    2  0.1409546E-003  0.1254709E+03  0.7818608E-02  0.1249401E+00
          1   -1    0    0  501    0  0.00000000000E+00  0.00000000000E+00  0.46247732550E+03  0.46247732553E+03  0.50400000000E-02 0. -1.
         -1   -1    0    0    0  501 -0.00000000000E+00 -0.00000000000E+00 -0.27153717539E+02  0.27153718007E+02  0.50400000000E-02 0.  1.
         25    2    1    2    0    0 -0.46167815817E+01  0.97775222952E+01  0.19238438974E+03  0.22968392137E+03  0.12500414276E+03 0.  0.
         23    2    1    2    0    0  0.46167815817E+01 -0.97775222952E+01  0.24293921822E+03  0.25994712217E+03  0.91848396596E+02 0.  0.
        -11    1    4    4    0    0 -0.22897198652E+02  0.31766336484E+02  0.72825455095E+02  0.82685722768E+02  0.51100000000E-03 0.  1.
         11    1    4    4    0    0  0.27513980234E+02 -0.41543858779E+02  0.17011376313E+03  0.17726139940E+03  0.51100000000E-03 0. -1.
    9000005    1    3    3    0    0 -0.42673830844E+02  0.19830791250E+02  0.18333753594E+03  0.18928277313E+03  0.10000000000E+01 0.  0.
    9000005    1    3    3    0    0  0.38057049262E+02 -0.10053268955E+02  0.90468538008E+01  0.40401148238E+02  0.10000000000E+01 0.  0.
<mgrwt>
<rscale>  0 0.11625787E+03</rscale>
<asrwt>0</asrwt>
<pdfrwt beam="1">  1        1 0.71150361E-01 0.12547091E+03</pdfrwt>
<pdfrwt beam="2">  1       -1 0.41774949E-02 0.12547091E+03</pdfrwt>
<totfact> 0.10902099E+04</totfact>
</mgrwt>
</event>
<event>
 8    2  0.1409546E-003  0.1268319E+03  0.7818608E-02  0.1245724E+00
         -1   -1    0    0    0  501 -0.00000000000E+00  0.00000000000E+00  0.34689518304E+03  0.34689518308E+03  0.50400000000E-02 0.  1.
          1   -1    0    0  501    0  0.00000000000E+00 -0.00000000000E+00 -0.42241160849E+02  0.42241161150E+02  0.50400000000E-02 0. -1.
         25    2    1    2    0    0 -0.18664144281E+02 -0.10567935166E+02  0.24471083613E+03  0.27562605543E+03  0.12500519021E+03 0.  0.
         23    2    1    2    0    0  0.18664144281E+02  0.10567935166E+02  0.59943186068E+02  0.11351028880E+03  0.93975361515E+02 0.  0.
        -11    1    4    4    0    0 -0.99500945449E+01 -0.19796285783E+02  0.67558244392E+02  0.71098619522E+02  0.51100000000E-03 0.  1.
         11    1    4    4    0    0  0.28614238825E+02  0.30364220948E+02 -0.76150583246E+01  0.42411669277E+02  0.51100000000E-03 0. -1.
    9000005    1    3    3    0    0 -0.33512757955E+02  0.25574667431E+02  0.23004600299E+03  0.23387888329E+03  0.10000000000E+01 0.  0.
    9000005    1    3    3    0    0  0.14848613674E+02 -0.36142602596E+02  0.14664833139E+02  0.41747172137E+02  0.10000000000E+01 0.  0.
<mgrwt>
<rscale>  0 0.11842176E+03</rscale>
<asrwt>0</asrwt>
<pdfrwt beam="2">  1        1 0.64986403E-02 0.12683189E+03</pdfrwt>
<pdfrwt beam="1">  1       -1 0.53368488E-01 0.12683189E+03</pdfrwt>
<totfact> 0.40138101E+03</totfact>
</mgrwt>
</event>
<event>
 8    2  0.1409546E-003  0.1567728E+03  0.7818608E-02  0.1201122E+00
          1   -1    0    0  501    0  0.00000000000E+00  0.00000000000E+00  0.17434383726E+03  0.17434383733E+03  0.50400000000E-02 0. -1.
         -1   -1    0    0    0  501 -0.00000000000E+00 -0.00000000000E+00 -0.11770083806E+03  0.11770083817E+03  0.50400000000E-02 0.  1.
         25    2    1    2    0    0 -0.60830101130E+02  0.72472299403E+02  0.25916510186E+02  0.15890051882E+03  0.12500069598E+03 0.  0.
         23    2    1    2    0    0  0.60830101130E+02 -0.72472299403E+02  0.30726489013E+02  0.13314415668E+03  0.88491321312E+02 0.  0.
        -11    1    4    4    0    0 -0.11063959620E+02  0.79090524134E+01 -0.11019396353E+02  0.17504039785E+02  0.51100000000E-03 0.  1.
         11    1    4    4    0    0  0.71894060750E+02 -0.80381351817E+02  0.41745885366E+02  0.11564011690E+03  0.51100000000E-03 0. -1.
    9000005    1    3    3    0    0  0.96148033989E+01 -0.30495575271E+02  0.62759286265E+01  0.32600795016E+02  0.10000000000E+01 0.  0.
    9000005    1    3    3    0    0 -0.70444904529E+02  0.10296787467E+03  0.19640581559E+02  0.12629972380E+03  0.10000000000E+01 0.  0.
<mgrwt>
<rscale>  0 0.14947292E+03</rscale>
<asrwt>0</asrwt>
<pdfrwt beam="1">  1        1 0.26822129E-01 0.15677280E+03</pdfrwt>
<pdfrwt beam="2">  1       -1 0.18107821E-01 0.15677280E+03</pdfrwt>
<totfact> 0.40137791E+03</totfact>
</mgrwt>
</event>
<event>
 8    2  0.1409546E-003  0.1527636E+03  0.7818608E-02  0.1205595E+00
         -1   -1    0    0    0  501 -0.00000000000E+00  0.00000000000E+00  0.14646935454E+02  0.14646936321E+02  0.50400000000E-02 0.  1.
          1   -1    0    0  501    0  0.00000000000E+00 -0.00000000000E+00 -0.13529519705E+04  0.13529519705E+04  0.50400000000E-02 0. -1.
         25    2    1    2    0    0  0.85563178666E+02 -0.19772454459E+02 -0.80337130452E+03  0.81776656555E+03  0.12499878119E+03 0.  0.
         23    2    1    2    0    0 -0.85563178666E+02  0.19772454459E+02 -0.53493373051E+03  0.54983234126E+03  0.91921161702E+02 0.  0.
        -11    1    4    4    0    0  0.53869348969E+01 -0.21220584585E+02 -0.47617576005E+02  0.52409596665E+02  0.51100000000E-03 0.  1.
         11    1    4    4    0    0 -0.90950113562E+02  0.40993039045E+02 -0.48731615450E+03  0.49742274460E+03  0.51100000000E-03 0. -1.
    9000005    1    3    3    0    0  0.16758664325E+02 -0.46188157464E+02 -0.10988310563E+03  0.12037232083E+03  0.10000000000E+01 0.  0.
    9000005    1    3    3    0    0  0.68804514340E+02  0.26415703004E+02 -0.69348819889E+03  0.69739424471E+03  0.10000000000E+01 0.  0.
<mgrwt>
<rscale>  0 0.14590664E+03</rscale>
<asrwt>0</asrwt>
<pdfrwt beam="2">  1        1 0.20814636E+00 0.15276355E+03</pdfrwt>
<pdfrwt beam="1">  1       -1 0.22533758E-02 0.15276355E+03</pdfrwt>
<totfact> 0.50909465E+03</totfact>
</mgrwt>
</event>
<event>
 8    2  0.1409546E-003  0.1822845E+03  0.7818608E-02  0.1171082E+00
          1   -1    0    0  501    0  0.00000000000E+00  0.00000000000E+00  0.26576321842E+04  0.26576321842E+04  0.50400000000E-02 0. -1.
         -1   -1    0    0    0  501 -0.00000000000E+00 -0.00000000000E+00 -0.11641068855E+02  0.11641069946E+02  0.50400000000E-02 0.  1.
         25    2    1    2    0    0  0.98083538300E+02 -0.89341454781E+02  0.11071450069E+04  0.11220506623E+04  0.12500138528E+03 0.  0.
         23    2    1    2    0    0 -0.98083538300E+02  0.89341454781E+02  0.15388461085E+04  0.15472225919E+04  0.90819201666E+02 0.  0.
        -11    1    4    4    0    0 -0.21471497328E+02 -0.84304860004E+00  0.67125250498E+03  0.67159635301E+03  0.51100000000E-03 0. -1.
         11    1    4    4    0    0 -0.76612040971E+02  0.90184503382E+02  0.86759360348E+03  0.87562623891E+03  0.51100000000E-03 0.  1.
    9000005    1    3    3    0    0  0.11112205323E+03 -0.78108406377E+02  0.62464727361E+03  0.63924506278E+03  0.10000000000E+01 0.  0.
    9000005    1    3    3    0    0 -0.13038514929E+02 -0.11233048404E+02  0.48249773330E+03  0.48280559948E+03  0.10000000000E+01 0.  0.
<mgrwt>
<rscale>  0 0.17665285E+03</rscale>
<asrwt>0</asrwt>
<pdfrwt beam="1">  1        1 0.40886690E+00 0.18228445E+03</pdfrwt>
<pdfrwt beam="2">  1       -1 0.17909320E-02 0.18228445E+03</pdfrwt>
<totfact> 0.10131836E+03</totfact>
</mgrwt>
</event>
<event>
 8    2  0.1409546E-003  0.1577873E+03  0.7818608E-02  0.1199026E+00
          1   -1    0    0  501    0  0.00000000000E+00  0.00000000000E+00  0.23582134689E+02  0.23582135228E+02  0.50400000000E-02 0. -1.
         -1   -1    0    0    0  501 -0.00000000000E+00 -0.00000000000E+00 -0.97766526733E+03  0.97766526734E+03  0.50400000000E-02 0.  1.
         25    2    1    2    0    0 -0.78712122596E+02 -0.55459646881E+02 -0.37042211128E+03  0.40262807077E+03  0.12500180868E+03 0.  0.
         23    2    1    2    0    0  0.78712122596E+02  0.55459646881E+02 -0.58366102136E+03  0.59861933180E+03  0.91725382912E+02 0.  0.
        -11    1    4    4    0    0  0.22363888262E+02  0.10566646165E+02 -0.24425128059E+02  0.34761823749E+02  0.51100000000E-03 0. -1.
         11    1    4    4    0    0  0.56348234334E+02  0.44893000716E+02 -0.55923589330E+03  0.56385750805E+03  0.51100000000E-03 0.  1.
    9000005    1    3    3    0    0 -0.65545697224E+02  0.26322035312E+01 -0.68363979904E+02  0.94751256817E+02  0.10000000000E+01 0.  0.
    9000005    1    3    3    0    0 -0.13166425372E+02 -0.58091850412E+02 -0.30205813137E+03  0.30787681395E+03  0.10000000000E+01 0.  0.
<mgrwt>
<rscale>  0 0.15118348E+03</rscale>
<asrwt>0</asrwt>
<pdfrwt beam="1">  1        1 0.36280215E-02 0.15778727E+03</pdfrwt>
<pdfrwt beam="2">  1       -1 0.15041001E+00 0.15778727E+03</pdfrwt>
<totfact> 0.96617840E+02</totfact>
</mgrwt>
</event>
<event>
 8    2  0.1409546E-003  0.1521392E+03  0.7818608E-02  0.1206605E+00
          1   -1    0    0  501    0  0.00000000000E+00  0.00000000000E+00  0.34513419341E+03  0.34513419344E+03  0.50400000000E-02 0. -1.
         -1   -1    0    0    0  501 -0.00000000000E+00 -0.00000000000E+00 -0.66968252744E+02  0.66968252934E+02  0.50400000000E-02 0.  1.
         25    2    1    2    0    0 -0.54444393404E+02  0.67507547299E+02  0.23308202219E+03  0.27834072610E+03  0.12499947929E+03 0.  0.
         23    2    1    2    0    0  0.54444393404E+02 -0.67507547299E+02  0.45083918474E+02  0.13376172028E+03  0.91313619965E+02 0.  0.
        -11    1    4    4    0    0  0.53090948380E+02 -0.31483227190E+02 -0.15157372646E+02  0.63557755939E+02  0.51100000000E-03 0.  1.
         11    1    4    4    0    0  0.13534450237E+01 -0.36024320109E+02  0.60241291120E+02  0.70203964338E+02  0.51100000000E-03 0. -1.
    9000005    1    3    3    0    0  0.36579974732E+02  0.45622758244E+02  0.92331017808E+02  0.10929568825E+03  0.10000000000E+01 0.  0.
    9000005    1    3    3    0    0 -0.91024368136E+02  0.21884789055E+02  0.14075100438E+03  0.16904503785E+03  0.10000000000E+01 0.  0.
<mgrwt>
<rscale>  0 0.14511672E+03</rscale>
<asrwt>0</asrwt>
<pdfrwt beam="1">  1        1 0.53097568E-01 0.15213918E+03</pdfrwt>
<pdfrwt beam="2">  1       -1 0.10302808E-01 0.15213918E+03</pdfrwt>
<totfact> 0.41332495E+03</totfact>
</mgrwt>
</event>
<event>
 8    2  0.1409546E-003  0.1524201E+03  0.7818608E-02  0.1205887E+00
         -1   -1    0    0    0  501 -0.00000000000E+00  0.00000000000E+00  0.21918868612E+03  0.21918868618E+03  0.50400000000E-02 0.  1.
          1   -1    0    0  501    0  0.00000000000E+00 -0.00000000000E+00 -0.92036926246E+02  0.92036926384E+02  0.50400000000E-02 0. -1.
         25    2    1    2    0    0  0.17296824543E+02 -0.85497668972E+02  0.96488516931E+02  0.18039379660E+03  0.12499142536E+03 0.  0.
         23    2    1    2    0    0 -0.17296824543E+02  0.85497668972E+02  0.30663242944E+02  0.13083181596E+03  0.92561860723E+02 0.  0.
        -11    1    4    4    0    0 -0.51291344298E+02  0.62672682771E+02  0.22942451422E+01  0.81018088886E+02  0.51100000000E-03 0. -1.
         11    1    4    4    0    0  0.33994519755E+02  0.22824986202E+02  0.28368997802E+02  0.49813727074E+02  0.51100000000E-03 0.  1.
    9000005    1    3    3    0    0 -0.48600553099E+02 -0.49616238264E+02  0.17892994589E+02  0.71728265812E+02  0.10000000000E+01 0.  0.
    9000005    1    3    3    0    0  0.65897377642E+02 -0.35881430708E+02  0.78595522342E+02  0.10866553079E+03  0.10000000000E+01 0.  0.
<mgrwt>
<rscale>  0 0.14567768E+03</rscale>
<asrwt>0</asrwt>
<pdfrwt beam="2">  1        1 0.14159527E-01 0.15242010E+03</pdfrwt>
<pdfrwt beam="1">  1       -1 0.33721336E-01 0.15242010E+03</pdfrwt>
<totfact> 0.32538152E+03</totfact>
</mgrwt>
</event>
<event>
 8    2  0.1409546E-003  0.1270227E+03  0.7818608E-02  0.1249109E+00
         -1   -1    0    0    0  501 -0.00000000000E+00  0.00000000000E+00  0.54419558666E+03  0.54419558669E+03  0.50400000000E-02 0.  1.
          1   -1    0    0  501    0  0.00000000000E+00 -0.00000000000E+00 -0.21879930044E+02  0.21879930625E+02  0.50400000000E-02 0. -1.
         25    2    1    2    0    0 -0.20377520763E+02 -0.97439289519E+01  0.27228856454E+03  0.30045936723E+03  0.12499832588E+03 0.  0.
         23    2    1    2    0    0  0.20377520763E+02  0.97439289519E+01  0.25002709207E+03  0.26561615008E+03  0.86765228672E+02 0.  0.
        -11    1    4    4    0    0  0.24031790128E+02  0.18594162175E+02  0.22306042767E+02  0.37693890061E+02  0.51100000000E-03 0. -1.
         11    1    4    4    0    0 -0.36542693659E+01 -0.88502332230E+01  0.22772104931E+03  0.22792226001E+03  0.51100000000E-03 0.  1.
    9000005    1    3    3    0    0 -0.41401804517E+02 -0.52932618444E+00  0.27428656717E+03  0.27739594541E+03  0.10000000000E+01 0.  0.
    9000005    1    3    3    0    0  0.21024283755E+02 -0.92146027675E+01 -0.19980026240E+01  0.23063421820E+02  0.10000000000E+01 0.  0.
<mgrwt>
<rscale>  0 0.11642793E+03</rscale>
<asrwt>0</asrwt>
<pdfrwt beam="2">  1        1 0.33661432E-02 0.12702271E+03</pdfrwt>
<pdfrwt beam="1">  1       -1 0.83722395E-01 0.12702271E+03</pdfrwt>
<totfact> 0.40976746E+03</totfact>
</mgrwt>
</event>
<event>
 8    2  0.1409546E-003  0.1417399E+03  0.7818608E-02  0.1220426E+00
          1   -1    0    0  501    0  0.00000000000E+00  0.00000000000E+00  0.34688357515E+03  0.34688357519E+03  0.50400000000E-02 0. -1.
         -1   -1    0    0    0  501 -0.00000000000E+00 -0.00000000000E+00 -0.48015336311E+02  0.48015336575E+02  0.50400000000E-02 0.  1.
         25    2    1    2    0    0  0.25833562357E+02 -0.61616264352E+02  0.17263284465E+03  0.22336581193E+03  0.12500499955E+03 0.  0.
         23    2    1    2    0    0 -0.25833562357E+02  0.61616264352E+02  0.12623539419E+03  0.17153309983E+03  0.94996276844E+02 0.  0.
        -11    1    4    4    0    0  0.33603143865E+02  0.41480031016E+02  0.58311560379E+02  0.79056956208E+02  0.51100000000E-03 0. -1.
         11    1    4    4    0    0 -0.59436706222E+02  0.20136233335E+02  0.67923833813E+02  0.92476143624E+02  0.51100000000E-03 0.  1.
    9000005    1    3    3    0    0 -0.24883185311E+02 -0.38177547685E+02  0.40480055964E+01  0.45761167028E+02  0.10000000000E+01 0.  0.
    9000005    1    3    3    0    0  0.50716747668E+02 -0.23438716667E+02  0.16858483905E+03  0.17760464490E+03  0.10000000000E+01 0.  0.
<mgrwt>
<rscale>  0 0.13485385E+03</rscale>
<asrwt>0</asrwt>
<pdfrwt beam="1">  1        1 0.53366705E-01 0.14173986E+03</pdfrwt>
<pdfrwt beam="2">  1       -1 0.73869747E-02 0.14173986E+03</pdfrwt>
<totfact> 0.67797112E+03</totfact>
</mgrwt>
</event>
<event>
 8    2  0.1409546E-003  0.1389197E+03  0.7818608E-02  0.1226219E+00
         -1   -1    0    0    0  501 -0.00000000000E+00  0.00000000000E+00  0.18072695142E+02  0.18072695845E+02  0.50400000000E-02 0.  1.
          1   -1    0    0  501    0  0.00000000000E+00 -0.00000000000E+00 -0.12792148783E+04  0.12792148783E+04  0.50400000000E-02 0. -1.
         25    2    1    2    0    0 -0.57812016116E+02  0.18184981177E+02 -0.30776744637E+03  0.33766769659E+03  0.12500299808E+03 0.  0.
         23    2    1    2    0    0  0.57812016116E+02 -0.18184981177E+02 -0.95337473676E+03  0.95961987754E+03  0.90961518918E+02 0.  0.
        -11    1    4    4    0    0  0.71464041661E+02 -0.18363758899E+02 -0.44606450258E+03  0.45212595298E+03  0.51100000000E-03 0.  1.
         11    1    4    4    0    0 -0.13652025546E+02  0.17877772252E+00 -0.50731023418E+03  0.50749392456E+03  0.51100000000E-03 0. -1.
    9000005    1    3    3    0    0 -0.78429896762E+02 -0.50795686016E+01 -0.29277210089E+03  0.30313949558E+03  0.10000000000E+01 0.  0.
    9000005    1    3    3    0    0  0.20617880647E+02  0.23264549778E+02 -0.14995345481E+02  0.34528201008E+02  0.10000000000E+01 0.  0.
<mgrwt>
<rscale>  0 0.13083676E+03</rscale>
<asrwt>0</asrwt>
<pdfrwt beam="2">  1        1 0.19680222E+00 0.13891966E+03</pdfrwt>
<pdfrwt beam="1">  1       -1 0.27804157E-02 0.13891966E+03</pdfrwt>
<totfact> 0.41906023E+03</totfact>
</mgrwt>
</event>
<event>
 8    2  0.1409546E-003  0.1371124E+03  0.7818608E-02  0.1229275E+00
          1   -1    0    0  501    0  0.00000000000E+00  0.00000000000E+00  0.49603159390E+03  0.49603159393E+03  0.50400000000E-02 0. -1.
         -1   -1    0    0    0  501 -0.00000000000E+00 -0.00000000000E+00 -0.57329098875E+02  0.57329099097E+02  0.50400000000E-02 0.  1.
         25    2    1    2    0    0 -0.30696336109E+01 -0.56254165773E+02  0.43260643002E+02  0.14377516981E+03  0.12500344957E+03 0.  0.
         23    2    1    2    0    0  0.30696336109E+01  0.56254165773E+02  0.39544185203E+03  0.40958552321E+03  0.90620575341E+02 0.  0.
        -11    1    4    4    0    0 -0.42128642465E+02  0.23254412275E+02  0.13855052614E+03  0.14666914638E+03  0.51100000000E-03 0.  1.
         11    1    4    4    0    0  0.45198276076E+02  0.32999753497E+02  0.25689132589E+03  0.26291637683E+03  0.51100000000E-03 0. -1.
    9000005    1    3    3    0    0  0.41542959479E+02  0.13225872933E+02  0.42936539403E+02  0.61198754996E+02  0.10000000000E+01 0.  0.
    9000005    1    3    3    0    0 -0.44612593090E+02 -0.69480038706E+02  0.32410359941E+00  0.82576414816E+02  0.10000000000E+01 0.  0.
<mgrwt>
<rscale>  0 0.12878171E+03</rscale>
<asrwt>0</asrwt>
<pdfrwt beam="1">  1        1 0.76312552E-01 0.13711242E+03</pdfrwt>
<pdfrwt beam="2">  1       -1 0.88198615E-02 0.13711242E+03</pdfrwt>
<totfact> 0.32879126E+03</totfact>
</mgrwt>
</event>
<event>
 8    2  0.1409546E-003  0.2035077E+03  0.7818608E-02  0.1150210E+00
         -1   -1    0    0    0  501 -0.00000000000E+00  0.00000000000E+00  0.58978548435E+02  0.58978548651E+02  0.50400000000E-02 0.  1.
          1   -1    0    0  501    0  0.00000000000E+00 -0.00000000000E+00 -0.65096946822E+03  0.65096946824E+03  0.50400000000E-02 0. -1.
         25    2    1    2    0    0 -0.99453930020E+02 -0.12609552276E+03 -0.28751112302E+03  0.35224712044E+03  0.12499689173E+03 0.  0.
         23    2    1    2    0    0  0.99453930020E+02  0.12609552276E+03 -0.30447979677E+03  0.35770089645E+03  0.97215326095E+02 0.  0.
        -11    1    4    4    0    0  0.12916767805E+02 -0.15775205921E+02 -0.47240710809E+02  0.51452743079E+02  0.51100000000E-03 0. -1.
         11    1    4    4    0    0  0.86537162215E+02  0.14187072868E+03 -0.25723908596E+03  0.30624815337E+03  0.51100000000E-03 0.  1.
    9000005    1    3    3    0    0 -0.89481490724E+02 -0.15448260781E+02 -0.10762600047E+03  0.14081882659E+03  0.10000000000E+01 0.  0.
    9000005    1    3    3    0    0 -0.99724392957E+01 -0.11064726198E+03 -0.17988512255E+03  0.21142829385E+03  0.10000000000E+01 0.  0.
<mgrwt>
<rscale>  0 0.19944272E+03</rscale>
<asrwt>0</asrwt>
<pdfrwt beam="2">  1        1 0.10014914E+00 0.20350771E+03</pdfrwt>
<pdfrwt beam="1">  1       -1 0.90736233E-02 0.20350771E+03</pdfrwt>
<totfact> 0.22055466E+03</totfact>
</mgrwt>
</event>
<event>
 8    2  0.1409546E-003  0.1657940E+03  0.7818608E-02  0.1189323E+00
          1   -1    0    0  501    0  0.00000000000E+00  0.00000000000E+00  0.19026765283E+03  0.19026765289E+03  0.50400000000E-02 0. -1.
         -1   -1    0    0    0  501 -0.00000000000E+00 -0.00000000000E+00 -0.15389253036E+03  0.15389253044E+03  0.50400000000E-02 0.  1.
         25    2    1    2    0    0  0.93424058727E+02 -0.55980872764E+02 -0.55893889434E+02  0.17496222798E+03  0.12500296588E+03 0.  0.
         23    2    1    2    0    0 -0.93424058727E+02  0.55980872764E+02  0.92269011899E+02  0.16919795536E+03  0.90843077204E+02 0.  0.
        -11    1    4    4    0    0 -0.62835061245E+02  0.80480073611E+02  0.59972532604E+02  0.11841449167E+03  0.51100000000E-03 0. -1.
         11    1    4    4    0    0 -0.30588997483E+02 -0.24499200847E+02  0.32296479295E+02  0.50783463689E+02  0.51100000000E-03 0.  1.
    9000005    1    3    3    0    0  0.23617062448E+02 -0.48262473498E+02 -0.83660199175E+02  0.99433701092E+02  0.10000000000E+01 0.  0.
    9000005    1    3    3    0    0  0.69806996280E+02 -0.77183992654E+01  0.27766309742E+02  0.75528526886E+02  0.10000000000E+01 0.  0.
<mgrwt>
<rscale>  0 0.15944649E+03</rscale>
<asrwt>0</asrwt>
<pdfrwt beam="1">  1        1 0.29271947E-01 0.16579401E+03</pdfrwt>
<pdfrwt beam="2">  1       -1 0.23675774E-01 0.16579401E+03</pdfrwt>
<totfact> 0.23367595E+03</totfact>
</mgrwt>
</event>
<event>
 8    2  0.1409546E-003  0.1816942E+03  0.7818608E-02  0.1171902E+00
         -1   -1    0    0    0  501 -0.00000000000E+00  0.00000000000E+00  0.20078978296E+02  0.20078978929E+02  0.50400000000E-02 0.  1.
          1   -1    0    0  501    0  0.00000000000E+00 -0.00000000000E+00 -0.16878027980E+04  0.16878027980E+04  0.50400000000E-02 0. -1.
         25    2    1    2    0    0 -0.13164855212E+03 -0.75011164689E+01 -0.12019576218E+04  0.12156129697E+04  0.12500063882E+03 0.  0.
         23    2    1    2    0    0  0.13164855212E+03  0.75011164689E+01 -0.46576619794E+03  0.49226880718E+03  0.89458478381E+02 0.  0.
        -11    1    4    4    0    0  0.62142758519E+02  0.18209466155E+02 -0.95507855394E+02  0.11539089018E+03  0.51100000000E-03 0.  1.
         11    1    4    4    0    0  0.69505793598E+02 -0.10708349686E+02 -0.37025834255E+03  0.37687791700E+03  0.51100000000E-03 0. -1.
    9000005    1    3    3    0    0 -0.88657739205E+02 -0.83584736936E+01 -0.30788047760E+03  0.32050186784E+03  0.10000000000E+01 0.  0.
    9000005    1    3    3    0    0 -0.42990812912E+02  0.85735722472E+00 -0.89407714415E+03  0.89511110191E+03  0.10000000000E+01 0.  0.
<mgrwt>
<rscale>  0 0.17582858E+03</rscale>
<asrwt>0</asrwt>
<pdfrwt beam="2">  1        1 0.25966186E+00 0.18169416E+03</pdfrwt>
<pdfrwt beam="1">  1       -1 0.30890750E-02 0.18169416E+03</pdfrwt>
<totfact> 0.19473273E+03</totfact>
</mgrwt>
</event>
<event>
 8    2  0.1409546E-003  0.1276359E+03  0.7818608E-02  0.1244952E+00
          1   -1    0    0  501    0  0.00000000000E+00  0.00000000000E+00  0.87526613599E+03  0.87526613600E+03  0.50400000000E-02 0. -1.
         -1   -1    0    0    0  501 -0.00000000000E+00 -0.00000000000E+00 -0.20739810699E+02  0.20739811311E+02  0.50400000000E-02 0.  1.
         25    2    1    2    0    0  0.11961992123E+02 -0.22856688008E+02  0.71687997271E+03  0.72815370047E+03  0.12500159513E+03 0.  0.
         23    2    1    2    0    0 -0.11961992123E+02  0.22856688008E+02  0.13764635258E+03  0.16785224685E+03  0.92532918203E+02 0.  0.
        -11    1    4    4    0    0 -0.18055560693E+02  0.37378103433E+02  0.14474389428E+03  0.15057862006E+03  0.51100000000E-03 0. -1.
         11    1    4    4    0    0  0.60935685693E+01 -0.14521415425E+02 -0.70975417012E+01  0.17273626786E+02  0.51100000000E-03 0.  1.
    9000005    1    3    3    0    0 -0.24215106479E+02 -0.66562112353E+02  0.38744898413E+03  0.39387130066E+03  0.10000000000E+01 0.  0.
    9000005    1    3    3    0    0  0.36177098603E+02  0.43705424346E+02  0.32943098858E+03  0.33428239980E+03  0.10000000000E+01 0.  0.
<mgrwt>
<rscale>  0 0.11888230E+03</rscale>
<asrwt>0</asrwt>
<pdfrwt beam="1">  1        1 0.13465636E+00 0.12763587E+03</pdfrwt>
<pdfrwt beam="2">  1       -1 0.31907393E-02 0.12763587E+03</pdfrwt>
<totfact> 0.66442385E+03</totfact>
</mgrwt>
</event>
<event>
 8    2  0.1409546E-003  0.2085072E+03  0.7818608E-02  0.1146638E+00
         -1   -1    0    0    0  501 -0.00000000000E+00  0.00000000000E+00  0.72813003790E+02  0.72813003965E+02  0.50400000000E-02 0.  1.
          1   -1    0    0  501    0  0.00000000000E+00 -0.00000000000E+00 -0.97895330309E+03  0.97895330311E+03  0.50400000000E-02 0. -1.
         25    2    1    2    0    0  0.14326234663E+03  0.85589729871E+02 -0.81459337167E+03  0.84085528976E+03  0.12500222130E+03 0.  0.
         23    2    1    2    0    0 -0.14326234663E+03 -0.85589729871E+02 -0.91546927637E+02  0.21091101731E+03  0.90845558189E+02 0.  0.
        -11    1    4    4    0    0 -0.32609925966E+02  0.12951288261E+02 -0.41885915400E+02  0.54640397585E+02  0.51100000000E-03 0.  1.
         11    1    4    4    0    0 -0.11065242067E+03 -0.98541018132E+02 -0.49661012237E+02  0.15627061973E+03  0.51100000000E-03 0. -1.
    9000005    1    3    3    0    0  0.11786014581E+02 -0.16811069047E+02 -0.28314195727E+03  0.28388710811E+03  0.10000000000E+01 0.  0.
    9000005    1    3    3    0    0  0.13147633205E+03  0.10240079892E+03 -0.53145141439E+03  0.55696818165E+03  0.10000000000E+01 0.  0.
<mgrwt>
<rscale>  0 0.20371976E+03</rscale>
<asrwt>0</asrwt>
<pdfrwt beam="2">  1        1 0.15060819E+00 0.20850721E+03</pdfrwt>
<pdfrwt beam="1">  1       -1 0.11202001E-01 0.20850721E+03</pdfrwt>
<totfact> 0.85112829E+02</totfact>
</mgrwt>
</event>
<event>
 8    2  0.1409546E-003  0.1573022E+03  0.7818608E-02  0.1200002E+00
          1   -1    0    0  501    0  0.00000000000E+00  0.00000000000E+00  0.37332325199E+03  0.37332325202E+03  0.50400000000E-02 0. -1.
         -1   -1    0    0    0  501 -0.00000000000E+00 -0.00000000000E+00 -0.58957359681E+02  0.58957359896E+02  0.50400000000E-02 0.  1.
         25    2    1    2    0    0  0.94224311093E+02 -0.15553576019E+02  0.12083468416E+03  0.19835576485E+03  0.12499541602E+03 0.  0.
         23    2    1    2    0    0 -0.94224311093E+02  0.15553576019E+02  0.19353120815E+03  0.23392484707E+03  0.90257249123E+02 0.  0.
        -11    1    4    4    0    0 -0.78442065948E+01 -0.15297328073E+02 -0.26174664866E+01  0.17389392006E+02  0.51100000000E-03 0.  1.
         11    1    4    4    0    0 -0.86380104498E+02  0.30850904092E+02  0.19614867464E+03  0.21653545506E+03  0.51100000000E-03 0. -1.
    9000005    1    3    3    0    0  0.98802838768E+01  0.46906750193E+02  0.60836015760E+02  0.77458918380E+02  0.10000000000E+01 0.  0.
    9000005    1    3    3    0    0  0.84344027216E+02 -0.62460326212E+02  0.59998668400E+02  0.12089684647E+03  0.10000000000E+01 0.  0.
<mgrwt>
<rscale>  0 0.15038402E+03</rscale>
<asrwt>0</asrwt>
<pdfrwt beam="1">  1        1 0.57434347E-01 0.15730222E+03</pdfrwt>
<pdfrwt beam="2">  1       -1 0.90703630E-02 0.15730222E+03</pdfrwt>
<totfact> 0.45582429E+03</totfact>
</mgrwt>
</event>
<event>
 8    2  0.1409546E-003  0.2687604E+03  0.7818608E-02  0.1104110E+00
         -1   -1    0    0    0  501 -0.00000000000E+00  0.00000000000E+00  0.10431208528E+03  0.10431208540E+03  0.50400000000E-02 0.  1.
          1   -1    0    0  501    0  0.00000000000E+00 -0.00000000000E+00 -0.73037465234E+03  0.73037465235E+03  0.50400000000E-02 0. -1.
         25    2    1    2    0    0 -0.11912003782E+03  0.20595196487E+03 -0.45375175050E+03  0.52737348151E+03  0.12500537056E+03 0.  0.
         23    2    1    2    0    0  0.11912003782E+03 -0.20595196487E+03 -0.17231081656E+03  0.30731325624E+03  0.90247574571E+02 0.  0.
        -11    1    4    4    0    0  0.33718038211E+02 -0.38625533221E+02  0.16209846208E+01  0.51297811930E+02  0.51100000000E-03 0. -1.
         11    1    4    4    0    0  0.85401999609E+02 -0.16732643165E+03 -0.17393180118E+03  0.25601544431E+03  0.51100000000E-03 0.  1.
    9000005    1    3    3    0    0 -0.26716675298E+02 -0.12910568350E+02 -0.69999754559E+02  0.76035709718E+02  0.10000000000E+01 0.  0.
    9000005    1    3    3    0    0 -0.92403362522E+02  0.21886253322E+03 -0.38375199594E+03  0.45133777179E+03  0.10000000000E+01 0.  0.
<mgrwt>
<rscale>  0 0.26511192E+03</rscale>
<asrwt>0</asrwt>
<pdfrwt beam="2">  1        1 0.11236533E+00 0.26876037E+03</pdfrwt>
<pdfrwt beam="1">  1       -1 0.16048014E-01 0.26876037E+03</pdfrwt>
<totfact> 0.76570102E+02</totfact>
</mgrwt>
</event>
<event>
 8    2  0.1409546E-003  0.1263495E+03  0.7818608E-02  0.1248217E+00
          1   -1    0    0  501    0  0.00000000000E+00  0.00000000000E+00  0.12969024750E+04  0.12969024750E+04  0.50400000000E-02 0. -1.
         -1   -1    0    0    0  501 -0.00000000000E+00 -0.00000000000E+00 -0.93656175265E+01  0.93656188826E+01  0.50400000000E-02 0.  1.
         25    2    1    2    0    0  0.18434924282E+02 -0.93439266313E+00  0.81218254899E+03  0.82195176227E+03  0.12499394823E+03 0.  0.
         23    2    1    2    0    0 -0.18434924282E+02  0.93439266313E+00  0.47535430844E+03  0.48431633158E+03  0.90883832207E+02 0.  0.
        -11    1    4    4    0    0 -0.61168940885E+01  0.29586068296E+02  0.41749709663E+03  0.41858879288E+03  0.51100000000E-03 0. -1.
         11    1    4    4    0    0 -0.12318030194E+02 -0.28651675633E+02  0.57857211811E+02  0.65727538697E+02  0.51100000000E-03 0.  1.
    9000005    1    3    3    0    0  0.54243948891E+02  0.34795540118E+02  0.61551230051E+03  0.61887763547E+03  0.10000000000E+01 0.  0.
    9000005    1    3    3    0    0 -0.35809024609E+02 -0.35729932781E+02  0.19667024848E+03  0.20307412680E+03  0.10000000000E+01 0.  0.
<mgrwt>
<rscale>  0 0.11694894E+03</rscale>
<asrwt>0</asrwt>
<pdfrwt beam="1">  1        1 0.19952348E+00 0.12634954E+03</pdfrwt>
<pdfrwt beam="2">  1       -1 0.14408641E-02 0.12634954E+03</pdfrwt>
<totfact> 0.10480289E+04</totfact>
</mgrwt>
</event>
<event>
 8    2  0.1409546E-003  0.1397851E+03  0.7818608E-02  0.1224639E+00
         -1   -1    0    0    0  501 -0.00000000000E+00  0.00000000000E+00  0.77556896201E+02  0.77556896365E+02  0.50400000000E-02 0.  1.
          1   -1    0    0  501    0  0.00000000000E+00 -0.00000000000E+00 -0.20282753673E+03  0.20282753679E+03  0.50400000000E-02 0. -1.
         25    2    1    2    0    0 -0.28675435195E+02  0.55606566555E+02 -0.75233076850E+02  0.15874473748E+03  0.12500201997E+03 0.  0.
         23    2    1    2    0    0  0.28675435195E+02 -0.55606566555E+02 -0.50037563677E+02  0.12163969568E+03  0.91531890388E+02 0.  0.
        -11    1    4    4    0    0  0.42512402371E+02 -0.71958332571E+02 -0.22128559914E+02  0.86457961727E+02  0.51100000000E-03 0.  1.
         11    1    4    4    0    0 -0.13836967176E+02  0.16351766016E+02 -0.27909003762E+02  0.35181733950E+02  0.51100000000E-03 0. -1.
    9000005    1    3    3    0    0  0.27517008586E+02  0.75343510248E+02 -0.42814270527E+02  0.90927949822E+02  0.10000000000E+01 0.  0.
    9000005    1    3    3    0    0 -0.56192443782E+02 -0.19736943693E+02 -0.32418806323E+02  0.67816787656E+02  0.10000000000E+01 0.  0.
<mgrwt>
<rscale>  0 0.13191692E+03</rscale>
<asrwt>0</asrwt>
<pdfrwt beam="2">  1        1 0.31204236E-01 0.13978511E+03</pdfrwt>
<pdfrwt beam="1">  1       -1 0.11931830E-01 0.13978511E+03</pdfrwt>
<totfact> 0.63491819E+03</totfact>
</mgrwt>
</event>
<event>
 8    2  0.1409546E-003  0.1276249E+03  0.7818608E-02  0.1245379E+00
         -1   -1    0    0    0  501 -0.00000000000E+00  0.00000000000E+00  0.62506283433E+02  0.62506283636E+02  0.50400000000E-02 0.  1.
          1   -1    0    0  501    0  0.00000000000E+00 -0.00000000000E+00 -0.34279568229E+03  0.34279568233E+03  0.50400000000E-02 0. -1.
         25    2    1    2    0    0  0.15636945891E+02  0.20471092618E+02 -0.28252310665E+03  0.31001198790E+03  0.12499818853E+03 0.  0.
         23    2    1    2    0    0 -0.15636945891E+02 -0.20471092618E+02  0.22337077965E+01  0.95289978068E+02  0.91714833914E+02 0.  0.
        -11    1    4    4    0    0  0.21644528002E+02 -0.29766952340E+02 -0.28125451871E+02  0.46320601110E+02  0.51100000000E-03 0. -1.
         11    1    4    4    0    0 -0.37281473893E+02  0.92958597219E+01  0.30359159668E+02  0.48969376958E+02  0.51100000000E-03 0.  1.
    9000005    1    3    3    0    0 -0.23290643197E+02  0.40573401547E+02 -0.34474070707E+02  0.58121566778E+02  0.10000000000E+01 0.  0.
    9000005    1    3    3    0    0  0.38927589088E+02 -0.20102308929E+02 -0.24804903595E+03  0.25189042112E+03  0.10000000000E+01 0.  0.
<mgrwt>
<rscale>  0 0.11862703E+03</rscale>
<asrwt>0</asrwt>
<pdfrwt beam="2">  1        1 0.52737796E-01 0.12762495E+03</pdfrwt>
<pdfrwt beam="1">  1       -1 0.96163516E-02 0.12762495E+03</pdfrwt>
<totfact> 0.45890664E+03</totfact>
</mgrwt>
</event>
<event>
 8    2  0.1409546E-003  0.1456776E+03  0.7818608E-02  0.1216645E+00
         -1   -1    0    0    0  501 -0.00000000000E+00  0.00000000000E+00  0.33295527041E+02  0.33295527422E+02  0.50400000000E-02 0.  1.
          1   -1    0    0  501    0  0.00000000000E+00 -0.00000000000E+00 -0.51794891828E+03  0.51794891831E+03  0.50400000000E-02 0. -1.
         25    2    1    2    0    0  0.39033164402E+02 -0.63823939657E+02 -0.24434856238E+03  0.28447878217E+03  0.12499949749E+03 0.  0.
         23    2    1    2    0    0 -0.39033164402E+02  0.63823939657E+02 -0.24030482887E+03  0.26676566356E+03  0.88433168446E+02 0.  0.
        -11    1    4    4    0    0 -0.45317391338E+02  0.80857356855E+02 -0.22377504234E+03  0.24221240201E+03  0.51100000000E-03 0. -1.
         11    1    4    4    0    0  0.62842269355E+01 -0.17033417199E+02 -0.16529786528E+02  0.24553261547E+02  0.51100000000E-03 0.  1.
    9000005    1    3    3    0    0 -0.32175170420E+02 -0.21299384259E+02 -0.16455974366E+02  0.41960748964E+02  0.10000000000E+01 0.  0.
    9000005    1    3    3    0    0  0.71208334822E+02 -0.42524555398E+02 -0.22789258801E+03  0.24251803321E+03  0.10000000000E+01 0.  0.
<mgrwt>
<rscale>  0 0.13756360E+03</rscale>
<asrwt>0</asrwt>
<pdfrwt beam="2">  1        1 0.79684443E-01 0.14567758E+03</pdfrwt>
<pdfrwt beam="1">  1       -1 0.51223892E-02 0.14567758E+03</pdfrwt>
<totfact> 0.70357350E+03</totfact>
</mgrwt>
</event>
<event>
 8    2  0.1409546E-003  0.1267718E+03  0.7818608E-02  0.1249550E+00
          1   -1    0    0  501    0  0.00000000000E+00  0.00000000000E+00  0.99531835597E+03  0.99531835598E+03  0.50400000000E-02 0. -1.
         -1   -1    0    0    0  501 -0.00000000000E+00 -0.00000000000E+00 -0.12472072351E+02  0.12472073369E+02  0.50400000000E-02 0.  1.
         25    2    1    2    0    0 -0.62011454372E+01 -0.20177376547E+02  0.45081189775E+03  0.46829739293E+03  0.12500200135E+03 0.  0.
         23    2    1    2    0    0  0.62011454372E+01  0.20177376547E+02  0.53203438586E+03  0.53949303642E+03  0.86870984073E+02 0.  0.
        -11    1    4    4    0    0  0.32352137482E+02  0.15130750181E+02  0.47718055603E+03  0.47851529072E+03  0.51100000000E-03 0. -1.
         11    1    4    4    0    0 -0.26150992045E+02  0.50466263655E+01  0.54853829832E+02  0.60977745696E+02  0.51100000000E-03 0.  1.
    9000005    1    3    3    0    0  0.41082051505E+02 -0.32192583701E+02  0.37169476097E+03  0.37534263378E+03  0.10000000000E+01 0.  0.
    9000005    1    3    3    0    0 -0.47283196942E+02  0.12015207154E+02  0.79117136784E+02  0.92954759151E+02  0.10000000000E+01 0.  0.
<mgrwt>
<rscale>  0 0.11617157E+03</rscale>
<asrwt>0</asrwt>
<pdfrwt beam="1">  1        1 0.15312599E+00 0.12677177E+03</pdfrwt>
<pdfrwt beam="2">  1       -1 0.19187794E-02 0.12677177E+03</pdfrwt>
<totfact> 0.11258135E+04</totfact>
</mgrwt>
</event>
<event>
 8    2  0.1409546E-003  0.1888719E+03  0.7818608E-02  0.1164445E+00
          1   -1    0    0  501    0  0.00000000000E+00  0.00000000000E+00  0.34180422604E+03  0.34180422608E+03  0.50400000000E-02 0. -1.
         -1   -1    0    0    0  501 -0.00000000000E+00 -0.00000000000E+00 -0.12363204451E+03  0.12363204461E+03  0.50400000000E-02 0.  1.
         25    2    1    2    0    0  0.10431009337E+03 -0.95745358592E+02 -0.12567754936E+01  0.18887611353E+03  0.12499935002E+03 0.  0.
         23    2    1    2    0    0 -0.10431009337E+03  0.95745358592E+02  0.21942895703E+03  0.27656015717E+03  0.91042210417E+02 0.  0.
        -11    1    4    4    0    0 -0.14347914518E+02 -0.16582473858E+02  0.47729676523E+02  0.52525832802E+02  0.51100000000E-03 0. -1.
         11    1    4    4    0    0 -0.89962178851E+02  0.11232783245E+03  0.17169928051E+03  0.22403432436E+03  0.51100000000E-03 0.  1.
    9000005    1    3    3    0    0 -0.37126699603E+00 -0.82835610572E+02 -0.77052602279E+01  0.83200043589E+02  0.10000000000E+01 0.  0.
    9000005    1    3    3    0    0  0.10468136037E+03 -0.12909748020E+02  0.64484847343E+01  0.10567606994E+03  0.10000000000E+01 0.  0.
<mgrwt>
<rscale>  0 0.18351381E+03</rscale>
<asrwt>0</asrwt>
<pdfrwt beam="1">  1        1 0.52585265E-01 0.18887193E+03</pdfrwt>
<pdfrwt beam="2">  1       -1 0.19020315E-01 0.18887193E+03</pdfrwt>
<totfact> 0.16109429E+03</totfact>
</mgrwt>
</event>
<event>
 8    2  0.1409546E-003  0.2086020E+03  0.7818608E-02  0.1146224E+00
          1   -1    0    0  501    0  0.00000000000E+00  0.00000000000E+00  0.31525626975E+03  0.31525626979E+03  0.50400000000E-02 0. -1.
         -1   -1    0    0    0  501 -0.00000000000E+00 -0.00000000000E+00 -0.12732734883E+03  0.12732734893E+03  0.50400000000E-02 0.  1.
         25    2    1    2    0    0  0.14913620067E+03 -0.75143908123E+02  0.10864410883E+03  0.23519854203E+03  0.12500639388E+03 0.  0.
         23    2    1    2    0    0 -0.14913620067E+03  0.75143908123E+02  0.79284812085E+02  0.20738507669E+03  0.93990825769E+02 0.  0.
        -11    1    4    4    0    0 -0.13676759740E+03  0.31000636994E+02  0.80165987516E+02  0.16153328062E+03  0.51100000000E-03 0. -1.
         11    1    4    4    0    0 -0.12368603271E+02  0.44143271129E+02 -0.88117543104E+00  0.45851796075E+02  0.51100000000E-03 0.  1.
    9000005    1    3    3    0    0  0.11407230609E+03 -0.62681057492E+02  0.13656911739E+03  0.18866247589E+03  0.10000000000E+01 0.  0.
    9000005    1    3    3    0    0  0.35063894584E+02 -0.12462850631E+02 -0.27925008556E+02  0.46536066143E+02  0.10000000000E+01 0.  0.
<mgrwt>
<rscale>  0 0.20422337E+03</rscale>
<asrwt>0</asrwt>
<pdfrwt beam="1">  1        1 0.48500964E-01 0.20860204E+03</pdfrwt>
<pdfrwt beam="2">  1       -1 0.19588823E-01 0.20860204E+03</pdfrwt>
<totfact> 0.17042070E+03</totfact>
</mgrwt>
</event>
<event>
 8    2  0.1409546E-003  0.1359206E+03  0.7818608E-02  0.1231043E+00
          1   -1    0    0  501    0  0.00000000000E+00  0.00000000000E+00  0.68400432537E+02  0.68400432723E+02  0.50400000000E-02 0. -1.
         -1   -1    0    0    0  501 -0.00000000000E+00 -0.00000000000E+00 -0.24275356175E+03  0.24275356180E+03  0.50400000000E-02 0.  1.
         25    2    1    2    0    0  0.48389834076E+02  0.22546108135E+02 -0.15067201419E+03  0.20291984348E+03  0.12499801591E+03 0.  0.
         23    2    1    2    0    0 -0.48389834076E+02 -0.22546108135E+02 -0.23681115018E+02  0.10823415104E+03  0.91125919528E+02 0.  0.
        -11    1    4    4    0    0  0.24669684179E+02 -0.13463498347E+02 -0.20048856166E+02  0.34522684413E+02  0.51100000000E-03 0.  1.
         11    1    4    4    0    0 -0.73059518256E+02 -0.90826097886E+01 -0.36322588516E+01  0.73711466631E+02  0.51100000000E-03 0. -1.
    9000005    1    3    3    0    0  0.64065673391E+02 -0.40044090057E+00 -0.16097982532E+03  0.17326302266E+03  0.10000000000E+01 0.  0.
    9000005    1    3    3    0    0 -0.15675839315E+02  0.22946549036E+02  0.10307811130E+02  0.29656820820E+02  0.10000000000E+01 0.  0.
<mgrwt>
<rscale>  0 0.12761213E+03</rscale>
<asrwt>0</asrwt>
<pdfrwt beam="1">  1        1 0.10523144E-01 0.13592059E+03</pdfrwt>
<pdfrwt beam="2">  1       -1 0.37346702E-01 0.13592059E+03</pdfrwt>
<totfact> 0.40042744E+03</totfact>
</mgrwt>
</event>
<event>
 8    2  0.1409546E-003  0.1506689E+03  0.7818608E-02  0.1210687E+00
         -1   -1    0    0    0  501 -0.00000000000E+00  0.00000000000E+00  0.19191459425E+02  0.19191460087E+02  0.50400000000E-02 0.  1.
          1   -1    0    0  501    0  0.00000000000E+00 -0.00000000000E+00 -0.99631901581E+03  0.99631901583E+03  0.50400000000E-02 0. -1.
         25    2    1    2    0    0 -0.83858506917E+02 -0.65790237252E+01 -0.43003626556E+03  0.45566689073E+03  0.12500237148E+03 0.  0.
         23    2    1    2    0    0  0.83858506917E+02  0.65790237252E+01 -0.54709129083E+03  0.55984358519E+03  0.83907250199E+02 0.  0.
        -11    1    4    4    0    0  0.48694541205E+02 -0.79756198556E+01 -0.10390367433E+03  0.11502496422E+03  0.51100000000E-03 0.  1.
         11    1    4    4    0    0  0.35163965712E+02  0.14554643581E+02 -0.44318761651E+03  0.44481862097E+03  0.51100000000E-03 0. -1.
    9000005    1    3    3    0    0 -0.49252446583E+02 -0.35214079502E+02 -0.68823206733E+02  0.91670435117E+02  0.10000000000E+01 0.  0.
    9000005    1    3    3    0    0 -0.34606060333E+02  0.28635055777E+02 -0.36121305882E+03  0.36399645561E+03  0.10000000000E+01 0.  0.
<mgrwt>
<rscale>  0 0.14198144E+03</rscale>
<asrwt>0</asrwt>
<pdfrwt beam="2">  1        1 0.15327981E+00 0.15066893E+03</pdfrwt>
<pdfrwt beam="1">  1       -1 0.29525331E-02 0.15066893E+03</pdfrwt>
<totfact> 0.60745045E+03</totfact>
</mgrwt>
</event>
<event>
 8    2  0.1409546E-003  0.1301101E+03  0.7818608E-02  0.1241071E+00
         -1   -1    0    0    0  501 -0.00000000000E+00  0.00000000000E+00  0.45713912085E+02  0.45713912362E+02  0.50400000000E-02 0.  1.
          1   -1    0    0  501    0  0.00000000000E+00 -0.00000000000E+00 -0.38134312103E+03  0.38134312106E+03  0.50400000000E-02 0. -1.
         25    2    1    2    0    0 -0.21604895980E+02 -0.28879993760E+02 -0.78743756486E+02  0.15208296220E+03  0.12501129004E+03 0.  0.
         23    2    1    2    0    0  0.21604895980E+02  0.28879993760E+02 -0.25688545246E+03  0.27497407122E+03  0.91212820309E+02 0.  0.
        -11    1    4    4    0    0  0.50472355387E+02 -0.30977734481E-01 -0.19007276408E+03  0.19665989745E+03  0.51100000000E-03 0. -1.
         11    1    4    4    0    0 -0.28867459407E+02  0.28910971495E+02 -0.66812688375E+02  0.78314173771E+02  0.51100000000E-03 0.  1.
    9000005    1    3    3    0    0 -0.64735523708E+02 -0.24353533555E+02 -0.83516055822E+02  0.10844221598E+03  0.10000000000E+01 0.  0.
    9000005    1    3    3    0    0  0.43130627728E+02 -0.45264602049E+01  0.47722993359E+01  0.43640746225E+02  0.10000000000E+01 0.  0.
<mgrwt>
<rscale>  0 0.12123657E+03</rscale>
<asrwt>0</asrwt>
<pdfrwt beam="2">  1        1 0.58668170E-01 0.13011014E+03</pdfrwt>
<pdfrwt beam="1">  1       -1 0.70329098E-02 0.13011014E+03</pdfrwt>
<totfact> 0.64486809E+03</totfact>
</mgrwt>
</event>
<event>
 8    2  0.1409546E-003  0.1252648E+03  0.7818608E-02  0.1251212E+00
          1   -1    0    0  501    0  0.00000000000E+00  0.00000000000E+00  0.18627319472E+04  0.18627319472E+04  0.50400000000E-02 0. -1.
         -1   -1    0    0    0  501 -0.00000000000E+00 -0.00000000000E+00 -0.63159678162E+01  0.63159698271E+01  0.50400000000E-02 0.  1.
         25    2    1    2    0    0  0.80809576693E+01  0.16075806441E+01  0.95343745633E+03  0.96163103421E+03  0.12499350631E+03 0.  0.
         23    2    1    2    0    0 -0.80809576693E+01 -0.16075806441E+01  0.90297852302E+03  0.90741688279E+03  0.89259733112E+02 0.  0.
        -11    1    4    4    0    0 -0.46454038240E+02 -0.15277102028E+02  0.48925975556E+03  0.49169754517E+03  0.51100000000E-03 0.  1.
         11    1    4    4    0    0  0.38373080570E+02  0.13669521384E+02  0.41371876745E+03  0.41571933762E+03  0.51100000000E-03 0. -1.
    9000005    1    3    3    0    0  0.34401640775E+02 -0.27046857915E+02  0.84979266706E+03  0.85091925727E+03  0.10000000000E+01 0.  0.
    9000005    1    3    3    0    0 -0.26320683106E+02  0.28654438559E+02  0.10364478928E+03  0.11071177694E+03  0.10000000000E+01 0.  0.
<mgrwt>
<rscale>  0 0.11521160E+03</rscale>
<asrwt>0</asrwt>
<pdfrwt beam="1">  1        1 0.28657398E+00 0.12526477E+03</pdfrwt>
<pdfrwt beam="2">  1       -1 0.97168807E-03 0.12526477E+03</pdfrwt>
<totfact> 0.79376790E+03</totfact>
</mgrwt>
</event>
<event>
 8    2  0.1409546E-003  0.1292537E+03  0.7818608E-02  0.1239237E+00
         -1   -1    0    0    0  501 -0.00000000000E+00  0.00000000000E+00  0.12508752357E+02  0.12508753372E+02  0.50400000000E-02 0.  1.
          1   -1    0    0  501    0  0.00000000000E+00 -0.00000000000E+00 -0.16978310108E+04  0.16978310108E+04  0.50400000000E-02 0. -1.
         25    2    1    2    0    0 -0.32879910462E+02  0.22831712117E+00 -0.14128466492E+04  0.14187466903E+04  0.12500150547E+03 0.  0.
         23    2    1    2    0    0  0.32879910462E+02 -0.22831712117E+00 -0.27247560923E+03  0.29159307389E+03  0.98500875505E+02 0.  0.
        -11    1    4    4    0    0 -0.88654449955E+01  0.28753777644E+01  0.52725660555E+01  0.10708121466E+02  0.51100000000E-03 0.  1.
         11    1    4    4    0    0  0.41745355458E+02 -0.31036948855E+01 -0.27774817528E+03  0.28088495242E+03  0.51100000000E-03 0. -1.
    9000005    1    3    3    0    0 -0.77231079192E+02  0.14071762244E+02 -0.70049266221E+03  0.70487844618E+03  0.10000000000E+01 0.  0.
    9000005    1    3    3    0    0  0.44351168729E+02 -0.13843445123E+02 -0.71235398698E+03  0.71386824408E+03  0.10000000000E+01 0.  0.
<mgrwt>
<rscale>  0 0.12237072E+03</rscale>
<asrwt>0</asrwt>
<pdfrwt beam="2">  1        1 0.26120459E+00 0.12925369E+03</pdfrwt>
<pdfrwt beam="1">  1       -1 0.19244249E-02 0.12925369E+03</pdfrwt>
<totfact> 0.38046653E+03</totfact>
</mgrwt>
</event>
<event>
 8    2  0.1409546E-003  0.1291623E+03  0.7818608E-02  0.1244290E+00
         -1   -1    0    0    0  501 -0.00000000000E+00  0.00000000000E+00  0.29456834620E+02  0.29456835051E+02  0.50400000000E-02 0.  1.
          1   -1    0    0  501    0  0.00000000000E+00 -0.00000000000E+00 -0.70757620726E+03  0.70757620727E+03  0.50400000000E-02 0. -1.
         25    2    1    2    0    0  0.82097743786E+01 -0.31480997601E+02 -0.13882914646E+03  0.18962182126E+03  0.12499779832E+03 0.  0.
         23    2    1    2    0    0 -0.82097743786E+01  0.31480997601E+02 -0.53929022617E+03  0.54741122107E+03  0.88128561202E+02 0.  0.
        -11    1    4    4    0    0  0.81679713402E+01  0.37152763897E+00 -0.46653668595E+03  0.46660832946E+03  0.51100000000E-03 0. -1.
         11    1    4    4    0    0 -0.16377745719E+02  0.31109469962E+02 -0.72753540226E+02  0.80802891605E+02  0.51100000000E-03 0.  1.
    9000005    1    3    3    0    0 -0.29770599884E+02 -0.33352995003E+02  0.98125314474E+00  0.44728891679E+02  0.10000000000E+01 0.  0.
    9000005    1    3    3    0    0  0.37980374262E+02  0.18719974020E+01 -0.13981039961E+03  0.14489292958E+03  0.10000000000E+01 0.  0.
<mgrwt>
<rscale>  0 0.11927977E+03</rscale>
<asrwt>0</asrwt>
<pdfrwt beam="2">  1        1 0.10885787E+00 0.12916231E+03</pdfrwt>
<pdfrwt beam="1">  1       -1 0.45318213E-02 0.12916231E+03</pdfrwt>
<totfact> 0.54664427E+03</totfact>
</mgrwt>
</event>
<event>
 8    2  0.1409546E-003  0.1347825E+03  0.7818608E-02  0.1233598E+00
         -1   -1    0    0    0  501 -0.00000000000E+00  0.00000000000E+00  0.43204720043E+03  0.43204720046E+03  0.50400000000E-02 0.  1.
          1   -1    0    0  501    0  0.00000000000E+00 -0.00000000000E+00 -0.41073998494E+02  0.41073998803E+02  0.50400000000E-02 0. -1.
         25    2    1    2    0    0  0.46608116899E+02 -0.19221035408E+02  0.32277655683E+03  0.34978712714E+03  0.12499825564E+03 0.  0.
         23    2    1    2    0    0 -0.46608116899E+02  0.19221035408E+02  0.68196645112E+02  0.12333407212E+03  0.89547452108E+02 0.  0.
        -11    1    4    4    0    0 -0.32345575529E+02 -0.12633895534E+02  0.79413473716E+02  0.86673821772E+02  0.51100000000E-03 0.  1.
         11    1    4    4    0    0 -0.14262541370E+02  0.31854930942E+02 -0.11216828604E+02  0.36660250352E+02  0.51100000000E-03 0. -1.
    9000005    1    3    3    0    0  0.67901175313E+02 -0.58788912619E+02  0.21245206678E+03  0.23065902657E+03  0.10000000000E+01 0.  0.
    9000005    1    3    3    0    0 -0.21293058413E+02  0.39567877210E+02  0.11032449004E+03  0.11912810057E+03  0.10000000000E+01 0.  0.
<mgrwt>
<rscale>  0 0.12594641E+03</rscale>
<asrwt>0</asrwt>
<pdfrwt beam="2">  1        1 0.63190766E-02 0.13478252E+03</pdfrwt>
<pdfrwt beam="1">  1       -1 0.66468802E-01 0.13478252E+03</pdfrwt>
<totfact> 0.27600508E+03</totfact>
</mgrwt>
</event>
<event>
 8    2  0.1409546E-003  0.3339522E+03  0.7818608E-02  0.1070603E+00
         -1   -1    0    0    0  501 -0.00000000000E+00  0.00000000000E+00  0.60646422782E+03  0.60646422784E+03  0.50400000000E-02 0.  1.
          1   -1    0    0  501    0  0.00000000000E+00 -0.00000000000E+00 -0.19597729409E+03  0.19597729415E+03  0.50400000000E-02 0. -1.
         25    2    1    2    0    0 -0.94171559295E+01 -0.30953123923E+03  0.86717818291E+02  0.34502757212E+03  0.12500309845E+03 0.  0.
         23    2    1    2    0    0  0.94171559295E+01  0.30953123923E+03  0.32376911544E+03  0.45741394988E+03  0.92210685598E+02 0.  0.
        -11    1    4    4    0    0 -0.29898918906E+02  0.20465774009E+03  0.17329637577E+03  0.26983396707E+03  0.51100000000E-03 0.  1.
         11    1    4    4    0    0  0.39316074836E+02  0.10487349914E+03  0.15047273968E+03  0.18757998281E+03  0.51100000000E-03 0. -1.
    9000005    1    3    3    0    0 -0.31308809191E+02 -0.20536890077E+03  0.11144712381E+03  0.23575005481E+03  0.10000000000E+01 0.  0.
    9000005    1    3    3    0    0  0.21891653262E+02 -0.10416233847E+03 -0.24729305521E+02  0.10927751731E+03  0.10000000000E+01 0.  0.
<mgrwt>
<rscale>  0 0.33120838E+03</rscale>
<asrwt>0</asrwt>
<pdfrwt beam="2">  1        1 0.30150353E-01 0.33395216E+03</pdfrwt>
<pdfrwt beam="1">  1       -1 0.93302188E-01 0.33395216E+03</pdfrwt>
<totfact> 0.17697011E+02</totfact>
</mgrwt>
</event>
<event>
 8    2  0.1409546E-003  0.1380909E+03  0.7818608E-02  0.1226753E+00
         -1   -1    0    0    0  501 -0.00000000000E+00  0.00000000000E+00  0.48644765832E+02  0.48644766093E+02  0.50400000000E-02 0.  1.
          1   -1    0    0  501    0  0.00000000000E+00 -0.00000000000E+00 -0.41733063081E+03  0.41733063084E+03  0.50400000000E-02 0. -1.
         25    2    1    2    0    0  0.16868930853E+02  0.56206224141E+02 -0.86147838592E+02  0.16275913751E+03  0.12500154515E+03 0.  0.
         23    2    1    2    0    0 -0.16868930853E+02 -0.56206224141E+02 -0.28253802638E+03  0.30321625942E+03  0.93105655916E+02 0.  0.
        -11    1    4    4    0    0 -0.16074127364E+02  0.47223783404E+01 -0.28828843523E+01  0.16999689708E+02  0.51100000000E-03 0.  1.
         11    1    4    4    0    0 -0.79480348878E+00 -0.60928602481E+02 -0.27965514203E+03  0.28621656971E+03  0.51100000000E-03 0. -1.
    9000005    1    3    3    0    0  0.37535826488E+02  0.49205492730E+02  0.11277581167E+02  0.62915042890E+02  0.10000000000E+01 0.  0.
    9000005    1    3    3    0    0 -0.20666895634E+02  0.70007314108E+01 -0.97425419759E+02  0.99844094621E+02  0.10000000000E+01 0.  0.
<mgrwt>
<rscale>  0 0.13047501E+03</rscale>
<asrwt>0</asrwt>
<pdfrwt beam="2">  1        1 0.64204710E-01 0.13809086E+03</pdfrwt>
<pdfrwt beam="1">  1       -1 0.74838104E-02 0.13809086E+03</pdfrwt>
<totfact> 0.52617076E+03</totfact>
</mgrwt>
</event>
<event>
 8    2  0.1409546E-003  0.2610709E+03  0.7818608E-02  0.1109788E+00
         -1   -1    0    0    0  501 -0.00000000000E+00  0.00000000000E+00  0.38122772078E+03  0.38122772081E+03  0.50400000000E-02 0.  1.
          1   -1    0    0  501    0  0.00000000000E+00 -0.00000000000E+00 -0.16520786732E+03  0.16520786740E+03  0.50400000000E-02 0. -1.
         25    2    1    2    0    0  0.22325240780E+03 -0.51881685423E+02  0.12810088948E+03  0.29080548240E+03  0.12499857535E+03 0.  0.
         23    2    1    2    0    0 -0.22325240780E+03  0.51881685423E+02  0.87918963977E+02  0.25563010581E+03  0.71299788924E+02 0.  0.
        -11    1    4    4    0    0 -0.42885322244E+02  0.34328909834E+02  0.40678733434E+02  0.68354840856E+02  0.51100000000E-03 0. -1.
         11    1    4    4    0    0 -0.18036708556E+03  0.17552775588E+02  0.47240230542E+02  0.18727526496E+03  0.51100000000E-03 0.  1.
    9000005    1    3    3    0    0  0.55296158697E+02 -0.66964432051E+02  0.16003579821E+02  0.88312031420E+02  0.10000000000E+01 0.  0.
    9000005    1    3    3    0    0  0.16795624910E+03  0.15082746628E+02  0.11209730966E+03  0.20249345098E+03  0.10000000000E+01 0.  0.
<mgrwt>
<rscale>  0 0.25564519E+03</rscale>
<asrwt>0</asrwt>
<pdfrwt beam="2">  1        1 0.25416595E-01 0.26107085E+03</pdfrwt>
<pdfrwt beam="1">  1       -1 0.58650417E-01 0.26107085E+03</pdfrwt>
<totfact> 0.57043956E+02</totfact>
</mgrwt>
</event>
<event>
 8    2  0.1409546E-003  0.1579398E+03  0.7818608E-02  0.1199203E+00
          1   -1    0    0  501    0  0.00000000000E+00  0.00000000000E+00  0.10100946855E+03  0.10100946868E+03  0.50400000000E-02 0. -1.
         -1   -1    0    0    0  501 -0.00000000000E+00 -0.00000000000E+00 -0.22688394149E+03  0.22688394154E+03  0.50400000000E-02 0.  1.
         25    2    1    2    0    0  0.93409636414E+02 -0.24355979859E+02 -0.11496798257E+03  0.19535253218E+03  0.12500560341E+03 0.  0.
         23    2    1    2    0    0 -0.93409636414E+02  0.24355979859E+02 -0.10906490367E+02  0.13254087804E+03  0.90164066506E+02 0.  0.
        -11    1    4    4    0    0 -0.35974822698E+02  0.35810125485E+02  0.31942290638E+02  0.59973851693E+02  0.51100000000E-03 0. -1.
         11    1    4    4    0    0 -0.57434813716E+02 -0.11454145625E+02 -0.42848781005E+02  0.72567026344E+02  0.51100000000E-03 0.  1.
    9000005    1    3    3    0    0  0.15409083406E+02  0.46989325038E+01 -0.11083887018E+03  0.11200792365E+03  0.10000000000E+01 0.  0.
    9000005    1    3    3    0    0  0.78000553008E+02 -0.29054912363E+02 -0.41291123882E+01  0.83344608530E+02  0.10000000000E+01 0.  0.
<mgrwt>
<rscale>  0 0.15103836E+03</rscale>
<asrwt>0</asrwt>
<pdfrwt beam="1">  1        1 0.15539918E-01 0.15793978E+03</pdfrwt>
<pdfrwt beam="2">  1       -1 0.34905222E-01 0.15793978E+03</pdfrwt>
<totfact> 0.27220454E+03</totfact>
</mgrwt>
</event>
<event>
 8    2  0.1409546E-003  0.1778912E+03  0.7818608E-02  0.1175306E+00
          1   -1    0    0  501    0  0.00000000000E+00  0.00000000000E+00  0.32676434381E+03  0.32676434385E+03  0.50400000000E-02 0. -1.
         -1   -1    0    0    0  501 -0.00000000000E+00 -0.00000000000E+00 -0.97621830280E+02  0.97621830410E+02  0.50400000000E-02 0.  1.
         25    2    1    2    0    0  0.23766768562E+02 -0.12431793252E+03  0.19428533580E+03  0.26342377850E+03  0.12500195095E+03 0.  0.
         23    2    1    2    0    0 -0.23766768562E+02  0.12431793252E+03  0.34857177733E+02  0.16096239576E+03  0.93134646485E+02 0.  0.
        -11    1    4    4    0    0  0.19409184859E+02  0.10407990637E+03  0.39612747945E+02  0.11304208582E+03  0.51100000000E-03 0.  1.
         11    1    4    4    0    0 -0.43175953421E+02  0.20238026144E+02 -0.47555702121E+01  0.47920309935E+02  0.51100000000E-03 0. -1.
    9000005    1    3    3    0    0  0.44995622747E+02 -0.11465474953E+03  0.80215232007E+02  0.14698911900E+03  0.10000000000E+01 0.  0.
    9000005    1    3    3    0    0 -0.21228854186E+02 -0.96631829822E+01  0.11407010379E+03  0.11643465951E+03  0.10000000000E+01 0.  0.
<mgrwt>
<rscale>  0 0.17246047E+03</rscale>
<asrwt>0</asrwt>
<pdfrwt beam="1">  1        1 0.50271437E-01 0.17789125E+03</pdfrwt>
<pdfrwt beam="2">  1       -1 0.15018743E-01 0.17789125E+03</pdfrwt>
<totfact> 0.24796294E+03</totfact>
</mgrwt>
</event>
<event>
 8    2  0.1409546E-003  0.1283027E+03  0.7818608E-02  0.1244570E+00
         -1   -1    0    0    0  501 -0.00000000000E+00  0.00000000000E+00  0.51930663711E+02  0.51930663956E+02  0.50400000000E-02 0.  1.
          1   -1    0    0  501    0  0.00000000000E+00 -0.00000000000E+00 -0.24321111123E+03  0.24321111128E+03  0.50400000000E-02 0. -1.
         25    2    1    2    0    0 -0.26096678994E+02  0.12371598743E+02 -0.94793635128E+02  0.15952244335E+03  0.12500993385E+03 0.  0.
         23    2    1    2    0    0  0.26096678994E+02 -0.12371598743E+02 -0.96486812388E+02  0.13561933188E+03  0.90822932709E+02 0.  0.
        -11    1    4    4    0    0 -0.30465378682E+02  0.10702650647E+02 -0.46890632045E+02  0.56933447138E+02  0.51100000000E-03 0. -1.
         11    1    4    4    0    0  0.56562057676E+02 -0.23074249390E+02 -0.49596180343E+02  0.78685884746E+02  0.51100000000E-03 0.  1.
    9000005    1    3    3    0    0 -0.67900400602E+02  0.24441623750E+02 -0.23331376951E+02  0.75849921054E+02  0.10000000000E+01 0.  0.
    9000005    1    3    3    0    0  0.41803721608E+02 -0.12070025007E+02 -0.71462258177E+02  0.83672522298E+02  0.10000000000E+01 0.  0.
<mgrwt>
<rscale>  0 0.11911181E+03</rscale>
<asrwt>0</asrwt>
<pdfrwt beam="2">  1        1 0.37417093E-01 0.12830268E+03</pdfrwt>
<pdfrwt beam="1">  1       -1 0.79893330E-02 0.12830268E+03</pdfrwt>
<totfact> 0.92872319E+03</totfact>
</mgrwt>
</event>
<event>
 8    2  0.1409546E-003  0.2290787E+03  0.7818608E-02  0.1130325E+00
          1   -1    0    0  501    0  0.00000000000E+00  0.00000000000E+00  0.14673772217E+04  0.14673772217E+04  0.50400000000E-02 0. -1.
         -1   -1    0    0    0  501 -0.00000000000E+00 -0.00000000000E+00 -0.50299308991E+02  0.50299309244E+02  0.50400000000E-02 0.  1.
         25    2    1    2    0    0  0.17216026425E+03 -0.84930054172E+02  0.28422802577E+03  0.36505153615E+03  0.12499913089E+03 0.  0.
         23    2    1    2    0    0 -0.17216026425E+03  0.84930054172E+02  0.11328498870E+04  0.11526249948E+04  0.91341346739E+02 0.  0.
        -11    1    4    4    0    0 -0.86243740864E+02  0.41844874918E+02  0.81340262188E+03  0.81903162435E+03  0.51100000000E-03 0. -1.
         11    1    4    4    0    0 -0.85916523385E+02  0.43085179254E+02  0.31944726510E+03  0.33359337050E+03  0.51100000000E-03 0.  1.
    9000005    1    3    3    0    0  0.12933973207E+03 -0.12686523949E+02  0.10485128473E+03  0.16698654464E+03  0.10000000000E+01 0.  0.
    9000005    1    3    3    0    0  0.42820532181E+02 -0.72243530223E+02  0.17937674103E+03  0.19806499150E+03  0.10000000000E+01 0.  0.
<mgrwt>
<rscale>  0 0.22484097E+03</rscale>
<asrwt>0</asrwt>
<pdfrwt beam="1">  1        1 0.22575036E+00 0.22907871E+03</pdfrwt>
<pdfrwt beam="2">  1       -1 0.77383546E-02 0.22907871E+03</pdfrwt>
<totfact> 0.68558486E+02</totfact>
</mgrwt>
</event>
<event>
 8    2  0.1409546E-003  0.1385072E+03  0.7818608E-02  0.1226492E+00
          1   -1    0    0  501    0  0.00000000000E+00  0.00000000000E+00  0.24180389476E+03  0.24180389481E+03  0.50400000000E-02 0. -1.
         -1   -1    0    0    0  501 -0.00000000000E+00 -0.00000000000E+00 -0.64080363049E+02  0.64080363247E+02  0.50400000000E-02 0.  1.
         25    2    1    2    0    0  0.10748507871E+02  0.58681584424E+02  0.11123448692E+03  0.17764392822E+03  0.12500078152E+03 0.  0.
         23    2    1    2    0    0 -0.10748507871E+02 -0.58681584424E+02  0.66489044791E+02  0.12824032984E+03  0.92009403586E+02 0.  0.
        -11    1    4    4    0    0 -0.39056599020E+02 -0.17783034486E+02 -0.27325850638E+01  0.43001410022E+02  0.51100000000E-03 0.  1.
         11    1    4    4    0    0  0.28308091149E+02 -0.40898549939E+02  0.69221629855E+02  0.85238919818E+02  0.51100000000E-03 0. -1.
    9000005    1    3    3    0    0 -0.54886064060E+02  0.37995915363E+02  0.36663870051E+02  0.76166980900E+02  0.10000000000E+01 0.  0.
    9000005    1    3    3    0    0  0.65634571931E+02  0.20685669062E+02  0.74570616867E+02  0.10147694732E+03  0.10000000000E+01 0.  0.
<mgrwt>
<rscale>  0 0.13065139E+03</rscale>
<asrwt>0</asrwt>
<pdfrwt beam="1">  1        1 0.37200599E-01 0.13850724E+03</pdfrwt>
<pdfrwt beam="2">  1       -1 0.98585176E-02 0.13850724E+03</pdfrwt>
<totfact> 0.68388405E+03</totfact>
</mgrwt>
</event>
<event>
 8    2  0.1409546E-003  0.1474400E+03  0.7818608E-02  0.1212923E+00
         -1   -1    0    0    0  501 -0.00000000000E+00  0.00000000000E+00  0.66101576555E+02  0.66101576747E+02  0.50400000000E-02 0.  1.
          1   -1    0    0  501    0  0.00000000000E+00 -0.00000000000E+00 -0.27948477384E+03  0.27948477388E+03  0.50400000000E-02 0. -1.
         25    2    1    2    0    0  0.55676821179E+02  0.54898030139E+02 -0.14449871994E+03  0.20644229487E+03  0.12499935566E+03 0.  0.
         23    2    1    2    0    0 -0.55676821179E+02 -0.54898030139E+02 -0.68884477343E+02  0.13914405576E+03  0.92207889608E+02 0.  0.
        -11    1    4    4    0    0 -0.32664032890E+02 -0.32783199608E+02  0.15596080499E+02  0.48835591001E+02  0.51100000000E-03 0.  1.
         11    1    4    4    0    0 -0.23012788288E+02 -0.22114830531E+02 -0.84480557842E+02  0.90308464763E+02  0.51100000000E-03 0. -1.
    9000005    1    3    3    0    0 -0.16907180634E+02  0.21538645982E+01 -0.10837939363E+03  0.10971592798E+03  0.10000000000E+01 0.  0.
    9000005    1    3    3    0    0  0.72584001813E+02  0.52744165541E+02 -0.36119326313E+02  0.96726366887E+02  0.10000000000E+01 0.  0.
<mgrwt>
<rscale>  0 0.14030235E+03</rscale>
<asrwt>0</asrwt>
<pdfrwt beam="2">  1        1 0.42997657E-01 0.14743996E+03</pdfrwt>
<pdfrwt beam="1">  1       -1 0.10169474E-01 0.14743996E+03</pdfrwt>
<totfact> 0.54726053E+03</totfact>
</mgrwt>
</event>
<event>
 8    2  0.1409546E-003  0.1407340E+03  0.7818608E-02  0.1222989E+00
          1   -1    0    0  501    0  0.00000000000E+00  0.00000000000E+00  0.34536397576E+03  0.34536397580E+03  0.50400000000E-02 0. -1.
         -1   -1    0    0    0  501 -0.00000000000E+00 -0.00000000000E+00 -0.52256909966E+02  0.52256910209E+02  0.50400000000E-02 0.  1.
         25    2    1    2    0    0 -0.52388338211E+02 -0.37895267617E+02  0.22727542356E+03  0.26732037808E+03  0.12500190835E+03 0.  0.
         23    2    1    2    0    0  0.52388338211E+02  0.37895267617E+02  0.65831642236E+02  0.13030050793E+03  0.91999064994E+02 0.  0.
        -11    1    4    4    0    0  0.32067140397E+02  0.54226960225E+02  0.39166142369E+01  0.63120555890E+02  0.51100000000E-03 0.  1.
         11    1    4    4    0    0  0.20321197814E+02 -0.16331692609E+02  0.61915027999E+02  0.67179952043E+02  0.51100000000E-03 0. -1.
    9000005    1    3    3    0    0 -0.51672809415E+02  0.37517467969E+02  0.85347338023E+02  0.10659647153E+03  0.10000000000E+01 0.  0.
    9000005    1    3    3    0    0 -0.71552879609E+00 -0.75412735586E+02  0.14192808554E+03  0.16072390654E+03  0.10000000000E+01 0.  0.
<mgrwt>
<rscale>  0 0.13305668E+03</rscale>
<asrwt>0</asrwt>
<pdfrwt beam="1">  1        1 0.53132921E-01 0.14073403E+03</pdfrwt>
<pdfrwt beam="2">  1       -1 0.80395244E-02 0.14073403E+03</pdfrwt>
<totfact> 0.59977086E+03</totfact>
</mgrwt>
</event>
<event>
 8    2  0.1409546E-003  0.1423174E+03  0.7818608E-02  0.1221744E+00
         -1   -1    0    0    0  501 -0.00000000000E+00  0.00000000000E+00  0.99298880231E+01  0.99298893022E+01  0.50400000000E-02 0.  1.
          1   -1    0    0  501    0  0.00000000000E+00 -0.00000000000E+00 -0.16332944525E+04  0.16332944525E+04  0.50400000000E-02 0. -1.
         25    2    1    2    0    0 -0.63690505538E+02 -0.23908841708E+02 -0.84547092242E+03  0.85736533730E+03  0.12500451088E+03 0.  0.
         23    2    1    2    0    0  0.63690505538E+02  0.23908841708E+02 -0.77789364208E+03  0.78585900454E+03  0.88474535369E+02 0.  0.
        -11    1    4    4    0    0  0.78913576123E+02  0.18062410636E+02 -0.42819823004E+03  0.43578357860E+03  0.51100000000E-03 0.  1.
         11    1    4    4    0    0 -0.15223070584E+02  0.58464310721E+01 -0.34969541205E+03  0.35007542593E+03  0.51100000000E-03 0. -1.
    9000005    1    3    3    0    0 -0.57826159965E+02 -0.19816736759E+02 -0.15168385332E+03  0.16354069582E+03  0.10000000000E+01 0.  0.
    9000005    1    3    3    0    0 -0.58643455732E+01 -0.40921049484E+01 -0.69378706910E+03  0.69382464148E+03  0.10000000000E+01 0.  0.
<mgrwt>
<rscale>  0 0.13392609E+03</rscale>
<asrwt>0</asrwt>
<pdfrwt beam="2">  1        1 0.25127586E+00 0.14231740E+03</pdfrwt>
<pdfrwt beam="1">  1       -1 0.15276765E-02 0.14231740E+03</pdfrwt>
<totfact> 0.58461763E+03</totfact>
</mgrwt>
</event>
<event>
 8    2  0.1409546E-003  0.1436649E+03  0.7818608E-02  0.1218279E+00
          1   -1    0    0  501    0  0.00000000000E+00  0.00000000000E+00  0.18110985586E+03  0.18110985593E+03  0.50400000000E-02 0. -1.
         -1   -1    0    0    0  501 -0.00000000000E+00 -0.00000000000E+00 -0.95747345314E+02  0.95747345446E+02  0.50400000000E-02 0.  1.
         25    2    1    2    0    0 -0.67865181652E+02 -0.20229011509E+02  0.26198778484E+02  0.14603414614E+03  0.12499880022E+03 0.  0.
         23    2    1    2    0    0  0.67865181652E+02  0.20229011509E+02  0.59163732060E+02  0.13082305524E+03  0.92733105217E+02 0.  0.
        -11    1    4    4    0    0  0.51976368496E+02  0.37064134823E+01 -0.14161422811E+02  0.53998391450E+02  0.51100000000E-03 0.  1.
         11    1    4    4    0    0  0.15888813157E+02  0.16522598027E+02  0.73325154870E+02  0.76824663788E+02  0.51100000000E-03 0. -1.
    9000005    1    3    3    0    0 -0.78495857443E+02  0.33041085848E+02  0.32873234278E+02  0.91296015913E+02  0.10000000000E+01 0.  0.
    9000005    1    3    3    0    0  0.10630675791E+02 -0.53270097357E+02 -0.66744557940E+01  0.54738130223E+02  0.10000000000E+01 0.  0.
<mgrwt>
<rscale>  0 0.13638370E+03</rscale>
<asrwt>0</asrwt>
<pdfrwt beam="1">  1        1 0.27863055E-01 0.14366487E+03</pdfrwt>
<pdfrwt beam="2">  1       -1 0.14730361E-01 0.14366487E+03</pdfrwt>
<totfact> 0.52779607E+03</totfact>
</mgrwt>
</event>
<event>
 8    2  0.1409546E-003  0.1413420E+03  0.7818608E-02  0.1222029E+00
         -1   -1    0    0    0  501 -0.00000000000E+00  0.00000000000E+00  0.94362114567E+01  0.94362128026E+01  0.50400000000E-02 0. -1.
          1   -1    0    0  501    0  0.00000000000E+00 -0.00000000000E+00 -0.20349872174E+04  0.20349872174E+04  0.50400000000E-02 0.  1.
         25    2    1    2    0    0  0.14527832515E+02 -0.64364590149E+02 -0.70525084170E+03  0.71927485076E+03  0.12499481122E+03 0.  0.
         23    2    1    2    0    0 -0.14527832515E+02  0.64364590149E+02 -0.13203001642E+04  0.13251485794E+04  0.92045507961E+02 0.  0.
        -11    1    4    4    0    0 -0.20388165581E+01  0.85942824486E+02 -0.89532307042E+03  0.89944078531E+03  0.51100000000E-03 0.  1.
         11    1    4    4    0    0 -0.12489015957E+02 -0.21578234337E+02 -0.42497709379E+03  0.42570779411E+03  0.51100000000E-03 0. -1.
    9000005    1    3    3    0    0 -0.20349789688E+01 -0.79778333464E+02 -0.68257946457E+03  0.68722954614E+03  0.10000000000E+01 0.  0.
    9000005    1    3    3    0    0  0.16562811484E+02  0.15413743315E+02 -0.22671377123E+02  0.32045304615E+02  0.10000000000E+01 0.  0.
<mgrwt>
<rscale>  0 0.13372599E+03</rscale>
<asrwt>0</asrwt>
<pdfrwt beam="2">  1        1 0.31307461E+00 0.14134200E+03</pdfrwt>
<pdfrwt beam="1">  1       -1 0.14517266E-02 0.14134200E+03</pdfrwt>
<totfact> 0.34876686E+03</totfact>
</mgrwt>
</event>
<event>
 8    2  0.1409546E-003  0.1320857E+03  0.7818608E-02  0.1236720E+00
         -1   -1    0    0    0  501 -0.00000000000E+00  0.00000000000E+00  0.95020509626E+02  0.95020509760E+02  0.50400000000E-02 0.  1.
          1   -1    0    0  501    0  0.00000000000E+00 -0.00000000000E+00 -0.43063313195E+03  0.43063313198E+03  0.50400000000E-02 0. -1.
         25    2    1    2    0    0  0.38274630384E+02  0.18884247857E+02  0.38653116917E+02  0.13762518487E+03  0.12500026366E+03 0.  0.
         23    2    1    2    0    0 -0.38274630384E+02 -0.18884247857E+02 -0.37426573924E+03  0.38802845687E+03  0.93111103639E+02 0.  0.
        -11    1    4    4    0    0  0.25702001249E+02 -0.13530935893E+02 -0.53258020743E+02  0.60663793717E+02  0.51100000000E-03 0.  1.
         11    1    4    4    0    0 -0.63976631634E+02 -0.53533119634E+01 -0.32100771850E+03  0.32736466315E+03  0.51100000000E-03 0. -1.
    9000005    1    3    3    0    0  0.63603176278E+02 -0.66086297951E+01 -0.21565641597E+02  0.67491591460E+02  0.10000000000E+01 0.  0.
    9000005    1    3    3    0    0 -0.25328545893E+02  0.25492877652E+02  0.60218758513E+02  0.70133593412E+02  0.10000000000E+01 0.  0.
<mgrwt>
<rscale>  0 0.12394961E+03</rscale>
<asrwt>0</asrwt>
<pdfrwt beam="2">  1        1 0.66251250E-01 0.13208568E+03</pdfrwt>
<pdfrwt beam="1">  1       -1 0.14618540E-01 0.13208568E+03</pdfrwt>
<totfact> 0.18105617E+03</totfact>
</mgrwt>
</event>
<event>
 8    2  0.1409546E-003  0.1396532E+03  0.7818608E-02  0.1227644E+00
          1   -1    0    0  501    0  0.00000000000E+00  0.00000000000E+00  0.94189826308E+02  0.94189826443E+02  0.50400000000E-02 0. -1.
         -1   -1    0    0    0  501 -0.00000000000E+00 -0.00000000000E+00 -0.20605577411E+03  0.20605577417E+03  0.50400000000E-02 0.  1.
         25    2    1    2    0    0 -0.56630433428E+02 -0.25889878501E+02 -0.13392068967E+03  0.19348844656E+03  0.12500294409E+03 0.  0.
         23    2    1    2    0    0  0.56630433428E+02  0.25889878501E+02  0.22054741872E+02  0.10675715406E+03  0.83865287837E+02 0.  0.
        -11    1    4    4    0    0  0.15384984248E+02  0.45709082473E+02 -0.12019729441E+02  0.49704042662E+02  0.51100000000E-03 0.  1.
         11    1    4    4    0    0  0.41245449179E+02 -0.19819203972E+02  0.34074471313E+02  0.57053111393E+02  0.51100000000E-03 0. -1.
    9000005    1    3    3    0    0  0.34668733486E+02 -0.15932427608E+02 -0.10392833718E+02  0.39557228463E+02  0.10000000000E+01 0.  0.
    9000005    1    3    3    0    0 -0.91299166914E+02 -0.99574508927E+01 -0.12352785596E+03  0.15393121810E+03  0.10000000000E+01 0.  0.
<mgrwt>
<rscale>  0 0.12987326E+03</rscale>
<asrwt>0</asrwt>
<pdfrwt beam="1">  1        1 0.14490743E-01 0.13965324E+03</pdfrwt>
<pdfrwt beam="2">  1       -1 0.31700888E-01 0.13965324E+03</pdfrwt>
<totfact> 0.34915718E+03</totfact>
</mgrwt>
</event>
<event>
 8    2  0.1409546E-003  0.1299915E+03  0.7818608E-02  0.1244180E+00
         -1   -1    0    0    0  501 -0.00000000000E+00  0.00000000000E+00  0.27903223703E+02  0.27903224158E+02  0.50400000000E-02 0.  1.
          1   -1    0    0  501    0  0.00000000000E+00 -0.00000000000E+00 -0.44438667955E+03  0.44438667958E+03  0.50400000000E-02 0. -1.
         25    2    1    2    0    0 -0.35589684639E+02 -0.24971892302E+01 -0.25655658942E+03  0.28760923100E+03  0.12499969829E+03 0.  0.
         23    2    1    2    0    0  0.35589684639E+02  0.24971892302E+01 -0.15992686642E+03  0.18468067273E+03  0.85190883732E+02 0.  0.
        -11    1    4    4    0    0 -0.73617321376E+01  0.36564899449E+02 -0.71355538377E+02  0.80515835891E+02  0.51100000000E-03 0. -1.
         11    1    4    4    0    0  0.42951416777E+02 -0.34067710219E+02 -0.88571328044E+02  0.10416483684E+03  0.51100000000E-03 0.  1.
    9000005    1    3    3    0    0 -0.81087281027E+02  0.88002606111E+01 -0.14088235953E+03  0.16279260106E+03  0.10000000000E+01 0.  0.
    9000005    1    3    3    0    0  0.45497596388E+02 -0.11297449841E+02 -0.11567422989E+03  0.12481662994E+03  0.10000000000E+01 0.  0.
<mgrwt>
<rscale>  0 0.11934577E+03</rscale>
<asrwt>0</asrwt>
<pdfrwt beam="2">  1        1 0.68367176E-01 0.12999149E+03</pdfrwt>
<pdfrwt beam="1">  1       -1 0.42928040E-02 0.12999149E+03</pdfrwt>
<totfact> 0.11053035E+04</totfact>
</mgrwt>
</event>
<event>
 8    2  0.1409546E-003  0.1381631E+03  0.7818608E-02  0.1227414E+00
         -1   -1    0    0    0  501 -0.00000000000E+00  0.00000000000E+00  0.35465579463E+03  0.35465579467E+03  0.50400000000E-02 0.  1.
          1   -1    0    0  501    0  0.00000000000E+00 -0.00000000000E+00 -0.53759655921E+02  0.53759656157E+02  0.50400000000E-02 0. -1.
         25    2    1    2    0    0 -0.19168175383E+02  0.55646830109E+02  0.25639149495E+03  0.29124841351E+03  0.12500020418E+03 0.  0.
         23    2    1    2    0    0  0.19168175383E+02 -0.55646830109E+02  0.44504643761E+02  0.11716703731E+03  0.91013530131E+02 0.  0.
        -11    1    4    4    0    0  0.43160901029E+02  0.45748113899E+01  0.14762229757E+02  0.45844472999E+02  0.51100000000E-03 0.  1.
         11    1    4    4    0    0 -0.23992725647E+02 -0.60221641499E+02  0.29742414003E+02  0.71322564310E+02  0.51100000000E-03 0. -1.
    9000005    1    3    3    0    0  0.11437635260E+02  0.17679987284E+02 -0.78857948706E+01  0.22507492340E+02  0.10000000000E+01 0.  0.
    9000005    1    3    3    0    0 -0.30605810642E+02  0.37966842824E+02  0.26427728982E+03  0.26874092117E+03  0.10000000000E+01 0.  0.
<mgrwt>
<rscale>  0 0.13002803E+03</rscale>
<asrwt>0</asrwt>
<pdfrwt beam="2">  1        1 0.82707164E-02 0.13816309E+03</pdfrwt>
<pdfrwt beam="1">  1       -1 0.54562429E-01 0.13816309E+03</pdfrwt>
<totfact> 0.27990647E+03</totfact>
</mgrwt>
</event>
<event>
 8    2  0.1409546E-003  0.1293231E+03  0.7818608E-02  0.1242465E+00
          1   -1    0    0  501    0  0.00000000000E+00  0.00000000000E+00  0.78270181669E+02  0.78270181831E+02  0.50400000000E-02 0. -1.
         -1   -1    0    0    0  501 -0.00000000000E+00 -0.00000000000E+00 -0.41770120145E+03  0.41770120148E+03  0.50400000000E-02 0.  1.
         25    2    1    2    0    0 -0.32022155238E+02 -0.86697077402E+01 -0.37177024012E+03  0.39362110957E+03  0.12499553674E+03 0.  0.
         23    2    1    2    0    0  0.32022155238E+02  0.86697077402E+01  0.32339220340E+02  0.10235027374E+03  0.91264292598E+02 0.  0.
        -11    1    4    4    0    0  0.18081363464E+02  0.13346766404E+02 -0.30459468091E+02  0.37853019362E+02  0.51100000000E-03 0.  1.
         11    1    4    4    0    0  0.13940791774E+02 -0.46770586643E+01  0.62798688430E+02  0.64497254375E+02  0.51100000000E-03 0. -1.
    9000005    1    3    3    0    0 -0.74001286052E+02 -0.21172826548E+02 -0.29836379857E+03  0.30813379434E+03  0.10000000000E+01 0.  0.
    9000005    1    3    3    0    0  0.41979130814E+02  0.12503118808E+02 -0.73406441555E+02  0.85487315232E+02  0.10000000000E+01 0.  0.
<mgrwt>
<rscale>  0 0.12038424E+03</rscale>
<asrwt>0</asrwt>
<pdfrwt beam="1">  1        1 0.12041567E-01 0.12932311E+03</pdfrwt>
<pdfrwt beam="2">  1       -1 0.64261722E-01 0.12932311E+03</pdfrwt>
<totfact> 0.12448621E+03</totfact>
</mgrwt>
</event>
<event>
 8    2  0.1409546E-003  0.1464174E+03  0.7818608E-02  0.1214609E+00
          1   -1    0    0  501    0  0.00000000000E+00  0.00000000000E+00  0.12392138719E+04  0.12392138719E+04  0.50400000000E-02 0. -1.
         -1   -1    0    0    0  501 -0.00000000000E+00 -0.00000000000E+00 -0.15734862933E+02  0.15734863740E+02  0.50400000000E-02 0.  1.
         25    2    1    2    0    0  0.44674777461E+02  0.61783810142E+02  0.47508176436E+03  0.49713252481E+03  0.12499995783E+03 0.  0.
         23    2    1    2    0    0 -0.44674777461E+02 -0.61783810142E+02  0.74839724464E+03  0.75781621087E+03  0.91509009092E+02 0.  0.
        -11    1    4    4    0    0  0.20110078746E+02 -0.49147396693E+02  0.33503542620E+03  0.33921765679E+03  0.51100000000E-03 0. -1.
         11    1    4    4    0    0 -0.64784856207E+02 -0.12636413449E+02  0.41336181844E+03  0.41859855408E+03  0.51100000000E-03 0.  1.
    9000005    1    3    3    0    0  0.51718536116E+02  0.96903272196E+02  0.37853104172E+03  0.39414692779E+03  0.10000000000E+01 0.  0.
    9000005    1    3    3    0    0 -0.70437586554E+01 -0.35119462053E+02  0.96550722642E+02  0.10298559702E+03  0.10000000000E+01 0.  0.
<mgrwt>
<rscale>  0 0.13905314E+03</rscale>
<asrwt>0</asrwt>
<pdfrwt beam="1">  1        1 0.19064828E+00 0.14641743E+03</pdfrwt>
<pdfrwt beam="2">  1       -1 0.24207484E-02 0.14641743E+03</pdfrwt>
<totfact> 0.54628856E+03</totfact>
</mgrwt>
</event>
<event>
 8    2  0.1409546E-003  0.1347962E+03  0.7818608E-02  0.1232717E+00
          1   -1    0    0  501    0  0.00000000000E+00  0.00000000000E+00  0.31882267834E+03  0.31882267838E+03  0.50400000000E-02 0. -1.
         -1   -1    0    0    0  501 -0.00000000000E+00 -0.00000000000E+00 -0.44962416063E+02  0.44962416346E+02  0.50400000000E-02 0.  1.
         25    2    1    2    0    0 -0.39780233677E+02 -0.31001309933E+02  0.15800715015E+03  0.20769271541E+03  0.12500582518E+03 0.  0.
         23    2    1    2    0    0  0.39780233677E+02  0.31001309933E+02  0.11585311213E+03  0.15609237931E+03  0.91647908212E+02 0.  0.
        -11    1    4    4    0    0  0.24585907923E+02  0.51439114776E+02  0.25929657837E+02  0.62632232541E+02  0.51100000000E-03 0.  1.
         11    1    4    4    0    0  0.15194325754E+02 -0.20437804843E+02  0.89923454290E+02  0.93460146766E+02  0.51100000000E-03 0. -1.
    9000005    1    3    3    0    0  0.92066213367E+01 -0.70096026880E+02  0.98602490097E+02  0.12133287236E+03  0.10000000000E+01 0.  0.
    9000005    1    3    3    0    0 -0.48986855014E+02  0.39094716948E+02  0.59404660049E+02  0.86359843057E+02  0.10000000000E+01 0.  0.
<mgrwt>
<rscale>  0 0.12651722E+03</rscale>
<asrwt>0</asrwt>
<pdfrwt beam="1">  1        1 0.49049644E-01 0.13479616E+03</pdfrwt>
<pdfrwt beam="2">  1       -1 0.69172946E-02 0.13479616E+03</pdfrwt>
<totfact> 0.82832109E+03</totfact>
</mgrwt>
</event>
<event>
 8    2  0.1409546E-003  0.1536354E+03  0.7818608E-02  0.1204939E+00
          1   -1    0    0  501    0  0.00000000000E+00  0.00000000000E+00  0.33577086887E+04  0.33577086887E+04  0.50400000000E-02 0. -1.
         -1   -1    0    0    0  501 -0.00000000000E+00 -0.00000000000E+00 -0.58675415344E+01  0.58675436990E+01  0.50400000000E-02 0.  1.
         25    2    1    2    0    0 -0.79361761255E+02 -0.40999730815E+02  0.17544193004E+04  0.17611334214E+04  0.12499831797E+03 0.  0.
         23    2    1    2    0    0  0.79361761255E+02  0.40999730815E+02  0.15974218468E+04  0.16024428110E+04  0.89928520159E+02 0.  0.
        -11    1    4    4    0    0  0.74361675823E+02  0.59603065477E+02  0.95747376083E+03  0.96220485705E+03  0.51100000000E-03 0.  1.
         11    1    4    4    0    0  0.50000854317E+01 -0.18603334662E+02  0.63994808598E+03  0.64023795394E+03  0.51100000000E-03 0. -1.
    9000005    1    3    3    0    0 -0.41759548241E+02  0.44008772804E+02  0.69292313067E+03  0.69557465234E+03  0.10000000000E+01 0.  0.
    9000005    1    3    3    0    0 -0.37602213014E+02 -0.85008503618E+02  0.10614961697E+04  0.10655587691E+04  0.10000000000E+01 0.  0.
<mgrwt>
<rscale>  0 0.14642269E+03</rscale>
<asrwt>0</asrwt>
<pdfrwt beam="1">  1        1 0.51657155E+00 0.15363543E+03</pdfrwt>
<pdfrwt beam="2">  1       -1 0.90269715E-03 0.15363543E+03</pdfrwt>
<totfact> 0.89174679E+02</totfact>
</mgrwt>
</event>
<event>
 8    2  0.1409546E-003  0.1431669E+03  0.7818608E-02  0.1220405E+00
          1   -1    0    0  501    0  0.00000000000E+00  0.00000000000E+00  0.23466118004E+03  0.23466118010E+03  0.50400000000E-02 0. -1.
         -1   -1    0    0    0  501 -0.00000000000E+00 -0.00000000000E+00 -0.15204896164E+03  0.15204896173E+03  0.50400000000E-02 0.  1.
         25    2    1    2    0    0  0.41900529395E+02  0.55816439366E+02 -0.98211122182E+02  0.17361506346E+03  0.12500254586E+03 0.  0.
         23    2    1    2    0    0 -0.41900529395E+02 -0.55816439366E+02  0.18082334058E+03  0.21309507837E+03  0.88551130187E+02 0.  0.
        -11    1    4    4    0    0 -0.62909831502E+02 -0.27362704885E+02  0.75602823295E+02  0.10208893872E+03  0.51100000000E-03 0. -1.
         11    1    4    4    0    0  0.21009302107E+02 -0.28453734480E+02  0.10522051729E+03  0.11100613965E+03  0.51100000000E-03 0.  1.
    9000005    1    3    3    0    0 -0.70270391050E+00 -0.21042520522E+02  0.18136420643E+02  0.27806675753E+02  0.10000000000E+01 0.  0.
    9000005    1    3    3    0    0  0.42603233306E+02  0.76858959887E+02 -0.11634754283E+03  0.14580838770E+03  0.10000000000E+01 0.  0.
<mgrwt>
<rscale>  0 0.13486852E+03</rscale>
<asrwt>0</asrwt>
<pdfrwt beam="1">  1        1 0.36101720E-01 0.14316692E+03</pdfrwt>
<pdfrwt beam="2">  1       -1 0.23392148E-01 0.14316692E+03</pdfrwt>
<totfact> 0.18260432E+03</totfact>
</mgrwt>
</event>
<event>
 8    2  0.1409546E-003  0.1255505E+03  0.7818608E-02  0.1247319E+00
          1   -1    0    0  501    0  0.00000000000E+00  0.00000000000E+00  0.37068433140E+04  0.37068433140E+04  0.50400000000E-02 0. -1.
         -1   -1    0    0    0  501 -0.00000000000E+00 -0.00000000000E+00 -0.33801463217E+01  0.33801500791E+01  0.50400000000E-02 0.  1.
         25    2    1    2    0    0 -0.11313196283E+02  0.31907938581E+01  0.23422473428E+04  0.23456098432E+04  0.12499900878E+03 0.  0.
         23    2    1    2    0    0  0.11313196283E+02 -0.31907938581E+01  0.13612158249E+04  0.13646136209E+04  0.95517761491E+02 0.  0.
        -11    1    4    4    0    0 -0.83531428746E+01 -0.49616513481E+01  0.13049037793E+04  0.13049399473E+04  0.51100000000E-03 0. -1.
         11    1    4    4    0    0  0.19666339157E+02  0.17708574900E+01  0.56312045651E+02  0.59673673574E+02  0.51100000000E-03 0.  1.
    9000005    1    3    3    0    0 -0.44988528140E+02  0.37037885886E+02  0.62831233969E+03  0.63100964244E+03  0.10000000000E+01 0.  0.
    9000005    1    3    3    0    0  0.33675331857E+02 -0.33847092028E+02  0.17139350031E+04  0.17146002007E+04  0.10000000000E+01 0.  0.
<mgrwt>
<rscale>  0 0.11747644E+03</rscale>
<asrwt>0</asrwt>
<pdfrwt beam="1">  1        1 0.57028105E+00 0.12555047E+03</pdfrwt>
<pdfrwt beam="2">  1       -1 0.52002511E-03 0.12555047E+03</pdfrwt>
<totfact> 0.10754337E+03</totfact>
</mgrwt>
</event>
<event>
 8    2  0.1409546E-003  0.1297284E+03  0.7818608E-02  0.1242312E+00
          1   -1    0    0  501    0  0.00000000000E+00  0.00000000000E+00  0.63290578715E+02  0.63290578915E+02  0.50400000000E-02 0. -1.
         -1   -1    0    0    0  501 -0.00000000000E+00 -0.00000000000E+00 -0.30338023444E+03  0.30338023448E+03  0.50400000000E-02 0.  1.
         25    2    1    2    0    0 -0.25539992272E+02 -0.23505467069E+02 -0.23693253739E+03  0.27012308325E+03  0.12499861855E+03 0.  0.
         23    2    1    2    0    0  0.25539992272E+02  0.23505467069E+02 -0.31571183324E+01  0.96547730153E+02  0.90037206832E+02 0.  0.
        -11    1    4    4    0    0 -0.19360409364E+02 -0.16678895091E+01  0.29690718838E+02  0.35484448587E+02  0.51100000000E-03 0. -1.
         11    1    4    4    0    0  0.44900401637E+02  0.25173356578E+02 -0.32847837170E+02  0.61063281566E+02  0.51100000000E-03 0.  1.
    9000005    1    3    3    0    0 -0.72395600331E+02 -0.13755371491E+02 -0.18677221949E+03  0.20078644169E+03  0.10000000000E+01 0.  0.
    9000005    1    3    3    0    0  0.46855608059E+02 -0.97500955775E+01 -0.50160317901E+02  0.69336641556E+02  0.10000000000E+01 0.  0.
<mgrwt>
<rscale>  0 0.12047687E+03</rscale>
<asrwt>0</asrwt>
<pdfrwt beam="1">  1        1 0.97370123E-02 0.12972838E+03</pdfrwt>
<pdfrwt beam="2">  1       -1 0.46673881E-01 0.12972838E+03</pdfrwt>
<totfact> 0.29861406E+03</totfact>
</mgrwt>
</event>
<event>
 8    2  0.1409546E-003  0.1325397E+03  0.7818608E-02  0.1236719E+00
         -1   -1    0    0    0  501 -0.00000000000E+00  0.00000000000E+00  0.30677990488E+02  0.30677990902E+02  0.50400000000E-02 0.  1.
          1   -1    0    0  501    0  0.00000000000E+00 -0.00000000000E+00 -0.44811161898E+03  0.44811161900E+03  0.50400000000E-02 0. -1.
         25    2    1    2    0    0  0.23214612042E+02  0.37420530922E+02 -0.25300146495E+03  0.28561600637E+03  0.12501018952E+03 0.  0.
         23    2    1    2    0    0 -0.23214612042E+02 -0.37420530922E+02 -0.16443216354E+03  0.19317360353E+03  0.91317524870E+02 0.  0.
        -11    1    4    4    0    0 -0.61655209498E+01 -0.63859345110E+02 -0.76832279488E+02  0.10009609772E+03  0.51100000000E-03 0.  1.
         11    1    4    4    0    0 -0.17049091093E+02  0.26438814188E+02 -0.87599884053E+02  0.93077505817E+02  0.51100000000E-03 0. -1.
    9000005    1    3    3    0    0 -0.49513702041E+02  0.22022698719E+02 -0.73466113696E+02  0.91295541021E+02  0.10000000000E+01 0.  0.
    9000005    1    3    3    0    0  0.72728314084E+02  0.15397832202E+02 -0.17953535125E+03  0.19432046535E+03  0.10000000000E+01 0.  0.
<mgrwt>
<rscale>  0 0.12395057E+03</rscale>
<asrwt>0</asrwt>
<pdfrwt beam="2">  1        1 0.68940244E-01 0.13253966E+03</pdfrwt>
<pdfrwt beam="1">  1       -1 0.47196912E-02 0.13253966E+03</pdfrwt>
<totfact> 0.95245118E+03</totfact>
</mgrwt>
</event>
<event>
 8    2  0.1409546E-003  0.1459425E+03  0.7818608E-02  0.1214670E+00
          1   -1    0    0  501    0  0.00000000000E+00  0.00000000000E+00  0.22458803154E+03  0.22458803160E+03  0.50400000000E-02 0. -1.
         -1   -1    0    0    0  501 -0.00000000000E+00 -0.00000000000E+00 -0.87166901635E+02  0.87166901781E+02  0.50400000000E-02 0.  1.
         25    2    1    2    0    0 -0.53607605525E+02 -0.52921021542E+02  0.26649078058E+02  0.14835565622E+03  0.12499926992E+03 0.  0.
         23    2    1    2    0    0  0.53607605525E+02  0.52921021542E+02  0.11077205185E+03  0.16339927716E+03  0.93565305612E+02 0.  0.
        -11    1    4    4    0    0 -0.80011450525E+01 -0.49897501824E+01  0.67985830792E+02  0.68636645590E+02  0.51100000000E-03 0. -1.
         11    1    4    4    0    0  0.61608750577E+02  0.57910771724E+02  0.42786221054E+02  0.94762631568E+02  0.51100000000E-03 0.  1.
    9000005    1    3    3    0    0  0.87517127408E+01 -0.47944644189E+02 -0.35395510486E+02  0.60242207338E+02  0.10000000000E+01 0.  0.
    9000005    1    3    3    0    0 -0.62359318265E+02 -0.49763773524E+01  0.62044588545E+02  0.88113448881E+02  0.10000000000E+01 0.  0.
<mgrwt>
<rscale>  0 0.13900823E+03</rscale>
<asrwt>0</asrwt>
<pdfrwt beam="1">  1        1 0.34552005E-01 0.14594255E+03</pdfrwt>
<pdfrwt beam="2">  1       -1 0.13410293E-01 0.14594255E+03</pdfrwt>
<totfact> 0.46798015E+03</totfact>
</mgrwt>
</event>
<event>
 8    2  0.1409546E-003  0.1268071E+03  0.7818608E-02  0.1246156E+00
         -1   -1    0    0    0  501 -0.00000000000E+00  0.00000000000E+00  0.28006543427E+03  0.28006543432E+03  0.50400000000E-02 0.  1.
          1   -1    0    0  501    0  0.00000000000E+00 -0.00000000000E+00 -0.60155923139E+02  0.60155923351E+02  0.50400000000E-02 0. -1.
         25    2    1    2    0    0  0.97093918166E+01  0.18999878261E+02  0.34191888371E+02  0.13133589711E+03  0.12499905990E+03 0.  0.
         23    2    1    2    0    0 -0.97093918166E+01 -0.18999878261E+02  0.18571762276E+03  0.20888546056E+03  0.93203178937E+02 0.  0.
        -11    1    4    4    0    0  0.11572967053E+02  0.21586604300E+00  0.17907972509E+03  0.17945341486E+03  0.51100000000E-03 0.  1.
         11    1    4    4    0    0 -0.21282358870E+02 -0.19215744304E+02  0.66378976686E+01  0.29432045698E+02  0.51100000000E-03 0. -1.
    9000005    1    3    3    0    0  0.38479129102E+02  0.23920422061E+02 -0.34327322520E+02  0.56852396954E+02  0.10000000000E+01 0.  0.
    9000005    1    3    3    0    0 -0.28769737285E+02 -0.49205437994E+01  0.68519210891E+02  0.74483500158E+02  0.10000000000E+01 0.  0.
<mgrwt>
<rscale>  0 0.11816486E+03</rscale>
<asrwt>0</asrwt>
<pdfrwt beam="2">  1        1 0.92547574E-02 0.12680707E+03</pdfrwt>
<pdfrwt beam="1">  1       -1 0.43086990E-01 0.12680707E+03</pdfrwt>
<totfact> 0.36798436E+03</totfact>
</mgrwt>
</event>
<event>
 8    2  0.1409546E-003  0.1664813E+03  0.7818608E-02  0.1189740E+00
          1   -1    0    0  501    0  0.00000000000E+00  0.00000000000E+00  0.23269204314E+03  0.23269204320E+03  0.50400000000E-02 0. -1.
         -1   -1    0    0    0  501 -0.00000000000E+00 -0.00000000000E+00 -0.11643375226E+03  0.11643375237E+03  0.50400000000E-02 0.  1.
         25    2    1    2    0    0 -0.86179700600E+02  0.68307231015E+02 -0.24416162757E+01  0.16649924149E+03  0.12499286909E+03 0.  0.
         23    2    1    2    0    0  0.86179700600E+02 -0.68307231015E+02  0.11869990716E+03  0.18262655408E+03  0.84675685356E+02 0.  0.
        -11    1    4    4    0    0  0.37643512165E+02 -0.62788735322E+02  0.25718646942E+02  0.77594510710E+02  0.51100000000E-03 0. -1.
         11    1    4    4    0    0  0.48536188434E+02 -0.55184956936E+01  0.92981260217E+02  0.10503204337E+03  0.51100000000E-03 0.  1.
    9000005    1    3    3    0    0 -0.18252378362E+02 -0.80488877379E+01  0.48392591965E+02  0.52352429425E+02  0.10000000000E+01 0.  0.
    9000005    1    3    3    0    0 -0.67927322238E+02  0.76356118753E+02 -0.50834208240E+02  0.11414681207E+03  0.10000000000E+01 0.  0.
<mgrwt>
<rscale>  0 0.15907945E+03</rscale>
<asrwt>0</asrwt>
<pdfrwt beam="1">  1        1 0.35798776E-01 0.16648134E+03</pdfrwt>
<pdfrwt beam="2">  1       -1 0.17912885E-01 0.16648134E+03</pdfrwt>
<totfact> 0.28551332E+03</totfact>
</mgrwt>
</event>
<event>
 8    2  0.1409546E-003  0.1305552E+03  0.7818608E-02  0.1242283E+00
         -1   -1    0    0    0  501 -0.00000000000E+00  0.00000000000E+00  0.69111992454E+01  0.69112010831E+01  0.50400000000E-02 0.  1.
          1   -1    0    0  501    0  0.00000000000E+00 -0.00000000000E+00 -0.20952859976E+04  0.20952859977E+04  0.50400000000E-02 0. -1.
         25    2    1    2    0    0  0.72387109346E+01 -0.37015760888E+02 -0.15553622587E+04  0.15608319641E+04  0.12498839608E+03 0.  0.
         23    2    1    2    0    0 -0.72387109346E+01  0.37015760888E+02 -0.53301253975E+03  0.54136523460E+03  0.86898700842E+02 0.  0.
        -11    1    4    4    0    0  0.24252243203E+02  0.20101796007E+02 -0.44848860819E+03  0.44959346657E+03  0.51100000000E-03 0. -1.
         11    1    4    4    0    0 -0.31490954138E+02  0.16913964882E+02 -0.84523931558E+02  0.91771768027E+02  0.51100000000E-03 0.  1.
    9000005    1    3    3    0    0 -0.35989087154E+01 -0.19279981679E+02 -0.33532786095E+02  0.38860231352E+02  0.10000000000E+01 0.  0.
    9000005    1    3    3    0    0  0.10837619650E+02 -0.17735779209E+02 -0.15218294726E+04  0.15219717328E+04  0.10000000000E+01 0.  0.
<mgrwt>
<rscale>  0 0.12049489E+03</rscale>
<asrwt>0</asrwt>
<pdfrwt beam="2">  1        1 0.32235119E+00 0.13055522E+03</pdfrwt>
<pdfrwt beam="1">  1       -1 0.10632632E-02 0.13055522E+03</pdfrwt>
<totfact> 0.49771458E+03</totfact>
</mgrwt>
</event>
<event>
 8    2  0.1409546E-003  0.1521205E+03  0.7818608E-02  0.1206376E+00
          1   -1    0    0  501    0  0.00000000000E+00  0.00000000000E+00  0.46805778008E+02  0.46805778280E+02  0.50400000000E-02 0. -1.
         -1   -1    0    0    0  501 -0.00000000000E+00 -0.00000000000E+00 -0.42083885712E+03  0.42083885715E+03  0.50400000000E-02 0.  1.
         25    2    1    2    0    0  0.67682526845E+02  0.54172782632E+02 -0.17634360569E+03  0.23288988684E+03  0.12500006923E+03 0.  0.
         23    2    1    2    0    0 -0.67682526845E+02 -0.54172782632E+02 -0.19768947343E+03  0.23475474860E+03  0.92266187012E+02 0.  0.
        -11    1    4    4    0    0 -0.50493986733E+02  0.19817812004E+01 -0.15249999249E+03  0.16065434281E+03  0.51100000000E-03 0.  1.
         11    1    4    4    0    0 -0.17188540112E+02 -0.56154563832E+02 -0.45189480938E+02  0.74100405789E+02  0.51100000000E-03 0. -1.
    9000005    1    3    3    0    0  0.73038655079E+02 -0.34149588440E+01 -0.15472917785E+03  0.17113861504E+03  0.10000000000E+01 0.  0.
    9000005    1    3    3    0    0 -0.53561282340E+01  0.57587741476E+02 -0.21614427838E+02  0.61751271799E+02  0.10000000000E+01 0.  0.
<mgrwt>
<rscale>  0 0.14529574E+03</rscale>
<asrwt>0</asrwt>
<pdfrwt beam="1">  1        1 0.72008892E-02 0.15212045E+03</pdfrwt>
<pdfrwt beam="2">  1       -1 0.64744437E-01 0.15212045E+03</pdfrwt>
<totfact> 0.24486911E+03</totfact>
</mgrwt>
</event>
<event>
 8    2  0.1409546E-003  0.1262946E+03  0.7818608E-02  0.1248432E+00
         -1   -1    0    0    0  501 -0.00000000000E+00  0.00000000000E+00  0.98039646450E+01  0.98039659404E+01  0.50400000000E-02 0.  1.
          1   -1    0    0  501    0  0.00000000000E+00 -0.00000000000E+00 -0.12206947075E+04  0.12206947075E+04  0.50400000000E-02 0. -1.
         25    2    1    2    0    0  0.10106062215E+02  0.14947498357E+02 -0.68789141297E+03  0.69938896674E+03  0.12499908225E+03 0.  0.
         23    2    1    2    0    0 -0.10106062215E+02 -0.14947498357E+02 -0.52299932985E+03  0.53110970668E+03  0.90684404937E+02 0.  0.
        -11    1    4    4    0    0 -0.65565888715E+01 -0.49661726341E+02 -0.40417841559E+03  0.40727075460E+03  0.51100000000E-03 0. -1.
         11    1    4    4    0    0 -0.35494733439E+01  0.34714227985E+02 -0.11882091426E+03  0.12383895207E+03  0.51100000000E-03 0.  1.
    9000005    1    3    3    0    0 -0.57083604383E+01  0.47550509291E+02 -0.10544655272E+03  0.11581714810E+03  0.10000000000E+01 0.  0.
    9000005    1    3    3    0    0  0.15814422654E+02 -0.32603010934E+02 -0.58244486024E+03  0.58357181864E+03  0.10000000000E+01 0.  0.
<mgrwt>
<rscale>  0 0.11682330E+03</rscale>
<asrwt>0</asrwt>
<pdfrwt beam="2">  1        1 0.18779907E+00 0.12629462E+03</pdfrwt>
<pdfrwt beam="1">  1       -1 0.15083033E-02 0.12629462E+03</pdfrwt>
<totfact> 0.11045093E+04</totfact>
</mgrwt>
</event>
<event>
 8    2  0.1409546E-003  0.1778609E+03  0.7818608E-02  0.1175387E+00
          1   -1    0    0  501    0  0.00000000000E+00  0.00000000000E+00  0.79851638141E+02  0.79851638300E+02  0.50400000000E-02 0. -1.
         -1   -1    0    0    0  501 -0.00000000000E+00 -0.00000000000E+00 -0.35318782087E+03  0.35318782091E+03  0.50400000000E-02 0.  1.
         25    2    1    2    0    0 -0.93626703406E+02 -0.85114887308E+02 -0.16244691465E+03  0.24088067174E+03  0.12499597717E+03 0.  0.
         23    2    1    2    0    0  0.93626703406E+02  0.85114887308E+02 -0.11088926808E+03  0.19215878746E+03  0.92833540230E+02 0.  0.
        -11    1    4    4    0    0  0.19400025339E+02  0.49409890400E+02  0.11571502437E+01  0.53094606594E+02  0.51100000000E-03 0. -1.
         11    1    4    4    0    0  0.74226678067E+02  0.35704996908E+02 -0.11204641832E+03  0.13906418087E+03  0.51100000000E-03 0.  1.
    9000005    1    3    3    0    0  0.14523773104E+02 -0.51350422552E+02 -0.95153020931E+02  0.10910042747E+03  0.10000000000E+01 0.  0.
    9000005    1    3    3    0    0 -0.10815047651E+03 -0.33764464756E+02 -0.67293893720E+02  0.13178024428E+03  0.10000000000E+01 0.  0.
<mgrwt>
<rscale>  0 0.17238134E+03</rscale>
<asrwt>0</asrwt>
<pdfrwt beam="1">  1        1 0.12284868E-01 0.17786089E+03</pdfrwt>
<pdfrwt beam="2">  1       -1 0.54336587E-01 0.17786089E+03</pdfrwt>
<totfact> 0.16840219E+03</totfact>
</mgrwt>
</event>
<event>
 8    2  0.1409546E-003  0.1319277E+03  0.7818608E-02  0.1236799E+00
          1   -1    0    0  501    0  0.00000000000E+00  0.00000000000E+00  0.26824676426E+03  0.26824676431E+03  0.50400000000E-02 0. -1.
         -1   -1    0    0    0  501 -0.00000000000E+00 -0.00000000000E+00 -0.69576783592E+02  0.69576783774E+02  0.50400000000E-02 0.  1.
         25    2    1    2    0    0  0.40959599281E+02 -0.10173783958E+02  0.22346472508E+02  0.13380687915E+03  0.12499488558E+03 0.  0.
         23    2    1    2    0    0 -0.40959599281E+02  0.10173783958E+02  0.17632350817E+03  0.20401666893E+03  0.93550131044E+02 0.  0.
        -11    1    4    4    0    0 -0.11233724286E+01  0.13516678550E+02  0.16042129680E+03  0.16099364904E+03  0.51100000000E-03 0. -1.
         11    1    4    4    0    0 -0.39836226852E+02 -0.33428945920E+01  0.15902211364E+02  0.43023019891E+02  0.51100000000E-03 0.  1.
    9000005    1    3    3    0    0 -0.55283885231E+01 -0.31621536282E+02 -0.41172657202E+02  0.52217548177E+02  0.10000000000E+01 0.  0.
    9000005    1    3    3    0    0  0.46487987804E+02  0.21447752324E+02  0.63519129710E+02  0.81589330975E+02  0.10000000000E+01 0.  0.
<mgrwt>
<rscale>  0 0.12389965E+03</rscale>
<asrwt>0</asrwt>
<pdfrwt beam="1">  1        1 0.41268734E-01 0.13192769E+03</pdfrwt>
<pdfrwt beam="2">  1       -1 0.10704120E-01 0.13192769E+03</pdfrwt>
<totfact> 0.52884865E+03</totfact>
</mgrwt>
</event>
<event>
 8    2  0.1409546E-003  0.3227296E+03  0.7818608E-02  0.1075722E+00
         -1   -1    0    0    0  501 -0.00000000000E+00  0.00000000000E+00  0.30424181091E+03  0.30424181096E+03  0.50400000000E-02 0.  1.
          1   -1    0    0  501    0  0.00000000000E+00 -0.00000000000E+00 -0.41174746657E+03  0.41174746660E+03  0.50400000000E-02 0. -1.
         25    2    1    2    0    0 -0.24797354901E+03  0.16443437676E+03 -0.21367141089E+03  0.38705281342E+03  0.12499945309E+03 0.  0.
         23    2    1    2    0    0  0.24797354901E+03 -0.16443437676E+03  0.10616575524E+03  0.32893646413E+03  0.91643246221E+02 0.  0.
        -11    1    4    4    0    0  0.64075338302E+02 -0.82014458861E+02  0.66611286063E+02  0.12356813453E+03  0.51100000000E-03 0.  1.
         11    1    4    4    0    0  0.18389821071E+03 -0.82419917899E+02  0.39554469179E+02  0.20536832960E+03  0.51100000000E-03 0. -1.
    9000005    1    3    3    0    0 -0.34598704193E+02  0.90515180426E+02 -0.63293093731E+02  0.11574577285E+03  0.10000000000E+01 0.  0.
    9000005    1    3    3    0    0 -0.21337484482E+03  0.73919196333E+02 -0.15037831716E+03  0.27130704057E+03  0.10000000000E+01 0.  0.
<mgrwt>
<rscale>  0 0.31984185E+03</rscale>
<asrwt>0</asrwt>
<pdfrwt beam="2">  1        1 0.63345765E-01 0.32272962E+03</pdfrwt>
<pdfrwt beam="1">  1       -1 0.46806432E-01 0.32272962E+03</pdfrwt>
<totfact> 0.27189102E+02</totfact>
</mgrwt>
</event>
<event>
 8    2  0.1409546E-003  0.1537180E+03  0.7818608E-02  0.1204544E+00
          1   -1    0    0  501    0  0.00000000000E+00  0.00000000000E+00  0.18128193869E+04  0.18128193869E+04  0.50400000000E-02 0. -1.
         -1   -1    0    0    0  501 -0.00000000000E+00 -0.00000000000E+00 -0.11147633407E+02  0.11147634546E+02  0.50400000000E-02 0.  1.
         25    2    1    2    0    0 -0.89068368344E+02  0.84722210700E+01  0.85180500111E+03  0.86556396055E+03  0.12499702843E+03 0.  0.
         23    2    1    2    0    0  0.89068368344E+02 -0.84722210700E+01  0.94986675239E+03  0.95840306091E+03  0.91019926921E+02 0.  0.
        -11    1    4    4    0    0  0.57654967725E+02 -0.49245005585E+02  0.53116372138E+03  0.53654828748E+03  0.51100000000E-03 0.  1.
         11    1    4    4    0    0  0.31413400619E+02  0.40772784515E+02  0.41870303101E+03  0.42185477344E+03  0.51100000000E-03 0. -1.
    9000005    1    3    3    0    0 -0.79164514271E+01  0.41097028157E+02  0.96221494966E+02  0.10493432241E+03  0.10000000000E+01 0.  0.
    9000005    1    3    3    0    0 -0.81151916917E+02 -0.32624807087E+02  0.75558350615E+03  0.76062963814E+03  0.10000000000E+01 0.  0.
<mgrwt>
<rscale>  0 0.14673448E+03</rscale>
<asrwt>0</asrwt>
<pdfrwt beam="1">  1        1 0.27889536E+00 0.15371796E+03</pdfrwt>
<pdfrwt beam="2">  1       -1 0.17150202E-02 0.15371796E+03</pdfrwt>
<totfact> 0.38059457E+03</totfact>
</mgrwt>
</event>
<event>
 8    2  0.1409546E-003  0.1356600E+03  0.7818608E-02  0.1231143E+00
          1   -1    0    0  501    0  0.00000000000E+00  0.00000000000E+00  0.19330740662E+03  0.19330740669E+03  0.50400000000E-02 0. -1.
         -1   -1    0    0    0  501 -0.00000000000E+00 -0.00000000000E+00 -0.81823049525E+02  0.81823049680E+02  0.50400000000E-02 0.  1.
         25    2    1    2    0    0  0.48331791411E+02  0.21060666648E+02  0.99945953807E+02  0.16850171451E+03  0.12499648143E+03 0.  0.
         23    2    1    2    0    0 -0.48331791411E+02 -0.21060666648E+02  0.11538403291E+02  0.10662874186E+03  0.91962166673E+02 0.  0.
        -11    1    4    4    0    0  0.23464841460E+02  0.57394419245E+01  0.17397873466E+02  0.29769547859E+02  0.51100000000E-03 0.  1.
         11    1    4    4    0    0 -0.71796632871E+02 -0.26800108572E+02 -0.58594701753E+01  0.76859193999E+02  0.51100000000E-03 0. -1.
    9000005    1    3    3    0    0 -0.27758679670E+02  0.30045110571E+02  0.79155359012E+02  0.89105689081E+02  0.10000000000E+01 0.  0.
    9000005    1    3    3    0    0  0.76090471081E+02 -0.89844439228E+01  0.20790594795E+02  0.79396025429E+02  0.10000000000E+01 0.  0.
<mgrwt>
<rscale>  0 0.12754634E+03</rscale>
<asrwt>0</asrwt>
<pdfrwt beam="1">  1        1 0.29739601E-01 0.13565999E+03</pdfrwt>
<pdfrwt beam="2">  1       -1 0.12588162E-01 0.13565999E+03</pdfrwt>
<totfact> 0.61930113E+03</totfact>
</mgrwt>
</event>
<event>
 8    2  0.1409546E-003  0.1557083E+03  0.7818608E-02  0.1198741E+00
          1   -1    0    0  501    0  0.00000000000E+00  0.00000000000E+00  0.26466357018E+03  0.26466357023E+03  0.50400000000E-02 0. -1.
         -1   -1    0    0    0  501 -0.00000000000E+00 -0.00000000000E+00 -0.82693083266E+02  0.82693083419E+02  0.50400000000E-02 0.  1.
         25    2    1    2    0    0 -0.92266249114E+02  0.10338760616E+02  0.10974070597E+03  0.19049433763E+03  0.12500047770E+03 0.  0.
         23    2    1    2    0    0  0.92266249114E+02 -0.10338760616E+02  0.72229780943E+02  0.15686231602E+03  0.10377231921E+03 0.  0.
        -11    1    4    4    0    0 -0.75523148549E+01  0.17178749210E+02 -0.12937895704E+02  0.22793333008E+02  0.51100000000E-03 0.  1.
         11    1    4    4    0    0  0.99818563969E+02 -0.27517509826E+02  0.85167676648E+02  0.13406898301E+03  0.51100000000E-03 0. -1.
    9000005    1    3    3    0    0 -0.48963444108E+02  0.55887256442E+02  0.13468089705E+02  0.75519492397E+02  0.10000000000E+01 0.  0.
    9000005    1    3    3    0    0 -0.43302805006E+02 -0.45548495826E+02  0.96272616263E+02  0.11497484523E+03  0.10000000000E+01 0.  0.
<mgrwt>
<rscale>  0 0.15141790E+03</rscale>
<asrwt>0</asrwt>
<pdfrwt beam="1">  1        1 0.40717472E-01 0.15570829E+03</pdfrwt>
<pdfrwt beam="2">  1       -1 0.12722013E-01 0.15570829E+03</pdfrwt>
<totfact> 0.41577000E+03</totfact>
</mgrwt>
</event>
<event>
 8    2  0.1409546E-003  0.1629347E+03  0.7818608E-02  0.1192725E+00
          1   -1    0    0  501    0  0.00000000000E+00  0.00000000000E+00  0.44175195505E+02  0.44175195793E+02  0.50400000000E-02 0. -1.
         -1   -1    0    0    0  501 -0.00000000000E+00 -0.00000000000E+00 -0.56996275198E+03  0.56996275200E+03  0.50400000000E-02 0.  1.
         25    2    1    2    0    0 -0.10024109038E+03  0.29577512495E+02 -0.37742047791E+03  0.41108872113E+03  0.12499845615E+03 0.  0.
         23    2    1    2    0    0  0.10024109038E+03 -0.29577512495E+02 -0.14836707856E+03  0.20304922667E+03  0.91066420832E+02 0.  0.
        -11    1    4    4    0    0  0.41534271470E+02  0.32165529939E+02 -0.45643350255E+02  0.69591899281E+02  0.51100000000E-03 0.  1.
         11    1    4    4    0    0  0.58706818914E+02 -0.61743042434E+02 -0.10272372830E+03  0.13345732738E+03  0.51100000000E-03 0. -1.
    9000005    1    3    3    0    0 -0.21315807273E+02  0.50021695908E+02 -0.27424202015E+03  0.27958222282E+03  0.10000000000E+01 0.  0.
    9000005    1    3    3    0    0 -0.78925283112E+02 -0.20444183414E+02 -0.10317845776E+03  0.13150649830E+03  0.10000000000E+01 0.  0.
<mgrwt>
<rscale>  0 0.15648353E+03</rscale>
<asrwt>0</asrwt>
<pdfrwt beam="1">  1        1 0.67961843E-02 0.16293471E+03</pdfrwt>
<pdfrwt beam="2">  1       -1 0.87686572E-01 0.16293471E+03</pdfrwt>
<totfact> 0.14382813E+03</totfact>
</mgrwt>
</event>
<event>
 8    2  0.1409546E-003  0.1306551E+03  0.7818608E-02  0.1240195E+00
         -1   -1    0    0    0  501 -0.00000000000E+00  0.00000000000E+00  0.58266097384E+02  0.58266097602E+02  0.50400000000E-02 0.  1.
          1   -1    0    0  501    0  0.00000000000E+00 -0.00000000000E+00 -0.37629324936E+03  0.37629324939E+03  0.50400000000E-02 0. -1.
         25    2    1    2    0    0 -0.18004851873E+02 -0.33500685644E+02 -0.35603897522E+02  0.13541929280E+03  0.12499710683E+03 0.  0.
         23    2    1    2    0    0  0.18004851873E+02  0.33500685644E+02 -0.28242325445E+03  0.29914005419E+03  0.90969262590E+02 0.  0.
        -11    1    4    4    0    0  0.17217746715E+01  0.45084855357E+02 -0.56356740159E+02  0.72192041474E+02  0.51100000000E-03 0.  1.
         11    1    4    4    0    0  0.16283077202E+02 -0.11584169713E+02 -0.22606651429E+03  0.22694801272E+03  0.51100000000E-03 0. -1.
    9000005    1    3    3    0    0 -0.37496095929E+02 -0.17720724947E+02 -0.76737582804E+02  0.87233238603E+02  0.10000000000E+01 0.  0.
    9000005    1    3    3    0    0  0.19491244056E+02 -0.15779960697E+02  0.41133685282E+02  0.48186054200E+02  0.10000000000E+01 0.  0.
<mgrwt>
<rscale>  0 0.12177649E+03</rscale>
<asrwt>0</asrwt>
<pdfrwt beam="2">  1        1 0.57891268E-01 0.13065507E+03</pdfrwt>
<pdfrwt beam="1">  1       -1 0.89640152E-02 0.13065507E+03</pdfrwt>
<totfact> 0.45508280E+03</totfact>
</mgrwt>
</event>
<event>
 8    2  0.1409546E-003  0.1519573E+03  0.7818608E-02  0.1207234E+00
          1   -1    0    0  501    0  0.00000000000E+00  0.00000000000E+00  0.90432737713E+03  0.90432737714E+03  0.50400000000E-02 0. -1.
         -1   -1    0    0    0  501 -0.00000000000E+00 -0.00000000000E+00 -0.21377727489E+02  0.21377728083E+02  0.50400000000E-02 0.  1.
         25    2    1    2    0    0  0.72357586900E+02  0.47230003152E+02  0.53119822446E+03  0.55250572875E+03  0.12499893218E+03 0.  0.
         23    2    1    2    0    0 -0.72357586900E+02 -0.47230003152E+02  0.35175142517E+03  0.37319937647E+03  0.89902257542E+02 0.  0.
        -11    1    4    4    0    0 -0.49547629022E+02 -0.52582815428E+02  0.11859954274E+03  0.13887322117E+03  0.51100000000E-03 0.  1.
         11    1    4    4    0    0 -0.22809957878E+02  0.53528122758E+01  0.23315188243E+03  0.23432615530E+03  0.51100000000E-03 0. -1.
    9000005    1    3    3    0    0 -0.14180710253E+02  0.62478977367E+02  0.22603490992E+03  0.23494147284E+03  0.10000000000E+01 0.  0.
    9000005    1    3    3    0    0  0.86538297153E+02 -0.15248974215E+02  0.30516331454E+03  0.31756425591E+03  0.10000000000E+01 0.  0.
<mgrwt>
<rscale>  0 0.14462821E+03</rscale>
<asrwt>0</asrwt>
<pdfrwt beam="1">  1        1 0.13912725E+00 0.15195732E+03</pdfrwt>
<pdfrwt beam="2">  1       -1 0.32888821E-02 0.15195732E+03</pdfrwt>
<totfact> 0.60866542E+03</totfact>
</mgrwt>
</event>
<event>
 8    2  0.1409546E-003  0.1279356E+03  0.7818608E-02  0.1244424E+00
          1   -1    0    0  501    0  0.00000000000E+00  0.00000000000E+00  0.20656155528E+04  0.20656155528E+04  0.50400000000E-02 0. -1.
         -1   -1    0    0    0  501 -0.00000000000E+00 -0.00000000000E+00 -0.61006874820E+01  0.61006895638E+01  0.50400000000E-02 0.  1.
         25    2    1    2    0    0 -0.26970462373E+02 -0.40635250684E+01  0.12141002634E+04  0.12208222501E+04  0.12499439531E+03 0.  0.
         23    2    1    2    0    0  0.26970462373E+02  0.40635250684E+01  0.84541460192E+03  0.85089399219E+03  0.92470637173E+02 0.  0.
        -11    1    4    4    0    0  0.41285066399E+02  0.16105203057E+02  0.18570730804E+03  0.19092155073E+03  0.51100000000E-03 0.  1.
         11    1    4    4    0    0 -0.14314604025E+02 -0.12041677989E+02  0.65970729388E+03  0.65997244147E+03  0.51100000000E-03 0. -1.
    9000005    1    3    3    0    0  0.48505861897E+02 -0.11222917638E+02  0.59901850288E+03  0.60108480210E+03  0.10000000000E+01 0.  0.
    9000005    1    3    3    0    0 -0.75476324270E+02  0.71593925694E+01  0.61508176049E+03  0.61973744805E+03  0.10000000000E+01 0.  0.
<mgrwt>
<rscale>  0 0.11919916E+03</rscale>
<asrwt>0</asrwt>
<pdfrwt beam="1">  1        1 0.31778779E+00 0.12793560E+03</pdfrwt>
<pdfrwt beam="2">  1       -1 0.93856516E-03 0.12793560E+03</pdfrwt>
<totfact> 0.62054272E+03</totfact>
</mgrwt>
</event>
<event>
 8    2  0.1409546E-003  0.1764167E+03  0.7818608E-02  0.1177103E+00
          1   -1    0    0  501    0  0.00000000000E+00  0.00000000000E+00  0.27626958049E+03  0.27626958054E+03  0.50400000000E-02 0. -1.
         -1   -1    0    0    0  501 -0.00000000000E+00 -0.00000000000E+00 -0.10087271362E+03  0.10087271375E+03  0.50400000000E-02 0.  1.
         25    2    1    2    0    0  0.10931889561E+03  0.59551716392E+02  0.11750266922E+03  0.21196633980E+03  0.12500329625E+03 0.  0.
         23    2    1    2    0    0 -0.10931889561E+03 -0.59551716392E+02  0.57894197655E+02  0.16517595448E+03  0.91838608199E+02 0.  0.
        -11    1    4    4    0    0 -0.26368210376E+02 -0.38875611182E+02 -0.18539557129E+02  0.50500602392E+02  0.51100000000E-03 0.  1.
         11    1    4    4    0    0 -0.82950685231E+02 -0.20676105210E+02  0.76433754784E+02  0.11467535209E+03  0.51100000000E-03 0. -1.
    9000005    1    3    3    0    0 -0.24164691150E+02  0.15695964044E+02  0.46058879445E+02  0.54338899155E+02  0.10000000000E+01 0.  0.
    9000005    1    3    3    0    0  0.13348358676E+03  0.43855752348E+02  0.71443789772E+02  0.15762744065E+03  0.10000000000E+01 0.  0.
<mgrwt>
<rscale>  0 0.17071657E+03</rscale>
<asrwt>0</asrwt>
<pdfrwt beam="1">  1        1 0.42503012E-01 0.17641670E+03</pdfrwt>
<pdfrwt beam="2">  1       -1 0.15518879E-01 0.17641670E+03</pdfrwt>
<totfact> 0.29027674E+03</totfact>
</mgrwt>
</event>
<event>
 8    2  0.1409546E-003  0.1295934E+03  0.7818608E-02  0.1242246E+00
          1   -1    0    0  501    0  0.00000000000E+00  0.00000000000E+00  0.20171372027E+04  0.20171372027E+04  0.50400000000E-02 0. -1.
         -1   -1    0    0    0  501 -0.00000000000E+00 -0.00000000000E+00 -0.64157535842E+01  0.64157555639E+01  0.50400000000E-02 0.  1.
         25    2    1    2    0    0 -0.33695506933E+02 -0.58813669992E+01  0.12427952039E+04  0.12495336586E+04  0.12499787018E+03 0.  0.
         23    2    1    2    0    0  0.33695506933E+02  0.58813669992E+01  0.76792624518E+03  0.77401929961E+03  0.90692780625E+02 0.  0.
        -11    1    4    4    0    0  0.53817272436E+02 -0.23712238197E+02  0.55494729085E+03  0.55805471477E+03  0.51100000000E-03 0. -1.
         11    1    4    4    0    0 -0.20121765504E+02  0.29593605196E+02  0.21297895433E+03  0.21596458484E+03  0.51100000000E-03 0.  1.
    9000005    1    3    3    0    0 -0.43673823790E+02  0.36152368694E+02  0.10669771133E+04  0.10684828295E+04  0.10000000000E+01 0.  0.
    9000005    1    3    3    0    0  0.99783168573E+01 -0.42033735693E+02  0.17581809057E+03  0.18105082909E+03  0.10000000000E+01 0.  0.
<mgrwt>
<rscale>  0 0.12051751E+03</rscale>
<asrwt>0</asrwt>
<pdfrwt beam="1">  1        1 0.31032911E+00 0.12959338E+03</pdfrwt>
<pdfrwt beam="2">  1       -1 0.98703819E-03 0.12959338E+03</pdfrwt>
<totfact> 0.62028987E+03</totfact>
</mgrwt>
</event>
<event>
 8    2  0.1409546E-003  0.1543062E+03  0.7818608E-02  0.1204687E+00
         -1   -1    0    0    0  501 -0.00000000000E+00  0.00000000000E+00  0.12505541175E+02  0.12505542191E+02  0.50400000000E-02 0.  1.
          1   -1    0    0  501    0  0.00000000000E+00 -0.00000000000E+00 -0.17696879947E+04  0.17696879947E+04  0.50400000000E-02 0. -1.
         25    2    1    2    0    0  0.21828222641E+02  0.87813260741E+02 -0.12570405742E+04  0.12664759775E+04  0.12499102494E+03 0.  0.
         23    2    1    2    0    0 -0.21828222641E+02 -0.87813260741E+02 -0.50014187926E+03  0.51571755934E+03  0.87378839298E+02 0.  0.
        -11    1    4    4    0    0 -0.13370214799E+02 -0.37392482000E+02 -0.41132255556E+03  0.41323504821E+03  0.51100000000E-03 0. -1.
         11    1    4    4    0    0 -0.84580078421E+01 -0.50420778741E+02 -0.88819323699E+02  0.10248251113E+03  0.51100000000E-03 0.  1.
    9000005    1    3    3    0    0 -0.45325233495E+02  0.34558750235E+02 -0.75692752022E+03  0.75907111319E+03  0.10000000000E+01 0.  0.
    9000005    1    3    3    0    0  0.67153456136E+02  0.53254510506E+02 -0.50011305402E+03  0.50740486434E+03  0.10000000000E+01 0.  0.
<mgrwt>
<rscale>  0 0.14662147E+03</rscale>
<asrwt>0</asrwt>
<pdfrwt beam="2">  1        1 0.27225949E+00 0.15430618E+03</pdfrwt>
<pdfrwt beam="1">  1       -1 0.19239309E-02 0.15430618E+03</pdfrwt>
<totfact> 0.34351567E+03</totfact>
</mgrwt>
</event>
<event>
 8    2  0.1409546E-003  0.1253965E+03  0.7818608E-02  0.1248366E+00
         -1   -1    0    0    0  501 -0.00000000000E+00  0.00000000000E+00  0.24958059542E+02  0.24958060051E+02  0.50400000000E-02 0.  1.
          1   -1    0    0  501    0  0.00000000000E+00 -0.00000000000E+00 -0.48488923427E+03  0.48488923429E+03  0.50400000000E-02 0. -1.
         25    2    1    2    0    0 -0.91964135318E+01  0.38417771063E+01 -0.25779825171E+03  0.28667792093E+03  0.12499983396E+03 0.  0.
         23    2    1    2    0    0  0.91964135318E+01 -0.38417771063E+01 -0.20213292301E+03  0.22316937341E+03  0.94061242763E+02 0.  0.
        -11    1    4    4    0    0  0.29693964967E+02  0.16763365334E+02 -0.21716860836E+02  0.40427268244E+02  0.51100000000E-03 0.  1.
         11    1    4    4    0    0 -0.20497551435E+02 -0.20605142441E+02 -0.18041606217E+03  0.18274210517E+03  0.51100000000E-03 0. -1.
    9000005    1    3    3    0    0 -0.37014870444E+02 -0.23302591954E+02 -0.23993344658E+03  0.24388966812E+03  0.10000000000E+01 0.  0.
    9000005    1    3    3    0    0  0.27818456912E+02  0.27144369060E+02 -0.17864805131E+02  0.42788252815E+02  0.10000000000E+01 0.  0.
<mgrwt>
<rscale>  0 0.11686190E+03</rscale>
<asrwt>0</asrwt>
<pdfrwt beam="2">  1        1 0.74598337E-01 0.12539654E+03</pdfrwt>
<pdfrwt beam="1">  1       -1 0.38397019E-02 0.12539654E+03</pdfrwt>
<totfact> 0.11606015E+04</totfact>
</mgrwt>
</event>
<event>
 8    2  0.1409546E-003  0.1458395E+03  0.7818608E-02  0.1220800E+00
          1   -1    0    0  501    0  0.00000000000E+00  0.00000000000E+00  0.35744415911E+02  0.35744416267E+02  0.50400000000E-02 0. -1.
         -1   -1    0    0    0  501 -0.00000000000E+00 -0.00000000000E+00 -0.50363318825E+03  0.50363318828E+03  0.50400000000E-02 0.  1.
         25    2    1    2    0    0  0.16503591757E+02  0.73329218185E+02 -0.35934650629E+03  0.38781318410E+03  0.12497844372E+03 0.  0.
         23    2    1    2    0    0 -0.16503591757E+02 -0.73329218185E+02 -0.10854226605E+03  0.15156442045E+03  0.74436598832E+02 0.  0.
        -11    1    4    4    0    0 -0.37718546389E+02 -0.35042313575E+02 -0.90704906193E+02  0.10429780674E+03  0.51100000000E-03 0.  1.
         11    1    4    4    0    0  0.21214954632E+02 -0.38286904610E+02 -0.17837359856E+02  0.47266613709E+02  0.51100000000E-03 0. -1.
    9000005    1    3    3    0    0 -0.19137944252E+02  0.86904119879E+02 -0.14525271817E+03  0.17034652652E+03  0.10000000000E+01 0.  0.
    9000005    1    3    3    0    0  0.35641536009E+02 -0.13574901695E+02 -0.21409378812E+03  0.21746665758E+03  0.10000000000E+01 0.  0.
<mgrwt>
<rscale>  0 0.13458969E+03</rscale>
<asrwt>0</asrwt>
<pdfrwt beam="1">  1        1 0.54991413E-02 0.14583948E+03</pdfrwt>
<pdfrwt beam="2">  1       -1 0.77482024E-01 0.14583948E+03</pdfrwt>
<totfact> 0.24681860E+03</totfact>
</mgrwt>
</event>
<event>
 8    2  0.1409546E-003  0.1267427E+03  0.7818608E-02  0.1245016E+00
         -1   -1    0    0    0  501 -0.00000000000E+00  0.00000000000E+00  0.45153316494E+03  0.45153316497E+03  0.50400000000E-02 0.  1.
          1   -1    0    0  501    0  0.00000000000E+00 -0.00000000000E+00 -0.30314850274E+02  0.30314850693E+02  0.50400000000E-02 0. -1.
         25    2    1    2    0    0  0.20587195737E+02 -0.31356547377E+01  0.30209668504E+03  0.32760664286E+03  0.12502015987E+03 0.  0.
         23    2    1    2    0    0 -0.20587195737E+02  0.31356547377E+01  0.11912162963E+03  0.15424137280E+03  0.95743268591E+02 0.  0.
        -11    1    4    4    0    0  0.27557957339E+02  0.31397573668E+02  0.57752933217E+02  0.71278678021E+02  0.51100000000E-03 0.  1.
         11    1    4    4    0    0 -0.48145153076E+02 -0.28261918930E+02  0.61368696409E+02  0.82962694782E+02  0.51100000000E-03 0. -1.
    9000005    1    3    3    0    0  0.30588330523E+02  0.42794377237E+02  0.55135703452E+02  0.76209910658E+02  0.10000000000E+01 0.  0.
    9000005    1    3    3    0    0 -0.10001134786E+02 -0.45930031975E+02  0.24696098159E+03  0.25139673220E+03  0.10000000000E+01 0.  0.
<mgrwt>
<rscale>  0 0.11884435E+03</rscale>
<asrwt>0</asrwt>
<pdfrwt beam="2">  1        1 0.46638233E-02 0.12674267E+03</pdfrwt>
<pdfrwt beam="1">  1       -1 0.69466638E-01 0.12674267E+03</pdfrwt>
<totfact> 0.38143815E+03</totfact>
</mgrwt>
</event>
<event>
 8    2  0.1409546E-003  0.1442910E+03  0.7818608E-02  0.1216704E+00
         -1   -1    0    0    0  501 -0.00000000000E+00  0.00000000000E+00  0.16091602965E+03  0.16091602973E+03  0.50400000000E-02 0.  1.
          1   -1    0    0  501    0  0.00000000000E+00 -0.00000000000E+00 -0.10807391697E+03  0.10807391709E+03  0.50400000000E-02 0. -1.
         25    2    1    2    0    0 -0.62025850347E+02 -0.36751709871E+02  0.21579882631E+02  0.14589584268E+03  0.12498804457E+03 0.  0.
         23    2    1    2    0    0  0.62025850347E+02  0.36751709871E+02  0.31262230050E+02  0.12309410414E+03  0.94746699974E+02 0.  0.
        -11    1    4    4    0    0  0.52508673622E+02  0.67681652189E+02  0.29809493477E+02  0.90700456174E+02  0.51100000000E-03 0.  1.
         11    1    4    4    0    0  0.95171767253E+01 -0.30929942318E+02  0.14527365732E+01  0.32393647964E+02  0.51100000000E-03 0. -1.
    9000005    1    3    3    0    0 -0.61639351165E+02  0.20492307946E+02  0.49998502732E+02  0.81976792889E+02  0.10000000000E+01 0.  0.
    9000005    1    3    3    0    0 -0.38649918244E+00 -0.57244017817E+02 -0.28418620101E+02  0.63919049789E+02  0.10000000000E+01 0.  0.
<mgrwt>
<rscale>  0 0.13752108E+03</rscale>
<asrwt>0</asrwt>
<pdfrwt beam="2">  1        1 0.16626757E-01 0.14429104E+03</pdfrwt>
<pdfrwt beam="1">  1       -1 0.24756312E-01 0.14429104E+03</pdfrwt>
<totfact> 0.44223081E+03</totfact>
</mgrwt>
</event>
<event>
 8    2  0.1409546E-003  0.1356865E+03  0.7818608E-02  0.1231632E+00
         -1   -1    0    0    0  501 -0.00000000000E+00  0.00000000000E+00  0.10368596361E+02  0.10368597586E+02  0.50400000000E-02 0.  1.
          1   -1    0    0  501    0  0.00000000000E+00 -0.00000000000E+00 -0.13955580196E+04  0.13955580196E+04  0.50400000000E-02 0. -1.
         25    2    1    2    0    0  0.52320053954E+02  0.70282948392E+01 -0.77255570782E+03  0.78438074307E+03  0.12499617371E+03 0.  0.
         23    2    1    2    0    0 -0.52320053954E+02 -0.70282948392E+01 -0.61263371545E+03  0.62154587415E+03  0.90622400097E+02 0.  0.
        -11    1    4    4    0    0 -0.56781550829E+02 -0.16944426331E+02 -0.19579233794E+03  0.20456269869E+03  0.51100000000E-03 0.  1.
         11    1    4    4    0    0  0.44614968749E+01  0.99161314918E+01 -0.41684137751E+03  0.41698317546E+03  0.51100000000E-03 0. -1.
    9000005    1    3    3    0    0  0.89358410383E+02 -0.98784622106E+01 -0.61988252317E+03  0.62636878279E+03  0.10000000000E+01 0.  0.
    9000005    1    3    3    0    0 -0.37038356429E+02  0.16906757050E+02 -0.15267318465E+03  0.15801196028E+03  0.10000000000E+01 0.  0.
<mgrwt>
<rscale>  0 0.12722506E+03</rscale>
<asrwt>0</asrwt>
<pdfrwt beam="2">  1        1 0.21470109E+00 0.13568651E+03</pdfrwt>
<pdfrwt beam="1">  1       -1 0.15951699E-02 0.13568651E+03</pdfrwt>
<totfact> 0.78208482E+03</totfact>
</mgrwt>
</event>
<event>
 8    2  0.1409546E-003  0.1292673E+03  0.7818608E-02  0.1242167E+00
         -1   -1    0    0    0  501 -0.00000000000E+00  0.00000000000E+00  0.57333526304E+02  0.57333526526E+02  0.50400000000E-02 0.  1.
          1   -1    0    0  501    0  0.00000000000E+00 -0.00000000000E+00 -0.22521344342E+03  0.22521344347E+03  0.50400000000E-02 0. -1.
         25    2    1    2    0    0 -0.12407824278E+02 -0.30522132881E+02 -0.10107229255E+03  0.16409036556E+03  0.12499794018E+03 0.  0.
         23    2    1    2    0    0  0.12407824278E+02  0.30522132881E+02 -0.66807624561E+02  0.11845660444E+03  0.92104037570E+02 0.  0.
        -11    1    4    4    0    0 -0.34214657663E+02 -0.10340661950E+02 -0.22121131082E+02  0.42034706246E+02  0.51100000000E-03 0. -1.
         11    1    4    4    0    0  0.46622481941E+02  0.40862794831E+02 -0.44686493479E+02  0.76421898193E+02  0.51100000000E-03 0.  1.
    9000005    1    3    3    0    0  0.12556732629E+02 -0.33515716037E+02 -0.12459932217E+03  0.12964168250E+03  0.10000000000E+01 0.  0.
    9000005    1    3    3    0    0 -0.24964556907E+02  0.29935831563E+01  0.23527029622E+02  0.34448683059E+02  0.10000000000E+01 0.  0.
<mgrwt>
<rscale>  0 0.12056555E+03</rscale>
<asrwt>0</asrwt>
<pdfrwt beam="2">  1        1 0.34648222E-01 0.12926732E+03</pdfrwt>
<pdfrwt beam="1">  1       -1 0.88205427E-02 0.12926732E+03</pdfrwt>
<totfact> 0.88001922E+03</totfact>
</mgrwt>
</event>
<event>
 8    2  0.1409546E-003  0.1449364E+03  0.7818608E-02  0.1217071E+00
          1   -1    0    0  501    0  0.00000000000E+00  0.00000000000E+00  0.10255808714E+03  0.10255808726E+03  0.50400000000E-02 0. -1.
         -1   -1    0    0    0  501 -0.00000000000E+00 -0.00000000000E+00 -0.19065844869E+03  0.19065844875E+03  0.50400000000E-02 0.  1.
         25    2    1    2    0    0 -0.35520274571E+00  0.73362195671E+02  0.34767899862E+01  0.14497809861E+03  0.12499769232E+03 0.  0.
         23    2    1    2    0    0  0.35520274571E+00 -0.73362195671E+02 -0.91577151537E+02  0.14823843740E+03  0.90587646601E+02 0.  0.
        -11    1    4    4    0    0 -0.19848495531E+02  0.13709797710E+01 -0.62419373047E+02  0.65513513814E+02  0.51100000000E-03 0. -1.
         11    1    4    4    0    0  0.20203698277E+02 -0.74733175442E+02 -0.29157778490E+02  0.82724923586E+02  0.51100000000E-03 0.  1.
    9000005    1    3    3    0    0  0.47247898541E+02  0.70213161141E+02 -0.26425475581E+02  0.88665425469E+02  0.10000000000E+01 0.  0.
    9000005    1    3    3    0    0 -0.47603101287E+02  0.31490345301E+01  0.29902265567E+02  0.56312673144E+02  0.10000000000E+01 0.  0.
<mgrwt>
<rscale>  0 0.13725513E+03</rscale>
<asrwt>0</asrwt>
<pdfrwt beam="1">  1        1 0.15778167E-01 0.14493640E+03</pdfrwt>
<pdfrwt beam="2">  1       -1 0.29332069E-01 0.14493640E+03</pdfrwt>
<totfact> 0.35714405E+03</totfact>
</mgrwt>
</event>
<event>
 8    2  0.1409546E-003  0.1538416E+03  0.7818608E-02  0.1204305E+00
          1   -1    0    0  501    0  0.00000000000E+00  0.00000000000E+00  0.64320581793E+02  0.64320581990E+02  0.50400000000E-02 0. -1.
         -1   -1    0    0    0  501 -0.00000000000E+00 -0.00000000000E+00 -0.34703959942E+03  0.34703959946E+03  0.50400000000E-02 0.  1.
         25    2    1    2    0    0  0.73418820622E+02 -0.51492973426E+02 -0.84793361350E+02  0.17566206977E+03  0.12500159636E+03 0.  0.
         23    2    1    2    0    0 -0.73418820622E+02  0.51492973426E+02 -0.19792565628E+03  0.23569811168E+03  0.91308186393E+02 0.  0.
        -11    1    4    4    0    0 -0.16539699492E+02  0.65883563045E+02 -0.88820524115E+02  0.11181811590E+03  0.51100000000E-03 0.  1.
         11    1    4    4    0    0 -0.56879121129E+02 -0.14390589619E+02 -0.10910513216E+03  0.12387999578E+03  0.51100000000E-03 0. -1.
    9000005    1    3    3    0    0 -0.11136734789E+02 -0.63664598358E+02 -0.17659874684E+02  0.67008052648E+02  0.10000000000E+01 0.  0.
    9000005    1    3    3    0    0  0.84555555411E+02  0.12171624932E+02 -0.67133486666E+02  0.10865401712E+03  0.10000000000E+01 0.  0.
<mgrwt>
<rscale>  0 0.14692356E+03</rscale>
<asrwt>0</asrwt>
<pdfrwt beam="1">  1        1 0.98954743E-02 0.15384163E+03</pdfrwt>
<pdfrwt beam="2">  1       -1 0.53390707E-01 0.15384163E+03</pdfrwt>
<totfact> 0.23052614E+03</totfact>
</mgrwt>
</event>
<event>
 8    2  0.1409546E-003  0.1327252E+03  0.7818608E-02  0.1236846E+00
          1   -1    0    0  501    0  0.00000000000E+00  0.00000000000E+00  0.36494161529E+03  0.36494161533E+03  0.50400000000E-02 0. -1.
         -1   -1    0    0    0  501 -0.00000000000E+00 -0.00000000000E+00 -0.38193951455E+02  0.38193951787E+02  0.50400000000E-02 0.  1.
         25    2    1    2    0    0  0.44211792870E+02  0.45977549658E+01  0.21541897757E+03  0.25302435498E+03  0.12506065064E+03 0.  0.
         23    2    1    2    0    0 -0.44211792870E+02 -0.45977549658E+01  0.11132868627E+03  0.15011121213E+03  0.90351965342E+02 0.  0.
        -11    1    4    4    0    0 -0.34728934615E+02 -0.35831417179E+02  0.21132190547E+02  0.54190025227E+02  0.51100000000E-03 0. -1.
         11    1    4    4    0    0 -0.94828582552E+01  0.31233662213E+02  0.90196495724E+02  0.95921186904E+02  0.51100000000E-03 0.  1.
    9000005    1    3    3    0    0  0.83190842589E+02  0.70239297550E+01  0.95244877504E+02  0.12665953802E+03  0.10000000000E+01 0.  0.
    9000005    1    3    3    0    0 -0.38979049719E+02 -0.24261747892E+01  0.12017410006E+03  0.12636481697E+03  0.10000000000E+01 0.  0.
<mgrwt>
<rscale>  0 0.12387000E+03</rscale>
<asrwt>0</asrwt>
<pdfrwt beam="1">  1        1 0.56144862E-01 0.13272524E+03</pdfrwt>
<pdfrwt beam="2">  1       -1 0.58759927E-02 0.13272524E+03</pdfrwt>
<totfact> 0.89219343E+03</totfact>
</mgrwt>
</event>
<event>
 8    2  0.1409546E-003  0.1294558E+03  0.7818608E-02  0.1240895E+00
          1   -1    0    0  501    0  0.00000000000E+00  0.00000000000E+00  0.37999487904E+03  0.37999487908E+03  0.50400000000E-02 0. -1.
         -1   -1    0    0    0  501 -0.00000000000E+00 -0.00000000000E+00 -0.35535435130E+02  0.35535435487E+02  0.50400000000E-02 0.  1.
         25    2    1    2    0    0  0.18131797721E+02 -0.28368642813E+02  0.22691634423E+03  0.26124670375E+03  0.12500108382E+03 0.  0.
         23    2    1    2    0    0 -0.18131797721E+02  0.28368642813E+02  0.11754309968E+03  0.15428361082E+03  0.94093093798E+02 0.  0.
        -11    1    4    4    0    0 -0.41529658686E+02  0.34915706976E+02  0.11811460998E+03  0.12998030711E+03  0.51100000000E-03 0. -1.
         11    1    4    4    0    0  0.23397860965E+02 -0.65470641630E+01 -0.57151030150E+00  0.24303303709E+02  0.51100000000E-03 0.  1.
    9000005    1    3    3    0    0 -0.93180555621E+01  0.40254019360E+02  0.14561698755E+03  0.15136881878E+03  0.10000000000E+01 0.  0.
    9000005    1    3    3    0    0  0.27449853283E+02 -0.68622662173E+02  0.81299356682E+02  0.10987788497E+03  0.10000000000E+01 0.  0.
<mgrwt>
<rscale>  0 0.12134472E+03</rscale>
<asrwt>0</asrwt>
<pdfrwt beam="1">  1        1 0.58460751E-01 0.12945583E+03</pdfrwt>
<pdfrwt beam="2">  1       -1 0.54669900E-02 0.12945583E+03</pdfrwt>
<totfact> 0.94237614E+03</totfact>
</mgrwt>
</event>
<event>
 8    2  0.1409546E-003  0.1344107E+03  0.7818608E-02  0.1235111E+00
          1   -1    0    0  501    0  0.00000000000E+00  0.00000000000E+00  0.23101711294E+04  0.23101711294E+04  0.50400000000E-02 0. -1.
         -1   -1    0    0    0  501 -0.00000000000E+00 -0.00000000000E+00 -0.61935406134E+01  0.61935426641E+01  0.50400000000E-02 0.  1.
         25    2    1    2    0    0  0.17709103515E+02 -0.46150992005E+02  0.15306325300E+04  0.15365227570E+04  0.12499085764E+03 0.  0.
         23    2    1    2    0    0 -0.17709103515E+02  0.46150992005E+02  0.77334505870E+03  0.77984191498E+03  0.87448877233E+02 0.  0.
        -11    1    4    4    0    0 -0.43434021016E+01 -0.95113093171E+01  0.10383687836E+02  0.14736048319E+02  0.51100000000E-03 0.  1.
         11    1    4    4    0    0 -0.13365701413E+02  0.55662301322E+02  0.76296137087E+03  0.76510586666E+03  0.51100000000E-03 0. -1.
    9000005    1    3    3    0    0 -0.25042533722E+02  0.34606684747E+02  0.44102994686E+03  0.44309498435E+03  0.10000000000E+01 0.  0.
    9000005    1    3    3    0    0  0.42751637237E+02 -0.80757676752E+02  0.10896025832E+04  0.10934277727E+04  0.10000000000E+01 0.  0.
<mgrwt>
<rscale>  0 0.12497303E+03</rscale>
<asrwt>0</asrwt>
<pdfrwt beam="1">  1        1 0.35541088E+00 0.13441072E+03</pdfrwt>
<pdfrwt beam="2">  1       -1 0.95285274E-03 0.13441072E+03</pdfrwt>
<totfact> 0.42428106E+03</totfact>
</mgrwt>
</event>
<event>
 8    2  0.1409546E-003  0.1645584E+03  0.7818608E-02  0.1190555E+00
          1   -1    0    0  501    0  0.00000000000E+00  0.00000000000E+00  0.43012263246E+03  0.43012263249E+03  0.50400000000E-02 0. -1.
         -1   -1    0    0    0  501 -0.00000000000E+00 -0.00000000000E+00 -0.69306323149E+02  0.69306323332E+02  0.50400000000E-02 0.  1.
         25    2    1    2    0    0  0.10697669704E+03  0.27940927046E+01  0.30708571434E+03  0.34839792332E+03  0.12501062499E+03 0.  0.
         23    2    1    2    0    0 -0.10697669704E+03 -0.27940927046E+01  0.53730594973E+02  0.15103103250E+03  0.92041160777E+02 0.  0.
        -11    1    4    4    0    0 -0.88308443314E+02 -0.27740780738E+02  0.43792095967E+01  0.92666658262E+02  0.51100000000E-03 0.  1.
         11    1    4    4    0    0 -0.18668253728E+02  0.24946688033E+02  0.49351385377E+02  0.58364374236E+02  0.51100000000E-03 0. -1.
    9000005    1    3    3    0    0  0.47922437303E+02  0.32309512967E+02  0.33189978777E+02  0.66656127374E+02  0.10000000000E+01 0.  0.
    9000005    1    3    3    0    0  0.59054259739E+02 -0.29515420262E+02  0.27389573556E+03  0.28174179595E+03  0.10000000000E+01 0.  0.
<mgrwt>
<rscale>  0 0.15836548E+03</rscale>
<asrwt>0</asrwt>
<pdfrwt beam="1">  1        1 0.66172712E-01 0.16455843E+03</pdfrwt>
<pdfrwt beam="2">  1       -1 0.10662511E-01 0.16455843E+03</pdfrwt>
<totfact> 0.29788642E+03</totfact>
</mgrwt>
</event>
<event>
 8    2  0.1409546E-003  0.1364333E+03  0.7818608E-02  0.1229694E+00
          1   -1    0    0  501    0  0.00000000000E+00  0.00000000000E+00  0.20260436540E+04  0.20260436540E+04  0.50400000000E-02 0. -1.
         -1   -1    0    0    0  501 -0.00000000000E+00 -0.00000000000E+00 -0.80833437093E+01  0.80833452805E+01  0.50400000000E-02 0.  1.
         25    2    1    2    0    0  0.36516581330E+02  0.40679545056E+02  0.81057956249E+03  0.82198130445E+03  0.12500300657E+03 0.  0.
         23    2    1    2    0    0 -0.36516581330E+02 -0.40679545056E+02  0.12073807478E+04  0.12121456948E+04  0.92415524870E+02 0.  0.
        -11    1    4    4    0    0 -0.53195361131E+02 -0.42179818826E+02  0.50240406237E+03  0.50697014256E+03  0.51100000000E-03 0.  1.
         11    1    4    4    0    0  0.16678779801E+02  0.15002737703E+01  0.70497668540E+03  0.70517555224E+03  0.51100000000E-03 0. -1.
    9000005    1    3    3    0    0  0.68432987932E+02  0.65145117753E+02  0.62410566696E+03  0.63121774669E+03  0.10000000000E+01 0.  0.
    9000005    1    3    3    0    0 -0.31916406602E+02 -0.24465572697E+02  0.18647389552E+03  0.19076355776E+03  0.10000000000E+01 0.  0.
<mgrwt>
<rscale>  0 0.12850315E+03</rscale>
<asrwt>0</asrwt>
<pdfrwt beam="1">  1        1 0.31169899E+00 0.13643327E+03</pdfrwt>
<pdfrwt beam="2">  1       -1 0.12435916E-02 0.13643327E+03</pdfrwt>
<totfact> 0.44083315E+03</totfact>
</mgrwt>
</event>
<event>
 8    2  0.1409546E-003  0.1289563E+03  0.7818608E-02  0.1242980E+00
          1   -1    0    0  501    0  0.00000000000E+00  0.00000000000E+00  0.87576010915E+02  0.87576011060E+02  0.50400000000E-02 0. -1.
         -1   -1    0    0    0  501 -0.00000000000E+00 -0.00000000000E+00 -0.14566467618E+03  0.14566467627E+03  0.50400000000E-02 0.  1.
         25    2    1    2    0    0  0.31677660799E+02 -0.15392996232E+01 -0.34422359046E+02  0.13347148436E+03  0.12499557872E+03 0.  0.
         23    2    1    2    0    0 -0.31677660799E+02  0.15392996232E+01 -0.23666306221E+02  0.99769202966E+02  0.91585785869E+02 0.  0.
        -11    1    4    4    0    0  0.31715950738E+02 -0.82545891684E+01 -0.83968477018E+01  0.33831151697E+02  0.51100000000E-03 0. -1.
         11    1    4    4    0    0 -0.63393611537E+02  0.97938887916E+01 -0.15269458519E+02  0.65938051269E+02  0.51100000000E-03 0.  1.
    9000005    1    3    3    0    0  0.73273553353E+02  0.37496914137E+01 -0.49930890512E+02  0.88753409140E+02  0.10000000000E+01 0.  0.
    9000005    1    3    3    0    0 -0.41595892554E+02 -0.52889910369E+01  0.15508531465E+02  0.44718075224E+02  0.10000000000E+01 0.  0.
<mgrwt>
<rscale>  0 0.12007074E+03</rscale>
<asrwt>0</asrwt>
<pdfrwt beam="1">  1        1 0.13473232E-01 0.12895634E+03</pdfrwt>
<pdfrwt beam="2">  1       -1 0.22409950E-01 0.12895634E+03</pdfrwt>
<totfact> 0.67808011E+03</totfact>
</mgrwt>
</event>
<event>
 8    2  0.1409546E-003  0.1267121E+03  0.7818608E-02  0.1248576E+00
         -1   -1    0    0    0  501 -0.00000000000E+00  0.00000000000E+00  0.10937809243E+02  0.10937810404E+02  0.50400000000E-02 0.  1.
          1   -1    0    0  501    0  0.00000000000E+00 -0.00000000000E+00 -0.10983875738E+04  0.10983875739E+04  0.50400000000E-02 0. -1.
         25    2    1    2    0    0  0.19607736381E+02 -0.66684411927E+01 -0.57350332844E+03  0.58733467099E+03  0.12500806608E+03 0.  0.
         23    2    1    2    0    0 -0.19607736381E+02  0.66684411927E+01 -0.51394643617E+03  0.52199071328E+03  0.88906884216E+02 0.  0.
        -11    1    4    4    0    0 -0.23966247850E+02 -0.20276547991E+02 -0.64680310588E+02  0.71896189138E+02  0.51100000000E-03 0.  1.
         11    1    4    4    0    0  0.43585114685E+01  0.26944989184E+02 -0.44926612558E+03  0.45009452414E+03  0.51100000000E-03 0. -1.
    9000005    1    3    3    0    0 -0.26036494335E+02 -0.34555737652E+02 -0.80139664512E+02  0.91078888168E+02  0.10000000000E+01 0.  0.
    9000005    1    3    3    0    0  0.45644230716E+02  0.27887296459E+02 -0.49336366392E+03  0.49625578282E+03  0.10000000000E+01 0.  0.
<mgrwt>
<rscale>  0 0.11673902E+03</rscale>
<asrwt>0</asrwt>
<pdfrwt beam="2">  1        1 0.16898262E+00 0.12671207E+03</pdfrwt>
<pdfrwt beam="1">  1       -1 0.16827408E-02 0.12671207E+03</pdfrwt>
<totfact> 0.11468654E+04</totfact>
</mgrwt>
</event>
<event>
 8    2  0.1409546E-003  0.1291657E+03  0.7818608E-02  0.1239460E+00
          1   -1    0    0  501    0  0.00000000000E+00  0.00000000000E+00  0.51877611016E+03  0.51877611018E+03  0.50400000000E-02 0. -1.
         -1   -1    0    0    0  501 -0.00000000000E+00 -0.00000000000E+00 -0.28108727456E+02  0.28108727908E+02  0.50400000000E-02 0.  1.
         25    2    1    2    0    0 -0.19851262720E+02  0.25792077947E+02  0.19779701058E+03  0.23623599170E+03  0.12499792983E+03 0.  0.
         23    2    1    2    0    0  0.19851262720E+02 -0.25792077947E+02  0.29287037212E+03  0.31064884639E+03  0.98337922402E+02 0.  0.
        -11    1    4    4    0    0  0.26756706546E+01 -0.18069635818E+02  0.11302886175E+01  0.18301598418E+02  0.51100000000E-03 0.  1.
         11    1    4    4    0    0  0.17175592065E+02 -0.77224421287E+01  0.29174008350E+03  0.29234724798E+03  0.51100000000E-03 0. -1.
    9000005    1    3    3    0    0 -0.32535419112E+02 -0.19421012400E+02  0.55184836600E+01  0.38303823325E+02  0.10000000000E+01 0.  0.
    9000005    1    3    3    0    0  0.12684156393E+02  0.45213090346E+02  0.19227852692E+03  0.19793216837E+03  0.10000000000E+01 0.  0.
<mgrwt>
<rscale>  0 0.12223165E+03</rscale>
<asrwt>0</asrwt>
<pdfrwt beam="1">  1        1 0.79811709E-01 0.12916573E+03</pdfrwt>
<pdfrwt beam="2">  1       -1 0.43244197E-02 0.12916573E+03</pdfrwt>
<totfact> 0.89476079E+03</totfact>
</mgrwt>
</event>
<event>
 8    2  0.1409546E-003  0.1299188E+03  0.7818608E-02  0.1241894E+00
         -1   -1    0    0    0  501 -0.00000000000E+00  0.00000000000E+00  0.10030839299E+03  0.10030839312E+03  0.50400000000E-02 0.  1.
          1   -1    0    0  501    0  0.00000000000E+00 -0.00000000000E+00 -0.13065679361E+03  0.13065679371E+03  0.50400000000E-02 0. -1.
         25    2    1    2    0    0  0.27337062342E+02  0.22508368283E+02 -0.32978779909E+02  0.13403915162E+03  0.12499981049E+03 0.  0.
         23    2    1    2    0    0 -0.27337062342E+02 -0.22508368283E+02  0.26303792888E+01  0.96926035208E+02  0.90187558929E+02 0.  0.
        -11    1    4    4    0    0  0.22283199005E+02  0.14585322630E+02 -0.17404037585E+02  0.31814668294E+02  0.51100000000E-03 0.  1.
         11    1    4    4    0    0 -0.49620261347E+02 -0.37093690913E+02  0.20034416874E+02  0.65111366914E+02  0.51100000000E-03 0. -1.
    9000005    1    3    3    0    0  0.58909308046E+02  0.69667249811E+01 -0.63891250845E+02  0.87189069074E+02  0.10000000000E+01 0.  0.
    9000005    1    3    3    0    0 -0.31572245705E+02  0.15541643302E+02  0.30912470935E+02  0.46850082547E+02  0.10000000000E+01 0.  0.
<mgrwt>
<rscale>  0 0.12073248E+03</rscale>
<asrwt>0</asrwt>
<pdfrwt beam="2">  1        1 0.20101045E-01 0.12991880E+03</pdfrwt>
<pdfrwt beam="1">  1       -1 0.15432061E-01 0.12991880E+03</pdfrwt>
<totfact> 0.73525621E+03</totfact>
</mgrwt>
</event>
<event>
 8    2  0.1409546E-003  0.1341031E+03  0.7818608E-02  0.1234209E+00
         -1   -1    0    0    0  501 -0.00000000000E+00  0.00000000000E+00  0.41389197300E+02  0.41389197606E+02  0.50400000000E-02 0.  1.
          1   -1    0    0  501    0  0.00000000000E+00 -0.00000000000E+00 -0.42919783512E+03  0.42919783515E+03  0.50400000000E-02 0. -1.
         25    2    1    2    0    0 -0.23664353801E+02  0.42430665851E+02 -0.32074178643E+03  0.34764770479E+03  0.12499307996E+03 0.  0.
         23    2    1    2    0    0  0.23664353801E+02 -0.42430665851E+02 -0.67066851391E+02  0.12293932797E+03  0.90861173008E+02 0.  0.
        -11    1    4    4    0    0 -0.27502837295E+02  0.73363309747E+01 -0.33801764442E+02  0.44190350656E+02  0.51100000000E-03 0.  1.
         11    1    4    4    0    0  0.51167191096E+02 -0.49766996825E+02 -0.33265086949E+02  0.78748977312E+02  0.51100000000E-03 0. -1.
    9000005    1    3    3    0    0 -0.39144910228E+02  0.32818860164E+02 -0.36427693361E+02  0.62748533233E+02  0.10000000000E+01 0.  0.
    9000005    1    3    3    0    0  0.15480556427E+02  0.96118056866E+01 -0.28431409306E+03  0.28489917155E+03  0.10000000000E+01 0.  0.
<mgrwt>
<rscale>  0 0.12555232E+03</rscale>
<asrwt>0</asrwt>
<pdfrwt beam="2">  1        1 0.66030433E-01 0.13410307E+03</pdfrwt>
<pdfrwt beam="1">  1       -1 0.63675691E-02 0.13410307E+03</pdfrwt>
<totfact> 0.64575337E+03</totfact>
</mgrwt>
</event>
<event>
 8    2  0.1409546E-003  0.2129815E+03  0.7818608E-02  0.1143301E+00
          1   -1    0    0  501    0  0.00000000000E+00  0.00000000000E+00  0.75066572507E+02  0.75066572677E+02  0.50400000000E-02 0. -1.
         -1   -1    0    0    0  501 -0.00000000000E+00 -0.00000000000E+00 -0.56248789698E+03  0.56248789701E+03  0.50400000000E-02 0.  1.
         25    2    1    2    0    0 -0.60358323291E+02  0.16153015704E+03 -0.20635348078E+03  0.29655164237E+03  0.12500399488E+03 0.  0.
         23    2    1    2    0    0  0.60358323291E+02 -0.16153015704E+03 -0.28106784369E+03  0.34100282732E+03  0.86883120672E+02 0.  0.
        -11    1    4    4    0    0  0.62237336493E+02 -0.11613530836E+03 -0.25878882942E+03  0.29040067861E+03  0.51100000000E-03 0.  1.
         11    1    4    4    0    0 -0.18790132018E+01 -0.45394848676E+02 -0.22279014270E+02  0.50602148709E+02  0.51100000000E-03 0. -1.
    9000005    1    3    3    0    0  0.38512314397E+02  0.57498109939E+02 -0.60538480063E+02  0.91951827470E+02  0.10000000000E+01 0.  0.
    9000005    1    3    3    0    0 -0.98870637688E+02  0.10403204710E+03 -0.14581500072E+03  0.20459981490E+03  0.10000000000E+01 0.  0.
<mgrwt>
<rscale>  0 0.20782434E+03</rscale>
<asrwt>0</asrwt>
<pdfrwt beam="1">  1        1 0.11548704E-01 0.21298150E+03</pdfrwt>
<pdfrwt beam="2">  1       -1 0.86536597E-01 0.21298150E+03</pdfrwt>
<totfact> 0.72880951E+02</totfact>
</mgrwt>
</event>
<event>
 8    2  0.1409546E-003  0.1252068E+03  0.7818608E-02  0.1250212E+00
          1   -1    0    0  501    0  0.00000000000E+00  0.00000000000E+00  0.64034511194E+02  0.64034511393E+02  0.50400000000E-02 0. -1.
         -1   -1    0    0    0  501 -0.00000000000E+00 -0.00000000000E+00 -0.19366320944E+03  0.19366320951E+03  0.50400000000E-02 0.  1.
         25    2    1    2    0    0 -0.38807401123E+01 -0.60200507211E+01 -0.10356152507E+03  0.16248612970E+03  0.12500180685E+03 0.  0.
         23    2    1    2    0    0  0.38807401123E+01  0.60200507211E+01 -0.26067173181E+02  0.95211591201E+02  0.91293200332E+02 0.  0.
        -11    1    4    4    0    0 -0.35868742133E+02  0.20859914357E+02  0.61370048039E+01  0.41944791302E+02  0.51100000000E-03 0. -1.
         11    1    4    4    0    0  0.39749482245E+02 -0.14839863636E+02 -0.32204177985E+02  0.53266799899E+02  0.51100000000E-03 0.  1.
    9000005    1    3    3    0    0 -0.48741442482E+01 -0.21686318049E+02 -0.12990893489E+03  0.13180055022E+03  0.10000000000E+01 0.  0.
    9000005    1    3    3    0    0  0.99340413586E+00  0.15666267328E+02  0.26347409825E+02  0.30685579483E+02  0.10000000000E+01 0.  0.
<mgrwt>
<rscale>  0 0.11578806E+03</rscale>
<asrwt>0</asrwt>
<pdfrwt beam="1">  1        1 0.98514634E-02 0.12520684E+03</pdfrwt>
<pdfrwt beam="2">  1       -1 0.29794340E-01 0.12520684E+03</pdfrwt>
<totfact> 0.63840426E+03</totfact>
</mgrwt>
</event>
<event>
 8    2  0.1409546E-003  0.2760649E+03  0.7818608E-02  0.1099736E+00
          1   -1    0    0  501    0  0.00000000000E+00  0.00000000000E+00  0.12896114843E+04  0.12896114843E+04  0.50400000000E-02 0. -1.
         -1   -1    0    0    0  501 -0.00000000000E+00 -0.00000000000E+00 -0.66856483216E+02  0.66856483406E+02  0.50400000000E-02 0.  1.
         25    2    1    2    0    0  0.24241018893E+03  0.42716996078E+02  0.35467773513E+03  0.44945313362E+03  0.12499752825E+03 0.  0.
         23    2    1    2    0    0 -0.24241018893E+03 -0.42716996078E+02  0.86807726594E+03  0.90701483409E+03  0.92359775689E+02 0.  0.
        -11    1    4    4    0    0 -0.18573755471E+03  0.93074594803E+01  0.61276801312E+03  0.64036685262E+03  0.51100000000E-03 0. -1.
         11    1    4    4    0    0 -0.56672634215E+02 -0.52024455558E+02  0.25530925282E+03  0.26664798147E+03  0.51100000000E-03 0.  1.
    9000005    1    3    3    0    0  0.19855521129E+03 -0.18562608540E+02  0.23736010003E+03  0.31001541809E+03  0.10000000000E+01 0.  0.
    9000005    1    3    3    0    0  0.43854977642E+02  0.61279604618E+02  0.11731763510E+03  0.13943771553E+03  0.10000000000E+01 0.  0.
<mgrwt>
<rscale>  0 0.27271379E+03</rscale>
<asrwt>0</asrwt>
<pdfrwt beam="1">  1        1 0.19840176E+00 0.27606489E+03</pdfrwt>
<pdfrwt beam="2">  1       -1 0.10285613E-01 0.27606489E+03</pdfrwt>
<totfact> 0.58004114E+02</totfact>
</mgrwt>
</event>
<event>
 8    2  0.1409546E-003  0.1512248E+03  0.7818608E-02  0.1207970E+00
         -1   -1    0    0    0  501 -0.00000000000E+00  0.00000000000E+00  0.38858058707E+03  0.38858058711E+03  0.50400000000E-02 0.  1.
          1   -1    0    0  501    0  0.00000000000E+00 -0.00000000000E+00 -0.49951274024E+02  0.49951274278E+02  0.50400000000E-02 0. -1.
         25    2    1    2    0    0  0.82717247094E+02  0.20048838079E+02  0.21667174306E+03  0.26422640229E+03  0.12499939419E+03 0.  0.
         23    2    1    2    0    0 -0.82717247094E+02 -0.20048838079E+02  0.12195756999E+03  0.17430545910E+03  0.90910094703E+02 0.  0.
        -11    1    4    4    0    0 -0.95212588542E+02 -0.31414489159E+02  0.77423198216E+02  0.12667540712E+03  0.51100000000E-03 0. -1.
         11    1    4    4    0    0  0.12495341448E+02  0.11365651080E+02  0.44534371773E+02  0.47630051982E+02  0.51100000000E-03 0.  1.
    9000005    1    3    3    0    0  0.11397774351E+03  0.23096744473E+02  0.14433745761E+03  0.18536096485E+03  0.10000000000E+01 0.  0.
    9000005    1    3    3    0    0 -0.31260496421E+02 -0.30479063936E+01  0.72334285451E+02  0.78865437433E+02  0.10000000000E+01 0.  0.
<mgrwt>
<rscale>  0 0.14405867E+03</rscale>
<asrwt>0</asrwt>
<pdfrwt beam="2">  1        1 0.76848116E-02 0.15122482E+03</pdfrwt>
<pdfrwt beam="1">  1       -1 0.59781628E-01 0.15122482E+03</pdfrwt>
<totfact> 0.26135163E+03</totfact>
</mgrwt>
</event>
<event>
 8    2  0.1409546E-003  0.1692616E+03  0.7818608E-02  0.1185862E+00
         -1   -1    0    0    0  501 -0.00000000000E+00  0.00000000000E+00  0.83073062252E+02  0.83073062405E+02  0.50400000000E-02 0.  1.
          1   -1    0    0  501    0  0.00000000000E+00 -0.00000000000E+00 -0.29673266988E+03  0.29673266992E+03  0.50400000000E-02 0. -1.
         25    2    1    2    0    0  0.11371899470E+03 -0.95970802355E+01 -0.12913438939E+03  0.21289714273E+03  0.12500155662E+03 0.  0.
         23    2    1    2    0    0 -0.11371899470E+03  0.95970802355E+01 -0.84525218238E+02  0.16690858959E+03  0.87691795845E+02 0.  0.
        -11    1    4    4    0    0 -0.58659678522E+02  0.19172010860E+02 -0.91733254802E+02  0.11056000145E+03  0.51100000000E-03 0. -1.
         11    1    4    4    0    0 -0.55059316175E+02 -0.95749306244E+01  0.72080365636E+01  0.56348588141E+02  0.51100000000E-03 0.  1.
    9000005    1    3    3    0    0 -0.56318402106E+01 -0.75534316328E+01  0.19845885449E+02  0.21991614830E+02  0.10000000000E+01 0.  0.
    9000005    1    3    3    0    0  0.11935083491E+03 -0.20436486027E+01 -0.14898027483E+03  0.19090552790E+03  0.10000000000E+01 0.  0.
<mgrwt>
<rscale>  0 0.16253684E+03</rscale>
<asrwt>0</asrwt>
<pdfrwt beam="2">  1        1 0.45651179E-01 0.16926164E+03</pdfrwt>
<pdfrwt beam="1">  1       -1 0.12780471E-01 0.16926164E+03</pdfrwt>
<totfact> 0.35952497E+03</totfact>
</mgrwt>
</event>
<event>
 8    2  0.1409546E-003  0.1446861E+03  0.7818608E-02  0.1217284E+00
         -1   -1    0    0    0  501 -0.00000000000E+00  0.00000000000E+00  0.13364087283E+02  0.13364088233E+02  0.50400000000E-02 0.  1.
          1   -1    0    0  501    0  0.00000000000E+00 -0.00000000000E+00 -0.15536390128E+04  0.15536390128E+04  0.50400000000E-02 0. -1.
         25    2    1    2    0    0  0.70030474359E+02  0.20108714810E+02 -0.50939613156E+03  0.52954554615E+03  0.12500175541E+03 0.  0.
         23    2    1    2    0    0 -0.70030474359E+02 -0.20108714810E+02 -0.10308787940E+04  0.10374575549E+04  0.91095897872E+02 0.  0.
        -11    1    4    4    0    0  0.19580406854E+01 -0.26035519017E+02 -0.59987938803E+03  0.60044730190E+03  0.51100000000E-03 0. -1.
         11    1    4    4    0    0 -0.71988515045E+02  0.59268042076E+01 -0.43099940597E+03  0.43701025303E+03  0.51100000000E-03 0.  1.
    9000005    1    3    3    0    0  0.56605215978E+00 -0.12683417130E+02  0.15744459576E+01  0.12832317220E+02  0.10000000000E+01 0.  0.
    9000005    1    3    3    0    0  0.69464422199E+02  0.32792131940E+02 -0.51097057751E+03  0.51671322893E+03  0.10000000000E+01 0.  0.
<mgrwt>
<rscale>  0 0.13710104E+03</rscale>
<asrwt>0</asrwt>
<pdfrwt beam="2">  1        1 0.23902124E+00 0.14468610E+03</pdfrwt>
<pdfrwt beam="1">  1       -1 0.20560147E-02 0.14468610E+03</pdfrwt>
<totfact> 0.42899887E+03</totfact>
</mgrwt>
</event>
<event>
 8    2  0.1409546E-003  0.1654973E+03  0.7818608E-02  0.1189333E+00
          1   -1    0    0  501    0  0.00000000000E+00  0.00000000000E+00  0.89275816369E+03  0.89275816371E+03  0.50400000000E-02 0. -1.
         -1   -1    0    0    0  501 -0.00000000000E+00 -0.00000000000E+00 -0.28898945992E+02  0.28898946431E+02  0.50400000000E-02 0.  1.
         25    2    1    2    0    0 -0.67580213758E+02  0.84834454233E+02  0.59187205736E+03  0.61457456637E+03  0.12500158168E+03 0.  0.
         23    2    1    2    0    0  0.67580213758E+02 -0.84834454233E+02  0.27198716034E+03  0.30708254377E+03  0.92513260580E+02 0.  0.
        -11    1    4    4    0    0  0.86686132832E+01 -0.42973526656E+02  0.20119991680E+03  0.20592055597E+03  0.51100000000E-03 0. -1.
         11    1    4    4    0    0  0.58911600475E+02 -0.41860927576E+02  0.70787243537E+02  0.10116198780E+03  0.51100000000E-03 0.  1.
    9000005    1    3    3    0    0 -0.30791948928E+02  0.34109120674E+02  0.50696488372E+03  0.50904417250E+03  0.10000000000E+01 0.  0.
    9000005    1    3    3    0    0 -0.36788264831E+02  0.50725333558E+02  0.84907173647E+02  0.10553039387E+03  0.10000000000E+01 0.  0.
<mgrwt>
<rscale>  0 0.15943763E+03</rscale>
<asrwt>0</asrwt>
<pdfrwt beam="1">  1        1 0.13734739E+00 0.16549733E+03</pdfrwt>
<pdfrwt beam="2">  1       -1 0.44459922E-02 0.16549733E+03</pdfrwt>
<totfact> 0.39997002E+03</totfact>
</mgrwt>
</event>
<event>
 8    2  0.1409546E-003  0.1282631E+03  0.7818608E-02  0.1243850E+00
          1   -1    0    0  501    0  0.00000000000E+00  0.00000000000E+00  0.81724756146E+03  0.81724756147E+03  0.50400000000E-02 0. -1.
         -1   -1    0    0    0  501 -0.00000000000E+00 -0.00000000000E+00 -0.15951686821E+02  0.15951687617E+02  0.50400000000E-02 0.  1.
         25    2    1    2    0    0 -0.28389944587E+02  0.43973839034E+01  0.52501403141E+03  0.54045459080E+03  0.12500442235E+03 0.  0.
         23    2    1    2    0    0  0.28389944587E+02 -0.43973839034E+01  0.27628184323E+03  0.29274465829E+03  0.92425386761E+02 0.  0.
        -11    1    4    4    0    0 -0.31082885593E+02  0.75280610077E+01  0.13946196914E+03  0.14308199857E+03  0.51100000000E-03 0. -1.
         11    1    4    4    0    0  0.59472830180E+02 -0.11925444911E+02  0.13681987409E+03  0.14966265971E+03  0.51100000000E-03 0.  1.
    9000005    1    3    3    0    0 -0.10169340890E+02 -0.48137969999E+02  0.96268092111E+02  0.10811672030E+03  0.10000000000E+01 0.  0.
    9000005    1    3    3    0    0 -0.18220603697E+02  0.52535353902E+02  0.42874593930E+03  0.43233787050E+03  0.10000000000E+01 0.  0.
<mgrwt>
<rscale>  0 0.11954487E+03</rscale>
<asrwt>0</asrwt>
<pdfrwt beam="1">  1        1 0.12573039E+00 0.12826313E+03</pdfrwt>
<pdfrwt beam="2">  1       -1 0.24541058E-02 0.12826313E+03</pdfrwt>
<totfact> 0.10812759E+04</totfact>
</mgrwt>
</event>
<event>
 8    2  0.1409546E-003  0.2115281E+03  0.7818608E-02  0.1144130E+00
          1   -1    0    0  501    0  0.00000000000E+00  0.00000000000E+00  0.83676884873E+03  0.83676884875E+03  0.50400000000E-02 0. -1.
         -1   -1    0    0    0  501 -0.00000000000E+00 -0.00000000000E+00 -0.81501413917E+02  0.81501414073E+02  0.50400000000E-02 0.  1.
         25    2    1    2    0    0  0.28314919319E+02 -0.16827622118E+03  0.97881788194E+02  0.23307718049E+03  0.12500202532E+03 0.  0.
         23    2    1    2    0    0 -0.28314919319E+02  0.16827622118E+03  0.65738564662E+03  0.68519308233E+03  0.90636915293E+02 0.  0.
        -11    1    4    4    0    0 -0.12657133532E+02  0.10027889446E+03  0.53366469531E+03  0.54315197388E+03  0.51100000000E-03 0.  1.
         11    1    4    4    0    0 -0.15657785787E+02  0.67997326718E+02  0.12372095131E+03  0.14204110845E+03  0.51100000000E-03 0. -1.
    9000005    1    3    3    0    0  0.26545375078E+02 -0.25854375559E+02 -0.25204827394E+02  0.44826208824E+02  0.10000000000E+01 0.  0.
    9000005    1    3    3    0    0  0.17695442408E+01 -0.14242184562E+03  0.12308661559E+03  0.18825097167E+03  0.10000000000E+01 0.  0.
<mgrwt>
<rscale>  0 0.20679432E+03</rscale>
<asrwt>0</asrwt>
<pdfrwt beam="1">  1        1 0.12873367E+00 0.21152808E+03</pdfrwt>
<pdfrwt beam="2">  1       -1 0.12538679E-01 0.21152808E+03</pdfrwt>
<totfact> 0.92127787E+02</totfact>
</mgrwt>
</event>
<event>
 8    2  0.1409546E-003  0.1927786E+03  0.7818608E-02  0.1160462E+00
         -1   -1    0    0    0  501 -0.00000000000E+00  0.00000000000E+00  0.17022290661E+02  0.17022291407E+02  0.50400000000E-02 0. -1.
          1   -1    0    0  501    0  0.00000000000E+00 -0.00000000000E+00 -0.24700333418E+04  0.24700333418E+04  0.50400000000E-02 0.  1.
         25    2    1    2    0    0 -0.14639134131E+03  0.10405213437E+02 -0.71971559286E+03  0.74508665887E+03  0.12499960533E+03 0.  0.
         23    2    1    2    0    0  0.14639134131E+03 -0.10405213437E+02 -0.17332954583E+04  0.17419689743E+04  0.92758118920E+02 0.  0.
        -11    1    4    4    0    0  0.10445982956E+03 -0.42669471780E+02 -0.90891319376E+03  0.91589067776E+03  0.51100000000E-03 0. -1.
         11    1    4    4    0    0  0.41931511753E+02  0.32264258343E+02 -0.82438226450E+03  0.82607829657E+03  0.51100000000E-03 0.  1.
    9000005    1    3    3    0    0 -0.15546561904E+03  0.34288316097E+02 -0.67552819689E+03  0.69403500785E+03  0.10000000000E+01 0.  0.
    9000005    1    3    3    0    0  0.90742777255E+01 -0.23883102660E+02 -0.44187395969E+02  0.51051651015E+02  0.10000000000E+01 0.  0.
<mgrwt>
<rscale>  0 0.18779846E+03</rscale>
<asrwt>0</asrwt>
<pdfrwt beam="2">  1        1 0.38000485E+00 0.19277862E+03</pdfrwt>
<pdfrwt beam="1">  1       -1 0.26188160E-02 0.19277862E+03</pdfrwt>
<totfact> 0.77398881E+02</totfact>
</mgrwt>
</event>
<event>
 8    2  0.1409546E-003  0.1808297E+03  0.7818608E-02  0.1171341E+00
         -1   -1    0    0    0  501 -0.00000000000E+00  0.00000000000E+00  0.10652736667E+03  0.10652736679E+03  0.50400000000E-02 0.  1.
          1   -1    0    0  501    0  0.00000000000E+00 -0.00000000000E+00 -0.30281264316E+03  0.30281264320E+03  0.50400000000E-02 0. -1.
         25    2    1    2    0    0  0.91716704089E+02  0.93076324928E+02 -0.44822538226E+02  0.18630198360E+03  0.12499685232E+03 0.  0.
         23    2    1    2    0    0 -0.91716704089E+02 -0.93076324928E+02 -0.15146273826E+03  0.22303802638E+03  0.98639971913E+02 0.  0.
        -11    1    4    4    0    0  0.14598197244E+01 -0.58906401524E+02 -0.85625630002E+02  0.10394153995E+03  0.51100000000E-03 0. -1.
         11    1    4    4    0    0 -0.93176523813E+02 -0.34169923403E+02 -0.65837108262E+02  0.11909648643E+03  0.51100000000E-03 0.  1.
    9000005    1    3    3    0    0  0.73951007956E+02  0.81309797965E+02  0.25484822708E+02  0.11282956621E+03  0.10000000000E+01 0.  0.
    9000005    1    3    3    0    0  0.17765696133E+02  0.11766526963E+02 -0.70307360934E+02  0.73472417391E+02  0.10000000000E+01 0.  0.
<mgrwt>
<rscale>  0 0.17639215E+03</rscale>
<asrwt>0</asrwt>
<pdfrwt beam="2">  1        1 0.46586560E-01 0.18082967E+03</pdfrwt>
<pdfrwt beam="1">  1       -1 0.16388826E-01 0.18082967E+03</pdfrwt>
<totfact> 0.23765959E+03</totfact>
</mgrwt>
</event>
<event>
 8    2  0.1409546E-003  0.1620376E+03  0.7818608E-02  0.1193718E+00
         -1   -1    0    0    0  501 -0.00000000000E+00  0.00000000000E+00  0.10313770491E+02  0.10313771722E+02  0.50400000000E-02 0.  1.
          1   -1    0    0  501    0  0.00000000000E+00 -0.00000000000E+00 -0.21849072580E+04  0.21849072580E+04  0.50400000000E-02 0. -1.
         25    2    1    2    0    0 -0.84928687222E+02  0.58544941472E+02 -0.11259768713E+04  0.11375764166E+04  0.12496318172E+03 0.  0.
         23    2    1    2    0    0  0.84928687222E+02 -0.58544941472E+02 -0.10486166162E+04  0.10576446131E+04  0.91514631799E+02 0.  0.
        -11    1    4    4    0    0  0.62651566842E+02 -0.53837556943E+02 -0.10054804337E+04  0.10088679814E+04  0.51100000000E-03 0. -1.
         11    1    4    4    0    0  0.22277120380E+02 -0.47073845293E+01 -0.43136182543E+02  0.48776631764E+02  0.51100000000E-03 0.  1.
    9000005    1    3    3    0    0 -0.31217540920E+02  0.68384782621E+02 -0.28247346690E+03  0.29230681289E+03  0.10000000000E+01 0.  0.
    9000005    1    3    3    0    0 -0.53711146302E+02 -0.98398411495E+01 -0.84350340439E+03  0.84526960369E+03  0.10000000000E+01 0.  0.
<mgrwt>
<rscale>  0 0.15563234E+03</rscale>
<asrwt>0</asrwt>
<pdfrwt beam="2">  1        1 0.33613921E+00 0.16203762E+03</pdfrwt>
<pdfrwt beam="1">  1       -1 0.15867358E-02 0.16203762E+03</pdfrwt>
<totfact> 0.24625619E+03</totfact>
</mgrwt>
</event>
<event>
 8    2  0.1409546E-003  0.1717144E+03  0.7818608E-02  0.1181957E+00
         -1   -1    0    0    0  501 -0.00000000000E+00  0.00000000000E+00  0.43946498924E+03  0.43946498927E+03  0.50400000000E-02 0.  1.
          1   -1    0    0  501    0  0.00000000000E+00 -0.00000000000E+00 -0.63406656044E+02  0.63406656244E+02  0.50400000000E-02 0. -1.
         25    2    1    2    0    0  0.10228865266E+03 -0.58290657909E+02  0.26556240375E+03  0.31624236066E+03  0.12500028451E+03 0.  0.
         23    2    1    2    0    0 -0.10228865266E+03  0.58290657909E+02  0.11049592944E+03  0.18662928485E+03  0.93596849714E+02 0.  0.
        -11    1    4    4    0    0 -0.11844406367E+03  0.47666434836E+02  0.10781565085E+03  0.16710864669E+03  0.51100000000E-03 0.  1.
         11    1    4    4    0    0  0.16155411004E+02  0.10624223073E+02  0.26802785845E+01  0.19520638160E+02  0.51100000000E-03 0. -1.
    9000005    1    3    3    0    0  0.19546762030E+02 -0.56258506172E+02  0.20554053414E+03  0.21399767895E+03  0.10000000000E+01 0.  0.
    9000005    1    3    3    0    0  0.82741890634E+02 -0.20321517371E+01  0.60021869617E+02  0.10224468171E+03  0.10000000000E+01 0.  0.
<mgrwt>
<rscale>  0 0.16611903E+03</rscale>
<asrwt>0</asrwt>
<pdfrwt beam="2">  1        1 0.97548701E-02 0.17171442E+03</pdfrwt>
<pdfrwt beam="1">  1       -1 0.67609999E-01 0.17171442E+03</pdfrwt>
<totfact> 0.15031662E+03</totfact>
</mgrwt>
</event>
<event>
 8    2  0.1409546E-003  0.1347056E+03  0.7818608E-02  0.1231279E+00
          1   -1    0    0  501    0  0.00000000000E+00  0.00000000000E+00  0.51631651246E+03  0.51631651248E+03  0.50400000000E-02 0. -1.
         -1   -1    0    0    0  501 -0.00000000000E+00 -0.00000000000E+00 -0.31202455070E+02  0.31202455477E+02  0.50400000000E-02 0.  1.
         25    2    1    2    0    0 -0.39665805966E+02 -0.30779996028E+02  0.18708145045E+03  0.23053213550E+03  0.12499924832E+03 0.  0.
         23    2    1    2    0    0  0.39665805966E+02  0.30779996028E+02  0.29803260694E+03  0.31698683246E+03  0.95584689319E+02 0.  0.
        -11    1    4    4    0    0  0.66545249642E+02  0.41175791700E+02  0.19857754149E+03  0.21344028687E+03  0.51100000000E-03 0.  1.
         11    1    4    4    0    0 -0.26879443676E+02 -0.10395795672E+02  0.99455065449E+02  0.10354654559E+03  0.51100000000E-03 0. -1.
    9000005    1    3    3    0    0  0.12124284276E+02 -0.52207560477E+02  0.25227592119E+02  0.59245751277E+02  0.10000000000E+01 0.  0.
    9000005    1    3    3    0    0 -0.51790090242E+02  0.21427564449E+02  0.16185385833E+03  0.17128638422E+03  0.10000000000E+01 0.  0.
<mgrwt>
<rscale>  0 0.12745697E+03</rscale>
<asrwt>0</asrwt>
<pdfrwt beam="1">  1        1 0.79433299E-01 0.13470559E+03</pdfrwt>
<pdfrwt beam="2">  1       -1 0.48003784E-02 0.13470559E+03</pdfrwt>
<totfact> 0.77409461E+03</totfact>
</mgrwt>
</event>
<event>
 8    2  0.1409546E-003  0.1277320E+03  0.7818608E-02  0.1246079E+00
          1   -1    0    0  501    0  0.00000000000E+00  0.00000000000E+00  0.54159469412E+03  0.54159469414E+03  0.50400000000E-02 0. -1.
         -1   -1    0    0    0  501 -0.00000000000E+00 -0.00000000000E+00 -0.30742372411E+02  0.30742372825E+02  0.50400000000E-02 0.  1.
         25    2    1    2    0    0 -0.20139488579E+02 -0.16869742000E+02  0.43002590683E+03  0.44859528789E+03  0.12500105830E+03 0.  0.
         23    2    1    2    0    0  0.20139488579E+02  0.16869742000E+02  0.80826414879E+02  0.12374177908E+03  0.89938486489E+02 0.  0.
        -11    1    4    4    0    0  0.30787873660E+02 -0.88903251210E+01 -0.59543557611E+01  0.32594254065E+02  0.51100000000E-03 0.  1.
         11    1    4    4    0    0 -0.10648385080E+02  0.25760067121E+02  0.86780770641E+02  0.91147525014E+02  0.51100000000E-03 0. -1.
    9000005    1    3    3    0    0  0.17557329094E+02 -0.27196466076E+02  0.39431516407E+03  0.39564296555E+03  0.10000000000E+01 0.  0.
    9000005    1    3    3    0    0 -0.37696817673E+02  0.10326724076E+02  0.35710742755E+02  0.52952322338E+02  0.10000000000E+01 0.  0.
<mgrwt>
<rscale>  0 0.11821049E+03</rscale>
<asrwt>0</asrwt>
<pdfrwt beam="1">  1        1 0.83322258E-01 0.12773195E+03</pdfrwt>
<pdfrwt beam="2">  1       -1 0.47295959E-02 0.12773195E+03</pdfrwt>
<totfact> 0.74045691E+03</totfact>
</mgrwt>
</event>
<event>
 8    2  0.1409546E-003  0.1278927E+03  0.7818608E-02  0.1246537E+00
         -1   -1    0    0    0  501 -0.00000000000E+00  0.00000000000E+00  0.91515497064E+03  0.91515497066E+03  0.50400000000E-02 0. -1.
          1   -1    0    0  501    0  0.00000000000E+00 -0.00000000000E+00 -0.14068441699E+02  0.14068442602E+02  0.50400000000E-02 0.  1.
         25    2    1    2    0    0  0.26474743025E+02 -0.55848092138E+01  0.62829679580E+03  0.64118126775E+03  0.12499780957E+03 0.  0.
         23    2    1    2    0    0 -0.26474743025E+02  0.55848092138E+01  0.27278973315E+03  0.28804214551E+03  0.88441715069E+02 0.  0.
        -11    1    4    4    0    0 -0.50438879864E+02 -0.10963467297E+02  0.97213059614E+02  0.11006660337E+03  0.51100000000E-03 0.  1.
         11    1    4    4    0    0  0.23964136838E+02  0.16548276510E+02  0.17557667353E+03  0.17797554214E+03  0.51100000000E-03 0. -1.
    9000005    1    3    3    0    0  0.54351245190E+02 -0.40388263872E+02  0.51479416302E+03  0.51922952534E+03  0.10000000000E+01 0.  0.
    9000005    1    3    3    0    0 -0.27876502164E+02  0.34803454658E+02  0.11350263278E+03  0.12195174241E+03  0.10000000000E+01 0.  0.
<mgrwt>
<rscale>  0 0.11793856E+03</rscale>
<asrwt>0</asrwt>
<pdfrwt beam="2">  1        1 0.21643750E-02 0.12789275E+03</pdfrwt>
<pdfrwt beam="1">  1       -1 0.14079312E+00 0.12789275E+03</pdfrwt>
<totfact> 0.23231026E+03</totfact>
</mgrwt>
</event>
