<event>
 5    1  0.1448308E-002  0.1249982E+03  0.7818608E-02  0.1235072E+00
         -4   -1    0    0    0  501 -0.00000000000E+00  0.00000000000E+00  0.63110200977E+03  0.63110328761E+03  0.12700000000E+01 0.  1.
          4   -1    0    0  501    0  0.00000000000E+00 -0.00000000000E+00 -0.61229446992E+01  0.62532672891E+01  0.12700000000E+01 0.  1.
         25    2    1    2    0    0  0.00000000000E+00  0.00000000000E+00  0.62497906507E+03  0.63735655490E+03  0.12499818519E+03 0.  0.
    9000005    1    3    3    0    0 -0.15800021685E+02 -0.16803254307E+01  0.43239660367E+01  0.16497298600E+02  0.10000000000E+01 0.  0.
    9000005    1    3    3    0    0  0.15800021685E+02  0.16803254307E+01  0.62065509903E+03  0.62085925630E+03  0.10000000000E+01 0.  0.
<mgrwt>
<rscale>  0 0.12499819E+03</rscale>
<asrwt>0</asrwt>
<pdfrwt beam="2">  1        4 0.15471865E-02 0.12499819E+03</pdfrwt>
<pdfrwt beam="1">  1       -4 0.15779193E+00 0.12499819E+03</pdfrwt>
<totfact> 0.68979285E+02</totfact>
</mgrwt>
</event>
<event>
 5    1  0.1448308E-002  0.1249985E+03  0.7818608E-02  0.1235072E+00
         -4   -1    0    0    0  501 -0.00000000000E+00  0.00000000000E+00  0.13347837254E+03  0.13348441421E+03  0.12700000000E+01 0.  1.
          4   -1    0    0  501    0  0.00000000000E+00 -0.00000000000E+00 -0.29243837001E+02  0.29271400761E+02  0.12700000000E+01 0.  1.
         25    2    1    2    0    0  0.00000000000E+00  0.00000000000E+00  0.10423453554E+03  0.16275581497E+03  0.12499846762E+03 0.  0.
    9000005    1    3    3    0    0  0.23047897551E+02  0.57819580089E+02  0.59348675166E+02  0.86009154554E+02  0.10000000000E+01 0.  0.
    9000005    1    3    3    0    0 -0.23047897551E+02 -0.57819580089E+02  0.44885860374E+02  0.76746660414E+02  0.10000000000E+01 0.  0.
<mgrwt>
<rscale>  0 0.12499847E+03</rscale>
<asrwt>0</asrwt>
<pdfrwt beam="2">  1        4 0.73151601E-02 0.12499847E+03</pdfrwt>
<pdfrwt beam="1">  1       -4 0.33373793E-01 0.12499847E+03</pdfrwt>
<totfact> 0.17929466E+03</totfact>
</mgrwt>
</event>
<event>
 5    1  0.1448308E-002  0.1249996E+03  0.7818608E-02  0.1235070E+00
         -4   -1    0    0    0  501 -0.00000000000E+00  0.00000000000E+00  0.11928621082E+03  0.11929297126E+03  0.12700000000E+01 0.  1.
          4   -1    0    0  501    0  0.00000000000E+00 -0.00000000000E+00 -0.32726653823E+02  0.32751286546E+02  0.12700000000E+01 0.  1.
         25    2    1    2    0    0  0.00000000000E+00  0.00000000000E+00  0.86559556994E+02  0.15204425780E+03  0.12499959769E+03 0.  0.
    9000005    1    3    3    0    0  0.28136038832E+02  0.31966147458E+02 -0.12351196224E+02  0.44351136543E+02  0.10000000000E+01 0.  0.
    9000005    1    3    3    0    0 -0.28136038832E+02 -0.31966147458E+02  0.98910753218E+02  0.10769312126E+03  0.10000000000E+01 0.  0.
<mgrwt>
<rscale>  0 0.12499960E+03</rscale>
<asrwt>0</asrwt>
<pdfrwt beam="2">  1        4 0.81855877E-02 0.12499960E+03</pdfrwt>
<pdfrwt beam="1">  1       -4 0.29825477E-01 0.12499960E+03</pdfrwt>
<totfact> 0.18438892E+03</totfact>
</mgrwt>
</event>
<event>
 5    1  0.1448308E-002  0.1249992E+03  0.7818608E-02  0.1235071E+00
         -4   -1    0    0    0  501 -0.00000000000E+00  0.00000000000E+00  0.13221758763E+02  0.13282612875E+02  0.12700000000E+01 0. -1.
          4   -1    0    0  501    0  0.00000000000E+00 -0.00000000000E+00 -0.29469646573E+03  0.29469920226E+03  0.12700000000E+01 0. -1.
         25    2    1    2    0    0  0.00000000000E+00  0.00000000000E+00 -0.28147470697E+03  0.30798181514E+03  0.12499915117E+03 0.  0.
    9000005    1    3    3    0    0 -0.50677933114E+02  0.20600758412E+02 -0.21516718065E+03  0.22201477379E+03  0.10000000000E+01 0.  0.
    9000005    1    3    3    0    0  0.50677933114E+02 -0.20600758412E+02 -0.66307526319E+02  0.85967041350E+02  0.10000000000E+01 0.  0.
<mgrwt>
<rscale>  0 0.12499915E+03</rscale>
<asrwt>0</asrwt>
<pdfrwt beam="2">  1        4 0.73682044E-01 0.12499915E+03</pdfrwt>
<pdfrwt beam="1">  1       -4 0.33133895E-02 0.12499915E+03</pdfrwt>
<totfact> 0.12750513E+03</totfact>
</mgrwt>
</event>
<event>
 5    1  0.1448308E-002  0.1249893E+03  0.7818608E-02  0.1235086E+00
         -4   -1    0    0    0  501 -0.00000000000E+00  0.00000000000E+00  0.20093278818E+02  0.20133374125E+02  0.12700000000E+01 0. -1.
          4   -1    0    0  501    0  0.00000000000E+00 -0.00000000000E+00 -0.19413657670E+03  0.19414073069E+03  0.12700000000E+01 0. -1.
         25    2    1    2    0    0  0.00000000000E+00  0.00000000000E+00 -0.17404329788E+03  0.21427410481E+03  0.12498928937E+03 0.  0.
    9000005    1    3    3    0    0  0.37860628422E+02 -0.17069469797E+02 -0.69822381711E+01  0.42125356183E+02  0.10000000000E+01 0.  0.
    9000005    1    3    3    0    0 -0.37860628422E+02  0.17069469797E+02 -0.16706105971E+03  0.17214874863E+03  0.10000000000E+01 0.  0.
<mgrwt>
<rscale>  0 0.12498929E+03</rscale>
<asrwt>0</asrwt>
<pdfrwt beam="2">  1        4 0.48539670E-01 0.12498929E+03</pdfrwt>
<pdfrwt beam="1">  1       -4 0.50288515E-02 0.12498929E+03</pdfrwt>
<totfact> 0.15769902E+03</totfact>
</mgrwt>
</event>
<event>
 5    1  0.1448308E-002  0.1250013E+03  0.7818608E-02  0.1235067E+00
          4   -1    0    0  501    0  0.00000000000E+00  0.00000000000E+00  0.44129178489E+03  0.44129361236E+03  0.12700000000E+01 0. -1.
         -4   -1    0    0    0  501 -0.00000000000E+00 -0.00000000000E+00 -0.88046315206E+01  0.88957538305E+01  0.12700000000E+01 0. -1.
         25    2    1    2    0    0  0.00000000000E+00  0.00000000000E+00  0.43248715337E+03  0.45018936619E+03  0.12500131041E+03 0.  0.
    9000005    1    3    3    0    0  0.19559799516E+02  0.57698007229E+02  0.26636575071E+03  0.27324596785E+03  0.10000000000E+01 0.  0.
    9000005    1    3    3    0    0 -0.19559799516E+02 -0.57698007229E+02  0.16612140266E+03  0.17694339835E+03  0.10000000000E+01 0.  0.
<mgrwt>
<rscale>  0 0.12500131E+03</rscale>
<asrwt>0</asrwt>
<pdfrwt beam="1">  1        4 0.11033456E+00 0.12500131E+03</pdfrwt>
<pdfrwt beam="2">  1       -4 0.22127768E-02 0.12500131E+03</pdfrwt>
<totfact> 0.95980111E+02</totfact>
</mgrwt>
</event>
<event>
 5    1  0.1448308E-002  0.1250001E+03  0.7818608E-02  0.1235069E+00
          4   -1    0    0  501    0  0.00000000000E+00  0.00000000000E+00  0.48582818625E+01  0.50215338946E+01  0.12700000000E+01 0. -1.
         -4   -1    0    0    0  501 -0.00000000000E+00 -0.00000000000E+00 -0.79059084911E+03  0.79059186917E+03  0.12700000000E+01 0. -1.
         25    2    1    2    0    0  0.00000000000E+00  0.00000000000E+00 -0.78573256725E+03  0.79561340306E+03  0.12500007961E+03 0.  0.
    9000005    1    3    3    0    0  0.11265882119E+02 -0.58375728387E+02 -0.51539839173E+03  0.51881706599E+03  0.10000000000E+01 0.  0.
    9000005    1    3    3    0    0 -0.11265882119E+02  0.58375728387E+02 -0.27033417551E+03  0.27679633707E+03  0.10000000000E+01 0.  0.
<mgrwt>
<rscale>  0 0.12500008E+03</rscale>
<asrwt>0</asrwt>
<pdfrwt beam="1">  1        4 0.12351072E-02 0.12500008E+03</pdfrwt>
<pdfrwt beam="2">  1       -4 0.19766781E+00 0.12500008E+03</pdfrwt>
<totfact> 0.52867179E+02</totfact>
</mgrwt>
</event>
<event>
 5    1  0.1448308E-002  0.1249850E+03  0.7818608E-02  0.1235093E+00
         -4   -1    0    0    0  501 -0.00000000000E+00  0.00000000000E+00  0.40825532378E+03  0.40825729913E+03  0.12700000000E+01 0. -1.
          4   -1    0    0  501    0  0.00000000000E+00 -0.00000000000E+00 -0.95216909336E+01  0.96060136495E+01  0.12700000000E+01 0. -1.
         25    2    1    2    0    0  0.00000000000E+00  0.00000000000E+00  0.39873363284E+03  0.41786331278E+03  0.12498495192E+03 0.  0.
    9000005    1    3    3    0    0  0.46501617597E+02  0.41258517651E+02  0.17831622327E+03  0.18884475422E+03  0.10000000000E+01 0.  0.
    9000005    1    3    3    0    0 -0.46501617597E+02 -0.41258517651E+02  0.22041740958E+03  0.22901855855E+03  0.10000000000E+01 0.  0.
<mgrwt>
<rscale>  0 0.12498495E+03</rscale>
<asrwt>0</asrwt>
<pdfrwt beam="2">  1        4 0.23912101E-02 0.12498495E+03</pdfrwt>
<pdfrwt beam="1">  1       -4 0.10207461E+00 0.12498495E+03</pdfrwt>
<totfact> 0.10211833E+03</totfact>
</mgrwt>
</event>
<event>
 5    1  0.1448308E-002  0.1250178E+03  0.7818608E-02  0.1235041E+00
         -4   -1    0    0    0  501 -0.00000000000E+00  0.00000000000E+00  0.12538982656E+02  0.12603133977E+02  0.12700000000E+01 0. -1.
          4   -1    0    0  501    0  0.00000000000E+00 -0.00000000000E+00 -0.31075667653E+03  0.31075927163E+03  0.12700000000E+01 0. -1.
         25    2    1    2    0    0  0.00000000000E+00  0.00000000000E+00 -0.29821769387E+03  0.32336240561E+03  0.12501780843E+03 0.  0.
    9000005    1    3    3    0    0  0.41314030266E+01 -0.41883810067E+02 -0.26862339192E+03  0.27190227789E+03  0.10000000000E+01 0.  0.
    9000005    1    3    3    0    0 -0.41314030266E+01  0.41883810067E+02 -0.29594301951E+02  0.51460127717E+02  0.10000000000E+01 0.  0.
<mgrwt>
<rscale>  0 0.12501781E+03</rscale>
<asrwt>0</asrwt>
<pdfrwt beam="2">  1        4 0.77697487E-01 0.12501781E+03</pdfrwt>
<pdfrwt beam="1">  1       -4 0.31430900E-02 0.12501781E+03</pdfrwt>
<totfact> 0.12335627E+03</totfact>
</mgrwt>
</event>
<event>
 5    1  0.1448308E-002  0.1249948E+03  0.7818608E-02  0.1235077E+00
         -4   -1    0    0    0  501 -0.00000000000E+00  0.00000000000E+00  0.36072136539E+03  0.36072360104E+03  0.12700000000E+01 0.  1.
          4   -1    0    0  501    0  0.00000000000E+00 -0.00000000000E+00 -0.10788584434E+02  0.10863077561E+02  0.12700000000E+01 0.  1.
         25    2    1    2    0    0  0.00000000000E+00  0.00000000000E+00  0.34993278095E+03  0.37158667860E+03  0.12499483400E+03 0.  0.
    9000005    1    3    3    0    0  0.19990180089E+02  0.31802411605E+02  0.32342653960E+03  0.32560209951E+03  0.10000000000E+01 0.  0.
    9000005    1    3    3    0    0 -0.19990180089E+02 -0.31802411605E+02  0.26506241348E+02  0.45984579092E+02  0.10000000000E+01 0.  0.
<mgrwt>
<rscale>  0 0.12499483E+03</rscale>
<asrwt>0</asrwt>
<pdfrwt beam="2">  1        4 0.27067370E-02 0.12499483E+03</pdfrwt>
<pdfrwt beam="1">  1       -4 0.90189938E-01 0.12499483E+03</pdfrwt>
<totfact> 0.11180196E+03</totfact>
</mgrwt>
</event>
<event>
 5    1  0.1448308E-002  0.1249972E+03  0.7818608E-02  0.1235074E+00
          4   -1    0    0  501    0  0.00000000000E+00  0.00000000000E+00  0.53911235891E+02  0.53926192664E+02  0.12700000000E+01 0.  1.
         -4   -1    0    0    0  501 -0.00000000000E+00 -0.00000000000E+00 -0.72423304373E+02  0.72434438745E+02  0.12700000000E+01 0.  1.
         25    2    1    2    0    0  0.00000000000E+00  0.00000000000E+00 -0.18512068482E+02  0.12636063141E+03  0.12499724993E+03 0.  0.
    9000005    1    3    3    0    0 -0.21446864029E+02  0.19270881176E+02 -0.65302099175E+02  0.71391168884E+02  0.10000000000E+01 0.  0.
    9000005    1    3    3    0    0  0.21446864029E+02 -0.19270881176E+02  0.46790030693E+02  0.54969462525E+02  0.10000000000E+01 0.  0.
<mgrwt>
<rscale>  0 0.12499725E+03</rscale>
<asrwt>0</asrwt>
<pdfrwt beam="1">  1        4 0.13481070E-01 0.12499725E+03</pdfrwt>
<pdfrwt beam="2">  1       -4 0.18109087E-01 0.12499725E+03</pdfrwt>
<totfact> 0.19762716E+03</totfact>
</mgrwt>
</event>
<event>
 5    1  0.1448308E-002  0.1250006E+03  0.7818608E-02  0.1235068E+00
         -4   -1    0    0    0  501 -0.00000000000E+00  0.00000000000E+00  0.19432862072E+02  0.19474317146E+02  0.12700000000E+01 0. -1.
          4   -1    0    0  501    0  0.00000000000E+00 -0.00000000000E+00 -0.20075684866E+03  0.20076086567E+03  0.12700000000E+01 0. -1.
         25    2    1    2    0    0  0.00000000000E+00  0.00000000000E+00 -0.18132398659E+03  0.22023518282E+03  0.12500059055E+03 0.  0.
    9000005    1    3    3    0    0 -0.58350148514E+02  0.22270043433E+02 -0.86886383741E+02  0.10700905731E+03  0.10000000000E+01 0.  0.
    9000005    1    3    3    0    0  0.58350148514E+02 -0.22270043433E+02 -0.94437602852E+02  0.11322612551E+03  0.10000000000E+01 0.  0.
<mgrwt>
<rscale>  0 0.12500059E+03</rscale>
<asrwt>0</asrwt>
<pdfrwt beam="2">  1        4 0.50194890E-01 0.12500059E+03</pdfrwt>
<pdfrwt beam="1">  1       -4 0.48639001E-02 0.12500059E+03</pdfrwt>
<totfact> 0.15542411E+03</totfact>
</mgrwt>
</event>
<event>
 5    1  0.1448308E-002  0.1249961E+03  0.7818608E-02  0.1235075E+00
          4   -1    0    0  501    0  0.00000000000E+00  0.00000000000E+00  0.22256154600E+03  0.22256516946E+03  0.12700000000E+01 0. -1.
         -4   -1    0    0    0  501 -0.00000000000E+00 -0.00000000000E+00 -0.17523482274E+02  0.17569443104E+02  0.12700000000E+01 0. -1.
         25    2    1    2    0    0  0.00000000000E+00  0.00000000000E+00  0.20503806373E+03  0.24013461257E+03  0.12499609824E+03 0.  0.
    9000005    1    3    3    0    0  0.36618361987E+02  0.49350634294E+01  0.19933645561E+03  0.20273451068E+03  0.10000000000E+01 0.  0.
    9000005    1    3    3    0    0 -0.36618361987E+02 -0.49350634294E+01  0.57016081111E+01  0.37400101881E+02  0.10000000000E+01 0.  0.
<mgrwt>
<rscale>  0 0.12499610E+03</rscale>
<asrwt>0</asrwt>
<pdfrwt beam="1">  1        4 0.55646584E-01 0.12499610E+03</pdfrwt>
<pdfrwt beam="2">  1       -4 0.43870686E-02 0.12499610E+03</pdfrwt>
<totfact> 0.14833148E+03</totfact>
</mgrwt>
</event>
<event>
 5    1  0.1448308E-002  0.1249997E+03  0.7818608E-02  0.1235070E+00
          4   -1    0    0  501    0  0.00000000000E+00  0.00000000000E+00  0.34966864532E+03  0.34967095163E+03  0.12700000000E+01 0.  1.
         -4   -1    0    0    0  501 -0.00000000000E+00 -0.00000000000E+00 -0.11132782473E+02  0.11204987532E+02  0.12700000000E+01 0.  1.
         25    2    1    2    0    0  0.00000000000E+00  0.00000000000E+00  0.33853586284E+03  0.36087593917E+03  0.12499965215E+03 0.  0.
    9000005    1    3    3    0    0 -0.49374306358E+02 -0.22332289193E+02  0.79413776028E+02  0.96146248456E+02  0.10000000000E+01 0.  0.
    9000005    1    3    3    0    0  0.49374306358E+02  0.22332289193E+02  0.25912208681E+03  0.26472969071E+03  0.10000000000E+01 0.  0.
<mgrwt>
<rscale>  0 0.12499965E+03</rscale>
<asrwt>0</asrwt>
<pdfrwt beam="1">  1        4 0.87426474E-01 0.12499965E+03</pdfrwt>
<pdfrwt beam="2">  1       -4 0.27925096E-02 0.12499965E+03</pdfrwt>
<totfact> 0.11422245E+03</totfact>
</mgrwt>
</event>
<event>
 5    1  0.1448308E-002  0.1249984E+03  0.7818608E-02  0.1235072E+00
          4   -1    0    0  501    0  0.00000000000E+00  0.00000000000E+00  0.30001961283E+02  0.30028829161E+02  0.12700000000E+01 0.  1.
         -4   -1    0    0    0  501 -0.00000000000E+00 -0.00000000000E+00 -0.13010824520E+03  0.13011444335E+03  0.12700000000E+01 0.  1.
         25    2    1    2    0    0  0.00000000000E+00  0.00000000000E+00 -0.10010628392E+03  0.16014327252E+03  0.12499839860E+03 0.  0.
    9000005    1    3    3    0    0  0.35143820827E+02 -0.46358598626E+02 -0.20811686870E+02  0.61792670433E+02  0.10000000000E+01 0.  0.
    9000005    1    3    3    0    0 -0.35143820827E+02  0.46358598626E+02 -0.79294597048E+02  0.98350602082E+02  0.10000000000E+01 0.  0.
<mgrwt>
<rscale>  0 0.12499840E+03</rscale>
<asrwt>0</asrwt>
<pdfrwt beam="1">  1        4 0.75046239E-02 0.12499840E+03</pdfrwt>
<pdfrwt beam="2">  1       -4 0.32531193E-01 0.12499840E+03</pdfrwt>
<totfact> 0.18051686E+03</totfact>
</mgrwt>
</event>
<event>
 5    1  0.1448308E-002  0.1249966E+03  0.7818608E-02  0.1235075E+00
         -4   -1    0    0    0  501 -0.00000000000E+00  0.00000000000E+00  0.25057554464E+02  0.25089717729E+02  0.12700000000E+01 0. -1.
          4   -1    0    0  501    0  0.00000000000E+00 -0.00000000000E+00 -0.15574800203E+03  0.15575317986E+03  0.12700000000E+01 0. -1.
         25    2    1    2    0    0  0.00000000000E+00  0.00000000000E+00 -0.13069044757E+03  0.18084289759E+03  0.12499664205E+03 0.  0.
    9000005    1    3    3    0    0  0.23036997767E+02  0.43303323047E+02 -0.93273049079E+01  0.49938759194E+02  0.10000000000E+01 0.  0.
    9000005    1    3    3    0    0 -0.23036997767E+02 -0.43303323047E+02 -0.12136314266E+03  0.13090413840E+03  0.10000000000E+01 0.  0.
<mgrwt>
<rscale>  0 0.12499664E+03</rscale>
<asrwt>0</asrwt>
<pdfrwt beam="2">  1        4 0.38941665E-01 0.12499664E+03</pdfrwt>
<pdfrwt beam="1">  1       -4 0.62690567E-02 0.12499664E+03</pdfrwt>
<totfact> 0.17120125E+03</totfact>
</mgrwt>
</event>
<event>
 5    1  0.1448308E-002  0.1250051E+03  0.7818608E-02  0.1235061E+00
          4   -1    0    0  501    0  0.00000000000E+00  0.00000000000E+00  0.11391661356E+02  0.11462235753E+02  0.12700000000E+01 0. -1.
         -4   -1    0    0    0  501 -0.00000000000E+00 -0.00000000000E+00 -0.34180182051E+03  0.34180417991E+03  0.12700000000E+01 0. -1.
         25    2    1    2    0    0  0.00000000000E+00  0.00000000000E+00 -0.33041015916E+03  0.35326641567E+03  0.12500514855E+03 0.  0.
    9000005    1    3    3    0    0  0.26011480269E+02  0.49224714439E+02 -0.24543116745E+03  0.25166868612E+03  0.10000000000E+01 0.  0.
    9000005    1    3    3    0    0 -0.26011480269E+02 -0.49224714439E+02 -0.84978991707E+02  0.10159772955E+03  0.10000000000E+01 0.  0.
<mgrwt>
<rscale>  0 0.12500515E+03</rscale>
<asrwt>0</asrwt>
<pdfrwt beam="1">  1        4 0.28570332E-02 0.12500515E+03</pdfrwt>
<pdfrwt beam="2">  1       -4 0.85459538E-01 0.12500515E+03</pdfrwt>
<totfact> 0.11598438E+03</totfact>
</mgrwt>
</event>
<event>
 5    1  0.1448308E-002  0.1249980E+03  0.7818608E-02  0.1235072E+00
          4   -1    0    0  501    0  0.00000000000E+00  0.00000000000E+00  0.38411296889E+02  0.38432286280E+02  0.12700000000E+01 0.  1.
         -4   -1    0    0    0  501 -0.00000000000E+00 -0.00000000000E+00 -0.10163939616E+03  0.10164733028E+03  0.12700000000E+01 0.  1.
         25    2    1    2    0    0  0.00000000000E+00  0.00000000000E+00 -0.63228099273E+02  0.14007961656E+03  0.12499802573E+03 0.  0.
    9000005    1    3    3    0    0  0.74769635213E+01 -0.74265890303E+01 -0.10064189405E+03  0.10119708516E+03  0.10000000000E+01 0.  0.
    9000005    1    3    3    0    0 -0.74769635213E+01  0.74265890303E+01  0.37413794774E+02  0.38882531393E+02  0.10000000000E+01 0.  0.
<mgrwt>
<rscale>  0 0.12499803E+03</rscale>
<asrwt>0</asrwt>
<pdfrwt beam="1">  1        4 0.96064398E-02 0.12499803E+03</pdfrwt>
<pdfrwt beam="2">  1       -4 0.25413464E-01 0.12499803E+03</pdfrwt>
<totfact> 0.19037146E+03</totfact>
</mgrwt>
</event>
<event>
 5    1  0.1448308E-002  0.1249835E+03  0.7818608E-02  0.1235095E+00
         -4   -1    0    0    0  501 -0.00000000000E+00  0.00000000000E+00  0.35994171352E+02  0.36016569400E+02  0.12700000000E+01 0.  1.
          4   -1    0    0  501    0  0.00000000000E+00 -0.00000000000E+00 -0.10843594544E+03  0.10844338229E+03  0.12700000000E+01 0.  1.
         25    2    1    2    0    0  0.00000000000E+00  0.00000000000E+00 -0.72441774087E+02  0.14445995169E+03  0.12498346695E+03 0.  0.
    9000005    1    3    3    0    0  0.34084293987E+02 -0.52367257092E+02 -0.35776168307E+02  0.72006964459E+02  0.10000000000E+01 0.  0.
    9000005    1    3    3    0    0 -0.34084293987E+02  0.52367257092E+02 -0.36665605780E+02  0.72452987234E+02  0.10000000000E+01 0.  0.
<mgrwt>
<rscale>  0 0.12498347E+03</rscale>
<asrwt>0</asrwt>
<pdfrwt beam="2">  1        4 0.27112715E-01 0.12498347E+03</pdfrwt>
<pdfrwt beam="1">  1       -4 0.90022724E-02 0.12498347E+03</pdfrwt>
<totfact> 0.18821705E+03</totfact>
</mgrwt>
</event>
<event>
 5    1  0.1448308E-002  0.1250010E+03  0.7818608E-02  0.1235068E+00
          4   -1    0    0  501    0  0.00000000000E+00  0.00000000000E+00  0.74512477661E+02  0.74523299895E+02  0.12700000000E+01 0. -1.
         -4   -1    0    0    0  501 -0.00000000000E+00 -0.00000000000E+00 -0.52402642336E+02  0.52418029568E+02  0.12700000000E+01 0. -1.
         25    2    1    2    0    0  0.00000000000E+00  0.00000000000E+00  0.22109835325E+02  0.12694132946E+03  0.12500102523E+03 0.  0.
    9000005    1    3    3    0    0  0.79095318352E+01 -0.35816320980E+02  0.62436177091E+02  0.72419926485E+02  0.10000000000E+01 0.  0.
    9000005    1    3    3    0    0 -0.79095318352E+01  0.35816320980E+02 -0.40326341766E+02  0.54521402978E+02  0.10000000000E+01 0.  0.
<mgrwt>
<rscale>  0 0.12500103E+03</rscale>
<asrwt>0</asrwt>
<pdfrwt beam="1">  1        4 0.18631395E-01 0.12500103E+03</pdfrwt>
<pdfrwt beam="2">  1       -4 0.13103937E-01 0.12500103E+03</pdfrwt>
<totfact> 0.19729664E+03</totfact>
</mgrwt>
</event>
<event>
 5    1  0.1448308E-002  0.1249998E+03  0.7818608E-02  0.1235070E+00
          4   -1    0    0  501    0  0.00000000000E+00  0.00000000000E+00  0.31168000103E+02  0.31193863666E+02  0.12700000000E+01 0. -1.
         -4   -1    0    0    0  501 -0.00000000000E+00 -0.00000000000E+00 -0.12524747455E+03  0.12525391324E+03  0.12700000000E+01 0. -1.
         25    2    1    2    0    0  0.00000000000E+00  0.00000000000E+00 -0.94079474449E+02  0.15644777690E+03  0.12499983754E+03 0.  0.
    9000005    1    3    3    0    0 -0.12400166194E+02 -0.34305387256E+02 -0.11054594656E+03  0.11641318661E+03  0.10000000000E+01 0.  0.
    9000005    1    3    3    0    0  0.12400166194E+02  0.34305387256E+02  0.16466472108E+02  0.40034590295E+02  0.10000000000E+01 0.  0.
<mgrwt>
<rscale>  0 0.12499984E+03</rscale>
<asrwt>0</asrwt>
<pdfrwt beam="1">  1        4 0.77960381E-02 0.12499984E+03</pdfrwt>
<pdfrwt beam="2">  1       -4 0.31315905E-01 0.12499984E+03</pdfrwt>
<totfact> 0.18226289E+03</totfact>
</mgrwt>
</event>
<event>
 5    1  0.1448308E-002  0.1249837E+03  0.7818608E-02  0.1235095E+00
          4   -1    0    0  501    0  0.00000000000E+00  0.00000000000E+00  0.18491695160E+02  0.18535255323E+02  0.12700000000E+01 0.  1.
         -4   -1    0    0    0  501 -0.00000000000E+00 -0.00000000000E+00 -0.21089451126E+03  0.21089833517E+03  0.12700000000E+01 0.  1.
         25    2    1    2    0    0  0.00000000000E+00  0.00000000000E+00 -0.19240281610E+03  0.22943359049E+03  0.12498371416E+03 0.  0.
    9000005    1    3    3    0    0 -0.14742235138E+02  0.99310273916E+01 -0.20616434682E+03  0.20693162325E+03  0.10000000000E+01 0.  0.
    9000005    1    3    3    0    0  0.14742235138E+02 -0.99310273916E+01  0.13761530724E+02  0.22501967242E+02  0.10000000000E+01 0.  0.
<mgrwt>
<rscale>  0 0.12498371E+03</rscale>
<asrwt>0</asrwt>
<pdfrwt beam="1">  1        4 0.46288475E-02 0.12498371E+03</pdfrwt>
<pdfrwt beam="2">  1       -4 0.52729543E-01 0.12498371E+03</pdfrwt>
<totfact> 0.15213284E+03</totfact>
</mgrwt>
</event>
<event>
 5    1  0.1448308E-002  0.1250006E+03  0.7818608E-02  0.1235068E+00
         -4   -1    0    0    0  501 -0.00000000000E+00  0.00000000000E+00  0.45316126659E+03  0.45316304620E+03  0.12700000000E+01 0. -1.
          4   -1    0    0  501    0  0.00000000000E+00 -0.00000000000E+00 -0.85715011738E+01  0.86650754396E+01  0.12700000000E+01 0. -1.
         25    2    1    2    0    0  0.00000000000E+00  0.00000000000E+00  0.44458976542E+03  0.46182812164E+03  0.12500061768E+03 0.  0.
    9000005    1    3    3    0    0  0.53506382362E+02  0.28510721992E+02  0.16632501947E+03  0.17703334806E+03  0.10000000000E+01 0.  0.
    9000005    1    3    3    0    0 -0.53506382362E+02 -0.28510721992E+02  0.27826474595E+03  0.28479477358E+03  0.10000000000E+01 0.  0.
<mgrwt>
<rscale>  0 0.12500062E+03</rscale>
<asrwt>0</asrwt>
<pdfrwt beam="2">  1        4 0.21547947E-02 0.12500062E+03</pdfrwt>
<pdfrwt beam="1">  1       -4 0.11330223E+00 0.12500062E+03</pdfrwt>
<totfact> 0.93930234E+02</totfact>
</mgrwt>
</event>
<event>
 5    1  0.1448308E-002  0.1249967E+03  0.7818608E-02  0.1235074E+00
          4   -1    0    0  501    0  0.00000000000E+00  0.00000000000E+00  0.53317404856E+02  0.53332528166E+02  0.12700000000E+01 0. -1.
         -4   -1    0    0    0  501 -0.00000000000E+00 -0.00000000000E+00 -0.73229136320E+02  0.73240148185E+02  0.12700000000E+01 0. -1.
         25    2    1    2    0    0  0.00000000000E+00  0.00000000000E+00 -0.19911731463E+02  0.12657267635E+03  0.12499666135E+03 0.  0.
    9000005    1    3    3    0    0 -0.38341309693E+02 -0.47211344538E+02  0.45804189409E+01  0.60999568193E+02  0.10000000000E+01 0.  0.
    9000005    1    3    3    0    0  0.38341309693E+02  0.47211344538E+02 -0.24492150404E+02  0.65573108158E+02  0.10000000000E+01 0.  0.
<mgrwt>
<rscale>  0 0.12499666E+03</rscale>
<asrwt>0</asrwt>
<pdfrwt beam="1">  1        4 0.13332618E-01 0.12499666E+03</pdfrwt>
<pdfrwt beam="2">  1       -4 0.18310551E-01 0.12499666E+03</pdfrwt>
<totfact> 0.19751547E+03</totfact>
</mgrwt>
</event>
<event>
 5    1  0.1448308E-002  0.1250004E+03  0.7818608E-02  0.1235069E+00
          4   -1    0    0  501    0  0.00000000000E+00  0.00000000000E+00  0.10332912821E+02  0.10410666999E+02  0.12700000000E+01 0. -1.
         -4   -1    0    0    0  501 -0.00000000000E+00 -0.00000000000E+00 -0.37654625813E+03  0.37654839982E+03  0.12700000000E+01 0. -1.
         25    2    1    2    0    0  0.00000000000E+00  0.00000000000E+00 -0.36621334531E+03  0.38695906682E+03  0.12500042046E+03 0.  0.
    9000005    1    3    3    0    0 -0.41119722803E+02 -0.10019241911E+02 -0.32544181925E+03  0.32818378164E+03  0.10000000000E+01 0.  0.
    9000005    1    3    3    0    0  0.41119722803E+02  0.10019241911E+02 -0.40771526054E+02  0.58775285185E+02  0.10000000000E+01 0.  0.
<mgrwt>
<rscale>  0 0.12500042E+03</rscale>
<asrwt>0</asrwt>
<pdfrwt beam="1">  1        4 0.25932164E-02 0.12500042E+03</pdfrwt>
<pdfrwt beam="2">  1       -4 0.94146506E-01 0.12500042E+03</pdfrwt>
<totfact> 0.10842744E+03</totfact>
</mgrwt>
</event>
<event>
 5    1  0.1448308E-002  0.1249966E+03  0.7818608E-02  0.1235075E+00
         -4   -1    0    0    0  501 -0.00000000000E+00  0.00000000000E+00  0.10154779208E+03  0.10155573336E+03  0.12700000000E+01 0.  1.
          4   -1    0    0  501    0  0.00000000000E+00 -0.00000000000E+00 -0.38445058799E+02  0.38466029768E+02  0.12700000000E+01 0.  1.
         25    2    1    2    0    0  0.00000000000E+00  0.00000000000E+00  0.63102733285E+02  0.14002176312E+03  0.12499655675E+03 0.  0.
    9000005    1    3    3    0    0 -0.41743199961E+02  0.46192018973E+02  0.37566923631E+02  0.72721875051E+02  0.10000000000E+01 0.  0.
    9000005    1    3    3    0    0  0.41743199961E+02 -0.46192018973E+02  0.25535809654E+02  0.67299888072E+02  0.10000000000E+01 0.  0.
<mgrwt>
<rscale>  0 0.12499656E+03</rscale>
<asrwt>0</asrwt>
<pdfrwt beam="2">  1        4 0.96148788E-02 0.12499656E+03</pdfrwt>
<pdfrwt beam="1">  1       -4 0.25390562E-01 0.12499656E+03</pdfrwt>
<totfact> 0.19040758E+03</totfact>
</mgrwt>
</event>
<event>
 5    1  0.1448308E-002  0.1250086E+03  0.7818608E-02  0.1235056E+00
          4   -1    0    0  501    0  0.00000000000E+00  0.00000000000E+00  0.36129439549E+02  0.36151753790E+02  0.12700000000E+01 0.  1.
         -4   -1    0    0    0  501 -0.00000000000E+00 -0.00000000000E+00 -0.10807370306E+03  0.10808116484E+03  0.12700000000E+01 0.  1.
         25    2    1    2    0    0  0.00000000000E+00  0.00000000000E+00 -0.71944263514E+02  0.14423291863E+03  0.12500863076E+03 0.  0.
    9000005    1    3    3    0    0 -0.44212846261E+02  0.38020177893E+02 -0.10031755563E+02  0.59177240737E+02  0.10000000000E+01 0.  0.
    9000005    1    3    3    0    0  0.44212846261E+02 -0.38020177893E+02 -0.61912507951E+02  0.85055677896E+02  0.10000000000E+01 0.  0.
<mgrwt>
<rscale>  0 0.12500863E+03</rscale>
<asrwt>0</asrwt>
<pdfrwt beam="1">  1        4 0.90360821E-02 0.12500863E+03</pdfrwt>
<pdfrwt beam="2">  1       -4 0.27022147E-01 0.12500863E+03</pdfrwt>
<totfact> 0.18822060E+03</totfact>
</mgrwt>
</event>
<event>
 5    1  0.1448308E-002  0.1250023E+03  0.7818608E-02  0.1235066E+00
          4   -1    0    0  501    0  0.00000000000E+00  0.00000000000E+00  0.11415838885E+03  0.11416545294E+03  0.12700000000E+01 0.  1.
         -4   -1    0    0    0  501 -0.00000000000E+00 -0.00000000000E+00 -0.34199184417E+02  0.34222757264E+02  0.12700000000E+01 0.  1.
         25    2    1    2    0    0  0.00000000000E+00  0.00000000000E+00  0.79959204432E+02  0.14838821020E+03  0.12500234619E+03 0.  0.
    9000005    1    3    3    0    0  0.40438303611E+02 -0.47018985959E+02  0.30834035672E+02  0.69266003172E+02  0.10000000000E+01 0.  0.
    9000005    1    3    3    0    0 -0.40438303611E+02  0.47018985959E+02  0.49125168760E+02  0.79122207030E+02  0.10000000000E+01 0.  0.
<mgrwt>
<rscale>  0 0.12500235E+03</rscale>
<asrwt>0</asrwt>
<pdfrwt beam="1">  1        4 0.28543427E-01 0.12500235E+03</pdfrwt>
<pdfrwt beam="2">  1       -4 0.85536258E-02 0.12500235E+03</pdfrwt>
<totfact> 0.18617301E+03</totfact>
</mgrwt>
</event>
<event>
 5    1  0.1448308E-002  0.1249931E+03  0.7818608E-02  0.1235080E+00
         -4   -1    0    0    0  501 -0.00000000000E+00  0.00000000000E+00  0.10201627098E+03  0.10202417579E+03  0.12700000000E+01 0.  1.
          4   -1    0    0  501    0  0.00000000000E+00 -0.00000000000E+00 -0.38266338836E+02  0.38287407694E+02  0.12700000000E+01 0.  1.
         25    2    1    2    0    0  0.00000000000E+00  0.00000000000E+00  0.63749932144E+02  0.14031158348E+03  0.12499314625E+03 0.  0.
    9000005    1    3    3    0    0  0.51366706974E+02  0.34725055944E+02  0.23146895379E+02  0.66190232371E+02  0.10000000000E+01 0.  0.
    9000005    1    3    3    0    0 -0.51366706974E+02 -0.34725055944E+02  0.40603036765E+02  0.74121351109E+02  0.10000000000E+01 0.  0.
<mgrwt>
<rscale>  0 0.12499315E+03</rscale>
<asrwt>0</asrwt>
<pdfrwt beam="2">  1        4 0.95702065E-02 0.12499315E+03</pdfrwt>
<pdfrwt beam="1">  1       -4 0.25507689E-01 0.12499315E+03</pdfrwt>
<totfact> 0.19027454E+03</totfact>
</mgrwt>
</event>
<event>
 5    1  0.1448308E-002  0.1250064E+03  0.7818608E-02  0.1235059E+00
         -4   -1    0    0    0  501 -0.00000000000E+00  0.00000000000E+00  0.18036088910E+02  0.18080746754E+02  0.12700000000E+01 0. -1.
          4   -1    0    0  501    0  0.00000000000E+00 -0.00000000000E+00 -0.21628763647E+03  0.21629136504E+03  0.12700000000E+01 0. -1.
         25    2    1    2    0    0  0.00000000000E+00  0.00000000000E+00 -0.19825154756E+03  0.23437211179E+03  0.12500644254E+03 0.  0.
    9000005    1    3    3    0    0  0.16893118992E+02 -0.18083773533E+02  0.84677277116E+01  0.26174467465E+02  0.10000000000E+01 0.  0.
    9000005    1    3    3    0    0 -0.16893118992E+02  0.18083773533E+02 -0.20671927527E+03  0.20819764433E+03  0.10000000000E+01 0.  0.
<mgrwt>
<rscale>  0 0.12500644E+03</rscale>
<asrwt>0</asrwt>
<pdfrwt beam="2">  1        4 0.54077949E-01 0.12500644E+03</pdfrwt>
<pdfrwt beam="1">  1       -4 0.45150712E-02 0.12500644E+03</pdfrwt>
<totfact> 0.15030104E+03</totfact>
</mgrwt>
</event>
<event>
 5    1  0.1448308E-002  0.1249714E+03  0.7818608E-02  0.1235114E+00
          4   -1    0    0  501    0  0.00000000000E+00  0.00000000000E+00  0.17319205206E+03  0.17319670839E+03  0.12700000000E+01 0. -1.
         -4   -1    0    0    0  501 -0.00000000000E+00 -0.00000000000E+00 -0.22521263293E+02  0.22557043253E+02  0.12700000000E+01 0. -1.
         25    2    1    2    0    0  0.00000000000E+00  0.00000000000E+00  0.15067078877E+03  0.19575375165E+03  0.12497137550E+03 0.  0.
    9000005    1    3    3    0    0  0.55639208794E+02  0.21262389976E+02  0.45795346879E+02  0.75140033128E+02  0.10000000000E+01 0.  0.
    9000005    1    3    3    0    0 -0.55639208794E+02 -0.21262389976E+02  0.10487544189E+03  0.12061371852E+03  0.10000000000E+01 0.  0.
<mgrwt>
<rscale>  0 0.12497138E+03</rscale>
<asrwt>0</asrwt>
<pdfrwt beam="1">  1        4 0.43303066E-01 0.12497138E+03</pdfrwt>
<pdfrwt beam="2">  1       -4 0.56353706E-02 0.12497138E+03</pdfrwt>
<totfact> 0.16504418E+03</totfact>
</mgrwt>
</event>
<event>
 5    1  0.1448308E-002  0.1250035E+03  0.7818608E-02  0.1235064E+00
          4   -1    0    0  501    0  0.00000000000E+00  0.00000000000E+00  0.41347100550E+01  0.43253586255E+01  0.12700000000E+01 0.  1.
         -4   -1    0    0    0  501 -0.00000000000E+00 -0.00000000000E+00 -0.92331687988E+03  0.92331775331E+03  0.12700000000E+01 0.  1.
         25    2    1    2    0    0  0.00000000000E+00  0.00000000000E+00 -0.91918216982E+03  0.92764311193E+03  0.12500352711E+03 0.  0.
    9000005    1    3    3    0    0  0.62165247307E+02 -0.62433901170E+01 -0.44916855383E+03  0.45349408777E+03  0.10000000000E+01 0.  0.
    9000005    1    3    3    0    0 -0.62165247307E+02  0.62433901170E+01 -0.47001361599E+03  0.47414902416E+03  0.10000000000E+01 0.  0.
<mgrwt>
<rscale>  0 0.12500353E+03</rscale>
<asrwt>0</asrwt>
<pdfrwt beam="1">  1        4 0.10576209E-02 0.12500353E+03</pdfrwt>
<pdfrwt beam="2">  1       -4 0.23085247E+00 0.12500353E+03</pdfrwt>
<totfact> 0.42198870E+02</totfact>
</mgrwt>
</event>
<event>
 5    1  0.1448308E-002  0.1249996E+03  0.7818608E-02  0.1235070E+00
         -4   -1    0    0    0  501 -0.00000000000E+00  0.00000000000E+00  0.21626504822E+03  0.21626877717E+03  0.12700000000E+01 0. -1.
          4   -1    0    0  501    0  0.00000000000E+00 -0.00000000000E+00 -0.18035995775E+02  0.18080653849E+02  0.12700000000E+01 0. -1.
         25    2    1    2    0    0  0.00000000000E+00  0.00000000000E+00  0.19822905244E+03  0.23434943102E+03  0.12499959435E+03 0.  0.
    9000005    1    3    3    0    0 -0.57055754490E+02  0.16818482269E+02  0.63198291122E+02  0.86794265173E+02  0.10000000000E+01 0.  0.
    9000005    1    3    3    0    0  0.57055754490E+02 -0.16818482269E+02  0.13503076132E+03  0.14755516585E+03  0.10000000000E+01 0.  0.
<mgrwt>
<rscale>  0 0.12499959E+03</rscale>
<asrwt>0</asrwt>
<pdfrwt beam="2">  1        4 0.45150473E-02 0.12499959E+03</pdfrwt>
<pdfrwt beam="1">  1       -4 0.54072311E-01 0.12499959E+03</pdfrwt>
<totfact> 0.15033273E+03</totfact>
</mgrwt>
</event>
<event>
 5    1  0.1448308E-002  0.1250052E+03  0.7818608E-02  0.1235061E+00
         -4   -1    0    0    0  501 -0.00000000000E+00  0.00000000000E+00  0.83769208455E+02  0.83778834947E+02  0.12700000000E+01 0. -1.
          4   -1    0    0  501    0  0.00000000000E+00 -0.00000000000E+00 -0.46614039154E+02  0.46631336526E+02  0.12700000000E+01 0. -1.
         25    2    1    2    0    0  0.00000000000E+00  0.00000000000E+00  0.37155169301E+02  0.13041017147E+03  0.12500522476E+03 0.  0.
    9000005    1    3    3    0    0 -0.24113153999E+02  0.26854724211E+02  0.71802714092E+02  0.80369460365E+02  0.10000000000E+01 0.  0.
    9000005    1    3    3    0    0  0.24113153999E+02 -0.26854724211E+02 -0.34647544791E+02  0.50040711109E+02  0.10000000000E+01 0.  0.
<mgrwt>
<rscale>  0 0.12500522E+03</rscale>
<asrwt>0</asrwt>
<pdfrwt beam="2">  1        4 0.11656875E-01 0.12500522E+03</pdfrwt>
<pdfrwt beam="1">  1       -4 0.20945667E-01 0.12500522E+03</pdfrwt>
<totfact> 0.19539975E+03</totfact>
</mgrwt>
</event>
<event>
 5    1  0.1448308E-002  0.1250089E+03  0.7818608E-02  0.1235055E+00
         -4   -1    0    0    0  501 -0.00000000000E+00  0.00000000000E+00  0.78307336291E+03  0.78307439276E+03  0.12700000000E+01 0. -1.
          4   -1    0    0  501    0  0.00000000000E+00 -0.00000000000E+00 -0.49071929184E+01  0.50688699272E+01  0.12700000000E+01 0. -1.
         25    2    1    2    0    0  0.00000000000E+00  0.00000000000E+00  0.77816616999E+03  0.78814326269E+03  0.12500885730E+03 0.  0.
    9000005    1    3    3    0    0 -0.30613028780E+02  0.48593308889E+02  0.23370883768E+03  0.24066426409E+03  0.10000000000E+01 0.  0.
    9000005    1    3    3    0    0  0.30613028780E+02 -0.48593308889E+02  0.54445733231E+03  0.54747899860E+03  0.10000000000E+01 0.  0.
<mgrwt>
<rscale>  0 0.12500886E+03</rscale>
<asrwt>0</asrwt>
<pdfrwt beam="2">  1        4 0.12471366E-02 0.12500886E+03</pdfrwt>
<pdfrwt beam="1">  1       -4 0.19578867E+00 0.12500886E+03</pdfrwt>
<totfact> 0.53524974E+02</totfact>
</mgrwt>
</event>
<event>
 5    1  0.1448308E-002  0.1249952E+03  0.7818608E-02  0.1235077E+00
         -4   -1    0    0    0  501 -0.00000000000E+00  0.00000000000E+00  0.23841277683E+03  0.23841615939E+03  0.12700000000E+01 0.  1.
          4   -1    0    0  501    0  0.00000000000E+00 -0.00000000000E+00 -0.16355027102E+02  0.16404261992E+02  0.12700000000E+01 0.  1.
         25    2    1    2    0    0  0.00000000000E+00  0.00000000000E+00  0.22205774973E+03  0.25482042138E+03  0.12499521165E+03 0.  0.
    9000005    1    3    3    0    0 -0.12176685167E+02  0.46789464852E+02  0.30317592965E+02  0.57076108189E+02  0.10000000000E+01 0.  0.
    9000005    1    3    3    0    0  0.12176685167E+02 -0.46789464852E+02  0.19174015676E+03  0.19774431319E+03  0.10000000000E+01 0.  0.
<mgrwt>
<rscale>  0 0.12499521E+03</rscale>
<asrwt>0</asrwt>
<pdfrwt beam="2">  1        4 0.40953340E-02 0.12499521E+03</pdfrwt>
<pdfrwt beam="1">  1       -4 0.59609771E-01 0.12499521E+03</pdfrwt>
<totfact> 0.14340575E+03</totfact>
</mgrwt>
</event>
<event>
 5    1  0.1448308E-002  0.1249985E+03  0.7818608E-02  0.1235072E+00
         -4   -1    0    0    0  501 -0.00000000000E+00  0.00000000000E+00  0.14261846753E+03  0.14262412202E+03  0.12700000000E+01 0.  1.
          4   -1    0    0  501    0  0.00000000000E+00 -0.00000000000E+00 -0.27367935503E+02  0.27397386622E+02  0.12700000000E+01 0.  1.
         25    2    1    2    0    0  0.00000000000E+00  0.00000000000E+00  0.11525053203E+03  0.17002150864E+03  0.12499851306E+03 0.  0.
    9000005    1    3    3    0    0 -0.56710888252E+02 -0.25903035242E+02  0.51844068215E+02  0.81091920006E+02  0.10000000000E+01 0.  0.
    9000005    1    3    3    0    0  0.56710888252E+02  0.25903035242E+02  0.63406463815E+02  0.88929588634E+02  0.10000000000E+01 0.  0.
<mgrwt>
<rscale>  0 0.12499851E+03</rscale>
<asrwt>0</asrwt>
<pdfrwt beam="2">  1        4 0.68463722E-02 0.12499851E+03</pdfrwt>
<pdfrwt beam="1">  1       -4 0.35659005E-01 0.12499851E+03</pdfrwt>
<totfact> 0.17596684E+03</totfact>
</mgrwt>
</event>
<event>
 5    1  0.1448308E-002  0.1250002E+03  0.7818608E-02  0.1235069E+00
          4   -1    0    0  501    0  0.00000000000E+00  0.00000000000E+00  0.29606310811E+03  0.29606583201E+03  0.12700000000E+01 0. -1.
         -4   -1    0    0    0  501 -0.00000000000E+00 -0.00000000000E+00 -0.13160677808E+02  0.13221813051E+02  0.12700000000E+01 0. -1.
         25    2    1    2    0    0  0.00000000000E+00  0.00000000000E+00  0.28290243030E+03  0.30928764506E+03  0.12500024926E+03 0.  0.
    9000005    1    3    3    0    0 -0.51921292320E+02  0.98706213972E+01  0.22396132682E+03  0.23011502705E+03  0.10000000000E+01 0.  0.
    9000005    1    3    3    0    0  0.51921292320E+02 -0.98706213972E+01  0.58941103476E+02  0.79172618006E+02  0.10000000000E+01 0.  0.
<mgrwt>
<rscale>  0 0.12500025E+03</rscale>
<asrwt>0</asrwt>
<pdfrwt beam="1">  1        4 0.74023758E-01 0.12500025E+03</pdfrwt>
<pdfrwt beam="2">  1       -4 0.32981519E-02 0.12500025E+03</pdfrwt>
<totfact> 0.12714615E+03</totfact>
</mgrwt>
</event>
<event>
 5    1  0.1448308E-002  0.1250001E+03  0.7818608E-02  0.1235069E+00
         -4   -1    0    0    0  501 -0.00000000000E+00  0.00000000000E+00  0.11472632646E+02  0.11542711979E+02  0.12700000000E+01 0.  1.
          4   -1    0    0  501    0  0.00000000000E+00 -0.00000000000E+00 -0.33937646229E+03  0.33937883855E+03  0.12700000000E+01 0.  1.
         25    2    1    2    0    0  0.00000000000E+00  0.00000000000E+00 -0.32790382964E+03  0.35092155053E+03  0.12500005253E+03 0.  0.
    9000005    1    3    3    0    0  0.43513646140E+02  0.20786361018E+02 -0.27553364073E+03  0.27972360891E+03  0.10000000000E+01 0.  0.
    9000005    1    3    3    0    0 -0.43513646140E+02 -0.20786361018E+02 -0.52370188909E+02  0.71197941621E+02  0.10000000000E+01 0.  0.
<mgrwt>
<rscale>  0 0.12500005E+03</rscale>
<asrwt>0</asrwt>
<pdfrwt beam="2">  1        4 0.84853139E-01 0.12500005E+03</pdfrwt>
<pdfrwt beam="1">  1       -4 0.28772162E-02 0.12500005E+03</pdfrwt>
<totfact> 0.11655359E+03</totfact>
</mgrwt>
</event>
<event>
 5    1  0.1448308E-002  0.1249987E+03  0.7818608E-02  0.1235071E+00
          4   -1    0    0  501    0  0.00000000000E+00  0.00000000000E+00  0.94659761985E+03  0.94659847180E+03  0.12700000000E+01 0.  1.
         -4   -1    0    0    0  501 -0.00000000000E+00 -0.00000000000E+00 -0.40279452859E+01  0.42234160612E+01  0.12700000000E+01 0.  1.
         25    2    1    2    0    0  0.00000000000E+00  0.00000000000E+00  0.94256967457E+03  0.95082188786E+03  0.12499868407E+03 0.  0.
    9000005    1    3    3    0    0 -0.14210846569E+01 -0.34083555686E+02  0.86956130542E+03  0.87023075798E+03  0.10000000000E+01 0.  0.
    9000005    1    3    3    0    0  0.14210846569E+01  0.34083555686E+02  0.73008369142E+02  0.80591129875E+02  0.10000000000E+01 0.  0.
<mgrwt>
<rscale>  0 0.12499868E+03</rscale>
<asrwt>0</asrwt>
<pdfrwt beam="1">  1        4 0.23667404E+00 0.12499868E+03</pdfrwt>
<pdfrwt beam="2">  1       -4 0.10315263E-02 0.12499868E+03</pdfrwt>
<totfact> 0.40519439E+02</totfact>
</mgrwt>
</event>
<event>
 5    1  0.1448308E-002  0.1250061E+03  0.7818608E-02  0.1235060E+00
         -4   -1    0    0    0  501 -0.00000000000E+00  0.00000000000E+00  0.22245025112E+03  0.22245387640E+03  0.12700000000E+01 0. -1.
          4   -1    0    0  501    0  0.00000000000E+00 -0.00000000000E+00 -0.17535094015E+02  0.17581024490E+02  0.12700000000E+01 0. -1.
         25    2    1    2    0    0  0.00000000000E+00  0.00000000000E+00  0.20491515711E+03  0.24003490089E+03  0.12500612798E+03 0.  0.
    9000005    1    3    3    0    0 -0.34931283970E+02 -0.28018943155E+02  0.18750343196E+02  0.48557503491E+02  0.10000000000E+01 0.  0.
    9000005    1    3    3    0    0  0.34931283970E+02  0.28018943155E+02  0.18616481391E+03  0.19147739740E+03  0.10000000000E+01 0.  0.
<mgrwt>
<rscale>  0 0.12500613E+03</rscale>
<asrwt>0</asrwt>
<pdfrwt beam="2">  1        4 0.43899679E-02 0.12500613E+03</pdfrwt>
<pdfrwt beam="1">  1       -4 0.55618758E-01 0.12500613E+03</pdfrwt>
<totfact> 0.14833156E+03</totfact>
</mgrwt>
</event>
<event>
 5    1  0.1448308E-002  0.1249980E+03  0.7818608E-02  0.1235072E+00
          4   -1    0    0  501    0  0.00000000000E+00  0.00000000000E+00  0.46220257127E+02  0.46237701812E+02  0.12700000000E+01 0.  1.
         -4   -1    0    0    0  501 -0.00000000000E+00 -0.00000000000E+00 -0.84472921398E+02  0.84482467705E+02  0.12700000000E+01 0.  1.
         25    2    1    2    0    0  0.00000000000E+00  0.00000000000E+00 -0.38252664271E+02  0.13072016952E+03  0.12499798556E+03 0.  0.
    9000005    1    3    3    0    0 -0.19336456680E+02  0.55870325837E+02 -0.40294811098E+02  0.71554620168E+02  0.10000000000E+01 0.  0.
    9000005    1    3    3    0    0  0.19336456680E+02 -0.55870325837E+02  0.20421468266E+01  0.59165549348E+02  0.10000000000E+01 0.  0.
<mgrwt>
<rscale>  0 0.12499799E+03</rscale>
<asrwt>0</asrwt>
<pdfrwt beam="1">  1        4 0.11558438E-01 0.12499799E+03</pdfrwt>
<pdfrwt beam="2">  1       -4 0.21121604E-01 0.12499799E+03</pdfrwt>
<totfact> 0.19526663E+03</totfact>
</mgrwt>
</event>
<event>
 5    1  0.1448308E-002  0.1250040E+03  0.7818608E-02  0.1235063E+00
         -4   -1    0    0    0  501 -0.00000000000E+00  0.00000000000E+00  0.65892507267E+03  0.65892629656E+03  0.12700000000E+01 0.  1.
          4   -1    0    0  501    0  0.00000000000E+00 -0.00000000000E+00 -0.58593339427E+01  0.59953894162E+01  0.12700000000E+01 0.  1.
         25    2    1    2    0    0  0.00000000000E+00  0.00000000000E+00  0.65306573873E+03  0.66492168598E+03  0.12500395745E+03 0.  0.
    9000005    1    3    3    0    0 -0.55272634470E+02 -0.19159791888E+02  0.20959070536E+03  0.21760382699E+03  0.10000000000E+01 0.  0.
    9000005    1    3    3    0    0  0.55272634470E+02  0.19159791888E+02  0.44347503337E+03  0.44731785899E+03  0.10000000000E+01 0.  0.
<mgrwt>
<rscale>  0 0.12500396E+03</rscale>
<asrwt>0</asrwt>
<pdfrwt beam="2">  1        4 0.14819933E-02 0.12500396E+03</pdfrwt>
<pdfrwt beam="1">  1       -4 0.16474844E+00 0.12500396E+03</pdfrwt>
<totfact> 0.65823243E+02</totfact>
</mgrwt>
</event>
<event>
 5    1  0.1448308E-002  0.1250001E+03  0.7818608E-02  0.1235069E+00
          4   -1    0    0  501    0  0.00000000000E+00  0.00000000000E+00  0.15238853860E+02  0.15291682935E+02  0.12700000000E+01 0.  1.
         -4   -1    0    0    0  501 -0.00000000000E+00 -0.00000000000E+00 -0.25583731885E+03  0.25584047103E+03  0.12700000000E+01 0.  1.
         25    2    1    2    0    0  0.00000000000E+00  0.00000000000E+00 -0.24059846499E+03  0.27113215397E+03  0.12500009423E+03 0.  0.
    9000005    1    3    3    0    0 -0.18881634739E+02  0.29235058900E+02 -0.77160301749E+01  0.35661490729E+02  0.10000000000E+01 0.  0.
    9000005    1    3    3    0    0  0.18881634739E+02 -0.29235058900E+02 -0.23288243482E+03  0.23547066324E+03  0.10000000000E+01 0.  0.
<mgrwt>
<rscale>  0 0.12500009E+03</rscale>
<asrwt>0</asrwt>
<pdfrwt beam="1">  1        4 0.38167119E-02 0.12500009E+03</pdfrwt>
<pdfrwt beam="2">  1       -4 0.63966314E-01 0.12500009E+03</pdfrwt>
<totfact> 0.13820503E+03</totfact>
</mgrwt>
</event>
<event>
 5    1  0.1448308E-002  0.1250005E+03  0.7818608E-02  0.1235069E+00
          4   -1    0    0  501    0  0.00000000000E+00  0.00000000000E+00  0.64088029094E+02  0.64100611332E+02  0.12700000000E+01 0. -1.
         -4   -1    0    0    0  501 -0.00000000000E+00 -0.00000000000E+00 -0.60926580365E+02  0.60939815350E+02  0.12700000000E+01 0. -1.
         25    2    1    2    0    0  0.00000000000E+00  0.00000000000E+00  0.31614487294E+01  0.12504042668E+03  0.12500045419E+03 0.  0.
    9000005    1    3    3    0    0 -0.17058721957E+02  0.28344208879E+02 -0.51454002228E+02  0.61179314454E+02  0.10000000000E+01 0.  0.
    9000005    1    3    3    0    0  0.17058721957E+02 -0.28344208879E+02  0.54615450957E+02  0.63861112228E+02  0.10000000000E+01 0.  0.
<mgrwt>
<rscale>  0 0.12500045E+03</rscale>
<asrwt>0</asrwt>
<pdfrwt beam="1">  1        4 0.16025234E-01 0.12500045E+03</pdfrwt>
<pdfrwt beam="2">  1       -4 0.15234872E-01 0.12500045E+03</pdfrwt>
<totfact> 0.19832652E+03</totfact>
</mgrwt>
</event>
<event>
 5    1  0.1448308E-002  0.1250039E+03  0.7818608E-02  0.1235063E+00
          4   -1    0    0  501    0  0.00000000000E+00  0.00000000000E+00  0.34694087484E+03  0.34694319929E+03  0.12700000000E+01 0. -1.
         -4   -1    0    0    0  501 -0.00000000000E+00 -0.00000000000E+00 -0.11221639518E+02  0.11293276472E+02  0.12700000000E+01 0. -1.
         25    2    1    2    0    0  0.00000000000E+00  0.00000000000E+00  0.33571923533E+03  0.35823647577E+03  0.12500387035E+03 0.  0.
    9000005    1    3    3    0    0  0.40770159427E+02 -0.16910354362E+02  0.29464754937E+03  0.29793681265E+03  0.10000000000E+01 0.  0.
    9000005    1    3    3    0    0 -0.40770159427E+02  0.16910354362E+02  0.41071685955E+02  0.60299663113E+02  0.10000000000E+01 0.  0.
<mgrwt>
<rscale>  0 0.12500387E+03</rscale>
<asrwt>0</asrwt>
<pdfrwt beam="1">  1        4 0.86744462E-01 0.12500387E+03</pdfrwt>
<pdfrwt beam="2">  1       -4 0.28146551E-02 0.12500387E+03</pdfrwt>
<totfact> 0.11482297E+03</totfact>
</mgrwt>
</event>
<event>
 5    1  0.1448308E-002  0.1250057E+03  0.7818608E-02  0.1235060E+00
         -4   -1    0    0    0  501 -0.00000000000E+00  0.00000000000E+00  0.12415536930E+03  0.12416186462E+03  0.12700000000E+01 0. -1.
          4   -1    0    0  501    0  0.00000000000E+00 -0.00000000000E+00 -0.31445313149E+02  0.31470948810E+02  0.12700000000E+01 0. -1.
         25    2    1    2    0    0  0.00000000000E+00  0.00000000000E+00  0.92710056151E+02  0.15563281343E+03  0.12500567229E+03 0.  0.
    9000005    1    3    3    0    0  0.23149378613E+02 -0.38939525713E+02 -0.72442394932E+01  0.45887464506E+02  0.10000000000E+01 0.  0.
    9000005    1    3    3    0    0 -0.23149378613E+02  0.38939525713E+02  0.99954295645E+02  0.10974534893E+03  0.10000000000E+01 0.  0.
<mgrwt>
<rscale>  0 0.12500567E+03</rscale>
<asrwt>0</asrwt>
<pdfrwt beam="2">  1        4 0.78653447E-02 0.12500567E+03</pdfrwt>
<pdfrwt beam="1">  1       -4 0.31042858E-01 0.12500567E+03</pdfrwt>
<totfact> 0.18262829E+03</totfact>
</mgrwt>
</event>
<event>
 5    1  0.1448308E-002  0.1250085E+03  0.7818608E-02  0.1235056E+00
          4   -1    0    0  501    0  0.00000000000E+00  0.00000000000E+00  0.30450596010E+02  0.30477068385E+02  0.12700000000E+01 0. -1.
         -4   -1    0    0    0  501 -0.00000000000E+00 -0.00000000000E+00 -0.12821363126E+03  0.12821992100E+03  0.12700000000E+01 0. -1.
         25    2    1    2    0    0  0.00000000000E+00  0.00000000000E+00 -0.97763035250E+02  0.15869698938E+03  0.12500849322E+03 0.  0.
    9000005    1    3    3    0    0 -0.70426202836E+01 -0.12424130456E+02  0.28357547979E+02  0.31766461015E+02  0.10000000000E+01 0.  0.
    9000005    1    3    3    0    0  0.70426202836E+01  0.12424130456E+02 -0.12612058323E+03  0.12693052837E+03  0.10000000000E+01 0.  0.
<mgrwt>
<rscale>  0 0.12500849E+03</rscale>
<asrwt>0</asrwt>
<pdfrwt beam="1">  1        4 0.76167446E-02 0.12500849E+03</pdfrwt>
<pdfrwt beam="2">  1       -4 0.32057502E-01 0.12500849E+03</pdfrwt>
<totfact> 0.18115672E+03</totfact>
</mgrwt>
</event>
<event>
 5    1  0.1448308E-002  0.1250032E+03  0.7818608E-02  0.1235064E+00
          4   -1    0    0  501    0  0.00000000000E+00  0.00000000000E+00  0.11666155273E+03  0.11666846526E+03  0.12700000000E+01 0.  1.
         -4   -1    0    0    0  501 -0.00000000000E+00 -0.00000000000E+00 -0.33465401075E+02  0.33489490428E+02  0.12700000000E+01 0.  1.
         25    2    1    2    0    0  0.00000000000E+00  0.00000000000E+00  0.83196151654E+02  0.15015795568E+03  0.12500324798E+03 0.  0.
    9000005    1    3    3    0    0 -0.35008528901E+02 -0.49559520872E+02  0.59564826903E+02  0.85033592238E+02  0.10000000000E+01 0.  0.
    9000005    1    3    3    0    0  0.35008528901E+02  0.49559520872E+02  0.23631324751E+02  0.65124363447E+02  0.10000000000E+01 0.  0.
<mgrwt>
<rscale>  0 0.12500325E+03</rscale>
<asrwt>0</asrwt>
<pdfrwt beam="1">  1        4 0.29169263E-01 0.12500325E+03</pdfrwt>
<pdfrwt beam="2">  1       -4 0.83702256E-02 0.12500325E+03</pdfrwt>
<totfact> 0.18529616E+03</totfact>
</mgrwt>
</event>
<event>
 5    1  0.1448308E-002  0.1249971E+03  0.7818608E-02  0.1235074E+00
          4   -1    0    0  501    0  0.00000000000E+00  0.00000000000E+00  0.13113832021E+03  0.13114446968E+03  0.12700000000E+01 0. -1.
         -4   -1    0    0    0  501 -0.00000000000E+00 -0.00000000000E+00 -0.29765496196E+02  0.29792577327E+02  0.12700000000E+01 0. -1.
         25    2    1    2    0    0  0.00000000000E+00  0.00000000000E+00  0.10137282401E+03  0.16093704700E+03  0.12499713457E+03 0.  0.
    9000005    1    3    3    0    0 -0.44432033823E+02  0.41894449300E+02  0.67753800080E+02  0.91219120458E+02  0.10000000000E+01 0.  0.
    9000005    1    3    3    0    0  0.44432033823E+02 -0.41894449300E+02  0.33619023933E+02  0.69717926547E+02  0.10000000000E+01 0.  0.
<mgrwt>
<rscale>  0 0.12499713E+03</rscale>
<asrwt>0</asrwt>
<pdfrwt beam="1">  1        4 0.32788734E-01 0.12499713E+03</pdfrwt>
<pdfrwt beam="2">  1       -4 0.74455279E-02 0.12499713E+03</pdfrwt>
<totfact> 0.18014944E+03</totfact>
</mgrwt>
</event>
<event>
 5    1  0.1448308E-002  0.1249986E+03  0.7818608E-02  0.1235071E+00
          4   -1    0    0  501    0  0.00000000000E+00  0.00000000000E+00  0.20994723380E+03  0.20995107497E+03  0.12700000000E+01 0. -1.
         -4   -1    0    0    0  501 -0.00000000000E+00 -0.00000000000E+00 -0.18579770082E+02  0.18623124236E+02  0.12700000000E+01 0. -1.
         25    2    1    2    0    0  0.00000000000E+00  0.00000000000E+00  0.19136746372E+03  0.22857419921E+03  0.12499863348E+03 0.  0.
    9000005    1    3    3    0    0  0.12050104582E+02 -0.82623473766E+01 -0.15421559304E+02  0.21267249375E+02  0.10000000000E+01 0.  0.
    9000005    1    3    3    0    0 -0.12050104582E+02  0.82623473766E+01  0.20678902303E+03  0.20730694983E+03  0.10000000000E+01 0.  0.
<mgrwt>
<rscale>  0 0.12499863E+03</rscale>
<asrwt>0</asrwt>
<pdfrwt beam="1">  1        4 0.52492708E-01 0.12499863E+03</pdfrwt>
<pdfrwt beam="2">  1       -4 0.46508420E-02 0.12499863E+03</pdfrwt>
<totfact> 0.15238873E+03</totfact>
</mgrwt>
</event>
<event>
 5    1  0.1448308E-002  0.1249978E+03  0.7818608E-02  0.1235073E+00
          4   -1    0    0  501    0  0.00000000000E+00  0.00000000000E+00  0.29192912065E+02  0.29220523863E+02  0.12700000000E+01 0. -1.
         -4   -1    0    0    0  501 -0.00000000000E+00 -0.00000000000E+00 -0.13370947148E+03  0.13371550270E+03  0.12700000000E+01 0. -1.
         25    2    1    2    0    0  0.00000000000E+00  0.00000000000E+00 -0.10451655941E+03  0.16293602656E+03  0.12499775022E+03 0.  0.
    9000005    1    3    3    0    0  0.55808116691E+02  0.73872815116E+01 -0.16895096920E+02  0.58784029435E+02  0.10000000000E+01 0.  0.
    9000005    1    3    3    0    0 -0.55808116691E+02 -0.73872815116E+01 -0.87621462490E+02  0.10415199713E+03  0.10000000000E+01 0.  0.
<mgrwt>
<rscale>  0 0.12499775E+03</rscale>
<asrwt>0</asrwt>
<pdfrwt beam="1">  1        4 0.73024337E-02 0.12499775E+03</pdfrwt>
<pdfrwt beam="2">  1       -4 0.33431572E-01 0.12499775E+03</pdfrwt>
<totfact> 0.17921387E+03</totfact>
</mgrwt>
</event>
<event>
 5    1  0.1448308E-002  0.1250187E+03  0.7818608E-02  0.1235040E+00
         -4   -1    0    0    0  501 -0.00000000000E+00  0.00000000000E+00  0.75650211134E+02  0.75660870631E+02  0.12700000000E+01 0. -1.
          4   -1    0    0  501    0  0.00000000000E+00 -0.00000000000E+00 -0.51629053503E+02  0.51644671222E+02  0.12700000000E+01 0. -1.
         25    2    1    2    0    0  0.00000000000E+00  0.00000000000E+00  0.24021157631E+02  0.12730554185E+03  0.12501873849E+03 0.  0.
    9000005    1    3    3    0    0  0.52862257860E+01 -0.41503912050E+02  0.59291588231E+02  0.72574178146E+02  0.10000000000E+01 0.  0.
    9000005    1    3    3    0    0 -0.52862257860E+01  0.41503912050E+02 -0.35270430600E+02  0.54731363707E+02  0.10000000000E+01 0.  0.
<mgrwt>
<rscale>  0 0.12501874E+03</rscale>
<asrwt>0</asrwt>
<pdfrwt beam="2">  1        4 0.12910548E-01 0.12501874E+03</pdfrwt>
<pdfrwt beam="1">  1       -4 0.18915837E-01 0.12501874E+03</pdfrwt>
<totfact> 0.19701791E+03</totfact>
</mgrwt>
</event>
<event>
 5    1  0.1448308E-002  0.1250008E+03  0.7818608E-02  0.1235068E+00
          4   -1    0    0  501    0  0.00000000000E+00  0.00000000000E+00  0.13852544865E+02  0.13910639785E+02  0.12700000000E+01 0. -1.
         -4   -1    0    0    0  501 -0.00000000000E+00 -0.00000000000E+00 -0.28134206734E+03  0.28134493377E+03  0.12700000000E+01 0. -1.
         25    2    1    2    0    0  0.00000000000E+00  0.00000000000E+00 -0.26748952248E+03  0.29525557355E+03  0.12500083631E+03 0.  0.
    9000005    1    3    3    0    0 -0.59801903114E+02  0.11465069992E+02 -0.10054276655E+03  0.11754813206E+03  0.10000000000E+01 0.  0.
    9000005    1    3    3    0    0  0.59801903114E+02 -0.11465069992E+02 -0.16694675593E+03  0.17770744149E+03  0.10000000000E+01 0.  0.
<mgrwt>
<rscale>  0 0.12500084E+03</rscale>
<asrwt>0</asrwt>
<pdfrwt beam="1">  1        4 0.34707573E-02 0.12500084E+03</pdfrwt>
<pdfrwt beam="2">  1       -4 0.70343118E-01 0.12500084E+03</pdfrwt>
<totfact> 0.13104828E+03</totfact>
</mgrwt>
</event>
<event>
 5    1  0.1448308E-002  0.1250029E+03  0.7818608E-02  0.1235065E+00
          4   -1    0    0  501    0  0.00000000000E+00  0.00000000000E+00  0.37295826234E+01  0.39398840776E+01  0.12700000000E+01 0.  1.
         -4   -1    0    0    0  501 -0.00000000000E+00 -0.00000000000E+00 -0.10184861404E+04  0.10184869322E+04  0.12700000000E+01 0.  1.
         25    2    1    2    0    0  0.00000000000E+00  0.00000000000E+00 -0.10147565578E+04  0.10224268163E+04  0.12500289244E+03 0.  0.
    9000005    1    3    3    0    0 -0.37464081645E+02 -0.16371526928E+02 -0.89395778797E+03  0.89489279300E+03  0.10000000000E+01 0.  0.
    9000005    1    3    3    0    0  0.37464081645E+02  0.16371526928E+02 -0.12079876982E+03  0.12753402329E+03  0.10000000000E+01 0.  0.
<mgrwt>
<rscale>  0 0.12500289E+03</rscale>
<asrwt>0</asrwt>
<pdfrwt beam="1">  1        4 0.95878580E-03 0.12500289E+03</pdfrwt>
<pdfrwt beam="2">  1       -4 0.25464700E+00 0.12500289E+03</pdfrwt>
<totfact> 0.35618990E+02</totfact>
</mgrwt>
</event>
<event>
 5    1  0.1448308E-002  0.1250010E+03  0.7818608E-02  0.1235068E+00
          4   -1    0    0  501    0  0.00000000000E+00  0.00000000000E+00  0.62467311056E+01  0.63745234728E+01  0.12700000000E+01 0.  1.
         -4   -1    0    0    0  501 -0.00000000000E+00 -0.00000000000E+00 -0.61887723629E+03  0.61887853937E+03  0.12700000000E+01 0.  1.
         25    2    1    2    0    0  0.00000000000E+00  0.00000000000E+00 -0.61263050518E+03  0.62525306284E+03  0.12500102686E+03 0.  0.
    9000005    1    3    3    0    0  0.58914433126E+02 -0.19873011508E+02 -0.27489134434E+03  0.28183700646E+03  0.10000000000E+01 0.  0.
    9000005    1    3    3    0    0 -0.58914433126E+02  0.19873011508E+02 -0.33773916084E+03  0.34341605638E+03  0.10000000000E+01 0.  0.
<mgrwt>
<rscale>  0 0.12500103E+03</rscale>
<asrwt>0</asrwt>
<pdfrwt beam="1">  1        4 0.15778218E-02 0.12500103E+03</pdfrwt>
<pdfrwt beam="2">  1       -4 0.15473524E+00 0.12500103E+03</pdfrwt>
<totfact> 0.70411805E+02</totfact>
</mgrwt>
</event>
<event>
 5    1  0.1448308E-002  0.1250041E+03  0.7818608E-02  0.1235063E+00
          4   -1    0    0  501    0  0.00000000000E+00  0.00000000000E+00  0.16575066223E+03  0.16575552760E+03  0.12700000000E+01 0.  1.
         -4   -1    0    0    0  501 -0.00000000000E+00 -0.00000000000E+00 -0.23546235517E+02  0.23580460281E+02  0.12700000000E+01 0.  1.
         25    2    1    2    0    0  0.00000000000E+00  0.00000000000E+00  0.14220442671E+03  0.18933598788E+03  0.12500406925E+03 0.  0.
    9000005    1    3    3    0    0  0.44529319311E+02  0.21457650205E+02  0.13184102962E+02  0.51167485785E+02  0.10000000000E+01 0.  0.
    9000005    1    3    3    0    0 -0.44529319311E+02 -0.21457650205E+02  0.12902032375E+03  0.13816850210E+03  0.10000000000E+01 0.  0.
<mgrwt>
<rscale>  0 0.12500407E+03</rscale>
<asrwt>0</asrwt>
<pdfrwt beam="1">  1        4 0.41442551E-01 0.12500407E+03</pdfrwt>
<pdfrwt beam="2">  1       -4 0.58914452E-02 0.12500407E+03</pdfrwt>
<totfact> 0.16756564E+03</totfact>
</mgrwt>
</event>
<event>
 5    1  0.1448308E-002  0.1250024E+03  0.7818608E-02  0.1235065E+00
          4   -1    0    0  501    0  0.00000000000E+00  0.00000000000E+00  0.90102562713E+01  0.90993196490E+01  0.12700000000E+01 0.  1.
         -4   -1    0    0    0  501 -0.00000000000E+00 -0.00000000000E+00 -0.43132847182E+03  0.43133034150E+03  0.12700000000E+01 0.  1.
         25    2    1    2    0    0  0.00000000000E+00  0.00000000000E+00 -0.42231821555E+03  0.44042966115E+03  0.12500244493E+03 0.  0.
    9000005    1    3    3    0    0  0.16388844976E+02  0.16406796030E+02 -0.66936478192E+01  0.24157444334E+02  0.10000000000E+01 0.  0.
    9000005    1    3    3    0    0 -0.16388844976E+02 -0.16406796030E+02 -0.41562456773E+03  0.41627221682E+03  0.10000000000E+01 0.  0.
<mgrwt>
<rscale>  0 0.12500244E+03</rscale>
<asrwt>0</asrwt>
<pdfrwt beam="1">  1        4 0.22639322E-02 0.12500244E+03</pdfrwt>
<pdfrwt beam="2">  1       -4 0.10784342E+00 0.12500244E+03</pdfrwt>
<totfact> 0.97755587E+02</totfact>
</mgrwt>
</event>
<event>
 5    1  0.1448308E-002  0.1249987E+03  0.7818608E-02  0.1235071E+00
          4   -1    0    0  501    0  0.00000000000E+00  0.00000000000E+00  0.27653494736E+02  0.27682642055E+02  0.12700000000E+01 0.  1.
         -4   -1    0    0    0  501 -0.00000000000E+00 -0.00000000000E+00 -0.14114774560E+03  0.14115345900E+03  0.12700000000E+01 0.  1.
         25    2    1    2    0    0  0.00000000000E+00  0.00000000000E+00 -0.11349425087E+03  0.16883610106E+03  0.12499873616E+03 0.  0.
    9000005    1    3    3    0    0  0.23259192255E+02 -0.19892376109E+02  0.16844152291E+02  0.34948850025E+02  0.10000000000E+01 0.  0.
    9000005    1    3    3    0    0 -0.23259192255E+02  0.19892376109E+02 -0.13033840316E+03  0.13388725103E+03  0.10000000000E+01 0.  0.
<mgrwt>
<rscale>  0 0.12499874E+03</rscale>
<asrwt>0</asrwt>
<pdfrwt beam="1">  1        4 0.69177317E-02 0.12499874E+03</pdfrwt>
<pdfrwt beam="2">  1       -4 0.35291292E-01 0.12499874E+03</pdfrwt>
<totfact> 0.17650190E+03</totfact>
</mgrwt>
</event>
<event>
 5    1  0.1448308E-002  0.1249985E+03  0.7818608E-02  0.1235072E+00
         -4   -1    0    0    0  501 -0.00000000000E+00  0.00000000000E+00  0.76335180493E+01  0.77384428543E+01  0.12700000000E+01 0. -1.
          4   -1    0    0  501    0  0.00000000000E+00 -0.00000000000E+00 -0.50811251777E+03  0.50811410492E+03  0.12700000000E+01 0. -1.
         25    2    1    2    0    0  0.00000000000E+00  0.00000000000E+00 -0.50047899972E+03  0.51585254777E+03  0.12499848751E+03 0.  0.
    9000005    1    3    3    0    0  0.11594125753E+02  0.60858465788E+02 -0.21646494009E+03  0.22515827077E+03  0.10000000000E+01 0.  0.
    9000005    1    3    3    0    0 -0.11594125753E+02 -0.60858465788E+02 -0.28401405964E+03  0.29069427700E+03  0.10000000000E+01 0.  0.
<mgrwt>
<rscale>  0 0.12499849E+03</rscale>
<asrwt>0</asrwt>
<pdfrwt beam="2">  1        4 0.12704133E+00 0.12499849E+03</pdfrwt>
<pdfrwt beam="1">  1       -4 0.19216952E-02 0.12499849E+03</pdfrwt>
<totfact> 0.85142337E+02</totfact>
</mgrwt>
</event>
<event>
 5    1  0.1448308E-002  0.1250020E+03  0.7818608E-02  0.1235066E+00
         -4   -1    0    0    0  501 -0.00000000000E+00  0.00000000000E+00  0.24885082726E+02  0.24917468617E+02  0.12700000000E+01 0. -1.
          4   -1    0    0  501    0  0.00000000000E+00 -0.00000000000E+00 -0.15683948563E+03  0.15684462743E+03  0.12700000000E+01 0. -1.
         25    2    1    2    0    0  0.00000000000E+00  0.00000000000E+00 -0.13195440291E+03  0.18176209604E+03  0.12500198043E+03 0.  0.
    9000005    1    3    3    0    0  0.62319499780E+02  0.31194198820E+01 -0.70998062443E+02  0.94526058332E+02  0.10000000000E+01 0.  0.
    9000005    1    3    3    0    0 -0.62319499780E+02 -0.31194198820E+01 -0.60956340463E+02  0.87236037713E+02  0.10000000000E+01 0.  0.
<mgrwt>
<rscale>  0 0.12500198E+03</rscale>
<asrwt>0</asrwt>
<pdfrwt beam="2">  1        4 0.39214560E-01 0.12500198E+03</pdfrwt>
<pdfrwt beam="1">  1       -4 0.62259621E-02 0.12500198E+03</pdfrwt>
<totfact> 0.17078431E+03</totfact>
</mgrwt>
</event>
<event>
 5    1  0.1448308E-002  0.1250016E+03  0.7818608E-02  0.1235067E+00
          4   -1    0    0  501    0  0.00000000000E+00  0.00000000000E+00  0.24993767546E+02  0.25026012789E+02  0.12700000000E+01 0.  1.
         -4   -1    0    0    0  501 -0.00000000000E+00 -0.00000000000E+00 -0.15615735007E+03  0.15616251433E+03  0.12700000000E+01 0.  1.
         25    2    1    2    0    0  0.00000000000E+00  0.00000000000E+00 -0.13116358253E+03  0.18118852712E+03  0.12500158790E+03 0.  0.
    9000005    1    3    3    0    0  0.50606568784E+01  0.23667722878E+02  0.17931691681E+02  0.30138296581E+02  0.10000000000E+01 0.  0.
    9000005    1    3    3    0    0 -0.50606568784E+01 -0.23667722878E+02 -0.14909527421E+03  0.15105023054E+03  0.10000000000E+01 0.  0.
<mgrwt>
<rscale>  0 0.12500159E+03</rscale>
<asrwt>0</asrwt>
<pdfrwt beam="1">  1        4 0.62531185E-02 0.12500159E+03</pdfrwt>
<pdfrwt beam="2">  1       -4 0.39044011E-01 0.12500159E+03</pdfrwt>
<totfact> 0.17103264E+03</totfact>
</mgrwt>
</event>
<event>
 5    1  0.1448308E-002  0.1250062E+03  0.7818608E-02  0.1235060E+00
         -4   -1    0    0    0  501 -0.00000000000E+00  0.00000000000E+00  0.74513546015E+02  0.74524368094E+02  0.12700000000E+01 0.  1.
          4   -1    0    0  501    0  0.00000000000E+00 -0.00000000000E+00 -0.52406194447E+02  0.52421580637E+02  0.12700000000E+01 0.  1.
         25    2    1    2    0    0  0.00000000000E+00  0.00000000000E+00  0.22107351568E+02  0.12694594873E+03  0.12500615547E+03 0.  0.
    9000005    1    3    3    0    0 -0.20034370826E+02  0.57174006345E+02 -0.45268830017E+01  0.60759655081E+02  0.10000000000E+01 0.  0.
    9000005    1    3    3    0    0  0.20034370826E+02 -0.57174006345E+02  0.26634234569E+02  0.66186293649E+02  0.10000000000E+01 0.  0.
<mgrwt>
<rscale>  0 0.12500616E+03</rscale>
<asrwt>0</asrwt>
<pdfrwt beam="2">  1        4 0.13104825E-01 0.12500616E+03</pdfrwt>
<pdfrwt beam="1">  1       -4 0.18631662E-01 0.12500616E+03</pdfrwt>
<totfact> 0.19727048E+03</totfact>
</mgrwt>
</event>
<event>
 5    1  0.1448308E-002  0.1250022E+03  0.7818608E-02  0.1235066E+00
         -4   -1    0    0    0  501 -0.00000000000E+00  0.00000000000E+00  0.11691951287E+02  0.11760723825E+02  0.12700000000E+01 0. -1.
          4   -1    0    0  501    0  0.00000000000E+00 -0.00000000000E+00 -0.33305928590E+03  0.33306170724E+03  0.12700000000E+01 0. -1.
         25    2    1    2    0    0  0.00000000000E+00  0.00000000000E+00 -0.32136733462E+03  0.34482243106E+03  0.12500218080E+03 0.  0.
    9000005    1    3    3    0    0  0.46035367858E+02 -0.40102638128E+02 -0.12388961356E+03  0.13811992263E+03  0.10000000000E+01 0.  0.
    9000005    1    3    3    0    0 -0.46035367858E+02  0.40102638128E+02 -0.19747772106E+03  0.20670250843E+03  0.10000000000E+01 0.  0.
<mgrwt>
<rscale>  0 0.12500218E+03</rscale>
<asrwt>0</asrwt>
<pdfrwt beam="2">  1        4 0.83273689E-01 0.12500218E+03</pdfrwt>
<pdfrwt beam="1">  1       -4 0.29318882E-02 0.12500218E+03</pdfrwt>
<totfact> 0.11801192E+03</totfact>
</mgrwt>
</event>
<event>
 5    1  0.1448308E-002  0.1249979E+03  0.7818608E-02  0.1235072E+00
          4   -1    0    0  501    0  0.00000000000E+00  0.00000000000E+00  0.24086103881E+02  0.24119562604E+02  0.12700000000E+01 0. -1.
         -4   -1    0    0    0  501 -0.00000000000E+00 -0.00000000000E+00 -0.16202474299E+03  0.16202972024E+03  0.12700000000E+01 0. -1.
         25    2    1    2    0    0  0.00000000000E+00  0.00000000000E+00 -0.13793863911E+03  0.18614928285E+03  0.12499794936E+03 0.  0.
    9000005    1    3    3    0    0  0.88866870767E+01 -0.54115748612E+02 -0.24351512782E+02  0.60012362308E+02  0.10000000000E+01 0.  0.
    9000005    1    3    3    0    0 -0.88866870767E+01  0.54115748612E+02 -0.11358712633E+03  0.12613692054E+03  0.10000000000E+01 0.  0.
<mgrwt>
<rscale>  0 0.12499795E+03</rscale>
<asrwt>0</asrwt>
<pdfrwt beam="1">  1        4 0.60263309E-02 0.12499795E+03</pdfrwt>
<pdfrwt beam="2">  1       -4 0.40510987E-01 0.12499795E+03</pdfrwt>
<totfact> 0.16892896E+03</totfact>
</mgrwt>
</event>
<event>
 5    1  0.1448308E-002  0.1249961E+03  0.7818608E-02  0.1235075E+00
          4   -1    0    0  501    0  0.00000000000E+00  0.00000000000E+00  0.23366651309E+02  0.23401138720E+02  0.12700000000E+01 0. -1.
         -4   -1    0    0    0  501 -0.00000000000E+00 -0.00000000000E+00 -0.16700147371E+03  0.16700630264E+03  0.12700000000E+01 0. -1.
         25    2    1    2    0    0  0.00000000000E+00  0.00000000000E+00 -0.14363482241E+03  0.19040744136E+03  0.12499612602E+03 0.  0.
    9000005    1    3    3    0    0  0.31400939419E+02  0.48102082784E+02 -0.10929133029E+03  0.12347236226E+03  0.10000000000E+01 0.  0.
    9000005    1    3    3    0    0 -0.31400939419E+02 -0.48102082784E+02 -0.34343492115E+02  0.66935079108E+02  0.10000000000E+01 0.  0.
<mgrwt>
<rscale>  0 0.12499613E+03</rscale>
<asrwt>0</asrwt>
<pdfrwt beam="1">  1        4 0.58465779E-02 0.12499613E+03</pdfrwt>
<pdfrwt beam="2">  1       -4 0.41755279E-01 0.12499613E+03</pdfrwt>
<totfact> 0.16714987E+03</totfact>
</mgrwt>
</event>
<event>
 5    1  0.1448308E-002  0.1249992E+03  0.7818608E-02  0.1235071E+00
          4   -1    0    0  501    0  0.00000000000E+00  0.00000000000E+00  0.66237230678E+02  0.66249404736E+02  0.12700000000E+01 0. -1.
         -4   -1    0    0    0  501 -0.00000000000E+00 -0.00000000000E+00 -0.58948440210E+02  0.58962119223E+02  0.12700000000E+01 0. -1.
         25    2    1    2    0    0  0.00000000000E+00  0.00000000000E+00  0.72887904675E+01  0.12521152396E+03  0.12499919706E+03 0.  0.
    9000005    1    3    3    0    0  0.14505902560E+02 -0.59956305921E+02  0.13662382522E+02  0.63188927234E+02  0.10000000000E+01 0.  0.
    9000005    1    3    3    0    0 -0.14505902560E+02  0.59956305921E+02 -0.63735920541E+01  0.62022596725E+02  0.10000000000E+01 0.  0.
<mgrwt>
<rscale>  0 0.12499920E+03</rscale>
<asrwt>0</asrwt>
<pdfrwt beam="1">  1        4 0.16562539E-01 0.12499920E+03</pdfrwt>
<pdfrwt beam="2">  1       -4 0.14740342E-01 0.12499920E+03</pdfrwt>
<totfact> 0.19823961E+03</totfact>
</mgrwt>
</event>
<event>
 5    1  0.1448308E-002  0.1250012E+03  0.7818608E-02  0.1235067E+00
         -4   -1    0    0    0  501 -0.00000000000E+00  0.00000000000E+00  0.19618068665E+03  0.19618479735E+03  0.12700000000E+01 0. -1.
          4   -1    0    0  501    0  0.00000000000E+00 -0.00000000000E+00 -0.19887301052E+02  0.19927810797E+02  0.12700000000E+01 0. -1.
         25    2    1    2    0    0  0.00000000000E+00  0.00000000000E+00  0.17629338559E+03  0.21611260815E+03  0.12500120639E+03 0.  0.
    9000005    1    3    3    0    0 -0.53479576202E+02  0.72452199816E+01  0.14262073362E+03  0.15249338327E+03  0.10000000000E+01 0.  0.
    9000005    1    3    3    0    0  0.53479576202E+02 -0.72452199816E+01  0.33672651975E+02  0.63619224880E+02  0.10000000000E+01 0.  0.
<mgrwt>
<rscale>  0 0.12500121E+03</rscale>
<asrwt>0</asrwt>
<pdfrwt beam="2">  1        4 0.49774028E-02 0.12500121E+03</pdfrwt>
<pdfrwt beam="1">  1       -4 0.49050750E-01 0.12500121E+03</pdfrwt>
<totfact> 0.15696133E+03</totfact>
</mgrwt>
</event>
<event>
 5    1  0.1448308E-002  0.1250283E+03  0.7818608E-02  0.1235025E+00
          4   -1    0    0  501    0  0.00000000000E+00  0.00000000000E+00  0.49972178031E+02  0.49988313406E+02  0.12700000000E+01 0. -1.
         -4   -1    0    0    0  501 -0.00000000000E+00 -0.00000000000E+00 -0.78169948717E+02  0.78180264661E+02  0.12700000000E+01 0. -1.
         25    2    1    2    0    0  0.00000000000E+00  0.00000000000E+00 -0.28197770687E+02  0.12816857807E+03  0.12502827733E+03 0.  0.
    9000005    1    3    3    0    0  0.34358891203E+02  0.84119664914E+01  0.38729179462E+02  0.52461833048E+02  0.10000000000E+01 0.  0.
    9000005    1    3    3    0    0 -0.34358891203E+02 -0.84119664914E+01 -0.66926950149E+02  0.75706745018E+02  0.10000000000E+01 0.  0.
<mgrwt>
<rscale>  0 0.12502828E+03</rscale>
<asrwt>0</asrwt>
<pdfrwt beam="1">  1        4 0.12496351E-01 0.12502828E+03</pdfrwt>
<pdfrwt beam="2">  1       -4 0.19545793E-01 0.12502828E+03</pdfrwt>
<totfact> 0.19650394E+03</totfact>
</mgrwt>
</event>
<event>
 5    1  0.1448308E-002  0.1249948E+03  0.7818608E-02  0.1235077E+00
         -4   -1    0    0    0  501 -0.00000000000E+00  0.00000000000E+00  0.38674492887E+01  0.40706343487E+01  0.12700000000E+01 0.  1.
          4   -1    0    0  501    0  0.00000000000E+00 -0.00000000000E+00 -0.98389355825E+03  0.98389437790E+03  0.12700000000E+01 0.  1.
         25    2    1    2    0    0  0.00000000000E+00  0.00000000000E+00 -0.98002610896E+03  0.98796501225E+03  0.12499476463E+03 0.  0.
    9000005    1    3    3    0    0  0.25166663911E+02  0.53250499698E+02 -0.32498182208E+03  0.33027740064E+03  0.10000000000E+01 0.  0.
    9000005    1    3    3    0    0 -0.25166663911E+02 -0.53250499698E+02 -0.65504428688E+03  0.65768761161E+03  0.10000000000E+01 0.  0.
<mgrwt>
<rscale>  0 0.12499476E+03</rscale>
<asrwt>0</asrwt>
<pdfrwt beam="2">  1        4 0.24599806E+00 0.12499476E+03</pdfrwt>
<pdfrwt beam="1">  1       -4 0.99236628E-03 0.12499476E+03</pdfrwt>
<totfact> 0.37929645E+02</totfact>
</mgrwt>
</event>
<event>
 5    1  0.1448308E-002  0.1249735E+03  0.7818608E-02  0.1235111E+00
          4   -1    0    0  501    0  0.00000000000E+00  0.00000000000E+00  0.10207091290E+03  0.10207881347E+03  0.12700000000E+01 0. -1.
         -4   -1    0    0    0  501 -0.00000000000E+00 -0.00000000000E+00 -0.38233811264E+02  0.38254898037E+02  0.12700000000E+01 0. -1.
         25    2    1    2    0    0  0.00000000000E+00  0.00000000000E+00  0.63837101636E+02  0.14033371151E+03  0.12497349736E+03 0.  0.
    9000005    1    3    3    0    0  0.13802191709E+01  0.45020293316E+02  0.80540093580E+02  0.92284551736E+02  0.10000000000E+01 0.  0.
    9000005    1    3    3    0    0 -0.13802191709E+01 -0.45020293316E+02 -0.16702991944E+02  0.48049159775E+02  0.10000000000E+01 0.  0.
<mgrwt>
<rscale>  0 0.12497350E+03</rscale>
<asrwt>0</asrwt>
<pdfrwt beam="1">  1        4 0.25521351E-01 0.12497350E+03</pdfrwt>
<pdfrwt beam="2">  1       -4 0.95620763E-02 0.12497350E+03</pdfrwt>
<totfact> 0.19035044E+03</totfact>
</mgrwt>
</event>
<event>
 5    1  0.1448308E-002  0.1250004E+03  0.7818608E-02  0.1235069E+00
         -4   -1    0    0    0  501 -0.00000000000E+00  0.00000000000E+00  0.10870972267E+02  0.10944904660E+02  0.12700000000E+01 0. -1.
          4   -1    0    0  501    0  0.00000000000E+00 -0.00000000000E+00 -0.35803769251E+03  0.35803994492E+03  0.12700000000E+01 0. -1.
         25    2    1    2    0    0  0.00000000000E+00  0.00000000000E+00 -0.34716672025E+03  0.36898484958E+03  0.12500035030E+03 0.  0.
    9000005    1    3    3    0    0 -0.57695373779E+02  0.55150123872E+01 -0.10460171580E+03  0.11958967542E+03  0.10000000000E+01 0.  0.
    9000005    1    3    3    0    0  0.57695373779E+02 -0.55150123872E+01 -0.24256500444E+03  0.24939517417E+03  0.10000000000E+01 0.  0.
<mgrwt>
<rscale>  0 0.12500035E+03</rscale>
<asrwt>0</asrwt>
<pdfrwt beam="2">  1        4 0.89518907E-01 0.12500035E+03</pdfrwt>
<pdfrwt beam="1">  1       -4 0.27272674E-02 0.12500035E+03</pdfrwt>
<totfact> 0.11237179E+03</totfact>
</mgrwt>
</event>
<event>
 5    1  0.1448308E-002  0.1250134E+03  0.7818608E-02  0.1235048E+00
         -4   -1    0    0    0  501 -0.00000000000E+00  0.00000000000E+00  0.73028963115E+01  0.74125025826E+01  0.12700000000E+01 0.  1.
          4   -1    0    0  501    0  0.00000000000E+00 -0.00000000000E+00 -0.53091031402E+03  0.53091183301E+03  0.12700000000E+01 0.  1.
         25    2    1    2    0    0  0.00000000000E+00  0.00000000000E+00 -0.52360741771E+03  0.53832433560E+03  0.12501344894E+03 0.  0.
    9000005    1    3    3    0    0 -0.57284541278E+02  0.24988924141E+02 -0.26332983343E+03  0.27064657059E+03  0.10000000000E+01 0.  0.
    9000005    1    3    3    0    0  0.57284541278E+02 -0.24988924141E+02 -0.26027758428E+03  0.26767776500E+03  0.10000000000E+01 0.  0.
<mgrwt>
<rscale>  0 0.12501345E+03</rscale>
<asrwt>0</asrwt>
<pdfrwt beam="2">  1        4 0.13274134E+00 0.12501345E+03</pdfrwt>
<pdfrwt beam="1">  1       -4 0.18396165E-02 0.12501345E+03</pdfrwt>
<totfact> 0.81792565E+02</totfact>
</mgrwt>
</event>
<event>
 5    1  0.1448308E-002  0.1249948E+03  0.7818608E-02  0.1235077E+00
          4   -1    0    0  501    0  0.00000000000E+00  0.00000000000E+00  0.11507961061E+02  0.11577826557E+02  0.12700000000E+01 0.  1.
         -4   -1    0    0    0  501 -0.00000000000E+00 -0.00000000000E+00 -0.33831220276E+03  0.33831458650E+03  0.12700000000E+01 0.  1.
         25    2    1    2    0    0  0.00000000000E+00  0.00000000000E+00 -0.32680424170E+03  0.34989241305E+03  0.12499475317E+03 0.  0.
    9000005    1    3    3    0    0  0.16919379251E+02  0.16129879101E+02 -0.32562584370E+03  0.32646535571E+03  0.10000000000E+01 0.  0.
    9000005    1    3    3    0    0 -0.16919379251E+02 -0.16129879101E+02 -0.11783980018E+01  0.23427057346E+02  0.10000000000E+01 0.  0.
<mgrwt>
<rscale>  0 0.12499475E+03</rscale>
<asrwt>0</asrwt>
<pdfrwt beam="1">  1        4 0.28860225E-02 0.12499475E+03</pdfrwt>
<pdfrwt beam="2">  1       -4 0.84587049E-01 0.12499475E+03</pdfrwt>
<totfact> 0.11681289E+03</totfact>
</mgrwt>
</event>
<event>
 5    1  0.1448308E-002  0.1249951E+03  0.7818608E-02  0.1235077E+00
         -4   -1    0    0    0  501 -0.00000000000E+00  0.00000000000E+00  0.74322072757E+02  0.74332922712E+02  0.12700000000E+01 0. -1.
          4   -1    0    0  501    0  0.00000000000E+00 -0.00000000000E+00 -0.52531896586E+02  0.52547245969E+02  0.12700000000E+01 0. -1.
         25    2    1    2    0    0  0.00000000000E+00  0.00000000000E+00  0.21790176171E+02  0.12688016868E+03  0.12499506161E+03 0.  0.
    9000005    1    3    3    0    0 -0.41680140208E+02 -0.33884222183E+02 -0.21517128003E+02  0.57873667571E+02  0.10000000000E+01 0.  0.
    9000005    1    3    3    0    0  0.41680140208E+02  0.33884222183E+02  0.43307304173E+02  0.69006501110E+02  0.10000000000E+01 0.  0.
<mgrwt>
<rscale>  0 0.12499506E+03</rscale>
<asrwt>0</asrwt>
<pdfrwt beam="2">  1        4 0.13136249E-01 0.12499506E+03</pdfrwt>
<pdfrwt beam="1">  1       -4 0.18583793E-01 0.12499506E+03</pdfrwt>
<totfact> 0.19735711E+03</totfact>
</mgrwt>
</event>
<event>
 5    1  0.1448308E-002  0.1250010E+03  0.7818608E-02  0.1235068E+00
          4   -1    0    0  501    0  0.00000000000E+00  0.00000000000E+00  0.49933146455E+01  0.51522898938E+01  0.12700000000E+01 0.  1.
         -4   -1    0    0    0  501 -0.00000000000E+00 -0.00000000000E+00 -0.76989046080E+03  0.76989150829E+03  0.12700000000E+01 0.  1.
         25    2    1    2    0    0  0.00000000000E+00  0.00000000000E+00 -0.76489714615E+03  0.77504379818E+03  0.12500097960E+03 0.  0.
    9000005    1    3    3    0    0 -0.60183078019E+02 -0.16831266335E+02 -0.38164446623E+03  0.38672831938E+03  0.10000000000E+01 0.  0.
    9000005    1    3    3    0    0  0.60183078019E+02  0.16831266335E+02 -0.38325267992E+03  0.38831547880E+03  0.10000000000E+01 0.  0.
<mgrwt>
<rscale>  0 0.12500098E+03</rscale>
<asrwt>0</asrwt>
<pdfrwt beam="1">  1        4 0.12683341E-02 0.12500098E+03</pdfrwt>
<pdfrwt beam="2">  1       -4 0.19249222E+00 0.12500098E+03</pdfrwt>
<totfact> 0.54726880E+02</totfact>
</mgrwt>
</event>
<event>
 5    1  0.1448308E-002  0.1249992E+03  0.7818608E-02  0.1235071E+00
         -4   -1    0    0    0  501 -0.00000000000E+00  0.00000000000E+00  0.37079596180E+02  0.37101338963E+02  0.12700000000E+01 0. -1.
          4   -1    0    0  501    0  0.00000000000E+00 -0.00000000000E+00 -0.10528985776E+03  0.10529751681E+03  0.12700000000E+01 0. -1.
         25    2    1    2    0    0  0.00000000000E+00  0.00000000000E+00 -0.68210261581E+02  0.14239885578E+03  0.12499917736E+03 0.  0.
    9000005    1    3    3    0    0  0.27934784499E+01 -0.17831388490E+02 -0.10226153736E+03  0.10384692562E+03  0.10000000000E+01 0.  0.
    9000005    1    3    3    0    0 -0.27934784499E+01  0.17831388490E+02  0.34051275775E+02  0.38551930162E+02  0.10000000000E+01 0.  0.
<mgrwt>
<rscale>  0 0.12499918E+03</rscale>
<asrwt>0</asrwt>
<pdfrwt beam="2">  1        4 0.26326139E-01 0.12499918E+03</pdfrwt>
<pdfrwt beam="1">  1       -4 0.92735745E-02 0.12499918E+03</pdfrwt>
<totfact> 0.18918649E+03</totfact>
</mgrwt>
</event>
<event>
 5    1  0.1448308E-002  0.1249993E+03  0.7818608E-02  0.1235070E+00
          4   -1    0    0  501    0  0.00000000000E+00  0.00000000000E+00  0.13535321214E+03  0.13535917012E+03  0.12700000000E+01 0.  1.
         -4   -1    0    0    0  501 -0.00000000000E+00 -0.00000000000E+00 -0.28838762555E+02  0.28866713108E+02  0.12700000000E+01 0.  1.
         25    2    1    2    0    0  0.00000000000E+00  0.00000000000E+00  0.10651444958E+03  0.16422588323E+03  0.12499925101E+03 0.  0.
    9000005    1    3    3    0    0  0.87534298746E+01  0.14954726865E+02 -0.25625703303E+02  0.30950655243E+02  0.10000000000E+01 0.  0.
    9000005    1    3    3    0    0 -0.87534298746E+01 -0.14954726865E+02  0.13214015288E+03  0.13327522799E+03  0.10000000000E+01 0.  0.
<mgrwt>
<rscale>  0 0.12499925E+03</rscale>
<asrwt>0</asrwt>
<pdfrwt beam="1">  1        4 0.33842541E-01 0.12499925E+03</pdfrwt>
<pdfrwt beam="2">  1       -4 0.72139293E-02 0.12499925E+03</pdfrwt>
<totfact> 0.17860984E+03</totfact>
</mgrwt>
</event>
<event>
 5    1  0.1448308E-002  0.1249993E+03  0.7818608E-02  0.1235070E+00
          4   -1    0    0  501    0  0.00000000000E+00  0.00000000000E+00  0.16556655128E+03  0.16557142206E+03  0.12700000000E+01 0.  1.
         -4   -1    0    0    0  501 -0.00000000000E+00 -0.00000000000E+00 -0.23570636734E+02  0.23604826118E+02  0.12700000000E+01 0.  1.
         25    2    1    2    0    0  0.00000000000E+00  0.00000000000E+00  0.14199591454E+03  0.18917624817E+03  0.12499925250E+03 0.  0.
    9000005    1    3    3    0    0  0.29319899942E+02  0.51061626797E+02  0.39315151731E+02  0.70806972958E+02  0.10000000000E+01 0.  0.
    9000005    1    3    3    0    0 -0.29319899942E+02 -0.51061626797E+02  0.10268076281E+03  0.11836927522E+03  0.10000000000E+01 0.  0.
<mgrwt>
<rscale>  0 0.12499925E+03</rscale>
<asrwt>0</asrwt>
<pdfrwt beam="1">  1        4 0.41396519E-01 0.12499925E+03</pdfrwt>
<pdfrwt beam="2">  1       -4 0.58975418E-02 0.12499925E+03</pdfrwt>
<totfact> 0.16765107E+03</totfact>
</mgrwt>
</event>
<event>
 5    1  0.1448308E-002  0.1250027E+03  0.7818608E-02  0.1235065E+00
          4   -1    0    0  501    0  0.00000000000E+00  0.00000000000E+00  0.24378677249E+03  0.24379008048E+03  0.12700000000E+01 0.  1.
         -4   -1    0    0    0  501 -0.00000000000E+00 -0.00000000000E+00 -0.15995321968E+02  0.16045660624E+02  0.12700000000E+01 0.  1.
         25    2    1    2    0    0  0.00000000000E+00  0.00000000000E+00  0.22779145052E+03  0.25983574110E+03  0.12500266967E+03 0.  0.
    9000005    1    3    3    0    0  0.12386014608E+02  0.59526922982E+02  0.83877598104E+02  0.10360173445E+03  0.10000000000E+01 0.  0.
    9000005    1    3    3    0    0 -0.12386014608E+02 -0.59526922982E+02  0.14391385242E+03  0.15623400665E+03  0.10000000000E+01 0.  0.
<mgrwt>
<rscale>  0 0.12500267E+03</rscale>
<asrwt>0</asrwt>
<pdfrwt beam="1">  1        4 0.60953399E-01 0.12500267E+03</pdfrwt>
<pdfrwt beam="2">  1       -4 0.40055363E-02 0.12500267E+03</pdfrwt>
<totfact> 0.14175557E+03</totfact>
</mgrwt>
</event>
<event>
 5    1  0.1448308E-002  0.1250007E+03  0.7818608E-02  0.1235068E+00
         -4   -1    0    0    0  501 -0.00000000000E+00  0.00000000000E+00  0.96060530990E+03  0.96060614942E+03  0.12700000000E+01 0. -1.
          4   -1    0    0  501    0  0.00000000000E+00 -0.00000000000E+00 -0.39664749735E+01  0.41648317752E+01  0.12700000000E+01 0. -1.
         25    2    1    2    0    0  0.00000000000E+00  0.00000000000E+00  0.95663883493E+03  0.96477098120E+03  0.12500074268E+03 0.  0.
    9000005    1    3    3    0    0 -0.29383615397E+02  0.51817942368E+02  0.62410826835E+03  0.62694547341E+03  0.10000000000E+01 0.  0.
    9000005    1    3    3    0    0  0.29383615397E+02 -0.51817942368E+02  0.33253056658E+03  0.33782550779E+03  0.10000000000E+01 0.  0.
<mgrwt>
<rscale>  0 0.12500074E+03</rscale>
<asrwt>0</asrwt>
<pdfrwt beam="2">  1        4 0.10165181E-02 0.12500074E+03</pdfrwt>
<pdfrwt beam="1">  1       -4 0.24017626E+00 0.12500074E+03</pdfrwt>
<totfact> 0.39528906E+02</totfact>
</mgrwt>
</event>
<event>
 5    1  0.1448308E-002  0.1250019E+03  0.7818608E-02  0.1235066E+00
         -4   -1    0    0    0  501 -0.00000000000E+00  0.00000000000E+00  0.38418974618E+02  0.38439959816E+02  0.12700000000E+01 0.  1.
          4   -1    0    0  501    0  0.00000000000E+00 -0.00000000000E+00 -0.10162544722E+03  0.10163338242E+03  0.12700000000E+01 0.  1.
         25    2    1    2    0    0  0.00000000000E+00  0.00000000000E+00 -0.63206472602E+02  0.14007334224E+03  0.12500193209E+03 0.  0.
    9000005    1    3    3    0    0  0.52178574406E+02 -0.26023598171E+02 -0.64081239610E+01  0.58667668621E+02  0.10000000000E+01 0.  0.
    9000005    1    3    3    0    0 -0.52178574406E+02  0.26023598171E+02 -0.56798348641E+02  0.81405673618E+02  0.10000000000E+01 0.  0.
<mgrwt>
<rscale>  0 0.12500193E+03</rscale>
<asrwt>0</asrwt>
<pdfrwt beam="2">  1        4 0.25409976E-01 0.12500193E+03</pdfrwt>
<pdfrwt beam="1">  1       -4 0.96083589E-02 0.12500193E+03</pdfrwt>
<totfact> 0.19035733E+03</totfact>
</mgrwt>
</event>
<event>
 5    1  0.1448308E-002  0.1250012E+03  0.7818608E-02  0.1235067E+00
         -4   -1    0    0    0  501 -0.00000000000E+00  0.00000000000E+00  0.92398740748E+02  0.92407468269E+02  0.12700000000E+01 0. -1.
          4   -1    0    0  501    0  0.00000000000E+00 -0.00000000000E+00 -0.42256566378E+02  0.42275646678E+02  0.12700000000E+01 0. -1.
         25    2    1    2    0    0  0.00000000000E+00  0.00000000000E+00  0.50142174370E+02  0.13468311495E+03  0.12500121520E+03 0.  0.
    9000005    1    3    3    0    0 -0.43072570289E+02  0.44502437466E+02  0.34060744822E+02  0.70688383696E+02  0.10000000000E+01 0.  0.
    9000005    1    3    3    0    0  0.43072570289E+02 -0.44502437466E+02  0.16081429548E+02  0.63994731251E+02  0.10000000000E+01 0.  0.
<mgrwt>
<rscale>  0 0.12500122E+03</rscale>
<asrwt>0</asrwt>
<pdfrwt beam="2">  1        4 0.10567618E-01 0.12500122E+03</pdfrwt>
<pdfrwt beam="1">  1       -4 0.23103161E-01 0.12500122E+03</pdfrwt>
<totfact> 0.19315200E+03</totfact>
</mgrwt>
</event>
<event>
 5    1  0.1448308E-002  0.1250010E+03  0.7818608E-02  0.1235068E+00
          4   -1    0    0  501    0  0.00000000000E+00  0.00000000000E+00  0.22401707888E+02  0.22437678496E+02  0.12700000000E+01 0. -1.
         -4   -1    0    0    0  501 -0.00000000000E+00 -0.00000000000E+00 -0.17419757858E+03  0.17420220803E+03  0.12700000000E+01 0. -1.
         25    2    1    2    0    0  0.00000000000E+00  0.00000000000E+00 -0.15179587069E+03  0.19663988653E+03  0.12500103445E+03 0.  0.
    9000005    1    3    3    0    0 -0.47702676035E+02 -0.27822425479E+02 -0.12191450115E+03  0.13384236344E+03  0.10000000000E+01 0.  0.
    9000005    1    3    3    0    0  0.47702676035E+02  0.27822425479E+02 -0.29881369544E+02  0.62797523090E+02  0.10000000000E+01 0.  0.
<mgrwt>
<rscale>  0 0.12500103E+03</rscale>
<asrwt>0</asrwt>
<pdfrwt beam="1">  1        4 0.56055025E-02 0.12500103E+03</pdfrwt>
<pdfrwt beam="2">  1       -4 0.43554466E-01 0.12500103E+03</pdfrwt>
<totfact> 0.16457082E+03</totfact>
</mgrwt>
</event>
<event>
 5    1  0.1448308E-002  0.1249990E+03  0.7818608E-02  0.1235071E+00
          4   -1    0    0  501    0  0.00000000000E+00  0.00000000000E+00  0.32213269647E+02  0.32238294641E+02  0.12700000000E+01 0.  1.
         -4   -1    0    0    0  501 -0.00000000000E+00 -0.00000000000E+00 -0.12118480771E+03  0.12119146224E+03  0.12700000000E+01 0.  1.
         25    2    1    2    0    0  0.00000000000E+00  0.00000000000E+00 -0.88971538061E+02  0.15342975688E+03  0.12499902284E+03 0.  0.
    9000005    1    3    3    0    0  0.42820149404E+02  0.44597068472E+02 -0.33321714869E+02  0.70241016459E+02  0.10000000000E+01 0.  0.
    9000005    1    3    3    0    0 -0.42820149404E+02 -0.44597068472E+02 -0.55649823192E+02  0.83188740420E+02  0.10000000000E+01 0.  0.
<mgrwt>
<rscale>  0 0.12499902E+03</rscale>
<asrwt>0</asrwt>
<pdfrwt beam="1">  1        4 0.80572776E-02 0.12499902E+03</pdfrwt>
<pdfrwt beam="2">  1       -4 0.30300161E-01 0.12499902E+03</pdfrwt>
<totfact> 0.18371833E+03</totfact>
</mgrwt>
</event>
<event>
 5    1  0.1448308E-002  0.1249997E+03  0.7818608E-02  0.1235070E+00
         -4   -1    0    0    0  501 -0.00000000000E+00  0.00000000000E+00  0.16425500847E+03  0.16425991814E+03  0.12700000000E+01 0.  1.
          4   -1    0    0  501    0  0.00000000000E+00 -0.00000000000E+00 -0.23759264218E+02  0.23793182557E+02  0.12700000000E+01 0.  1.
         25    2    1    2    0    0  0.00000000000E+00  0.00000000000E+00  0.14049574426E+03  0.18805310070E+03  0.12499965812E+03 0.  0.
    9000005    1    3    3    0    0  0.43925921416E+02 -0.42945780297E+02  0.87493248840E+02  0.10691068801E+03  0.10000000000E+01 0.  0.
    9000005    1    3    3    0    0 -0.43925921416E+02  0.42945780297E+02  0.53002495416E+02  0.81142412694E+02  0.10000000000E+01 0.  0.
<mgrwt>
<rscale>  0 0.12499966E+03</rscale>
<asrwt>0</asrwt>
<pdfrwt beam="2">  1        4 0.59446696E-02 0.12499966E+03</pdfrwt>
<pdfrwt beam="1">  1       -4 0.41068605E-01 0.12499966E+03</pdfrwt>
<totfact> 0.16811995E+03</totfact>
</mgrwt>
</event>
<event>
 5    1  0.1448308E-002  0.1250001E+03  0.7818608E-02  0.1235069E+00
         -4   -1    0    0    0  501 -0.00000000000E+00  0.00000000000E+00  0.11880956870E+02  0.11948641602E+02  0.12700000000E+01 0.  1.
          4   -1    0    0  501    0  0.00000000000E+00 -0.00000000000E+00 -0.32778011892E+03  0.32778257925E+03  0.12700000000E+01 0.  1.
         25    2    1    2    0    0  0.00000000000E+00  0.00000000000E+00 -0.31589916205E+03  0.33973122085E+03  0.12500008735E+03 0.  0.
    9000005    1    3    3    0    0  0.61775254300E+02 -0.56056968156E+01 -0.13731369065E+03  0.15067732252E+03  0.10000000000E+01 0.  0.
    9000005    1    3    3    0    0 -0.61775254300E+02  0.56056968156E+01 -0.17858547140E+03  0.18905389833E+03  0.10000000000E+01 0.  0.
<mgrwt>
<rscale>  0 0.12500009E+03</rscale>
<asrwt>0</asrwt>
<pdfrwt beam="2">  1        4 0.81953768E-01 0.12500009E+03</pdfrwt>
<pdfrwt beam="1">  1       -4 0.29790084E-02 0.12500009E+03</pdfrwt>
<totfact> 0.11926282E+03</totfact>
</mgrwt>
</event>
<event>
 5    1  0.1448308E-002  0.1249995E+03  0.7818608E-02  0.1235070E+00
          4   -1    0    0  501    0  0.00000000000E+00  0.00000000000E+00  0.98138193752E+01  0.98956531229E+01  0.12700000000E+01 0.  1.
         -4   -1    0    0    0  501 -0.00000000000E+00 -0.00000000000E+00 -0.39629667968E+03  0.39629871464E+03  0.12700000000E+01 0.  1.
         25    2    1    2    0    0  0.00000000000E+00  0.00000000000E+00 -0.38648286031E+03  0.40619436777E+03  0.12499945237E+03 0.  0.
    9000005    1    3    3    0    0  0.52054399685E+02  0.31529298706E+02 -0.14711831200E+03  0.15921229516E+03  0.10000000000E+01 0.  0.
    9000005    1    3    3    0    0 -0.52054399685E+02 -0.31529298706E+02 -0.23936454831E+03  0.24698207261E+03  0.10000000000E+01 0.  0.
<mgrwt>
<rscale>  0 0.12499945E+03</rscale>
<asrwt>0</asrwt>
<pdfrwt beam="1">  1        4 0.24639398E-02 0.12499945E+03</pdfrwt>
<pdfrwt beam="2">  1       -4 0.99084600E-01 0.12499945E+03</pdfrwt>
<totfact> 0.10442843E+03</totfact>
</mgrwt>
</event>
<event>
 5    1  0.1448308E-002  0.1249862E+03  0.7818608E-02  0.1235091E+00
         -4   -1    0    0    0  501 -0.00000000000E+00  0.00000000000E+00  0.49091641334E+03  0.49091805608E+03  0.12700000000E+01 0.  1.
          4   -1    0    0  501    0  0.00000000000E+00 -0.00000000000E+00 -0.79029412732E+01  0.80043351233E+01  0.12700000000E+01 0.  1.
         25    2    1    2    0    0  0.00000000000E+00  0.00000000000E+00  0.48301347207E+03  0.49892239121E+03  0.12498615222E+03 0.  0.
    9000005    1    3    3    0    0 -0.58829718710E+02  0.19617495281E+02  0.27206507031E+03  0.27904512969E+03  0.10000000000E+01 0.  0.
    9000005    1    3    3    0    0  0.58829718710E+02 -0.19617495281E+02  0.21094840176E+03  0.21987726151E+03  0.10000000000E+01 0.  0.
<mgrwt>
<rscale>  0 0.12498615E+03</rscale>
<asrwt>0</asrwt>
<pdfrwt beam="2">  1        4 0.19886151E-02 0.12498615E+03</pdfrwt>
<pdfrwt beam="1">  1       -4 0.12274197E+00 0.12498615E+03</pdfrwt>
<totfact> 0.87806188E+02</totfact>
</mgrwt>
</event>
<event>
 4    1  0.1448308E-002  0.1245025E+03  0.7818608E-02  0.1235849E+00
         -4   -1    0    0    0  501 -0.00000000000E+00  0.00000000000E+00  0.12892806923E+03  0.12893432411E+03  0.12700000000E+01 0.  1.
          4   -1    0    0  501    0  0.00000000000E+00 -0.00000000000E+00 -0.30036784571E+02  0.30063621328E+02  0.12700000000E+01 0.  1.
    9000005    1    1    2    0    0 -0.56914724380E+02  0.24778314292E+02  0.43598348583E+02  0.75862155977E+02  0.10000000000E+01 0.  0.
    9000005    1    1    2    0    0  0.56914724380E+02 -0.24778314292E+02  0.55292936074E+02  0.83135789465E+02  0.10000000000E+01 0.  0.
<mgrwt>
<rscale>  0 0.12450245E+03</rscale>
<asrwt>0</asrwt>
<pdfrwt beam="2">  1        4 0.75133327E-02 0.12450245E+03</pdfrwt>
<pdfrwt beam="1">  1       -4 0.32236153E-01 0.12450245E+03</pdfrwt>
<totfact> 0.18315993E+03</totfact>
</mgrwt>
</event>
<event>
 5    1  0.1448308E-002  0.1249797E+03  0.7818608E-02  0.1235101E+00
          4   -1    0    0  501    0  0.00000000000E+00  0.00000000000E+00  0.40542715290E+02  0.40562601779E+02  0.12700000000E+01 0.  1.
         -4   -1    0    0    0  501 -0.00000000000E+00 -0.00000000000E+00 -0.96270059776E+02  0.96278436367E+02  0.12700000000E+01 0.  1.
         25    2    1    2    0    0  0.00000000000E+00  0.00000000000E+00 -0.55727344486E+02  0.13684103815E+03  0.12497972955E+03 0.  0.
    9000005    1    3    3    0    0 -0.45241610552E+02  0.34568822243E+02 -0.56038653116E+02  0.79894539486E+02  0.10000000000E+01 0.  0.
    9000005    1    3    3    0    0  0.45241610552E+02 -0.34568822243E+02  0.31130863010E+00  0.56946498660E+02  0.10000000000E+01 0.  0.
<mgrwt>
<rscale>  0 0.12497973E+03</rscale>
<asrwt>0</asrwt>
<pdfrwt beam="1">  1        4 0.10139212E-01 0.12497973E+03</pdfrwt>
<pdfrwt beam="2">  1       -4 0.24071047E-01 0.12497973E+03</pdfrwt>
<totfact> 0.19212218E+03</totfact>
</mgrwt>
</event>
<event>
 5    1  0.1448308E-002  0.1249885E+03  0.7818608E-02  0.1235087E+00
          4   -1    0    0  501    0  0.00000000000E+00  0.00000000000E+00  0.44220174441E+02  0.44238407833E+02  0.12700000000E+01 0.  1.
         -4   -1    0    0    0  501 -0.00000000000E+00 -0.00000000000E+00 -0.88279154915E+02  0.88288289668E+02  0.12700000000E+01 0.  1.
         25    2    1    2    0    0  0.00000000000E+00  0.00000000000E+00 -0.44058980474E+02  0.13252669750E+03  0.12498852663E+03 0.  0.
    9000005    1    3    3    0    0  0.19454548345E+02 -0.17157657683E+02 -0.82305794267E+02  0.86302424290E+02  0.10000000000E+01 0.  0.
    9000005    1    3    3    0    0 -0.19454548345E+02  0.17157657683E+02  0.38246813793E+02  0.46224273210E+02  0.10000000000E+01 0.  0.
<mgrwt>
<rscale>  0 0.12498853E+03</rscale>
<asrwt>0</asrwt>
<pdfrwt beam="1">  1        4 0.11058465E-01 0.12498853E+03</pdfrwt>
<pdfrwt beam="2">  1       -4 0.22073209E-01 0.12498853E+03</pdfrwt>
<totfact> 0.19434688E+03</totfact>
</mgrwt>
</event>
<event>
 5    1  0.1448308E-002  0.1249986E+03  0.7818608E-02  0.1235071E+00
         -4   -1    0    0    0  501 -0.00000000000E+00  0.00000000000E+00  0.14137094063E+03  0.14137664501E+03  0.12700000000E+01 0.  1.
          4   -1    0    0  501    0  0.00000000000E+00 -0.00000000000E+00 -0.27609738517E+02  0.27638931979E+02  0.12700000000E+01 0.  1.
         25    2    1    2    0    0  0.00000000000E+00  0.00000000000E+00  0.11376120211E+03  0.16901557699E+03  0.12499861663E+03 0.  0.
    9000005    1    3    3    0    0  0.61505897628E+02  0.51634774864E+01  0.43665098620E+02  0.75612682668E+02  0.10000000000E+01 0.  0.
    9000005    1    3    3    0    0 -0.61505897628E+02 -0.51634774864E+01  0.70096103492E+02  0.93402894321E+02  0.10000000000E+01 0.  0.
<mgrwt>
<rscale>  0 0.12499862E+03</rscale>
<asrwt>0</asrwt>
<pdfrwt beam="2">  1        4 0.69067970E-02 0.12499862E+03</pdfrwt>
<pdfrwt beam="1">  1       -4 0.35347096E-01 0.12499862E+03</pdfrwt>
<totfact> 0.17642107E+03</totfact>
</mgrwt>
</event>
<event>
 5    1  0.1448308E-002  0.1249695E+03  0.7818608E-02  0.1235117E+00
         -4   -1    0    0    0  501 -0.00000000000E+00  0.00000000000E+00  0.24107454841E+02  0.24140883971E+02  0.12700000000E+01 0. -1.
          4   -1    0    0  501    0  0.00000000000E+00 -0.00000000000E+00 -0.16180775022E+03  0.16181273414E+03  0.12700000000E+01 0. -1.
         25    2    1    2    0    0  0.00000000000E+00  0.00000000000E+00 -0.13770029538E+03  0.18595361812E+03  0.12496950325E+03 0.  0.
    9000005    1    3    3    0    0  0.56478805998E+02 -0.31419112600E+01 -0.10832029683E+03  0.12220480285E+03  0.10000000000E+01 0.  0.
    9000005    1    3    3    0    0 -0.56478805998E+02  0.31419112600E+01 -0.29379998546E+02  0.63748815266E+02  0.10000000000E+01 0.  0.
<mgrwt>
<rscale>  0 0.12496950E+03</rscale>
<asrwt>0</asrwt>
<pdfrwt beam="2">  1        4 0.40456736E-01 0.12496950E+03</pdfrwt>
<pdfrwt beam="1">  1       -4 0.60316658E-02 0.12496950E+03</pdfrwt>
<totfact> 0.16912316E+03</totfact>
</mgrwt>
</event>
<event>
 5    1  0.1448308E-002  0.1250040E+03  0.7818608E-02  0.1235063E+00
          4   -1    0    0  501    0  0.00000000000E+00  0.00000000000E+00  0.27018893287E+03  0.27019191762E+03  0.12700000000E+01 0. -1.
         -4   -1    0    0    0  501 -0.00000000000E+00 -0.00000000000E+00 -0.14427443880E+02  0.14483232957E+02  0.12700000000E+01 0. -1.
         25    2    1    2    0    0  0.00000000000E+00  0.00000000000E+00  0.25576148899E+03  0.28467515057E+03  0.12500400835E+03 0.  0.
    9000005    1    3    3    0    0  0.69068387520E+00  0.54394550246E+02  0.19793427564E+03  0.20527596453E+03  0.10000000000E+01 0.  0.
    9000005    1    3    3    0    0 -0.69068387520E+00 -0.54394550246E+02  0.57827213353E+02  0.79399186046E+02  0.10000000000E+01 0.  0.
<mgrwt>
<rscale>  0 0.12500401E+03</rscale>
<asrwt>0</asrwt>
<pdfrwt beam="1">  1        4 0.67554579E-01 0.12500401E+03</pdfrwt>
<pdfrwt beam="2">  1       -4 0.36142077E-02 0.12500401E+03</pdfrwt>
<totfact> 0.13410467E+03</totfact>
</mgrwt>
</event>
<event>
 5    1  0.1448308E-002  0.1249717E+03  0.7818608E-02  0.1235113E+00
          4   -1    0    0  501    0  0.00000000000E+00  0.00000000000E+00  0.15059694878E+04  0.15059700233E+04  0.12700000000E+01 0. -1.
         -4   -1    0    0    0  501 -0.00000000000E+00 -0.00000000000E+00 -0.24365776844E+01  0.27476919064E+01  0.12700000000E+01 0. -1.
         25    2    1    2    0    0  0.00000000000E+00  0.00000000000E+00  0.15035329101E+04  0.15087177152E+04  0.12497172634E+03 0.  0.
    9000005    1    3    3    0    0 -0.15521841017E+02  0.56960188701E+02  0.50491688028E+03  0.50835759721E+03  0.10000000000E+01 0.  0.
    9000005    1    3    3    0    0  0.15521841017E+02 -0.56960188701E+02  0.99861602984E+03  0.10003601180E+04  0.10000000000E+01 0.  0.
<mgrwt>
<rscale>  0 0.12497173E+03</rscale>
<asrwt>0</asrwt>
<pdfrwt beam="1">  1        4 0.37653157E+00 0.12497173E+03</pdfrwt>
<pdfrwt beam="2">  1       -4 0.64810021E-03 0.12497173E+03</pdfrwt>
<totfact> 0.12216364E+02</totfact>
</mgrwt>
</event>
<event>
 5    1  0.1448308E-002  0.1250051E+03  0.7818608E-02  0.1235061E+00
          4   -1    0    0  501    0  0.00000000000E+00  0.00000000000E+00  0.53892261707E+03  0.53892411348E+03  0.12700000000E+01 0. -1.
         -4   -1    0    0    0  501 -0.00000000000E+00 -0.00000000000E+00 -0.71917049149E+01  0.73029801851E+01  0.12700000000E+01 0. -1.
         25    2    1    2    0    0  0.00000000000E+00  0.00000000000E+00  0.53173091216E+03  0.54622709367E+03  0.12500509954E+03 0.  0.
    9000005    1    3    3    0    0 -0.32500689780E+01 -0.62383635768E+02  0.25794233872E+03  0.26540069906E+03  0.10000000000E+01 0.  0.
    9000005    1    3    3    0    0  0.32500689780E+01  0.62383635768E+02  0.27378857344E+03  0.28082639460E+03  0.10000000000E+01 0.  0.
<mgrwt>
<rscale>  0 0.12500510E+03</rscale>
<asrwt>0</asrwt>
<pdfrwt beam="1">  1        4 0.13474472E+00 0.12500510E+03</pdfrwt>
<pdfrwt beam="2">  1       -4 0.18120231E-02 0.12500510E+03</pdfrwt>
<totfact> 0.80685554E+02</totfact>
</mgrwt>
</event>
<event>
 5    1  0.1448308E-002  0.1250004E+03  0.7818608E-02  0.1235069E+00
          4   -1    0    0  501    0  0.00000000000E+00  0.00000000000E+00  0.69646494882E+01  0.70794945083E+01  0.12700000000E+01 0. -1.
         -4   -1    0    0    0  501 -0.00000000000E+00 -0.00000000000E+00 -0.55616991320E+03  0.55617136320E+03  0.12700000000E+01 0. -1.
         25    2    1    2    0    0  0.00000000000E+00  0.00000000000E+00 -0.54920526371E+03  0.56325085771E+03  0.12500042810E+03 0.  0.
    9000005    1    3    3    0    0 -0.42882457134E+02  0.40951811824E+02 -0.36351130492E+03  0.36831701675E+03  0.10000000000E+01 0.  0.
    9000005    1    3    3    0    0  0.42882457134E+02 -0.40951811824E+02 -0.18569395879E+03  0.19493384096E+03  0.10000000000E+01 0.  0.
<mgrwt>
<rscale>  0 0.12500043E+03</rscale>
<asrwt>0</asrwt>
<pdfrwt beam="1">  1        4 0.17557011E-02 0.12500043E+03</pdfrwt>
<pdfrwt beam="2">  1       -4 0.13905687E+00 0.12500043E+03</pdfrwt>
<totfact> 0.78329451E+02</totfact>
</mgrwt>
</event>
<event>
 5    1  0.1448308E-002  0.1249993E+03  0.7818608E-02  0.1235070E+00
         -4   -1    0    0    0  501 -0.00000000000E+00  0.00000000000E+00  0.85630300488E+01  0.86566958834E+01  0.12700000000E+01 0.  1.
          4   -1    0    0  501    0  0.00000000000E+00 -0.00000000000E+00 -0.45359493432E+03  0.45359671222E+03  0.12700000000E+01 0.  1.
         25    2    1    2    0    0  0.00000000000E+00  0.00000000000E+00 -0.44503190427E+03  0.46225340810E+03  0.12499926995E+03 0.  0.
    9000005    1    3    3    0    0  0.45537449041E+02 -0.11129849587E+01 -0.38072617453E+03  0.38344271798E+03  0.10000000000E+01 0.  0.
    9000005    1    3    3    0    0 -0.45537449041E+02  0.11129849587E+01 -0.64305729741E+02  0.78810690126E+02  0.10000000000E+01 0.  0.
<mgrwt>
<rscale>  0 0.12499927E+03</rscale>
<asrwt>0</asrwt>
<pdfrwt beam="2">  1        4 0.11341058E+00 0.12499927E+03</pdfrwt>
<pdfrwt beam="1">  1       -4 0.21526895E-02 0.12499927E+03</pdfrwt>
<totfact> 0.93859571E+02</totfact>
</mgrwt>
</event>
<event>
 5    1  0.1448308E-002  0.1250008E+03  0.7818608E-02  0.1235068E+00
          4   -1    0    0  501    0  0.00000000000E+00  0.00000000000E+00  0.71517749438E+02  0.71529024771E+02  0.12700000000E+01 0. -1.
         -4   -1    0    0    0  501 -0.00000000000E+00 -0.00000000000E+00 -0.54597051748E+02  0.54611820695E+02  0.12700000000E+01 0. -1.
         25    2    1    2    0    0  0.00000000000E+00  0.00000000000E+00  0.16920697690E+02  0.12614084547E+03  0.12500081154E+03 0.  0.
    9000005    1    3    3    0    0 -0.74037342827E+01 -0.21324708900E+02 -0.50344110695E+02  0.55182315760E+02  0.10000000000E+01 0.  0.
    9000005    1    3    3    0    0  0.74037342827E+01  0.21324708900E+02  0.67264808385E+02  0.70958529706E+02  0.10000000000E+01 0.  0.
<mgrwt>
<rscale>  0 0.12500081E+03</rscale>
<asrwt>0</asrwt>
<pdfrwt beam="1">  1        4 0.17882693E-01 0.12500081E+03</pdfrwt>
<pdfrwt beam="2">  1       -4 0.13652519E-01 0.12500081E+03</pdfrwt>
<totfact> 0.19772935E+03</totfact>
</mgrwt>
</event>
<event>
 5    1  0.1448308E-002  0.1250013E+03  0.7818608E-02  0.1235067E+00
         -4   -1    0    0    0  501 -0.00000000000E+00  0.00000000000E+00  0.34199217231E+02  0.34222790055E+02  0.12700000000E+01 0. -1.
          4   -1    0    0  501    0  0.00000000000E+00 -0.00000000000E+00 -0.11415635891E+03  0.11416342312E+03  0.12700000000E+01 0. -1.
         25    2    1    2    0    0  0.00000000000E+00  0.00000000000E+00 -0.79957141678E+02  0.14838621318E+03  0.12500129502E+03 0.  0.
    9000005    1    3    3    0    0 -0.57184130523E+02  0.85046221830E+00 -0.69882152708E+02  0.90306496647E+02  0.10000000000E+01 0.  0.
    9000005    1    3    3    0    0  0.57184130523E+02 -0.85046221830E+00 -0.10074988970E+02  0.58079716531E+02  0.10000000000E+01 0.  0.
<mgrwt>
<rscale>  0 0.12500130E+03</rscale>
<asrwt>0</asrwt>
<pdfrwt beam="2">  1        4 0.28542918E-01 0.12500130E+03</pdfrwt>
<pdfrwt beam="1">  1       -4 0.85536342E-02 0.12500130E+03</pdfrwt>
<totfact> 0.18617855E+03</totfact>
</mgrwt>
</event>
<event>
 5    1  0.1448308E-002  0.1249999E+03  0.7818608E-02  0.1235069E+00
         -4   -1    0    0    0  501 -0.00000000000E+00  0.00000000000E+00  0.36183185664E+02  0.36205466781E+02  0.12700000000E+01 0.  1.
          4   -1    0    0  501    0  0.00000000000E+00 -0.00000000000E+00 -0.10789820894E+03  0.10790568286E+03  0.12700000000E+01 0.  1.
         25    2    1    2    0    0  0.00000000000E+00  0.00000000000E+00 -0.71715023278E+02  0.14411114964E+03  0.12499991555E+03 0.  0.
    9000005    1    3    3    0    0 -0.61262808980E+01 -0.60634860360E+02 -0.19918954152E+02  0.64123960756E+02  0.10000000000E+01 0.  0.
    9000005    1    3    3    0    0  0.61262808980E+01  0.60634860360E+02 -0.51796069125E+02  0.79987188882E+02  0.10000000000E+01 0.  0.
<mgrwt>
<rscale>  0 0.12499992E+03</rscale>
<asrwt>0</asrwt>
<pdfrwt beam="2">  1        4 0.26978271E-01 0.12499992E+03</pdfrwt>
<pdfrwt beam="1">  1       -4 0.90495160E-02 0.12499992E+03</pdfrwt>
<totfact> 0.18831997E+03</totfact>
</mgrwt>
</event>
<event>
 5    1  0.1448308E-002  0.1250009E+03  0.7818608E-02  0.1235068E+00
          4   -1    0    0  501    0  0.00000000000E+00  0.00000000000E+00  0.22309858789E+03  0.22310220263E+03  0.12700000000E+01 0.  1.
         -4   -1    0    0    0  501 -0.00000000000E+00 -0.00000000000E+00 -0.17482550604E+02  0.17528618760E+02  0.12700000000E+01 0.  1.
         25    2    1    2    0    0  0.00000000000E+00  0.00000000000E+00  0.20561603729E+03  0.24063082139E+03  0.12500094965E+03 0.  0.
    9000005    1    3    3    0    0  0.36371009974E+01 -0.48938704852E+02  0.28324355377E+02  0.56670048913E+02  0.10000000000E+01 0.  0.
    9000005    1    3    3    0    0 -0.36371009974E+01  0.48938704852E+02  0.17729168191E+03  0.18396077248E+03  0.10000000000E+01 0.  0.
<mgrwt>
<rscale>  0 0.12500095E+03</rscale>
<asrwt>0</asrwt>
<pdfrwt beam="1">  1        4 0.55780858E-01 0.12500095E+03</pdfrwt>
<pdfrwt beam="2">  1       -4 0.43768480E-02 0.12500095E+03</pdfrwt>
<totfact> 0.14814419E+03</totfact>
</mgrwt>
</event>
<event>
 5    1  0.1448308E-002  0.1249995E+03  0.7818608E-02  0.1235070E+00
          4   -1    0    0  501    0  0.00000000000E+00  0.00000000000E+00  0.23555390540E+02  0.23589602021E+02  0.12700000000E+01 0.  1.
         -4   -1    0    0    0  501 -0.00000000000E+00 -0.00000000000E+00 -0.16567429962E+03  0.16567916723E+03  0.12700000000E+01 0.  1.
         25    2    1    2    0    0  0.00000000000E+00  0.00000000000E+00 -0.14211890908E+03  0.18926876925E+03  0.12499953078E+03 0.  0.
    9000005    1    3    3    0    0 -0.53112904342E+02 -0.29764945349E+02 -0.49737898547E+02  0.78624367286E+02  0.10000000000E+01 0.  0.
    9000005    1    3    3    0    0  0.53112904342E+02  0.29764945349E+02 -0.92381010529E+02  0.11064440196E+03  0.10000000000E+01 0.  0.
<mgrwt>
<rscale>  0 0.12499953E+03</rscale>
<asrwt>0</asrwt>
<pdfrwt beam="1">  1        4 0.58937330E-02 0.12499953E+03</pdfrwt>
<pdfrwt beam="2">  1       -4 0.41423456E-01 0.12499953E+03</pdfrwt>
<totfact> 0.16761133E+03</totfact>
</mgrwt>
</event>
<event>
 5    1  0.1448308E-002  0.1250036E+03  0.7818608E-02  0.1235064E+00
         -4   -1    0    0    0  501 -0.00000000000E+00  0.00000000000E+00  0.19027905761E+03  0.19028329581E+03  0.12700000000E+01 0. -1.
          4   -1    0    0  501    0  0.00000000000E+00 -0.00000000000E+00 -0.20506142889E+02  0.20545432490E+02  0.12700000000E+01 0. -1.
         25    2    1    2    0    0  0.00000000000E+00  0.00000000000E+00  0.16977291472E+03  0.21082872830E+03  0.12500364036E+03 0.  0.
    9000005    1    3    3    0    0 -0.33323008784E+02 -0.47219438829E+02  0.44783440477E+02  0.73120823701E+02  0.10000000000E+01 0.  0.
    9000005    1    3    3    0    0  0.33323008784E+02  0.47219438829E+02  0.12498947424E+03  0.13770790460E+03  0.10000000000E+01 0.  0.
<mgrwt>
<rscale>  0 0.12500364E+03</rscale>
<asrwt>0</asrwt>
<pdfrwt beam="2">  1        4 0.51319767E-02 0.12500364E+03</pdfrwt>
<pdfrwt beam="1">  1       -4 0.47575206E-01 0.12500364E+03</pdfrwt>
<totfact> 0.15896097E+03</totfact>
</mgrwt>
</event>
<event>
 5    1  0.1448308E-002  0.1250033E+03  0.7818608E-02  0.1235064E+00
          4   -1    0    0  501    0  0.00000000000E+00  0.00000000000E+00  0.99295936937E+02  0.99304058287E+02  0.12700000000E+01 0.  1.
         -4   -1    0    0    0  501 -0.00000000000E+00 -0.00000000000E+00 -0.39321548265E+02  0.39342052030E+02  0.12700000000E+01 0.  1.
         25    2    1    2    0    0  0.00000000000E+00  0.00000000000E+00  0.59974388673E+02  0.13864611032E+03  0.12500326639E+03 0.  0.
    9000005    1    3    3    0    0 -0.59005814193E+02 -0.91651616952E+01  0.50431740424E+02  0.78166787958E+02  0.10000000000E+01 0.  0.
    9000005    1    3    3    0    0  0.59005814193E+02  0.91651616952E+01  0.95426482482E+01  0.60479322359E+02  0.10000000000E+01 0.  0.
<mgrwt>
<rscale>  0 0.12500327E+03</rscale>
<asrwt>0</asrwt>
<pdfrwt beam="1">  1        4 0.24827562E-01 0.12500327E+03</pdfrwt>
<pdfrwt beam="2">  1       -4 0.98339653E-02 0.12500327E+03</pdfrwt>
<totfact> 0.19108365E+03</totfact>
</mgrwt>
</event>
<event>
 5    1  0.1448308E-002  0.1250012E+03  0.7818608E-02  0.1235067E+00
         -4   -1    0    0    0  501 -0.00000000000E+00  0.00000000000E+00  0.74943915909E+01  0.76012370913E+01  0.12700000000E+01 0.  1.
          4   -1    0    0  501    0  0.00000000000E+00 -0.00000000000E+00 -0.51743622987E+03  0.51743778842E+03  0.12700000000E+01 0.  1.
         25    2    1    2    0    0  0.00000000000E+00  0.00000000000E+00 -0.50994183828E+03  0.52503902551E+03  0.12500119951E+03 0.  0.
    9000005    1    3    3    0    0  0.11611050836E+02  0.20519875114E+02 -0.49805902686E+03  0.49861776544E+03  0.10000000000E+01 0.  0.
    9000005    1    3    3    0    0 -0.11611050836E+02 -0.20519875114E+02 -0.11882811415E+02  0.26421260064E+02  0.10000000000E+01 0.  0.
<mgrwt>
<rscale>  0 0.12500120E+03</rscale>
<asrwt>0</asrwt>
<pdfrwt beam="2">  1        4 0.12937249E+00 0.12500120E+03</pdfrwt>
<pdfrwt beam="1">  1       -4 0.18871502E-02 0.12500120E+03</pdfrwt>
<totfact> 0.83755027E+02</totfact>
</mgrwt>
</event>
<event>
 5    1  0.1448308E-002  0.1249997E+03  0.7818608E-02  0.1235070E+00
          4   -1    0    0  501    0  0.00000000000E+00  0.00000000000E+00  0.10057575198E+02  0.10137441436E+02  0.12700000000E+01 0.  1.
         -4   -1    0    0    0  501 -0.00000000000E+00 -0.00000000000E+00 -0.38677019368E+03  0.38677227877E+03  0.12700000000E+01 0.  1.
         25    2    1    2    0    0  0.00000000000E+00  0.00000000000E+00 -0.37671261849E+03  0.39690972020E+03  0.12499971626E+03 0.  0.
    9000005    1    3    3    0    0  0.54830988905E+02  0.10649005744E+02 -0.99369346031E+02  0.11399607712E+03  0.10000000000E+01 0.  0.
    9000005    1    3    3    0    0 -0.54830988905E+02 -0.10649005744E+02 -0.27734327246E+03  0.28291364309E+03  0.10000000000E+01 0.  0.
<mgrwt>
<rscale>  0 0.12499972E+03</rscale>
<asrwt>0</asrwt>
<pdfrwt beam="1">  1        4 0.25246390E-02 0.12499972E+03</pdfrwt>
<pdfrwt beam="2">  1       -4 0.96702743E-01 0.12499972E+03</pdfrwt>
<totfact> 0.10633205E+03</totfact>
</mgrwt>
</event>
<event>
 5    1  0.1448308E-002  0.1249973E+03  0.7818608E-02  0.1235074E+00
         -4   -1    0    0    0  501 -0.00000000000E+00  0.00000000000E+00  0.39062173959E+03  0.39062380411E+03  0.12700000000E+01 0. -1.
          4   -1    0    0  501    0  0.00000000000E+00 -0.00000000000E+00 -0.99572269786E+01  0.10037891666E+02  0.12700000000E+01 0. -1.
         25    2    1    2    0    0  0.00000000000E+00  0.00000000000E+00  0.38066451261E+03  0.40066169578E+03  0.12499729319E+03 0.  0.
    9000005    1    3    3    0    0  0.54178025950E+02  0.28257983113E+02  0.23228563594E+03  0.24019031781E+03  0.10000000000E+01 0.  0.
    9000005    1    3    3    0    0 -0.54178025950E+02 -0.28257983113E+02  0.14837887667E+03  0.16047137797E+03  0.10000000000E+01 0.  0.
<mgrwt>
<rscale>  0 0.12499729E+03</rscale>
<asrwt>0</asrwt>
<pdfrwt beam="2">  1        4 0.24996482E-02 0.12499729E+03</pdfrwt>
<pdfrwt beam="1">  1       -4 0.97665764E-01 0.12499729E+03</pdfrwt>
<totfact> 0.10556234E+03</totfact>
</mgrwt>
</event>
<event>
 5    1  0.1448308E-002  0.1249993E+03  0.7818608E-02  0.1235070E+00
          4   -1    0    0  501    0  0.00000000000E+00  0.00000000000E+00  0.57964440474E+03  0.57964579602E+03  0.12700000000E+01 0. -1.
         -4   -1    0    0    0  501 -0.00000000000E+00 -0.00000000000E+00 -0.66777276361E+01  0.67974220394E+01  0.12700000000E+01 0. -1.
         25    2    1    2    0    0  0.00000000000E+00  0.00000000000E+00  0.57296667710E+03  0.58644321806E+03  0.12499933975E+03 0.  0.
    9000005    1    3    3    0    0  0.24616488177E+02 -0.18013861496E+02  0.54236703311E+03  0.54322506321E+03  0.10000000000E+01 0.  0.
    9000005    1    3    3    0    0 -0.24616488177E+02  0.18013861496E+02  0.30599643994E+02  0.43218154850E+02  0.10000000000E+01 0.  0.
<mgrwt>
<rscale>  0 0.12499934E+03</rscale>
<asrwt>0</asrwt>
<pdfrwt beam="1">  1        4 0.14492623E+00 0.12499934E+03</pdfrwt>
<pdfrwt beam="2">  1       -4 0.16845677E-02 0.12499934E+03</pdfrwt>
<totfact> 0.75236668E+02</totfact>
</mgrwt>
</event>
<event>
 5    1  0.1448308E-002  0.1249953E+03  0.7818608E-02  0.1235077E+00
         -4   -1    0    0    0  501 -0.00000000000E+00  0.00000000000E+00  0.54948822957E+01  0.56397368240E+01  0.12700000000E+01 0. -1.
          4   -1    0    0  501    0  0.00000000000E+00 -0.00000000000E+00 -0.70144190974E+03  0.70144305944E+03  0.12700000000E+01 0. -1.
         25    2    1    2    0    0  0.00000000000E+00  0.00000000000E+00 -0.69594702744E+03  0.70708279626E+03  0.12499526298E+03 0.  0.
    9000005    1    3    3    0    0  0.36774039420E+01  0.61934189098E+02 -0.30579776531E+03  0.31202987092E+03  0.10000000000E+01 0.  0.
    9000005    1    3    3    0    0 -0.36774039420E+01 -0.61934189098E+02 -0.39014926213E+03  0.39505292534E+03  0.10000000000E+01 0.  0.
<mgrwt>
<rscale>  0 0.12499526E+03</rscale>
<asrwt>0</asrwt>
<pdfrwt beam="2">  1        4 0.17537843E+00 0.12499526E+03</pdfrwt>
<pdfrwt beam="1">  1       -4 0.13919735E-02 0.12499526E+03</pdfrwt>
<totfact> 0.61337214E+02</totfact>
</mgrwt>
</event>
<event>
 5    1  0.1448308E-002  0.1250027E+03  0.7818608E-02  0.1235065E+00
          4   -1    0    0  501    0  0.00000000000E+00  0.00000000000E+00  0.64607713282E+01  0.65844108435E+01  0.12700000000E+01 0.  1.
         -4   -1    0    0    0  501 -0.00000000000E+00 -0.00000000000E+00 -0.59878178447E+03  0.59878313129E+03  0.12700000000E+01 0.  1.
         25    2    1    2    0    0  0.00000000000E+00  0.00000000000E+00 -0.59232101314E+03  0.60536754213E+03  0.12500271379E+03 0.  0.
    9000005    1    3    3    0    0 -0.45008479629E+01  0.46907424669E+02 -0.49494432064E+03  0.49718351205E+03  0.10000000000E+01 0.  0.
    9000005    1    3    3    0    0  0.45008479629E+01 -0.46907424669E+02 -0.97376692498E+02  0.10818403007E+03  0.10000000000E+01 0.  0.
<mgrwt>
<rscale>  0 0.12500271E+03</rscale>
<asrwt>0</asrwt>
<pdfrwt beam="1">  1        4 0.16308182E-02 0.12500271E+03</pdfrwt>
<pdfrwt beam="2">  1       -4 0.14971088E+00 0.12500271E+03</pdfrwt>
<totfact> 0.72827267E+02</totfact>
</mgrwt>
</event>
<event>
 5    1  0.1448308E-002  0.1249974E+03  0.7818608E-02  0.1235073E+00
          4   -1    0    0  501    0  0.00000000000E+00  0.00000000000E+00  0.40002026586E+02  0.40022181737E+02  0.12700000000E+01 0.  1.
         -4   -1    0    0    0  501 -0.00000000000E+00 -0.00000000000E+00 -0.97598380234E+02  0.97606642829E+02  0.12700000000E+01 0.  1.
         25    2    1    2    0    0  0.00000000000E+00  0.00000000000E+00 -0.57596353648E+02  0.13762882457E+03  0.12499741356E+03 0.  0.
    9000005    1    3    3    0    0 -0.39567972195E+02 -0.23468918598E+02  0.17768360499E+02  0.49326759458E+02  0.10000000000E+01 0.  0.
    9000005    1    3    3    0    0  0.39567972195E+02  0.23468918598E+02 -0.75364714147E+02  0.88302065107E+02  0.10000000000E+01 0.  0.
<mgrwt>
<rscale>  0 0.12499741E+03</rscale>
<asrwt>0</asrwt>
<pdfrwt beam="1">  1        4 0.10004059E-01 0.12499741E+03</pdfrwt>
<pdfrwt beam="2">  1       -4 0.24403147E-01 0.12499741E+03</pdfrwt>
<totfact> 0.19163469E+03</totfact>
</mgrwt>
</event>
<event>
 5    1  0.1448308E-002  0.1250034E+03  0.7818608E-02  0.1235064E+00
         -4   -1    0    0    0  501 -0.00000000000E+00  0.00000000000E+00  0.67301683823E+02  0.67313665369E+02  0.12700000000E+01 0. -1.
          4   -1    0    0  501    0  0.00000000000E+00 -0.00000000000E+00 -0.58019910010E+02  0.58033807885E+02  0.12700000000E+01 0. -1.
         25    2    1    2    0    0  0.00000000000E+00  0.00000000000E+00  0.92817738127E+01  0.12534747325E+03  0.12500335086E+03 0.  0.
    9000005    1    3    3    0    0  0.18731358640E+02  0.59291449944E+02 -0.16308975420E+01  0.62209321325E+02  0.10000000000E+01 0.  0.
    9000005    1    3    3    0    0 -0.18731358640E+02 -0.59291449944E+02  0.10912671355E+02  0.63138151929E+02  0.10000000000E+01 0.  0.
<mgrwt>
<rscale>  0 0.12500335E+03</rscale>
<asrwt>0</asrwt>
<pdfrwt beam="2">  1        4 0.14508213E-01 0.12500335E+03</pdfrwt>
<pdfrwt beam="1">  1       -4 0.16828656E-01 0.12500335E+03</pdfrwt>
<totfact> 0.19814669E+03</totfact>
</mgrwt>
</event>
<event>
 5    1  0.1448308E-002  0.1249984E+03  0.7818608E-02  0.1235072E+00
         -4   -1    0    0    0  501 -0.00000000000E+00  0.00000000000E+00  0.11533241419E+02  0.11602954694E+02  0.12700000000E+01 0.  1.
          4   -1    0    0  501    0  0.00000000000E+00 -0.00000000000E+00 -0.33759464941E+03  0.33759703822E+03  0.12700000000E+01 0.  1.
         25    2    1    2    0    0  0.00000000000E+00  0.00000000000E+00 -0.32606140799E+03  0.34919999291E+03  0.12499837305E+03 0.  0.
    9000005    1    3    3    0    0 -0.57634796798E+02  0.12967450542E+02 -0.10610466654E+03  0.12144597498E+03  0.10000000000E+01 0.  0.
    9000005    1    3    3    0    0  0.57634796798E+02 -0.12967450542E+02 -0.21995674145E+03  0.22775401793E+03  0.10000000000E+01 0.  0.
<mgrwt>
<rscale>  0 0.12499837E+03</rscale>
<asrwt>0</asrwt>
<pdfrwt beam="2">  1        4 0.84407642E-01 0.12499837E+03</pdfrwt>
<pdfrwt beam="1">  1       -4 0.28923242E-02 0.12499837E+03</pdfrwt>
<totfact> 0.11696862E+03</totfact>
</mgrwt>
</event>
<event>
 5    1  0.1448308E-002  0.1250224E+03  0.7818608E-02  0.1235034E+00
          4   -1    0    0  501    0  0.00000000000E+00  0.00000000000E+00  0.12816545474E+03  0.12817174684E+03  0.12700000000E+01 0. -1.
         -4   -1    0    0    0  501 -0.00000000000E+00 -0.00000000000E+00 -0.30468844313E+02  0.30495300847E+02  0.12700000000E+01 0. -1.
         25    2    1    2    0    0  0.00000000000E+00  0.00000000000E+00  0.97696610424E+02  0.15866704769E+03  0.12502241532E+03 0.  0.
    9000005    1    3    3    0    0  0.61286756692E+02 -0.60343120710E+01  0.35287735708E+02  0.70983827449E+02  0.10000000000E+01 0.  0.
    9000005    1    3    3    0    0 -0.61286756692E+02  0.60343120710E+01  0.62408874716E+02  0.87683220238E+02  0.10000000000E+01 0.  0.
<mgrwt>
<rscale>  0 0.12502242E+03</rscale>
<asrwt>0</asrwt>
<pdfrwt beam="1">  1        4 0.32045457E-01 0.12502242E+03</pdfrwt>
<pdfrwt beam="2">  1       -4 0.76213048E-02 0.12502242E+03</pdfrwt>
<totfact> 0.18111227E+03</totfact>
</mgrwt>
</event>
<event>
 5    1  0.1448308E-002  0.1250012E+03  0.7818608E-02  0.1235067E+00
         -4   -1    0    0    0  501 -0.00000000000E+00  0.00000000000E+00  0.38960932321E+02  0.38981625766E+02  0.12700000000E+01 0.  1.
          4   -1    0    0  501    0  0.00000000000E+00 -0.00000000000E+00 -0.10021125199E+03  0.10021929917E+03  0.12700000000E+01 0.  1.
         25    2    1    2    0    0  0.00000000000E+00  0.00000000000E+00 -0.61250319673E+02  0.13920092494E+03  0.12500118337E+03 0.  0.
    9000005    1    3    3    0    0 -0.25339878534E+02 -0.51043252947E+02 -0.20640413981E+01  0.57033177909E+02  0.10000000000E+01 0.  0.
    9000005    1    3    3    0    0  0.25339878534E+02  0.51043252947E+02 -0.59186278275E+02  0.82167747027E+02  0.10000000000E+01 0.  0.
<mgrwt>
<rscale>  0 0.12500118E+03</rscale>
<asrwt>0</asrwt>
<pdfrwt beam="2">  1        4 0.25056405E-01 0.12500118E+03</pdfrwt>
<pdfrwt beam="1">  1       -4 0.97438259E-02 0.12500118E+03</pdfrwt>
<totfact> 0.19080770E+03</totfact>
</mgrwt>
</event>
<event>
 5    1  0.1448308E-002  0.1249973E+03  0.7818608E-02  0.1235073E+00
         -4   -1    0    0    0  501 -0.00000000000E+00  0.00000000000E+00  0.95288395985E+03  0.95288480618E+03  0.12700000000E+01 0.  1.
          4   -1    0    0  501    0  0.00000000000E+00 -0.00000000000E+00 -0.39999868168E+01  0.41967600044E+01  0.12700000000E+01 0.  1.
         25    2    1    2    0    0  0.00000000000E+00  0.00000000000E+00  0.94888397303E+03  0.95708156618E+03  0.12499732014E+03 0.  0.
    9000005    1    3    3    0    0 -0.40725870634E+02  0.34852666364E+02  0.72038885710E+03  0.72238107002E+03  0.10000000000E+01 0.  0.
    9000005    1    3    3    0    0  0.40725870634E+02 -0.34852666364E+02  0.22849511594E+03  0.23470049616E+03  0.10000000000E+01 0.  0.
<mgrwt>
<rscale>  0 0.12499732E+03</rscale>
<asrwt>0</asrwt>
<pdfrwt beam="2">  1        4 0.10246991E-02 0.12499732E+03</pdfrwt>
<pdfrwt beam="1">  1       -4 0.23824570E+00 0.12499732E+03</pdfrwt>
<totfact> 0.40074769E+02</totfact>
</mgrwt>
</event>
<event>
 5    1  0.1448308E-002  0.1250056E+03  0.7818608E-02  0.1235061E+00
         -4   -1    0    0    0  501 -0.00000000000E+00  0.00000000000E+00  0.14687136997E+03  0.14687686073E+03  0.12700000000E+01 0.  1.
          4   -1    0    0  501    0  0.00000000000E+00 -0.00000000000E+00 -0.26577634037E+02  0.26607959918E+02  0.12700000000E+01 0.  1.
         25    2    1    2    0    0  0.00000000000E+00  0.00000000000E+00  0.12029373594E+03  0.17348482065E+03  0.12500560023E+03 0.  0.
    9000005    1    3    3    0    0 -0.18304916739E+02  0.26183367506E+02  0.13468903403E+03  0.13842967384E+03  0.10000000000E+01 0.  0.
    9000005    1    3    3    0    0  0.18304916739E+02 -0.26183367506E+02 -0.14395298094E+02  0.35055146811E+02  0.10000000000E+01 0.  0.
<mgrwt>
<rscale>  0 0.12500560E+03</rscale>
<asrwt>0</asrwt>
<pdfrwt beam="2">  1        4 0.66488857E-02 0.12500560E+03</pdfrwt>
<pdfrwt beam="1">  1       -4 0.36722319E-01 0.12500560E+03</pdfrwt>
<totfact> 0.17438737E+03</totfact>
</mgrwt>
</event>
<event>
 5    1  0.1448308E-002  0.1250088E+03  0.7818608E-02  0.1235056E+00
         -4   -1    0    0    0  501 -0.00000000000E+00  0.00000000000E+00  0.49875236821E+02  0.49891403548E+02  0.12700000000E+01 0. -1.
          4   -1    0    0  501    0  0.00000000000E+00 -0.00000000000E+00 -0.78297421032E+02  0.78307720183E+02  0.12700000000E+01 0. -1.
         25    2    1    2    0    0  0.00000000000E+00  0.00000000000E+00 -0.28422184210E+02  0.12819912373E+03  0.12500877877E+03 0.  0.
    9000005    1    3    3    0    0 -0.52993144944E+02 -0.31777122542E+02 -0.46050878178E+01  0.61969877859E+02  0.10000000000E+01 0.  0.
    9000005    1    3    3    0    0  0.52993144944E+02  0.31777122542E+02 -0.23817096393E+02  0.66229245871E+02  0.10000000000E+01 0.  0.
<mgrwt>
<rscale>  0 0.12500878E+03</rscale>
<asrwt>0</asrwt>
<pdfrwt beam="2">  1        4 0.19577663E-01 0.12500878E+03</pdfrwt>
<pdfrwt beam="1">  1       -4 0.12472117E-01 0.12500878E+03</pdfrwt>
<totfact> 0.19657678E+03</totfact>
</mgrwt>
</event>
<event>
 4    1  0.1448308E-002  0.1250708E+03  0.7818608E-02  0.1234959E+00
         -4   -1    0    0    0  501 -0.00000000000E+00  0.00000000000E+00  0.39408908293E+02  0.39429366630E+02  0.12700000000E+01 0. -1.
          4   -1    0    0  501    0  0.00000000000E+00 -0.00000000000E+00 -0.99183003679E+02  0.99191134276E+02  0.12700000000E+01 0. -1.
    9000005    1    1    2    0    0  0.34955727718E+02  0.37626052356E+02 -0.69416801494E+02  0.86355747034E+02  0.10000000000E+01 0.  0.
    9000005    1    1    2    0    0 -0.34955727718E+02 -0.37626052356E+02  0.96427061078E+01  0.52264753872E+02  0.10000000000E+01 0.  0.
<mgrwt>
<rscale>  0 0.12507078E+03</rscale>
<asrwt>0</asrwt>
<pdfrwt beam="2">  1        4 0.24799324E-01 0.12507078E+03</pdfrwt>
<pdfrwt beam="1">  1       -4 0.98558009E-02 0.12507078E+03</pdfrwt>
<totfact> 0.19079623E+03</totfact>
</mgrwt>
</event>
<event>
 5    1  0.1448308E-002  0.1249982E+03  0.7818608E-02  0.1235072E+00
         -4   -1    0    0    0  501 -0.00000000000E+00  0.00000000000E+00  0.50743025463E+03  0.50743184391E+03  0.12700000000E+01 0. -1.
          4   -1    0    0  501    0  0.00000000000E+00 -0.00000000000E+00 -0.76438812085E+01  0.77486656871E+01  0.12700000000E+01 0. -1.
         25    2    1    2    0    0  0.00000000000E+00  0.00000000000E+00  0.49978637342E+03  0.51518050960E+03  0.12499815363E+03 0.  0.
    9000005    1    3    3    0    0 -0.61068787178E+01 -0.60428745204E+02  0.31049576363E+03  0.31638196290E+03  0.10000000000E+01 0.  0.
    9000005    1    3    3    0    0  0.61068787178E+01  0.60428745204E+02  0.18929060979E+03  0.19879854670E+03  0.10000000000E+01 0.  0.
<mgrwt>
<rscale>  0 0.12499815E+03</rscale>
<asrwt>0</asrwt>
<pdfrwt beam="2">  1        4 0.19242672E-02 0.12499815E+03</pdfrwt>
<pdfrwt beam="1">  1       -4 0.12687085E+00 0.12499815E+03</pdfrwt>
<totfact> 0.85245386E+02</totfact>
</mgrwt>
</event>
<event>
 5    1  0.1448308E-002  0.1250023E+03  0.7818608E-02  0.1235066E+00
         -4   -1    0    0    0  501 -0.00000000000E+00  0.00000000000E+00  0.42407949493E+02  0.42426961713E+02  0.12700000000E+01 0.  1.
          4   -1    0    0  501    0  0.00000000000E+00 -0.00000000000E+00 -0.92070641038E+02  0.92079399657E+02  0.12700000000E+01 0.  1.
         25    2    1    2    0    0  0.00000000000E+00  0.00000000000E+00 -0.49662691545E+02  0.13450636137E+03  0.12500231325E+03 0.  0.
    9000005    1    3    3    0    0  0.19514411188E+02  0.24704917588E+02  0.33256882576E+02  0.45805735839E+02  0.10000000000E+01 0.  0.
    9000005    1    3    3    0    0 -0.19514411188E+02 -0.24704917588E+02 -0.82919574122E+02  0.88700625531E+02  0.10000000000E+01 0.  0.
<mgrwt>
<rscale>  0 0.12500231E+03</rscale>
<asrwt>0</asrwt>
<pdfrwt beam="2">  1        4 0.23021131E-01 0.12500231E+03</pdfrwt>
<pdfrwt beam="1">  1       -4 0.10605459E-01 0.12500231E+03</pdfrwt>
<totfact> 0.19323981E+03</totfact>
</mgrwt>
</event>
<event>
 5    1  0.1448308E-002  0.1250022E+03  0.7818608E-02  0.1235066E+00
          4   -1    0    0  501    0  0.00000000000E+00  0.00000000000E+00  0.21748679863E+03  0.21749050664E+03  0.12700000000E+01 0.  1.
         -4   -1    0    0    0  501 -0.00000000000E+00 -0.00000000000E+00 -0.17935166358E+02  0.17980074869E+02  0.12700000000E+01 0.  1.
         25    2    1    2    0    0  0.00000000000E+00  0.00000000000E+00  0.19955163227E+03  0.23547058151E+03  0.12500216324E+03 0.  0.
    9000005    1    3    3    0    0 -0.25965828238E+02  0.21642006550E+02  0.76272150486E+00  0.33825765737E+02  0.10000000000E+01 0.  0.
    9000005    1    3    3    0    0  0.25965828238E+02 -0.21642006550E+02  0.19878891076E+03  0.20164481577E+03  0.10000000000E+01 0.  0.
<mgrwt>
<rscale>  0 0.12500216E+03</rscale>
<asrwt>0</asrwt>
<pdfrwt beam="1">  1        4 0.54377776E-01 0.12500216E+03</pdfrwt>
<pdfrwt beam="2">  1       -4 0.44898687E-02 0.12500216E+03</pdfrwt>
<totfact> 0.14993039E+03</totfact>
</mgrwt>
</event>
<event>
 5    1  0.1448308E-002  0.1250066E+03  0.7818608E-02  0.1235059E+00
         -4   -1    0    0    0  501 -0.00000000000E+00  0.00000000000E+00  0.11591386476E+03  0.11592082187E+03  0.12700000000E+01 0. -1.
          4   -1    0    0  501    0  0.00000000000E+00 -0.00000000000E+00 -0.33683197234E+02  0.33707130935E+02  0.12700000000E+01 0. -1.
         25    2    1    2    0    0  0.00000000000E+00  0.00000000000E+00  0.82230667525E+02  0.14962795281E+03  0.12500656615E+03 0.  0.
    9000005    1    3    3    0    0  0.58620393131E+02  0.21204539857E+02  0.35805710669E+02  0.71895979845E+02  0.10000000000E+01 0.  0.
    9000005    1    3    3    0    0 -0.58620393131E+02 -0.21204539857E+02  0.46424956855E+02  0.77731972961E+02  0.10000000000E+01 0.  0.
<mgrwt>
<rscale>  0 0.12500657E+03</rscale>
<asrwt>0</asrwt>
<pdfrwt beam="2">  1        4 0.84246607E-02 0.12500657E+03</pdfrwt>
<pdfrwt beam="1">  1       -4 0.28982327E-01 0.12500657E+03</pdfrwt>
<totfact> 0.18554254E+03</totfact>
</mgrwt>
</event>
<event>
 5    1  0.1448308E-002  0.1250014E+03  0.7818608E-02  0.1235067E+00
          4   -1    0    0  501    0  0.00000000000E+00  0.00000000000E+00  0.18050225810E+02  0.18094848764E+02  0.12700000000E+01 0.  1.
         -4   -1    0    0    0  501 -0.00000000000E+00 -0.00000000000E+00 -0.21610116430E+03  0.21610489609E+03  0.12700000000E+01 0.  1.
         25    2    1    2    0    0  0.00000000000E+00  0.00000000000E+00 -0.19805093849E+03  0.23419974485E+03  0.12500138500E+03 0.  0.
    9000005    1    3    3    0    0 -0.33068836954E+02  0.32023328902E+02 -0.17821142864E+03  0.18406345338E+03  0.10000000000E+01 0.  0.
    9000005    1    3    3    0    0  0.33068836954E+02 -0.32023328902E+02 -0.19839509851E+02  0.50136291472E+02  0.10000000000E+01 0.  0.
<mgrwt>
<rscale>  0 0.12500138E+03</rscale>
<asrwt>0</asrwt>
<pdfrwt beam="1">  1        4 0.45186015E-02 0.12500138E+03</pdfrwt>
<pdfrwt beam="2">  1       -4 0.54031327E-01 0.12500138E+03</pdfrwt>
<totfact> 0.15037919E+03</totfact>
</mgrwt>
</event>
<event>
 5    1  0.1448308E-002  0.1249992E+03  0.7818608E-02  0.1235071E+00
          4   -1    0    0  501    0  0.00000000000E+00  0.00000000000E+00  0.10957917804E+02  0.11031267497E+02  0.12700000000E+01 0. -1.
         -4   -1    0    0    0  501 -0.00000000000E+00 -0.00000000000E+00 -0.35520915725E+03  0.35521142759E+03  0.12700000000E+01 0. -1.
         25    2    1    2    0    0  0.00000000000E+00  0.00000000000E+00 -0.34425123944E+03  0.36624269509E+03  0.12499918339E+03 0.  0.
    9000005    1    3    3    0    0 -0.36155682837E+02  0.30834656721E+02 -0.29103978146E+03  0.29489517434E+03  0.10000000000E+01 0.  0.
    9000005    1    3    3    0    0  0.36155682837E+02 -0.30834656721E+02 -0.53211457984E+02  0.71347520751E+02  0.10000000000E+01 0.  0.
<mgrwt>
<rscale>  0 0.12499918E+03</rscale>
<asrwt>0</asrwt>
<pdfrwt beam="1">  1        4 0.27489331E-02 0.12499918E+03</pdfrwt>
<pdfrwt beam="2">  1       -4 0.88811704E-01 0.12499918E+03</pdfrwt>
<totfact> 0.11299503E+03</totfact>
</mgrwt>
</event>
<event>
 5    1  0.1448308E-002  0.1250039E+03  0.7818608E-02  0.1235063E+00
          4   -1    0    0  501    0  0.00000000000E+00  0.00000000000E+00  0.48397844107E+03  0.48398010736E+03  0.12700000000E+01 0. -1.
         -4   -1    0    0    0  501 -0.00000000000E+00 -0.00000000000E+00 -0.80199754257E+01  0.81199079939E+01  0.12700000000E+01 0. -1.
         25    2    1    2    0    0  0.00000000000E+00  0.00000000000E+00  0.47595846564E+03  0.49210001535E+03  0.12500385631E+03 0.  0.
    9000005    1    3    3    0    0  0.34487119436E+02 -0.29562949964E+02  0.69015369571E+02  0.82628388915E+02  0.10000000000E+01 0.  0.
    9000005    1    3    3    0    0 -0.34487119436E+02  0.29562949964E+02  0.40694309607E+03  0.40947162644E+03  0.10000000000E+01 0.  0.
<mgrwt>
<rscale>  0 0.12500386E+03</rscale>
<asrwt>0</asrwt>
<pdfrwt beam="1">  1        4 0.12100731E+00 0.12500386E+03</pdfrwt>
<pdfrwt beam="2">  1       -4 0.20176937E-02 0.12500386E+03</pdfrwt>
<totfact> 0.88869103E+02</totfact>
</mgrwt>
</event>
<event>
 5    1  0.1448308E-002  0.1249990E+03  0.7818608E-02  0.1235071E+00
          4   -1    0    0  501    0  0.00000000000E+00  0.00000000000E+00  0.39174217309E+02  0.39194798147E+02  0.12700000000E+01 0. -1.
         -4   -1    0    0    0  501 -0.00000000000E+00 -0.00000000000E+00 -0.99662417166E+02  0.99670508655E+02  0.12700000000E+01 0. -1.
         25    2    1    2    0    0  0.00000000000E+00  0.00000000000E+00 -0.60488199857E+02  0.13886530680E+03  0.12499900444E+03 0.  0.
    9000005    1    3    3    0    0 -0.26800772784E+02 -0.44477396251E+02  0.83784230570E+01  0.52609107311E+02  0.10000000000E+01 0.  0.
    9000005    1    3    3    0    0  0.26800772784E+02  0.44477396251E+02 -0.68866622914E+02  0.86256199491E+02  0.10000000000E+01 0.  0.
<mgrwt>
<rscale>  0 0.12499900E+03</rscale>
<asrwt>0</asrwt>
<pdfrwt beam="1">  1        4 0.97971386E-02 0.12499900E+03</pdfrwt>
<pdfrwt beam="2">  1       -4 0.24919188E-01 0.12499900E+03</pdfrwt>
<totfact> 0.19098986E+03</totfact>
</mgrwt>
</event>
<event>
 5    1  0.1448308E-002  0.1250005E+03  0.7818608E-02  0.1235068E+00
          4   -1    0    0  501    0  0.00000000000E+00  0.00000000000E+00  0.40309952548E+02  0.40329953811E+02  0.12700000000E+01 0. -1.
         -4   -1    0    0    0  501 -0.00000000000E+00 -0.00000000000E+00 -0.96857948337E+02  0.96866274090E+02  0.12700000000E+01 0. -1.
         25    2    1    2    0    0  0.00000000000E+00  0.00000000000E+00 -0.56547995789E+02  0.13719622790E+03  0.12500051649E+03 0.  0.
    9000005    1    3    3    0    0 -0.42657133317E+01  0.38001377765E+02  0.25974838981E+02  0.46238439445E+02  0.10000000000E+01 0.  0.
    9000005    1    3    3    0    0  0.42657133317E+01 -0.38001377765E+02 -0.82522834770E+02  0.90957788456E+02  0.10000000000E+01 0.  0.
<mgrwt>
<rscale>  0 0.12500052E+03</rscale>
<asrwt>0</asrwt>
<pdfrwt beam="1">  1        4 0.10081029E-01 0.12500052E+03</pdfrwt>
<pdfrwt beam="2">  1       -4 0.24218028E-01 0.12500052E+03</pdfrwt>
<totfact> 0.19184479E+03</totfact>
</mgrwt>
</event>
<event>
 5    1  0.1448308E-002  0.1250507E+03  0.7818608E-02  0.1234990E+00
          4   -1    0    0  501    0  0.00000000000E+00  0.00000000000E+00  0.17415680625E+02  0.17461925199E+02  0.12700000000E+01 0. -1.
         -4   -1    0    0    0  501 -0.00000000000E+00 -0.00000000000E+00 -0.22413120677E+03  0.22413480485E+03  0.12700000000E+01 0. -1.
         25    2    1    2    0    0  0.00000000000E+00  0.00000000000E+00 -0.20671552614E+03  0.24159673005E+03  0.12505067462E+03 0.  0.
    9000005    1    3    3    0    0  0.45746502708E+02 -0.39307783047E+02 -0.71578221146E+02  0.93607083389E+02  0.10000000000E+01 0.  0.
    9000005    1    3    3    0    0 -0.45746502708E+02  0.39307783047E+02 -0.13513730500E+03  0.14798964666E+03  0.10000000000E+01 0.  0.
<mgrwt>
<rscale>  0 0.12505067E+03</rscale>
<asrwt>0</asrwt>
<pdfrwt beam="1">  1        4 0.43601512E-02 0.12505067E+03</pdfrwt>
<pdfrwt beam="2">  1       -4 0.56039023E-01 0.12505067E+03</pdfrwt>
<totfact> 0.14764367E+03</totfact>
</mgrwt>
</event>
<event>
 5    1  0.1448308E-002  0.1249975E+03  0.7818608E-02  0.1235073E+00
          4   -1    0    0  501    0  0.00000000000E+00  0.00000000000E+00  0.10320790696E+03  0.10321572050E+03  0.12700000000E+01 0. -1.
         -4   -1    0    0    0  501 -0.00000000000E+00 -0.00000000000E+00 -0.37826932828E+02  0.37848246289E+02  0.12700000000E+01 0. -1.
         25    2    1    2    0    0  0.00000000000E+00  0.00000000000E+00  0.65380974130E+02  0.14106396679E+03  0.12499748377E+03 0.  0.
    9000005    1    3    3    0    0 -0.51501632377E+01  0.15818715921E+01 -0.37569880372E+02  0.37967386140E+02  0.10000000000E+01 0.  0.
    9000005    1    3    3    0    0  0.51501632377E+01 -0.15818715921E+01  0.10295085450E+03  0.10309658065E+03  0.10000000000E+01 0.  0.
<mgrwt>
<rscale>  0 0.12499748E+03</rscale>
<asrwt>0</asrwt>
<pdfrwt beam="1">  1        4 0.25805617E-01 0.12499748E+03</pdfrwt>
<pdfrwt beam="2">  1       -4 0.94603742E-02 0.12499748E+03</pdfrwt>
<totfact> 0.18987157E+03</totfact>
</mgrwt>
</event>
<event>
 5    1  0.1448308E-002  0.1249978E+03  0.7818608E-02  0.1235073E+00
         -4   -1    0    0    0  501 -0.00000000000E+00  0.00000000000E+00  0.17089946764E+02  0.17137070356E+02  0.12700000000E+01 0.  1.
          4   -1    0    0  501    0  0.00000000000E+00 -0.00000000000E+00 -0.22819827147E+03  0.22820180543E+03  0.12700000000E+01 0.  1.
         25    2    1    2    0    0  0.00000000000E+00  0.00000000000E+00 -0.21110832471E+03  0.24533887579E+03  0.12499775683E+03 0.  0.
    9000005    1    3    3    0    0 -0.19435068572E+02  0.54754537639E+02 -0.60396983829E+02  0.83812749257E+02  0.10000000000E+01 0.  0.
    9000005    1    3    3    0    0  0.19435068572E+02 -0.54754537639E+02 -0.15071134088E+03  0.16152612653E+03  0.10000000000E+01 0.  0.
<mgrwt>
<rscale>  0 0.12499776E+03</rscale>
<asrwt>0</asrwt>
<pdfrwt beam="2">  1        4 0.57055890E-01 0.12499776E+03</pdfrwt>
<pdfrwt beam="1">  1       -4 0.42788196E-02 0.12499776E+03</pdfrwt>
<totfact> 0.14655034E+03</totfact>
</mgrwt>
</event>
<event>
 5    1  0.1448308E-002  0.1250037E+03  0.7818608E-02  0.1235064E+00
          4   -1    0    0  501    0  0.00000000000E+00  0.00000000000E+00  0.61689321878E+03  0.61689452605E+03  0.12700000000E+01 0. -1.
         -4   -1    0    0    0  501 -0.00000000000E+00 -0.00000000000E+00 -0.62675043161E+01  0.63948815745E+01  0.12700000000E+01 0. -1.
         25    2    1    2    0    0  0.00000000000E+00  0.00000000000E+00  0.61062571446E+03  0.62328940763E+03  0.12500368994E+03 0.  0.
    9000005    1    3    3    0    0  0.15335682882E+02 -0.34277341315E+01  0.37198291927E+01  0.16179297264E+02  0.10000000000E+01 0.  0.
    9000005    1    3    3    0    0 -0.15335682882E+02  0.34277341315E+01  0.60690588527E+03  0.60711011036E+03  0.10000000000E+01 0.  0.
<mgrwt>
<rscale>  0 0.12500369E+03</rscale>
<asrwt>0</asrwt>
<pdfrwt beam="1">  1        4 0.15423936E+00 0.12500369E+03</pdfrwt>
<pdfrwt beam="2">  1       -4 0.15829620E-02 0.12500369E+03</pdfrwt>
<totfact> 0.70641677E+02</totfact>
</mgrwt>
</event>
<event>
 5    1  0.1448308E-002  0.1250109E+03  0.7818608E-02  0.1235052E+00
          4   -1    0    0  501    0  0.00000000000E+00  0.00000000000E+00  0.43799973888E+02  0.43818382132E+02  0.12700000000E+01 0.  1.
         -4   -1    0    0    0  501 -0.00000000000E+00 -0.00000000000E+00 -0.89157732897E+02  0.89166777643E+02  0.12700000000E+01 0.  1.
         25    2    1    2    0    0  0.00000000000E+00  0.00000000000E+00 -0.45357759008E+02  0.13298515977E+03  0.12501090520E+03 0.  0.
    9000005    1    3    3    0    0 -0.45606028056E+02 -0.53065756425E+01 -0.67784791048E+02  0.81877026311E+02  0.10000000000E+01 0.  0.
    9000005    1    3    3    0    0  0.45606028056E+02  0.53065756425E+01  0.22427032040E+02  0.51108133464E+02  0.10000000000E+01 0.  0.
<mgrwt>
<rscale>  0 0.12501091E+03</rscale>
<asrwt>0</asrwt>
<pdfrwt beam="1">  1        4 0.10953425E-01 0.12501091E+03</pdfrwt>
<pdfrwt beam="2">  1       -4 0.22292865E-01 0.12501091E+03</pdfrwt>
<totfact> 0.19400262E+03</totfact>
</mgrwt>
</event>
<event>
 5    1  0.1448308E-002  0.1250009E+03  0.7818608E-02  0.1235068E+00
         -4   -1    0    0    0  501 -0.00000000000E+00  0.00000000000E+00  0.20902184851E+03  0.20902570668E+03  0.12700000000E+01 0.  1.
          4   -1    0    0  501    0  0.00000000000E+00 -0.00000000000E+00 -0.18662890662E+02  0.18706052172E+02  0.12700000000E+01 0.  1.
         25    2    1    2    0    0  0.00000000000E+00  0.00000000000E+00  0.19035895785E+03  0.22773175886E+03  0.12500088463E+03 0.  0.
    9000005    1    3    3    0    0  0.20653487808E+02  0.67511821647E+01 -0.11567981785E+02  0.24636623589E+02  0.10000000000E+01 0.  0.
    9000005    1    3    3    0    0 -0.20653487808E+02 -0.67511821647E+01  0.20192693963E+03  0.20309513527E+03  0.10000000000E+01 0.  0.
<mgrwt>
<rscale>  0 0.12500088E+03</rscale>
<asrwt>0</asrwt>
<pdfrwt beam="2">  1        4 0.46716002E-02 0.12500088E+03</pdfrwt>
<pdfrwt beam="1">  1       -4 0.52261339E-01 0.12500088E+03</pdfrwt>
<totfact> 0.15268389E+03</totfact>
</mgrwt>
</event>
<event>
 5    1  0.1448308E-002  0.1249877E+03  0.7818608E-02  0.1235089E+00
          4   -1    0    0  501    0  0.00000000000E+00  0.00000000000E+00  0.21348400456E+02  0.21386142757E+02  0.12700000000E+01 0.  1.
         -4   -1    0    0    0  501 -0.00000000000E+00 -0.00000000000E+00 -0.18273860422E+03  0.18274301730E+03  0.12700000000E+01 0.  1.
         25    2    1    2    0    0  0.00000000000E+00  0.00000000000E+00 -0.16139020377E+03  0.20412916006E+03  0.12498766385E+03 0.  0.
    9000005    1    3    3    0    0  0.27446507809E+02  0.18921157527E+02 -0.16700997812E+03  0.17030752709E+03  0.10000000000E+01 0.  0.
    9000005    1    3    3    0    0 -0.27446507809E+02 -0.18921157527E+02  0.56197743495E+01  0.33821632971E+02  0.10000000000E+01 0.  0.
<mgrwt>
<rscale>  0 0.12498766E+03</rscale>
<asrwt>0</asrwt>
<pdfrwt beam="1">  1        4 0.53423701E-02 0.12498766E+03</pdfrwt>
<pdfrwt beam="2">  1       -4 0.45689916E-01 0.12498766E+03</pdfrwt>
<totfact> 0.16162636E+03</totfact>
</mgrwt>
</event>
<event>
 5    1  0.1448308E-002  0.1249989E+03  0.7818608E-02  0.1235071E+00
         -4   -1    0    0    0  501 -0.00000000000E+00  0.00000000000E+00  0.30070959081E+02  0.30097765367E+02  0.12700000000E+01 0.  1.
          4   -1    0    0  501    0  0.00000000000E+00 -0.00000000000E+00 -0.12981090737E+03  0.12981711972E+03  0.12700000000E+01 0.  1.
         25    2    1    2    0    0  0.00000000000E+00  0.00000000000E+00 -0.99739948285E+02  0.15991488508E+03  0.12499885274E+03 0.  0.
    9000005    1    3    3    0    0 -0.37679180428E+02 -0.37012247884E+02 -0.71404938661E+01  0.53306789284E+02  0.10000000000E+01 0.  0.
    9000005    1    3    3    0    0  0.37679180428E+02  0.37012247884E+02 -0.92599454419E+02  0.10660809580E+03  0.10000000000E+01 0.  0.
<mgrwt>
<rscale>  0 0.12499885E+03</rscale>
<asrwt>0</asrwt>
<pdfrwt beam="2">  1        4 0.32456853E-01 0.12499885E+03</pdfrwt>
<pdfrwt beam="1">  1       -4 0.75218674E-02 0.12499885E+03</pdfrwt>
<totfact> 0.18062242E+03</totfact>
</mgrwt>
</event>
<event>
 5    1  0.1448308E-002  0.1250008E+03  0.7818608E-02  0.1235068E+00
         -4   -1    0    0    0  501 -0.00000000000E+00  0.00000000000E+00  0.38194845171E+03  0.38195056311E+03  0.12700000000E+01 0. -1.
          4   -1    0    0  501    0  0.00000000000E+00 -0.00000000000E+00 -0.10185720663E+02  0.10264589881E+02  0.12700000000E+01 0. -1.
         25    2    1    2    0    0  0.00000000000E+00  0.00000000000E+00  0.37176273104E+03  0.39221515299E+03  0.12500079217E+03 0.  0.
    9000005    1    3    3    0    0 -0.95065707705E+01 -0.50380595272E+02  0.29799526941E+03  0.30237519716E+03  0.10000000000E+01 0.  0.
    9000005    1    3    3    0    0  0.95065707705E+01  0.50380595272E+02  0.73767461634E+02  0.89839955831E+02  0.10000000000E+01 0.  0.
<mgrwt>
<rscale>  0 0.12500079E+03</rscale>
<asrwt>0</asrwt>
<pdfrwt beam="2">  1        4 0.25565525E-02 0.12500079E+03</pdfrwt>
<pdfrwt beam="1">  1       -4 0.95497244E-01 0.12500079E+03</pdfrwt>
<totfact> 0.10731136E+03</totfact>
</mgrwt>
</event>
<event>
 5    1  0.1448308E-002  0.1249986E+03  0.7818608E-02  0.1235071E+00
         -4   -1    0    0    0  501 -0.00000000000E+00  0.00000000000E+00  0.36182137455E+03  0.36182360340E+03  0.12700000000E+01 0.  1.
          4   -1    0    0  501    0  0.00000000000E+00 -0.00000000000E+00 -0.10756215649E+02  0.10830931405E+02  0.12700000000E+01 0.  1.
         25    2    1    2    0    0  0.00000000000E+00  0.00000000000E+00  0.35106515890E+03  0.37265453481E+03  0.12499862607E+03 0.  0.
    9000005    1    3    3    0    0 -0.58850137439E+02 -0.20618208586E+02  0.16334399055E+03  0.17484481248E+03  0.10000000000E+01 0.  0.
    9000005    1    3    3    0    0  0.58850137439E+02  0.20618208586E+02  0.18772116835E+03  0.19780972233E+03  0.10000000000E+01 0.  0.
<mgrwt>
<rscale>  0 0.12499863E+03</rscale>
<asrwt>0</asrwt>
<pdfrwt beam="2">  1        4 0.26986720E-02 0.12499863E+03</pdfrwt>
<pdfrwt beam="1">  1       -4 0.90464961E-01 0.12499863E+03</pdfrwt>
<totfact> 0.11155395E+03</totfact>
</mgrwt>
</event>
<event>
 5    1  0.1448308E-002  0.1249975E+03  0.7818608E-02  0.1235073E+00
         -4   -1    0    0    0  501 -0.00000000000E+00  0.00000000000E+00  0.13210208023E+02  0.13271115100E+02  0.12700000000E+01 0.  1.
          4   -1    0    0  501    0  0.00000000000E+00 -0.00000000000E+00 -0.29494527021E+03  0.29494800443E+03  0.12700000000E+01 0.  1.
         25    2    1    2    0    0  0.00000000000E+00  0.00000000000E+00 -0.28173506219E+03  0.30821911953E+03  0.12499752150E+03 0.  0.
    9000005    1    3    3    0    0 -0.47568407351E+02  0.40468391621E+02 -0.14618532124E+03  0.15897041311E+03  0.10000000000E+01 0.  0.
    9000005    1    3    3    0    0  0.47568407351E+02 -0.40468391621E+02 -0.13554974095E+03  0.14924870643E+03  0.10000000000E+01 0.  0.
<mgrwt>
<rscale>  0 0.12499752E+03</rscale>
<asrwt>0</asrwt>
<pdfrwt beam="2">  1        4 0.73744251E-01 0.12499752E+03</pdfrwt>
<pdfrwt beam="1">  1       -4 0.33105081E-02 0.12499752E+03</pdfrwt>
<totfact> 0.12744512E+03</totfact>
</mgrwt>
</event>
<event>
 5    1  0.1448308E-002  0.1249970E+03  0.7818608E-02  0.1235074E+00
         -4   -1    0    0    0  501 -0.00000000000E+00  0.00000000000E+00  0.46725836528E+02  0.46743092529E+02  0.12700000000E+01 0.  1.
          4   -1    0    0  501    0  0.00000000000E+00 -0.00000000000E+00 -0.83557868960E+02  0.83567519798E+02  0.12700000000E+01 0.  1.
         25    2    1    2    0    0  0.00000000000E+00  0.00000000000E+00 -0.36832032433E+02  0.13031061233E+03  0.12499702825E+03 0.  0.
    9000005    1    3    3    0    0 -0.17360028208E+01  0.30525993215E+02  0.38400420077E+02  0.49096254741E+02  0.10000000000E+01 0.  0.
    9000005    1    3    3    0    0  0.17360028208E+01 -0.30525993215E+02 -0.75232452510E+02  0.81214357586E+02  0.10000000000E+01 0.  0.
<mgrwt>
<rscale>  0 0.12499703E+03</rscale>
<asrwt>0</asrwt>
<pdfrwt beam="2">  1        4 0.20892830E-01 0.12499703E+03</pdfrwt>
<pdfrwt beam="1">  1       -4 0.11684823E-01 0.12499703E+03</pdfrwt>
<totfact> 0.19549055E+03</totfact>
</mgrwt>
</event>
<event>
 5    1  0.1448308E-002  0.1250014E+03  0.7818608E-02  0.1235067E+00
         -4   -1    0    0    0  501 -0.00000000000E+00  0.00000000000E+00  0.32187367181E+02  0.32212412298E+02  0.12700000000E+01 0. -1.
          4   -1    0    0  501    0  0.00000000000E+00 -0.00000000000E+00 -0.12128680075E+03  0.12129344968E+03  0.12700000000E+01 0. -1.
         25    2    1    2    0    0  0.00000000000E+00  0.00000000000E+00 -0.89099433567E+02  0.15350586198E+03  0.12500136239E+03 0.  0.
    9000005    1    3    3    0    0 -0.16599659552E+02  0.52657747703E+02 -0.86006626395E+01  0.55887015382E+02  0.10000000000E+01 0.  0.
    9000005    1    3    3    0    0  0.16599659552E+02 -0.52657747703E+02 -0.80498770927E+02  0.97618846599E+02  0.10000000000E+01 0.  0.
<mgrwt>
<rscale>  0 0.12500136E+03</rscale>
<asrwt>0</asrwt>
<pdfrwt beam="2">  1        4 0.30325661E-01 0.12500136E+03</pdfrwt>
<pdfrwt beam="1">  1       -4 0.80508038E-02 0.12500136E+03</pdfrwt>
<totfact> 0.18367148E+03</totfact>
</mgrwt>
</event>
<event>
 5    1  0.1448308E-002  0.1249971E+03  0.7818608E-02  0.1235074E+00
          4   -1    0    0  501    0  0.00000000000E+00  0.00000000000E+00  0.14322198158E+02  0.14378395602E+02  0.12700000000E+01 0.  1.
         -4   -1    0    0    0  501 -0.00000000000E+00 -0.00000000000E+00 -0.27213664825E+03  0.27213961163E+03  0.12700000000E+01 0.  1.
         25    2    1    2    0    0  0.00000000000E+00  0.00000000000E+00 -0.25781445009E+03  0.28651800724E+03  0.12499711115E+03 0.  0.
    9000005    1    3    3    0    0  0.36269238660E+02 -0.24263578238E+02 -0.26374237410E+02  0.50997836237E+02  0.10000000000E+01 0.  0.
    9000005    1    3    3    0    0 -0.36269238660E+02  0.24263578238E+02 -0.23144021268E+03  0.23552017100E+03  0.10000000000E+01 0.  0.
<mgrwt>
<rscale>  0 0.12499711E+03</rscale>
<asrwt>0</asrwt>
<pdfrwt beam="1">  1        4 0.35879455E-02 0.12499711E+03</pdfrwt>
<pdfrwt beam="2">  1       -4 0.68041540E-01 0.12499711E+03</pdfrwt>
<totfact> 0.13358394E+03</totfact>
</mgrwt>
</event>
<event>
 5    1  0.1448308E-002  0.1249973E+03  0.7818608E-02  0.1235074E+00
         -4   -1    0    0    0  501 -0.00000000000E+00  0.00000000000E+00  0.16699559263E+03  0.16700042173E+03  0.12700000000E+01 0. -1.
          4   -1    0    0  501    0  0.00000000000E+00 -0.00000000000E+00 -0.23367898756E+02  0.23402384329E+02  0.12700000000E+01 0. -1.
         25    2    1    2    0    0  0.00000000000E+00  0.00000000000E+00  0.14362769387E+03  0.19040280606E+03  0.12499725640E+03 0.  0.
    9000005    1    3    3    0    0  0.52652484288E+02  0.91673189044E+01  0.22483993892E+02  0.57990118287E+02  0.10000000000E+01 0.  0.
    9000005    1    3    3    0    0 -0.52652484288E+02 -0.91673189044E+01  0.12114369998E+03  0.13241268777E+03  0.10000000000E+01 0.  0.
<mgrwt>
<rscale>  0 0.12499726E+03</rscale>
<asrwt>0</asrwt>
<pdfrwt beam="2">  1        4 0.58468891E-02 0.12499726E+03</pdfrwt>
<pdfrwt beam="1">  1       -4 0.41753812E-01 0.12499726E+03</pdfrwt>
<totfact> 0.16714742E+03</totfact>
</mgrwt>
</event>
<event>
 5    1  0.1448308E-002  0.1250025E+03  0.7818608E-02  0.1235065E+00
         -4   -1    0    0    0  501 -0.00000000000E+00  0.00000000000E+00  0.33750703671E+03  0.33750942613E+03  0.12700000000E+01 0. -1.
          4   -1    0    0  501    0  0.00000000000E+00 -0.00000000000E+00 -0.11537025078E+02  0.11606715628E+02  0.12700000000E+01 0. -1.
         25    2    1    2    0    0  0.00000000000E+00  0.00000000000E+00  0.32597001163E+03  0.34911614176E+03  0.12500252779E+03 0.  0.
    9000005    1    3    3    0    0  0.60735638786E+02  0.13255275115E+02  0.18084364157E+03  0.19123269290E+03  0.10000000000E+01 0.  0.
    9000005    1    3    3    0    0 -0.60735638786E+02 -0.13255275115E+02  0.14512637006E+03  0.15788344886E+03  0.10000000000E+01 0.  0.
<mgrwt>
<rscale>  0 0.12500253E+03</rscale>
<asrwt>0</asrwt>
<pdfrwt beam="2">  1        4 0.28932664E-02 0.12500253E+03</pdfrwt>
<pdfrwt beam="1">  1       -4 0.84385766E-01 0.12500253E+03</pdfrwt>
<totfact> 0.11697755E+03</totfact>
</mgrwt>
</event>
<event>
 5    1  0.1448308E-002  0.1249961E+03  0.7818608E-02  0.1235075E+00
          4   -1    0    0  501    0  0.00000000000E+00  0.00000000000E+00  0.16592322696E+03  0.16592808727E+03  0.12700000000E+01 0.  1.
         -4   -1    0    0    0  501 -0.00000000000E+00 -0.00000000000E+00 -0.23518704133E+02  0.23552968902E+02  0.12700000000E+01 0.  1.
         25    2    1    2    0    0  0.00000000000E+00  0.00000000000E+00  0.14240452282E+03  0.18948105617E+03  0.12499609004E+03 0.  0.
    9000005    1    3    3    0    0  0.44352213056E+01  0.47015765151E+01  0.16542259333E+03  0.16555183597E+03  0.10000000000E+01 0.  0.
    9000005    1    3    3    0    0 -0.44352213056E+01 -0.47015765151E+01 -0.23018070502E+02  0.23929220200E+02  0.10000000000E+01 0.  0.
<mgrwt>
<rscale>  0 0.12499609E+03</rscale>
<asrwt>0</asrwt>
<pdfrwt beam="1">  1        4 0.41485697E-01 0.12499609E+03</pdfrwt>
<pdfrwt beam="2">  1       -4 0.58845668E-02 0.12499609E+03</pdfrwt>
<totfact> 0.16753602E+03</totfact>
</mgrwt>
</event>
<event>
 5    1  0.1448308E-002  0.1250020E+03  0.7818608E-02  0.1235066E+00
         -4   -1    0    0    0  501 -0.00000000000E+00  0.00000000000E+00  0.26246479585E+02  0.26277187646E+02  0.12700000000E+01 0.  1.
          4   -1    0    0  501    0  0.00000000000E+00 -0.00000000000E+00 -0.14871391707E+03  0.14871933980E+03  0.12700000000E+01 0.  1.
         25    2    1    2    0    0  0.00000000000E+00  0.00000000000E+00 -0.12246743749E+03  0.17499652745E+03  0.12500204548E+03 0.  0.
    9000005    1    3    3    0    0  0.20952265889E+02  0.16090356664E+02 -0.14051932387E+03  0.14298453555E+03  0.10000000000E+01 0.  0.
    9000005    1    3    3    0    0 -0.20952265889E+02 -0.16090356664E+02  0.18051886385E+02  0.32011991902E+02  0.10000000000E+01 0.  0.
<mgrwt>
<rscale>  0 0.12500205E+03</rscale>
<asrwt>0</asrwt>
<pdfrwt beam="2">  1        4 0.37182993E-01 0.12500205E+03</pdfrwt>
<pdfrwt beam="1">  1       -4 0.65661367E-02 0.12500205E+03</pdfrwt>
<totfact> 0.17373185E+03</totfact>
</mgrwt>
</event>
<event>
 5    1  0.1448308E-002  0.1249974E+03  0.7818608E-02  0.1235073E+00
         -4   -1    0    0    0  501 -0.00000000000E+00  0.00000000000E+00  0.43168810365E+02  0.43187487636E+02  0.12700000000E+01 0.  1.
          4   -1    0    0  501    0  0.00000000000E+00 -0.00000000000E+00 -0.90441302757E+02  0.90450219150E+02  0.12700000000E+01 0.  1.
         25    2    1    2    0    0  0.00000000000E+00  0.00000000000E+00 -0.47272492392E+02  0.13363770679E+03  0.12499739253E+03 0.  0.
    9000005    1    3    3    0    0  0.16504635207E+02 -0.19188498943E+02  0.37448874577E+02  0.45210835892E+02  0.10000000000E+01 0.  0.
    9000005    1    3    3    0    0 -0.16504635207E+02  0.19188498943E+02 -0.84721366969E+02  0.88426870894E+02  0.10000000000E+01 0.  0.
<mgrwt>
<rscale>  0 0.12499739E+03</rscale>
<asrwt>0</asrwt>
<pdfrwt beam="2">  1        4 0.22613775E-01 0.12499739E+03</pdfrwt>
<pdfrwt beam="1">  1       -4 0.10795652E-01 0.12499739E+03</pdfrwt>
<totfact> 0.19371911E+03</totfact>
</mgrwt>
</event>
<event>
 5    1  0.1448308E-002  0.1250005E+03  0.7818608E-02  0.1235069E+00
         -4   -1    0    0    0  501 -0.00000000000E+00  0.00000000000E+00  0.87252706971E+02  0.87261949175E+02  0.12700000000E+01 0. -1.
          4   -1    0    0  501    0  0.00000000000E+00 -0.00000000000E+00 -0.44749100961E+02  0.44767118924E+02  0.12700000000E+01 0. -1.
         25    2    1    2    0    0  0.00000000000E+00  0.00000000000E+00  0.42503606010E+02  0.13202906810E+03  0.12500047320E+03 0.  0.
    9000005    1    3    3    0    0  0.59109816872E+02  0.11119173678E+02  0.39166420025E+02  0.71781717251E+02  0.10000000000E+01 0.  0.
    9000005    1    3    3    0    0 -0.59109816872E+02 -0.11119173678E+02  0.33371859852E+01  0.60247350848E+02  0.10000000000E+01 0.  0.
<mgrwt>
<rscale>  0 0.12500047E+03</rscale>
<asrwt>0</asrwt>
<pdfrwt beam="2">  1        4 0.11190683E-01 0.12500047E+03</pdfrwt>
<pdfrwt beam="1">  1       -4 0.21816584E-01 0.12500047E+03</pdfrwt>
<totfact> 0.19455694E+03</totfact>
</mgrwt>
</event>
<event>
 5    1  0.1448308E-002  0.1249980E+03  0.7818608E-02  0.1235072E+00
         -4   -1    0    0    0  501 -0.00000000000E+00  0.00000000000E+00  0.14098924350E+02  0.14156008188E+02  0.12700000000E+01 0.  1.
          4   -1    0    0  501    0  0.00000000000E+00 -0.00000000000E+00 -0.27643300656E+03  0.27643592388E+03  0.12700000000E+01 0.  1.
         25    2    1    2    0    0  0.00000000000E+00  0.00000000000E+00 -0.26233408221E+03  0.29059193207E+03  0.12499800118E+03 0.  0.
    9000005    1    3    3    0    0 -0.14067841478E+02 -0.28809207368E+02 -0.64662180701E+01  0.32721347300E+02  0.10000000000E+01 0.  0.
    9000005    1    3    3    0    0  0.14067841478E+02  0.28809207368E+02 -0.25586786414E+03  0.25787058477E+03  0.10000000000E+01 0.  0.
<mgrwt>
<rscale>  0 0.12499800E+03</rscale>
<asrwt>0</asrwt>
<pdfrwt beam="2">  1        4 0.69115734E-01 0.12499800E+03</pdfrwt>
<pdfrwt beam="1">  1       -4 0.35322321E-02 0.12499800E+03</pdfrwt>
<totfact> 0.13239501E+03</totfact>
</mgrwt>
</event>
<event>
 5    1  0.1448308E-002  0.1250014E+03  0.7818608E-02  0.1235067E+00
          4   -1    0    0  501    0  0.00000000000E+00  0.00000000000E+00  0.13235931771E+03  0.13236541045E+03  0.12700000000E+01 0.  1.
         -4   -1    0    0    0  501 -0.00000000000E+00 -0.00000000000E+00 -0.29492668869E+02  0.29520000288E+02  0.12700000000E+01 0.  1.
         25    2    1    2    0    0  0.00000000000E+00  0.00000000000E+00  0.10286664884E+03  0.16188541074E+03  0.12500135506E+03 0.  0.
    9000005    1    3    3    0    0 -0.13423101864E+02 -0.16592663962E+02 -0.24632990095E+02  0.32607980036E+02  0.10000000000E+01 0.  0.
    9000005    1    3    3    0    0  0.13423101864E+02  0.16592663962E+02  0.12749963894E+03  0.12927743071E+03  0.10000000000E+01 0.  0.
<mgrwt>
<rscale>  0 0.12500136E+03</rscale>
<asrwt>0</asrwt>
<pdfrwt beam="1">  1        4 0.33094007E-01 0.12500136E+03</pdfrwt>
<pdfrwt beam="2">  1       -4 0.73773453E-02 0.12500136E+03</pdfrwt>
<totfact> 0.17968818E+03</totfact>
</mgrwt>
</event>
<event>
 5    1  0.1448308E-002  0.1250163E+03  0.7818608E-02  0.1235044E+00
         -4   -1    0    0    0  501 -0.00000000000E+00  0.00000000000E+00  0.23175827838E+03  0.23176175806E+03  0.12700000000E+01 0. -1.
          4   -1    0    0  501    0  0.00000000000E+00 -0.00000000000E+00 -0.16831701375E+02  0.16879545941E+02  0.12700000000E+01 0. -1.
         25    2    1    2    0    0  0.00000000000E+00  0.00000000000E+00  0.21492657701E+03  0.24864130400E+03  0.12501625715E+03 0.  0.
    9000005    1    3    3    0    0  0.41042960828E+01  0.21306752147E+02  0.22403634103E+03  0.22508688331E+03  0.10000000000E+01 0.  0.
    9000005    1    3    3    0    0 -0.41042960828E+01 -0.21306752147E+02 -0.91097640288E+01  0.23554420691E+02  0.10000000000E+01 0.  0.
<mgrwt>
<rscale>  0 0.12501626E+03</rscale>
<asrwt>0</asrwt>
<pdfrwt beam="2">  1        4 0.42143409E-02 0.12501626E+03</pdfrwt>
<pdfrwt beam="1">  1       -4 0.57945985E-01 0.12501626E+03</pdfrwt>
<totfact> 0.14537857E+03</totfact>
</mgrwt>
</event>
<event>
 5    1  0.1448308E-002  0.1249973E+03  0.7818608E-02  0.1235074E+00
         -4   -1    0    0    0  501 -0.00000000000E+00  0.00000000000E+00  0.37382961504E+02  0.37404527946E+02  0.12700000000E+01 0. -1.
          4   -1    0    0  501    0  0.00000000000E+00 -0.00000000000E+00 -0.10443267181E+03  0.10444039372E+03  0.12700000000E+01 0. -1.
         25    2    1    2    0    0  0.00000000000E+00  0.00000000000E+00 -0.67049710301E+02  0.14184492167E+03  0.12499727257E+03 0.  0.
    9000005    1    3    3    0    0 -0.33366077987E+02 -0.46724154589E+02 -0.55290669279E+01  0.57688927563E+02  0.10000000000E+01 0.  0.
    9000005    1    3    3    0    0  0.33366077987E+02  0.46724154589E+02 -0.61520643373E+02  0.84155994102E+02  0.10000000000E+01 0.  0.
<mgrwt>
<rscale>  0 0.12499727E+03</rscale>
<asrwt>0</asrwt>
<pdfrwt beam="2">  1        4 0.26111828E-01 0.12499727E+03</pdfrwt>
<pdfrwt beam="1">  1       -4 0.93494016E-02 0.12499727E+03</pdfrwt>
<totfact> 0.18947558E+03</totfact>
</mgrwt>
</event>
<event>
 5    1  0.1448308E-002  0.1249927E+03  0.7818608E-02  0.1235081E+00
          4   -1    0    0  501    0  0.00000000000E+00  0.00000000000E+00  0.16765269873E+02  0.16813303480E+02  0.12700000000E+01 0.  1.
         -4   -1    0    0    0  501 -0.00000000000E+00 -0.00000000000E+00 -0.23258626671E+03  0.23258973400E+03  0.12700000000E+01 0.  1.
         25    2    1    2    0    0  0.00000000000E+00  0.00000000000E+00 -0.21582099684E+03  0.24940303748E+03  0.12499268950E+03 0.  0.
    9000005    1    3    3    0    0 -0.64971728235E+01  0.40317815351E+02 -0.20228514150E+03  0.20636864578E+03  0.10000000000E+01 0.  0.
    9000005    1    3    3    0    0  0.64971728235E+01 -0.40317815351E+02 -0.13535855340E+02  0.43034391702E+02  0.10000000000E+01 0.  0.
<mgrwt>
<rscale>  0 0.12499269E+03</rscale>
<asrwt>0</asrwt>
<pdfrwt beam="1">  1        4 0.41977558E-02 0.12499269E+03</pdfrwt>
<pdfrwt beam="2">  1       -4 0.58152994E-01 0.12499269E+03</pdfrwt>
<totfact> 0.14520310E+03</totfact>
</mgrwt>
</event>
<event>
 5    1  0.1448308E-002  0.1249985E+03  0.7818608E-02  0.1235072E+00
         -4   -1    0    0    0  501 -0.00000000000E+00  0.00000000000E+00  0.36005092495E+03  0.36005316476E+03  0.12700000000E+01 0. -1.
          4   -1    0    0  501    0  0.00000000000E+00 -0.00000000000E+00 -0.10809451944E+02  0.10883802246E+02  0.12700000000E+01 0. -1.
         25    2    1    2    0    0  0.00000000000E+00  0.00000000000E+00  0.34924147301E+03  0.37093696701E+03  0.12499850810E+03 0.  0.
    9000005    1    3    3    0    0 -0.11305257804E+02 -0.61453912039E+02  0.17721558427E+03  0.18791156289E+03  0.10000000000E+01 0.  0.
    9000005    1    3    3    0    0  0.11305257804E+02  0.61453912039E+02  0.17202588873E+03  0.18302540412E+03  0.10000000000E+01 0.  0.
<mgrwt>
<rscale>  0 0.12499851E+03</rscale>
<asrwt>0</asrwt>
<pdfrwt beam="2">  1        4 0.27119366E-02 0.12499851E+03</pdfrwt>
<pdfrwt beam="1">  1       -4 0.90022309E-01 0.12499851E+03</pdfrwt>
<totfact> 0.11193797E+03</totfact>
</mgrwt>
</event>
<event>
 5    1  0.1448308E-002  0.1249994E+03  0.7818608E-02  0.1235070E+00
         -4   -1    0    0    0  501 -0.00000000000E+00  0.00000000000E+00  0.25187307121E+03  0.25187627300E+03  0.12700000000E+01 0. -1.
          4   -1    0    0  501    0  0.00000000000E+00 -0.00000000000E+00 -0.15479346573E+02  0.15531357646E+02  0.12700000000E+01 0. -1.
         25    2    1    2    0    0  0.00000000000E+00  0.00000000000E+00  0.23639372464E+03  0.26740763065E+03  0.12499939152E+03 0.  0.
    9000005    1    3    3    0    0  0.15223740580E+01 -0.41605637902E+02  0.18499806194E+02  0.45569612213E+02  0.10000000000E+01 0.  0.
    9000005    1    3    3    0    0 -0.15223740580E+01  0.41605637902E+02  0.21789391844E+03  0.22183801843E+03  0.10000000000E+01 0.  0.
<mgrwt>
<rscale>  0 0.12499939E+03</rscale>
<asrwt>0</asrwt>
<pdfrwt beam="2">  1        4 0.38767382E-02 0.12499939E+03</pdfrwt>
<pdfrwt beam="1">  1       -4 0.62975170E-01 0.12499939E+03</pdfrwt>
<totfact> 0.13936529E+03</totfact>
</mgrwt>
</event>
<event>
 5    1  0.1448308E-002  0.1250009E+03  0.7818608E-02  0.1235068E+00
          4   -1    0    0  501    0  0.00000000000E+00  0.00000000000E+00  0.24441792105E+03  0.24442122050E+03  0.12700000000E+01 0. -1.
         -4   -1    0    0    0  501 -0.00000000000E+00 -0.00000000000E+00 -0.15953438731E+02  0.16003909127E+02  0.12700000000E+01 0. -1.
         25    2    1    2    0    0  0.00000000000E+00  0.00000000000E+00  0.22846448232E+03  0.26042512963E+03  0.12500091383E+03 0.  0.
    9000005    1    3    3    0    0 -0.41065408609E+02  0.14286282360E+01  0.21232627438E+03  0.21626801787E+03  0.10000000000E+01 0.  0.
    9000005    1    3    3    0    0  0.41065408609E+02 -0.14286282360E+01  0.16138207939E+02  0.44157111753E+02  0.10000000000E+01 0.  0.
<mgrwt>
<rscale>  0 0.12500091E+03</rscale>
<asrwt>0</asrwt>
<pdfrwt beam="1">  1        4 0.61111200E-01 0.12500091E+03</pdfrwt>
<pdfrwt beam="2">  1       -4 0.39950810E-02 0.12500091E+03</pdfrwt>
<totfact> 0.14157213E+03</totfact>
</mgrwt>
</event>
<event>
 5    1  0.1448308E-002  0.1249948E+03  0.7818608E-02  0.1235077E+00
          4   -1    0    0  501    0  0.00000000000E+00  0.00000000000E+00  0.14566021931E+02  0.14621282259E+02  0.12700000000E+01 0. -1.
         -4   -1    0    0    0  501 -0.00000000000E+00 -0.00000000000E+00 -0.26758874379E+03  0.26759175754E+03  0.12700000000E+01 0. -1.
         25    2    1    2    0    0  0.00000000000E+00  0.00000000000E+00 -0.25302272186E+03  0.28221303980E+03  0.12499480812E+03 0.  0.
    9000005    1    3    3    0    0 -0.29539086611E+02 -0.18756139728E+02 -0.96155112817E+01  0.36301631816E+02  0.10000000000E+01 0.  0.
    9000005    1    3    3    0    0  0.29539086611E+02  0.18756139728E+02 -0.24340721057E+03  0.24591140798E+03  0.10000000000E+01 0.  0.
<mgrwt>
<rscale>  0 0.12499481E+03</rscale>
<asrwt>0</asrwt>
<pdfrwt beam="1">  1        4 0.36487906E-02 0.12499481E+03</pdfrwt>
<pdfrwt beam="2">  1       -4 0.66904454E-01 0.12499481E+03</pdfrwt>
<totfact> 0.13486238E+03</totfact>
</mgrwt>
</event>
<event>
 5    1  0.1448308E-002  0.1249968E+03  0.7818608E-02  0.1235074E+00
         -4   -1    0    0    0  501 -0.00000000000E+00  0.00000000000E+00  0.12801249802E+03  0.12801879764E+03  0.12700000000E+01 0.  1.
          4   -1    0    0  501    0  0.00000000000E+00 -0.00000000000E+00 -0.30492787375E+02  0.30519223154E+02  0.12700000000E+01 0.  1.
         25    2    1    2    0    0  0.00000000000E+00  0.00000000000E+00  0.97519710647E+02  0.15853802080E+03  0.12499684025E+03 0.  0.
    9000005    1    3    3    0    0 -0.42105255464E+02  0.45691840010E+02  0.40303206319E+02  0.74067166955E+02  0.10000000000E+01 0.  0.
    9000005    1    3    3    0    0  0.42105255464E+02 -0.45691840010E+02  0.57216504328E+02  0.84470853841E+02  0.10000000000E+01 0.  0.
<mgrwt>
<rscale>  0 0.12499684E+03</rscale>
<asrwt>0</asrwt>
<pdfrwt beam="2">  1        4 0.76272888E-02 0.12499684E+03</pdfrwt>
<pdfrwt beam="1">  1       -4 0.32007216E-01 0.12499684E+03</pdfrwt>
<totfact> 0.18128106E+03</totfact>
</mgrwt>
</event>
<event>
 5    1  0.1448308E-002  0.1249994E+03  0.7818608E-02  0.1235070E+00
         -4   -1    0    0    0  501 -0.00000000000E+00  0.00000000000E+00  0.25220009972E+03  0.25220329736E+03  0.12700000000E+01 0.  1.
          4   -1    0    0  501    0  0.00000000000E+00 -0.00000000000E+00 -0.15459198315E+02  0.15511276947E+02  0.12700000000E+01 0.  1.
         25    2    1    2    0    0  0.00000000000E+00  0.00000000000E+00  0.23674090140E+03  0.26771457430E+03  0.12499935559E+03 0.  0.
    9000005    1    3    3    0    0 -0.42374266375E+02  0.21840696049E+02  0.20490831396E+03  0.21038301163E+03  0.10000000000E+01 0.  0.
    9000005    1    3    3    0    0  0.42374266375E+02 -0.21840696049E+02  0.31832587443E+02  0.57331562669E+02  0.10000000000E+01 0.  0.
<mgrwt>
<rscale>  0 0.12499936E+03</rscale>
<asrwt>0</asrwt>
<pdfrwt beam="2">  1        4 0.38717092E-02 0.12499936E+03</pdfrwt>
<pdfrwt beam="1">  1       -4 0.63056933E-01 0.12499936E+03</pdfrwt>
<totfact> 0.13926940E+03</totfact>
</mgrwt>
</event>
<event>
 5    1  0.1448308E-002  0.1250000E+03  0.7818608E-02  0.1235069E+00
         -4   -1    0    0    0  501 -0.00000000000E+00  0.00000000000E+00  0.16421488878E+02  0.16470525097E+02  0.12700000000E+01 0. -1.
          4   -1    0    0  501    0  0.00000000000E+00 -0.00000000000E+00 -0.23746892692E+03  0.23747232292E+03  0.12700000000E+01 0. -1.
         25    2    1    2    0    0  0.00000000000E+00  0.00000000000E+00 -0.22104743804E+03  0.25394284801E+03  0.12500000077E+03 0.  0.
    9000005    1    3    3    0    0  0.27324767447E+02  0.52334729647E+02 -0.15214225177E+03  0.16319874882E+03  0.10000000000E+01 0.  0.
    9000005    1    3    3    0    0 -0.27324767447E+02 -0.52334729647E+02 -0.68905186271E+02  0.90744099193E+02  0.10000000000E+01 0.  0.
<mgrwt>
<rscale>  0 0.12500000E+03</rscale>
<asrwt>0</asrwt>
<pdfrwt beam="2">  1        4 0.59373775E-01 0.12500000E+03</pdfrwt>
<pdfrwt beam="1">  1       -4 0.41119270E-02 0.12500000E+03</pdfrwt>
<totfact> 0.14367740E+03</totfact>
</mgrwt>
</event>
<event>
 4    1  0.1448308E-002  0.1246288E+03  0.7818608E-02  0.1235651E+00
         -4   -1    0    0    0  501 -0.00000000000E+00  0.00000000000E+00  0.23892480583E+02  0.23926210072E+02  0.12700000000E+01 0.  1.
          4   -1    0    0  501    0  0.00000000000E+00 -0.00000000000E+00 -0.16237232105E+03  0.16237728765E+03  0.12700000000E+01 0.  1.
    9000005    1    1    2    0    0  0.22092337394E+00 -0.34024483526E+02 -0.14726524567E+03  0.15114816198E+03  0.10000000000E+01 0.  0.
    9000005    1    1    2    0    0 -0.22092337394E+00  0.34024483526E+02  0.87854052049E+01  0.35155335740E+02  0.10000000000E+01 0.  0.
<mgrwt>
<rscale>  0 0.12462876E+03</rscale>
<asrwt>0</asrwt>
<pdfrwt beam="2">  1        4 0.40597914E-01 0.12462876E+03</pdfrwt>
<pdfrwt beam="1">  1       -4 0.59779576E-02 0.12462876E+03</pdfrwt>
<totfact> 0.17031558E+03</totfact>
</mgrwt>
</event>
<event>
 5    1  0.1448308E-002  0.1249959E+03  0.7818608E-02  0.1235076E+00
         -4   -1    0    0    0  501 -0.00000000000E+00  0.00000000000E+00  0.24209617593E+03  0.24209950702E+03  0.12700000000E+01 0.  1.
          4   -1    0    0  501    0  0.00000000000E+00 -0.00000000000E+00 -0.16105626497E+02  0.16155621463E+02  0.12700000000E+01 0.  1.
         25    2    1    2    0    0  0.00000000000E+00  0.00000000000E+00  0.22599054943E+03  0.25825512849E+03  0.12499593176E+03 0.  0.
    9000005    1    3    3    0    0  0.21126404576E+02  0.14980785034E+02 -0.45052099924E+01  0.26306763534E+02  0.10000000000E+01 0.  0.
    9000005    1    3    3    0    0 -0.21126404576E+02 -0.14980785034E+02  0.23049575943E+03  0.23194836495E+03  0.10000000000E+01 0.  0.
<mgrwt>
<rscale>  0 0.12499593E+03</rscale>
<asrwt>0</asrwt>
<pdfrwt beam="2">  1        4 0.40330725E-02 0.12499593E+03</pdfrwt>
<pdfrwt beam="1">  1       -4 0.60530708E-01 0.12499593E+03</pdfrwt>
<totfact> 0.14228683E+03</totfact>
</mgrwt>
</event>
<event>
 5    1  0.1448308E-002  0.1250034E+03  0.7818608E-02  0.1235064E+00
          4   -1    0    0  501    0  0.00000000000E+00  0.00000000000E+00  0.89340113353E+02  0.89349139638E+02  0.12700000000E+01 0. -1.
         -4   -1    0    0    0  501 -0.00000000000E+00 -0.00000000000E+00 -0.43705282102E+02  0.43723730212E+02  0.12700000000E+01 0. -1.
         25    2    1    2    0    0  0.00000000000E+00  0.00000000000E+00  0.45634831251E+02  0.13307286985E+03  0.12500340342E+03 0.  0.
    9000005    1    3    3    0    0 -0.29268140945E+02  0.42698144006E+02  0.60087557292E+02  0.79317527176E+02  0.10000000000E+01 0.  0.
    9000005    1    3    3    0    0  0.29268140945E+02 -0.42698144006E+02 -0.14452726041E+02  0.53755342674E+02  0.10000000000E+01 0.  0.
<mgrwt>
<rscale>  0 0.12500340E+03</rscale>
<asrwt>0</asrwt>
<pdfrwt beam="1">  1        4 0.22338462E-01 0.12500340E+03</pdfrwt>
<pdfrwt beam="2">  1       -4 0.10929755E-01 0.12500340E+03</pdfrwt>
<totfact> 0.19399019E+03</totfact>
</mgrwt>
</event>
<event>
 5    1  0.1448308E-002  0.1250012E+03  0.7818608E-02  0.1235067E+00
          4   -1    0    0  501    0  0.00000000000E+00  0.00000000000E+00  0.58035681292E+02  0.58049575391E+02  0.12700000000E+01 0. -1.
         -4   -1    0    0    0  501 -0.00000000000E+00 -0.00000000000E+00 -0.67281060447E+02  0.67293045665E+02  0.12700000000E+01 0. -1.
         25    2    1    2    0    0  0.00000000000E+00  0.00000000000E+00 -0.92453791551E+01  0.12534262106E+03  0.12500118246E+03 0.  0.
    9000005    1    3    3    0    0  0.60855121806E+01 -0.14241723578E+02  0.56085756346E+02  0.58193403526E+02  0.10000000000E+01 0.  0.
    9000005    1    3    3    0    0 -0.60855121806E+01  0.14241723578E+02 -0.65331135501E+02  0.67149217530E+02  0.10000000000E+01 0.  0.
<mgrwt>
<rscale>  0 0.12500118E+03</rscale>
<asrwt>0</asrwt>
<pdfrwt beam="1">  1        4 0.14512155E-01 0.12500118E+03</pdfrwt>
<pdfrwt beam="2">  1       -4 0.16823500E-01 0.12500118E+03</pdfrwt>
<totfact> 0.19815937E+03</totfact>
</mgrwt>
</event>
<event>
 5    1  0.1448308E-002  0.1250009E+03  0.7818608E-02  0.1235068E+00
          4   -1    0    0  501    0  0.00000000000E+00  0.00000000000E+00  0.32420230242E+03  0.32420478991E+03  0.12700000000E+01 0.  1.
         -4   -1    0    0    0  501 -0.00000000000E+00 -0.00000000000E+00 -0.12012968069E+02  0.12079913154E+02  0.12700000000E+01 0.  1.
         25    2    1    2    0    0  0.00000000000E+00  0.00000000000E+00  0.31218933436E+03  0.33628470306E+03  0.12500088410E+03 0.  0.
    9000005    1    3    3    0    0  0.33610432971E+02 -0.37938200757E+02  0.57749727012E+02  0.76843992942E+02  0.10000000000E+01 0.  0.
    9000005    1    3    3    0    0 -0.33610432971E+02  0.37938200757E+02  0.25443960734E+03  0.25944071012E+03  0.10000000000E+01 0.  0.
<mgrwt>
<rscale>  0 0.12500088E+03</rscale>
<asrwt>0</asrwt>
<pdfrwt beam="1">  1        4 0.81059256E-01 0.12500088E+03</pdfrwt>
<pdfrwt beam="2">  1       -4 0.30119211E-02 0.12500088E+03</pdfrwt>
<totfact> 0.12011530E+03</totfact>
</mgrwt>
</event>
<event>
 5    1  0.1448308E-002  0.1249870E+03  0.7818608E-02  0.1235090E+00
          4   -1    0    0  501    0  0.00000000000E+00  0.00000000000E+00  0.64154707398E+02  0.64167276561E+02  0.12700000000E+01 0. -1.
         -4   -1    0    0    0  501 -0.00000000000E+00 -0.00000000000E+00 -0.60850137302E+02  0.60863388911E+02  0.12700000000E+01 0. -1.
         25    2    1    2    0    0  0.00000000000E+00  0.00000000000E+00  0.33045700954E+01  0.12503066547E+03  0.12498698782E+03 0.  0.
    9000005    1    3    3    0    0  0.55756362792E+02 -0.20683074717E+02  0.20839060914E+02  0.63022440697E+02  0.10000000000E+01 0.  0.
    9000005    1    3    3    0    0 -0.55756362792E+02  0.20683074717E+02 -0.17534490819E+02  0.62008224776E+02  0.10000000000E+01 0.  0.
<mgrwt>
<rscale>  0 0.12498699E+03</rscale>
<asrwt>0</asrwt>
<pdfrwt beam="1">  1        4 0.16041904E-01 0.12498699E+03</pdfrwt>
<pdfrwt beam="2">  1       -4 0.15215762E-01 0.12498699E+03</pdfrwt>
<totfact> 0.19839432E+03</totfact>
</mgrwt>
</event>
<event>
 5    1  0.1448308E-002  0.1250061E+03  0.7818608E-02  0.1235060E+00
         -4   -1    0    0    0  501 -0.00000000000E+00  0.00000000000E+00  0.26056290602E+02  0.26087222541E+02  0.12700000000E+01 0. -1.
          4   -1    0    0  501    0  0.00000000000E+00 -0.00000000000E+00 -0.14980797388E+03  0.14981335700E+03  0.12700000000E+01 0. -1.
         25    2    1    2    0    0  0.00000000000E+00  0.00000000000E+00 -0.12375168327E+03  0.17590057955E+03  0.12500613893E+03 0.  0.
    9000005    1    3    3    0    0  0.33236373588E+02  0.51985461050E+02 -0.47911199865E+02  0.78125717676E+02  0.10000000000E+01 0.  0.
    9000005    1    3    3    0    0 -0.33236373588E+02 -0.51985461050E+02 -0.75840483409E+02  0.97774861869E+02  0.10000000000E+01 0.  0.
<mgrwt>
<rscale>  0 0.12500614E+03</rscale>
<asrwt>0</asrwt>
<pdfrwt beam="2">  1        4 0.37456530E-01 0.12500614E+03</pdfrwt>
<pdfrwt beam="1">  1       -4 0.65186125E-02 0.12500614E+03</pdfrwt>
<totfact> 0.17331676E+03</totfact>
</mgrwt>
</event>
<event>
 5    1  0.1448308E-002  0.1250040E+03  0.7818608E-02  0.1235063E+00
          4   -1    0    0  501    0  0.00000000000E+00  0.00000000000E+00  0.17469660274E+03  0.17470121897E+03  0.12700000000E+01 0.  1.
         -4   -1    0    0    0  501 -0.00000000000E+00 -0.00000000000E+00 -0.22338688642E+02  0.22374760563E+02  0.12700000000E+01 0.  1.
         25    2    1    2    0    0  0.00000000000E+00  0.00000000000E+00  0.15235791410E+03  0.19707597953E+03  0.12500403081E+03 0.  0.
    9000005    1    3    3    0    0 -0.54782057408E+02 -0.29318099355E+02  0.86740378880E+02  0.10670294322E+03  0.10000000000E+01 0.  0.
    9000005    1    3    3    0    0  0.54782057408E+02  0.29318099355E+02  0.65617535215E+02  0.90373036307E+02  0.10000000000E+01 0.  0.
<mgrwt>
<rscale>  0 0.12500403E+03</rscale>
<asrwt>0</asrwt>
<pdfrwt beam="1">  1        4 0.43679236E-01 0.12500403E+03</pdfrwt>
<pdfrwt beam="2">  1       -4 0.55897583E-02 0.12500403E+03</pdfrwt>
<totfact> 0.16438264E+03</totfact>
</mgrwt>
</event>
<event>
 5    1  0.1448308E-002  0.1249868E+03  0.7818608E-02  0.1235090E+00
          4   -1    0    0  501    0  0.00000000000E+00  0.00000000000E+00  0.12901410485E+03  0.12902035557E+03  0.12700000000E+01 0.  1.
         -4   -1    0    0    0  501 -0.00000000000E+00 -0.00000000000E+00 -0.30250995325E+02  0.30277642216E+02  0.12700000000E+01 0.  1.
         25    2    1    2    0    0  0.00000000000E+00  0.00000000000E+00  0.98763109526E+02  0.15929799778E+03  0.12498680048E+03 0.  0.
    9000005    1    3    3    0    0  0.47287959123E+02  0.28737595398E+02  0.86373884897E+02  0.10258386062E+03  0.10000000000E+01 0.  0.
    9000005    1    3    3    0    0 -0.47287959123E+02 -0.28737595398E+02  0.12389224629E+02  0.56714137164E+02  0.10000000000E+01 0.  0.
<mgrwt>
<rscale>  0 0.12498680E+03</rscale>
<asrwt>0</asrwt>
<pdfrwt beam="1">  1        4 0.32257638E-01 0.12498680E+03</pdfrwt>
<pdfrwt beam="2">  1       -4 0.75668612E-02 0.12498680E+03</pdfrwt>
<totfact> 0.18096393E+03</totfact>
</mgrwt>
</event>
<event>
 5    1  0.1448308E-002  0.1250085E+03  0.7818608E-02  0.1235056E+00
         -4   -1    0    0    0  501 -0.00000000000E+00  0.00000000000E+00  0.23343068849E+02  0.23377591050E+02  0.12700000000E+01 0. -1.
          4   -1    0    0  501    0  0.00000000000E+00 -0.00000000000E+00 -0.16720304449E+03  0.16720786760E+03  0.12700000000E+01 0. -1.
         25    2    1    2    0    0  0.00000000000E+00  0.00000000000E+00 -0.14385997564E+03  0.19058545865E+03  0.12500849754E+03 0.  0.
    9000005    1    3    3    0    0  0.24063585928E+02 -0.32058076615E+02 -0.14503045506E+03  0.15047129075E+03  0.10000000000E+01 0.  0.
    9000005    1    3    3    0    0 -0.24063585928E+02  0.32058076615E+02  0.11704794244E+01  0.40114167897E+02  0.10000000000E+01 0.  0.
<mgrwt>
<rscale>  0 0.12500850E+03</rscale>
<asrwt>0</asrwt>
<pdfrwt beam="2">  1        4 0.41805676E-01 0.12500850E+03</pdfrwt>
<pdfrwt beam="1">  1       -4 0.58406859E-02 0.12500850E+03</pdfrwt>
<totfact> 0.16702802E+03</totfact>
</mgrwt>
</event>
<event>
 5    1  0.1448308E-002  0.1250008E+03  0.7818608E-02  0.1235068E+00
          4   -1    0    0  501    0  0.00000000000E+00  0.00000000000E+00  0.58526449358E+02  0.58540226976E+02  0.12700000000E+01 0. -1.
         -4   -1    0    0    0  501 -0.00000000000E+00 -0.00000000000E+00 -0.66716479838E+02  0.66728566461E+02  0.12700000000E+01 0. -1.
         25    2    1    2    0    0  0.00000000000E+00  0.00000000000E+00 -0.81900304803E+01  0.12526879344E+03  0.12500077604E+03 0.  0.
    9000005    1    3    3    0    0  0.36645765871E+02 -0.48994918315E+02  0.86556424133E+01  0.61800763122E+02  0.10000000000E+01 0.  0.
    9000005    1    3    3    0    0 -0.36645765871E+02  0.48994918315E+02 -0.16845672894E+02  0.63468030316E+02  0.10000000000E+01 0.  0.
<mgrwt>
<rscale>  0 0.12500078E+03</rscale>
<asrwt>0</asrwt>
<pdfrwt beam="1">  1        4 0.14634845E-01 0.12500078E+03</pdfrwt>
<pdfrwt beam="2">  1       -4 0.16682353E-01 0.12500078E+03</pdfrwt>
<totfact> 0.19820125E+03</totfact>
</mgrwt>
</event>
<event>
 5    1  0.1448308E-002  0.1249990E+03  0.7818608E-02  0.1235071E+00
          4   -1    0    0  501    0  0.00000000000E+00  0.00000000000E+00  0.15391441598E+02  0.15443748718E+02  0.12700000000E+01 0.  1.
         -4   -1    0    0    0  501 -0.00000000000E+00 -0.00000000000E+00 -0.25330536091E+03  0.25330854459E+03  0.12700000000E+01 0.  1.
         25    2    1    2    0    0  0.00000000000E+00  0.00000000000E+00 -0.23791391931E+03  0.26875229331E+03  0.12499904863E+03 0.  0.
    9000005    1    3    3    0    0 -0.18735872958E+02 -0.58676280529E+02 -0.96279269658E+02  0.11430064128E+03  0.10000000000E+01 0.  0.
    9000005    1    3    3    0    0  0.18735872958E+02  0.58676280529E+02 -0.14163464965E+03  0.15445165203E+03  0.10000000000E+01 0.  0.
<mgrwt>
<rscale>  0 0.12499905E+03</rscale>
<asrwt>0</asrwt>
<pdfrwt beam="1">  1        4 0.38547976E-02 0.12499905E+03</pdfrwt>
<pdfrwt beam="2">  1       -4 0.63333263E-01 0.12499905E+03</pdfrwt>
<totfact> 0.13894659E+03</totfact>
</mgrwt>
</event>
<event>
 5    1  0.1448308E-002  0.1249996E+03  0.7818608E-02  0.1235070E+00
          4   -1    0    0  501    0  0.00000000000E+00  0.00000000000E+00  0.14305285140E+03  0.14305848871E+03  0.12700000000E+01 0.  1.
         -4   -1    0    0    0  501 -0.00000000000E+00 -0.00000000000E+00 -0.27285221099E+02  0.27314761402E+02  0.12700000000E+01 0.  1.
         25    2    1    2    0    0  0.00000000000E+00  0.00000000000E+00  0.11576763030E+03  0.17037325012E+03  0.12499960052E+03 0.  0.
    9000005    1    3    3    0    0  0.46366016353E+02 -0.74224086710E+01  0.11408672556E+03  0.12337617506E+03  0.10000000000E+01 0.  0.
    9000005    1    3    3    0    0 -0.46366016353E+02  0.74224086710E+01  0.16809047346E+01  0.46997075054E+02  0.10000000000E+01 0.  0.
<mgrwt>
<rscale>  0 0.12499960E+03</rscale>
<asrwt>0</asrwt>
<pdfrwt beam="1">  1        4 0.35767610E-01 0.12499960E+03</pdfrwt>
<pdfrwt beam="2">  1       -4 0.68257025E-02 0.12499960E+03</pdfrwt>
<totfact> 0.17580388E+03</totfact>
</mgrwt>
</event>
<event>
 5    1  0.1448308E-002  0.1250074E+03  0.7818608E-02  0.1235058E+00
          4   -1    0    0  501    0  0.00000000000E+00  0.00000000000E+00  0.18667980900E+03  0.18668412891E+03  0.12700000000E+01 0. -1.
         -4   -1    0    0    0  501 -0.00000000000E+00 -0.00000000000E+00 -0.20903510786E+02  0.20942054894E+02  0.12700000000E+01 0. -1.
         25    2    1    2    0    0  0.00000000000E+00  0.00000000000E+00  0.16577629821E+03  0.20762618381E+03  0.12500740439E+03 0.  0.
    9000005    1    3    3    0    0 -0.28069492954E+02  0.60064651043E+01 -0.93146896017E+01  0.30194991308E+02  0.10000000000E+01 0.  0.
    9000005    1    3    3    0    0  0.28069492954E+02 -0.60064651043E+01  0.17509098782E+03  0.17743119250E+03  0.10000000000E+01 0.  0.
<mgrwt>
<rscale>  0 0.12500740E+03</rscale>
<asrwt>0</asrwt>
<pdfrwt beam="1">  1        4 0.46675310E-01 0.12500740E+03</pdfrwt>
<pdfrwt beam="2">  1       -4 0.52312358E-02 0.12500740E+03</pdfrwt>
<totfact> 0.16018424E+03</totfact>
</mgrwt>
</event>
<event>
 5    1  0.1448308E-002  0.1250014E+03  0.7818608E-02  0.1235067E+00
         -4   -1    0    0    0  501 -0.00000000000E+00  0.00000000000E+00  0.40008697842E+02  0.40028849634E+02  0.12700000000E+01 0.  1.
          4   -1    0    0  501    0  0.00000000000E+00 -0.00000000000E+00 -0.97588365855E+02  0.97596629297E+02  0.12700000000E+01 0.  1.
         25    2    1    2    0    0  0.00000000000E+00  0.00000000000E+00 -0.57579668013E+02  0.13762547893E+03  0.12500141712E+03 0.  0.
    9000005    1    3    3    0    0 -0.27487466226E+02 -0.40570732740E+02 -0.71484930189E+02  0.86675489031E+02  0.10000000000E+01 0.  0.
    9000005    1    3    3    0    0  0.27487466226E+02  0.40570732740E+02  0.13905262176E+02  0.50949989900E+02  0.10000000000E+01 0.  0.
<mgrwt>
<rscale>  0 0.12500142E+03</rscale>
<asrwt>0</asrwt>
<pdfrwt beam="2">  1        4 0.24400643E-01 0.12500142E+03</pdfrwt>
<pdfrwt beam="1">  1       -4 0.10005727E-01 0.12500142E+03</pdfrwt>
<totfact> 0.19161852E+03</totfact>
</mgrwt>
</event>
<event>
 5    1  0.1448308E-002  0.1250009E+03  0.7818608E-02  0.1235068E+00
         -4   -1    0    0    0  501 -0.00000000000E+00  0.00000000000E+00  0.40809670182E+01  0.42740135474E+01  0.12700000000E+01 0. -1.
          4   -1    0    0  501    0  0.00000000000E+00 -0.00000000000E+00 -0.93489150123E+03  0.93489236385E+03  0.12700000000E+01 0. -1.
         25    2    1    2    0    0  0.00000000000E+00  0.00000000000E+00 -0.93081053421E+03  0.93916637739E+03  0.12500093528E+03 0.  0.
    9000005    1    3    3    0    0 -0.73126302052E+01 -0.30438013408E+02 -0.59037713211E+02  0.66831121507E+02  0.10000000000E+01 0.  0.
    9000005    1    3    3    0    0  0.73126302052E+01  0.30438013408E+02 -0.87177282100E+03  0.87233525589E+03  0.10000000000E+01 0.  0.
<mgrwt>
<rscale>  0 0.12500094E+03</rscale>
<asrwt>0</asrwt>
<pdfrwt beam="2">  1        4 0.23374640E+00 0.12500094E+03</pdfrwt>
<pdfrwt beam="1">  1       -4 0.10444836E-02 0.12500094E+03</pdfrwt>
<totfact> 0.41357800E+02</totfact>
</mgrwt>
</event>
<event>
 5    1  0.1448308E-002  0.1249953E+03  0.7818608E-02  0.1235077E+00
         -4   -1    0    0    0  501 -0.00000000000E+00  0.00000000000E+00  0.54803211818E+02  0.54817925222E+02  0.12700000000E+01 0. -1.
          4   -1    0    0  501    0  0.00000000000E+00 -0.00000000000E+00 -0.71242434442E+02  0.71253753342E+02  0.12700000000E+01 0. -1.
         25    2    1    2    0    0  0.00000000000E+00  0.00000000000E+00 -0.16439222624E+02  0.12607167856E+03  0.12499528029E+03 0.  0.
    9000005    1    3    3    0    0  0.24437100860E+02 -0.47759620066E+02  0.24100082268E+02  0.58821485638E+02  0.10000000000E+01 0.  0.
    9000005    1    3    3    0    0 -0.24437100860E+02  0.47759620066E+02 -0.40539304892E+02  0.67250192925E+02  0.10000000000E+01 0.  0.
<mgrwt>
<rscale>  0 0.12499528E+03</rscale>
<asrwt>0</asrwt>
<pdfrwt beam="2">  1        4 0.17813863E-01 0.12499528E+03</pdfrwt>
<pdfrwt beam="1">  1       -4 0.13704057E-01 0.12499528E+03</pdfrwt>
<totfact> 0.19779231E+03</totfact>
</mgrwt>
</event>
<event>
 5    1  0.1448308E-002  0.1250010E+03  0.7818608E-02  0.1235068E+00
         -4   -1    0    0    0  501 -0.00000000000E+00  0.00000000000E+00  0.14963191132E+02  0.15016990006E+02  0.12700000000E+01 0. -1.
          4   -1    0    0  501    0  0.00000000000E+00 -0.00000000000E+00 -0.26053748393E+03  0.26054057924E+03  0.12700000000E+01 0. -1.
         25    2    1    2    0    0  0.00000000000E+00  0.00000000000E+00 -0.24557429280E+03  0.27555756925E+03  0.12500096275E+03 0.  0.
    9000005    1    3    3    0    0 -0.40870372173E+02 -0.38047614259E+02 -0.60932883371E+02  0.82654851934E+02  0.10000000000E+01 0.  0.
    9000005    1    3    3    0    0  0.40870372173E+02  0.38047614259E+02 -0.18464140942E+03  0.19290271731E+03  0.10000000000E+01 0.  0.
<mgrwt>
<rscale>  0 0.12500096E+03</rscale>
<asrwt>0</asrwt>
<pdfrwt beam="2">  1        4 0.65141468E-01 0.12500096E+03</pdfrwt>
<pdfrwt beam="1">  1       -4 0.37479104E-02 0.12500096E+03</pdfrwt>
<totfact> 0.13684552E+03</totfact>
</mgrwt>
</event>
<event>
 5    1  0.1448308E-002  0.1250156E+03  0.7818608E-02  0.1235045E+00
         -4   -1    0    0    0  501 -0.00000000000E+00  0.00000000000E+00  0.28766892539E+02  0.28794912855E+02  0.12700000000E+01 0.  1.
          4   -1    0    0  501    0  0.00000000000E+00 -0.00000000000E+00 -0.13572652777E+03  0.13573246937E+03  0.12700000000E+01 0.  1.
         25    2    1    2    0    0  0.00000000000E+00  0.00000000000E+00 -0.10695963523E+03  0.16452738222E+03  0.12501558276E+03 0.  0.
    9000005    1    3    3    0    0 -0.62128869623E+02  0.50658656490E+01 -0.59447883634E+02  0.86143544761E+02  0.10000000000E+01 0.  0.
    9000005    1    3    3    0    0  0.62128869623E+02 -0.50658656490E+01 -0.47511751598E+02  0.78383837462E+02  0.10000000000E+01 0.  0.
<mgrwt>
<rscale>  0 0.12501558E+03</rscale>
<asrwt>0</asrwt>
<pdfrwt beam="2">  1        4 0.33935875E-01 0.12501558E+03</pdfrwt>
<pdfrwt beam="1">  1       -4 0.71959687E-02 0.12501558E+03</pdfrwt>
<totfact> 0.17840289E+03</totfact>
</mgrwt>
</event>
<event>
 5    1  0.1448308E-002  0.1249999E+03  0.7818608E-02  0.1235069E+00
          4   -1    0    0  501    0  0.00000000000E+00  0.00000000000E+00  0.20947620996E+03  0.20948005977E+03  0.12700000000E+01 0.  1.
         -4   -1    0    0    0  501 -0.00000000000E+00 -0.00000000000E+00 -0.18622027613E+02  0.18665283615E+02  0.12700000000E+01 0.  1.
         25    2    1    2    0    0  0.00000000000E+00  0.00000000000E+00  0.19085418235E+03  0.22814534338E+03  0.12499991515E+03 0.  0.
    9000005    1    3    3    0    0  0.57968677489E+02 -0.19435106074E+02  0.71829917426E+02  0.94332539218E+02  0.10000000000E+01 0.  0.
    9000005    1    3    3    0    0 -0.57968677489E+02  0.19435106074E+02  0.11902426492E+03  0.13381280417E+03  0.10000000000E+01 0.  0.
<mgrwt>
<rscale>  0 0.12499992E+03</rscale>
<asrwt>0</asrwt>
<pdfrwt beam="1">  1        4 0.52374940E-01 0.12499992E+03</pdfrwt>
<pdfrwt beam="2">  1       -4 0.46613952E-02 0.12499992E+03</pdfrwt>
<totfact> 0.15253840E+03</totfact>
</mgrwt>
</event>
<event>
 5    1  0.1448308E-002  0.1250004E+03  0.7818608E-02  0.1235069E+00
         -4   -1    0    0    0  501 -0.00000000000E+00  0.00000000000E+00  0.61973900467E+02  0.61986911837E+02  0.12700000000E+01 0.  1.
          4   -1    0    0  501    0  0.00000000000E+00 -0.00000000000E+00 -0.63004958643E+02  0.63017757130E+02  0.12700000000E+01 0.  1.
         25    2    1    2    0    0  0.00000000000E+00  0.00000000000E+00 -0.10310581761E+01  0.12500466897E+03  0.12500041673E+03 0.  0.
    9000005    1    3    3    0    0 -0.20337257136E+02 -0.49021337101E+02 -0.33510295191E+02  0.62774480505E+02  0.10000000000E+01 0.  0.
    9000005    1    3    3    0    0  0.20337257136E+02  0.49021337101E+02  0.32479237015E+02  0.62230188462E+02  0.10000000000E+01 0.  0.
<mgrwt>
<rscale>  0 0.12500042E+03</rscale>
<asrwt>0</asrwt>
<pdfrwt beam="2">  1        4 0.15754466E-01 0.12500042E+03</pdfrwt>
<pdfrwt beam="1">  1       -4 0.15496701E-01 0.12500042E+03</pdfrwt>
<totfact> 0.19834609E+03</totfact>
</mgrwt>
</event>
<event>
 4    1  0.1448308E-002  0.1246533E+03  0.7818608E-02  0.1235612E+00
         -4   -1    0    0    0  501 -0.00000000000E+00  0.00000000000E+00  0.24946232884E+02  0.24978539491E+02  0.12700000000E+01 0.  1.
          4   -1    0    0  501    0  0.00000000000E+00 -0.00000000000E+00 -0.15558376817E+03  0.15558895146E+03  0.12700000000E+01 0.  1.
    9000005    1    1    2    0    0 -0.32708012757E+02 -0.15193322019E+02 -0.13893857788E+03  0.14354643693E+03  0.10000000000E+01 0.  0.
    9000005    1    1    2    0    0  0.32708012757E+02  0.15193322019E+02  0.83010425996E+01  0.37021054019E+02  0.10000000000E+01 0.  0.
<mgrwt>
<rscale>  0 0.12465333E+03</rscale>
<asrwt>0</asrwt>
<pdfrwt beam="2">  1        4 0.38900626E-01 0.12465333E+03</pdfrwt>
<pdfrwt beam="1">  1       -4 0.62412449E-02 0.12465333E+03</pdfrwt>
<totfact> 0.17269075E+03</totfact>
</mgrwt>
</event>
<event>
 5    1  0.1448308E-002  0.1250041E+03  0.7818608E-02  0.1235063E+00
          4   -1    0    0  501    0  0.00000000000E+00  0.00000000000E+00  0.69191872626E+01  0.70347745078E+01  0.12700000000E+01 0.  1.
         -4   -1    0    0    0  501 -0.00000000000E+00 -0.00000000000E+00 -0.55979696152E+03  0.55979840212E+03  0.12700000000E+01 0.  1.
         25    2    1    2    0    0  0.00000000000E+00  0.00000000000E+00 -0.55287777425E+03  0.56683317663E+03  0.12500406741E+03 0.  0.
    9000005    1    3    3    0    0 -0.49378973716E+02  0.65883776740E+01 -0.10533581179E+03  0.11652606151E+03  0.10000000000E+01 0.  0.
    9000005    1    3    3    0    0  0.49378973716E+02 -0.65883776740E+01 -0.44754196246E+03  0.45030711512E+03  0.10000000000E+01 0.  0.
<mgrwt>
<rscale>  0 0.12500407E+03</rscale>
<asrwt>0</asrwt>
<pdfrwt beam="1">  1        4 0.17444272E-02 0.12500407E+03</pdfrwt>
<pdfrwt beam="2">  1       -4 0.13996372E+00 0.12500407E+03</pdfrwt>
<totfact> 0.77833949E+02</totfact>
</mgrwt>
</event>
<event>
 5    1  0.1448308E-002  0.1249989E+03  0.7818608E-02  0.1235071E+00
         -4   -1    0    0    0  501 -0.00000000000E+00  0.00000000000E+00  0.64135049315E+02  0.64147622331E+02  0.12700000000E+01 0.  1.
          4   -1    0    0  501    0  0.00000000000E+00 -0.00000000000E+00 -0.60880434569E+02  0.60893679584E+02  0.12700000000E+01 0.  1.
         25    2    1    2    0    0  0.00000000000E+00  0.00000000000E+00  0.32546147464E+01  0.12504130192E+03  0.12499893867E+03 0.  0.
    9000005    1    3    3    0    0  0.41029413820E+02  0.10278455229E+01 -0.45513120040E+02  0.61293664931E+02  0.10000000000E+01 0.  0.
    9000005    1    3    3    0    0 -0.41029413820E+02 -0.10278455229E+01  0.48767734787E+02  0.63747636984E+02  0.10000000000E+01 0.  0.
<mgrwt>
<rscale>  0 0.12499894E+03</rscale>
<asrwt>0</asrwt>
<pdfrwt beam="2">  1        4 0.15223336E-01 0.12499894E+03</pdfrwt>
<pdfrwt beam="1">  1       -4 0.16036990E-01 0.12499894E+03</pdfrwt>
<totfact> 0.19833308E+03</totfact>
</mgrwt>
</event>
<event>
 5    1  0.1448308E-002  0.1249948E+03  0.7818608E-02  0.1235077E+00
          4   -1    0    0  501    0  0.00000000000E+00  0.00000000000E+00  0.59745678941E+02  0.59759175463E+02  0.12700000000E+01 0. -1.
         -4   -1    0    0    0  501 -0.00000000000E+00 -0.00000000000E+00 -0.65348770135E+02  0.65361109677E+02  0.12700000000E+01 0. -1.
         25    2    1    2    0    0  0.00000000000E+00  0.00000000000E+00 -0.56030911948E+01  0.12512028514E+03  0.12499476438E+03 0.  0.
    9000005    1    3    3    0    0 -0.41587489722E+02 -0.10270037484E+02  0.42740623625E+02  0.60520689678E+02  0.10000000000E+01 0.  0.
    9000005    1    3    3    0    0  0.41587489722E+02  0.10270037484E+02 -0.48343714819E+02  0.64599595462E+02  0.10000000000E+01 0.  0.
<mgrwt>
<rscale>  0 0.12499476E+03</rscale>
<asrwt>0</asrwt>
<pdfrwt beam="1">  1        4 0.14939649E-01 0.12499476E+03</pdfrwt>
<pdfrwt beam="2">  1       -4 0.16340422E-01 0.12499476E+03</pdfrwt>
<totfact> 0.19830963E+03</totfact>
</mgrwt>
</event>
<event>
 5    1  0.1448308E-002  0.1250001E+03  0.7818608E-02  0.1235069E+00
         -4   -1    0    0    0  501 -0.00000000000E+00  0.00000000000E+00  0.50659028934E+03  0.50659188126E+03  0.12700000000E+01 0. -1.
          4   -1    0    0  501    0  0.00000000000E+00 -0.00000000000E+00 -0.76569743107E+01  0.77615820292E+01  0.12700000000E+01 0. -1.
         25    2    1    2    0    0  0.00000000000E+00  0.00000000000E+00  0.49893331503E+03  0.51435346329E+03  0.12500012939E+03 0.  0.
    9000005    1    3    3    0    0  0.22072218811E+02 -0.54224268890E+02  0.33941145619E+03  0.34442501473E+03  0.10000000000E+01 0.  0.
    9000005    1    3    3    0    0 -0.22072218811E+02  0.54224268890E+02  0.15952185884E+03  0.16992844855E+03  0.10000000000E+01 0.  0.
<mgrwt>
<rscale>  0 0.12500013E+03</rscale>
<asrwt>0</asrwt>
<pdfrwt beam="2">  1        4 0.19275187E-02 0.12500013E+03</pdfrwt>
<pdfrwt beam="1">  1       -4 0.12666084E+00 0.12500013E+03</pdfrwt>
<totfact> 0.85367923E+02</totfact>
</mgrwt>
</event>
<event>
 5    1  0.1448308E-002  0.1250025E+03  0.7818608E-02  0.1235065E+00
          4   -1    0    0  501    0  0.00000000000E+00  0.00000000000E+00  0.33524694832E+02  0.33548741609E+02  0.12700000000E+01 0.  1.
         -4   -1    0    0    0  501 -0.00000000000E+00 -0.00000000000E+00 -0.11645392361E+03  0.11646084846E+03  0.12700000000E+01 0.  1.
         25    2    1    2    0    0  0.00000000000E+00  0.00000000000E+00 -0.82929228779E+02  0.15000959007E+03  0.12500248048E+03 0.  0.
    9000005    1    3    3    0    0 -0.61686918791E+02  0.87059743666E+01 -0.47384548742E+02  0.78277489735E+02  0.10000000000E+01 0.  0.
    9000005    1    3    3    0    0  0.61686918791E+02 -0.87059743666E+01 -0.35544680037E+02  0.71732100336E+02  0.10000000000E+01 0.  0.
<mgrwt>
<rscale>  0 0.12500248E+03</rscale>
<asrwt>0</asrwt>
<pdfrwt beam="1">  1        4 0.83850454E-02 0.12500248E+03</pdfrwt>
<pdfrwt beam="2">  1       -4 0.29117351E-01 0.12500248E+03</pdfrwt>
<totfact> 0.18537239E+03</totfact>
</mgrwt>
</event>
<event>
 5    1  0.1448308E-002  0.1249979E+03  0.7818608E-02  0.1235073E+00
          4   -1    0    0  501    0  0.00000000000E+00  0.00000000000E+00  0.44966873901E+03  0.44967053244E+03  0.12700000000E+01 0. -1.
         -4   -1    0    0    0  501 -0.00000000000E+00 -0.00000000000E+00 -0.86384184869E+01  0.87312756201E+01  0.12700000000E+01 0. -1.
         25    2    1    2    0    0  0.00000000000E+00  0.00000000000E+00  0.44103032053E+03  0.45840180806E+03  0.12499789602E+03 0.  0.
    9000005    1    3    3    0    0 -0.24264645103E+02 -0.56544060907E+02  0.18049062876E+03  0.19069313280E+03  0.10000000000E+01 0.  0.
    9000005    1    3    3    0    0  0.24264645103E+02  0.56544060907E+02  0.26053969177E+03  0.26770867526E+03  0.10000000000E+01 0.  0.
<mgrwt>
<rscale>  0 0.12499790E+03</rscale>
<asrwt>0</asrwt>
<pdfrwt beam="1">  1        4 0.11242900E+00 0.12499790E+03</pdfrwt>
<pdfrwt beam="2">  1       -4 0.21714362E-02 0.12499790E+03</pdfrwt>
<totfact> 0.94532412E+02</totfact>
</mgrwt>
</event>
<event>
 5    1  0.1448308E-002  0.1249998E+03  0.7818608E-02  0.1235070E+00
          4   -1    0    0  501    0  0.00000000000E+00  0.00000000000E+00  0.18663687920E+03  0.18664120010E+03  0.12700000000E+01 0. -1.
         -4   -1    0    0    0  501 -0.00000000000E+00 -0.00000000000E+00 -0.20905781979E+02  0.20944321908E+02  0.12700000000E+01 0. -1.
         25    2    1    2    0    0  0.00000000000E+00  0.00000000000E+00  0.16573109722E+03  0.20758552201E+03  0.12499980946E+03 0.  0.
    9000005    1    3    3    0    0  0.28531388748E+02  0.42292850653E+02  0.22930798641E+02  0.55942353245E+02  0.10000000000E+01 0.  0.
    9000005    1    3    3    0    0 -0.28531388748E+02 -0.42292850653E+02  0.14280029858E+03  0.15164316877E+03  0.10000000000E+01 0.  0.
<mgrwt>
<rscale>  0 0.12499981E+03</rscale>
<asrwt>0</asrwt>
<pdfrwt beam="1">  1        4 0.46664577E-01 0.12499981E+03</pdfrwt>
<pdfrwt beam="2">  1       -4 0.52318031E-02 0.12499981E+03</pdfrwt>
<totfact> 0.16022816E+03</totfact>
</mgrwt>
</event>
<event>
 5    1  0.1448308E-002  0.1249981E+03  0.7818608E-02  0.1235072E+00
         -4   -1    0    0    0  501 -0.00000000000E+00  0.00000000000E+00  0.56191913440E+01  0.57609210514E+01  0.12700000000E+01 0.  1.
          4   -1    0    0  501    0  0.00000000000E+00 -0.00000000000E+00 -0.68634171100E+03  0.68634288600E+03  0.12700000000E+01 0.  1.
         25    2    1    2    0    0  0.00000000000E+00  0.00000000000E+00 -0.68072251966E+03  0.69210380705E+03  0.12499812384E+03 0.  0.
    9000005    1    3    3    0    0 -0.41131670150E+01 -0.53880798852E+02 -0.51414222175E+03  0.51697512785E+03  0.10000000000E+01 0.  0.
    9000005    1    3    3    0    0  0.41131670150E+01  0.53880798852E+02 -0.16658029791E+03  0.17512867920E+03  0.10000000000E+01 0.  0.
<mgrwt>
<rscale>  0 0.12499812E+03</rscale>
<asrwt>0</asrwt>
<pdfrwt beam="2">  1        4 0.17160301E+00 0.12499812E+03</pdfrwt>
<pdfrwt beam="1">  1       -4 0.14226633E-02 0.12499812E+03</pdfrwt>
<totfact> 0.62894051E+02</totfact>
</mgrwt>
</event>
<event>
 5    1  0.1448308E-002  0.1249997E+03  0.7818608E-02  0.1235070E+00
         -4   -1    0    0    0  501 -0.00000000000E+00  0.00000000000E+00  0.12450812414E+02  0.12515415685E+02  0.12700000000E+01 0.  1.
          4   -1    0    0  501    0  0.00000000000E+00 -0.00000000000E+00 -0.31285524510E+03  0.31285782280E+03  0.12700000000E+01 0.  1.
         25    2    1    2    0    0  0.00000000000E+00  0.00000000000E+00 -0.30040443268E+03  0.32537323848E+03  0.12499968458E+03 0.  0.
    9000005    1    3    3    0    0 -0.47487474802E+02 -0.12517024329E+02 -0.49607615413E+02  0.69811543946E+02  0.10000000000E+01 0.  0.
    9000005    1    3    3    0    0  0.47487474802E+02  0.12517024329E+02 -0.25079681727E+03  0.25556169454E+03  0.10000000000E+01 0.  0.
<mgrwt>
<rscale>  0 0.12499968E+03</rscale>
<asrwt>0</asrwt>
<pdfrwt beam="2">  1        4 0.78222183E-01 0.12499968E+03</pdfrwt>
<pdfrwt beam="1">  1       -4 0.31211018E-02 0.12499968E+03</pdfrwt>
<totfact> 0.12288673E+03</totfact>
</mgrwt>
</event>
<event>
 4    1  0.1448308E-002  0.1251977E+03  0.7818608E-02  0.1234761E+00
         -4   -1    0    0    0  501 -0.00000000000E+00  0.00000000000E+00  0.92844755013E+02  0.92853440611E+02  0.12700000000E+01 0. -1.
          4   -1    0    0  501    0  0.00000000000E+00 -0.00000000000E+00 -0.42185885963E+02  0.42204998217E+02  0.12700000000E+01 0. -1.
    9000005    1    1    2    0    0  0.17740231855E+01 -0.58751115027E+02  0.48535961546E+02  0.76233721137E+02  0.10000000000E+01 0.  0.
    9000005    1    1    2    0    0 -0.17740231855E+01  0.58751115027E+02  0.21229075036E+01  0.58824717692E+02  0.10000000000E+01 0.  0.
<mgrwt>
<rscale>  0 0.12519769E+03</rscale>
<asrwt>0</asrwt>
<pdfrwt beam="2">  1        4 0.10549946E-01 0.12519769E+03</pdfrwt>
<pdfrwt beam="1">  1       -4 0.23214663E-01 0.12519769E+03</pdfrwt>
<totfact> 0.19207340E+03</totfact>
</mgrwt>
</event>
<event>
 5    1  0.1448308E-002  0.1250022E+03  0.7818608E-02  0.1235066E+00
         -4   -1    0    0    0  501 -0.00000000000E+00  0.00000000000E+00  0.21684188715E+03  0.21684560618E+03  0.12700000000E+01 0.  1.
          4   -1    0    0  501    0  0.00000000000E+00 -0.00000000000E+00 -0.17988655397E+02  0.18033430705E+02  0.12700000000E+01 0.  1.
         25    2    1    2    0    0  0.00000000000E+00  0.00000000000E+00  0.19885323175E+03  0.23487903689E+03  0.12500221675E+03 0.  0.
    9000005    1    3    3    0    0 -0.25016074961E+02  0.55219528059E+01  0.20653108325E+03  0.20811627595E+03  0.10000000000E+01 0.  0.
    9000005    1    3    3    0    0  0.25016074961E+02 -0.55219528059E+01 -0.76778514980E+01  0.26762760935E+02  0.10000000000E+01 0.  0.
<mgrwt>
<rscale>  0 0.12500222E+03</rscale>
<asrwt>0</asrwt>
<pdfrwt beam="2">  1        4 0.45032256E-02 0.12500222E+03</pdfrwt>
<pdfrwt beam="1">  1       -4 0.54216534E-01 0.12500222E+03</pdfrwt>
<totfact> 0.15013759E+03</totfact>
</mgrwt>
</event>
<event>
 5    1  0.1448308E-002  0.1249983E+03  0.7818608E-02  0.1235072E+00
          4   -1    0    0  501    0  0.00000000000E+00  0.00000000000E+00  0.10822535252E+03  0.10823280384E+03  0.12700000000E+01 0.  1.
         -4   -1    0    0    0  501 -0.00000000000E+00 -0.00000000000E+00 -0.36072830550E+02  0.36095179787E+02  0.12700000000E+01 0.  1.
         25    2    1    2    0    0  0.00000000000E+00  0.00000000000E+00  0.72152521968E+02  0.14432798363E+03  0.12499832172E+03 0.  0.
    9000005    1    3    3    0    0  0.48026781266E+02 -0.38793955098E+02  0.47247206676E+02  0.77748576898E+02  0.10000000000E+01 0.  0.
    9000005    1    3    3    0    0 -0.48026781266E+02  0.38793955098E+02  0.24905315292E+02  0.66579406731E+02  0.10000000000E+01 0.  0.
<mgrwt>
<rscale>  0 0.12499832E+03</rscale>
<asrwt>0</asrwt>
<pdfrwt beam="1">  1        4 0.27060063E-01 0.12499832E+03</pdfrwt>
<pdfrwt beam="2">  1       -4 0.90219328E-02 0.12499832E+03</pdfrwt>
<totfact> 0.18821811E+03</totfact>
</mgrwt>
</event>
<event>
 5    1  0.1448308E-002  0.1250006E+03  0.7818608E-02  0.1235068E+00
          4   -1    0    0  501    0  0.00000000000E+00  0.00000000000E+00  0.37253967384E+02  0.37275608458E+02  0.12700000000E+01 0.  1.
         -4   -1    0    0    0  501 -0.00000000000E+00 -0.00000000000E+00 -0.10479974165E+03  0.10480743652E+03  0.12700000000E+01 0.  1.
         25    2    1    2    0    0  0.00000000000E+00  0.00000000000E+00 -0.67545774262E+02  0.14208304497E+03  0.12500064019E+03 0.  0.
    9000005    1    3    3    0    0  0.57367252272E+02  0.15188705565E+02 -0.56034906893E+02  0.81624807507E+02  0.10000000000E+01 0.  0.
    9000005    1    3    3    0    0 -0.57367252272E+02 -0.15188705565E+02 -0.11510867368E+02  0.60458237467E+02  0.10000000000E+01 0.  0.
<mgrwt>
<rscale>  0 0.12500064E+03</rscale>
<asrwt>0</asrwt>
<pdfrwt beam="1">  1        4 0.93171591E-02 0.12500064E+03</pdfrwt>
<pdfrwt beam="2">  1       -4 0.26203602E-01 0.12500064E+03</pdfrwt>
<totfact> 0.18933997E+03</totfact>
</mgrwt>
</event>
<event>
 5    1  0.1448308E-002  0.1249985E+03  0.7818608E-02  0.1235072E+00
          4   -1    0    0  501    0  0.00000000000E+00  0.00000000000E+00  0.15288362965E+02  0.15341021549E+02  0.12700000000E+01 0. -1.
         -4   -1    0    0    0  501 -0.00000000000E+00 -0.00000000000E+00 -0.25500496327E+03  0.25500812574E+03  0.12700000000E+01 0. -1.
         25    2    1    2    0    0  0.00000000000E+00  0.00000000000E+00 -0.23971660030E+03  0.27034914729E+03  0.12499845190E+03 0.  0.
    9000005    1    3    3    0    0  0.55675757739E+01  0.39731144525E+02 -0.22348404702E+03  0.22705876115E+03  0.10000000000E+01 0.  0.
    9000005    1    3    3    0    0 -0.55675757739E+01 -0.39731144525E+02 -0.16232553286E+02  0.43290386132E+02  0.10000000000E+01 0.  0.
<mgrwt>
<rscale>  0 0.12499845E+03</rscale>
<asrwt>0</asrwt>
<pdfrwt beam="1">  1        4 0.38290692E-02 0.12499845E+03</pdfrwt>
<pdfrwt beam="2">  1       -4 0.63758205E-01 0.12499845E+03</pdfrwt>
<totfact> 0.13845246E+03</totfact>
</mgrwt>
</event>
<event>
 5    1  0.1448308E-002  0.1250009E+03  0.7818608E-02  0.1235068E+00
         -4   -1    0    0    0  501 -0.00000000000E+00  0.00000000000E+00  0.17172073457E+02  0.17218972293E+02  0.12700000000E+01 0. -1.
          4   -1    0    0  501    0  0.00000000000E+00 -0.00000000000E+00 -0.22712141774E+03  0.22712496846E+03  0.12700000000E+01 0. -1.
         25    2    1    2    0    0  0.00000000000E+00  0.00000000000E+00 -0.20994934429E+03  0.24434394075E+03  0.12500093686E+03 0.  0.
    9000005    1    3    3    0    0  0.20322253138E+02  0.58877998549E+02 -0.95065897419E+02  0.11365798493E+03  0.10000000000E+01 0.  0.
    9000005    1    3    3    0    0 -0.20322253138E+02 -0.58877998549E+02 -0.11488344687E+03  0.13068595583E+03  0.10000000000E+01 0.  0.
<mgrwt>
<rscale>  0 0.12500094E+03</rscale>
<asrwt>0</asrwt>
<pdfrwt beam="2">  1        4 0.56786651E-01 0.12500094E+03</pdfrwt>
<pdfrwt beam="1">  1       -4 0.42993253E-02 0.12500094E+03</pdfrwt>
<totfact> 0.14687646E+03</totfact>
</mgrwt>
</event>
<event>
 5    1  0.1448308E-002  0.1250039E+03  0.7818608E-02  0.1235063E+00
         -4   -1    0    0    0  501 -0.00000000000E+00  0.00000000000E+00  0.74235345696E+02  0.74246208325E+02  0.12700000000E+01 0.  1.
          4   -1    0    0  501    0  0.00000000000E+00 -0.00000000000E+00 -0.52600735705E+02  0.52616065006E+02  0.12700000000E+01 0.  1.
         25    2    1    2    0    0  0.00000000000E+00  0.00000000000E+00  0.21634609991E+02  0.12686227333E+03  0.12500392012E+03 0.  0.
    9000005    1    3    3    0    0  0.45997381149E+02  0.12166241921E+02 -0.30303177550E+02  0.56418605838E+02  0.10000000000E+01 0.  0.
    9000005    1    3    3    0    0 -0.45997381149E+02 -0.12166241921E+02  0.51937787542E+02  0.70443667493E+02  0.10000000000E+01 0.  0.
<mgrwt>
<rscale>  0 0.12500392E+03</rscale>
<asrwt>0</asrwt>
<pdfrwt beam="2">  1        4 0.13153458E-01 0.12500392E+03</pdfrwt>
<pdfrwt beam="1">  1       -4 0.18562110E-01 0.12500392E+03</pdfrwt>
<totfact> 0.19732586E+03</totfact>
</mgrwt>
</event>
<event>
 5    1  0.1448308E-002  0.1249992E+03  0.7818608E-02  0.1235070E+00
          4   -1    0    0  501    0  0.00000000000E+00  0.00000000000E+00  0.11978907800E+03  0.11979581006E+03  0.12700000000E+01 0. -1.
         -4   -1    0    0    0  501 -0.00000000000E+00 -0.00000000000E+00 -0.32588979573E+02  0.32613716281E+02  0.12700000000E+01 0. -1.
         25    2    1    2    0    0  0.00000000000E+00  0.00000000000E+00  0.87200098426E+02  0.15240952634E+03  0.12499922621E+03 0.  0.
    9000005    1    3    3    0    0 -0.50783797270E+02 -0.32039931058E+02  0.22493744039E+02  0.64128930820E+02  0.10000000000E+01 0.  0.
    9000005    1    3    3    0    0  0.50783797270E+02  0.32039931058E+02  0.64706354387E+02  0.88280595520E+02  0.10000000000E+01 0.  0.
<mgrwt>
<rscale>  0 0.12499923E+03</rscale>
<asrwt>0</asrwt>
<pdfrwt beam="1">  1        4 0.29951203E-01 0.12499923E+03</pdfrwt>
<pdfrwt beam="2">  1       -4 0.81511785E-02 0.12499923E+03</pdfrwt>
<totfact> 0.18421267E+03</totfact>
</mgrwt>
</event>
<event>
 5    1  0.1448308E-002  0.1249978E+03  0.7818608E-02  0.1235073E+00
         -4   -1    0    0    0  501 -0.00000000000E+00  0.00000000000E+00  0.54611664989E+02  0.54626429985E+02  0.12700000000E+01 0.  1.
          4   -1    0    0  501    0  0.00000000000E+00 -0.00000000000E+00 -0.71495215374E+02  0.71506494260E+02  0.12700000000E+01 0.  1.
         25    2    1    2    0    0  0.00000000000E+00  0.00000000000E+00 -0.16883550384E+02  0.12613292424E+03  0.12499784120E+03 0.  0.
    9000005    1    3    3    0    0  0.53937032979E+02  0.68898141465E+01  0.22634670631E+02  0.58906717615E+02  0.10000000000E+01 0.  0.
    9000005    1    3    3    0    0 -0.53937032979E+02 -0.68898141465E+01 -0.39518221016E+02  0.67226206630E+02  0.10000000000E+01 0.  0.
<mgrwt>
<rscale>  0 0.12499784E+03</rscale>
<asrwt>0</asrwt>
<pdfrwt beam="2">  1        4 0.17877059E-01 0.12499784E+03</pdfrwt>
<pdfrwt beam="1">  1       -4 0.13656172E-01 0.12499784E+03</pdfrwt>
<totfact> 0.19774737E+03</totfact>
</mgrwt>
</event>
<event>
 5    1  0.1448308E-002  0.1249991E+03  0.7818608E-02  0.1235071E+00
          4   -1    0    0  501    0  0.00000000000E+00  0.00000000000E+00  0.70955139571E+02  0.70966504293E+02  0.12700000000E+01 0. -1.
         -4   -1    0    0    0  501 -0.00000000000E+00 -0.00000000000E+00 -0.55028485005E+02  0.55043138191E+02  0.12700000000E+01 0. -1.
         25    2    1    2    0    0  0.00000000000E+00  0.00000000000E+00  0.15926654566E+02  0.12600964248E+03  0.12499908669E+03 0.  0.
    9000005    1    3    3    0    0  0.51204315675E+02 -0.12786521821E+01 -0.28126605193E+02  0.58443329942E+02  0.10000000000E+01 0.  0.
    9000005    1    3    3    0    0 -0.51204315675E+02  0.12786521821E+01  0.44053259759E+02  0.67566312542E+02  0.10000000000E+01 0.  0.
<mgrwt>
<rscale>  0 0.12499909E+03</rscale>
<asrwt>0</asrwt>
<pdfrwt beam="1">  1        4 0.17742037E-01 0.12499909E+03</pdfrwt>
<pdfrwt beam="2">  1       -4 0.13760374E-01 0.12499909E+03</pdfrwt>
<totfact> 0.19780822E+03</totfact>
</mgrwt>
</event>
<event>
 5    1  0.1448308E-002  0.1250008E+03  0.7818608E-02  0.1235068E+00
          4   -1    0    0  501    0  0.00000000000E+00  0.00000000000E+00  0.39456262306E+02  0.39476696102E+02  0.12700000000E+01 0.  1.
         -4   -1    0    0    0  501 -0.00000000000E+00 -0.00000000000E+00 -0.98953119245E+02  0.98961268729E+02  0.12700000000E+01 0.  1.
         25    2    1    2    0    0  0.00000000000E+00  0.00000000000E+00 -0.59496856939E+02  0.13843796483E+03  0.12500077648E+03 0.  0.
    9000005    1    3    3    0    0 -0.23501254150E+02  0.38987749305E+02  0.17666730470E+02  0.48841241876E+02  0.10000000000E+01 0.  0.
    9000005    1    3    3    0    0  0.23501254150E+02 -0.38987749305E+02 -0.77163587409E+02  0.89596722955E+02  0.10000000000E+01 0.  0.
<mgrwt>
<rscale>  0 0.12500078E+03</rscale>
<asrwt>0</asrwt>
<pdfrwt beam="1">  1        4 0.98676387E-02 0.12500078E+03</pdfrwt>
<pdfrwt beam="2">  1       -4 0.24741852E-01 0.12500078E+03</pdfrwt>
<totfact> 0.19120194E+03</totfact>
</mgrwt>
</event>
<event>
 5    1  0.1448308E-002  0.1249989E+03  0.7818608E-02  0.1235071E+00
         -4   -1    0    0    0  501 -0.00000000000E+00  0.00000000000E+00  0.75894946766E+01  0.76950197820E+01  0.12700000000E+01 0. -1.
          4   -1    0    0  501    0  0.00000000000E+00 -0.00000000000E+00 -0.51102280142E+03  0.51102437953E+03  0.12700000000E+01 0. -1.
         25    2    1    2    0    0  0.00000000000E+00  0.00000000000E+00 -0.50343330675E+03  0.51871939931E+03  0.12499888352E+03 0.  0.
    9000005    1    3    3    0    0  0.23824166611E+02  0.50594690942E+02 -0.13598531167E+03  0.14703883384E+03  0.10000000000E+01 0.  0.
    9000005    1    3    3    0    0 -0.23824166611E+02 -0.50594690942E+02 -0.36744799507E+03  0.37168056547E+03  0.10000000000E+01 0.  0.
<mgrwt>
<rscale>  0 0.12499888E+03</rscale>
<asrwt>0</asrwt>
<pdfrwt beam="2">  1        4 0.12776897E+00 0.12499888E+03</pdfrwt>
<pdfrwt beam="1">  1       -4 0.19107633E-02 0.12499888E+03</pdfrwt>
<totfact> 0.84706555E+02</totfact>
</mgrwt>
</event>
<event>
 5    1  0.1448308E-002  0.1249995E+03  0.7818608E-02  0.1235070E+00
          4   -1    0    0  501    0  0.00000000000E+00  0.00000000000E+00  0.55885132167E+03  0.55885276471E+03  0.12700000000E+01 0. -1.
         -4   -1    0    0    0  501 -0.00000000000E+00 -0.00000000000E+00 -0.69305728229E+01  0.70459732936E+01  0.12700000000E+01 0. -1.
         25    2    1    2    0    0  0.00000000000E+00  0.00000000000E+00  0.55192074884E+03  0.56589873801E+03  0.12499947470E+03 0.  0.
    9000005    1    3    3    0    0  0.42427402338E+02  0.39521173300E+02  0.17044536551E+03  0.18004063495E+03  0.10000000000E+01 0.  0.
    9000005    1    3    3    0    0 -0.42427402338E+02 -0.39521173300E+02  0.38147538333E+03  0.38585810306E+03  0.10000000000E+01 0.  0.
<mgrwt>
<rscale>  0 0.12499947E+03</rscale>
<asrwt>0</asrwt>
<pdfrwt beam="1">  1        4 0.13972740E+00 0.12499947E+03</pdfrwt>
<pdfrwt beam="2">  1       -4 0.17472491E-02 0.12499947E+03</pdfrwt>
<totfact> 0.77969166E+02</totfact>
</mgrwt>
</event>
<event>
 5    1  0.1448308E-002  0.1250118E+03  0.7818608E-02  0.1235051E+00
          4   -1    0    0  501    0  0.00000000000E+00  0.00000000000E+00  0.92042561624E+02  0.92051322914E+02  0.12700000000E+01 0.  1.
         -4   -1    0    0    0  501 -0.00000000000E+00 -0.00000000000E+00 -0.42427344658E+02  0.42446348191E+02  0.12700000000E+01 0.  1.
         25    2    1    2    0    0  0.00000000000E+00  0.00000000000E+00  0.49615216965E+02  0.13449767111E+03  0.12501181455E+03 0.  0.
    9000005    1    3    3    0    0 -0.37052975805E+02  0.77617126475E+01  0.78308382725E+02  0.86984883768E+02  0.10000000000E+01 0.  0.
    9000005    1    3    3    0    0  0.37052975805E+02 -0.77617126475E+01 -0.28693165759E+02  0.47512787337E+02  0.10000000000E+01 0.  0.
<mgrwt>
<rscale>  0 0.12501181E+03</rscale>
<asrwt>0</asrwt>
<pdfrwt beam="1">  1        4 0.23014111E-01 0.12501181E+03</pdfrwt>
<pdfrwt beam="2">  1       -4 0.10610307E-01 0.12501181E+03</pdfrwt>
<totfact> 0.19320154E+03</totfact>
</mgrwt>
</event>
<event>
 5    1  0.1448308E-002  0.1249738E+03  0.7818608E-02  0.1235110E+00
         -4   -1    0    0    0  501 -0.00000000000E+00  0.00000000000E+00  0.82408272605E+02  0.82418058056E+02  0.12700000000E+01 0. -1.
          4   -1    0    0  501    0  0.00000000000E+00 -0.00000000000E+00 -0.47360231480E+02  0.47377256420E+02  0.12700000000E+01 0. -1.
         25    2    1    2    0    0  0.00000000000E+00  0.00000000000E+00  0.35048041125E+02  0.12979531448E+03  0.12497383115E+03 0.  0.
    9000005    1    3    3    0    0  0.48630504651E+02  0.38919783991E+02  0.22605537591E+02  0.66269796275E+02  0.10000000000E+01 0.  0.
    9000005    1    3    3    0    0 -0.48630504651E+02 -0.38919783991E+02  0.12442503533E+02  0.63525518201E+02  0.10000000000E+01 0.  0.
<mgrwt>
<rscale>  0 0.12497383E+03</rscale>
<asrwt>0</asrwt>
<pdfrwt beam="2">  1        4 0.11843409E-01 0.12497383E+03</pdfrwt>
<pdfrwt beam="1">  1       -4 0.20605419E-01 0.12497383E+03</pdfrwt>
<totfact> 0.19587354E+03</totfact>
</mgrwt>
</event>
<event>
 5    1  0.1448308E-002  0.1250012E+03  0.7818608E-02  0.1235067E+00
          4   -1    0    0  501    0  0.00000000000E+00  0.00000000000E+00  0.18895515438E+03  0.18895942227E+03  0.12700000000E+01 0.  1.
         -4   -1    0    0    0  501 -0.00000000000E+00 -0.00000000000E+00 -0.20649281746E+02  0.20688299510E+02  0.12700000000E+01 0.  1.
         25    2    1    2    0    0  0.00000000000E+00  0.00000000000E+00  0.16830587263E+03  0.20964772178E+03  0.12500120194E+03 0.  0.
    9000005    1    3    3    0    0  0.55742441575E+02  0.25045581171E+02  0.10607344595E+03  0.12242171729E+03  0.10000000000E+01 0.  0.
    9000005    1    3    3    0    0 -0.55742441575E+02 -0.25045581171E+02  0.62232426680E+02  0.87226004490E+02  0.10000000000E+01 0.  0.
<mgrwt>
<rscale>  0 0.12500120E+03</rscale>
<asrwt>0</asrwt>
<pdfrwt beam="1">  1        4 0.47244199E-01 0.12500120E+03</pdfrwt>
<pdfrwt beam="2">  1       -4 0.51677311E-02 0.12500120E+03</pdfrwt>
<totfact> 0.15942442E+03</totfact>
</mgrwt>
</event>
<event>
 5    1  0.1448308E-002  0.1250013E+03  0.7818608E-02  0.1235067E+00
          4   -1    0    0  501    0  0.00000000000E+00  0.00000000000E+00  0.85504214981E+01  0.86442239556E+01  0.12700000000E+01 0. -1.
         -4   -1    0    0    0  501 -0.00000000000E+00 -0.00000000000E+00 -0.45427110677E+03  0.45427288203E+03  0.12700000000E+01 0. -1.
         25    2    1    2    0    0  0.00000000000E+00  0.00000000000E+00 -0.44572068527E+03  0.46291710598E+03  0.12500127093E+03 0.  0.
    9000005    1    3    3    0    0  0.16100549534E+02 -0.51687994950E+02 -0.10725730911E+03  0.12014993497E+03  0.10000000000E+01 0.  0.
    9000005    1    3    3    0    0 -0.16100549534E+02  0.51687994950E+02 -0.33846337617E+03  0.34276717101E+03  0.10000000000E+01 0.  0.
<mgrwt>
<rscale>  0 0.12500127E+03</rscale>
<asrwt>0</asrwt>
<pdfrwt beam="1">  1        4 0.21495541E-02 0.12500127E+03</pdfrwt>
<pdfrwt beam="2">  1       -4 0.11357964E+00 0.12500127E+03</pdfrwt>
<totfact> 0.93740657E+02</totfact>
</mgrwt>
</event>
<event>
 5    1  0.1448308E-002  0.1250024E+03  0.7818608E-02  0.1235066E+00
         -4   -1    0    0    0  501 -0.00000000000E+00  0.00000000000E+00  0.21336750132E+03  0.21337128091E+03  0.12700000000E+01 0. -1.
          4   -1    0    0  501    0  0.00000000000E+00 -0.00000000000E+00 -0.18282335909E+02  0.18326393707E+02  0.12700000000E+01 0. -1.
         25    2    1    2    0    0  0.00000000000E+00  0.00000000000E+00  0.19508516541E+03  0.23169767462E+03  0.12500236263E+03 0.  0.
    9000005    1    3    3    0    0 -0.36116536898E+02 -0.25210144716E+02  0.17971642102E+03  0.18503769243E+03  0.10000000000E+01 0.  0.
    9000005    1    3    3    0    0  0.36116536898E+02  0.25210144716E+02  0.15368744385E+02  0.46659982191E+02  0.10000000000E+01 0.  0.
<mgrwt>
<rscale>  0 0.12500236E+03</rscale>
<asrwt>0</asrwt>
<pdfrwt beam="2">  1        4 0.45765637E-02 0.12500236E+03</pdfrwt>
<pdfrwt beam="1">  1       -4 0.53347854E-01 0.12500236E+03</pdfrwt>
<totfact> 0.15126016E+03</totfact>
</mgrwt>
</event>
<event>
 5    1  0.1448308E-002  0.1250012E+03  0.7818608E-02  0.1235067E+00
          4   -1    0    0  501    0  0.00000000000E+00  0.00000000000E+00  0.21866809207E+03  0.21867178005E+03  0.12700000000E+01 0. -1.
         -4   -1    0    0    0  501 -0.00000000000E+00 -0.00000000000E+00 -0.17837765291E+02  0.17882918402E+02  0.12700000000E+01 0. -1.
         25    2    1    2    0    0  0.00000000000E+00  0.00000000000E+00  0.20083032678E+03  0.23655469845E+03  0.12500122082E+03 0.  0.
    9000005    1    3    3    0    0 -0.62409429006E+02 -0.24072589946E+01  0.10447155686E+03  0.12172114819E+03  0.10000000000E+01 0.  0.
    9000005    1    3    3    0    0  0.62409429006E+02  0.24072589946E+01  0.96358769924E+02  0.11483355026E+03  0.10000000000E+01 0.  0.
<mgrwt>
<rscale>  0 0.12500122E+03</rscale>
<asrwt>0</asrwt>
<pdfrwt beam="1">  1        4 0.54673127E-01 0.12500122E+03</pdfrwt>
<pdfrwt beam="2">  1       -4 0.44655466E-02 0.12500122E+03</pdfrwt>
<totfact> 0.14955471E+03</totfact>
</mgrwt>
</event>
<event>
 5    1  0.1448308E-002  0.1249994E+03  0.7818608E-02  0.1235070E+00
         -4   -1    0    0    0  501 -0.00000000000E+00  0.00000000000E+00  0.14194765161E+03  0.14195333281E+03  0.12700000000E+01 0. -1.
          4   -1    0    0  501    0  0.00000000000E+00 -0.00000000000E+00 -0.27497813180E+02  0.27527125343E+02  0.12700000000E+01 0. -1.
         25    2    1    2    0    0  0.00000000000E+00  0.00000000000E+00  0.11444983843E+03  0.16948045816E+03  0.12499944072E+03 0.  0.
    9000005    1    3    3    0    0 -0.25670964149E+02  0.28293406086E+02 -0.98272967310E+01  0.39459992262E+02  0.10000000000E+01 0.  0.
    9000005    1    3    3    0    0  0.25670964149E+02 -0.28293406086E+02  0.12427713516E+03  0.13002046589E+03  0.10000000000E+01 0.  0.
<mgrwt>
<rscale>  0 0.12499944E+03</rscale>
<asrwt>0</asrwt>
<pdfrwt beam="2">  1        4 0.68788276E-02 0.12499944E+03</pdfrwt>
<pdfrwt beam="1">  1       -4 0.35491286E-01 0.12499944E+03</pdfrwt>
<totfact> 0.17620735E+03</totfact>
</mgrwt>
</event>
<event>
 5    1  0.1448308E-002  0.1250022E+03  0.7818608E-02  0.1235066E+00
         -4   -1    0    0    0  501 -0.00000000000E+00  0.00000000000E+00  0.63812794710E+03  0.63812921087E+03  0.12700000000E+01 0. -1.
          4   -1    0    0  501    0  0.00000000000E+00 -0.00000000000E+00 -0.60544889369E+01  0.61862538169E+01  0.12700000000E+01 0. -1.
         25    2    1    2    0    0  0.00000000000E+00  0.00000000000E+00  0.63207345816E+03  0.64431546469E+03  0.12500224608E+03 0.  0.
    9000005    1    3    3    0    0 -0.11649940723E+01 -0.45509899241E+02  0.95364328075E+02  0.10567811131E+03  0.10000000000E+01 0.  0.
    9000005    1    3    3    0    0  0.11649940723E+01  0.45509899241E+02  0.53670913009E+03  0.53863735338E+03  0.10000000000E+01 0.  0.
<mgrwt>
<rscale>  0 0.12500225E+03</rscale>
<asrwt>0</asrwt>
<pdfrwt beam="2">  1        4 0.15302505E-02 0.12500225E+03</pdfrwt>
<pdfrwt beam="1">  1       -4 0.15954865E+00 0.12500225E+03</pdfrwt>
<totfact> 0.68161661E+02</totfact>
</mgrwt>
</event>
<event>
 5    1  0.1448308E-002  0.1249992E+03  0.7818608E-02  0.1235070E+00
          4   -1    0    0  501    0  0.00000000000E+00  0.00000000000E+00  0.38823572404E+01  0.40848008204E+01  0.12700000000E+01 0. -1.
         -4   -1    0    0    0  501 -0.00000000000E+00 -0.00000000000E+00 -0.98037295205E+03  0.98037377465E+03  0.12700000000E+01 0. -1.
         25    2    1    2    0    0  0.00000000000E+00  0.00000000000E+00 -0.97649059481E+03  0.98445857547E+03  0.12499922022E+03 0.  0.
    9000005    1    3    3    0    0  0.37011338910E+02  0.40998432789E+02 -0.25802491102E+03  0.26387225206E+03  0.10000000000E+01 0.  0.
    9000005    1    3    3    0    0 -0.37011338910E+02 -0.40998432789E+02 -0.71846568379E+03  0.72058632341E+03  0.10000000000E+01 0.  0.
<mgrwt>
<rscale>  0 0.12499922E+03</rscale>
<asrwt>0</asrwt>
<pdfrwt beam="1">  1        4 0.99600094E-03 0.12499922E+03</pdfrwt>
<pdfrwt beam="2">  1       -4 0.24511782E+00 0.12499922E+03</pdfrwt>
<totfact> 0.38165351E+02</totfact>
</mgrwt>
</event>
<event>
 5    1  0.1448308E-002  0.1250000E+03  0.7818608E-02  0.1235069E+00
         -4   -1    0    0    0  501 -0.00000000000E+00  0.00000000000E+00  0.21570837888E+03  0.21571211746E+03  0.12700000000E+01 0.  1.
          4   -1    0    0  501    0  0.00000000000E+00 -0.00000000000E+00 -0.18082774947E+02  0.18127317777E+02  0.12700000000E+01 0.  1.
         25    2    1    2    0    0  0.00000000000E+00  0.00000000000E+00  0.19762560394E+03  0.23383943524E+03  0.12500000857E+03 0.  0.
    9000005    1    3    3    0    0  0.56692667661E+02 -0.12433106039E+02  0.55477978859E+02  0.80295995109E+02  0.10000000000E+01 0.  0.
    9000005    1    3    3    0    0 -0.56692667661E+02  0.12433106039E+02  0.14214762508E+03  0.15354344013E+03  0.10000000000E+01 0.  0.
<mgrwt>
<rscale>  0 0.12500001E+03</rscale>
<asrwt>0</asrwt>
<pdfrwt beam="2">  1        4 0.45267289E-02 0.12500001E+03</pdfrwt>
<pdfrwt beam="1">  1       -4 0.53933130E-01 0.12500001E+03</pdfrwt>
<totfact> 0.15051081E+03</totfact>
</mgrwt>
</event>
<event>
 5    1  0.1448308E-002  0.1250106E+03  0.7818608E-02  0.1235053E+00
         -4   -1    0    0    0  501 -0.00000000000E+00  0.00000000000E+00  0.91668629124E+03  0.91668717098E+03  0.12700000000E+01 0.  1.
          4   -1    0    0  501    0  0.00000000000E+00 -0.00000000000E+00 -0.41664815250E+01  0.43557396959E+01  0.12700000000E+01 0.  1.
         25    2    1    2    0    0  0.00000000000E+00  0.00000000000E+00  0.91251980971E+03  0.92104291068E+03  0.12501056032E+03 0.  0.
    9000005    1    3    3    0    0  0.34855304103E+01 -0.28764500121E+02  0.86424571901E+03  0.86473187071E+03  0.10000000000E+01 0.  0.
    9000005    1    3    3    0    0 -0.34855304103E+01  0.28764500121E+02  0.48274090704E+02  0.56311039972E+02  0.10000000000E+01 0.  0.
<mgrwt>
<rscale>  0 0.12501056E+03</rscale>
<asrwt>0</asrwt>
<pdfrwt beam="2">  1        4 0.10653872E-02 0.12501056E+03</pdfrwt>
<pdfrwt beam="1">  1       -4 0.22919542E+00 0.12501056E+03</pdfrwt>
<totfact> 0.42680850E+02</totfact>
</mgrwt>
</event>
<event>
 5    1  0.1448308E-002  0.1250046E+03  0.7818608E-02  0.1235062E+00
         -4   -1    0    0    0  501 -0.00000000000E+00  0.00000000000E+00  0.29636883901E+03  0.29637156010E+03  0.12700000000E+01 0.  1.
          4   -1    0    0  501    0  0.00000000000E+00 -0.00000000000E+00 -0.13147956321E+02  0.13209150443E+02  0.12700000000E+01 0.  1.
         25    2    1    2    0    0  0.00000000000E+00  0.00000000000E+00  0.28322088269E+03  0.30958071055E+03  0.12500459171E+03 0.  0.
    9000005    1    3    3    0    0 -0.24611028616E+02 -0.32984598171E+01 -0.41850140011E+00  0.24854732147E+02  0.10000000000E+01 0.  0.
    9000005    1    3    3    0    0  0.24611028616E+02  0.32984598171E+01  0.28363938409E+03  0.28472597840E+03  0.10000000000E+01 0.  0.
<mgrwt>
<rscale>  0 0.12500459E+03</rscale>
<asrwt>0</asrwt>
<pdfrwt beam="2">  1        4 0.32949785E-02 0.12500459E+03</pdfrwt>
<pdfrwt beam="1">  1       -4 0.74100199E-01 0.12500459E+03</pdfrwt>
<totfact> 0.12705388E+03</totfact>
</mgrwt>
</event>
<event>
 5    1  0.1448308E-002  0.1250017E+03  0.7818608E-02  0.1235067E+00
          4   -1    0    0  501    0  0.00000000000E+00  0.00000000000E+00  0.40659477684E+03  0.40659676026E+03  0.12700000000E+01 0. -1.
         -4   -1    0    0    0  501 -0.00000000000E+00 -0.00000000000E+00 -0.95635114560E+01  0.96474686508E+01  0.12700000000E+01 0. -1.
         25    2    1    2    0    0  0.00000000000E+00  0.00000000000E+00  0.39703126539E+03  0.41624422891E+03  0.12500172962E+03 0.  0.
    9000005    1    3    3    0    0 -0.22156297006E+02 -0.38009352720E+02  0.34630299048E+03  0.34908791673E+03  0.10000000000E+01 0.  0.
    9000005    1    3    3    0    0  0.22156297006E+02  0.38009352720E+02  0.50728274911E+02  0.67156312188E+02  0.10000000000E+01 0.  0.
<mgrwt>
<rscale>  0 0.12500173E+03</rscale>
<asrwt>0</asrwt>
<pdfrwt beam="1">  1        4 0.10165944E+00 0.12500173E+03</pdfrwt>
<pdfrwt beam="2">  1       -4 0.24016204E-02 0.12500173E+03</pdfrwt>
<totfact> 0.10240101E+03</totfact>
</mgrwt>
</event>
<event>
 4    1  0.1448308E-002  0.1248837E+03  0.7818608E-02  0.1235251E+00
          4   -1    0    0  501    0  0.00000000000E+00  0.00000000000E+00  0.28092068396E+02  0.28120761134E+02  0.12700000000E+01 0.  1.
         -4   -1    0    0    0  501 -0.00000000000E+00 -0.00000000000E+00 -0.13869058741E+03  0.13869640203E+03  0.12700000000E+01 0.  1.
    9000005    1    1    2    0    0  0.12098013507E+02  0.13390920201E+02 -0.13513719381E+03  0.13634052892E+03  0.10000000000E+01 0.  0.
    9000005    1    1    2    0    0 -0.12098013507E+02 -0.13390920201E+02  0.24538674792E+02  0.30476634250E+02  0.10000000000E+01 0.  0.
<mgrwt>
<rscale>  0 0.12488368E+03</rscale>
<asrwt>0</asrwt>
<pdfrwt beam="1">  1        4 0.70273309E-02 0.12488368E+03</pdfrwt>
<pdfrwt beam="2">  1       -4 0.34676958E-01 0.12488368E+03</pdfrwt>
<totfact> 0.17789578E+03</totfact>
</mgrwt>
</event>
<event>
 5    1  0.1448308E-002  0.1250009E+03  0.7818608E-02  0.1235068E+00
         -4   -1    0    0    0  501 -0.00000000000E+00  0.00000000000E+00  0.28436032829E+03  0.28436316429E+03  0.12700000000E+01 0. -1.
          4   -1    0    0  501    0  0.00000000000E+00 -0.00000000000E+00 -0.13704904107E+02  0.13763622218E+02  0.12700000000E+01 0. -1.
         25    2    1    2    0    0  0.00000000000E+00  0.00000000000E+00  0.27065542418E+03  0.29812678651E+03  0.12500088877E+03 0.  0.
    9000005    1    3    3    0    0 -0.25002289752E+02  0.10743634178E+02  0.11567118183E+01  0.27255791135E+02  0.10000000000E+01 0.  0.
    9000005    1    3    3    0    0  0.25002289752E+02 -0.10743634178E+02  0.26949871237E+03  0.27087099537E+03  0.10000000000E+01 0.  0.
<mgrwt>
<rscale>  0 0.12500089E+03</rscale>
<asrwt>0</asrwt>
<pdfrwt beam="2">  1        4 0.34339204E-02 0.12500089E+03</pdfrwt>
<pdfrwt beam="1">  1       -4 0.71097774E-01 0.12500089E+03</pdfrwt>
<totfact> 0.13023454E+03</totfact>
</mgrwt>
</event>
<event>
 5    1  0.1448308E-002  0.1249970E+03  0.7818608E-02  0.1235074E+00
          4   -1    0    0  501    0  0.00000000000E+00  0.00000000000E+00  0.15171982444E+02  0.15225043556E+02  0.12700000000E+01 0.  1.
         -4   -1    0    0    0  501 -0.00000000000E+00 -0.00000000000E+00 -0.25694812061E+03  0.25695125916E+03  0.12700000000E+01 0.  1.
         25    2    1    2    0    0  0.00000000000E+00  0.00000000000E+00 -0.24177613817E+03  0.27217630272E+03  0.12499695506E+03 0.  0.
    9000005    1    3    3    0    0  0.46947543259E+02 -0.10996344564E+02 -0.20744240013E+03  0.21297497690E+03  0.10000000000E+01 0.  0.
    9000005    1    3    3    0    0 -0.46947543259E+02  0.10996344564E+02 -0.34333738038E+02  0.59201325825E+02  0.10000000000E+01 0.  0.
<mgrwt>
<rscale>  0 0.12499696E+03</rscale>
<asrwt>0</asrwt>
<pdfrwt beam="1">  1        4 0.38000214E-02 0.12499696E+03</pdfrwt>
<pdfrwt beam="2">  1       -4 0.64244041E-01 0.12499696E+03</pdfrwt>
<totfact> 0.13789298E+03</totfact>
</mgrwt>
</event>
<event>
 5    1  0.1448308E-002  0.1249929E+03  0.7818608E-02  0.1235080E+00
          4   -1    0    0  501    0  0.00000000000E+00  0.00000000000E+00  0.12425769097E+02  0.12490501898E+02  0.12700000000E+01 0.  1.
         -4   -1    0    0    0  501 -0.00000000000E+00 -0.00000000000E+00 -0.31344857042E+03  0.31345114324E+03  0.12700000000E+01 0.  1.
         25    2    1    2    0    0  0.00000000000E+00  0.00000000000E+00 -0.30102280132E+03  0.32594164514E+03  0.12499291628E+03 0.  0.
    9000005    1    3    3    0    0  0.14837073378E+02 -0.32523194295E+02 -0.28416389842E+03  0.28640533878E+03  0.10000000000E+01 0.  0.
    9000005    1    3    3    0    0 -0.14837073378E+02  0.32523194295E+02 -0.16858902901E+02  0.39536306360E+02  0.10000000000E+01 0.  0.
<mgrwt>
<rscale>  0 0.12499292E+03</rscale>
<asrwt>0</asrwt>
<pdfrwt beam="1">  1        4 0.31148565E-02 0.12499292E+03</pdfrwt>
<pdfrwt beam="2">  1       -4 0.78370530E-01 0.12499292E+03</pdfrwt>
<totfact> 0.12275915E+03</totfact>
</mgrwt>
</event>
<event>
 5    1  0.1448308E-002  0.1249974E+03  0.7818608E-02  0.1235073E+00
         -4   -1    0    0    0  501 -0.00000000000E+00  0.00000000000E+00  0.20662540392E+02  0.20701533167E+02  0.12700000000E+01 0.  1.
          4   -1    0    0  501    0  0.00000000000E+00 -0.00000000000E+00 -0.18882275564E+03  0.18882702653E+03  0.12700000000E+01 0.  1.
         25    2    1    2    0    0  0.00000000000E+00  0.00000000000E+00 -0.16816021525E+03  0.20952855970E+03  0.12499743732E+03 0.  0.
    9000005    1    3    3    0    0 -0.93014674446E+01 -0.41008699561E+02 -0.65928909346E+01  0.42575778879E+02  0.10000000000E+01 0.  0.
    9000005    1    3    3    0    0  0.93014674446E+01  0.41008699561E+02 -0.16156732431E+03  0.16695278082E+03  0.10000000000E+01 0.  0.
<mgrwt>
<rscale>  0 0.12499744E+03</rscale>
<asrwt>0</asrwt>
<pdfrwt beam="2">  1        4 0.47211092E-01 0.12499744E+03</pdfrwt>
<pdfrwt beam="1">  1       -4 0.51710436E-02 0.12499744E+03</pdfrwt>
<totfact> 0.15948427E+03</totfact>
</mgrwt>
</event>
<event>
 5    1  0.1448308E-002  0.1250032E+03  0.7818608E-02  0.1235064E+00
          4   -1    0    0  501    0  0.00000000000E+00  0.00000000000E+00  0.66096410321E+03  0.66096532332E+03  0.12700000000E+01 0. -1.
         -4   -1    0    0    0  501 -0.00000000000E+00 -0.00000000000E+00 -0.58407617293E+01  0.59772399632E+01  0.12700000000E+01 0. -1.
         25    2    1    2    0    0  0.00000000000E+00  0.00000000000E+00  0.65512334148E+03  0.66694256328E+03  0.12500316063E+03 0.  0.
    9000005    1    3    3    0    0  0.56737674426E+02 -0.25993921144E+02  0.34493241579E+03  0.35053419105E+03  0.10000000000E+01 0.  0.
    9000005    1    3    3    0    0 -0.56737674426E+02  0.25993921144E+02  0.31019092569E+03  0.31640837223E+03  0.10000000000E+01 0.  0.
<mgrwt>
<rscale>  0 0.12500316E+03</rscale>
<asrwt>0</asrwt>
<pdfrwt beam="1">  1        4 0.16525824E+00 0.12500316E+03</pdfrwt>
<pdfrwt beam="2">  1       -4 0.14774027E-02 0.12500316E+03</pdfrwt>
<totfact> 0.65600560E+02</totfact>
</mgrwt>
</event>
<event>
 5    1  0.1448308E-002  0.1250019E+03  0.7818608E-02  0.1235066E+00
          4   -1    0    0  501    0  0.00000000000E+00  0.00000000000E+00  0.12967986402E+02  0.13030025761E+02  0.12700000000E+01 0.  1.
         -4   -1    0    0    0  501 -0.00000000000E+00 -0.00000000000E+00 -0.30044962645E+03  0.30045231059E+03  0.12700000000E+01 0.  1.
         25    2    1    2    0    0  0.00000000000E+00  0.00000000000E+00 -0.28748164005E+03  0.31348233635E+03  0.12500192732E+03 0.  0.
    9000005    1    3    3    0    0 -0.44829545522E+02  0.19707201741E+02 -0.46377036808E+02  0.67452883521E+02  0.10000000000E+01 0.  0.
    9000005    1    3    3    0    0  0.44829545522E+02 -0.19707201741E+02 -0.24110460324E+03  0.24602945283E+03  0.10000000000E+01 0.  0.
<mgrwt>
<rscale>  0 0.12500193E+03</rscale>
<asrwt>0</asrwt>
<pdfrwt beam="1">  1        4 0.32500880E-02 0.12500193E+03</pdfrwt>
<pdfrwt beam="2">  1       -4 0.75120474E-01 0.12500193E+03</pdfrwt>
<totfact> 0.12600874E+03</totfact>
</mgrwt>
</event>
<event>
 5    1  0.1448308E-002  0.1250001E+03  0.7818608E-02  0.1235069E+00
         -4   -1    0    0    0  501 -0.00000000000E+00  0.00000000000E+00  0.33722775596E+03  0.33723014736E+03  0.12700000000E+01 0. -1.
          4   -1    0    0  501    0  0.00000000000E+00 -0.00000000000E+00 -0.11546185666E+02  0.11615821255E+02  0.12700000000E+01 0. -1.
         25    2    1    2    0    0  0.00000000000E+00  0.00000000000E+00  0.32568157029E+03  0.34884596861E+03  0.12500009837E+03 0.  0.
    9000005    1    3    3    0    0 -0.50154329213E+02 -0.37276325443E+02  0.16430419631E+03  0.17578922067E+03  0.10000000000E+01 0.  0.
    9000005    1    3    3    0    0  0.50154329213E+02  0.37276325443E+02  0.16137737398E+03  0.17305674795E+03  0.10000000000E+01 0.  0.
<mgrwt>
<rscale>  0 0.12500010E+03</rscale>
<asrwt>0</asrwt>
<pdfrwt beam="2">  1        4 0.28955498E-02 0.12500010E+03</pdfrwt>
<pdfrwt beam="1">  1       -4 0.84315941E-01 0.12500010E+03</pdfrwt>
<totfact> 0.11704868E+03</totfact>
</mgrwt>
</event>
<event>
 5    1  0.1448308E-002  0.1249959E+03  0.7818608E-02  0.1235076E+00
         -4   -1    0    0    0  501 -0.00000000000E+00  0.00000000000E+00  0.79571586691E+02  0.79581720945E+02  0.12700000000E+01 0. -1.
          4   -1    0    0  501    0  0.00000000000E+00 -0.00000000000E+00 -0.49066322088E+02  0.49082755253E+02  0.12700000000E+01 0. -1.
         25    2    1    2    0    0  0.00000000000E+00  0.00000000000E+00  0.30505264603E+02  0.12866447620E+03  0.12499590500E+03 0.  0.
    9000005    1    3    3    0    0  0.49190983757E+02  0.98001252738E+00  0.54909727502E+02  0.73734601659E+02  0.10000000000E+01 0.  0.
    9000005    1    3    3    0    0 -0.49190983757E+02 -0.98001252738E+00 -0.24404462899E+02  0.54929874539E+02  0.10000000000E+01 0.  0.
<mgrwt>
<rscale>  0 0.12499591E+03</rscale>
<asrwt>0</asrwt>
<pdfrwt beam="2">  1        4 0.12269901E-01 0.12499591E+03</pdfrwt>
<pdfrwt beam="1">  1       -4 0.19896218E-01 0.12499591E+03</pdfrwt>
<totfact> 0.19638333E+03</totfact>
</mgrwt>
</event>
<event>
 5    1  0.1448308E-002  0.1249892E+03  0.7818608E-02  0.1235086E+00
          4   -1    0    0  501    0  0.00000000000E+00  0.00000000000E+00  0.69962729209E+01  0.71106072021E+01  0.12700000000E+01 0. -1.
         -4   -1    0    0    0  501 -0.00000000000E+00 -0.00000000000E+00 -0.55359669245E+03  0.55359814919E+03  0.12700000000E+01 0. -1.
         25    2    1    2    0    0  0.00000000000E+00  0.00000000000E+00 -0.54660041953E+03  0.56070875640E+03  0.12498916301E+03 0.  0.
    9000005    1    3    3    0    0 -0.47459108745E+02  0.27439476873E+02 -0.40782819712E+03  0.41149742437E+03  0.10000000000E+01 0.  0.
    9000005    1    3    3    0    0  0.47459108745E+02 -0.27439476873E+02 -0.13877222241E+03  0.14921133203E+03  0.10000000000E+01 0.  0.
<mgrwt>
<rscale>  0 0.12498916E+03</rscale>
<asrwt>0</asrwt>
<pdfrwt beam="1">  1        4 0.17635440E-02 0.12498916E+03</pdfrwt>
<pdfrwt beam="2">  1       -4 0.13841350E+00 0.12498916E+03</pdfrwt>
<totfact> 0.78699099E+02</totfact>
</mgrwt>
</event>
<event>
 5    1  0.1448308E-002  0.1249865E+03  0.7818608E-02  0.1235090E+00
          4   -1    0    0  501    0  0.00000000000E+00  0.00000000000E+00  0.64875594157E+02  0.64888023681E+02  0.12700000000E+01 0. -1.
         -4   -1    0    0    0  501 -0.00000000000E+00 -0.00000000000E+00 -0.60173539082E+02  0.60186939660E+02  0.12700000000E+01 0. -1.
         25    2    1    2    0    0  0.00000000000E+00  0.00000000000E+00  0.47020550744E+01  0.12507496334E+03  0.12498654781E+03 0.  0.
    9000005    1    3    3    0    0  0.19839248439E+02 -0.33723016736E+02  0.51104806525E+02  0.64370326133E+02  0.10000000000E+01 0.  0.
    9000005    1    3    3    0    0 -0.19839248439E+02  0.33723016736E+02 -0.46402751451E+02  0.60704637209E+02  0.10000000000E+01 0.  0.
<mgrwt>
<rscale>  0 0.12498655E+03</rscale>
<asrwt>0</asrwt>
<pdfrwt beam="1">  1        4 0.16222127E-01 0.12498655E+03</pdfrwt>
<pdfrwt beam="2">  1       -4 0.15046614E-01 0.12498655E+03</pdfrwt>
<totfact> 0.19837234E+03</totfact>
</mgrwt>
</event>
<event>
 5    1  0.1448308E-002  0.1250015E+03  0.7818608E-02  0.1235067E+00
         -4   -1    0    0    0  501 -0.00000000000E+00  0.00000000000E+00  0.36557999482E+01  0.38701128228E+01  0.12700000000E+01 0. -1.
          4   -1    0    0  501    0  0.00000000000E+00 -0.00000000000E+00 -0.10378902551E+04  0.10378910321E+04  0.12700000000E+01 0. -1.
         25    2    1    2    0    0  0.00000000000E+00  0.00000000000E+00 -0.10342344551E+04  0.10417611449E+04  0.12500149945E+03 0.  0.
    9000005    1    3    3    0    0 -0.61759246964E+02  0.72914653576E+01 -0.46576087371E+03  0.46989526655E+03  0.10000000000E+01 0.  0.
    9000005    1    3    3    0    0  0.61759246964E+02 -0.72914653576E+01 -0.56847358141E+03  0.57186587834E+03  0.10000000000E+01 0.  0.
<mgrwt>
<rscale>  0 0.12500150E+03</rscale>
<asrwt>0</asrwt>
<pdfrwt beam="2">  1        4 0.25949847E+00 0.12500150E+03</pdfrwt>
<pdfrwt beam="1">  1       -4 0.94083978E-03 0.12500150E+03</pdfrwt>
<totfact> 0.34370557E+02</totfact>
</mgrwt>
</event>
<event>
 5    1  0.1448308E-002  0.1250013E+03  0.7818608E-02  0.1235067E+00
          4   -1    0    0  501    0  0.00000000000E+00  0.00000000000E+00  0.14359146000E+02  0.14415199404E+02  0.12700000000E+01 0.  1.
         -4   -1    0    0    0  501 -0.00000000000E+00 -0.00000000000E+00 -0.27145716717E+03  0.27146013797E+03  0.12700000000E+01 0.  1.
         25    2    1    2    0    0  0.00000000000E+00  0.00000000000E+00 -0.25709802117E+03  0.28587533737E+03  0.12500126412E+03 0.  0.
    9000005    1    3    3    0    0 -0.44486929468E+01  0.33095524028E+02 -0.24935316046E+03  0.25158120599E+03  0.10000000000E+01 0.  0.
    9000005    1    3    3    0    0  0.44486929468E+01 -0.33095524028E+02 -0.77448607096E+01  0.34294131379E+02  0.10000000000E+01 0.  0.
<mgrwt>
<rscale>  0 0.12500126E+03</rscale>
<asrwt>0</asrwt>
<pdfrwt beam="1">  1        4 0.35971654E-02 0.12500126E+03</pdfrwt>
<pdfrwt beam="2">  1       -4 0.67871653E-01 0.12500126E+03</pdfrwt>
<totfact> 0.13375982E+03</totfact>
</mgrwt>
</event>
<event>
 5    1  0.1448308E-002  0.1250182E+03  0.7818608E-02  0.1235041E+00
          4   -1    0    0  501    0  0.00000000000E+00  0.00000000000E+00  0.16254328497E+02  0.16303867483E+02  0.12700000000E+01 0. -1.
         -4   -1    0    0    0  501 -0.00000000000E+00 -0.00000000000E+00 -0.23997353028E+03  0.23997689083E+03  0.12700000000E+01 0. -1.
         25    2    1    2    0    0  0.00000000000E+00  0.00000000000E+00 -0.22371920178E+03  0.25628075831E+03  0.12501818203E+03 0.  0.
    9000005    1    3    3    0    0  0.58150400986E+02 -0.12974292828E+02 -0.73149492546E+02  0.94348554144E+02  0.10000000000E+01 0.  0.
    9000005    1    3    3    0    0 -0.58150400986E+02  0.12974292828E+02 -0.15056970923E+03  0.16193220417E+03  0.10000000000E+01 0.  0.
<mgrwt>
<rscale>  0 0.12501818E+03</rscale>
<asrwt>0</asrwt>
<pdfrwt beam="1">  1        4 0.40701953E-02 0.12501818E+03</pdfrwt>
<pdfrwt beam="2">  1       -4 0.59999984E-01 0.12501818E+03</pdfrwt>
<totfact> 0.14285393E+03</totfact>
</mgrwt>
</event>
<event>
 5    1  0.1448308E-002  0.1250003E+03  0.7818608E-02  0.1235069E+00
          4   -1    0    0  501    0  0.00000000000E+00  0.00000000000E+00  0.17029428916E+03  0.17029902472E+03  0.12700000000E+01 0. -1.
         -4   -1    0    0    0  501 -0.00000000000E+00 -0.00000000000E+00 -0.22915689148E+02  0.22950854213E+02  0.12700000000E+01 0. -1.
         25    2    1    2    0    0  0.00000000000E+00  0.00000000000E+00  0.14737860001E+03  0.19324987893E+03  0.12500025587E+03 0.  0.
    9000005    1    3    3    0    0  0.45303252772E+02  0.11275749558E+02  0.94655213217E+01  0.47645811292E+02  0.10000000000E+01 0.  0.
    9000005    1    3    3    0    0 -0.45303252772E+02 -0.11275749558E+02  0.13791307869E+03  0.14560406764E+03  0.10000000000E+01 0.  0.
<mgrwt>
<rscale>  0 0.12500026E+03</rscale>
<asrwt>0</asrwt>
<pdfrwt beam="1">  1        4 0.42578559E-01 0.12500026E+03</pdfrwt>
<pdfrwt beam="2">  1       -4 0.57339099E-02 0.12500026E+03</pdfrwt>
<totfact> 0.16595845E+03</totfact>
</mgrwt>
</event>
<event>
 5    1  0.1448308E-002  0.1250017E+03  0.7818608E-02  0.1235067E+00
         -4   -1    0    0    0  501 -0.00000000000E+00  0.00000000000E+00  0.50400104229E+02  0.50416102649E+02  0.12700000000E+01 0. -1.
          4   -1    0    0  501    0  0.00000000000E+00 -0.00000000000E+00 -0.77473440362E+02  0.77483849036E+02  0.12700000000E+01 0. -1.
         25    2    1    2    0    0  0.00000000000E+00  0.00000000000E+00 -0.27073336132E+02  0.12789995169E+03  0.12500172844E+03 0.  0.
    9000005    1    3    3    0    0 -0.47694009962E+01 -0.61856634421E+02 -0.21218578018E+02  0.65576050970E+02  0.10000000000E+01 0.  0.
    9000005    1    3    3    0    0  0.47694009962E+01  0.61856634421E+02 -0.58547581144E+01  0.62323900715E+02  0.10000000000E+01 0.  0.
<mgrwt>
<rscale>  0 0.12500173E+03</rscale>
<asrwt>0</asrwt>
<pdfrwt beam="2">  1        4 0.19371661E-01 0.12500173E+03</pdfrwt>
<pdfrwt beam="1">  1       -4 0.12603327E-01 0.12500173E+03</pdfrwt>
<totfact> 0.19677186E+03</totfact>
</mgrwt>
</event>
<event>
 5    1  0.1448308E-002  0.1249993E+03  0.7818608E-02  0.1235070E+00
          4   -1    0    0  501    0  0.00000000000E+00  0.00000000000E+00  0.26321520556E+02  0.26352141173E+02  0.12700000000E+01 0. -1.
         -4   -1    0    0    0  501 -0.00000000000E+00 -0.00000000000E+00 -0.14828397654E+03  0.14828941499E+03  0.12700000000E+01 0. -1.
         25    2    1    2    0    0  0.00000000000E+00  0.00000000000E+00 -0.12196245598E+03  0.17464155616E+03  0.12499932988E+03 0.  0.
    9000005    1    3    3    0    0 -0.47731705449E+02 -0.12076597885E+02 -0.11474930489E+03  0.12487018417E+03  0.10000000000E+01 0.  0.
    9000005    1    3    3    0    0  0.47731705449E+02  0.12076597885E+02 -0.72131510932E+01  0.49771371995E+02  0.10000000000E+01 0.  0.
<mgrwt>
<rscale>  0 0.12499933E+03</rscale>
<asrwt>0</asrwt>
<pdfrwt beam="1">  1        4 0.65848879E-02 0.12499933E+03</pdfrwt>
<pdfrwt beam="2">  1       -4 0.37075499E-01 0.12499933E+03</pdfrwt>
<totfact> 0.17389973E+03</totfact>
</mgrwt>
</event>
<event>
 5    1  0.1448308E-002  0.1250009E+03  0.7818608E-02  0.1235068E+00
          4   -1    0    0  501    0  0.00000000000E+00  0.00000000000E+00  0.10285792262E+02  0.10363899963E+02  0.12700000000E+01 0.  1.
         -4   -1    0    0    0  501 -0.00000000000E+00 -0.00000000000E+00 -0.37826144529E+03  0.37826357728E+03  0.12700000000E+01 0.  1.
         25    2    1    2    0    0  0.00000000000E+00  0.00000000000E+00 -0.36797565303E+03  0.38862747724E+03  0.12500093937E+03 0.  0.
    9000005    1    3    3    0    0  0.23699895075E+02 -0.57137754611E+02 -0.21160381583E+03  0.22046220289E+03  0.10000000000E+01 0.  0.
    9000005    1    3    3    0    0 -0.23699895075E+02  0.57137754611E+02 -0.15637183720E+03  0.16816527435E+03  0.10000000000E+01 0.  0.
<mgrwt>
<rscale>  0 0.12500094E+03</rscale>
<asrwt>0</asrwt>
<pdfrwt beam="1">  1        4 0.25814793E-02 0.12500094E+03</pdfrwt>
<pdfrwt beam="2">  1       -4 0.94575345E-01 0.12500094E+03</pdfrwt>
<totfact> 0.10807038E+03</totfact>
</mgrwt>
</event>
<event>
 5    1  0.1448308E-002  0.1250034E+03  0.7818608E-02  0.1235064E+00
          4   -1    0    0  501    0  0.00000000000E+00  0.00000000000E+00  0.42291772497E+02  0.42310836921E+02  0.12700000000E+01 0.  1.
         -4   -1    0    0    0  501 -0.00000000000E+00 -0.00000000000E+00 -0.92325050910E+02  0.92333785396E+02  0.12700000000E+01 0.  1.
         25    2    1    2    0    0  0.00000000000E+00  0.00000000000E+00 -0.50033278413E+02  0.13464462232E+03  0.12500338143E+03 0.  0.
    9000005    1    3    3    0    0 -0.31127373418E+02  0.48482055414E+01 -0.83152042458E+02  0.88925140640E+02  0.10000000000E+01 0.  0.
    9000005    1    3    3    0    0  0.31127373418E+02 -0.48482055414E+01  0.33118764045E+02  0.45719481677E+02  0.10000000000E+01 0.  0.
<mgrwt>
<rscale>  0 0.12500338E+03</rscale>
<asrwt>0</asrwt>
<pdfrwt beam="1">  1        4 0.10576418E-01 0.12500338E+03</pdfrwt>
<pdfrwt beam="2">  1       -4 0.23084737E-01 0.12500338E+03</pdfrwt>
<totfact> 0.19316243E+03</totfact>
</mgrwt>
</event>
<event>
 5    1  0.1448308E-002  0.1249994E+03  0.7818608E-02  0.1235070E+00
         -4   -1    0    0    0  501 -0.00000000000E+00  0.00000000000E+00  0.15512503738E+03  0.15513023600E+03  0.12700000000E+01 0.  1.
          4   -1    0    0  501    0  0.00000000000E+00 -0.00000000000E+00 -0.25159423519E+02  0.25191456723E+02  0.12700000000E+01 0.  1.
         25    2    1    2    0    0  0.00000000000E+00  0.00000000000E+00  0.12996561386E+03  0.18032169273E+03  0.12499940832E+03 0.  0.
    9000005    1    3    3    0    0 -0.73432265126E+00 -0.42727904859E+02 -0.79316230603E+00  0.42753271101E+02  0.10000000000E+01 0.  0.
    9000005    1    3    3    0    0  0.73432265126E+00  0.42727904859E+02  0.13075877617E+03  0.13756842163E+03  0.10000000000E+01 0.  0.
<mgrwt>
<rscale>  0 0.12499941E+03</rscale>
<asrwt>0</asrwt>
<pdfrwt beam="2">  1        4 0.62945099E-02 0.12499941E+03</pdfrwt>
<pdfrwt beam="1">  1       -4 0.38785913E-01 0.12499941E+03</pdfrwt>
<totfact> 0.17141534E+03</totfact>
</mgrwt>
</event>
<event>
 5    1  0.1448308E-002  0.1249957E+03  0.7818608E-02  0.1235076E+00
          4   -1    0    0  501    0  0.00000000000E+00  0.00000000000E+00  0.83345079950E+02  0.83354755425E+02  0.12700000000E+01 0.  1.
         -4   -1    0    0    0  501 -0.00000000000E+00 -0.00000000000E+00 -0.46844196739E+02  0.46861409156E+02  0.12700000000E+01 0.  1.
         25    2    1    2    0    0  0.00000000000E+00  0.00000000000E+00  0.36500883211E+02  0.13021616458E+03  0.12499574010E+03 0.  0.
    9000005    1    3    3    0    0  0.48399128331E+02 -0.37808089133E+02  0.30267212729E+02  0.68476502492E+02  0.10000000000E+01 0.  0.
    9000005    1    3    3    0    0 -0.48399128331E+02  0.37808089133E+02  0.62336704827E+01  0.61739662089E+02  0.10000000000E+01 0.  0.
<mgrwt>
<rscale>  0 0.12499574E+03</rscale>
<asrwt>0</asrwt>
<pdfrwt beam="1">  1        4 0.20839631E-01 0.12499574E+03</pdfrwt>
<pdfrwt beam="2">  1       -4 0.11714410E-01 0.12499574E+03</pdfrwt>
<totfact> 0.19554713E+03</totfact>
</mgrwt>
</event>
<event>
 5    1  0.1448308E-002  0.1250000E+03  0.7818608E-02  0.1235069E+00
         -4   -1    0    0    0  501 -0.00000000000E+00  0.00000000000E+00  0.29272500443E+03  0.29272775939E+03  0.12700000000E+01 0. -1.
          4   -1    0    0  501    0  0.00000000000E+00 -0.00000000000E+00 -0.13311398015E+02  0.13371844193E+02  0.12700000000E+01 0. -1.
         25    2    1    2    0    0  0.00000000000E+00  0.00000000000E+00  0.27941360641E+03  0.30609960358E+03  0.12500001546E+03 0.  0.
    9000005    1    3    3    0    0  0.59425941970E+02  0.18915735942E+02  0.12991060060E+03  0.14410763961E+03  0.10000000000E+01 0.  0.
    9000005    1    3    3    0    0 -0.59425941970E+02 -0.18915735942E+02  0.14950300581E+03  0.16199196397E+03  0.10000000000E+01 0.  0.
<mgrwt>
<rscale>  0 0.12500002E+03</rscale>
<asrwt>0</asrwt>
<pdfrwt beam="2">  1        4 0.33357494E-02 0.12500002E+03</pdfrwt>
<pdfrwt beam="1">  1       -4 0.73189157E-01 0.12500002E+03</pdfrwt>
<totfact> 0.12801804E+03</totfact>
</mgrwt>
</event>
<event>
 5    1  0.1448308E-002  0.1250025E+03  0.7818608E-02  0.1235065E+00
         -4   -1    0    0    0  501 -0.00000000000E+00  0.00000000000E+00  0.41438093799E+02  0.41457550793E+02  0.12700000000E+01 0.  1.
          4   -1    0    0  501    0  0.00000000000E+00 -0.00000000000E+00 -0.94225042805E+02  0.94233601181E+02  0.12700000000E+01 0.  1.
         25    2    1    2    0    0  0.00000000000E+00  0.00000000000E+00 -0.52786949005E+02  0.13569115197E+03  0.12500250693E+03 0.  0.
    9000005    1    3    3    0    0 -0.85821516633E+01  0.13013834011E+02  0.39298952600E+02  0.42289725446E+02  0.10000000000E+01 0.  0.
    9000005    1    3    3    0    0  0.85821516633E+01 -0.13013834011E+02 -0.92085901606E+02  0.93401426527E+02  0.10000000000E+01 0.  0.
<mgrwt>
<rscale>  0 0.12500251E+03</rscale>
<asrwt>0</asrwt>
<pdfrwt beam="2">  1        4 0.23559762E-01 0.12500251E+03</pdfrwt>
<pdfrwt beam="1">  1       -4 0.10363026E-01 0.12500251E+03</pdfrwt>
<totfact> 0.19261870E+03</totfact>
</mgrwt>
</event>
<event>
 5    1  0.1448308E-002  0.1250033E+03  0.7818608E-02  0.1235064E+00
          4   -1    0    0  501    0  0.00000000000E+00  0.00000000000E+00  0.72717568977E+01  0.73818255451E+01  0.12700000000E+01 0. -1.
         -4   -1    0    0    0  501 -0.00000000000E+00 -0.00000000000E+00 -0.53306360369E+03  0.53306511654E+03  0.12700000000E+01 0. -1.
         25    2    1    2    0    0  0.00000000000E+00  0.00000000000E+00 -0.52579184679E+03  0.54044694209E+03  0.12500332421E+03 0.  0.
    9000005    1    3    3    0    0 -0.12962975509E+00  0.23842088122E+02 -0.13143718324E+02  0.27243702048E+02  0.10000000000E+01 0.  0.
    9000005    1    3    3    0    0  0.12962975509E+00 -0.23842088122E+02 -0.51264812846E+03  0.51320324004E+03  0.10000000000E+01 0.  0.
<mgrwt>
<rscale>  0 0.12500332E+03</rscale>
<asrwt>0</asrwt>
<pdfrwt beam="1">  1        4 0.18318887E-02 0.12500332E+03</pdfrwt>
<pdfrwt beam="2">  1       -4 0.13327972E+00 0.12500332E+03</pdfrwt>
<totfact> 0.81507619E+02</totfact>
</mgrwt>
</event>
<event>
 5    1  0.1448308E-002  0.1250003E+03  0.7818608E-02  0.1235069E+00
          4   -1    0    0  501    0  0.00000000000E+00  0.00000000000E+00  0.39688466948E+03  0.39688670142E+03  0.12700000000E+01 0. -1.
         -4   -1    0    0    0  501 -0.00000000000E+00 -0.00000000000E+00 -0.97992918839E+01  0.98812459450E+01  0.12700000000E+01 0. -1.
         25    2    1    2    0    0  0.00000000000E+00  0.00000000000E+00  0.38708537759E+03  0.40676794737E+03  0.12500029384E+03 0.  0.
    9000005    1    3    3    0    0 -0.23799671779E+02 -0.45161974228E+02  0.76247447387E+02  0.91764380486E+02  0.10000000000E+01 0.  0.
    9000005    1    3    3    0    0  0.23799671779E+02  0.45161974228E+02  0.31083793021E+03  0.31500356688E+03  0.10000000000E+01 0.  0.
<mgrwt>
<rscale>  0 0.12500029E+03</rscale>
<asrwt>0</asrwt>
<pdfrwt beam="1">  1        4 0.99231654E-01 0.12500029E+03</pdfrwt>
<pdfrwt beam="2">  1       -4 0.24603215E-02 0.12500029E+03</pdfrwt>
<totfact> 0.10431037E+03</totfact>
</mgrwt>
</event>
<event>
 5    1  0.1448308E-002  0.1249644E+03  0.7818608E-02  0.1235125E+00
          4   -1    0    0  501    0  0.00000000000E+00  0.00000000000E+00  0.12834527880E+02  0.12897209229E+02  0.12700000000E+01 0.  1.
         -4   -1    0    0    0  501 -0.00000000000E+00 -0.00000000000E+00 -0.30337651911E+03  0.30337917735E+03  0.12700000000E+01 0.  1.
         25    2    1    2    0    0  0.00000000000E+00  0.00000000000E+00 -0.29054199123E+03  0.31627638658E+03  0.12496441108E+03 0.  0.
    9000005    1    3    3    0    0 -0.42475308076E+02  0.45603296439E+02 -0.15636490013E+03  0.16832942237E+03  0.10000000000E+01 0.  0.
    9000005    1    3    3    0    0  0.42475308076E+02 -0.45603296439E+02 -0.13417709110E+03  0.14794696421E+03  0.10000000000E+01 0.  0.
<mgrwt>
<rscale>  0 0.12496441E+03</rscale>
<asrwt>0</asrwt>
<pdfrwt beam="1">  1        4 0.32168004E-02 0.12496441E+03</pdfrwt>
<pdfrwt beam="2">  1       -4 0.75852274E-01 0.12496441E+03</pdfrwt>
<totfact> 0.12537046E+03</totfact>
</mgrwt>
</event>
<event>
 5    1  0.1448308E-002  0.1250019E+03  0.7818608E-02  0.1235066E+00
         -4   -1    0    0    0  501 -0.00000000000E+00  0.00000000000E+00  0.16444810488E+02  0.16493777372E+02  0.12700000000E+01 0.  1.
          4   -1    0    0  501    0  0.00000000000E+00 -0.00000000000E+00 -0.23714044224E+03  0.23714384294E+03  0.12700000000E+01 0.  1.
         25    2    1    2    0    0  0.00000000000E+00  0.00000000000E+00 -0.22069563175E+03  0.25363762031E+03  0.12500192224E+03 0.  0.
    9000005    1    3    3    0    0 -0.12135038988E+02 -0.27272955736E+02  0.10534147973E+01  0.29886166842E+02  0.10000000000E+01 0.  0.
    9000005    1    3    3    0    0  0.12135038988E+02  0.27272955736E+02 -0.22174904654E+03  0.22375145347E+03  0.10000000000E+01 0.  0.
<mgrwt>
<rscale>  0 0.12500192E+03</rscale>
<asrwt>0</asrwt>
<pdfrwt beam="2">  1        4 0.59291646E-01 0.12500192E+03</pdfrwt>
<pdfrwt beam="1">  1       -4 0.41177493E-02 0.12500192E+03</pdfrwt>
<totfact> 0.14377123E+03</totfact>
</mgrwt>
</event>
<event>
 5    1  0.1448308E-002  0.1249992E+03  0.7818608E-02  0.1235071E+00
         -4   -1    0    0    0  501 -0.00000000000E+00  0.00000000000E+00  0.96586286410E+01  0.97417661245E+01  0.12700000000E+01 0.  1.
          4   -1    0    0  501    0  0.00000000000E+00 -0.00000000000E+00 -0.40260867241E+03  0.40261067546E+03  0.12700000000E+01 0.  1.
         25    2    1    2    0    0  0.00000000000E+00  0.00000000000E+00 -0.39295004376E+03  0.41235244159E+03  0.12499919675E+03 0.  0.
    9000005    1    3    3    0    0  0.47248131000E+02  0.38961406492E+02 -0.15542827983E+03  0.16706084894E+03  0.10000000000E+01 0.  0.
    9000005    1    3    3    0    0 -0.47248131000E+02 -0.38961406492E+02 -0.23752176394E+03  0.24529159264E+03  0.10000000000E+01 0.  0.
<mgrwt>
<rscale>  0 0.12499920E+03</rscale>
<asrwt>0</asrwt>
<pdfrwt beam="2">  1        4 0.10066275E+00 0.12499920E+03</pdfrwt>
<pdfrwt beam="1">  1       -4 0.24253011E-02 0.12499920E+03</pdfrwt>
<totfact> 0.10318652E+03</totfact>
</mgrwt>
</event>
<event>
 5    1  0.1448308E-002  0.1250117E+03  0.7818608E-02  0.1235051E+00
          4   -1    0    0  501    0  0.00000000000E+00  0.00000000000E+00  0.88334649976E+03  0.88334741270E+03  0.12700000000E+01 0. -1.
         -4   -1    0    0    0  501 -0.00000000000E+00 -0.00000000000E+00 -0.43308315446E+01  0.45132030608E+01  0.12700000000E+01 0. -1.
         25    2    1    2    0    0  0.00000000000E+00  0.00000000000E+00  0.87901566821E+03  0.88786061576E+03  0.12501171171E+03 0.  0.
    9000005    1    3    3    0    0  0.35902939238E+02 -0.14323643977E+02  0.90717683420E+02  0.98614836145E+02  0.10000000000E+01 0.  0.
    9000005    1    3    3    0    0 -0.35902939238E+02  0.14323643977E+02  0.78829798479E+03  0.78924577962E+03  0.10000000000E+01 0.  0.
<mgrwt>
<rscale>  0 0.12501171E+03</rscale>
<asrwt>0</asrwt>
<pdfrwt beam="1">  1        4 0.22085956E+00 0.12501171E+03</pdfrwt>
<pdfrwt beam="2">  1       -4 0.11056183E-02 0.12501171E+03</pdfrwt>
<totfact> 0.45197178E+02</totfact>
</mgrwt>
</event>
<event>
 5    1  0.1448308E-002  0.1250007E+03  0.7818608E-02  0.1235068E+00
         -4   -1    0    0    0  501 -0.00000000000E+00  0.00000000000E+00  0.79388682142E+01  0.80398089854E+01  0.12700000000E+01 0.  1.
          4   -1    0    0  501    0  0.00000000000E+00 -0.00000000000E+00 -0.48883675438E+03  0.48883840411E+03  0.12700000000E+01 0.  1.
         25    2    1    2    0    0  0.00000000000E+00  0.00000000000E+00 -0.48089788617E+03  0.49687821310E+03  0.12500072692E+03 0.  0.
    9000005    1    3    3    0    0  0.48453663718E+01 -0.51948484298E+02 -0.10371966806E+03  0.11610724413E+03  0.10000000000E+01 0.  0.
    9000005    1    3    3    0    0 -0.48453663718E+01  0.51948484298E+02 -0.37717821811E+03  0.38077096897E+03  0.10000000000E+01 0.  0.
<mgrwt>
<rscale>  0 0.12500073E+03</rscale>
<asrwt>0</asrwt>
<pdfrwt beam="2">  1        4 0.12222191E+00 0.12500073E+03</pdfrwt>
<pdfrwt beam="1">  1       -4 0.19975425E-02 0.12500073E+03</pdfrwt>
<totfact> 0.88104192E+02</totfact>
</mgrwt>
</event>
<event>
 5    1  0.1448308E-002  0.1250008E+03  0.7818608E-02  0.1235068E+00
          4   -1    0    0  501    0  0.00000000000E+00  0.00000000000E+00  0.67634801034E+03  0.67634920270E+03  0.12700000000E+01 0.  1.
         -4   -1    0    0    0  501 -0.00000000000E+00 -0.00000000000E+00 -0.57045502837E+01  0.58442102922E+01  0.12700000000E+01 0.  1.
         25    2    1    2    0    0  0.00000000000E+00  0.00000000000E+00  0.67064346005E+03  0.68219341299E+03  0.12500080884E+03 0.  0.
    9000005    1    3    3    0    0  0.55859835885E+02 -0.26243144553E+02  0.28177225869E+03  0.28845386055E+03  0.10000000000E+01 0.  0.
    9000005    1    3    3    0    0 -0.55859835885E+02  0.26243144553E+02  0.38887120137E+03  0.39373955244E+03  0.10000000000E+01 0.  0.
<mgrwt>
<rscale>  0 0.12500081E+03</rscale>
<asrwt>0</asrwt>
<pdfrwt beam="1">  1        4 0.16910464E+00 0.12500081E+03</pdfrwt>
<pdfrwt beam="2">  1       -4 0.14437439E-02 0.12500081E+03</pdfrwt>
<totfact> 0.63943176E+02</totfact>
</mgrwt>
</event>
<event>
 5    1  0.1448308E-002  0.1250030E+03  0.7818608E-02  0.1235065E+00
         -4   -1    0    0    0  501 -0.00000000000E+00  0.00000000000E+00  0.27034981801E+02  0.27064795232E+02  0.12700000000E+01 0. -1.
          4   -1    0    0  501    0  0.00000000000E+00 -0.00000000000E+00 -0.14438337021E+03  0.14438895558E+03  0.12700000000E+01 0. -1.
         25    2    1    2    0    0  0.00000000000E+00  0.00000000000E+00 -0.11734838841E+03  0.17145375081E+03  0.12500297758E+03 0.  0.
    9000005    1    3    3    0    0  0.29322247690E+02 -0.19823463175E+02 -0.12931707890E+03  0.13407710765E+03  0.10000000000E+01 0.  0.
    9000005    1    3    3    0    0 -0.29322247690E+02  0.19823463175E+02  0.11968690489E+02  0.37376643159E+02  0.10000000000E+01 0.  0.
<mgrwt>
<rscale>  0 0.12500298E+03</rscale>
<asrwt>0</asrwt>
<pdfrwt beam="2">  1        4 0.36100265E-01 0.12500298E+03</pdfrwt>
<pdfrwt beam="1">  1       -4 0.67631707E-02 0.12500298E+03</pdfrwt>
<totfact> 0.17530464E+03</totfact>
</mgrwt>
</event>
<event>
 5    1  0.1448308E-002  0.1250043E+03  0.7818608E-02  0.1235063E+00
         -4   -1    0    0    0  501 -0.00000000000E+00  0.00000000000E+00  0.86346831556E+01  0.87275800310E+01  0.12700000000E+01 0.  1.
          4   -1    0    0  501    0  0.00000000000E+00 -0.00000000000E+00 -0.44990720620E+03  0.44990899868E+03  0.12700000000E+01 0.  1.
         25    2    1    2    0    0  0.00000000000E+00  0.00000000000E+00 -0.44127252304E+03  0.45863657871E+03  0.12500428687E+03 0.  0.
    9000005    1    3    3    0    0 -0.11001178862E+02 -0.61033312046E+02 -0.24891988329E+03  0.25653108859E+03  0.10000000000E+01 0.  0.
    9000005    1    3    3    0    0  0.11001178862E+02  0.61033312046E+02 -0.19235263975E+03  0.20210549011E+03  0.10000000000E+01 0.  0.
<mgrwt>
<rscale>  0 0.12500429E+03</rscale>
<asrwt>0</asrwt>
<pdfrwt beam="2">  1        4 0.11248856E+00 0.12500429E+03</pdfrwt>
<pdfrwt beam="1">  1       -4 0.21705085E-02 0.12500429E+03</pdfrwt>
<totfact> 0.94477676E+02</totfact>
</mgrwt>
</event>
<event>
 5    1  0.1448308E-002  0.1250000E+03  0.7818608E-02  0.1235069E+00
          4   -1    0    0  501    0  0.00000000000E+00  0.00000000000E+00  0.47824253757E+01  0.49481807236E+01  0.12700000000E+01 0. -1.
         -4   -1    0    0    0  501 -0.00000000000E+00 -0.00000000000E+00 -0.80271241434E+03  0.80271341899E+03  0.12700000000E+01 0. -1.
         25    2    1    2    0    0  0.00000000000E+00  0.00000000000E+00 -0.79792998896E+03  0.80766159972E+03  0.12499996949E+03 0.  0.
    9000005    1    3    3    0    0  0.43064020027E+02  0.43953823326E+02 -0.46939004649E+03  0.47340729204E+03  0.10000000000E+01 0.  0.
    9000005    1    3    3    0    0 -0.43064020027E+02 -0.43953823326E+02 -0.32853994247E+03  0.33425430768E+03  0.10000000000E+01 0.  0.
<mgrwt>
<rscale>  0 0.12499997E+03</rscale>
<asrwt>0</asrwt>
<pdfrwt beam="1">  1        4 0.12164541E-02 0.12499997E+03</pdfrwt>
<pdfrwt beam="2">  1       -4 0.20069850E+00 0.12499997E+03</pdfrwt>
<totfact> 0.51805966E+02</totfact>
</mgrwt>
</event>
<event>
 5    1  0.1448308E-002  0.1249939E+03  0.7818608E-02  0.1235079E+00
         -4   -1    0    0    0  501 -0.00000000000E+00  0.00000000000E+00  0.47871496503E+01  0.49527468918E+01  0.12700000000E+01 0.  1.
          4   -1    0    0  501    0  0.00000000000E+00 -0.00000000000E+00 -0.80186906859E+03  0.80187007431E+03  0.12700000000E+01 0.  1.
         25    2    1    2    0    0  0.00000000000E+00  0.00000000000E+00 -0.79708191894E+03  0.80682282120E+03  0.12499391705E+03 0.  0.
    9000005    1    3    3    0    0 -0.45202910689E+02 -0.92748070222E+01 -0.67053231039E+03  0.67211896600E+03  0.10000000000E+01 0.  0.
    9000005    1    3    3    0    0  0.45202910689E+02  0.92748070222E+01 -0.12654960855E+03  0.13470385519E+03  0.10000000000E+01 0.  0.
<mgrwt>
<rscale>  0 0.12499392E+03</rscale>
<asrwt>0</asrwt>
<pdfrwt beam="2">  1        4 0.20048764E+00 0.12499392E+03</pdfrwt>
<pdfrwt beam="1">  1       -4 0.12176155E-02 0.12499392E+03</pdfrwt>
<totfact> 0.51886283E+02</totfact>
</mgrwt>
</event>
<event>
 5    1  0.1448308E-002  0.1249902E+03  0.7818608E-02  0.1235085E+00
          4   -1    0    0  501    0  0.00000000000E+00  0.00000000000E+00  0.68575049514E+02  0.68586808614E+02  0.12700000000E+01 0. -1.
         -4   -1    0    0    0  501 -0.00000000000E+00 -0.00000000000E+00 -0.56930483986E+02  0.56944647746E+02  0.12700000000E+01 0. -1.
         25    2    1    2    0    0  0.00000000000E+00  0.00000000000E+00  0.11644565528E+02  0.12553145636E+03  0.12499020213E+03 0.  0.
    9000005    1    3    3    0    0 -0.35374370925E+02  0.43002442720E+02  0.34301406399E+02  0.65407512406E+02  0.10000000000E+01 0.  0.
    9000005    1    3    3    0    0  0.35374370925E+02 -0.43002442720E+02 -0.22656840871E+02  0.60123943953E+02  0.10000000000E+01 0.  0.
<mgrwt>
<rscale>  0 0.12499020E+03</rscale>
<asrwt>0</asrwt>
<pdfrwt beam="1">  1        4 0.17147003E-01 0.12499020E+03</pdfrwt>
<pdfrwt beam="2">  1       -4 0.14235861E-01 0.12499020E+03</pdfrwt>
<totfact> 0.19810801E+03</totfact>
</mgrwt>
</event>
<event>
 5    1  0.1448308E-002  0.1250046E+03  0.7818608E-02  0.1235062E+00
          4   -1    0    0  501    0  0.00000000000E+00  0.00000000000E+00  0.81675502524E+02  0.81685375757E+02  0.12700000000E+01 0.  1.
         -4   -1    0    0    0  501 -0.00000000000E+00 -0.00000000000E+00 -0.47808787885E+02  0.47825653148E+02  0.12700000000E+01 0.  1.
         25    2    1    2    0    0  0.00000000000E+00  0.00000000000E+00  0.33866714639E+02  0.12951102890E+03  0.12500460891E+03 0.  0.
    9000005    1    3    3    0    0  0.57482238142E+02  0.18446595095E+02  0.19374177754E+00  0.60378159199E+02  0.10000000000E+01 0.  0.
    9000005    1    3    3    0    0 -0.57482238142E+02 -0.18446595095E+02  0.33672972861E+02  0.69132869706E+02  0.10000000000E+01 0.  0.
<mgrwt>
<rscale>  0 0.12500461E+03</rscale>
<asrwt>0</asrwt>
<pdfrwt beam="1">  1        4 0.20422218E-01 0.12500461E+03</pdfrwt>
<pdfrwt beam="2">  1       -4 0.11955539E-01 0.12500461E+03</pdfrwt>
<totfact> 0.19588598E+03</totfact>
</mgrwt>
</event>
<event>
 5    1  0.1448308E-002  0.1250020E+03  0.7818608E-02  0.1235066E+00
         -4   -1    0    0    0  501 -0.00000000000E+00  0.00000000000E+00  0.61884443540E+02  0.61897473715E+02  0.12700000000E+01 0.  1.
          4   -1    0    0  501    0  0.00000000000E+00 -0.00000000000E+00 -0.63097683021E+02  0.63110462703E+02  0.12700000000E+01 0.  1.
         25    2    1    2    0    0  0.00000000000E+00  0.00000000000E+00 -0.12132394803E+01  0.12500793642E+03  0.12500204885E+03 0.  0.
    9000005    1    3    3    0    0 -0.27073589786E+02 -0.47254031855E+02  0.30045358373E+02  0.62206481577E+02  0.10000000000E+01 0.  0.
    9000005    1    3    3    0    0  0.27073589786E+02  0.47254031855E+02 -0.31258597853E+02  0.62801454841E+02  0.10000000000E+01 0.  0.
<mgrwt>
<rscale>  0 0.12500205E+03</rscale>
<asrwt>0</asrwt>
<pdfrwt beam="2">  1        4 0.15777647E-01 0.12500205E+03</pdfrwt>
<pdfrwt beam="1">  1       -4 0.15474337E-01 0.12500205E+03</pdfrwt>
<totfact> 0.19833674E+03</totfact>
</mgrwt>
</event>
<event>
 5    1  0.1448308E-002  0.1249952E+03  0.7818608E-02  0.1235077E+00
          4   -1    0    0  501    0  0.00000000000E+00  0.00000000000E+00  0.18860044191E+02  0.18902755537E+02  0.12700000000E+01 0.  1.
         -4   -1    0    0    0  501 -0.00000000000E+00 -0.00000000000E+00 -0.20682297767E+03  0.20682687687E+03  0.12700000000E+01 0.  1.
         25    2    1    2    0    0  0.00000000000E+00  0.00000000000E+00 -0.18796293348E+03  0.22572963240E+03  0.12499521023E+03 0.  0.
    9000005    1    3    3    0    0  0.13823750672E+02  0.40460718868E+02 -0.11683150430E+02  0.44335785298E+02  0.10000000000E+01 0.  0.
    9000005    1    3    3    0    0 -0.13823750672E+02 -0.40460718868E+02 -0.17627978305E+03  0.18139384710E+03  0.10000000000E+01 0.  0.
<mgrwt>
<rscale>  0 0.12499521E+03</rscale>
<asrwt>0</asrwt>
<pdfrwt beam="1">  1        4 0.47208380E-02 0.12499521E+03</pdfrwt>
<pdfrwt beam="2">  1       -4 0.51711564E-01 0.12499521E+03</pdfrwt>
<totfact> 0.15342807E+03</totfact>
</mgrwt>
</event>
<event>
 5    1  0.1448308E-002  0.1250066E+03  0.7818608E-02  0.1235059E+00
         -4   -1    0    0    0  501 -0.00000000000E+00  0.00000000000E+00  0.18096511500E+02  0.18141020601E+02  0.12700000000E+01 0.  1.
          4   -1    0    0  501    0  0.00000000000E+00 -0.00000000000E+00 -0.21556788456E+03  0.21557162558E+03  0.12700000000E+01 0.  1.
         25    2    1    2    0    0  0.00000000000E+00  0.00000000000E+00 -0.19747137306E+03  0.23371264618E+03  0.12500663105E+03 0.  0.
    9000005    1    3    3    0    0  0.52606504893E+02 -0.76193793354E+01 -0.16018177515E+03  0.16877411054E+03  0.10000000000E+01 0.  0.
    9000005    1    3    3    0    0 -0.52606504893E+02  0.76193793354E+01 -0.37289597914E+02  0.64938535640E+02  0.10000000000E+01 0.  0.
<mgrwt>
<rscale>  0 0.12500663E+03</rscale>
<asrwt>0</asrwt>
<pdfrwt beam="2">  1        4 0.53897994E-01 0.12500663E+03</pdfrwt>
<pdfrwt beam="1">  1       -4 0.45301598E-02 0.12500663E+03</pdfrwt>
<totfact> 0.15053252E+03</totfact>
</mgrwt>
</event>
<event>
 5    1  0.1448308E-002  0.1250015E+03  0.7818608E-02  0.1235067E+00
          4   -1    0    0  501    0  0.00000000000E+00  0.00000000000E+00  0.14220494054E+03  0.14221061147E+03  0.12700000000E+01 0.  1.
         -4   -1    0    0    0  501 -0.00000000000E+00 -0.00000000000E+00 -0.27448932919E+02  0.27478297225E+02  0.12700000000E+01 0.  1.
         25    2    1    2    0    0  0.00000000000E+00  0.00000000000E+00  0.11475600762E+03  0.16968890869E+03  0.12500153778E+03 0.  0.
    9000005    1    3    3    0    0 -0.49585447973E+02 -0.37469090148E+02  0.48507761501E+02  0.78845750000E+02  0.10000000000E+01 0.  0.
    9000005    1    3    3    0    0  0.49585447973E+02  0.37469090148E+02  0.66248246118E+02  0.90843158691E+02  0.10000000000E+01 0.  0.
<mgrwt>
<rscale>  0 0.12500154E+03</rscale>
<asrwt>0</asrwt>
<pdfrwt beam="1">  1        4 0.35555614E-01 0.12500154E+03</pdfrwt>
<pdfrwt beam="2">  1       -4 0.68666127E-02 0.12500154E+03</pdfrwt>
<totfact> 0.17610459E+03</totfact>
</mgrwt>
</event>
<event>
 5    1  0.1448308E-002  0.1250090E+03  0.7818608E-02  0.1235055E+00
          4   -1    0    0  501    0  0.00000000000E+00  0.00000000000E+00  0.24578300045E+03  0.24578628157E+03  0.12700000000E+01 0.  1.
         -4   -1    0    0    0  501 -0.00000000000E+00 -0.00000000000E+00 -0.15866621263E+02  0.15917366940E+02  0.12700000000E+01 0.  1.
         25    2    1    2    0    0  0.00000000000E+00  0.00000000000E+00  0.22991637919E+03  0.26170364851E+03  0.12500903258E+03 0.  0.
    9000005    1    3    3    0    0 -0.46535380335E+02  0.22028144655E+02  0.40793686684E+02  0.65695552765E+02  0.10000000000E+01 0.  0.
    9000005    1    3    3    0    0  0.46535380335E+02 -0.22028144655E+02  0.18912269250E+03  0.19600809575E+03  0.10000000000E+01 0.  0.
<mgrwt>
<rscale>  0 0.12500903E+03</rscale>
<asrwt>0</asrwt>
<pdfrwt beam="1">  1        4 0.61452503E-01 0.12500903E+03</pdfrwt>
<pdfrwt beam="2">  1       -4 0.39734087E-02 0.12500903E+03</pdfrwt>
<totfact> 0.14113678E+03</totfact>
</mgrwt>
</event>
<event>
 5    1  0.1448308E-002  0.1250001E+03  0.7818608E-02  0.1235069E+00
          4   -1    0    0  501    0  0.00000000000E+00  0.00000000000E+00  0.14419385246E+03  0.14419944517E+03  0.12700000000E+01 0.  1.
         -4   -1    0    0    0  501 -0.00000000000E+00 -0.00000000000E+00 -0.27069287045E+02  0.27099062735E+02  0.12700000000E+01 0.  1.
         25    2    1    2    0    0  0.00000000000E+00  0.00000000000E+00  0.11712456542E+03  0.17129850791E+03  0.12500005995E+03 0.  0.
    9000005    1    3    3    0    0 -0.28548805764E+02  0.86091956284E+01  0.13382264638E+03  0.13710818080E+03  0.10000000000E+01 0.  0.
    9000005    1    3    3    0    0  0.28548805764E+02 -0.86091956284E+01 -0.16698080957E+02  0.34190327106E+02  0.10000000000E+01 0.  0.
<mgrwt>
<rscale>  0 0.12500006E+03</rscale>
<asrwt>0</asrwt>
<pdfrwt beam="1">  1        4 0.36052883E-01 0.12500006E+03</pdfrwt>
<pdfrwt beam="2">  1       -4 0.67717430E-02 0.12500006E+03</pdfrwt>
<totfact> 0.17538613E+03</totfact>
</mgrwt>
</event>
<event>
 5    1  0.1448308E-002  0.1249998E+03  0.7818608E-02  0.1235070E+00
          4   -1    0    0  501    0  0.00000000000E+00  0.00000000000E+00  0.45494838355E+03  0.45495015616E+03  0.12700000000E+01 0.  1.
         -4   -1    0    0    0  501 -0.00000000000E+00 -0.00000000000E+00 -0.85373482572E+01  0.86312927922E+01  0.12700000000E+01 0.  1.
         25    2    1    2    0    0  0.00000000000E+00  0.00000000000E+00  0.44641103529E+03  0.46358144896E+03  0.12499978954E+03 0.  0.
    9000005    1    3    3    0    0 -0.27511946120E+02  0.24698088230E+02  0.41005468172E+03  0.41171925476E+03  0.10000000000E+01 0.  0.
    9000005    1    3    3    0    0  0.27511946120E+02 -0.24698088230E+02  0.36356353570E+02  0.51862194192E+02  0.10000000000E+01 0.  0.
<mgrwt>
<rscale>  0 0.12499979E+03</rscale>
<asrwt>0</asrwt>
<pdfrwt beam="1">  1        4 0.11374905E+00 0.12499979E+03</pdfrwt>
<pdfrwt beam="2">  1       -4 0.21463019E-02 0.12499979E+03</pdfrwt>
<totfact> 0.93629231E+02</totfact>
</mgrwt>
</event>
<event>
 5    1  0.1448308E-002  0.1249954E+03  0.7818608E-02  0.1235076E+00
          4   -1    0    0  501    0  0.00000000000E+00  0.00000000000E+00  0.13212477348E+03  0.13213087704E+03  0.12700000000E+01 0.  1.
         -4   -1    0    0    0  501 -0.00000000000E+00 -0.00000000000E+00 -0.29542242949E+02  0.29569528547E+02  0.12700000000E+01 0.  1.
         25    2    1    2    0    0  0.00000000000E+00  0.00000000000E+00  0.10258253053E+03  0.16170040559E+03  0.12499538230E+03 0.  0.
    9000005    1    3    3    0    0 -0.96243156267E+01  0.44882874037E+02 -0.35610879865E+01  0.46051940032E+02  0.10000000000E+01 0.  0.
    9000005    1    3    3    0    0  0.96243156267E+01 -0.44882874037E+02  0.10614361852E+03  0.11564846556E+03  0.10000000000E+01 0.  0.
<mgrwt>
<rscale>  0 0.12499538E+03</rscale>
<asrwt>0</asrwt>
<pdfrwt beam="1">  1        4 0.33035367E-01 0.12499538E+03</pdfrwt>
<pdfrwt beam="2">  1       -4 0.73897344E-02 0.12499538E+03</pdfrwt>
<totfact> 0.17979952E+03</totfact>
</mgrwt>
</event>
<event>
 5    1  0.1448308E-002  0.1250031E+03  0.7818608E-02  0.1235064E+00
          4   -1    0    0  501    0  0.00000000000E+00  0.00000000000E+00  0.12310013123E+03  0.12310668223E+03  0.12700000000E+01 0. -1.
         -4   -1    0    0    0  501 -0.00000000000E+00 -0.00000000000E+00 -0.31713755657E+02  0.31739174499E+02  0.12700000000E+01 0. -1.
         25    2    1    2    0    0  0.00000000000E+00  0.00000000000E+00  0.91386375577E+02  0.15484585673E+03  0.12500307878E+03 0.  0.
    9000005    1    3    3    0    0  0.46393661196E+02  0.25438249227E+02  0.86888688690E+02  0.10173554219E+03  0.10000000000E+01 0.  0.
    9000005    1    3    3    0    0 -0.46393661196E+02 -0.25438249227E+02  0.44976868867E+01  0.53110314537E+02  0.10000000000E+01 0.  0.
<mgrwt>
<rscale>  0 0.12500308E+03</rscale>
<asrwt>0</asrwt>
<pdfrwt beam="1">  1        4 0.30779029E-01 0.12500308E+03</pdfrwt>
<pdfrwt beam="2">  1       -4 0.79324352E-02 0.12500308E+03</pdfrwt>
<totfact> 0.18301738E+03</totfact>
</mgrwt>
</event>
<event>
 5    1  0.1448308E-002  0.1250015E+03  0.7818608E-02  0.1235067E+00
          4   -1    0    0  501    0  0.00000000000E+00  0.00000000000E+00  0.51501352921E+03  0.51501509509E+03  0.12700000000E+01 0.  1.
         -4   -1    0    0    0  501 -0.00000000000E+00 -0.00000000000E+00 -0.75301787039E+01  0.76365235096E+01  0.12700000000E+01 0.  1.
         25    2    1    2    0    0  0.00000000000E+00  0.00000000000E+00  0.50748335051E+03  0.52265161860E+03  0.12500145352E+03 0.  0.
    9000005    1    3    3    0    0  0.15482606270E+01 -0.34536490520E+02  0.47141031767E+03  0.47267732534E+03  0.10000000000E+01 0.  0.
    9000005    1    3    3    0    0 -0.15482606270E+01  0.34536490520E+02  0.36073032840E+02  0.49974293258E+02  0.10000000000E+01 0.  0.
<mgrwt>
<rscale>  0 0.12500145E+03</rscale>
<asrwt>0</asrwt>
<pdfrwt beam="1">  1        4 0.12876683E+00 0.12500145E+03</pdfrwt>
<pdfrwt beam="2">  1       -4 0.18960341E-02 0.12500145E+03</pdfrwt>
<totfact> 0.84110388E+02</totfact>
</mgrwt>
</event>
<event>
 5    1  0.1448308E-002  0.1250204E+03  0.7818608E-02  0.1235037E+00
          4   -1    0    0  501    0  0.00000000000E+00  0.00000000000E+00  0.16433634916E+02  0.16482635000E+02  0.12700000000E+01 0. -1.
         -4   -1    0    0    0  501 -0.00000000000E+00 -0.00000000000E+00 -0.23737128698E+03  0.23737468438E+03  0.12700000000E+01 0. -1.
         25    2    1    2    0    0  0.00000000000E+00  0.00000000000E+00 -0.22093765207E+03  0.25385731938E+03  0.12502036835E+03 0.  0.
    9000005    1    3    3    0    0 -0.52346748195E+02 -0.44384437320E+01 -0.41710910044E+02  0.67087121313E+02  0.10000000000E+01 0.  0.
    9000005    1    3    3    0    0  0.52346748195E+02  0.44384437320E+01 -0.17922674202E+03  0.18677019807E+03  0.10000000000E+01 0.  0.
<mgrwt>
<rscale>  0 0.12502037E+03</rscale>
<asrwt>0</asrwt>
<pdfrwt beam="1">  1        4 0.41149592E-02 0.12502037E+03</pdfrwt>
<pdfrwt beam="2">  1       -4 0.59349361E-01 0.12502037E+03</pdfrwt>
<totfact> 0.14363818E+03</totfact>
</mgrwt>
</event>
<event>
 5    1  0.1448308E-002  0.1249768E+03  0.7818608E-02  0.1235106E+00
          4   -1    0    0  501    0  0.00000000000E+00  0.00000000000E+00  0.24119226527E+03  0.24119560885E+03  0.12700000000E+01 0.  1.
         -4   -1    0    0    0  501 -0.00000000000E+00 -0.00000000000E+00 -0.16161196696E+02  0.16211020284E+02  0.12700000000E+01 0.  1.
         25    2    1    2    0    0  0.00000000000E+00  0.00000000000E+00  0.22503106858E+03  0.25740662913E+03  0.12497676142E+03 0.  0.
    9000005    1    3    3    0    0 -0.58314584297E+02  0.20449530536E+02  0.13150708459E+03  0.14530618479E+03  0.10000000000E+01 0.  0.
    9000005    1    3    3    0    0  0.58314584297E+02 -0.20449530536E+02  0.93523983989E+02  0.11210044434E+03  0.10000000000E+01 0.  0.
<mgrwt>
<rscale>  0 0.12497676E+03</rscale>
<asrwt>0</asrwt>
<pdfrwt beam="1">  1        4 0.60304710E-01 0.12497676E+03</pdfrwt>
<pdfrwt beam="2">  1       -4 0.40469452E-02 0.12497676E+03</pdfrwt>
<totfact> 0.14262425E+03</totfact>
</mgrwt>
</event>
<event>
 5    1  0.1448308E-002  0.1250071E+03  0.7818608E-02  0.1235058E+00
         -4   -1    0    0    0  501 -0.00000000000E+00  0.00000000000E+00  0.54392762002E+01  0.55855729861E+01  0.12700000000E+01 0.  1.
          4   -1    0    0  501    0  0.00000000000E+00 -0.00000000000E+00 -0.70856032744E+03  0.70856146560E+03  0.12700000000E+01 0.  1.
         25    2    1    2    0    0  0.00000000000E+00  0.00000000000E+00 -0.70312105124E+03  0.71414703858E+03  0.12500711985E+03 0.  0.
    9000005    1    3    3    0    0 -0.10535936348E+02 -0.49923218775E+02 -0.55772727698E+03  0.56005718388E+03  0.10000000000E+01 0.  0.
    9000005    1    3    3    0    0  0.10535936348E+02  0.49923218775E+02 -0.14539377427E+03  0.15408985471E+03  0.10000000000E+01 0.  0.
<mgrwt>
<rscale>  0 0.12500712E+03</rscale>
<asrwt>0</asrwt>
<pdfrwt beam="2">  1        4 0.17715820E+00 0.12500712E+03</pdfrwt>
<pdfrwt beam="1">  1       -4 0.13782508E-02 0.12500712E+03</pdfrwt>
<totfact> 0.60596797E+02</totfact>
</mgrwt>
</event>
<event>
 5    1  0.1448308E-002  0.1250276E+03  0.7818608E-02  0.1235026E+00
         -4   -1    0    0    0  501 -0.00000000000E+00  0.00000000000E+00  0.12529929697E+03  0.12530573299E+03  0.12700000000E+01 0. -1.
          4   -1    0    0  501    0  0.00000000000E+00 -0.00000000000E+00 -0.31168966307E+02  0.31194829069E+02  0.12700000000E+01 0. -1.
         25    2    1    2    0    0  0.00000000000E+00  0.00000000000E+00  0.94130330661E+02  0.15650056206E+03  0.12502762405E+03 0.  0.
    9000005    1    3    3    0    0  0.30458661828E+02  0.50064596640E+02  0.74282196265E+02  0.94620497774E+02  0.10000000000E+01 0.  0.
    9000005    1    3    3    0    0 -0.30458661828E+02 -0.50064596640E+02  0.19848134395E+02  0.61880064286E+02  0.10000000000E+01 0.  0.
<mgrwt>
<rscale>  0 0.12502762E+03</rscale>
<asrwt>0</asrwt>
<pdfrwt beam="2">  1        4 0.77962790E-02 0.12502762E+03</pdfrwt>
<pdfrwt beam="1">  1       -4 0.31328861E-01 0.12502762E+03</pdfrwt>
<totfact> 0.18211996E+03</totfact>
</mgrwt>
</event>
<event>
 5    1  0.1448308E-002  0.1250319E+03  0.7818608E-02  0.1235019E+00
          4   -1    0    0  501    0  0.00000000000E+00  0.00000000000E+00  0.94735826969E+03  0.94735912095E+03  0.12700000000E+01 0.  1.
         -4   -1    0    0    0  501 -0.00000000000E+00 -0.00000000000E+00 -0.40267983716E+01  0.42223222432E+01  0.12700000000E+01 0.  1.
         25    2    1    2    0    0  0.00000000000E+00  0.00000000000E+00  0.94333147132E+03  0.95158144319E+03  0.12503190894E+03 0.  0.
    9000005    1    3    3    0    0  0.12928531512E+02  0.56036219376E+01  0.93515084113E+03  0.93525752773E+03  0.10000000000E+01 0.  0.
    9000005    1    3    3    0    0 -0.12928531512E+02 -0.56036219376E+01  0.81806301872E+01  0.16323915465E+02  0.10000000000E+01 0.  0.
<mgrwt>
<rscale>  0 0.12503191E+03</rscale>
<asrwt>0</asrwt>
<pdfrwt beam="1">  1        4 0.23686411E+00 0.12503191E+03</pdfrwt>
<pdfrwt beam="2">  1       -4 0.10312465E-02 0.12503191E+03</pdfrwt>
<totfact> 0.40434772E+02</totfact>
</mgrwt>
</event>
<event>
 5    1  0.1448308E-002  0.1249988E+03  0.7818608E-02  0.1235071E+00
          4   -1    0    0  501    0  0.00000000000E+00  0.00000000000E+00  0.96328991610E+02  0.96337363076E+02  0.12700000000E+01 0. -1.
         -4   -1    0    0    0  501 -0.00000000000E+00 -0.00000000000E+00 -0.40530268702E+02  0.40550161295E+02  0.12700000000E+01 0. -1.
         25    2    1    2    0    0  0.00000000000E+00  0.00000000000E+00  0.55798722908E+02  0.13688752437E+03  0.12499878740E+03 0.  0.
    9000005    1    3    3    0    0 -0.61807930574E+02  0.87905625385E+01  0.24864512988E+02  0.67206683282E+02  0.10000000000E+01 0.  0.
    9000005    1    3    3    0    0  0.61807930574E+02 -0.87905625385E+01  0.30934209920E+02  0.69680841090E+02  0.10000000000E+01 0.  0.
<mgrwt>
<rscale>  0 0.12499879E+03</rscale>
<asrwt>0</asrwt>
<pdfrwt beam="1">  1        4 0.24085781E-01 0.12499879E+03</pdfrwt>
<pdfrwt beam="2">  1       -4 0.10136100E-01 0.12499879E+03</pdfrwt>
<totfact> 0.19201265E+03</totfact>
</mgrwt>
</event>
<event>
 5    1  0.1448308E-002  0.1249974E+03  0.7818608E-02  0.1235073E+00
         -4   -1    0    0    0  501 -0.00000000000E+00  0.00000000000E+00  0.11778932316E+02  0.11847199943E+02  0.12700000000E+01 0. -1.
          4   -1    0    0  501    0  0.00000000000E+00 -0.00000000000E+00 -0.33058853830E+03  0.33059097773E+03  0.12700000000E+01 0. -1.
         25    2    1    2    0    0  0.00000000000E+00  0.00000000000E+00 -0.31880960598E+03  0.34243817767E+03  0.12499736261E+03 0.  0.
    9000005    1    3    3    0    0  0.54769881944E+02 -0.10985615723E+02 -0.23614492478E+03  0.24266406660E+03  0.10000000000E+01 0.  0.
    9000005    1    3    3    0    0 -0.54769881944E+02  0.10985615723E+02 -0.82664681206E+02  0.99774111071E+02  0.10000000000E+01 0.  0.
<mgrwt>
<rscale>  0 0.12499736E+03</rscale>
<asrwt>0</asrwt>
<pdfrwt beam="2">  1        4 0.82655943E-01 0.12499736E+03</pdfrwt>
<pdfrwt beam="1">  1       -4 0.29535725E-02 0.12499736E+03</pdfrwt>
<totfact> 0.11860536E+03</totfact>
</mgrwt>
</event>
<event>
 5    1  0.1448308E-002  0.1249963E+03  0.7818608E-02  0.1235075E+00
         -4   -1    0    0    0  501 -0.00000000000E+00  0.00000000000E+00  0.79878903034E+01  0.80882193034E+01  0.12700000000E+01 0.  1.
          4   -1    0    0  501    0  0.00000000000E+00 -0.00000000000E+00 -0.48583978601E+03  0.48584144591E+03  0.12700000000E+01 0.  1.
         25    2    1    2    0    0  0.00000000000E+00  0.00000000000E+00 -0.47785189570E+03  0.49392966522E+03  0.12499631976E+03 0.  0.
    9000005    1    3    3    0    0 -0.61444826527E+02  0.10309470352E+01 -0.19413365697E+03  0.20363056334E+03  0.10000000000E+01 0.  0.
    9000005    1    3    3    0    0  0.61444826527E+02 -0.10309470352E+01 -0.28371823874E+03  0.29029910188E+03  0.10000000000E+01 0.  0.
<mgrwt>
<rscale>  0 0.12499632E+03</rscale>
<asrwt>0</asrwt>
<pdfrwt beam="2">  1        4 0.12147260E+00 0.12499632E+03</pdfrwt>
<pdfrwt beam="1">  1       -4 0.20097228E-02 0.12499632E+03</pdfrwt>
<totfact> 0.88587872E+02</totfact>
</mgrwt>
</event>
<event>
 5    1  0.1448308E-002  0.1249989E+03  0.7818608E-02  0.1235071E+00
          4   -1    0    0  501    0  0.00000000000E+00  0.00000000000E+00  0.69962017948E+01  0.71105372198E+01  0.12700000000E+01 0. -1.
         -4   -1    0    0    0  501 -0.00000000000E+00 -0.00000000000E+00 -0.55368879216E+03  0.55369024867E+03  0.12700000000E+01 0. -1.
         25    2    1    2    0    0  0.00000000000E+00  0.00000000000E+00 -0.54669259037E+03  0.56080078589E+03  0.12499893234E+03 0.  0.
    9000005    1    3    3    0    0  0.56148721958E+02  0.55743587965E+01 -0.39384979356E+03  0.39787235684E+03  0.10000000000E+01 0.  0.
    9000005    1    3    3    0    0 -0.56148721958E+02 -0.55743587965E+01 -0.15284279681E+03  0.16292842904E+03  0.10000000000E+01 0.  0.
<mgrwt>
<rscale>  0 0.12499893E+03</rscale>
<asrwt>0</asrwt>
<pdfrwt beam="1">  1        4 0.17635263E-02 0.12499893E+03</pdfrwt>
<pdfrwt beam="2">  1       -4 0.13843652E+00 0.12499893E+03</pdfrwt>
<totfact> 0.78668999E+02</totfact>
</mgrwt>
</event>
<event>
 5    1  0.1448308E-002  0.1250008E+03  0.7818608E-02  0.1235068E+00
         -4   -1    0    0    0  501 -0.00000000000E+00  0.00000000000E+00  0.30130779958E+03  0.30131047607E+03  0.12700000000E+01 0. -1.
          4   -1    0    0  501    0  0.00000000000E+00 -0.00000000000E+00 -0.12930647435E+02  0.12992865084E+02  0.12700000000E+01 0. -1.
         25    2    1    2    0    0  0.00000000000E+00  0.00000000000E+00  0.28837715214E+03  0.31430334115E+03  0.12500083352E+03 0.  0.
    9000005    1    3    3    0    0 -0.36796525165E+02  0.36358650813E+02  0.23234962488E+03  0.23804050902E+03  0.10000000000E+01 0.  0.
    9000005    1    3    3    0    0  0.36796525165E+02 -0.36358650813E+02  0.56027527264E+02  0.76262832130E+02  0.10000000000E+01 0.  0.
<mgrwt>
<rscale>  0 0.12500083E+03</rscale>
<asrwt>0</asrwt>
<pdfrwt beam="2">  1        4 0.32407736E-02 0.12500083E+03</pdfrwt>
<pdfrwt beam="1">  1       -4 0.75335062E-01 0.12500083E+03</pdfrwt>
<totfact> 0.12579199E+03</totfact>
</mgrwt>
</event>
<event>
 5    1  0.1448308E-002  0.1250018E+03  0.7818608E-02  0.1235067E+00
         -4   -1    0    0    0  501 -0.00000000000E+00  0.00000000000E+00  0.41909531081E+03  0.41909723507E+03  0.12700000000E+01 0. -1.
          4   -1    0    0  501    0  0.00000000000E+00 -0.00000000000E+00 -0.92757202441E+01  0.93622585975E+01  0.12700000000E+01 0. -1.
         25    2    1    2    0    0  0.00000000000E+00  0.00000000000E+00  0.40981959057E+03  0.42845949367E+03  0.12500176360E+03 0.  0.
    9000005    1    3    3    0    0  0.47967958121E+02  0.25847511823E+02  0.30979415509E+03  0.31455116818E+03  0.10000000000E+01 0.  0.
    9000005    1    3    3    0    0 -0.47967958121E+02 -0.25847511823E+02  0.10002543548E+03  0.11390832549E+03  0.10000000000E+01 0.  0.
<mgrwt>
<rscale>  0 0.12500176E+03</rscale>
<asrwt>0</asrwt>
<pdfrwt beam="2">  1        4 0.23299879E-02 0.12500176E+03</pdfrwt>
<pdfrwt beam="1">  1       -4 0.10478489E+00 0.12500176E+03</pdfrwt>
<totfact> 0.10001247E+03</totfact>
</mgrwt>
</event>
<event>
 5    1  0.1448308E-002  0.1249931E+03  0.7818608E-02  0.1235080E+00
         -4   -1    0    0    0  501 -0.00000000000E+00  0.00000000000E+00  0.33674326063E+02  0.33698266065E+02  0.12700000000E+01 0.  1.
          4   -1    0    0  501    0  0.00000000000E+00 -0.00000000000E+00 -0.11591937579E+03  0.11592633258E+03  0.12700000000E+01 0.  1.
         25    2    1    2    0    0  0.00000000000E+00  0.00000000000E+00 -0.82245049731E+02  0.14962459864E+03  0.12499308906E+03 0.  0.
    9000005    1    3    3    0    0  0.86801886806E+01  0.50866622256E+02  0.10653972143E+01  0.51622611387E+02  0.10000000000E+01 0.  0.
    9000005    1    3    3    0    0 -0.86801886806E+01 -0.50866622256E+02 -0.83310446945E+02  0.98001987253E+02  0.10000000000E+01 0.  0.
<mgrwt>
<rscale>  0 0.12499309E+03</rscale>
<asrwt>0</asrwt>
<pdfrwt beam="2">  1        4 0.28983705E-01 0.12499309E+03</pdfrwt>
<pdfrwt beam="1">  1       -4 0.84224439E-02 0.12499309E+03</pdfrwt>
<totfact> 0.18560240E+03</totfact>
</mgrwt>
</event>
<event>
 5    1  0.1448308E-002  0.1250055E+03  0.7818608E-02  0.1235061E+00
         -4   -1    0    0    0  501 -0.00000000000E+00  0.00000000000E+00  0.89846004619E+01  0.90739156630E+01  0.12700000000E+01 0. -1.
          4   -1    0    0  501    0  0.00000000000E+00 -0.00000000000E+00 -0.43256944974E+03  0.43257131406E+03  0.12700000000E+01 0. -1.
         25    2    1    2    0    0  0.00000000000E+00  0.00000000000E+00 -0.42358484927E+03  0.44164522972E+03  0.12500553748E+03 0.  0.
    9000005    1    3    3    0    0  0.33239859089E+02  0.30328881079E+02 -0.36501519737E+03  0.36777958558E+03  0.10000000000E+01 0.  0.
    9000005    1    3    3    0    0 -0.33239859089E+02 -0.30328881079E+02 -0.58569651903E+02  0.73865644137E+02  0.10000000000E+01 0.  0.
<mgrwt>
<rscale>  0 0.12500554E+03</rscale>
<asrwt>0</asrwt>
<pdfrwt beam="2">  1        4 0.10815369E+00 0.12500554E+03</pdfrwt>
<pdfrwt beam="1">  1       -4 0.22575490E-02 0.12500554E+03</pdfrwt>
<totfact> 0.97524344E+02</totfact>
</mgrwt>
</event>
<event>
 5    1  0.1448308E-002  0.1249996E+03  0.7818608E-02  0.1235070E+00
         -4   -1    0    0    0  501 -0.00000000000E+00  0.00000000000E+00  0.30991107523E+02  0.31017118588E+02  0.12700000000E+01 0.  1.
          4   -1    0    0  501    0  0.00000000000E+00 -0.00000000000E+00 -0.12596124075E+03  0.12596764295E+03  0.12700000000E+01 0.  1.
         25    2    1    2    0    0  0.00000000000E+00  0.00000000000E+00 -0.94970133224E+02  0.15698476154E+03  0.12499955660E+03 0.  0.
    9000005    1    3    3    0    0 -0.16738862343E+02 -0.54508329025E+02 -0.15370923441E+02  0.59064479453E+02  0.10000000000E+01 0.  0.
    9000005    1    3    3    0    0  0.16738862343E+02  0.54508329025E+02 -0.79599209783E+02  0.97920282086E+02  0.10000000000E+01 0.  0.
<mgrwt>
<rscale>  0 0.12499956E+03</rscale>
<asrwt>0</asrwt>
<pdfrwt beam="2">  1        4 0.31494361E-01 0.12499956E+03</pdfrwt>
<pdfrwt beam="1">  1       -4 0.77518289E-02 0.12499956E+03</pdfrwt>
<totfact> 0.18200773E+03</totfact>
</mgrwt>
</event>
<event>
 5    1  0.1448308E-002  0.1250031E+03  0.7818608E-02  0.1235064E+00
         -4   -1    0    0    0  501 -0.00000000000E+00  0.00000000000E+00  0.41928423304E+02  0.41947652864E+02  0.12700000000E+01 0.  1.
          4   -1    0    0  501    0  0.00000000000E+00 -0.00000000000E+00 -0.93124494769E+02  0.93133154279E+02  0.12700000000E+01 0.  1.
         25    2    1    2    0    0  0.00000000000E+00  0.00000000000E+00 -0.51196071465E+02  0.13508080714E+03  0.12500314686E+03 0.  0.
    9000005    1    3    3    0    0  0.44966898239E+02 -0.43156277380E+02 -0.20650679583E+02  0.65665339272E+02  0.10000000000E+01 0.  0.
    9000005    1    3    3    0    0 -0.44966898239E+02  0.43156277380E+02 -0.30545391882E+02  0.69415467871E+02  0.10000000000E+01 0.  0.
<mgrwt>
<rscale>  0 0.12500315E+03</rscale>
<asrwt>0</asrwt>
<pdfrwt beam="2">  1        4 0.23284609E-01 0.12500315E+03</pdfrwt>
<pdfrwt beam="1">  1       -4 0.10485592E-01 0.12500315E+03</pdfrwt>
<totfact> 0.19293489E+03</totfact>
</mgrwt>
</event>
<event>
 5    1  0.1448308E-002  0.1250000E+03  0.7818608E-02  0.1235069E+00
         -4   -1    0    0    0  501 -0.00000000000E+00  0.00000000000E+00  0.54003149046E+03  0.54003298380E+03  0.12700000000E+01 0. -1.
          4   -1    0    0  501    0  0.00000000000E+00 -0.00000000000E+00 -0.71761144650E+01  0.72876277906E+01  0.12700000000E+01 0. -1.
         25    2    1    2    0    0  0.00000000000E+00  0.00000000000E+00  0.53285537600E+03  0.54732061159E+03  0.12500000057E+03 0.  0.
    9000005    1    3    3    0    0 -0.10601264392E+02  0.33482343468E+02  0.40102219255E+02  0.53316433864E+02  0.10000000000E+01 0.  0.
    9000005    1    3    3    0    0  0.10601264392E+02 -0.33482343468E+02  0.49275315674E+03  0.49400417773E+03  0.10000000000E+01 0.  0.
<mgrwt>
<rscale>  0 0.12500000E+03</rscale>
<asrwt>0</asrwt>
<pdfrwt beam="2">  1        4 0.18081547E-02 0.12500000E+03</pdfrwt>
<pdfrwt beam="1">  1       -4 0.13502198E+00 0.12500000E+03</pdfrwt>
<totfact> 0.80541297E+02</totfact>
</mgrwt>
</event>
<event>
 5    1  0.1448308E-002  0.1249978E+03  0.7818608E-02  0.1235073E+00
         -4   -1    0    0    0  501 -0.00000000000E+00  0.00000000000E+00  0.21177337782E+03  0.21177718587E+03  0.12700000000E+01 0.  1.
          4   -1    0    0  501    0  0.00000000000E+00 -0.00000000000E+00 -0.18418934176E+02  0.18462666009E+02  0.12700000000E+01 0.  1.
         25    2    1    2    0    0  0.00000000000E+00  0.00000000000E+00  0.19335444365E+03  0.23023985188E+03  0.12499779404E+03 0.  0.
    9000005    1    3    3    0    0  0.32250006473E+02  0.29737205133E+02  0.14700085297E+02  0.46275877024E+02  0.10000000000E+01 0.  0.
    9000005    1    3    3    0    0 -0.32250006473E+02 -0.29737205133E+02  0.17865435835E+03  0.18396397485E+03  0.10000000000E+01 0.  0.
<mgrwt>
<rscale>  0 0.12499779E+03</rscale>
<asrwt>0</asrwt>
<pdfrwt beam="2">  1        4 0.46106760E-02 0.12499779E+03</pdfrwt>
<pdfrwt beam="1">  1       -4 0.52949287E-01 0.12499779E+03</pdfrwt>
<totfact> 0.15179517E+03</totfact>
</mgrwt>
</event>
<event>
 5    1  0.1448308E-002  0.1249925E+03  0.7818608E-02  0.1235081E+00
         -4   -1    0    0    0  501 -0.00000000000E+00  0.00000000000E+00  0.44430054261E+02  0.44448201556E+02  0.12700000000E+01 0. -1.
          4   -1    0    0  501    0  0.00000000000E+00 -0.00000000000E+00 -0.87867820402E+02  0.87876997913E+02  0.12700000000E+01 0. -1.
         25    2    1    2    0    0  0.00000000000E+00  0.00000000000E+00 -0.43437766141E+02  0.13232519947E+03  0.12499247532E+03 0.  0.
    9000005    1    3    3    0    0  0.37568469871E+02  0.10013201573E+02  0.30070583006E+02  0.49161917136E+02  0.10000000000E+01 0.  0.
    9000005    1    3    3    0    0 -0.37568469871E+02 -0.10013201573E+02 -0.73508349147E+02  0.83163282333E+02  0.10000000000E+01 0.  0.
<mgrwt>
<rscale>  0 0.12499248E+03</rscale>
<asrwt>0</asrwt>
<pdfrwt beam="2">  1        4 0.21970370E-01 0.12499248E+03</pdfrwt>
<pdfrwt beam="1">  1       -4 0.11110929E-01 0.12499248E+03</pdfrwt>
<totfact> 0.19443590E+03</totfact>
</mgrwt>
</event>
<event>
 5    1  0.1448308E-002  0.1250091E+03  0.7818608E-02  0.1235055E+00
         -4   -1    0    0    0  501 -0.00000000000E+00  0.00000000000E+00  0.13081359319E+03  0.13081975792E+03  0.12700000000E+01 0.  1.
          4   -1    0    0  501    0  0.00000000000E+00 -0.00000000000E+00 -0.29845181420E+02  0.29872190311E+02  0.12700000000E+01 0.  1.
         25    2    1    2    0    0  0.00000000000E+00  0.00000000000E+00  0.10096841177E+03  0.16069194823E+03  0.12500912787E+03 0.  0.
    9000005    1    3    3    0    0  0.45520032832E+02  0.28630891882E+02  0.91417384453E+02  0.10606573216E+03  0.10000000000E+01 0.  0.
    9000005    1    3    3    0    0 -0.45520032832E+02 -0.28630891882E+02  0.95510273119E+01  0.54626216067E+02  0.10000000000E+01 0.  0.
<mgrwt>
<rscale>  0 0.12500913E+03</rscale>
<asrwt>0</asrwt>
<pdfrwt beam="2">  1        4 0.74654422E-02 0.12500913E+03</pdfrwt>
<pdfrwt beam="1">  1       -4 0.32707544E-01 0.12500913E+03</pdfrwt>
<totfact> 0.18021416E+03</totfact>
</mgrwt>
</event>
<event>
 5    1  0.1448308E-002  0.1250010E+03  0.7818608E-02  0.1235068E+00
          4   -1    0    0  501    0  0.00000000000E+00  0.00000000000E+00  0.59065914825E+02  0.59079566638E+02  0.12700000000E+01 0. -1.
         -4   -1    0    0    0  501 -0.00000000000E+00 -0.00000000000E+00 -0.66107401274E+02  0.66119599237E+02  0.12700000000E+01 0. -1.
         25    2    1    2    0    0  0.00000000000E+00  0.00000000000E+00 -0.70414864492E+01  0.12519916587E+03  0.12500099441E+03 0.  0.
    9000005    1    3    3    0    0 -0.82947304479E+01 -0.60378014271E+02 -0.17363109123E+02  0.63378109146E+02  0.10000000000E+01 0.  0.
    9000005    1    3    3    0    0  0.82947304479E+01  0.60378014271E+02  0.10321622673E+02  0.61821056729E+02  0.10000000000E+01 0.  0.
<mgrwt>
<rscale>  0 0.12500099E+03</rscale>
<asrwt>0</asrwt>
<pdfrwt beam="1">  1        4 0.14769710E-01 0.12500099E+03</pdfrwt>
<pdfrwt beam="2">  1       -4 0.16530081E-01 0.12500099E+03</pdfrwt>
<totfact> 0.19823797E+03</totfact>
</mgrwt>
</event>
<event>
 4    1  0.1448308E-002  0.1251005E+03  0.7818608E-02  0.1234912E+00
         -4   -1    0    0    0  501 -0.00000000000E+00  0.00000000000E+00  0.22314668733E+02  0.22350779420E+02  0.12700000000E+01 0. -1.
          4   -1    0    0  501    0  0.00000000000E+00 -0.00000000000E+00 -0.17515447729E+03  0.17515908145E+03  0.12700000000E+01 0. -1.
    9000005    1    1    2    0    0  0.38744179499E+02 -0.93130408973E+01 -0.15252589130E+03  0.15764831649E+03  0.10000000000E+01 0.  0.
    9000005    1    1    2    0    0 -0.38744179499E+02  0.93130408973E+01 -0.31391725140E+00  0.39861544374E+02  0.10000000000E+01 0.  0.
<mgrwt>
<rscale>  0 0.12510051E+03</rscale>
<asrwt>0</asrwt>
<pdfrwt beam="2">  1        4 0.43793705E-01 0.12510051E+03</pdfrwt>
<pdfrwt beam="1">  1       -4 0.55837571E-02 0.12510051E+03</pdfrwt>
<totfact> 0.16384119E+03</totfact>
</mgrwt>
</event>
<event>
 5    1  0.1448308E-002  0.1250026E+03  0.7818608E-02  0.1235065E+00
         -4   -1    0    0    0  501 -0.00000000000E+00  0.00000000000E+00  0.25272916462E+02  0.25304805996E+02  0.12700000000E+01 0. -1.
          4   -1    0    0  501    0  0.00000000000E+00 -0.00000000000E+00 -0.15443714462E+03  0.15444236640E+03  0.12700000000E+01 0. -1.
         25    2    1    2    0    0  0.00000000000E+00  0.00000000000E+00 -0.12916422816E+03  0.17974717239E+03  0.12500259256E+03 0.  0.
    9000005    1    3    3    0    0 -0.45377399443E+02 -0.32974252612E+02 -0.10419756457E+03  0.11834078831E+03  0.10000000000E+01 0.  0.
    9000005    1    3    3    0    0  0.45377399443E+02  0.32974252612E+02 -0.24966663591E+02  0.61406384085E+02  0.10000000000E+01 0.  0.
<mgrwt>
<rscale>  0 0.12500259E+03</rscale>
<asrwt>0</asrwt>
<pdfrwt beam="2">  1        4 0.38613922E-01 0.12500259E+03</pdfrwt>
<pdfrwt beam="1">  1       -4 0.63228685E-02 0.12500259E+03</pdfrwt>
<totfact> 0.17165131E+03</totfact>
</mgrwt>
</event>
<event>
 5    1  0.1448308E-002  0.1249987E+03  0.7818608E-02  0.1235071E+00
          4   -1    0    0  501    0  0.00000000000E+00  0.00000000000E+00  0.13807972349E+02  0.13866254014E+02  0.12700000000E+01 0. -1.
         -4   -1    0    0    0  501 -0.00000000000E+00 -0.00000000000E+00 -0.28223689906E+03  0.28223975640E+03  0.12700000000E+01 0. -1.
         25    2    1    2    0    0  0.00000000000E+00  0.00000000000E+00 -0.26842892671E+03  0.29610601041E+03  0.12499872282E+03 0.  0.
    9000005    1    3    3    0    0 -0.33701600454E+01 -0.62011304162E+02 -0.15069649626E+03  0.16299445944E+03  0.10000000000E+01 0.  0.
    9000005    1    3    3    0    0  0.33701600454E+01  0.62011304162E+02 -0.11773243045E+03  0.13311155097E+03  0.10000000000E+01 0.  0.
<mgrwt>
<rscale>  0 0.12499872E+03</rscale>
<asrwt>0</asrwt>
<pdfrwt beam="1">  1        4 0.34596364E-02 0.12499872E+03</pdfrwt>
<pdfrwt beam="2">  1       -4 0.70566848E-01 0.12499872E+03</pdfrwt>
<totfact> 0.13081283E+03</totfact>
</mgrwt>
</event>
<event>
 5    1  0.1448308E-002  0.1250006E+03  0.7818608E-02  0.1235068E+00
          4   -1    0    0  501    0  0.00000000000E+00  0.00000000000E+00  0.19207608986E+03  0.19208028842E+03  0.12700000000E+01 0. -1.
         -4   -1    0    0    0  501 -0.00000000000E+00 -0.00000000000E+00 -0.20312951317E+02  0.20352613867E+02  0.12700000000E+01 0. -1.
         25    2    1    2    0    0  0.00000000000E+00  0.00000000000E+00  0.17176313855E+03  0.21243290228E+03  0.12500064883E+03 0.  0.
    9000005    1    3    3    0    0  0.58707258159E+02  0.15991684157E+02  0.61667210744E+02  0.86637872802E+02  0.10000000000E+01 0.  0.
    9000005    1    3    3    0    0 -0.58707258159E+02 -0.15991684157E+02  0.11009592780E+03  0.12579502948E+03  0.10000000000E+01 0.  0.
<mgrwt>
<rscale>  0 0.12500065E+03</rscale>
<asrwt>0</asrwt>
<pdfrwt beam="1">  1        4 0.48024504E-01 0.12500065E+03</pdfrwt>
<pdfrwt beam="2">  1       -4 0.50837206E-02 0.12500065E+03</pdfrwt>
<totfact> 0.15835787E+03</totfact>
</mgrwt>
</event>
<event>
 5    1  0.1448308E-002  0.1249990E+03  0.7818608E-02  0.1235071E+00
         -4   -1    0    0    0  501 -0.00000000000E+00  0.00000000000E+00  0.92530693882E+02  0.92539408958E+02  0.12700000000E+01 0. -1.
          4   -1    0    0  501    0  0.00000000000E+00 -0.00000000000E+00 -0.42194785387E+02  0.42213893611E+02  0.12700000000E+01 0. -1.
         25    2    1    2    0    0  0.00000000000E+00  0.00000000000E+00  0.50335908495E+02  0.13475330257E+03  0.12499899547E+03 0.  0.
    9000005    1    3    3    0    0 -0.36887626684E+02 -0.46564568303E+02  0.42576527360E+01  0.59565792453E+02  0.10000000000E+01 0.  0.
    9000005    1    3    3    0    0  0.36887626684E+02  0.46564568303E+02  0.46078255759E+02  0.75187510116E+02  0.10000000000E+01 0.  0.
<mgrwt>
<rscale>  0 0.12499900E+03</rscale>
<asrwt>0</asrwt>
<pdfrwt beam="2">  1        4 0.10552174E-01 0.12499900E+03</pdfrwt>
<pdfrwt beam="1">  1       -4 0.23136151E-01 0.12499900E+03</pdfrwt>
<totfact> 0.19312519E+03</totfact>
</mgrwt>
</event>
<event>
 5    1  0.1448308E-002  0.1250060E+03  0.7818608E-02  0.1235060E+00
          4   -1    0    0  501    0  0.00000000000E+00  0.00000000000E+00  0.41976684633E+03  0.41976876751E+03  0.12700000000E+01 0. -1.
         -4   -1    0    0    0  501 -0.00000000000E+00 -0.00000000000E+00 -0.92613822100E+01  0.93480532968E+01  0.12700000000E+01 0. -1.
         25    2    1    2    0    0  0.00000000000E+00  0.00000000000E+00  0.41050546412E+03  0.42911682081E+03  0.12500603917E+03 0.  0.
    9000005    1    3    3    0    0 -0.34232199284E+02 -0.35111860526E+02  0.72260465062E+02  0.87334191634E+02  0.10000000000E+01 0.  0.
    9000005    1    3    3    0    0  0.34232199284E+02  0.35111860526E+02  0.33824499906E+03  0.34178262917E+03  0.10000000000E+01 0.  0.
<mgrwt>
<rscale>  0 0.12500604E+03</rscale>
<asrwt>0</asrwt>
<pdfrwt beam="1">  1        4 0.10495280E+00 0.12500604E+03</pdfrwt>
<pdfrwt beam="2">  1       -4 0.23264194E-02 0.12500604E+03</pdfrwt>
<totfact> 0.99876728E+02</totfact>
</mgrwt>
</event>
<event>
 5    1  0.1448308E-002  0.1249991E+03  0.7818608E-02  0.1235071E+00
          4   -1    0    0  501    0  0.00000000000E+00  0.00000000000E+00  0.10344471493E+02  0.10422139438E+02  0.12700000000E+01 0.  1.
         -4   -1    0    0    0  501 -0.00000000000E+00 -0.00000000000E+00 -0.37612081029E+03  0.37612295441E+03  0.12700000000E+01 0.  1.
         25    2    1    2    0    0  0.00000000000E+00  0.00000000000E+00 -0.36577633880E+03  0.38654509385E+03  0.12499911821E+03 0.  0.
    9000005    1    3    3    0    0  0.50614261325E+02  0.36408151284E+02 -0.19594884968E+03  0.20563148742E+03  0.10000000000E+01 0.  0.
    9000005    1    3    3    0    0 -0.50614261325E+02 -0.36408151284E+02 -0.16982748912E+03  0.18091360643E+03  0.10000000000E+01 0.  0.
<mgrwt>
<rscale>  0 0.12499912E+03</rscale>
<asrwt>0</asrwt>
<pdfrwt beam="1">  1        4 0.25960956E-02 0.12499912E+03</pdfrwt>
<pdfrwt beam="2">  1       -4 0.94040134E-01 0.12499912E+03</pdfrwt>
<totfact> 0.10851921E+03</totfact>
</mgrwt>
</event>
<event>
 4    1  0.1448308E-002  0.1249194E+03  0.7818608E-02  0.1235195E+00
         -4   -1    0    0    0  501 -0.00000000000E+00  0.00000000000E+00  0.73801919794E+01  0.74886670144E+01  0.12700000000E+01 0.  1.
          4   -1    0    0  501    0  0.00000000000E+00 -0.00000000000E+00 -0.52464048480E+03  0.52464202194E+03  0.12700000000E+01 0.  1.
    9000005    1    1    2    0    0  0.19195586385E-02 -0.62443567247E+02 -0.26292347298E+03  0.27023869401E+03  0.10000000000E+01 0.  0.
    9000005    1    1    2    0    0 -0.19195586385E-02  0.62443567247E+02 -0.25433681983E+03  0.26189199495E+03  0.10000000000E+01 0.  0.
<mgrwt>
<rscale>  0 0.12491941E+03</rscale>
<asrwt>0</asrwt>
<pdfrwt beam="2">  1        4 0.13117375E+00 0.12491941E+03</pdfrwt>
<pdfrwt beam="1">  1       -4 0.18588013E-02 0.12491941E+03</pdfrwt>
<totfact> 0.82864622E+02</totfact>
</mgrwt>
</event>
<event>
 5    1  0.1448308E-002  0.1249991E+03  0.7818608E-02  0.1235071E+00
          4   -1    0    0  501    0  0.00000000000E+00  0.00000000000E+00  0.91710581943E+02  0.91719374945E+02  0.12700000000E+01 0. -1.
         -4   -1    0    0    0  501 -0.00000000000E+00 -0.00000000000E+00 -0.42572320785E+02  0.42591259631E+02  0.12700000000E+01 0. -1.
         25    2    1    2    0    0  0.00000000000E+00  0.00000000000E+00  0.49138261159E+02  0.13431063458E+03  0.12499911140E+03 0.  0.
    9000005    1    3    3    0    0 -0.32571872946E+02 -0.32699163196E+02  0.69838724963E+02  0.83717439553E+02  0.10000000000E+01 0.  0.
    9000005    1    3    3    0    0  0.32571872946E+02  0.32699163196E+02 -0.20700463804E+02  0.50593195023E+02  0.10000000000E+01 0.  0.
<mgrwt>
<rscale>  0 0.12499911E+03</rscale>
<asrwt>0</asrwt>
<pdfrwt beam="1">  1        4 0.22931112E-01 0.12499911E+03</pdfrwt>
<pdfrwt beam="2">  1       -4 0.10646547E-01 0.12499911E+03</pdfrwt>
<totfact> 0.19335707E+03</totfact>
</mgrwt>
</event>
<event>
 5    1  0.1448308E-002  0.1250024E+03  0.7818608E-02  0.1235066E+00
         -4   -1    0    0    0  501 -0.00000000000E+00  0.00000000000E+00  0.28845831391E+02  0.28873775102E+02  0.12700000000E+01 0.  1.
          4   -1    0    0  501    0  0.00000000000E+00 -0.00000000000E+00 -0.13532688297E+03  0.13533284211E+03  0.12700000000E+01 0.  1.
         25    2    1    2    0    0  0.00000000000E+00  0.00000000000E+00 -0.10648105158E+03  0.16420661721E+03  0.12500239514E+03 0.  0.
    9000005    1    3    3    0    0  0.58026976340E+02 -0.19946108251E+02 -0.37674037836E+02  0.72009099039E+02  0.10000000000E+01 0.  0.
    9000005    1    3    3    0    0 -0.58026976340E+02  0.19946108251E+02 -0.68807013742E+02  0.92197518175E+02  0.10000000000E+01 0.  0.
<mgrwt>
<rscale>  0 0.12500240E+03</rscale>
<asrwt>0</asrwt>
<pdfrwt beam="2">  1        4 0.33835957E-01 0.12500240E+03</pdfrwt>
<pdfrwt beam="1">  1       -4 0.72156961E-02 0.12500240E+03</pdfrwt>
<totfact> 0.17860570E+03</totfact>
</mgrwt>
</event>
<event>
 5    1  0.1448308E-002  0.1250011E+03  0.7818608E-02  0.1235068E+00
         -4   -1    0    0    0  501 -0.00000000000E+00  0.00000000000E+00  0.65408986665E+02  0.65421314849E+02  0.12700000000E+01 0.  1.
          4   -1    0    0  501    0  0.00000000000E+00 -0.00000000000E+00 -0.59696696489E+02  0.59710204084E+02  0.12700000000E+01 0.  1.
         25    2    1    2    0    0  0.00000000000E+00  0.00000000000E+00  0.57122901761E+01  0.12513151893E+03  0.12500106708E+03 0.  0.
    9000005    1    3    3    0    0  0.29672840694E+02  0.39199316478E+02  0.41474284936E+02  0.64328688765E+02  0.10000000000E+01 0.  0.
    9000005    1    3    3    0    0 -0.29672840694E+02 -0.39199316478E+02 -0.35761994760E+02  0.60802830168E+02  0.10000000000E+01 0.  0.
<mgrwt>
<rscale>  0 0.12500107E+03</rscale>
<asrwt>0</asrwt>
<pdfrwt beam="2">  1        4 0.14927404E-01 0.12500107E+03</pdfrwt>
<pdfrwt beam="1">  1       -4 0.16355476E-01 0.12500107E+03</pdfrwt>
<totfact> 0.19827429E+03</totfact>
</mgrwt>
</event>
<event>
 5    1  0.1448308E-002  0.1249980E+03  0.7818608E-02  0.1235072E+00
         -4   -1    0    0    0  501 -0.00000000000E+00  0.00000000000E+00  0.61742280920E+02  0.61755341090E+02  0.12700000000E+01 0. -1.
          4   -1    0    0  501    0  0.00000000000E+00 -0.00000000000E+00 -0.63238826182E+02  0.63251577347E+02  0.12700000000E+01 0. -1.
         25    2    1    2    0    0  0.00000000000E+00  0.00000000000E+00 -0.14965452622E+01  0.12500691844E+03  0.12499796002E+03 0.  0.
    9000005    1    3    3    0    0 -0.42527801335E+02 -0.40892849389E+02  0.19851346359E+02  0.62256846770E+02  0.10000000000E+01 0.  0.
    9000005    1    3    3    0    0  0.42527801335E+02  0.40892849389E+02 -0.21347891621E+02  0.62750071667E+02  0.10000000000E+01 0.  0.
<mgrwt>
<rscale>  0 0.12499796E+03</rscale>
<asrwt>0</asrwt>
<pdfrwt beam="2">  1        4 0.15812933E-01 0.12499796E+03</pdfrwt>
<pdfrwt beam="1">  1       -4 0.15438797E-01 0.12499796E+03</pdfrwt>
<totfact> 0.19835627E+03</totfact>
</mgrwt>
</event>
<event>
 5    1  0.1448308E-002  0.1250001E+03  0.7818608E-02  0.1235069E+00
          4   -1    0    0  501    0  0.00000000000E+00  0.00000000000E+00  0.51000090539E+03  0.51000248666E+03  0.12700000000E+01 0.  1.
         -4   -1    0    0    0  501 -0.00000000000E+00 -0.00000000000E+00 -0.76050590838E+01  0.77103711758E+01  0.12700000000E+01 0.  1.
         25    2    1    2    0    0  0.00000000000E+00  0.00000000000E+00  0.50239584631E+03  0.51771285784E+03  0.12500006713E+03 0.  0.
    9000005    1    3    3    0    0 -0.25646646991E+02 -0.52469222285E+02  0.15909890394E+03  0.16948224398E+03  0.10000000000E+01 0.  0.
    9000005    1    3    3    0    0  0.25646646991E+02  0.52469222285E+02  0.34329694237E+03  0.34823061386E+03  0.10000000000E+01 0.  0.
<mgrwt>
<rscale>  0 0.12500007E+03</rscale>
<asrwt>0</asrwt>
<pdfrwt beam="1">  1        4 0.12751358E+00 0.12500007E+03</pdfrwt>
<pdfrwt beam="2">  1       -4 0.19146265E-02 0.12500007E+03</pdfrwt>
<totfact> 0.84856562E+02</totfact>
</mgrwt>
</event>
<event>
 5    1  0.1448308E-002  0.1250024E+03  0.7818608E-02  0.1235066E+00
         -4   -1    0    0    0  501 -0.00000000000E+00  0.00000000000E+00  0.45911749735E+03  0.45911925387E+03  0.12700000000E+01 0.  1.
          4   -1    0    0  501    0  0.00000000000E+00 -0.00000000000E+00 -0.84593232619E+01  0.85541247390E+01  0.12700000000E+01 0.  1.
         25    2    1    2    0    0  0.00000000000E+00  0.00000000000E+00  0.45065817409E+03  0.46767337861E+03  0.12500239672E+03 0.  0.
    9000005    1    3    3    0    0  0.46761360729E+02 -0.41292006971E+02  0.21145839102E+03  0.22047064618E+03  0.10000000000E+01 0.  0.
    9000005    1    3    3    0    0 -0.46761360729E+02  0.41292006971E+02  0.23919978307E+03  0.24720273243E+03  0.10000000000E+01 0.  0.
<mgrwt>
<rscale>  0 0.12500240E+03</rscale>
<asrwt>0</asrwt>
<pdfrwt beam="2">  1        4 0.21269006E-02 0.12500240E+03</pdfrwt>
<pdfrwt beam="1">  1       -4 0.11479144E+00 0.12500240E+03</pdfrwt>
<totfact> 0.92923277E+02</totfact>
</mgrwt>
</event>
<event>
 5    1  0.1448308E-002  0.1250033E+03  0.7818608E-02  0.1235064E+00
          4   -1    0    0  501    0  0.00000000000E+00  0.00000000000E+00  0.38915781292E+02  0.38936498733E+02  0.12700000000E+01 0.  1.
         -4   -1    0    0    0  501 -0.00000000000E+00 -0.00000000000E+00 -0.10033081365E+03  0.10033885124E+03  0.12700000000E+01 0.  1.
         25    2    1    2    0    0  0.00000000000E+00  0.00000000000E+00 -0.61415032361E+02  0.13927534997E+03  0.12500326760E+03 0.  0.
    9000005    1    3    3    0    0  0.38576100252E+02  0.48318574709E+02 -0.20578086931E+02  0.65170989207E+02  0.10000000000E+01 0.  0.
    9000005    1    3    3    0    0 -0.38576100252E+02 -0.48318574709E+02 -0.40836945429E+02  0.74104360766E+02  0.10000000000E+01 0.  0.
<mgrwt>
<rscale>  0 0.12500327E+03</rscale>
<asrwt>0</asrwt>
<pdfrwt beam="1">  1        4 0.97325399E-02 0.12500327E+03</pdfrwt>
<pdfrwt beam="2">  1       -4 0.25086297E-01 0.12500327E+03</pdfrwt>
<totfact> 0.19076022E+03</totfact>
</mgrwt>
</event>
<event>
 5    1  0.1448308E-002  0.1250063E+03  0.7818608E-02  0.1235059E+00
         -4   -1    0    0    0  501 -0.00000000000E+00  0.00000000000E+00  0.28430751096E+02  0.28459102373E+02  0.12700000000E+01 0.  1.
          4   -1    0    0  501    0  0.00000000000E+00 -0.00000000000E+00 -0.13730942998E+03  0.13731530309E+03  0.12700000000E+01 0.  1.
         25    2    1    2    0    0  0.00000000000E+00  0.00000000000E+00 -0.10887867889E+03  0.16577440546E+03  0.12500634700E+03 0.  0.
    9000005    1    3    3    0    0  0.10547969670E+02  0.58740286671E+02 -0.79034123747E+02  0.99040767661E+02  0.10000000000E+01 0.  0.
    9000005    1    3    3    0    0 -0.10547969670E+02 -0.58740286671E+02 -0.29844555138E+02  0.66733637798E+02  0.10000000000E+01 0.  0.
<mgrwt>
<rscale>  0 0.12500635E+03</rscale>
<asrwt>0</asrwt>
<pdfrwt beam="2">  1        4 0.34331634E-01 0.12500635E+03</pdfrwt>
<pdfrwt beam="1">  1       -4 0.71119662E-02 0.12500635E+03</pdfrwt>
<totfact> 0.17786719E+03</totfact>
</mgrwt>
</event>
<event>
 5    1  0.1448308E-002  0.1250082E+03  0.7818608E-02  0.1235057E+00
          4   -1    0    0  501    0  0.00000000000E+00  0.00000000000E+00  0.99821176831E+01  0.10062582841E+02  0.12700000000E+01 0. -1.
         -4   -1    0    0    0  501 -0.00000000000E+00 -0.00000000000E+00 -0.38972334735E+03  0.38972541663E+03  0.12700000000E+01 0. -1.
         25    2    1    2    0    0  0.00000000000E+00  0.00000000000E+00 -0.37974122966E+03  0.39978799947E+03  0.12500817179E+03 0.  0.
    9000005    1    3    3    0    0  0.34605369942E+02  0.16089905337E+02 -0.31594183994E+02  0.49554103209E+02  0.10000000000E+01 0.  0.
    9000005    1    3    3    0    0 -0.34605369942E+02 -0.16089905337E+02 -0.34814704567E+03  0.35023389626E+03  0.10000000000E+01 0.  0.
<mgrwt>
<rscale>  0 0.12500817E+03</rscale>
<asrwt>0</asrwt>
<pdfrwt beam="1">  1        4 0.25058475E-02 0.12500817E+03</pdfrwt>
<pdfrwt beam="2">  1       -4 0.97441103E-01 0.12500817E+03</pdfrwt>
<totfact> 0.10571605E+03</totfact>
</mgrwt>
</event>
<event>
 5    1  0.1448308E-002  0.1249939E+03  0.7818608E-02  0.1235079E+00
         -4   -1    0    0    0  501 -0.00000000000E+00  0.00000000000E+00  0.19784491742E+03  0.19784899355E+03  0.12700000000E+01 0. -1.
          4   -1    0    0  501    0  0.00000000000E+00 -0.00000000000E+00 -0.19717367316E+02  0.19758225474E+02  0.12700000000E+01 0. -1.
         25    2    1    2    0    0  0.00000000000E+00  0.00000000000E+00  0.17812755010E+03  0.21760721902E+03  0.12499391051E+03 0.  0.
    9000005    1    3    3    0    0 -0.39516386102E+02 -0.42377281486E+02  0.12979925153E+03  0.14214859990E+03  0.10000000000E+01 0.  0.
    9000005    1    3    3    0    0  0.39516386102E+02  0.42377281486E+02  0.48328298575E+02  0.75458619122E+02  0.10000000000E+01 0.  0.
<mgrwt>
<rscale>  0 0.12499391E+03</rscale>
<asrwt>0</asrwt>
<pdfrwt beam="2">  1        4 0.49349587E-02 0.12499391E+03</pdfrwt>
<pdfrwt beam="1">  1       -4 0.49466845E-01 0.12499391E+03</pdfrwt>
<totfact> 0.15642679E+03</totfact>
</mgrwt>
</event>
<event>
 5    1  0.1448308E-002  0.1250041E+03  0.7818608E-02  0.1235063E+00
         -4   -1    0    0    0  501 -0.00000000000E+00  0.00000000000E+00  0.12344313139E+02  0.12409470854E+02  0.12700000000E+01 0. -1.
          4   -1    0    0  501    0  0.00000000000E+00 -0.00000000000E+00 -0.31556261417E+03  0.31556516975E+03  0.12700000000E+01 0. -1.
         25    2    1    2    0    0  0.00000000000E+00  0.00000000000E+00 -0.30321830103E+03  0.32797464060E+03  0.12500410714E+03 0.  0.
    9000005    1    3    3    0    0  0.44581547255E+02  0.67006903235E+00 -0.36717471007E+02  0.57767949811E+02  0.10000000000E+01 0.  0.
    9000005    1    3    3    0    0 -0.44581547255E+02 -0.67006903235E+00 -0.26650083002E+03  0.27020669079E+03  0.10000000000E+01 0.  0.
<mgrwt>
<rscale>  0 0.12500411E+03</rscale>
<asrwt>0</asrwt>
<pdfrwt beam="2">  1        4 0.78899091E-01 0.12500411E+03</pdfrwt>
<pdfrwt beam="1">  1       -4 0.30945435E-02 0.12500411E+03</pdfrwt>
<totfact> 0.12220570E+03</totfact>
</mgrwt>
</event>
<event>
 5    1  0.1448308E-002  0.1249985E+03  0.7818608E-02  0.1235072E+00
         -4   -1    0    0    0  501 -0.00000000000E+00  0.00000000000E+00  0.27118826989E+02  0.27148548346E+02  0.12700000000E+01 0. -1.
          4   -1    0    0  501    0  0.00000000000E+00 -0.00000000000E+00 -0.14392714267E+03  0.14393274574E+03  0.12700000000E+01 0. -1.
         25    2    1    2    0    0  0.00000000000E+00  0.00000000000E+00 -0.11680831568E+03  0.17108129409E+03  0.12499850629E+03 0.  0.
    9000005    1    3    3    0    0 -0.58041041199E+01  0.32654964187E+01  0.26638469295E+02  0.27476519755E+02  0.10000000000E+01 0.  0.
    9000005    1    3    3    0    0  0.58041041199E+01 -0.32654964187E+01 -0.14344678497E+03  0.14360477433E+03  0.10000000000E+01 0.  0.
<mgrwt>
<rscale>  0 0.12499851E+03</rscale>
<asrwt>0</asrwt>
<pdfrwt beam="2">  1        4 0.35986199E-01 0.12499851E+03</pdfrwt>
<pdfrwt beam="1">  1       -4 0.67841227E-02 0.12499851E+03</pdfrwt>
<totfact> 0.17548995E+03</totfact>
</mgrwt>
</event>
<event>
 5    1  0.1448308E-002  0.1249856E+03  0.7818608E-02  0.1235092E+00
          4   -1    0    0  501    0  0.00000000000E+00  0.00000000000E+00  0.16459899321E+03  0.16460389262E+03  0.12700000000E+01 0. -1.
         -4   -1    0    0    0  501 -0.00000000000E+00 -0.00000000000E+00 -0.23704199727E+02  0.23738196745E+02  0.12700000000E+01 0. -1.
         25    2    1    2    0    0  0.00000000000E+00  0.00000000000E+00  0.14089479348E+03  0.18834208937E+03  0.12498559836E+03 0.  0.
    9000005    1    3    3    0    0 -0.94781245778E+01 -0.51490809236E+02  0.12184191329E+03  0.13261821185E+03  0.10000000000E+01 0.  0.
    9000005    1    3    3    0    0  0.94781245778E+01  0.51490809236E+02  0.19052880194E+02  0.55723877512E+02  0.10000000000E+01 0.  0.
<mgrwt>
<rscale>  0 0.12498560E+03</rscale>
<asrwt>0</asrwt>
<pdfrwt beam="1">  1        4 0.41154610E-01 0.12498560E+03</pdfrwt>
<pdfrwt beam="2">  1       -4 0.59309121E-02 0.12498560E+03</pdfrwt>
<totfact> 0.16805340E+03</totfact>
</mgrwt>
</event>
<event>
 5    1  0.1448308E-002  0.1250152E+03  0.7818608E-02  0.1235045E+00
         -4   -1    0    0    0  501 -0.00000000000E+00  0.00000000000E+00  0.99062638869E+02  0.99070779343E+02  0.12700000000E+01 0. -1.
          4   -1    0    0  501    0  0.00000000000E+00 -0.00000000000E+00 -0.39421747096E+02  0.39442198774E+02  0.12700000000E+01 0. -1.
         25    2    1    2    0    0  0.00000000000E+00  0.00000000000E+00  0.59640891773E+02  0.13851297812E+03  0.12501523561E+03 0.  0.
    9000005    1    3    3    0    0 -0.57180012879E+02 -0.18835288025E+01  0.19422971735E+01  0.57252721088E+02  0.10000000000E+01 0.  0.
    9000005    1    3    3    0    0  0.57180012879E+02  0.18835288025E+01  0.57698594599E+02  0.81260257029E+02  0.10000000000E+01 0.  0.
<mgrwt>
<rscale>  0 0.12501524E+03</rscale>
<asrwt>0</asrwt>
<pdfrwt beam="2">  1        4 0.98590109E-02 0.12501524E+03</pdfrwt>
<pdfrwt beam="1">  1       -4 0.24769234E-01 0.12501524E+03</pdfrwt>
<totfact> 0.19109885E+03</totfact>
</mgrwt>
</event>
<event>
 5    1  0.1448308E-002  0.1250003E+03  0.7818608E-02  0.1235069E+00
          4   -1    0    0  501    0  0.00000000000E+00  0.00000000000E+00  0.21665746893E+03  0.21666119114E+03  0.12700000000E+01 0.  1.
         -4   -1    0    0    0  501 -0.00000000000E+00 -0.00000000000E+00 -0.18003456247E+02  0.18048194836E+02  0.12700000000E+01 0.  1.
         25    2    1    2    0    0  0.00000000000E+00  0.00000000000E+00  0.19865401269E+03  0.23470938597E+03  0.12500031643E+03 0.  0.
    9000005    1    3    3    0    0 -0.11217154600E+02  0.49535813445E+02  0.16769195970E+03  0.17521762103E+03  0.10000000000E+01 0.  0.
    9000005    1    3    3    0    0  0.11217154600E+02 -0.49535813445E+02  0.30962052986E+02  0.59491764943E+02  0.10000000000E+01 0.  0.
<mgrwt>
<rscale>  0 0.12500032E+03</rscale>
<asrwt>0</asrwt>
<pdfrwt beam="1">  1        4 0.54170424E-01 0.12500032E+03</pdfrwt>
<pdfrwt beam="2">  1       -4 0.45069217E-02 0.12500032E+03</pdfrwt>
<totfact> 0.15020373E+03</totfact>
</mgrwt>
</event>
<event>
 5    1  0.1448308E-002  0.1250254E+03  0.7818608E-02  0.1235030E+00
          4   -1    0    0  501    0  0.00000000000E+00  0.00000000000E+00  0.19049917782E+03  0.19050341112E+03  0.12700000000E+01 0.  1.
         -4   -1    0    0    0  501 -0.00000000000E+00 -0.00000000000E+00 -0.20489565835E+02  0.20528887162E+02  0.12700000000E+01 0.  1.
         25    2    1    2    0    0  0.00000000000E+00  0.00000000000E+00  0.17000961198E+03  0.21103229828E+03  0.12502544842E+03 0.  0.
    9000005    1    3    3    0    0 -0.15350294954E+02 -0.57964544002E+02  0.11478685383E+03  0.12950884807E+03  0.10000000000E+01 0.  0.
    9000005    1    3    3    0    0  0.15350294954E+02  0.57964544002E+02  0.55222758155E+02  0.81523450214E+02  0.10000000000E+01 0.  0.
<mgrwt>
<rscale>  0 0.12502545E+03</rscale>
<asrwt>0</asrwt>
<pdfrwt beam="1">  1        4 0.47630238E-01 0.12502545E+03</pdfrwt>
<pdfrwt beam="2">  1       -4 0.51278359E-02 0.12502545E+03</pdfrwt>
<totfact> 0.15880284E+03</totfact>
</mgrwt>
</event>
<event>
 5    1  0.1448308E-002  0.1249938E+03  0.7818608E-02  0.1235079E+00
          4   -1    0    0  501    0  0.00000000000E+00  0.00000000000E+00  0.27743571781E+03  0.27743862460E+03  0.12700000000E+01 0.  1.
         -4   -1    0    0    0  501 -0.00000000000E+00 -0.00000000000E+00 -0.14046820378E+02  0.14104115099E+02  0.12700000000E+01 0.  1.
         25    2    1    2    0    0  0.00000000000E+00  0.00000000000E+00  0.26338889744E+03  0.29154273970E+03  0.12499383096E+03 0.  0.
    9000005    1    3    3    0    0  0.71735461951E+01 -0.61861028089E+02  0.11966071469E+03  0.13489971535E+03  0.10000000000E+01 0.  0.
    9000005    1    3    3    0    0 -0.71735461951E+01  0.61861028089E+02  0.14372818275E+03  0.15664302435E+03  0.10000000000E+01 0.  0.
<mgrwt>
<rscale>  0 0.12499383E+03</rscale>
<asrwt>0</asrwt>
<pdfrwt beam="1">  1        4 0.69366454E-01 0.12499383E+03</pdfrwt>
<pdfrwt beam="2">  1       -4 0.35192303E-02 0.12499383E+03</pdfrwt>
<totfact> 0.13213309E+03</totfact>
</mgrwt>
</event>
<event>
 5    1  0.1448308E-002  0.1249992E+03  0.7818608E-02  0.1235071E+00
          4   -1    0    0  501    0  0.00000000000E+00  0.00000000000E+00  0.54814094566E+02  0.54828805049E+02  0.12700000000E+01 0.  1.
         -4   -1    0    0    0  501 -0.00000000000E+00 -0.00000000000E+00 -0.71232753098E+02  0.71244073536E+02  0.12700000000E+01 0.  1.
         25    2    1    2    0    0  0.00000000000E+00  0.00000000000E+00 -0.16418658532E+02  0.12607287858E+03  0.12499919346E+03 0.  0.
    9000005    1    3    3    0    0  0.37760239054E+02 -0.98166237585E+01  0.41025936016E+02  0.56624457449E+02  0.10000000000E+01 0.  0.
    9000005    1    3    3    0    0 -0.37760239054E+02  0.98166237585E+01 -0.57444594548E+02  0.69448421135E+02  0.10000000000E+01 0.  0.
<mgrwt>
<rscale>  0 0.12499919E+03</rscale>
<asrwt>0</asrwt>
<pdfrwt beam="1">  1        4 0.13706778E-01 0.12499919E+03</pdfrwt>
<pdfrwt beam="2">  1       -4 0.17811442E-01 0.12499919E+03</pdfrwt>
<totfact> 0.19777355E+03</totfact>
</mgrwt>
</event>
<event>
 5    1  0.1448308E-002  0.1249991E+03  0.7818608E-02  0.1235071E+00
          4   -1    0    0  501    0  0.00000000000E+00  0.00000000000E+00  0.55534984303E+02  0.55549503882E+02  0.12700000000E+01 0.  1.
         -4   -1    0    0    0  501 -0.00000000000E+00 -0.00000000000E+00 -0.70308123871E+02  0.70319593160E+02  0.12700000000E+01 0.  1.
         25    2    1    2    0    0  0.00000000000E+00  0.00000000000E+00 -0.14773139567E+02  0.12586909704E+03  0.12499913575E+03 0.  0.
    9000005    1    3    3    0    0 -0.28171559868E+02  0.38890857718E+02 -0.47653130654E+02  0.67660597549E+02  0.10000000000E+01 0.  0.
    9000005    1    3    3    0    0  0.28171559868E+02 -0.38890857718E+02  0.32879991087E+02  0.58208499494E+02  0.10000000000E+01 0.  0.
<mgrwt>
<rscale>  0 0.12499914E+03</rscale>
<asrwt>0</asrwt>
<pdfrwt beam="1">  1        4 0.13886995E-01 0.12499914E+03</pdfrwt>
<pdfrwt beam="2">  1       -4 0.17580280E-01 0.12499914E+03</pdfrwt>
<totfact> 0.19788396E+03</totfact>
</mgrwt>
</event>
<event>
 5    1  0.1448308E-002  0.1249995E+03  0.7818608E-02  0.1235070E+00
         -4   -1    0    0    0  501 -0.00000000000E+00  0.00000000000E+00  0.10140032772E+03  0.10140828053E+03  0.12700000000E+01 0.  1.
          4   -1    0    0  501    0  0.00000000000E+00 -0.00000000000E+00 -0.38502781496E+02  0.38523721042E+02  0.12700000000E+01 0.  1.
         25    2    1    2    0    0  0.00000000000E+00  0.00000000000E+00  0.62897546220E+02  0.13993200158E+03  0.12499945498E+03 0.  0.
    9000005    1    3    3    0    0  0.32150282342E+02 -0.22867570759E+02  0.85701057641E+02  0.94351670509E+02  0.10000000000E+01 0.  0.
    9000005    1    3    3    0    0 -0.32150282342E+02  0.22867570759E+02 -0.22803511421E+02  0.45580331067E+02  0.10000000000E+01 0.  0.
<mgrwt>
<rscale>  0 0.12499945E+03</rscale>
<asrwt>0</asrwt>
<pdfrwt beam="2">  1        4 0.96293070E-02 0.12499945E+03</pdfrwt>
<pdfrwt beam="1">  1       -4 0.25353693E-01 0.12499945E+03</pdfrwt>
<totfact> 0.19044063E+03</totfact>
</mgrwt>
</event>
<event>
 5    1  0.1448308E-002  0.1249999E+03  0.7818608E-02  0.1235069E+00
         -4   -1    0    0    0  501 -0.00000000000E+00  0.00000000000E+00  0.55895256181E+02  0.55909682199E+02  0.12700000000E+01 0.  1.
          4   -1    0    0  501    0  0.00000000000E+00 -0.00000000000E+00 -0.69855823581E+02  0.69867367119E+02  0.12700000000E+01 0.  1.
         25    2    1    2    0    0  0.00000000000E+00  0.00000000000E+00 -0.13960567400E+02  0.12577704932E+03  0.12499987477E+03 0.  0.
    9000005    1    3    3    0    0 -0.29521922575E+02 -0.89925961794E+01  0.47697531763E+02  0.56819584958E+02  0.10000000000E+01 0.  0.
    9000005    1    3    3    0    0  0.29521922575E+02  0.89925961794E+01 -0.61658099162E+02  0.68957464360E+02  0.10000000000E+01 0.  0.
<mgrwt>
<rscale>  0 0.12499987E+03</rscale>
<asrwt>0</asrwt>
<pdfrwt beam="2">  1        4 0.17467202E-01 0.12499987E+03</pdfrwt>
<pdfrwt beam="1">  1       -4 0.13977060E-01 0.12499987E+03</pdfrwt>
<totfact> 0.19793031E+03</totfact>
</mgrwt>
</event>
<event>
 5    1  0.1448308E-002  0.1250024E+03  0.7818608E-02  0.1235065E+00
         -4   -1    0    0    0  501 -0.00000000000E+00  0.00000000000E+00  0.46872706357E+02  0.46889908309E+02  0.12700000000E+01 0. -1.
          4   -1    0    0  501    0  0.00000000000E+00 -0.00000000000E+00 -0.83303319520E+02  0.83312999844E+02  0.12700000000E+01 0. -1.
         25    2    1    2    0    0  0.00000000000E+00  0.00000000000E+00 -0.36430613163E+02  0.13020290815E+03  0.12500243084E+03 0.  0.
    9000005    1    3    3    0    0  0.21955245460E+01  0.60599229858E+02 -0.24765871623E+01  0.60697779789E+02  0.10000000000E+01 0.  0.
    9000005    1    3    3    0    0 -0.21955245460E+01 -0.60599229858E+02 -0.33954026000E+02  0.69505128365E+02  0.10000000000E+01 0.  0.
<mgrwt>
<rscale>  0 0.12500243E+03</rscale>
<asrwt>0</asrwt>
<pdfrwt beam="2">  1        4 0.20829190E-01 0.12500243E+03</pdfrwt>
<pdfrwt beam="1">  1       -4 0.11721537E-01 0.12500243E+03</pdfrwt>
<totfact> 0.19552371E+03</totfact>
</mgrwt>
</event>
<event>
 5    1  0.1448308E-002  0.1249990E+03  0.7818608E-02  0.1235071E+00
          4   -1    0    0  501    0  0.00000000000E+00  0.00000000000E+00  0.63963635724E+02  0.63976242427E+02  0.12700000000E+01 0. -1.
         -4   -1    0    0    0  501 -0.00000000000E+00 -0.00000000000E+00 -0.61043654850E+02  0.61056864458E+02  0.12700000000E+01 0. -1.
         25    2    1    2    0    0  0.00000000000E+00  0.00000000000E+00  0.29199808740E+01  0.12503310689E+03  0.12499900611E+03 0.  0.
    9000005    1    3    3    0    0 -0.38278438227E+02  0.18139151015E+02  0.47417276693E+02  0.63589824357E+02  0.10000000000E+01 0.  0.
    9000005    1    3    3    0    0  0.38278438227E+02 -0.18139151015E+02 -0.44497295819E+02  0.61443282529E+02  0.10000000000E+01 0.  0.
<mgrwt>
<rscale>  0 0.12499901E+03</rscale>
<asrwt>0</asrwt>
<pdfrwt beam="1">  1        4 0.15994136E-01 0.12499901E+03</pdfrwt>
<pdfrwt beam="2">  1       -4 0.15264141E-01 0.12499901E+03</pdfrwt>
<totfact> 0.19833721E+03</totfact>
</mgrwt>
</event>
<event>
 5    1  0.1448308E-002  0.1250015E+03  0.7818608E-02  0.1235067E+00
         -4   -1    0    0    0  501 -0.00000000000E+00  0.00000000000E+00  0.79509404597E+01  0.80517298883E+01  0.12700000000E+01 0. -1.
          4   -1    0    0  501    0  0.00000000000E+00 -0.00000000000E+00 -0.48810975304E+03  0.48811140523E+03  0.12700000000E+01 0. -1.
         25    2    1    2    0    0  0.00000000000E+00  0.00000000000E+00 -0.48015881258E+03  0.49616313512E+03  0.12500148539E+03 0.  0.
    9000005    1    3    3    0    0  0.36894663253E+02 -0.50430680501E+02 -0.24378832669E+03  0.25167085239E+03  0.10000000000E+01 0.  0.
    9000005    1    3    3    0    0 -0.36894663253E+02  0.50430680501E+02 -0.23637048589E+03  0.24449228273E+03  0.10000000000E+01 0.  0.
<mgrwt>
<rscale>  0 0.12500149E+03</rscale>
<asrwt>0</asrwt>
<pdfrwt beam="2">  1        4 0.12204014E+00 0.12500149E+03</pdfrwt>
<pdfrwt beam="1">  1       -4 0.20005420E-02 0.12500149E+03</pdfrwt>
<totfact> 0.88217481E+02</totfact>
</mgrwt>
</event>
<event>
 5    1  0.1448308E-002  0.1250024E+03  0.7818608E-02  0.1235066E+00
          4   -1    0    0  501    0  0.00000000000E+00  0.00000000000E+00  0.15418142541E+03  0.15418665584E+03  0.12700000000E+01 0.  1.
         -4   -1    0    0    0  501 -0.00000000000E+00 -0.00000000000E+00 -0.25314797562E+02  0.25346634404E+02  0.12700000000E+01 0.  1.
         25    2    1    2    0    0  0.00000000000E+00  0.00000000000E+00  0.12886662784E+03  0.17953329025E+03  0.12500237812E+03 0.  0.
    9000005    1    3    3    0    0 -0.18789901454E+02  0.45703951810E+02  0.94892026325E+01  0.50328486708E+02  0.10000000000E+01 0.  0.
    9000005    1    3    3    0    0  0.18789901454E+02 -0.45703951810E+02  0.11937742521E+03  0.12920480354E+03  0.10000000000E+01 0.  0.
<mgrwt>
<rscale>  0 0.12500238E+03</rscale>
<asrwt>0</asrwt>
<pdfrwt beam="1">  1        4 0.38549989E-01 0.12500238E+03</pdfrwt>
<pdfrwt beam="2">  1       -4 0.63333329E-02 0.12500238E+03</pdfrwt>
<totfact> 0.17174487E+03</totfact>
</mgrwt>
</event>
<event>
 5    1  0.1448308E-002  0.1249836E+03  0.7818608E-02  0.1235095E+00
         -4   -1    0    0    0  501 -0.00000000000E+00  0.00000000000E+00  0.10803377493E+02  0.10877769314E+02  0.12700000000E+01 0. -1.
          4   -1    0    0  501    0  0.00000000000E+00 -0.00000000000E+00 -0.36016623876E+03  0.36016847785E+03  0.12700000000E+01 0. -1.
         25    2    1    2    0    0  0.00000000000E+00  0.00000000000E+00 -0.34936286126E+03  0.37104624717E+03  0.12498363376E+03 0.  0.
    9000005    1    3    3    0    0  0.27873869324E+02  0.11693326163E+02 -0.33703048211E+03  0.33838474011E+03  0.10000000000E+01 0.  0.
    9000005    1    3    3    0    0 -0.27873869324E+02 -0.11693326163E+02 -0.12332379156E+02  0.32661507061E+02  0.10000000000E+01 0.  0.
<mgrwt>
<rscale>  0 0.12498363E+03</rscale>
<asrwt>0</asrwt>
<pdfrwt beam="2">  1        4 0.90051099E-01 0.12498363E+03</pdfrwt>
<pdfrwt beam="1">  1       -4 0.27104244E-02 0.12498363E+03</pdfrwt>
<totfact> 0.11195151E+03</totfact>
</mgrwt>
</event>
<event>
 5    1  0.1448308E-002  0.1250001E+03  0.7818608E-02  0.1235069E+00
         -4   -1    0    0    0  501 -0.00000000000E+00  0.00000000000E+00  0.12678187314E+02  0.12741637790E+02  0.12700000000E+01 0.  1.
          4   -1    0    0  501    0  0.00000000000E+00 -0.00000000000E+00 -0.30727438590E+03  0.30727701041E+03  0.12700000000E+01 0.  1.
         25    2    1    2    0    0  0.00000000000E+00  0.00000000000E+00 -0.29459619858E+03  0.32001864820E+03  0.12500005991E+03 0.  0.
    9000005    1    3    3    0    0 -0.61842322121E+02 -0.10402473595E+01 -0.17015361491E+03  0.18104918554E+03  0.10000000000E+01 0.  0.
    9000005    1    3    3    0    0  0.61842322121E+02  0.10402473595E+01 -0.12444258367E+03  0.13896946266E+03  0.10000000000E+01 0.  0.
<mgrwt>
<rscale>  0 0.12500006E+03</rscale>
<asrwt>0</asrwt>
<pdfrwt beam="2">  1        4 0.76826831E-01 0.12500006E+03</pdfrwt>
<pdfrwt beam="1">  1       -4 0.31778072E-02 0.12500006E+03</pdfrwt>
<totfact> 0.12427965E+03</totfact>
</mgrwt>
</event>
<event>
 5    1  0.1448308E-002  0.1250050E+03  0.7818608E-02  0.1235061E+00
          4   -1    0    0  501    0  0.00000000000E+00  0.00000000000E+00  0.24560436229E+02  0.24593249638E+02  0.12700000000E+01 0. -1.
         -4   -1    0    0    0  501 -0.00000000000E+00 -0.00000000000E+00 -0.15891757837E+03  0.15892265293E+03  0.12700000000E+01 0. -1.
         25    2    1    2    0    0  0.00000000000E+00  0.00000000000E+00 -0.13435714214E+03  0.18351590257E+03  0.12500497931E+03 0.  0.
    9000005    1    3    3    0    0 -0.58594426327E+02  0.13607289728E+02 -0.92053395547E+02  0.10996950833E+03  0.10000000000E+01 0.  0.
    9000005    1    3    3    0    0  0.58594426327E+02 -0.13607289728E+02 -0.42303746596E+02  0.73546394245E+02  0.10000000000E+01 0.  0.
<mgrwt>
<rscale>  0 0.12500498E+03</rscale>
<asrwt>0</asrwt>
<pdfrwt beam="1">  1        4 0.61448455E-02 0.12500498E+03</pdfrwt>
<pdfrwt beam="2">  1       -4 0.39734128E-01 0.12500498E+03</pdfrwt>
<totfact> 0.17002116E+03</totfact>
</mgrwt>
</event>
<event>
 5    1  0.1448308E-002  0.1249912E+03  0.7818608E-02  0.1235083E+00
         -4   -1    0    0    0  501 -0.00000000000E+00  0.00000000000E+00  0.56469548930E+01  0.57880047999E+01  0.12700000000E+01 0.  1.
          4   -1    0    0  501    0  0.00000000000E+00 -0.00000000000E+00 -0.68297442992E+03  0.68297561071E+03  0.12700000000E+01 0.  1.
         25    2    1    2    0    0  0.00000000000E+00  0.00000000000E+00 -0.67732747502E+03  0.68876361551E+03  0.12499123819E+03 0.  0.
    9000005    1    3    3    0    0  0.15528375321E+02 -0.60063252016E+02 -0.29743517038E+03  0.30383779432E+03  0.10000000000E+01 0.  0.
    9000005    1    3    3    0    0 -0.15528375321E+02  0.60063252016E+02 -0.37989230465E+03  0.38492582118E+03  0.10000000000E+01 0.  0.
<mgrwt>
<rscale>  0 0.12499124E+03</rscale>
<asrwt>0</asrwt>
<pdfrwt beam="2">  1        4 0.17076111E+00 0.12499124E+03</pdfrwt>
<pdfrwt beam="1">  1       -4 0.14295199E-02 0.12499124E+03</pdfrwt>
<totfact> 0.63256612E+02</totfact>
</mgrwt>
</event>
<event>
 4    1  0.1448308E-002  0.1251064E+03  0.7818608E-02  0.1234903E+00
         -4   -1    0    0    0  501 -0.00000000000E+00  0.00000000000E+00  0.19950938620E+03  0.19951342832E+03  0.12700000000E+01 0. -1.
          4   -1    0    0  501    0  0.00000000000E+00 -0.00000000000E+00 -0.19587820836E+02  0.19628948649E+02  0.12700000000E+01 0. -1.
    9000005    1    1    2    0    0 -0.45732587530E+02  0.14357711679E+02  0.19582681773E+02  0.51788945464E+02  0.10000000000E+01 0.  0.
    9000005    1    1    2    0    0  0.45732587530E+02 -0.14357711679E+02  0.16033888359E+03  0.16735343151E+03  0.10000000000E+01 0.  0.
<mgrwt>
<rscale>  0 0.12510640E+03</rscale>
<asrwt>0</asrwt>
<pdfrwt beam="2">  1        4 0.49026015E-02 0.12510640E+03</pdfrwt>
<pdfrwt beam="1">  1       -4 0.49882992E-01 0.12510640E+03</pdfrwt>
<totfact> 0.15544997E+03</totfact>
</mgrwt>
</event>
<event>
 5    1  0.1448308E-002  0.1250032E+03  0.7818608E-02  0.1235064E+00
          4   -1    0    0  501    0  0.00000000000E+00  0.00000000000E+00  0.26655602809E+01  0.29526448502E+01  0.12700000000E+01 0. -1.
         -4   -1    0    0    0  501 -0.00000000000E+00 -0.00000000000E+00 -0.13903523605E+04  0.13903529406E+04  0.12700000000E+01 0. -1.
         25    2    1    2    0    0  0.00000000000E+00  0.00000000000E+00 -0.13876868003E+04  0.13933055854E+04  0.12500319499E+03 0.  0.
    9000005    1    3    3    0    0 -0.25524933652E+02 -0.28801413696E+02 -0.14502591219E+03  0.15004852174E+03  0.10000000000E+01 0.  0.
    9000005    1    3    3    0    0  0.25524933652E+02  0.28801413696E+02 -0.12426608881E+04  0.12432570637E+04  0.10000000000E+01 0.  0.
<mgrwt>
<rscale>  0 0.12500319E+03</rscale>
<asrwt>0</asrwt>
<pdfrwt beam="1">  1        4 0.70235292E-03 0.12500319E+03</pdfrwt>
<pdfrwt beam="2">  1       -4 0.34762169E+00 0.12500319E+03</pdfrwt>
<totfact> 0.16350583E+02</totfact>
</mgrwt>
</event>
<event>
 5    1  0.1448308E-002  0.1249964E+03  0.7818608E-02  0.1235075E+00
         -4   -1    0    0    0  501 -0.00000000000E+00  0.00000000000E+00  0.10255957718E+03  0.10256744011E+03  0.12700000000E+01 0. -1.
          4   -1    0    0  501    0  0.00000000000E+00 -0.00000000000E+00 -0.38065539612E+02  0.38086719548E+02  0.12700000000E+01 0. -1.
         25    2    1    2    0    0  0.00000000000E+00  0.00000000000E+00  0.64494037568E+02  0.14065415966E+03  0.12499644694E+03 0.  0.
    9000005    1    3    3    0    0 -0.50599069470E+02 -0.33093801929E+02  0.14470591887E+02  0.62176069246E+02  0.10000000000E+01 0.  0.
    9000005    1    3    3    0    0  0.50599069470E+02  0.33093801929E+02  0.50023445681E+02  0.78478090415E+02  0.10000000000E+01 0.  0.
<mgrwt>
<rscale>  0 0.12499645E+03</rscale>
<asrwt>0</asrwt>
<pdfrwt beam="2">  1        4 0.95200154E-02 0.12499645E+03</pdfrwt>
<pdfrwt beam="1">  1       -4 0.25643524E-01 0.12499645E+03</pdfrwt>
<totfact> 0.19008501E+03</totfact>
</mgrwt>
</event>
<event>
 5    1  0.1448308E-002  0.1250024E+03  0.7818608E-02  0.1235066E+00
          4   -1    0    0  501    0  0.00000000000E+00  0.00000000000E+00  0.41365366076E+01  0.43271047024E+01  0.12700000000E+01 0.  1.
         -4   -1    0    0    0  501 -0.00000000000E+00 -0.00000000000E+00 -0.92291057098E+03  0.92291144479E+03  0.12700000000E+01 0.  1.
         25    2    1    2    0    0  0.00000000000E+00  0.00000000000E+00 -0.91877403437E+03  0.92723854949E+03  0.12500240570E+03 0.  0.
    9000005    1    3    3    0    0  0.14701984197E+02  0.59043871394E+02 -0.56509298034E+03  0.56836027616E+03  0.10000000000E+01 0.  0.
    9000005    1    3    3    0    0 -0.14701984197E+02 -0.59043871394E+02 -0.35368105403E+03  0.35887827333E+03  0.10000000000E+01 0.  0.
<mgrwt>
<rscale>  0 0.12500241E+03</rscale>
<asrwt>0</asrwt>
<pdfrwt beam="1">  1        4 0.10580675E-02 0.12500241E+03</pdfrwt>
<pdfrwt beam="2">  1       -4 0.23075088E+00 0.12500241E+03</pdfrwt>
<totfact> 0.42229791E+02</totfact>
</mgrwt>
</event>
<event>
 5    1  0.1448308E-002  0.1250008E+03  0.7818608E-02  0.1235068E+00
         -4   -1    0    0    0  501 -0.00000000000E+00  0.00000000000E+00  0.63848496284E+03  0.63848622590E+03  0.12700000000E+01 0. -1.
          4   -1    0    0  501    0  0.00000000000E+00 -0.00000000000E+00 -0.60508867067E+01  0.61827283570E+01  0.12700000000E+01 0. -1.
         25    2    1    2    0    0  0.00000000000E+00  0.00000000000E+00  0.63243407613E+03  0.64466895426E+03  0.12500079975E+03 0.  0.
    9000005    1    3    3    0    0 -0.12417366010E+02 -0.26267132017E+02  0.60155926196E+03  0.60226132107E+03  0.10000000000E+01 0.  0.
    9000005    1    3    3    0    0  0.12417366010E+02  0.26267132017E+02  0.30874814168E+02  0.42407633192E+02  0.10000000000E+01 0.  0.
<mgrwt>
<rscale>  0 0.12500080E+03</rscale>
<asrwt>0</asrwt>
<pdfrwt beam="2">  1        4 0.15293599E-02 0.12500080E+03</pdfrwt>
<pdfrwt beam="1">  1       -4 0.15963786E+00 0.12500080E+03</pdfrwt>
<totfact> 0.68123008E+02</totfact>
</mgrwt>
</event>
<event>
 5    1  0.1448308E-002  0.1249999E+03  0.7818608E-02  0.1235069E+00
         -4   -1    0    0    0  501 -0.00000000000E+00  0.00000000000E+00  0.31988344150E+02  0.32013544969E+02  0.12700000000E+01 0.  1.
          4   -1    0    0  501    0  0.00000000000E+00 -0.00000000000E+00 -0.12203793864E+03  0.12204454665E+03  0.12700000000E+01 0.  1.
         25    2    1    2    0    0  0.00000000000E+00  0.00000000000E+00 -0.90049594488E+02  0.15405809162E+03  0.12499986450E+03 0.  0.
    9000005    1    3    3    0    0  0.23020914653E+02  0.57214103854E+02 -0.32588161731E+02  0.69759619238E+02  0.10000000000E+01 0.  0.
    9000005    1    3    3    0    0 -0.23020914653E+02 -0.57214103854E+02 -0.57461432757E+02  0.84298472381E+02  0.10000000000E+01 0.  0.
<mgrwt>
<rscale>  0 0.12499986E+03</rscale>
<asrwt>0</asrwt>
<pdfrwt beam="2">  1        4 0.30513460E-01 0.12499986E+03</pdfrwt>
<pdfrwt beam="1">  1       -4 0.80010624E-02 0.12499986E+03</pdfrwt>
<totfact> 0.18341086E+03</totfact>
</mgrwt>
</event>
<event>
 5    1  0.1448308E-002  0.1249985E+03  0.7818608E-02  0.1235072E+00
         -4   -1    0    0    0  501 -0.00000000000E+00  0.00000000000E+00  0.15582747142E+03  0.15583264661E+03  0.12700000000E+01 0.  1.
          4   -1    0    0  501    0  0.00000000000E+00 -0.00000000000E+00 -0.25045523780E+02  0.25077702475E+02  0.12700000000E+01 0.  1.
         25    2    1    2    0    0  0.00000000000E+00  0.00000000000E+00  0.13078194764E+03  0.18091034908E+03  0.12499854630E+03 0.  0.
    9000005    1    3    3    0    0 -0.38272611193E+02  0.49307203406E+02  0.61009199470E+02  0.87287544903E+02  0.10000000000E+01 0.  0.
    9000005    1    3    3    0    0  0.38272611193E+02 -0.49307203406E+02  0.69772748167E+02  0.93622804177E+02  0.10000000000E+01 0.  0.
<mgrwt>
<rscale>  0 0.12499855E+03</rscale>
<asrwt>0</asrwt>
<pdfrwt beam="2">  1        4 0.62660503E-02 0.12499855E+03</pdfrwt>
<pdfrwt beam="1">  1       -4 0.38961537E-01 0.12499855E+03</pdfrwt>
<totfact> 0.17116460E+03</totfact>
</mgrwt>
</event>
<event>
 5    1  0.1448308E-002  0.1249997E+03  0.7818608E-02  0.1235070E+00
         -4   -1    0    0    0  501 -0.00000000000E+00  0.00000000000E+00  0.32881833849E+02  0.32906350409E+02  0.12700000000E+01 0. -1.
          4   -1    0    0  501    0  0.00000000000E+00 -0.00000000000E+00 -0.11872384764E+03  0.11873064010E+03  0.12700000000E+01 0. -1.
         25    2    1    2    0    0  0.00000000000E+00  0.00000000000E+00 -0.85842013793E+02  0.15163699051E+03  0.12499970224E+03 0.  0.
    9000005    1    3    3    0    0 -0.44912572067E+02  0.93339606808E+01  0.85602746662E+01  0.46674835340E+02  0.10000000000E+01 0.  0.
    9000005    1    3    3    0    0  0.44912572067E+02 -0.93339606808E+01 -0.94402288459E+02  0.10496215517E+03  0.10000000000E+01 0.  0.
<mgrwt>
<rscale>  0 0.12499970E+03</rscale>
<asrwt>0</asrwt>
<pdfrwt beam="2">  1        4 0.29684875E-01 0.12499970E+03</pdfrwt>
<pdfrwt beam="1">  1       -4 0.82243724E-02 0.12499970E+03</pdfrwt>
<totfact> 0.18458710E+03</totfact>
</mgrwt>
</event>
<event>
 5    1  0.1448308E-002  0.1250006E+03  0.7818608E-02  0.1235068E+00
         -4   -1    0    0    0  501 -0.00000000000E+00  0.00000000000E+00  0.42505826380E+02  0.42524794840E+02  0.12700000000E+01 0.  1.
          4   -1    0    0  501    0  0.00000000000E+00 -0.00000000000E+00 -0.91856237037E+02  0.91865016097E+02  0.12700000000E+01 0.  1.
         25    2    1    2    0    0  0.00000000000E+00  0.00000000000E+00 -0.49350410657E+02  0.13438981094E+03  0.12500063301E+03 0.  0.
    9000005    1    3    3    0    0 -0.27384965509E+02  0.54583967166E+02 -0.10414498246E+02  0.61958111504E+02  0.10000000000E+01 0.  0.
    9000005    1    3    3    0    0  0.27384965509E+02 -0.54583967166E+02 -0.38935912412E+02  0.72431699433E+02  0.10000000000E+01 0.  0.
<mgrwt>
<rscale>  0 0.12500063E+03</rscale>
<asrwt>0</asrwt>
<pdfrwt beam="2">  1        4 0.22967527E-01 0.12500063E+03</pdfrwt>
<pdfrwt beam="1">  1       -4 0.10629925E-01 0.12500063E+03</pdfrwt>
<totfact> 0.19330860E+03</totfact>
</mgrwt>
</event>
<event>
 5    1  0.1448308E-002  0.1250077E+03  0.7818608E-02  0.1235057E+00
          4   -1    0    0  501    0  0.00000000000E+00  0.00000000000E+00  0.56595317948E+03  0.56595460442E+03  0.12700000000E+01 0. -1.
         -4   -1    0    0    0  501 -0.00000000000E+00 -0.00000000000E+00 -0.68430671308E+01  0.69599186602E+01  0.12700000000E+01 0. -1.
         25    2    1    2    0    0  0.00000000000E+00  0.00000000000E+00  0.55911011235E+03  0.57291452308E+03  0.12500773186E+03 0.  0.
    9000005    1    3    3    0    0  0.35295291585E+02  0.51465618594E+02  0.29493777227E+03  0.30146933015E+03  0.10000000000E+01 0.  0.
    9000005    1    3    3    0    0 -0.35295291585E+02 -0.51465618594E+02  0.26417234008E+03  0.27144519293E+03  0.10000000000E+01 0.  0.
<mgrwt>
<rscale>  0 0.12500773E+03</rscale>
<asrwt>0</asrwt>
<pdfrwt beam="1">  1        4 0.14150306E+00 0.12500773E+03</pdfrwt>
<pdfrwt beam="2">  1       -4 0.17255516E-02 0.12500773E+03</pdfrwt>
<totfact> 0.77006665E+02</totfact>
</mgrwt>
</event>
<event>
 5    1  0.1448308E-002  0.1250013E+03  0.7818608E-02  0.1235067E+00
          4   -1    0    0  501    0  0.00000000000E+00  0.00000000000E+00  0.46504617974E+02  0.46521956031E+02  0.12700000000E+01 0. -1.
         -4   -1    0    0    0  501 -0.00000000000E+00 -0.00000000000E+00 -0.83960936413E+02  0.83970540926E+02  0.12700000000E+01 0. -1.
         25    2    1    2    0    0  0.00000000000E+00  0.00000000000E+00 -0.37456318439E+02  0.13049249696E+03  0.12500126388E+03 0.  0.
    9000005    1    3    3    0    0  0.25203251470E+02 -0.28588208730E+02 -0.70429963189E+02  0.80086636075E+02  0.10000000000E+01 0.  0.
    9000005    1    3    3    0    0 -0.25203251470E+02  0.28588208730E+02  0.32973644751E+02  0.50405860881E+02  0.10000000000E+01 0.  0.
<mgrwt>
<rscale>  0 0.12500126E+03</rscale>
<asrwt>0</asrwt>
<pdfrwt beam="1">  1        4 0.11629522E-01 0.12500126E+03</pdfrwt>
<pdfrwt beam="2">  1       -4 0.20993602E-01 0.12500126E+03</pdfrwt>
<totfact> 0.19537367E+03</totfact>
</mgrwt>
</event>
<event>
 5    1  0.1448308E-002  0.1249986E+03  0.7818608E-02  0.1235072E+00
         -4   -1    0    0    0  501 -0.00000000000E+00  0.00000000000E+00  0.22729094874E+03  0.22729449681E+03  0.12700000000E+01 0. -1.
          4   -1    0    0  501    0  0.00000000000E+00 -0.00000000000E+00 -0.17158580209E+02  0.17205515824E+02  0.12700000000E+01 0. -1.
         25    2    1    2    0    0  0.00000000000E+00  0.00000000000E+00  0.21013236853E+03  0.24450001263E+03  0.12499857548E+03 0.  0.
    9000005    1    3    3    0    0  0.30891808121E+02 -0.41573706961E+02  0.36675740348E+02  0.63472725241E+02  0.10000000000E+01 0.  0.
    9000005    1    3    3    0    0 -0.30891808121E+02  0.41573706961E+02  0.17345662818E+03  0.18102728739E+03  0.10000000000E+01 0.  0.
<mgrwt>
<rscale>  0 0.12499858E+03</rscale>
<asrwt>0</asrwt>
<pdfrwt beam="2">  1        4 0.42959554E-02 0.12499858E+03</pdfrwt>
<pdfrwt beam="1">  1       -4 0.56829049E-01 0.12499858E+03</pdfrwt>
<totfact> 0.14683151E+03</totfact>
</mgrwt>
</event>
<event>
 5    1  0.1448308E-002  0.1250055E+03  0.7818608E-02  0.1235061E+00
          4   -1    0    0  501    0  0.00000000000E+00  0.00000000000E+00  0.18676895798E+02  0.18720025017E+02  0.12700000000E+01 0. -1.
         -4   -1    0    0    0  501 -0.00000000000E+00 -0.00000000000E+00 -0.20888089589E+03  0.20888475667E+03  0.12700000000E+01 0. -1.
         25    2    1    2    0    0  0.00000000000E+00  0.00000000000E+00 -0.19020400010E+03  0.22760478169E+03  0.12500549986E+03 0.  0.
    9000005    1    3    3    0    0  0.84207684947E+01  0.28777624393E+02  0.47335533389E+01  0.30372150648E+02  0.10000000000E+01 0.  0.
    9000005    1    3    3    0    0 -0.84207684947E+01 -0.28777624393E+02 -0.19493755343E+03  0.19723263104E+03  0.10000000000E+01 0.  0.
<mgrwt>
<rscale>  0 0.12500550E+03</rscale>
<asrwt>0</asrwt>
<pdfrwt beam="1">  1        4 0.46750984E-02 0.12500550E+03</pdfrwt>
<pdfrwt beam="2">  1       -4 0.52226090E-01 0.12500550E+03</pdfrwt>
<totfact> 0.15271342E+03</totfact>
</mgrwt>
</event>
<event>
 5    1  0.1448308E-002  0.1250045E+03  0.7818608E-02  0.1235062E+00
         -4   -1    0    0    0  501 -0.00000000000E+00  0.00000000000E+00  0.21040928908E+02  0.21079221743E+02  0.12700000000E+01 0. -1.
          4   -1    0    0  501    0  0.00000000000E+00 -0.00000000000E+00 -0.18545412503E+03  0.18545847350E+03  0.12700000000E+01 0. -1.
         25    2    1    2    0    0  0.00000000000E+00  0.00000000000E+00 -0.16441319613E+03  0.20653769524E+03  0.12500448190E+03 0.  0.
    9000005    1    3    3    0    0 -0.34179423261E+02 -0.51150838221E+02 -0.10037291775E+03  0.11773004647E+03  0.10000000000E+01 0.  0.
    9000005    1    3    3    0    0  0.34179423261E+02  0.51150838221E+02 -0.64040278381E+02  0.88807648771E+02  0.10000000000E+01 0.  0.
<mgrwt>
<rscale>  0 0.12500448E+03</rscale>
<asrwt>0</asrwt>
<pdfrwt beam="2">  1        4 0.46368857E-01 0.12500448E+03</pdfrwt>
<pdfrwt beam="1">  1       -4 0.52655629E-02 0.12500448E+03</pdfrwt>
<totfact> 0.16061904E+03</totfact>
</mgrwt>
</event>
<event>
 5    1  0.1448308E-002  0.1249993E+03  0.7818608E-02  0.1235070E+00
          4   -1    0    0  501    0  0.00000000000E+00  0.00000000000E+00  0.73559122662E+02  0.73570085135E+02  0.12700000000E+01 0. -1.
         -4   -1    0    0    0  501 -0.00000000000E+00 -0.00000000000E+00 -0.53080436185E+02  0.53095626991E+02  0.12700000000E+01 0. -1.
         25    2    1    2    0    0  0.00000000000E+00  0.00000000000E+00  0.20478686477E+02  0.12666571213E+03  0.12499930411E+03 0.  0.
    9000005    1    3    3    0    0 -0.22304643272E+02  0.28880755558E+00 -0.48913746576E+02  0.53769276779E+02  0.10000000000E+01 0.  0.
    9000005    1    3    3    0    0  0.22304643272E+02 -0.28880755558E+00  0.69392433052E+02  0.72896435347E+02  0.10000000000E+01 0.  0.
<mgrwt>
<rscale>  0 0.12499930E+03</rscale>
<asrwt>0</asrwt>
<pdfrwt beam="1">  1        4 0.18393050E-01 0.12499930E+03</pdfrwt>
<pdfrwt beam="2">  1       -4 0.13273378E-01 0.12499930E+03</pdfrwt>
<totfact> 0.19745310E+03</totfact>
</mgrwt>
</event>
<event>
 5    1  0.1448308E-002  0.1249907E+03  0.7818608E-02  0.1235084E+00
          4   -1    0    0  501    0  0.00000000000E+00  0.00000000000E+00  0.13414960352E+03  0.13415561496E+03  0.12700000000E+01 0. -1.
         -4   -1    0    0    0  501 -0.00000000000E+00 -0.00000000000E+00 -0.29093752116E+02  0.29121457933E+02  0.12700000000E+01 0. -1.
         25    2    1    2    0    0  0.00000000000E+00  0.00000000000E+00  0.10505585141E+03  0.16327707289E+03  0.12499068212E+03 0.  0.
    9000005    1    3    3    0    0  0.42076115120E+02 -0.42954002967E+02  0.74743783927E+02  0.95932679887E+02  0.10000000000E+01 0.  0.
    9000005    1    3    3    0    0 -0.42076115120E+02  0.42954002967E+02  0.30312067481E+02  0.67344393007E+02  0.10000000000E+01 0.  0.
<mgrwt>
<rscale>  0 0.12499068E+03</rscale>
<asrwt>0</asrwt>
<pdfrwt beam="1">  1        4 0.33541615E-01 0.12499068E+03</pdfrwt>
<pdfrwt beam="2">  1       -4 0.72776528E-02 0.12499068E+03</pdfrwt>
<totfact> 0.17908489E+03</totfact>
</mgrwt>
</event>
<event>
 5    1  0.1448308E-002  0.1249983E+03  0.7818608E-02  0.1235072E+00
         -4   -1    0    0    0  501 -0.00000000000E+00  0.00000000000E+00  0.29737897939E+02  0.29765004180E+02  0.12700000000E+01 0. -1.
          4   -1    0    0  501    0  0.00000000000E+00 -0.00000000000E+00 -0.13126230255E+03  0.13126844621E+03  0.12700000000E+01 0. -1.
         25    2    1    2    0    0  0.00000000000E+00  0.00000000000E+00 -0.10152440461E+03  0.16103345039E+03  0.12499826964E+03 0.  0.
    9000005    1    3    3    0    0 -0.65156366359E+01 -0.11607873798E+01  0.29291453620E+02  0.30046467401E+02  0.10000000000E+01 0.  0.
    9000005    1    3    3    0    0  0.65156366359E+01  0.11607873798E+01 -0.13081585823E+03  0.13098698299E+03  0.10000000000E+01 0.  0.
<mgrwt>
<rscale>  0 0.12499827E+03</rscale>
<asrwt>0</asrwt>
<pdfrwt beam="2">  1        4 0.32819730E-01 0.12499827E+03</pdfrwt>
<pdfrwt beam="1">  1       -4 0.74386311E-02 0.12499827E+03</pdfrwt>
<totfact> 0.18009951E+03</totfact>
</mgrwt>
</event>
<event>
 5    1  0.1448308E-002  0.1249972E+03  0.7818608E-02  0.1235074E+00
         -4   -1    0    0    0  501 -0.00000000000E+00  0.00000000000E+00  0.10266842588E+03  0.10267628048E+03  0.12700000000E+01 0. -1.
          4   -1    0    0  501    0  0.00000000000E+00 -0.00000000000E+00 -0.38025608369E+02  0.38046810534E+02  0.12700000000E+01 0. -1.
         25    2    1    2    0    0  0.00000000000E+00  0.00000000000E+00  0.64642817513E+02  0.14072309101E+03  0.12499717792E+03 0.  0.
    9000005    1    3    3    0    0 -0.39110721785E+02  0.39301473352E+02  0.64771687727E+02  0.85267965246E+02  0.10000000000E+01 0.  0.
    9000005    1    3    3    0    0  0.39110721785E+02 -0.39301473352E+02 -0.12887021478E+00  0.55455125766E+02  0.10000000000E+01 0.  0.
<mgrwt>
<rscale>  0 0.12499718E+03</rscale>
<asrwt>0</asrwt>
<pdfrwt beam="2">  1        4 0.95100343E-02 0.12499718E+03</pdfrwt>
<pdfrwt beam="1">  1       -4 0.25670738E-01 0.12499718E+03</pdfrwt>
<totfact> 0.19004661E+03</totfact>
</mgrwt>
</event>
<event>
 5    1  0.1448308E-002  0.1249965E+03  0.7818608E-02  0.1235075E+00
          4   -1    0    0  501    0  0.00000000000E+00  0.00000000000E+00  0.86354693998E+01  0.87283579072E+01  0.12700000000E+01 0.  1.
         -4   -1    0    0    0  501 -0.00000000000E+00 -0.00000000000E+00 -0.44981055391E+03  0.44981234677E+03  0.12700000000E+01 0.  1.
         25    2    1    2    0    0  0.00000000000E+00  0.00000000000E+00 -0.44117508451E+03  0.45854070468E+03  0.12499649057E+03 0.  0.
    9000005    1    3    3    0    0  0.33337273295E+02  0.52321156590E+02 -0.24807713346E+03  0.25571887174E+03  0.10000000000E+01 0.  0.
    9000005    1    3    3    0    0 -0.33337273295E+02 -0.52321156590E+02 -0.19309795105E+03  0.20282183294E+03  0.10000000000E+01 0.  0.
<mgrwt>
<rscale>  0 0.12499649E+03</rscale>
<asrwt>0</asrwt>
<pdfrwt beam="1">  1        4 0.21707040E-02 0.12499649E+03</pdfrwt>
<pdfrwt beam="2">  1       -4 0.11246440E+00 0.12499649E+03</pdfrwt>
<totfact> 0.94511176E+02</totfact>
</mgrwt>
</event>
<event>
 5    1  0.1448308E-002  0.1250038E+03  0.7818608E-02  0.1235063E+00
         -4   -1    0    0    0  501 -0.00000000000E+00  0.00000000000E+00  0.54918959125E+03  0.54919105969E+03  0.12700000000E+01 0. -1.
          4   -1    0    0  501    0  0.00000000000E+00 -0.00000000000E+00 -0.70550042344E+01  0.71684018265E+01  0.12700000000E+01 0. -1.
         25    2    1    2    0    0  0.00000000000E+00  0.00000000000E+00  0.54213458702E+03  0.55635946151E+03  0.12500375984E+03 0.  0.
    9000005    1    3    3    0    0  0.32321388107E+02  0.24881588672E+02  0.48179567344E+03  0.48352025452E+03  0.10000000000E+01 0.  0.
    9000005    1    3    3    0    0 -0.32321388107E+02 -0.24881588672E+02  0.60338913581E+02  0.72839206998E+02  0.10000000000E+01 0.  0.
<mgrwt>
<rscale>  0 0.12500376E+03</rscale>
<asrwt>0</asrwt>
<pdfrwt beam="2">  1        4 0.17781092E-02 0.12500376E+03</pdfrwt>
<pdfrwt beam="1">  1       -4 0.13731177E+00 0.12500376E+03</pdfrwt>
<totfact> 0.79275902E+02</totfact>
</mgrwt>
</event>
<event>
 5    1  0.1448308E-002  0.1250001E+03  0.7818608E-02  0.1235069E+00
         -4   -1    0    0    0  501 -0.00000000000E+00  0.00000000000E+00  0.48269261644E+02  0.48285966074E+02  0.12700000000E+01 0. -1.
          4   -1    0    0  501    0  0.00000000000E+00 -0.00000000000E+00 -0.80890632484E+02  0.80900601503E+02  0.12700000000E+01 0. -1.
         25    2    1    2    0    0  0.00000000000E+00  0.00000000000E+00 -0.32621370840E+02  0.12918656758E+03  0.12500006163E+03 0.  0.
    9000005    1    3    3    0    0 -0.45166947990E+02 -0.43116818754E+02 -0.13749667673E+02  0.63946591867E+02  0.10000000000E+01 0.  0.
    9000005    1    3    3    0    0  0.45166947990E+02  0.43116818754E+02 -0.18871703167E+02  0.65239975710E+02  0.10000000000E+01 0.  0.
<mgrwt>
<rscale>  0 0.12500006E+03</rscale>
<asrwt>0</asrwt>
<pdfrwt beam="2">  1        4 0.20225992E-01 0.12500006E+03</pdfrwt>
<pdfrwt beam="1">  1       -4 0.12070650E-01 0.12500006E+03</pdfrwt>
<totfact> 0.19608185E+03</totfact>
</mgrwt>
</event>
<event>
 5    1  0.1448308E-002  0.1249998E+03  0.7818608E-02  0.1235070E+00
          4   -1    0    0  501    0  0.00000000000E+00  0.00000000000E+00  0.15214186661E+03  0.15214716716E+03  0.12700000000E+01 0.  1.
         -4   -1    0    0    0  501 -0.00000000000E+00 -0.00000000000E+00 -0.25653515701E+02  0.25684932700E+02  0.12700000000E+01 0.  1.
         25    2    1    2    0    0  0.00000000000E+00  0.00000000000E+00  0.12648835091E+03  0.17783209986E+03  0.12499981130E+03 0.  0.
    9000005    1    3    3    0    0 -0.50789147087E+02  0.35900353959E+02  0.71882109103E+02  0.95060036215E+02  0.10000000000E+01 0.  0.
    9000005    1    3    3    0    0  0.50789147087E+02 -0.35900353959E+02  0.54606241804E+02  0.82772063646E+02  0.10000000000E+01 0.  0.
<mgrwt>
<rscale>  0 0.12499981E+03</rscale>
<asrwt>0</asrwt>
<pdfrwt beam="1">  1        4 0.38040056E-01 0.12499981E+03</pdfrwt>
<pdfrwt beam="2">  1       -4 0.64179687E-02 0.12499981E+03</pdfrwt>
<totfact> 0.17249540E+03</totfact>
</mgrwt>
</event>
<event>
 5    1  0.1448308E-002  0.1249938E+03  0.7818608E-02  0.1235079E+00
          4   -1    0    0  501    0  0.00000000000E+00  0.00000000000E+00  0.19573094276E+03  0.19573506292E+03  0.12700000000E+01 0.  1.
         -4   -1    0    0    0  501 -0.00000000000E+00 -0.00000000000E+00 -0.19930727277E+02  0.19971148935E+02  0.12700000000E+01 0.  1.
         25    2    1    2    0    0  0.00000000000E+00  0.00000000000E+00  0.17580021549E+03  0.21570621185E+03  0.12499381611E+03 0.  0.
    9000005    1    3    3    0    0 -0.26207690127E+01  0.59593453306E+02  0.55771044925E+02  0.81667971440E+02  0.10000000000E+01 0.  0.
    9000005    1    3    3    0    0  0.26207690127E+01 -0.59593453306E+02  0.12002917056E+03  0.13403824041E+03  0.10000000000E+01 0.  0.
<mgrwt>
<rscale>  0 0.12499382E+03</rscale>
<asrwt>0</asrwt>
<pdfrwt beam="1">  1        4 0.48938303E-01 0.12499382E+03</pdfrwt>
<pdfrwt beam="2">  1       -4 0.49882496E-02 0.12499382E+03</pdfrwt>
<totfact> 0.15714119E+03</totfact>
</mgrwt>
</event>
<event>
 5    1  0.1448308E-002  0.1250005E+03  0.7818608E-02  0.1235068E+00
         -4   -1    0    0    0  501 -0.00000000000E+00  0.00000000000E+00  0.29566829537E+02  0.29594092465E+02  0.12700000000E+01 0. -1.
          4   -1    0    0  501    0  0.00000000000E+00 -0.00000000000E+00 -0.13202585955E+03  0.13203196768E+03  0.12700000000E+01 0. -1.
         25    2    1    2    0    0  0.00000000000E+00  0.00000000000E+00 -0.10245903001E+03  0.16162606015E+03  0.12500052195E+03 0.  0.
    9000005    1    3    3    0    0  0.51841602860E+02 -0.34622776771E+02 -0.45594310973E+02  0.77240725343E+02  0.10000000000E+01 0.  0.
    9000005    1    3    3    0    0 -0.51841602860E+02  0.34622776771E+02 -0.56864719040E+02  0.84385334804E+02  0.10000000000E+01 0.  0.
<mgrwt>
<rscale>  0 0.12500052E+03</rscale>
<asrwt>0</asrwt>
<pdfrwt beam="2">  1        4 0.33010635E-01 0.12500052E+03</pdfrwt>
<pdfrwt beam="1">  1       -4 0.73958791E-02 0.12500052E+03</pdfrwt>
<totfact> 0.17981279E+03</totfact>
</mgrwt>
</event>
<event>
 4    1  0.1448308E-002  0.1250627E+03  0.7818608E-02  0.1234971E+00
          4   -1    0    0  501    0  0.00000000000E+00  0.00000000000E+00  0.41319452339E+03  0.41319647513E+03  0.12700000000E+01 0. -1.
         -4   -1    0    0    0  501 -0.00000000000E+00 -0.00000000000E+00 -0.94186766250E+01  0.95039133711E+01  0.12700000000E+01 0. -1.
    9000005    1    1    2    0    0  0.42979059805E+02 -0.45314656378E+02  0.21177283026E+03  0.22079254811E+03  0.10000000000E+01 0.  0.
    9000005    1    1    2    0    0 -0.42979059805E+02  0.45314656378E+02  0.19200301651E+03  0.20190784039E+03  0.10000000000E+01 0.  0.
<mgrwt>
<rscale>  0 0.12506272E+03</rscale>
<asrwt>0</asrwt>
<pdfrwt beam="1">  1        4 0.10330953E+00 0.12506272E+03</pdfrwt>
<pdfrwt beam="2">  1       -4 0.23655676E-02 0.12506272E+03</pdfrwt>
<totfact> 0.10098747E+03</totfact>
</mgrwt>
</event>
<event>
 5    1  0.1448308E-002  0.1249906E+03  0.7818608E-02  0.1235084E+00
          4   -1    0    0  501    0  0.00000000000E+00  0.00000000000E+00  0.66979720720E+03  0.66979841122E+03  0.12700000000E+01 0.  1.
         -4   -1    0    0    0  501 -0.00000000000E+00 -0.00000000000E+00 -0.57607402147E+01  0.58990700810E+01  0.12700000000E+01 0.  1.
         25    2    1    2    0    0  0.00000000000E+00  0.00000000000E+00  0.66403646698E+03  0.67569748130E+03  0.12499062665E+03 0.  0.
    9000005    1    3    3    0    0  0.61378264268E+02 -0.11676844465E+02  0.32654731676E+03  0.33247223960E+03  0.10000000000E+01 0.  0.
    9000005    1    3    3    0    0 -0.61378264268E+02  0.11676844465E+02  0.33748915023E+03  0.34322524170E+03  0.10000000000E+01 0.  0.
<mgrwt>
<rscale>  0 0.12499063E+03</rscale>
<asrwt>0</asrwt>
<pdfrwt beam="1">  1        4 0.16746672E+00 0.12499063E+03</pdfrwt>
<pdfrwt beam="2">  1       -4 0.14576270E-02 0.12499063E+03</pdfrwt>
<totfact> 0.64659388E+02</totfact>
</mgrwt>
</event>
<event>
 5    1  0.1448308E-002  0.1249972E+03  0.7818608E-02  0.1235074E+00
         -4   -1    0    0    0  501 -0.00000000000E+00  0.00000000000E+00  0.31136729009E+03  0.31136988011E+03  0.12700000000E+01 0. -1.
          4   -1    0    0  501    0  0.00000000000E+00 -0.00000000000E+00 -0.12510125045E+02  0.12574423590E+02  0.12700000000E+01 0. -1.
         25    2    1    2    0    0  0.00000000000E+00  0.00000000000E+00  0.29885716505E+03  0.32394430370E+03  0.12499722717E+03 0.  0.
    9000005    1    3    3    0    0 -0.34383591572E+02  0.36601382160E+02  0.53043467258E+02  0.73051365245E+02  0.10000000000E+01 0.  0.
    9000005    1    3    3    0    0  0.34383591572E+02 -0.36601382160E+02  0.24581369779E+03  0.25089293846E+03  0.10000000000E+01 0.  0.
<mgrwt>
<rscale>  0 0.12499723E+03</rscale>
<asrwt>0</asrwt>
<pdfrwt beam="2">  1        4 0.31358924E-02 0.12499723E+03</pdfrwt>
<pdfrwt beam="1">  1       -4 0.77850181E-01 0.12499723E+03</pdfrwt>
<totfact> 0.12326330E+03</totfact>
</mgrwt>
</event>
<event>
 5    1  0.1448308E-002  0.1249897E+03  0.7818608E-02  0.1235085E+00
          4   -1    0    0  501    0  0.00000000000E+00  0.00000000000E+00  0.39507926551E+02  0.39528333641E+02  0.12700000000E+01 0.  1.
         -4   -1    0    0    0  501 -0.00000000000E+00 -0.00000000000E+00 -0.98806181585E+02  0.98814343186E+02  0.12700000000E+01 0.  1.
         25    2    1    2    0    0  0.00000000000E+00  0.00000000000E+00 -0.59298255033E+02  0.13834267683E+03  0.12498965230E+03 0.  0.
    9000005    1    3    3    0    0 -0.84036381344E+01 -0.14392361905E+02  0.37007975944E+02  0.40599895302E+02  0.10000000000E+01 0.  0.
    9000005    1    3    3    0    0  0.84036381344E+01  0.14392361905E+02 -0.96306230977E+02  0.97742781525E+02  0.10000000000E+01 0.  0.
<mgrwt>
<rscale>  0 0.12498965E+03</rscale>
<asrwt>0</asrwt>
<pdfrwt beam="1">  1        4 0.98805529E-02 0.12498965E+03</pdfrwt>
<pdfrwt beam="2">  1       -4 0.24705116E-01 0.12498965E+03</pdfrwt>
<totfact> 0.19130068E+03</totfact>
</mgrwt>
</event>
<event>
 5    1  0.1448308E-002  0.1249970E+03  0.7818608E-02  0.1235074E+00
          4   -1    0    0  501    0  0.00000000000E+00  0.00000000000E+00  0.15841319602E+03  0.15841828674E+03  0.12700000000E+01 0.  1.
         -4   -1    0    0    0  501 -0.00000000000E+00 -0.00000000000E+00 -0.24635581219E+02  0.24668294672E+02  0.12700000000E+01 0.  1.
         25    2    1    2    0    0  0.00000000000E+00  0.00000000000E+00  0.13377761480E+03  0.18308658141E+03  0.12499698425E+03 0.  0.
    9000005    1    3    3    0    0  0.35661603553E+01 -0.49876578602E+02  0.12178525947E+03  0.13165500376E+03  0.10000000000E+01 0.  0.
    9000005    1    3    3    0    0 -0.35661603553E+01  0.49876578602E+02  0.11992355333E+02  0.51431577646E+02  0.10000000000E+01 0.  0.
<mgrwt>
<rscale>  0 0.12499698E+03</rscale>
<asrwt>0</asrwt>
<pdfrwt beam="1">  1        4 0.39608024E-01 0.12499698E+03</pdfrwt>
<pdfrwt beam="2">  1       -4 0.61636210E-02 0.12499698E+03</pdfrwt>
<totfact> 0.17023618E+03</totfact>
</mgrwt>
</event>
<event>
 5    1  0.1448308E-002  0.1249986E+03  0.7818608E-02  0.1235071E+00
         -4   -1    0    0    0  501 -0.00000000000E+00  0.00000000000E+00  0.20787532525E+03  0.20787920470E+03  0.12700000000E+01 0. -1.
          4   -1    0    0  501    0  0.00000000000E+00 -0.00000000000E+00 -0.18765368570E+02  0.18808294914E+02  0.12700000000E+01 0. -1.
         25    2    1    2    0    0  0.00000000000E+00  0.00000000000E+00  0.18910995668E+03  0.22668749962E+03  0.12499858706E+03 0.  0.
    9000005    1    3    3    0    0 -0.29422001109E+02  0.55105246276E+02  0.97653592005E+02  0.11592871235E+03  0.10000000000E+01 0.  0.
    9000005    1    3    3    0    0  0.29422001109E+02 -0.55105246276E+02  0.91456364677E+02  0.11075878726E+03  0.10000000000E+01 0.  0.
<mgrwt>
<rscale>  0 0.12499859E+03</rscale>
<asrwt>0</asrwt>
<pdfrwt beam="2">  1        4 0.46971929E-02 0.12499859E+03</pdfrwt>
<pdfrwt beam="1">  1       -4 0.51974681E-01 0.12499859E+03</pdfrwt>
<totfact> 0.15306900E+03</totfact>
</mgrwt>
</event>
<event>
 5    1  0.1448308E-002  0.1249970E+03  0.7818608E-02  0.1235074E+00
         -4   -1    0    0    0  501 -0.00000000000E+00  0.00000000000E+00  0.12087530005E+02  0.12154064407E+02  0.12700000000E+01 0.  1.
          4   -1    0    0  501    0  0.00000000000E+00 -0.00000000000E+00 -0.32219334101E+03  0.32219584400E+03  0.12700000000E+01 0.  1.
         25    2    1    2    0    0  0.00000000000E+00  0.00000000000E+00 -0.31010581101E+03  0.33434990841E+03  0.12499698890E+03 0.  0.
    9000005    1    3    3    0    0 -0.50230378737E+02  0.35554840442E+02 -0.18408770779E+03  0.19410440949E+03  0.10000000000E+01 0.  0.
    9000005    1    3    3    0    0  0.50230378737E+02 -0.35554840442E+02 -0.12601810322E+03  0.14024549892E+03  0.10000000000E+01 0.  0.
<mgrwt>
<rscale>  0 0.12499699E+03</rscale>
<asrwt>0</asrwt>
<pdfrwt beam="2">  1        4 0.80556937E-01 0.12499699E+03</pdfrwt>
<pdfrwt beam="1">  1       -4 0.30305132E-02 0.12499699E+03</pdfrwt>
<totfact> 0.12060994E+03</totfact>
</mgrwt>
</event>
<event>
 5    1  0.1448308E-002  0.1249946E+03  0.7818608E-02  0.1235078E+00
         -4   -1    0    0    0  501 -0.00000000000E+00  0.00000000000E+00  0.17596932731E+02  0.17642702218E+02  0.12700000000E+01 0.  1.
          4   -1    0    0  501    0  0.00000000000E+00 -0.00000000000E+00 -0.22162961417E+03  0.22163325287E+03  0.12700000000E+01 0.  1.
         25    2    1    2    0    0  0.00000000000E+00  0.00000000000E+00 -0.20403268144E+03  0.23927595509E+03  0.12499459023E+03 0.  0.
    9000005    1    3    3    0    0  0.53851695273E+02  0.16838092738E+02 -0.50601140738E+02  0.75795790746E+02  0.10000000000E+01 0.  0.
    9000005    1    3    3    0    0 -0.53851695273E+02 -0.16838092738E+02 -0.15343154070E+03  0.16348016434E+03  0.10000000000E+01 0.  0.
<mgrwt>
<rscale>  0 0.12499459E+03</rscale>
<asrwt>0</asrwt>
<pdfrwt beam="2">  1        4 0.55413571E-01 0.12499459E+03</pdfrwt>
<pdfrwt beam="1">  1       -4 0.44054099E-02 0.12499459E+03</pdfrwt>
<totfact> 0.14863282E+03</totfact>
</mgrwt>
</event>
<event>
 5    1  0.1448308E-002  0.1250019E+03  0.7818608E-02  0.1235066E+00
          4   -1    0    0  501    0  0.00000000000E+00  0.00000000000E+00  0.84321638577E+02  0.84331202009E+02  0.12700000000E+01 0.  1.
         -4   -1    0    0    0  501 -0.00000000000E+00 -0.00000000000E+00 -0.46306126899E+02  0.46323539248E+02  0.12700000000E+01 0.  1.
         25    2    1    2    0    0  0.00000000000E+00  0.00000000000E+00  0.38015511677E+02  0.13065474126E+03  0.12500192912E+03 0.  0.
    9000005    1    3    3    0    0 -0.27247705112E+02 -0.32125820315E+02 -0.29241032014E+02  0.51288826444E+02  0.10000000000E+01 0.  0.
    9000005    1    3    3    0    0  0.27247705112E+02  0.32125820315E+02  0.67256543691E+02  0.79365914813E+02  0.10000000000E+01 0.  0.
<mgrwt>
<rscale>  0 0.12500193E+03</rscale>
<asrwt>0</asrwt>
<pdfrwt beam="1">  1        4 0.21083781E-01 0.12500193E+03</pdfrwt>
<pdfrwt beam="2">  1       -4 0.11579904E-01 0.12500193E+03</pdfrwt>
<totfact> 0.19528370E+03</totfact>
</mgrwt>
</event>
<event>
 5    1  0.1448308E-002  0.1250014E+03  0.7818608E-02  0.1235067E+00
          4   -1    0    0  501    0  0.00000000000E+00  0.00000000000E+00  0.68677808595E+02  0.68689550103E+02  0.12700000000E+01 0. -1.
         -4   -1    0    0    0  501 -0.00000000000E+00 -0.00000000000E+00 -0.56855524555E+02  0.56869706983E+02  0.12700000000E+01 0. -1.
         25    2    1    2    0    0  0.00000000000E+00  0.00000000000E+00  0.11822284040E+02  0.12555925709E+03  0.12500144255E+03 0.  0.
    9000005    1    3    3    0    0  0.25254789575E+02  0.55290737496E+02 -0.86611856204E+01  0.61407541765E+02  0.10000000000E+01 0.  0.
    9000005    1    3    3    0    0 -0.25254789575E+02 -0.55290737496E+02  0.20483469661E+02  0.64151715321E+02  0.10000000000E+01 0.  0.
<mgrwt>
<rscale>  0 0.12500144E+03</rscale>
<asrwt>0</asrwt>
<pdfrwt beam="1">  1        4 0.17172693E-01 0.12500144E+03</pdfrwt>
<pdfrwt beam="2">  1       -4 0.14217122E-01 0.12500144E+03</pdfrwt>
<totfact> 0.19804088E+03</totfact>
</mgrwt>
</event>
<event>
 5    1  0.1448308E-002  0.1249608E+03  0.7818608E-02  0.1235130E+00
         -4   -1    0    0    0  501 -0.00000000000E+00  0.00000000000E+00  0.85203349330E+02  0.85212813808E+02  0.12700000000E+01 0.  1.
          4   -1    0    0  501    0  0.00000000000E+00 -0.00000000000E+00 -0.45796671682E+02  0.45814277656E+02  0.12700000000E+01 0.  1.
         25    2    1    2    0    0  0.00000000000E+00  0.00000000000E+00  0.39406677648E+02  0.13102709146E+03  0.12496084368E+03 0.  0.
    9000005    1    3    3    0    0  0.55728034558E+02  0.15642605046E+02  0.44349687026E+02  0.72925987602E+02  0.10000000000E+01 0.  0.
    9000005    1    3    3    0    0 -0.55728034558E+02 -0.15642605046E+02 -0.49430093775E+01  0.58101103863E+02  0.10000000000E+01 0.  0.
<mgrwt>
<rscale>  0 0.12496084E+03</rscale>
<asrwt>0</asrwt>
<pdfrwt beam="2">  1        4 0.11452552E-01 0.12496084E+03</pdfrwt>
<pdfrwt beam="1">  1       -4 0.21304221E-01 0.12496084E+03</pdfrwt>
<totfact> 0.19527166E+03</totfact>
</mgrwt>
</event>
<event>
 5    1  0.1448308E-002  0.1249993E+03  0.7818608E-02  0.1235070E+00
          4   -1    0    0  501    0  0.00000000000E+00  0.00000000000E+00  0.27317071384E+02  0.27346577281E+02  0.12700000000E+01 0.  1.
         -4   -1    0    0    0  501 -0.00000000000E+00 -0.00000000000E+00 -0.14288559061E+03  0.14289123453E+03  0.12700000000E+01 0.  1.
         25    2    1    2    0    0  0.00000000000E+00  0.00000000000E+00 -0.11556851923E+03  0.17023781181E+03  0.12499931973E+03 0.  0.
    9000005    1    3    3    0    0  0.28234576744E+02  0.50250865803E+02 -0.90664348318E+02  0.10744005256E+03  0.10000000000E+01 0.  0.
    9000005    1    3    3    0    0 -0.28234576744E+02 -0.50250865803E+02 -0.24904170910E+02  0.62797759248E+02  0.10000000000E+01 0.  0.
<mgrwt>
<rscale>  0 0.12499932E+03</rscale>
<asrwt>0</asrwt>
<pdfrwt beam="1">  1        4 0.68336620E-02 0.12499932E+03</pdfrwt>
<pdfrwt beam="2">  1       -4 0.35725789E-01 0.12499932E+03</pdfrwt>
<totfact> 0.17586604E+03</totfact>
</mgrwt>
</event>
<event>
 5    1  0.1448308E-002  0.1249961E+03  0.7818608E-02  0.1235075E+00
         -4   -1    0    0    0  501 -0.00000000000E+00  0.00000000000E+00  0.71726381719E+02  0.71737624260E+02  0.12700000000E+01 0. -1.
          4   -1    0    0  501    0  0.00000000000E+00 -0.00000000000E+00 -0.54434114492E+02  0.54448927635E+02  0.12700000000E+01 0. -1.
         25    2    1    2    0    0  0.00000000000E+00  0.00000000000E+00  0.17292267227E+02  0.12618655189E+03  0.12499609343E+03 0.  0.
    9000005    1    3    3    0    0  0.40624493140E+02 -0.26267739076E+02 -0.31286406841E+02  0.57621027517E+02  0.10000000000E+01 0.  0.
    9000005    1    3    3    0    0 -0.40624493140E+02  0.26267739076E+02  0.48578674068E+02  0.68565524378E+02  0.10000000000E+01 0.  0.
<mgrwt>
<rscale>  0 0.12499609E+03</rscale>
<asrwt>0</asrwt>
<pdfrwt beam="2">  1        4 0.13611786E-01 0.12499609E+03</pdfrwt>
<pdfrwt beam="1">  1       -4 0.17934852E-01 0.12499609E+03</pdfrwt>
<totfact> 0.19772649E+03</totfact>
</mgrwt>
</event>
<event>
 5    1  0.1448308E-002  0.1250000E+03  0.7818608E-02  0.1235069E+00
         -4   -1    0    0    0  501 -0.00000000000E+00  0.00000000000E+00  0.16689717222E+03  0.16690200416E+03  0.12700000000E+01 0. -1.
          4   -1    0    0  501    0  0.00000000000E+00 -0.00000000000E+00 -0.23382728169E+02  0.23417191903E+02  0.12700000000E+01 0. -1.
         25    2    1    2    0    0  0.00000000000E+00  0.00000000000E+00  0.14351444405E+03  0.19031919607E+03  0.12500000297E+03 0.  0.
    9000005    1    3    3    0    0  0.31364185447E+01 -0.34936098355E+02  0.15050256757E+03  0.15453928606E+03  0.10000000000E+01 0.  0.
    9000005    1    3    3    0    0 -0.31364185447E+01  0.34936098355E+02 -0.69881235282E+01  0.35779910006E+02  0.10000000000E+01 0.  0.
<mgrwt>
<rscale>  0 0.12500000E+03</rscale>
<asrwt>0</asrwt>
<pdfrwt beam="2">  1        4 0.58505940E-02 0.12500000E+03</pdfrwt>
<pdfrwt beam="1">  1       -4 0.41729205E-01 0.12500000E+03</pdfrwt>
<totfact> 0.16717157E+03</totfact>
</mgrwt>
</event>
<event>
 5    1  0.1448308E-002  0.1250002E+03  0.7818608E-02  0.1235069E+00
          4   -1    0    0  501    0  0.00000000000E+00  0.00000000000E+00  0.15530146215E+02  0.15581987725E+02  0.12700000000E+01 0.  1.
         -4   -1    0    0    0  501 -0.00000000000E+00 -0.00000000000E+00 -0.25105529407E+03  0.25105850629E+03  0.12700000000E+01 0.  1.
         25    2    1    2    0    0  0.00000000000E+00  0.00000000000E+00 -0.23552514785E+03  0.26664049401E+03  0.12500023110E+03 0.  0.
    9000005    1    3    3    0    0 -0.42783954175E+02  0.10919885753E+02 -0.23432500159E+02  0.49997926991E+02  0.10000000000E+01 0.  0.
    9000005    1    3    3    0    0  0.42783954175E+02 -0.10919885753E+02 -0.21209264769E+03  0.21664256702E+03  0.10000000000E+01 0.  0.
<mgrwt>
<rscale>  0 0.12500023E+03</rscale>
<asrwt>0</asrwt>
<pdfrwt beam="1">  1        4 0.38894191E-02 0.12500023E+03</pdfrwt>
<pdfrwt beam="2">  1       -4 0.62770692E-01 0.12500023E+03</pdfrwt>
<totfact> 0.13960299E+03</totfact>
</mgrwt>
</event>
<event>
 5    1  0.1448308E-002  0.1250014E+03  0.7818608E-02  0.1235067E+00
         -4   -1    0    0    0  501 -0.00000000000E+00  0.00000000000E+00  0.54089037061E+02  0.54103944682E+02  0.12700000000E+01 0. -1.
          4   -1    0    0  501    0  0.00000000000E+00 -0.00000000000E+00 -0.72190062442E+02  0.72201232783E+02  0.12700000000E+01 0. -1.
         25    2    1    2    0    0  0.00000000000E+00  0.00000000000E+00 -0.18101025381E+02  0.12630517747E+03  0.12500140293E+03 0.  0.
    9000005    1    3    3    0    0 -0.23104795547E+02 -0.12394566360E+02 -0.66368541244E+02  0.71366939961E+02  0.10000000000E+01 0.  0.
    9000005    1    3    3    0    0  0.23104795547E+02  0.12394566360E+02  0.48267515863E+02  0.54938237505E+02  0.10000000000E+01 0.  0.
<mgrwt>
<rscale>  0 0.12500140E+03</rscale>
<asrwt>0</asrwt>
<pdfrwt beam="2">  1        4 0.18050775E-01 0.12500140E+03</pdfrwt>
<pdfrwt beam="1">  1       -4 0.13525519E-01 0.12500140E+03</pdfrwt>
<totfact> 0.19763789E+03</totfact>
</mgrwt>
</event>
<event>
 5    1  0.1448308E-002  0.1249913E+03  0.7818608E-02  0.1235083E+00
         -4   -1    0    0    0  501 -0.00000000000E+00  0.00000000000E+00  0.10105257090E+03  0.10106055108E+03  0.12700000000E+01 0. -1.
          4   -1    0    0  501    0  0.00000000000E+00 -0.00000000000E+00 -0.38630291713E+02  0.38651162180E+02  0.12700000000E+01 0. -1.
         25    2    1    2    0    0  0.00000000000E+00  0.00000000000E+00  0.62422279187E+02  0.13971171326E+03  0.12499128723E+03 0.  0.
    9000005    1    3    3    0    0  0.29904844775E+02 -0.42589819066E+02 -0.74533067849E+01  0.52580835017E+02  0.10000000000E+01 0.  0.
    9000005    1    3    3    0    0 -0.29904844775E+02  0.42589819066E+02  0.69875585971E+02  0.87130878246E+02  0.10000000000E+01 0.  0.
<mgrwt>
<rscale>  0 0.12499129E+03</rscale>
<asrwt>0</asrwt>
<pdfrwt beam="2">  1        4 0.96611793E-02 0.12499129E+03</pdfrwt>
<pdfrwt beam="1">  1       -4 0.25266749E-01 0.12499129E+03</pdfrwt>
<totfact> 0.19058972E+03</totfact>
</mgrwt>
</event>
<event>
 5    1  0.1448308E-002  0.1249999E+03  0.7818608E-02  0.1235069E+00
         -4   -1    0    0    0  501 -0.00000000000E+00  0.00000000000E+00  0.39208289754E+03  0.39208495437E+03  0.12700000000E+01 0.  1.
          4   -1    0    0  501    0  0.00000000000E+00 -0.00000000000E+00 -0.99202334506E+01  0.10001196514E+02  0.12700000000E+01 0.  1.
         25    2    1    2    0    0  0.00000000000E+00  0.00000000000E+00  0.38216266409E+03  0.40208615089E+03  0.12499988364E+03 0.  0.
    9000005    1    3    3    0    0 -0.13558958681E+02 -0.33105398588E+02  0.26261402610E+02  0.44390021888E+02  0.10000000000E+01 0.  0.
    9000005    1    3    3    0    0  0.13558958681E+02  0.33105398588E+02  0.35590126148E+03  0.35769612900E+03  0.10000000000E+01 0.  0.
<mgrwt>
<rscale>  0 0.12499988E+03</rscale>
<asrwt>0</asrwt>
<pdfrwt beam="2">  1        4 0.24904358E-02 0.12499988E+03</pdfrwt>
<pdfrwt beam="1">  1       -4 0.98031102E-01 0.12499988E+03</pdfrwt>
<totfact> 0.10526382E+03</totfact>
</mgrwt>
</event>
<event>
 5    1  0.1448308E-002  0.1249995E+03  0.7818608E-02  0.1235070E+00
         -4   -1    0    0    0  501 -0.00000000000E+00  0.00000000000E+00  0.32536246125E+02  0.32561022894E+02  0.12700000000E+01 0.  1.
          4   -1    0    0  501    0  0.00000000000E+00 -0.00000000000E+00 -0.11998360187E+03  0.11999032302E+03  0.12700000000E+01 0.  1.
         25    2    1    2    0    0  0.00000000000E+00  0.00000000000E+00 -0.87447355744E+02  0.15255134591E+03  0.12499949245E+03 0.  0.
    9000005    1    3    3    0    0 -0.47491337274E+02 -0.36125708816E+02 -0.66382835402E+02  0.89264633475E+02  0.10000000000E+01 0.  0.
    9000005    1    3    3    0    0  0.47491337274E+02  0.36125708816E+02 -0.21064520342E+02  0.63286712434E+02  0.10000000000E+01 0.  0.
<mgrwt>
<rscale>  0 0.12499949E+03</rscale>
<asrwt>0</asrwt>
<pdfrwt beam="2">  1        4 0.29999837E-01 0.12499949E+03</pdfrwt>
<pdfrwt beam="1">  1       -4 0.81379991E-02 0.12499949E+03</pdfrwt>
<totfact> 0.18414256E+03</totfact>
</mgrwt>
</event>
<event>
 5    1  0.1448308E-002  0.1249994E+03  0.7818608E-02  0.1235070E+00
          4   -1    0    0  501    0  0.00000000000E+00  0.00000000000E+00  0.31911906994E+02  0.31937168128E+02  0.12700000000E+01 0.  1.
         -4   -1    0    0    0  501 -0.00000000000E+00 -0.00000000000E+00 -0.12232912620E+03  0.12233571849E+03  0.12700000000E+01 0.  1.
         25    2    1    2    0    0  0.00000000000E+00  0.00000000000E+00 -0.90417219207E+02  0.15427288661E+03  0.12499940006E+03 0.  0.
    9000005    1    3    3    0    0  0.60667083137E+02  0.10633622214E+02 -0.58249240562E+02  0.84779377939E+02  0.10000000000E+01 0.  0.
    9000005    1    3    3    0    0 -0.60667083137E+02 -0.10633622214E+02 -0.32167978645E+02  0.69493508674E+02  0.10000000000E+01 0.  0.
<mgrwt>
<rscale>  0 0.12499940E+03</rscale>
<asrwt>0</asrwt>
<pdfrwt beam="1">  1        4 0.79819587E-02 0.12499940E+03</pdfrwt>
<pdfrwt beam="2">  1       -4 0.30586262E-01 0.12499940E+03</pdfrwt>
<totfact> 0.18330915E+03</totfact>
</mgrwt>
</event>
<event>
 5    1  0.1448308E-002  0.1250009E+03  0.7818608E-02  0.1235068E+00
         -4   -1    0    0    0  501 -0.00000000000E+00  0.00000000000E+00  0.44796930135E+02  0.44814928869E+02  0.12700000000E+01 0.  1.
          4   -1    0    0  501    0  0.00000000000E+00 -0.00000000000E+00 -0.87160170009E+02  0.87169422024E+02  0.12700000000E+01 0.  1.
         25    2    1    2    0    0  0.00000000000E+00  0.00000000000E+00 -0.42363239874E+02  0.13198435089E+03  0.12500089915E+03 0.  0.
    9000005    1    3    3    0    0 -0.58824685665E+02  0.15978426470E+02 -0.35722427344E+02  0.70659362943E+02  0.10000000000E+01 0.  0.
    9000005    1    3    3    0    0  0.58824685665E+02 -0.15978426470E+02 -0.66408125297E+01  0.61324987951E+02  0.10000000000E+01 0.  0.
<mgrwt>
<rscale>  0 0.12500090E+03</rscale>
<asrwt>0</asrwt>
<pdfrwt beam="2">  1        4 0.21793449E-01 0.12500090E+03</pdfrwt>
<pdfrwt beam="1">  1       -4 0.11202639E-01 0.12500090E+03</pdfrwt>
<totfact> 0.19457879E+03</totfact>
</mgrwt>
</event>
<event>
 5    1  0.1448308E-002  0.1250006E+03  0.7818608E-02  0.1235068E+00
          4   -1    0    0  501    0  0.00000000000E+00  0.00000000000E+00  0.73427814641E+03  0.73427924470E+03  0.12700000000E+01 0.  1.
         -4   -1    0    0    0  501 -0.00000000000E+00 -0.00000000000E+00 -0.52429911192E+01  0.53946135984E+01  0.12700000000E+01 0.  1.
         25    2    1    2    0    0  0.00000000000E+00  0.00000000000E+00  0.72903515529E+03  0.73967385830E+03  0.12500063599E+03 0.  0.
    9000005    1    3    3    0    0 -0.93680323997E+01  0.26432850173E+02  0.34053552894E+02  0.44125956806E+02  0.10000000000E+01 0.  0.
    9000005    1    3    3    0    0  0.93680323997E+01 -0.26432850173E+02  0.69498160240E+03  0.69554790149E+03  0.10000000000E+01 0.  0.
<mgrwt>
<rscale>  0 0.12500064E+03</rscale>
<asrwt>0</asrwt>
<pdfrwt beam="1">  1        4 0.18358861E+00 0.12500064E+03</pdfrwt>
<pdfrwt beam="2">  1       -4 0.13298380E-02 0.12500064E+03</pdfrwt>
<totfact> 0.58064714E+02</totfact>
</mgrwt>
</event>
<event>
 5    1  0.1448308E-002  0.1250054E+03  0.7818608E-02  0.1235061E+00
         -4   -1    0    0    0  501 -0.00000000000E+00  0.00000000000E+00  0.82722601418E+01  0.83691808353E+01  0.12700000000E+01 0. -1.
          4   -1    0    0  501    0  0.00000000000E+00 -0.00000000000E+00 -0.46940342302E+03  0.46940514105E+03  0.12700000000E+01 0. -1.
         25    2    1    2    0    0  0.00000000000E+00  0.00000000000E+00 -0.46113116288E+03  0.47777432189E+03  0.12500541298E+03 0.  0.
    9000005    1    3    3    0    0 -0.15237246954E+02 -0.38542723181E+02 -0.51791295844E+02  0.66340436614E+02  0.10000000000E+01 0.  0.
    9000005    1    3    3    0    0  0.15237246954E+02  0.38542723181E+02 -0.40933986704E+03  0.41143388527E+03  0.10000000000E+01 0.  0.
<mgrwt>
<rscale>  0 0.12500541E+03</rscale>
<asrwt>0</asrwt>
<pdfrwt beam="2">  1        4 0.11736310E+00 0.12500541E+03</pdfrwt>
<pdfrwt beam="1">  1       -4 0.20803965E-02 0.12500541E+03</pdfrwt>
<totfact> 0.91223805E+02</totfact>
</mgrwt>
</event>
<event>
 5    1  0.1448308E-002  0.1249951E+03  0.7818608E-02  0.1235077E+00
         -4   -1    0    0    0  501 -0.00000000000E+00  0.00000000000E+00  0.93749198188E+01  0.94605508089E+01  0.12700000000E+01 0.  1.
          4   -1    0    0  501    0  0.00000000000E+00 -0.00000000000E+00 -0.41465678030E+03  0.41465872516E+03  0.12700000000E+01 0.  1.
         25    2    1    2    0    0  0.00000000000E+00  0.00000000000E+00 -0.40528186049E+03  0.42411927597E+03  0.12499509515E+03 0.  0.
    9000005    1    3    3    0    0 -0.24424134824E+01 -0.50590269691E+02 -0.78451954852E+02  0.93386562155E+02  0.10000000000E+01 0.  0.
    9000005    1    3    3    0    0  0.24424134824E+01  0.50590269691E+02 -0.32682990563E+03  0.33073271382E+03  0.10000000000E+01 0.  0.
<mgrwt>
<rscale>  0 0.12499510E+03</rscale>
<asrwt>0</asrwt>
<pdfrwt beam="2">  1        4 0.10367508E+00 0.12499510E+03</pdfrwt>
<pdfrwt beam="1">  1       -4 0.23546783E-02 0.12499510E+03</pdfrwt>
<totfact> 0.10086636E+03</totfact>
</mgrwt>
</event>
<event>
 5    1  0.1448308E-002  0.1249945E+03  0.7818608E-02  0.1235078E+00
         -4   -1    0    0    0  501 -0.00000000000E+00  0.00000000000E+00  0.47375100932E+02  0.47392120530E+02  0.12700000000E+01 0.  1.
          4   -1    0    0  501    0  0.00000000000E+00 -0.00000000000E+00 -0.82409636844E+02  0.82419422133E+02  0.12700000000E+01 0.  1.
         25    2    1    2    0    0  0.00000000000E+00  0.00000000000E+00 -0.35034535912E+02  0.12981154266E+03  0.12499447148E+03 0.  0.
    9000005    1    3    3    0    0 -0.14602850926E+01  0.33048276444E+02  0.37540772441E+02  0.50046284617E+02  0.10000000000E+01 0.  0.
    9000005    1    3    3    0    0  0.14602850926E+01 -0.33048276444E+02 -0.72575308353E+02  0.79765258045E+02  0.10000000000E+01 0.  0.
<mgrwt>
<rscale>  0 0.12499447E+03</rscale>
<asrwt>0</asrwt>
<pdfrwt beam="2">  1        4 0.20605760E-01 0.12499447E+03</pdfrwt>
<pdfrwt beam="1">  1       -4 0.11847126E-01 0.12499447E+03</pdfrwt>
<totfact> 0.19577045E+03</totfact>
</mgrwt>
</event>
<event>
 5    1  0.1448308E-002  0.1250068E+03  0.7818608E-02  0.1235059E+00
         -4   -1    0    0    0  501 -0.00000000000E+00  0.00000000000E+00  0.28782753463E+02  0.28810758354E+02  0.12700000000E+01 0. -1.
          4   -1    0    0  501    0  0.00000000000E+00 -0.00000000000E+00 -0.13563283533E+03  0.13563878103E+03  0.12700000000E+01 0. -1.
         25    2    1    2    0    0  0.00000000000E+00  0.00000000000E+00 -0.10685008186E+03  0.16444953938E+03  0.12500684385E+03 0.  0.
    9000005    1    3    3    0    0 -0.27276932258E+01  0.29808715646E+02 -0.12559540259E+03  0.12911702053E+03  0.10000000000E+01 0.  0.
    9000005    1    3    3    0    0  0.27276932258E+01 -0.29808715646E+02  0.18745320731E+02  0.35332518848E+02  0.10000000000E+01 0.  0.
<mgrwt>
<rscale>  0 0.12500684E+03</rscale>
<asrwt>0</asrwt>
<pdfrwt beam="2">  1        4 0.33912451E-01 0.12500684E+03</pdfrwt>
<pdfrwt beam="1">  1       -4 0.71999326E-02 0.12500684E+03</pdfrwt>
<totfact> 0.17847504E+03</totfact>
</mgrwt>
</event>
<event>
 5    1  0.1448308E-002  0.1249973E+03  0.7818608E-02  0.1235074E+00
         -4   -1    0    0    0  501 -0.00000000000E+00  0.00000000000E+00  0.58822146619E+01  0.60177528471E+01  0.12700000000E+01 0. -1.
          4   -1    0    0  501    0  0.00000000000E+00 -0.00000000000E+00 -0.65634986883E+03  0.65635109752E+03  0.12700000000E+01 0. -1.
         25    2    1    2    0    0  0.00000000000E+00  0.00000000000E+00 -0.65046765417E+03  0.66236885036E+03  0.12499729923E+03 0.  0.
    9000005    1    3    3    0    0 -0.47679987926E+02 -0.23954071573E+02 -0.49758810776E+03  0.50044190850E+03  0.10000000000E+01 0.  0.
    9000005    1    3    3    0    0  0.47679987926E+02  0.23954071573E+02 -0.15287954640E+03  0.16192694186E+03  0.10000000000E+01 0.  0.
<mgrwt>
<rscale>  0 0.12499730E+03</rscale>
<asrwt>0</asrwt>
<pdfrwt beam="2">  1        4 0.16410432E+00 0.12499730E+03</pdfrwt>
<pdfrwt beam="1">  1       -4 0.14876518E-02 0.12499730E+03</pdfrwt>
<totfact> 0.66117416E+02</totfact>
</mgrwt>
</event>
<event>
 5    1  0.1448308E-002  0.1249996E+03  0.7818608E-02  0.1235070E+00
          4   -1    0    0  501    0  0.00000000000E+00  0.00000000000E+00  0.41158143937E+02  0.41177733210E+02  0.12700000000E+01 0. -1.
         -4   -1    0    0    0  501 -0.00000000000E+00 -0.00000000000E+00 -0.94861229189E+02  0.94869730174E+02  0.12700000000E+01 0. -1.
         25    2    1    2    0    0  0.00000000000E+00  0.00000000000E+00 -0.53703085252E+02  0.13604746338E+03  0.12499956371E+03 0.  0.
    9000005    1    3    3    0    0  0.60156647673E+02 -0.39014242163E+01 -0.89285606246E+01  0.60948852040E+02  0.10000000000E+01 0.  0.
    9000005    1    3    3    0    0 -0.60156647673E+02  0.39014242163E+01 -0.44774524628E+02  0.75098611344E+02  0.10000000000E+01 0.  0.
<mgrwt>
<rscale>  0 0.12499956E+03</rscale>
<asrwt>0</asrwt>
<pdfrwt beam="1">  1        4 0.10293047E-01 0.12499956E+03</pdfrwt>
<pdfrwt beam="2">  1       -4 0.23718818E-01 0.12499956E+03</pdfrwt>
<totfact> 0.19244608E+03</totfact>
</mgrwt>
</event>
<event>
 5    1  0.1448308E-002  0.1249964E+03  0.7818608E-02  0.1235075E+00
          4   -1    0    0  501    0  0.00000000000E+00  0.00000000000E+00  0.75475150418E+02  0.75485834636E+02  0.12700000000E+01 0.  1.
         -4   -1    0    0    0  501 -0.00000000000E+00 -0.00000000000E+00 -0.51730325014E+02  0.51745912168E+02  0.12700000000E+01 0.  1.
         25    2    1    2    0    0  0.00000000000E+00  0.00000000000E+00  0.23744825404E+02  0.12723174680E+03  0.12499640259E+03 0.  0.
    9000005    1    3    3    0    0  0.58218996479E+02  0.20936300446E+02  0.29263283266E+01  0.61946296296E+02  0.10000000000E+01 0.  0.
    9000005    1    3    3    0    0 -0.58218996479E+02 -0.20936300446E+02  0.20818497078E+02  0.65285450507E+02  0.10000000000E+01 0.  0.
<mgrwt>
<rscale>  0 0.12499640E+03</rscale>
<asrwt>0</asrwt>
<pdfrwt beam="1">  1        4 0.18872071E-01 0.12499640E+03</pdfrwt>
<pdfrwt beam="2">  1       -4 0.12935865E-01 0.12499640E+03</pdfrwt>
<totfact> 0.19716083E+03</totfact>
</mgrwt>
</event>
<event>
 5    1  0.1448308E-002  0.1249946E+03  0.7818608E-02  0.1235078E+00
         -4   -1    0    0    0  501 -0.00000000000E+00  0.00000000000E+00  0.78544379850E+02  0.78554646623E+02  0.12700000000E+01 0. -1.
          4   -1    0    0  501    0  0.00000000000E+00 -0.00000000000E+00 -0.49707133959E+02  0.49723355341E+02  0.12700000000E+01 0. -1.
         25    2    1    2    0    0  0.00000000000E+00  0.00000000000E+00  0.28837245892E+02  0.12827800196E+03  0.12499463603E+03 0.  0.
    9000005    1    3    3    0    0  0.22380714007E+02  0.78125983831E+01  0.73755926995E+02  0.77478189317E+02  0.10000000000E+01 0.  0.
    9000005    1    3    3    0    0 -0.22380714007E+02 -0.78125983831E+01 -0.44918681103E+02  0.50799812647E+02  0.10000000000E+01 0.  0.
<mgrwt>
<rscale>  0 0.12499464E+03</rscale>
<asrwt>0</asrwt>
<pdfrwt beam="2">  1        4 0.12430095E-01 0.12499464E+03</pdfrwt>
<pdfrwt beam="1">  1       -4 0.19639406E-01 0.12499464E+03</pdfrwt>
<totfact> 0.19659883E+03</totfact>
</mgrwt>
</event>
<event>
 5    1  0.1448308E-002  0.1250007E+03  0.7818608E-02  0.1235068E+00
          4   -1    0    0  501    0  0.00000000000E+00  0.00000000000E+00  0.14150909131E+03  0.14151479013E+03  0.12700000000E+01 0. -1.
         -4   -1    0    0    0  501 -0.00000000000E+00 -0.00000000000E+00 -0.27583671813E+02  0.27612892834E+02  0.12700000000E+01 0. -1.
         25    2    1    2    0    0  0.00000000000E+00  0.00000000000E+00  0.11392541950E+03  0.16912768296E+03  0.12500068774E+03 0.  0.
    9000005    1    3    3    0    0 -0.30575873251E+02 -0.22552169920E+02  0.12409468690E+03  0.12978434308E+03  0.10000000000E+01 0.  0.
    9000005    1    3    3    0    0  0.30575873251E+02  0.22552169920E+02 -0.10169267399E+02  0.39343339876E+02  0.10000000000E+01 0.  0.
<mgrwt>
<rscale>  0 0.12500069E+03</rscale>
<asrwt>0</asrwt>
<pdfrwt beam="1">  1        4 0.35381637E-01 0.12500069E+03</pdfrwt>
<pdfrwt beam="2">  1       -4 0.69002830E-02 0.12500069E+03</pdfrwt>
<totfact> 0.17636183E+03</totfact>
</mgrwt>
</event>
<event>
 5    1  0.1448308E-002  0.1249929E+03  0.7818608E-02  0.1235080E+00
         -4   -1    0    0    0  501 -0.00000000000E+00  0.00000000000E+00  0.66690591613E+02  0.66702682927E+02  0.12700000000E+01 0.  1.
          4   -1    0    0  501    0  0.00000000000E+00 -0.00000000000E+00 -0.58541785325E+02  0.58555559335E+02  0.12700000000E+01 0.  1.
         25    2    1    2    0    0  0.00000000000E+00  0.00000000000E+00  0.81488062884E+01  0.12525824226E+03  0.12499289664E+03 0.  0.
    9000005    1    3    3    0    0  0.10471859614E+02  0.40370121653E+02  0.50707042316E+02  0.65662856368E+02  0.10000000000E+01 0.  0.
    9000005    1    3    3    0    0 -0.10471859614E+02 -0.40370121653E+02 -0.42558236027E+02  0.59595385894E+02  0.10000000000E+01 0.  0.
<mgrwt>
<rscale>  0 0.12499290E+03</rscale>
<asrwt>0</asrwt>
<pdfrwt beam="2">  1        4 0.14638680E-01 0.12499290E+03</pdfrwt>
<pdfrwt beam="1">  1       -4 0.16675881E-01 0.12499290E+03</pdfrwt>
<totfact> 0.19824351E+03</totfact>
</mgrwt>
</event>
<event>
 5    1  0.1448308E-002  0.1250163E+03  0.7818608E-02  0.1235044E+00
         -4   -1    0    0    0  501 -0.00000000000E+00  0.00000000000E+00  0.49097654965E+01  0.50713604911E+01  0.12700000000E+01 0. -1.
          4   -1    0    0  501    0  0.00000000000E+00 -0.00000000000E+00 -0.78276879900E+03  0.78276982925E+03  0.12700000000E+01 0. -1.
         25    2    1    2    0    0  0.00000000000E+00  0.00000000000E+00 -0.77785903350E+03  0.78784118974E+03  0.12501625596E+03 0.  0.
    9000005    1    3    3    0    0 -0.59455045865E+02  0.18800514938E+02 -0.36226400465E+03  0.36759294186E+03  0.10000000000E+01 0.  0.
    9000005    1    3    3    0    0  0.59455045865E+02 -0.18800514938E+02 -0.41559502885E+03  0.42024824788E+03  0.10000000000E+01 0.  0.
<mgrwt>
<rscale>  0 0.12501626E+03</rscale>
<asrwt>0</asrwt>
<pdfrwt beam="2">  1        4 0.19571211E+00 0.12501626E+03</pdfrwt>
<pdfrwt beam="1">  1       -4 0.12477722E-02 0.12501626E+03</pdfrwt>
<totfact> 0.53543374E+02</totfact>
</mgrwt>
</event>
<event>
 5    1  0.1448308E-002  0.1249797E+03  0.7818608E-02  0.1235101E+00
         -4   -1    0    0    0  501 -0.00000000000E+00  0.00000000000E+00  0.77727331748E+03  0.77727435502E+03  0.12700000000E+01 0.  1.
          4   -1    0    0  501    0  0.00000000000E+00 -0.00000000000E+00 -0.49426336568E+01  0.51031879708E+01  0.12700000000E+01 0.  1.
         25    2    1    2    0    0  0.00000000000E+00  0.00000000000E+00  0.77233068382E+03  0.78237754299E+03  0.12497973674E+03 0.  0.
    9000005    1    3    3    0    0  0.28369677115E+02  0.53865938750E+02  0.47416409486E+03  0.47805749319E+03  0.10000000000E+01 0.  0.
    9000005    1    3    3    0    0 -0.28369677115E+02 -0.53865938750E+02  0.29816658896E+03  0.30432004980E+03  0.10000000000E+01 0.  0.
<mgrwt>
<rscale>  0 0.12497974E+03</rscale>
<asrwt>0</asrwt>
<pdfrwt beam="2">  1        4 0.12558570E-02 0.12497974E+03</pdfrwt>
<pdfrwt beam="1">  1       -4 0.19433859E+00 0.12497974E+03</pdfrwt>
<totfact> 0.54082040E+02</totfact>
</mgrwt>
</event>
<event>
 5    1  0.1448308E-002  0.1250012E+03  0.7818608E-02  0.1235067E+00
          4   -1    0    0  501    0  0.00000000000E+00  0.00000000000E+00  0.67704293431E+03  0.67704412545E+03  0.12700000000E+01 0. -1.
         -4   -1    0    0    0  501 -0.00000000000E+00 -0.00000000000E+00 -0.56985869562E+01  0.58383896151E+01  0.12700000000E+01 0. -1.
         25    2    1    2    0    0  0.00000000000E+00  0.00000000000E+00  0.67134434736E+03  0.68288251506E+03  0.12500118660E+03 0.  0.
    9000005    1    3    3    0    0  0.56819796331E+02  0.23108540442E+02  0.27038287854E+03  0.27725510799E+03  0.10000000000E+01 0.  0.
    9000005    1    3    3    0    0 -0.56819796331E+02 -0.23108540442E+02  0.40096146881E+03  0.40562740707E+03  0.10000000000E+01 0.  0.
<mgrwt>
<rscale>  0 0.12500119E+03</rscale>
<asrwt>0</asrwt>
<pdfrwt beam="1">  1        4 0.16927836E+00 0.12500119E+03</pdfrwt>
<pdfrwt beam="2">  1       -4 0.14422709E-02 0.12500119E+03</pdfrwt>
<totfact> 0.63868764E+02</totfact>
</mgrwt>
</event>
<event>
 5    1  0.1448308E-002  0.1250003E+03  0.7818608E-02  0.1235069E+00
          4   -1    0    0  501    0  0.00000000000E+00  0.00000000000E+00  0.13605198968E+02  0.13664345537E+02  0.12700000000E+01 0. -1.
         -4   -1    0    0    0  501 -0.00000000000E+00 -0.00000000000E+00 -0.28643248014E+03  0.28643529563E+03  0.12700000000E+01 0. -1.
         25    2    1    2    0    0  0.00000000000E+00  0.00000000000E+00 -0.27282728118E+03  0.30009964116E+03  0.12500027709E+03 0.  0.
    9000005    1    3    3    0    0  0.34607240594E+02 -0.67917263362E+01 -0.12557941385E+02  0.37449840320E+02  0.10000000000E+01 0.  0.
    9000005    1    3    3    0    0 -0.34607240594E+02  0.67917263362E+01 -0.26026933979E+03  0.26264980084E+03  0.10000000000E+01 0.  0.
<mgrwt>
<rscale>  0 0.12500028E+03</rscale>
<asrwt>0</asrwt>
<pdfrwt beam="1">  1        4 0.34090459E-02 0.12500028E+03</pdfrwt>
<pdfrwt beam="2">  1       -4 0.71615846E-01 0.12500028E+03</pdfrwt>
<totfact> 0.12968184E+03</totfact>
</mgrwt>
</event>
<event>
 5    1  0.1448308E-002  0.1249958E+03  0.7818608E-02  0.1235076E+00
          4   -1    0    0  501    0  0.00000000000E+00  0.00000000000E+00  0.28928128600E+03  0.28928407376E+03  0.12700000000E+01 0.  1.
         -4   -1    0    0    0  501 -0.00000000000E+00 -0.00000000000E+00 -0.13469667349E+02  0.13529406435E+02  0.12700000000E+01 0.  1.
         25    2    1    2    0    0  0.00000000000E+00  0.00000000000E+00  0.27581161866E+03  0.30281348020E+03  0.12499581914E+03 0.  0.
    9000005    1    3    3    0    0 -0.37520836599E+02 -0.45375886978E+02  0.87192951407E+02  0.10521594496E+03  0.10000000000E+01 0.  0.
    9000005    1    3    3    0    0  0.37520836599E+02  0.45375886978E+02  0.18861866725E+03  0.19759753524E+03  0.10000000000E+01 0.  0.
<mgrwt>
<rscale>  0 0.12499582E+03</rscale>
<asrwt>0</asrwt>
<pdfrwt beam="1">  1        4 0.72328139E-01 0.12499582E+03</pdfrwt>
<pdfrwt beam="2">  1       -4 0.33752326E-02 0.12499582E+03</pdfrwt>
<totfact> 0.12893802E+03</totfact>
</mgrwt>
</event>
<event>
 5    1  0.1448308E-002  0.1249999E+03  0.7818608E-02  0.1235069E+00
          4   -1    0    0  501    0  0.00000000000E+00  0.00000000000E+00  0.18800858601E+02  0.18843704098E+02  0.12700000000E+01 0. -1.
         -4   -1    0    0    0  501 -0.00000000000E+00 -0.00000000000E+00 -0.20748827584E+03  0.20749216253E+03  0.12700000000E+01 0. -1.
         25    2    1    2    0    0  0.00000000000E+00  0.00000000000E+00 -0.18868741724E+03  0.22633586663E+03  0.12499993239E+03 0.  0.
    9000005    1    3    3    0    0  0.28275462334E+02  0.42862855345E+02 -0.29853734968E+02  0.59405148178E+02  0.10000000000E+01 0.  0.
    9000005    1    3    3    0    0 -0.28275462334E+02 -0.42862855345E+02 -0.15883368228E+03  0.16693071845E+03  0.10000000000E+01 0.  0.
<mgrwt>
<rscale>  0 0.12499993E+03</rscale>
<asrwt>0</asrwt>
<pdfrwt beam="1">  1        4 0.47060568E-02 0.12499993E+03</pdfrwt>
<pdfrwt beam="2">  1       -4 0.51877903E-01 0.12499993E+03</pdfrwt>
<totfact> 0.15319154E+03</totfact>
</mgrwt>
</event>
<event>
 5    1  0.1448308E-002  0.1250017E+03  0.7818608E-02  0.1235067E+00
         -4   -1    0    0    0  501 -0.00000000000E+00  0.00000000000E+00  0.15707937205E+02  0.15759193863E+02  0.12700000000E+01 0. -1.
          4   -1    0    0  501    0  0.00000000000E+00 -0.00000000000E+00 -0.24822897474E+03  0.24823222353E+03  0.12700000000E+01 0. -1.
         25    2    1    2    0    0  0.00000000000E+00  0.00000000000E+00 -0.23252103753E+03  0.26399141739E+03  0.12500174224E+03 0.  0.
    9000005    1    3    3    0    0 -0.19538076016E+02  0.23048992928E+02 -0.23178688853E+03  0.23375019612E+03  0.10000000000E+01 0.  0.
    9000005    1    3    3    0    0  0.19538076016E+02 -0.23048992928E+02 -0.73414899765E+00  0.30241221274E+02  0.10000000000E+01 0.  0.
<mgrwt>
<rscale>  0 0.12500174E+03</rscale>
<asrwt>0</asrwt>
<pdfrwt beam="2">  1        4 0.62064044E-01 0.12500174E+03</pdfrwt>
<pdfrwt beam="1">  1       -4 0.39337983E-02 0.12500174E+03</pdfrwt>
<totfact> 0.14043312E+03</totfact>
</mgrwt>
</event>
<event>
 5    1  0.1448308E-002  0.1249967E+03  0.7818608E-02  0.1235074E+00
          4   -1    0    0  501    0  0.00000000000E+00  0.00000000000E+00  0.15065836531E+03  0.15066371806E+03  0.12700000000E+01 0.  1.
         -4   -1    0    0    0  501 -0.00000000000E+00 -0.00000000000E+00 -0.25905147210E+02  0.25936259406E+02  0.12700000000E+01 0.  1.
         25    2    1    2    0    0  0.00000000000E+00  0.00000000000E+00  0.12475321810E+03  0.17659997746E+03  0.12499674641E+03 0.  0.
    9000005    1    3    3    0    0  0.19059413150E+01  0.62375555479E+02  0.66999007839E+02  0.91565329602E+02  0.10000000000E+01 0.  0.
    9000005    1    3    3    0    0 -0.19059413150E+01 -0.62375555479E+02  0.57754210262E+02  0.85034647860E+02  0.10000000000E+01 0.  0.
<mgrwt>
<rscale>  0 0.12499675E+03</rscale>
<asrwt>0</asrwt>
<pdfrwt beam="1">  1        4 0.37669149E-01 0.12499675E+03</pdfrwt>
<pdfrwt beam="2">  1       -4 0.64808449E-02 0.12499675E+03</pdfrwt>
<totfact> 0.17304710E+03</totfact>
</mgrwt>
</event>
<event>
 5    1  0.1448308E-002  0.1250031E+03  0.7818608E-02  0.1235064E+00
          4   -1    0    0  501    0  0.00000000000E+00  0.00000000000E+00  0.11585631884E+02  0.11655031795E+02  0.12700000000E+01 0. -1.
         -4   -1    0    0    0  501 -0.00000000000E+00 -0.00000000000E+00 -0.33610264919E+03  0.33610504860E+03  0.12700000000E+01 0. -1.
         25    2    1    2    0    0  0.00000000000E+00  0.00000000000E+00 -0.32451701731E+03  0.34776008039E+03  0.12500311593E+03 0.  0.
    9000005    1    3    3    0    0  0.54430204278E+02 -0.22611310718E+02 -0.10446720486E+03  0.11995130429E+03  0.10000000000E+01 0.  0.
    9000005    1    3    3    0    0 -0.54430204278E+02  0.22611310718E+02 -0.22004981245E+03  0.22780877610E+03  0.10000000000E+01 0.  0.
<mgrwt>
<rscale>  0 0.12500312E+03</rscale>
<asrwt>0</asrwt>
<pdfrwt beam="1">  1        4 0.29053840E-02 0.12500312E+03</pdfrwt>
<pdfrwt beam="2">  1       -4 0.84034605E-01 0.12500312E+03</pdfrwt>
<totfact> 0.11730097E+03</totfact>
</mgrwt>
</event>
<event>
 5    1  0.1448308E-002  0.1250044E+03  0.7818608E-02  0.1235062E+00
          4   -1    0    0  501    0  0.00000000000E+00  0.00000000000E+00  0.15342285643E+03  0.15342811273E+03  0.12700000000E+01 0. -1.
         -4   -1    0    0    0  501 -0.00000000000E+00 -0.00000000000E+00 -0.25440944935E+02  0.25472624113E+02  0.12700000000E+01 0. -1.
         25    2    1    2    0    0  0.00000000000E+00  0.00000000000E+00  0.12798191150E+03  0.17890073684E+03  0.12500441581E+03 0.  0.
    9000005    1    3    3    0    0 -0.58751681060E+02  0.89066845192E+01  0.91684345387E+02  0.10926165039E+03  0.10000000000E+01 0.  0.
    9000005    1    3    3    0    0  0.58751681060E+02 -0.89066845192E+01  0.36297566110E+02  0.69639086453E+02  0.10000000000E+01 0.  0.
<mgrwt>
<rscale>  0 0.12500442E+03</rscale>
<asrwt>0</asrwt>
<pdfrwt beam="1">  1        4 0.38360330E-01 0.12500442E+03</pdfrwt>
<pdfrwt beam="2">  1       -4 0.63648533E-02 0.12500442E+03</pdfrwt>
<totfact> 0.17201139E+03</totfact>
</mgrwt>
</event>
<event>
 5    1  0.1448308E-002  0.1250005E+03  0.7818608E-02  0.1235068E+00
          4   -1    0    0  501    0  0.00000000000E+00  0.00000000000E+00  0.69008834117E+01  0.70167721826E+01  0.12700000000E+01 0. -1.
         -4   -1    0    0    0  501 -0.00000000000E+00 -0.00000000000E+00 -0.56122538213E+03  0.56122681907E+03  0.12700000000E+01 0. -1.
         25    2    1    2    0    0  0.00000000000E+00  0.00000000000E+00 -0.55432449872E+03  0.56824359125E+03  0.12500051649E+03 0.  0.
    9000005    1    3    3    0    0  0.24255578279E+02  0.32299921057E+02 -0.49392562746E+03  0.49557556784E+03  0.10000000000E+01 0.  0.
    9000005    1    3    3    0    0 -0.24255578279E+02 -0.32299921057E+02 -0.60398871259E+02  0.72668023417E+02  0.10000000000E+01 0.  0.
<mgrwt>
<rscale>  0 0.12500052E+03</rscale>
<asrwt>0</asrwt>
<pdfrwt beam="1">  1        4 0.17398885E-02 0.12500052E+03</pdfrwt>
<pdfrwt beam="2">  1       -4 0.14032086E+00 0.12500052E+03</pdfrwt>
<totfact> 0.77648774E+02</totfact>
</mgrwt>
</event>
<event>
 5    1  0.1448308E-002  0.1250013E+03  0.7818608E-02  0.1235067E+00
          4   -1    0    0  501    0  0.00000000000E+00  0.00000000000E+00  0.14913793739E+02  0.14967770165E+02  0.12700000000E+01 0.  1.
         -4   -1    0    0    0  501 -0.00000000000E+00 -0.00000000000E+00 -0.26139858498E+03  0.26140167010E+03  0.12700000000E+01 0.  1.
         25    2    1    2    0    0  0.00000000000E+00  0.00000000000E+00 -0.24648479124E+03  0.27636944026E+03  0.12500126078E+03 0.  0.
    9000005    1    3    3    0    0  0.14731043941E+02  0.58607630288E+02 -0.88042643361E+02  0.10679122171E+03  0.10000000000E+01 0.  0.
    9000005    1    3    3    0    0 -0.14731043941E+02 -0.58607630288E+02 -0.15844214788E+03  0.16957821856E+03  0.10000000000E+01 0.  0.
<mgrwt>
<rscale>  0 0.12500126E+03</rscale>
<asrwt>0</asrwt>
<pdfrwt beam="1">  1        4 0.37355820E-02 0.12500126E+03</pdfrwt>
<pdfrwt beam="2">  1       -4 0.65356764E-01 0.12500126E+03</pdfrwt>
<totfact> 0.13659791E+03</totfact>
</mgrwt>
</event>
<event>
 5    1  0.1448308E-002  0.1250006E+03  0.7818608E-02  0.1235068E+00
          4   -1    0    0  501    0  0.00000000000E+00  0.00000000000E+00  0.27033959749E+02  0.27063774306E+02  0.12700000000E+01 0.  1.
         -4   -1    0    0    0  501 -0.00000000000E+00 -0.00000000000E+00 -0.14438337021E+03  0.14438895558E+03  0.12700000000E+01 0.  1.
         25    2    1    2    0    0  0.00000000000E+00  0.00000000000E+00 -0.11734941046E+03  0.17145272989E+03  0.12500061780E+03 0.  0.
    9000005    1    3    3    0    0  0.53376842172E+02 -0.48483646290E+01 -0.10275233345E+03  0.11589493496E+03  0.10000000000E+01 0.  0.
    9000005    1    3    3    0    0 -0.53376842172E+02  0.48483646290E+01 -0.14597077013E+02  0.55557794927E+02  0.10000000000E+01 0.  0.
<mgrwt>
<rscale>  0 0.12500062E+03</rscale>
<asrwt>0</asrwt>
<pdfrwt beam="1">  1        4 0.67629153E-02 0.12500062E+03</pdfrwt>
<pdfrwt beam="2">  1       -4 0.36100265E-01 0.12500062E+03</pdfrwt>
<totfact> 0.17531470E+03</totfact>
</mgrwt>
</event>
<event>
 5    1  0.1448308E-002  0.1249987E+03  0.7818608E-02  0.1235071E+00
          4   -1    0    0  501    0  0.00000000000E+00  0.00000000000E+00  0.33949036718E+03  0.33949274265E+03  0.12700000000E+01 0.  1.
         -4   -1    0    0    0  501 -0.00000000000E+00 -0.00000000000E+00 -0.11468518517E+02  0.11538622838E+02  0.12700000000E+01 0.  1.
         25    2    1    2    0    0  0.00000000000E+00  0.00000000000E+00  0.32802184867E+03  0.35103136549E+03  0.12499874540E+03 0.  0.
    9000005    1    3    3    0    0 -0.47588905007E+02  0.36824463847E+02  0.11664943488E+03  0.13125865943E+03  0.10000000000E+01 0.  0.
    9000005    1    3    3    0    0  0.47588905007E+02 -0.36824463847E+02  0.21137241378E+03  0.21977270605E+03  0.10000000000E+01 0.  0.
<mgrwt>
<rscale>  0 0.12499875E+03</rscale>
<asrwt>0</asrwt>
<pdfrwt beam="1">  1        4 0.84881655E-01 0.12499875E+03</pdfrwt>
<pdfrwt beam="2">  1       -4 0.28761895E-02 0.12499875E+03</pdfrwt>
<totfact> 0.11653092E+03</totfact>
</mgrwt>
</event>
<event>
 5    1  0.1448308E-002  0.1249991E+03  0.7818608E-02  0.1235071E+00
          4   -1    0    0  501    0  0.00000000000E+00  0.00000000000E+00  0.23810545436E+03  0.23810884128E+03  0.12700000000E+01 0.  1.
         -4   -1    0    0    0  501 -0.00000000000E+00 -0.00000000000E+00 -0.16377231067E+02  0.16426399405E+02  0.12700000000E+01 0.  1.
         25    2    1    2    0    0  0.00000000000E+00  0.00000000000E+00  0.22172822329E+03  0.25453524068E+03  0.12499913498E+03 0.  0.
    9000005    1    3    3    0    0  0.59701328471E+01  0.56768440502E+02  0.59072588174E+02  0.82151500271E+02  0.10000000000E+01 0.  0.
    9000005    1    3    3    0    0 -0.59701328471E+01 -0.56768440502E+02  0.16265563512E+03  0.17238374041E+03  0.10000000000E+01 0.  0.
<mgrwt>
<rscale>  0 0.12499913E+03</rscale>
<asrwt>0</asrwt>
<pdfrwt beam="1">  1        4 0.59532932E-01 0.12499913E+03</pdfrwt>
<pdfrwt beam="2">  1       -4 0.41008772E-02 0.12499913E+03</pdfrwt>
<totfact> 0.14348612E+03</totfact>
</mgrwt>
</event>
<event>
 5    1  0.1448308E-002  0.1249950E+03  0.7818608E-02  0.1235077E+00
          4   -1    0    0  501    0  0.00000000000E+00  0.00000000000E+00  0.18984565710E+02  0.19026997535E+02  0.12700000000E+01 0.  1.
         -4   -1    0    0    0  501 -0.00000000000E+00 -0.00000000000E+00 -0.20546862180E+03  0.20547254669E+03  0.12700000000E+01 0.  1.
         25    2    1    2    0    0  0.00000000000E+00  0.00000000000E+00 -0.18648405609E+03  0.22449954423E+03  0.12499496863E+03 0.  0.
    9000005    1    3    3    0    0 -0.12356682989E+02 -0.60704958560E+02 -0.78523474243E+02  0.10002357530E+03  0.10000000000E+01 0.  0.
    9000005    1    3    3    0    0  0.12356682989E+02  0.60704958560E+02 -0.10796058184E+03  0.12447596893E+03  0.10000000000E+01 0.  0.
<mgrwt>
<rscale>  0 0.12499497E+03</rscale>
<asrwt>0</asrwt>
<pdfrwt beam="1">  1        4 0.47519367E-02 0.12499497E+03</pdfrwt>
<pdfrwt beam="2">  1       -4 0.51372943E-01 0.12499497E+03</pdfrwt>
<totfact> 0.15387653E+03</totfact>
</mgrwt>
</event>
<event>
 5    1  0.1448308E-002  0.1249965E+03  0.7818608E-02  0.1235075E+00
          4   -1    0    0  501    0  0.00000000000E+00  0.00000000000E+00  0.13823292956E+03  0.13823876343E+03  0.12700000000E+01 0.  1.
         -4   -1    0    0    0  501 -0.00000000000E+00 -0.00000000000E+00 -0.28236156720E+02  0.28264703188E+02  0.12700000000E+01 0.  1.
         25    2    1    2    0    0  0.00000000000E+00  0.00000000000E+00  0.10999677284E+03  0.16650346662E+03  0.12499645739E+03 0.  0.
    9000005    1    3    3    0    0 -0.48099764681E+02 -0.29039398129E+02  0.18563179015E+02  0.59181632465E+02  0.10000000000E+01 0.  0.
    9000005    1    3    3    0    0  0.48099764681E+02  0.29039398129E+02  0.91433593826E+02  0.10732183415E+03  0.10000000000E+01 0.  0.
<mgrwt>
<rscale>  0 0.12499646E+03</rscale>
<asrwt>0</asrwt>
<pdfrwt beam="1">  1        4 0.34562529E-01 0.12499646E+03</pdfrwt>
<pdfrwt beam="2">  1       -4 0.70633369E-02 0.12499646E+03</pdfrwt>
<totfact> 0.17757379E+03</totfact>
</mgrwt>
</event>
<event>
 5    1  0.1448308E-002  0.1250043E+03  0.7818608E-02  0.1235063E+00
         -4   -1    0    0    0  501 -0.00000000000E+00  0.00000000000E+00  0.80509084094E+02  0.80519100353E+02  0.12700000000E+01 0. -1.
          4   -1    0    0  501    0  0.00000000000E+00 -0.00000000000E+00 -0.48501333048E+02  0.48517957577E+02  0.12700000000E+01 0. -1.
         25    2    1    2    0    0  0.00000000000E+00  0.00000000000E+00  0.32007751046E+02  0.12903705793E+03  0.12500426470E+03 0.  0.
    9000005    1    3    3    0    0 -0.25339336901E+02  0.51997718074E+02 -0.84167262517E+01  0.58460978099E+02  0.10000000000E+01 0.  0.
    9000005    1    3    3    0    0  0.25339336901E+02 -0.51997718074E+02  0.40424477297E+02  0.70576079831E+02  0.10000000000E+01 0.  0.
<mgrwt>
<rscale>  0 0.12500426E+03</rscale>
<asrwt>0</asrwt>
<pdfrwt beam="2">  1        4 0.12128663E-01 0.12500426E+03</pdfrwt>
<pdfrwt beam="1">  1       -4 0.20130601E-01 0.12500426E+03</pdfrwt>
<totfact> 0.19614340E+03</totfact>
</mgrwt>
</event>
<event>
 5    1  0.1448308E-002  0.1250164E+03  0.7818608E-02  0.1235044E+00
          4   -1    0    0  501    0  0.00000000000E+00  0.00000000000E+00  0.26150742471E+02  0.26181562822E+02  0.12700000000E+01 0.  1.
         -4   -1    0    0    0  501 -0.00000000000E+00 -0.00000000000E+00 -0.14929195517E+03  0.14929735690E+03  0.12700000000E+01 0.  1.
         25    2    1    2    0    0  0.00000000000E+00  0.00000000000E+00 -0.12314121270E+03  0.17547891972E+03  0.12501637094E+03 0.  0.
    9000005    1    3    3    0    0 -0.31358239971E+02 -0.47909257687E+01 -0.13715909216E+03  0.14078319767E+03  0.10000000000E+01 0.  0.
    9000005    1    3    3    0    0  0.31358239971E+02  0.47909257687E+01  0.14017879468E+02  0.34695722050E+02  0.10000000000E+01 0.  0.
<mgrwt>
<rscale>  0 0.12501637E+03</rscale>
<asrwt>0</asrwt>
<pdfrwt beam="1">  1        4 0.65422138E-02 0.12501637E+03</pdfrwt>
<pdfrwt beam="2">  1       -4 0.37327514E-01 0.12501637E+03</pdfrwt>
<totfact> 0.17346131E+03</totfact>
</mgrwt>
</event>
<event>
 5    1  0.1448308E-002  0.1250002E+03  0.7818608E-02  0.1235069E+00
         -4   -1    0    0    0  501 -0.00000000000E+00  0.00000000000E+00  0.64361670106E+02  0.64374198860E+02  0.12700000000E+01 0. -1.
          4   -1    0    0  501    0  0.00000000000E+00 -0.00000000000E+00 -0.60667298022E+02  0.60680589559E+02  0.12700000000E+01 0. -1.
         25    2    1    2    0    0  0.00000000000E+00  0.00000000000E+00  0.36943720843E+01  0.12505478842E+03  0.12500020689E+03 0.  0.
    9000005    1    3    3    0    0  0.35753454179E+02  0.18548987770E+02 -0.45953259418E+02  0.61115272103E+02  0.10000000000E+01 0.  0.
    9000005    1    3    3    0    0 -0.35753454179E+02 -0.18548987770E+02  0.49647631503E+02  0.63939516317E+02  0.10000000000E+01 0.  0.
<mgrwt>
<rscale>  0 0.12500021E+03</rscale>
<asrwt>0</asrwt>
<pdfrwt beam="2">  1        4 0.15170052E-01 0.12500021E+03</pdfrwt>
<pdfrwt beam="1">  1       -4 0.16093645E-01 0.12500021E+03</pdfrwt>
<totfact> 0.19831988E+03</totfact>
</mgrwt>
</event>
<event>
 5    1  0.1448308E-002  0.1250009E+03  0.7818608E-02  0.1235068E+00
         -4   -1    0    0    0  501 -0.00000000000E+00  0.00000000000E+00  0.30415627595E+02  0.30442130379E+02  0.12700000000E+01 0. -1.
          4   -1    0    0  501    0  0.00000000000E+00 -0.00000000000E+00 -0.12834526785E+03  0.12835155114E+03  0.12700000000E+01 0. -1.
         25    2    1    2    0    0  0.00000000000E+00  0.00000000000E+00 -0.97929640255E+02  0.15879368152E+03  0.12500087539E+03 0.  0.
    9000005    1    3    3    0    0  0.24250349688E+02  0.16681077547E+02 -0.11899466244E+03  0.12258493993E+03  0.10000000000E+01 0.  0.
    9000005    1    3    3    0    0 -0.24250349688E+02 -0.16681077547E+02  0.21065022182E+02  0.36208741592E+02  0.10000000000E+01 0.  0.
<mgrwt>
<rscale>  0 0.12500088E+03</rscale>
<asrwt>0</asrwt>
<pdfrwt beam="2">  1        4 0.32090414E-01 0.12500088E+03</pdfrwt>
<pdfrwt beam="1">  1       -4 0.76080055E-02 0.12500088E+03</pdfrwt>
<totfact> 0.18114305E+03</totfact>
</mgrwt>
</event>
<event>
 5    1  0.1448308E-002  0.1249902E+03  0.7818608E-02  0.1235085E+00
         -4   -1    0    0    0  501 -0.00000000000E+00  0.00000000000E+00  0.97293253603E+01  0.98118638375E+01  0.12700000000E+01 0.  1.
          4   -1    0    0  501    0  0.00000000000E+00 -0.00000000000E+00 -0.39965012014E+03  0.39965213803E+03  0.12700000000E+01 0.  1.
         25    2    1    2    0    0  0.00000000000E+00  0.00000000000E+00 -0.38992079478E+03  0.40946400186E+03  0.12499017009E+03 0.  0.
    9000005    1    3    3    0    0 -0.46256579396E+02  0.41670716987E+02 -0.17746663878E+03  0.18807319764E+03  0.10000000000E+01 0.  0.
    9000005    1    3    3    0    0  0.46256579396E+02 -0.41670716987E+02 -0.21245415600E+03  0.22139080422E+03  0.10000000000E+01 0.  0.
<mgrwt>
<rscale>  0 0.12499017E+03</rscale>
<asrwt>0</asrwt>
<pdfrwt beam="2">  1        4 0.99923045E-01 0.12499017E+03</pdfrwt>
<pdfrwt beam="1">  1       -4 0.24429022E-02 0.12499017E+03</pdfrwt>
<totfact> 0.10379144E+03</totfact>
</mgrwt>
</event>
<event>
 5    1  0.1448308E-002  0.1250016E+03  0.7818608E-02  0.1235067E+00
          4   -1    0    0  501    0  0.00000000000E+00  0.00000000000E+00  0.23170193231E+02  0.23204972621E+02  0.12700000000E+01 0.  1.
         -4   -1    0    0    0  501 -0.00000000000E+00 -0.00000000000E+00 -0.16843024829E+03  0.16843503625E+03  0.12700000000E+01 0.  1.
         25    2    1    2    0    0  0.00000000000E+00  0.00000000000E+00 -0.14526005506E+03  0.19164000888E+03  0.12500163762E+03 0.  0.
    9000005    1    3    3    0    0  0.10372380548E+01 -0.30042317758E+02 -0.15662565911E+03  0.15948734686E+03  0.10000000000E+01 0.  0.
    9000005    1    3    3    0    0 -0.10372380548E+01  0.30042317758E+02  0.11365604050E+02  0.32152662013E+02  0.10000000000E+01 0.  0.
<mgrwt>
<rscale>  0 0.12500164E+03</rscale>
<asrwt>0</asrwt>
<pdfrwt beam="1">  1        4 0.57974947E-02 0.12500164E+03</pdfrwt>
<pdfrwt beam="2">  1       -4 0.42112504E-01 0.12500164E+03</pdfrwt>
<totfact> 0.16661722E+03</totfact>
</mgrwt>
</event>
<event>
 5    1  0.1448308E-002  0.1249982E+03  0.7818608E-02  0.1235072E+00
         -4   -1    0    0    0  501 -0.00000000000E+00  0.00000000000E+00  0.23551705711E+02  0.23585922536E+02  0.12700000000E+01 0. -1.
          4   -1    0    0  501    0  0.00000000000E+00 -0.00000000000E+00 -0.16569660822E+03  0.16570147517E+03  0.12700000000E+01 0. -1.
         25    2    1    2    0    0  0.00000000000E+00  0.00000000000E+00 -0.14214490251E+03  0.18928739771E+03  0.12499818248E+03 0.  0.
    9000005    1    3    3    0    0  0.49036833965E+02  0.27284492947E+01 -0.12958643546E+03  0.13858463038E+03  0.10000000000E+01 0.  0.
    9000005    1    3    3    0    0 -0.49036833965E+02 -0.27284492947E+01 -0.12558467046E+02  0.50702767334E+02  0.10000000000E+01 0.  0.
<mgrwt>
<rscale>  0 0.12499818E+03</rscale>
<asrwt>0</asrwt>
<pdfrwt beam="2">  1        4 0.41429034E-01 0.12499818E+03</pdfrwt>
<pdfrwt beam="1">  1       -4 0.58928124E-02 0.12499818E+03</pdfrwt>
<totfact> 0.16760878E+03</totfact>
</mgrwt>
</event>
<event>
 5    1  0.1448308E-002  0.1250079E+03  0.7818608E-02  0.1235057E+00
         -4   -1    0    0    0  501 -0.00000000000E+00  0.00000000000E+00  0.18338724194E+03  0.18339163941E+03  0.12700000000E+01 0. -1.
          4   -1    0    0  501    0  0.00000000000E+00 -0.00000000000E+00 -0.21279663196E+02  0.21317527196E+02  0.12700000000E+01 0. -1.
         25    2    1    2    0    0  0.00000000000E+00  0.00000000000E+00  0.16210757874E+03  0.20470916660E+03  0.12500790298E+03 0.  0.
    9000005    1    3    3    0    0 -0.31014236831E+01  0.61517797950E+02  0.63747716641E+02  0.88650040442E+02  0.10000000000E+01 0.  0.
    9000005    1    3    3    0    0  0.31014236831E+01 -0.61517797950E+02  0.98359862099E+02  0.11605912616E+03  0.10000000000E+01 0.  0.
<mgrwt>
<rscale>  0 0.12500790E+03</rscale>
<asrwt>0</asrwt>
<pdfrwt beam="2">  1        4 0.53251985E-02 0.12500790E+03</pdfrwt>
<pdfrwt beam="1">  1       -4 0.45852093E-01 0.12500790E+03</pdfrwt>
<totfact> 0.16132253E+03</totfact>
</mgrwt>
</event>
<event>
 5    1  0.1448308E-002  0.1249993E+03  0.7818608E-02  0.1235070E+00
         -4   -1    0    0    0  501 -0.00000000000E+00  0.00000000000E+00  0.21916864314E+03  0.21917232270E+03  0.12700000000E+01 0.  1.
          4   -1    0    0  501    0  0.00000000000E+00 -0.00000000000E+00 -0.17796378889E+02  0.17841636740E+02  0.12700000000E+01 0.  1.
         25    2    1    2    0    0  0.00000000000E+00  0.00000000000E+00  0.20137226425E+03  0.23701395943E+03  0.12499931263E+03 0.  0.
    9000005    1    3    3    0    0  0.53346259991E+02  0.16500990744E+02  0.47489822881E+02  0.73310227307E+02  0.10000000000E+01 0.  0.
    9000005    1    3    3    0    0 -0.53346259991E+02 -0.16500990744E+02  0.15388244137E+03  0.16370373213E+03  0.10000000000E+01 0.  0.
<mgrwt>
<rscale>  0 0.12499931E+03</rscale>
<asrwt>0</asrwt>
<pdfrwt beam="2">  1        4 0.44552120E-02 0.12499931E+03</pdfrwt>
<pdfrwt beam="1">  1       -4 0.54798277E-01 0.12499931E+03</pdfrwt>
<totfact> 0.14940121E+03</totfact>
</mgrwt>
</event>
<event>
 5    1  0.1448308E-002  0.1249998E+03  0.7818608E-02  0.1235070E+00
          4   -1    0    0  501    0  0.00000000000E+00  0.00000000000E+00  0.71480587258E+02  0.71491868452E+02  0.12700000000E+01 0.  1.
         -4   -1    0    0    0  501 -0.00000000000E+00 -0.00000000000E+00 -0.54624524887E+02  0.54639286408E+02  0.12700000000E+01 0.  1.
         25    2    1    2    0    0  0.00000000000E+00  0.00000000000E+00  0.16856062371E+02  0.12613115486E+03  0.12499976555E+03 0.  0.
    9000005    1    3    3    0    0 -0.54364349381E+02  0.28710084259E+02  0.19731382375E+02  0.64576147858E+02  0.10000000000E+01 0.  0.
    9000005    1    3    3    0    0  0.54364349381E+02 -0.28710084259E+02 -0.28753200043E+01  0.61555007001E+02  0.10000000000E+01 0.  0.
<mgrwt>
<rscale>  0 0.12499977E+03</rscale>
<asrwt>0</asrwt>
<pdfrwt beam="1">  1        4 0.17873402E-01 0.12499977E+03</pdfrwt>
<pdfrwt beam="2">  1       -4 0.13659387E-01 0.12499977E+03</pdfrwt>
<totfact> 0.19773943E+03</totfact>
</mgrwt>
</event>
<event>
 5    1  0.1448308E-002  0.1250019E+03  0.7818608E-02  0.1235066E+00
          4   -1    0    0  501    0  0.00000000000E+00  0.00000000000E+00  0.15909682628E+04  0.15909687697E+04  0.12700000000E+01 0. -1.
         -4   -1    0    0    0  501 -0.00000000000E+00 -0.00000000000E+00 -0.22905772423E+01  0.26190922288E+01  0.12700000000E+01 0. -1.
         25    2    1    2    0    0  0.00000000000E+00  0.00000000000E+00  0.15886776855E+04  0.15935878619E+04  0.12500194028E+03 0.  0.
    9000005    1    3    3    0    0 -0.62232438298E+02  0.31351073356E+01  0.85503296608E+03  0.85730104302E+03  0.10000000000E+01 0.  0.
    9000005    1    3    3    0    0  0.62232438298E+02 -0.31351073356E+01  0.73364471945E+03  0.73628681888E+03  0.10000000000E+01 0.  0.
<mgrwt>
<rscale>  0 0.12500194E+03</rscale>
<asrwt>0</asrwt>
<pdfrwt beam="1">  1        4 0.39778320E+00 0.12500194E+03</pdfrwt>
<pdfrwt beam="2">  1       -4 0.61377203E-03 0.12500194E+03</pdfrwt>
<totfact> 0.96752608E+01</totfact>
</mgrwt>
</event>
<event>
 5    1  0.1448308E-002  0.1250011E+03  0.7818608E-02  0.1235068E+00
         -4   -1    0    0    0  501 -0.00000000000E+00  0.00000000000E+00  0.83973042669E+02  0.83982645797E+02  0.12700000000E+01 0.  1.
          4   -1    0    0  501    0  0.00000000000E+00 -0.00000000000E+00 -0.46497796607E+02  0.46515137206E+02  0.12700000000E+01 0.  1.
         25    2    1    2    0    0  0.00000000000E+00  0.00000000000E+00  0.37475246062E+02  0.13049778300E+03  0.12500110920E+03 0.  0.
    9000005    1    3    3    0    0 -0.16974929375E+02  0.33824408574E+02 -0.33179233861E+02  0.50339849049E+02  0.10000000000E+01 0.  0.
    9000005    1    3    3    0    0  0.16974929375E+02 -0.33824408574E+02  0.70654479923E+02  0.80157933955E+02  0.10000000000E+01 0.  0.
<mgrwt>
<rscale>  0 0.12500111E+03</rscale>
<asrwt>0</asrwt>
<pdfrwt beam="2">  1        4 0.11627817E-01 0.12500111E+03</pdfrwt>
<pdfrwt beam="1">  1       -4 0.20996629E-01 0.12500111E+03</pdfrwt>
<totfact> 0.19537154E+03</totfact>
</mgrwt>
</event>
<event>
 5    1  0.1448308E-002  0.1249998E+03  0.7818608E-02  0.1235070E+00
         -4   -1    0    0    0  501 -0.00000000000E+00  0.00000000000E+00  0.93670190807E+03  0.93670276902E+03  0.12700000000E+01 0. -1.
          4   -1    0    0  501    0  0.00000000000E+00 -0.00000000000E+00 -0.40726316439E+01  0.42660553802E+01  0.12700000000E+01 0. -1.
         25    2    1    2    0    0  0.00000000000E+00  0.00000000000E+00  0.93262927643E+03  0.94096882440E+03  0.12499984495E+03 0.  0.
    9000005    1    3    3    0    0  0.24370099942E+02 -0.57046216683E+02  0.40944755577E+03  0.41412132707E+03  0.10000000000E+01 0.  0.
    9000005    1    3    3    0    0 -0.24370099942E+02  0.57046216683E+02  0.52318172066E+03  0.52684749733E+03  0.10000000000E+01 0.  0.
<mgrwt>
<rscale>  0 0.12499984E+03</rscale>
<asrwt>0</asrwt>
<pdfrwt beam="2">  1        4 0.10424435E-02 0.12499984E+03</pdfrwt>
<pdfrwt beam="1">  1       -4 0.23419977E+00 0.12499984E+03</pdfrwt>
<totfact> 0.41227827E+02</totfact>
</mgrwt>
</event>
<event>
 5    1  0.1448308E-002  0.1250070E+03  0.7818608E-02  0.1235058E+00
          4   -1    0    0  501    0  0.00000000000E+00  0.00000000000E+00  0.11380106348E+03  0.11380814975E+03  0.12700000000E+01 0.  1.
         -4   -1    0    0    0  501 -0.00000000000E+00 -0.00000000000E+00 -0.34309208740E+02  0.34332706045E+02  0.12700000000E+01 0.  1.
         25    2    1    2    0    0  0.00000000000E+00  0.00000000000E+00  0.79491854744E+02  0.14814085580E+03  0.12500703254E+03 0.  0.
    9000005    1    3    3    0    0 -0.37868562212E+02  0.35034834010E+02 -0.20553287410E+01  0.51640022990E+02  0.10000000000E+01 0.  0.
    9000005    1    3    3    0    0  0.37868562212E+02 -0.35034834010E+02  0.81547183485E+02  0.96500832807E+02  0.10000000000E+01 0.  0.
<mgrwt>
<rscale>  0 0.12500703E+03</rscale>
<asrwt>0</asrwt>
<pdfrwt beam="1">  1        4 0.28454089E-01 0.12500703E+03</pdfrwt>
<pdfrwt beam="2">  1       -4 0.85811252E-02 0.12500703E+03</pdfrwt>
<totfact> 0.18627525E+03</totfact>
</mgrwt>
</event>
<event>
 5    1  0.1448308E-002  0.1250080E+03  0.7818608E-02  0.1235057E+00
         -4   -1    0    0    0  501 -0.00000000000E+00  0.00000000000E+00  0.48790878402E+01  0.50416662079E+01  0.12700000000E+01 0.  1.
          4   -1    0    0  501    0  0.00000000000E+00 -0.00000000000E+00 -0.78742804599E+03  0.78742907014E+03  0.12700000000E+01 0.  1.
         25    2    1    2    0    0  0.00000000000E+00  0.00000000000E+00 -0.78254895815E+03  0.79247073635E+03  0.12500798405E+03 0.  0.
    9000005    1    3    3    0    0  0.31063998064E+02 -0.22392883450E+02 -0.78175768949E+02  0.87056671518E+02  0.10000000000E+01 0.  0.
    9000005    1    3    3    0    0 -0.31063998064E+02  0.22392883450E+02 -0.70437318920E+03  0.70541406483E+03  0.10000000000E+01 0.  0.
<mgrwt>
<rscale>  0 0.12500798E+03</rscale>
<asrwt>0</asrwt>
<pdfrwt beam="2">  1        4 0.19687703E+00 0.12500798E+03</pdfrwt>
<pdfrwt beam="1">  1       -4 0.12402250E-02 0.12500798E+03</pdfrwt>
<totfact> 0.53137958E+02</totfact>
</mgrwt>
</event>
<event>
 5    1  0.1448308E-002  0.1250048E+03  0.7818608E-02  0.1235062E+00
          4   -1    0    0  501    0  0.00000000000E+00  0.00000000000E+00  0.76960459524E+03  0.76960564311E+03  0.12700000000E+01 0. -1.
         -4   -1    0    0    0  501 -0.00000000000E+00 -0.00000000000E+00 -0.49955411982E+01  0.51544477748E+01  0.12700000000E+01 0. -1.
         25    2    1    2    0    0  0.00000000000E+00  0.00000000000E+00  0.76460905404E+03  0.77476009089E+03  0.12500477156E+03 0.  0.
    9000005    1    3    3    0    0 -0.60771291533E+02 -0.28385783504E+01  0.29370768876E+03  0.29994401784E+03  0.10000000000E+01 0.  0.
    9000005    1    3    3    0    0  0.60771291533E+02  0.28385783504E+01  0.47090136528E+03  0.47481607305E+03  0.10000000000E+01 0.  0.
<mgrwt>
<rscale>  0 0.12500477E+03</rscale>
<asrwt>0</asrwt>
<pdfrwt beam="1">  1        4 0.19242115E+00 0.12500477E+03</pdfrwt>
<pdfrwt beam="2">  1       -4 0.12688795E-02 0.12500477E+03</pdfrwt>
<totfact> 0.54748145E+02</totfact>
</mgrwt>
</event>
<event>
 5    1  0.1448308E-002  0.1250204E+03  0.7818608E-02  0.1235037E+00
         -4   -1    0    0    0  501 -0.00000000000E+00  0.00000000000E+00  0.27815850592E+03  0.27816140515E+03  0.12700000000E+01 0. -1.
          4   -1    0    0  501    0  0.00000000000E+00 -0.00000000000E+00 -0.14016162826E+02  0.14073582358E+02  0.12700000000E+01 0. -1.
         25    2    1    2    0    0  0.00000000000E+00  0.00000000000E+00  0.26414234309E+03  0.29223498750E+03  0.12502044036E+03 0.  0.
    9000005    1    3    3    0    0 -0.23617526167E+02 -0.34119288014E+02  0.24132547912E+03  0.24486914920E+03  0.10000000000E+01 0.  0.
    9000005    1    3    3    0    0  0.23617526167E+02  0.34119288014E+02  0.22816863966E+02  0.47365838302E+02  0.10000000000E+01 0.  0.
<mgrwt>
<rscale>  0 0.12502044E+03</rscale>
<asrwt>0</asrwt>
<pdfrwt beam="2">  1        4 0.35115807E-02 0.12502044E+03</pdfrwt>
<pdfrwt beam="1">  1       -4 0.69547163E-01 0.12502044E+03</pdfrwt>
<totfact> 0.13185331E+03</totfact>
</mgrwt>
</event>
<event>
 5    1  0.1448308E-002  0.1249640E+03  0.7818608E-02  0.1235126E+00
          4   -1    0    0  501    0  0.00000000000E+00  0.00000000000E+00  0.41268748732E+02  0.41288285529E+02  0.12700000000E+01 0.  1.
         -4   -1    0    0    0  501 -0.00000000000E+00 -0.00000000000E+00 -0.94553183292E+02  0.94561711970E+02  0.12700000000E+01 0.  1.
         25    2    1    2    0    0  0.00000000000E+00  0.00000000000E+00 -0.53284434560E+02  0.13584999750E+03  0.12496395822E+03 0.  0.
    9000005    1    3    3    0    0  0.14495977869E+02 -0.36950678351E+02 -0.79089235108E+02  0.88496288707E+02  0.10000000000E+01 0.  0.
    9000005    1    3    3    0    0 -0.14495977869E+02  0.36950678351E+02  0.25804800549E+02  0.47353708792E+02  0.10000000000E+01 0.  0.
<mgrwt>
<rscale>  0 0.12496396E+03</rscale>
<asrwt>0</asrwt>
<pdfrwt beam="1">  1        4 0.10320696E-01 0.12496396E+03</pdfrwt>
<pdfrwt beam="2">  1       -4 0.23641804E-01 0.12496396E+03</pdfrwt>
<totfact> 0.19270907E+03</totfact>
</mgrwt>
</event>
<event>
 5    1  0.1448308E-002  0.1249993E+03  0.7818608E-02  0.1235070E+00
         -4   -1    0    0    0  501 -0.00000000000E+00  0.00000000000E+00  0.46086869193E+02  0.46104364349E+02  0.12700000000E+01 0.  1.
          4   -1    0    0  501    0  0.00000000000E+00 -0.00000000000E+00 -0.84719155253E+02  0.84728673817E+02  0.12700000000E+01 0.  1.
         25    2    1    2    0    0  0.00000000000E+00  0.00000000000E+00 -0.38632286060E+02  0.13083303817E+03  0.12499932140E+03 0.  0.
    9000005    1    3    3    0    0 -0.29440706349E+02 -0.23080478912E+02  0.33077441429E+02  0.49945778886E+02  0.10000000000E+01 0.  0.
    9000005    1    3    3    0    0  0.29440706349E+02  0.23080478912E+02 -0.71709727489E+02  0.80887259279E+02  0.10000000000E+01 0.  0.
<mgrwt>
<rscale>  0 0.12499932E+03</rscale>
<asrwt>0</asrwt>
<pdfrwt beam="2">  1        4 0.21183165E-01 0.12499932E+03</pdfrwt>
<pdfrwt beam="1">  1       -4 0.11525094E-01 0.12499932E+03</pdfrwt>
<totfact> 0.19520013E+03</totfact>
</mgrwt>
</event>
<event>
 5    1  0.1448308E-002  0.1249983E+03  0.7818608E-02  0.1235072E+00
         -4   -1    0    0    0  501 -0.00000000000E+00  0.00000000000E+00  0.94339970160E+01  0.95190965800E+01  0.12700000000E+01 0. -1.
          4   -1    0    0  501    0  0.00000000000E+00 -0.00000000000E+00 -0.41210425094E+03  0.41210620785E+03  0.12700000000E+01 0. -1.
         25    2    1    2    0    0  0.00000000000E+00  0.00000000000E+00 -0.40267025393E+03  0.42162530443E+03  0.12499825573E+03 0.  0.
    9000005    1    3    3    0    0  0.27755497770E+02  0.40592962719E+02 -0.71265478724E+02  0.86590558010E+02  0.10000000000E+01 0.  0.
    9000005    1    3    3    0    0 -0.27755497770E+02 -0.40592962719E+02 -0.33140477520E+03  0.33503474642E+03  0.10000000000E+01 0.  0.
<mgrwt>
<rscale>  0 0.12499826E+03</rscale>
<asrwt>0</asrwt>
<pdfrwt beam="2">  1        4 0.10303688E+00 0.12499826E+03</pdfrwt>
<pdfrwt beam="1">  1       -4 0.23693827E-02 0.12499826E+03</pdfrwt>
<totfact> 0.10134602E+03</totfact>
</mgrwt>
</event>
<event>
 5    1  0.1448308E-002  0.1250028E+03  0.7818608E-02  0.1235065E+00
         -4   -1    0    0    0  501 -0.00000000000E+00  0.00000000000E+00  0.26185184507E+03  0.26185492485E+03  0.12700000000E+01 0. -1.
          4   -1    0    0  501    0  0.00000000000E+00 -0.00000000000E+00 -0.14888260294E+02  0.14942328955E+02  0.12700000000E+01 0. -1.
         25    2    1    2    0    0  0.00000000000E+00  0.00000000000E+00  0.24696358477E+03  0.27679725380E+03  0.12500282999E+03 0.  0.
    9000005    1    3    3    0    0  0.21362416353E+02 -0.58611115329E+02  0.13171099402E+03  0.14574087147E+03  0.10000000000E+01 0.  0.
    9000005    1    3    3    0    0 -0.21362416353E+02  0.58611115329E+02  0.11525259075E+03  0.13105638233E+03  0.10000000000E+01 0.  0.
<mgrwt>
<rscale>  0 0.12500283E+03</rscale>
<asrwt>0</asrwt>
<pdfrwt beam="2">  1        4 0.37292087E-02 0.12500283E+03</pdfrwt>
<pdfrwt beam="1">  1       -4 0.65470104E-01 0.12500283E+03</pdfrwt>
<totfact> 0.13646327E+03</totfact>
</mgrwt>
</event>
<event>
 5    1  0.1448308E-002  0.1250055E+03  0.7818608E-02  0.1235061E+00
          4   -1    0    0  501    0  0.00000000000E+00  0.00000000000E+00  0.17409303658E+03  0.17409766881E+03  0.12700000000E+01 0. -1.
         -4   -1    0    0    0  501 -0.00000000000E+00 -0.00000000000E+00 -0.22416768189E+02  0.22452714670E+02  0.12700000000E+01 0. -1.
         25    2    1    2    0    0  0.00000000000E+00  0.00000000000E+00  0.15167626839E+03  0.19655038348E+03  0.12500545130E+03 0.  0.
    9000005    1    3    3    0    0 -0.42367522558E+02  0.21107740476E+02  0.13999722435E+03  0.14778621892E+03  0.10000000000E+01 0.  0.
    9000005    1    3    3    0    0  0.42367522558E+02 -0.21107740476E+02  0.11679044035E+02  0.48764164560E+02  0.10000000000E+01 0.  0.
<mgrwt>
<rscale>  0 0.12500545E+03</rscale>
<asrwt>0</asrwt>
<pdfrwt beam="1">  1        4 0.43528331E-01 0.12500545E+03</pdfrwt>
<pdfrwt beam="2">  1       -4 0.56092645E-02 0.12500545E+03</pdfrwt>
<totfact> 0.16459032E+03</totfact>
</mgrwt>
</event>
<event>
 5    1  0.1448308E-002  0.1250004E+03  0.7818608E-02  0.1235069E+00
         -4   -1    0    0    0  501 -0.00000000000E+00  0.00000000000E+00  0.24788141319E+02  0.24820653699E+02  0.12700000000E+01 0. -1.
          4   -1    0    0  501    0  0.00000000000E+00 -0.00000000000E+00 -0.15744814759E+03  0.15745326951E+03  0.12700000000E+01 0. -1.
         25    2    1    2    0    0  0.00000000000E+00  0.00000000000E+00 -0.13266000627E+03  0.18227392321E+03  0.12500042327E+03 0.  0.
    9000005    1    3    3    0    0 -0.98489067753E+01 -0.40694054355E+02  0.13189961066E+01  0.41901632131E+02  0.10000000000E+01 0.  0.
    9000005    1    3    3    0    0  0.98489067753E+01  0.40694054355E+02 -0.13397900238E+03  0.14037229108E+03  0.10000000000E+01 0.  0.
<mgrwt>
<rscale>  0 0.12500042E+03</rscale>
<asrwt>0</asrwt>
<pdfrwt beam="2">  1        4 0.39366738E-01 0.12500042E+03</pdfrwt>
<pdfrwt beam="1">  1       -4 0.62017401E-02 0.12500042E+03</pdfrwt>
<totfact> 0.17057074E+03</totfact>
</mgrwt>
</event>
<event>
 5    1  0.1448308E-002  0.1250000E+03  0.7818608E-02  0.1235069E+00
         -4   -1    0    0    0  501 -0.00000000000E+00  0.00000000000E+00  0.52905346841E+02  0.52920587907E+02  0.12700000000E+01 0.  1.
          4   -1    0    0  501    0  0.00000000000E+00 -0.00000000000E+00 -0.73803345294E+02  0.73814271496E+02  0.12700000000E+01 0.  1.
         25    2    1    2    0    0  0.00000000000E+00  0.00000000000E+00 -0.20897998452E+02  0.12673485940E+03  0.12499999299E+03 0.  0.
    9000005    1    3    3    0    0 -0.19050428650E+02 -0.23343468872E+02 -0.65957488265E+02  0.72520525570E+02  0.10000000000E+01 0.  0.
    9000005    1    3    3    0    0  0.19050428650E+02  0.23343468872E+02  0.45059489813E+02  0.54214333833E+02  0.10000000000E+01 0.  0.
<mgrwt>
<rscale>  0 0.12499999E+03</rscale>
<asrwt>0</asrwt>
<pdfrwt beam="2">  1        4 0.18454107E-01 0.12499999E+03</pdfrwt>
<pdfrwt beam="1">  1       -4 0.13229608E-01 0.12499999E+03</pdfrwt>
<totfact> 0.19741264E+03</totfact>
</mgrwt>
</event>
<event>
 5    1  0.1448308E-002  0.1250010E+03  0.7818608E-02  0.1235068E+00
         -4   -1    0    0    0  501 -0.00000000000E+00  0.00000000000E+00  0.19084810882E+02  0.19127020322E+02  0.12700000000E+01 0.  1.
          4   -1    0    0  501    0  0.00000000000E+00 -0.00000000000E+00 -0.20441153865E+03  0.20441548384E+03  0.12700000000E+01 0.  1.
         25    2    1    2    0    0  0.00000000000E+00  0.00000000000E+00 -0.18532672776E+03  0.22354250416E+03  0.12500102056E+03 0.  0.
    9000005    1    3    3    0    0 -0.33451245440E+02 -0.51106578502E+02 -0.69043545176E+02  0.92189366622E+02  0.10000000000E+01 0.  0.
    9000005    1    3    3    0    0  0.33451245440E+02  0.51106578502E+02 -0.11628318259E+03  0.13135313754E+03  0.10000000000E+01 0.  0.
<mgrwt>
<rscale>  0 0.12500102E+03</rscale>
<asrwt>0</asrwt>
<pdfrwt beam="2">  1        4 0.51108647E-01 0.12500102E+03</pdfrwt>
<pdfrwt beam="1">  1       -4 0.47769727E-02 0.12500102E+03</pdfrwt>
<totfact> 0.15420468E+03</totfact>
</mgrwt>
</event>
<event>
 5    1  0.1448308E-002  0.1250010E+03  0.7818608E-02  0.1235068E+00
         -4   -1    0    0    0  501 -0.00000000000E+00  0.00000000000E+00  0.95380730418E+02  0.95389185105E+02  0.12700000000E+01 0.  1.
          4   -1    0    0  501    0  0.00000000000E+00 -0.00000000000E+00 -0.40934829559E+02  0.40954525648E+02  0.12700000000E+01 0.  1.
         25    2    1    2    0    0  0.00000000000E+00  0.00000000000E+00  0.54445900858E+02  0.13634371075E+03  0.12500100536E+03 0.  0.
    9000005    1    3    3    0    0  0.30283974052E+01  0.51728515522E+02  0.65325612873E+02  0.83387326412E+02  0.10000000000E+01 0.  0.
    9000005    1    3    3    0    0 -0.30283974052E+01 -0.51728515522E+02 -0.10879712014E+02  0.52956384341E+02  0.10000000000E+01 0.  0.
<mgrwt>
<rscale>  0 0.12500101E+03</rscale>
<asrwt>0</asrwt>
<pdfrwt beam="2">  1        4 0.10237226E-01 0.12500101E+03</pdfrwt>
<pdfrwt beam="1">  1       -4 0.23848701E-01 0.12500101E+03</pdfrwt>
<totfact> 0.19228534E+03</totfact>
</mgrwt>
</event>
<event>
 5    1  0.1448308E-002  0.1250013E+03  0.7818608E-02  0.1235067E+00
         -4   -1    0    0    0  501 -0.00000000000E+00  0.00000000000E+00  0.48667029424E+02  0.48683597371E+02  0.12700000000E+01 0.  1.
          4   -1    0    0  501    0  0.00000000000E+00 -0.00000000000E+00 -0.80231170582E+02  0.80241221532E+02  0.12700000000E+01 0.  1.
         25    2    1    2    0    0  0.00000000000E+00  0.00000000000E+00 -0.31564141158E+02  0.12892481890E+03  0.12500125568E+03 0.  0.
    9000005    1    3    3    0    0 -0.12715486274E+02 -0.59173287614E+02  0.26809678853E+00  0.60532911991E+02  0.10000000000E+01 0.  0.
    9000005    1    3    3    0    0  0.12715486274E+02  0.59173287614E+02 -0.31832237947E+02  0.68391906911E+02  0.10000000000E+01 0.  0.
<mgrwt>
<rscale>  0 0.12500126E+03</rscale>
<asrwt>0</asrwt>
<pdfrwt beam="2">  1        4 0.20061120E-01 0.12500126E+03</pdfrwt>
<pdfrwt beam="1">  1       -4 0.12170085E-01 0.12500126E+03</pdfrwt>
<totfact> 0.19621787E+03</totfact>
</mgrwt>
</event>
<event>
 5    1  0.1448308E-002  0.1249987E+03  0.7818608E-02  0.1235071E+00
         -4   -1    0    0    0  501 -0.00000000000E+00  0.00000000000E+00  0.81479111287E+03  0.81479210264E+03  0.12700000000E+01 0.  1.
          4   -1    0    0  501    0  0.00000000000E+00 -0.00000000000E+00 -0.47089549834E+01  0.48772079139E+01  0.12700000000E+01 0.  1.
         25    2    1    2    0    0  0.00000000000E+00  0.00000000000E+00  0.81008215789E+03  0.81966931055E+03  0.12499870449E+03 0.  0.
    9000005    1    3    3    0    0  0.18866578921E+01 -0.40129152837E+02  0.91156188228E+02  0.99621077276E+02  0.10000000000E+01 0.  0.
    9000005    1    3    3    0    0 -0.18866578921E+01  0.40129152837E+02  0.71892596966E+03  0.72004823327E+03  0.10000000000E+01 0.  0.
<mgrwt>
<rscale>  0 0.12499870E+03</rscale>
<asrwt>0</asrwt>
<pdfrwt beam="2">  1        4 0.11983940E-02 0.12499870E+03</pdfrwt>
<pdfrwt beam="1">  1       -4 0.20371894E+00 0.12499870E+03</pdfrwt>
<totfact> 0.50769718E+02</totfact>
</mgrwt>
</event>
<event>
 5    1  0.1448308E-002  0.1250021E+03  0.7818608E-02  0.1235066E+00
          4   -1    0    0  501    0  0.00000000000E+00  0.00000000000E+00  0.31117204753E+01  0.33609082577E+01  0.12700000000E+01 0. -1.
         -4   -1    0    0    0  501 -0.00000000000E+00 -0.00000000000E+00 -0.12067965751E+04  0.12067972433E+04  0.12700000000E+01 0. -1.
         25    2    1    2    0    0  0.00000000000E+00  0.00000000000E+00 -0.12036848546E+04  0.12101581516E+04  0.12500209064E+03 0.  0.
    9000005    1    3    3    0    0  0.11464182951E+02  0.60892680885E+02 -0.68051268941E+03  0.68332852020E+03  0.10000000000E+01 0.  0.
    9000005    1    3    3    0    0 -0.11464182951E+02 -0.60892680885E+02 -0.52317216518E+03  0.52682963137E+03  0.10000000000E+01 0.  0.
<mgrwt>
<rscale>  0 0.12500209E+03</rscale>
<asrwt>0</asrwt>
<pdfrwt beam="1">  1        4 0.80916626E-03 0.12500209E+03</pdfrwt>
<pdfrwt beam="2">  1       -4 0.30172883E+00 0.12500209E+03</pdfrwt>
<totfact> 0.24675174E+02</totfact>
</mgrwt>
</event>
<event>
 5    1  0.1448308E-002  0.1249928E+03  0.7818608E-02  0.1235080E+00
          4   -1    0    0  501    0  0.00000000000E+00  0.00000000000E+00  0.36346122338E+02  0.36368303631E+02  0.12700000000E+01 0. -1.
         -4   -1    0    0    0  501 -0.00000000000E+00 -0.00000000000E+00 -0.10740260476E+03  0.10741011316E+03  0.12700000000E+01 0. -1.
         25    2    1    2    0    0  0.00000000000E+00  0.00000000000E+00 -0.71056482426E+02  0.14377841680E+03  0.12499283756E+03 0.  0.
    9000005    1    3    3    0    0 -0.51028880060E+02  0.22939429260E+02 -0.35129051248E+01  0.56066964581E+02  0.10000000000E+01 0.  0.
    9000005    1    3    3    0    0  0.51028880060E+02 -0.22939429260E+02 -0.67543577302E+02  0.87711452215E+02  0.10000000000E+01 0.  0.
<mgrwt>
<rscale>  0 0.12499284E+03</rscale>
<asrwt>0</asrwt>
<pdfrwt beam="1">  1        4 0.90902420E-02 0.12499284E+03</pdfrwt>
<pdfrwt beam="2">  1       -4 0.26854362E-01 0.12499284E+03</pdfrwt>
<totfact> 0.18851830E+03</totfact>
</mgrwt>
</event>
<event>
 5    1  0.1448308E-002  0.1250010E+03  0.7818608E-02  0.1235068E+00
         -4   -1    0    0    0  501 -0.00000000000E+00  0.00000000000E+00  0.82539322928E+03  0.82539420632E+03  0.12700000000E+01 0.  1.
          4   -1    0    0  501    0  0.00000000000E+00 -0.00000000000E+00 -0.46464671308E+01  0.48169032373E+01  0.12700000000E+01 0.  1.
         25    2    1    2    0    0  0.00000000000E+00  0.00000000000E+00  0.82074676214E+03  0.83021110956E+03  0.12500095547E+03 0.  0.
    9000005    1    3    3    0    0  0.22088511646E+02 -0.58372720274E+02  0.43141060401E+03  0.43590295488E+03  0.10000000000E+01 0.  0.
    9000005    1    3    3    0    0 -0.22088511646E+02  0.58372720274E+02  0.38933615813E+03  0.39430815468E+03  0.10000000000E+01 0.  0.
<mgrwt>
<rscale>  0 0.12500096E+03</rscale>
<asrwt>0</asrwt>
<pdfrwt beam="2">  1        4 0.11830440E-02 0.12500096E+03</pdfrwt>
<pdfrwt beam="1">  1       -4 0.20636964E+00 0.12500096E+03</pdfrwt>
<totfact> 0.49872393E+02</totfact>
</mgrwt>
</event>
<event>
 5    1  0.1448308E-002  0.1250085E+03  0.7818608E-02  0.1235056E+00
         -4   -1    0    0    0  501 -0.00000000000E+00  0.00000000000E+00  0.17481508286E+03  0.17481969596E+03  0.12700000000E+01 0. -1.
          4   -1    0    0  501    0  0.00000000000E+00 -0.00000000000E+00 -0.22325138231E+02  0.22361232010E+02  0.12700000000E+01 0. -1.
         25    2    1    2    0    0  0.00000000000E+00  0.00000000000E+00  0.15248994463E+03  0.19718092797E+03  0.12500854028E+03 0.  0.
    9000005    1    3    3    0    0 -0.11160613858E+02  0.60536348362E+02  0.93275494096E+02  0.11176102439E+03  0.10000000000E+01 0.  0.
    9000005    1    3    3    0    0  0.11160613858E+02 -0.60536348362E+02  0.59214450529E+02  0.85419903572E+02  0.10000000000E+01 0.  0.
<mgrwt>
<rscale>  0 0.12500854E+03</rscale>
<asrwt>0</asrwt>
<pdfrwt beam="2">  1        4 0.55863730E-02 0.12500854E+03</pdfrwt>
<pdfrwt beam="1">  1       -4 0.43708858E-01 0.12500854E+03</pdfrwt>
<totfact> 0.16432301E+03</totfact>
</mgrwt>
</event>
<event>
 5    1  0.1448308E-002  0.1249993E+03  0.7818608E-02  0.1235070E+00
         -4   -1    0    0    0  501 -0.00000000000E+00  0.00000000000E+00  0.26717051436E+02  0.26747219247E+02  0.12700000000E+01 0.  1.
          4   -1    0    0  501    0  0.00000000000E+00 -0.00000000000E+00 -0.14609112608E+03  0.14609664616E+03  0.12700000000E+01 0.  1.
         25    2    1    2    0    0  0.00000000000E+00  0.00000000000E+00 -0.11937407464E+03  0.17284386540E+03  0.12499932844E+03 0.  0.
    9000005    1    3    3    0    0  0.20388799768E+02  0.56049909338E+02 -0.33895256556E+02  0.68608920046E+02  0.10000000000E+01 0.  0.
    9000005    1    3    3    0    0 -0.20388799768E+02 -0.56049909338E+02 -0.85478818084E+02  0.10423494536E+03  0.10000000000E+01 0.  0.
<mgrwt>
<rscale>  0 0.12499933E+03</rscale>
<asrwt>0</asrwt>
<pdfrwt beam="2">  1        4 0.36527240E-01 0.12499933E+03</pdfrwt>
<pdfrwt beam="1">  1       -4 0.66837243E-02 0.12499933E+03</pdfrwt>
<totfact> 0.17469807E+03</totfact>
</mgrwt>
</event>
<event>
 5    1  0.1448308E-002  0.1249984E+03  0.7818608E-02  0.1235072E+00
          4   -1    0    0  501    0  0.00000000000E+00  0.00000000000E+00  0.27665480908E+02  0.27694615612E+02  0.12700000000E+01 0. -1.
         -4   -1    0    0    0  501 -0.00000000000E+00 -0.00000000000E+00 -0.14108589367E+03  0.14109160957E+03  0.12700000000E+01 0. -1.
         25    2    1    2    0    0  0.00000000000E+00  0.00000000000E+00 -0.11342041276E+03  0.16878622518E+03  0.12499839912E+03 0.  0.
    9000005    1    3    3    0    0 -0.42497259379E+02  0.48163294760E+01  0.48130784651E+01  0.43050897884E+02  0.10000000000E+01 0.  0.
    9000005    1    3    3    0    0  0.42497259379E+02 -0.48163294760E+01 -0.11823349122E+03  0.12573532730E+03  0.10000000000E+01 0.  0.
<mgrwt>
<rscale>  0 0.12499840E+03</rscale>
<asrwt>0</asrwt>
<pdfrwt beam="1">  1        4 0.69207269E-02 0.12499840E+03</pdfrwt>
<pdfrwt beam="2">  1       -4 0.35275828E-01 0.12499840E+03</pdfrwt>
<totfact> 0.17652589E+03</totfact>
</mgrwt>
</event>
<event>
 5    1  0.1448308E-002  0.1249957E+03  0.7818608E-02  0.1235076E+00
          4   -1    0    0  501    0  0.00000000000E+00  0.00000000000E+00  0.29662166681E+03  0.29662438559E+03  0.12700000000E+01 0.  1.
         -4   -1    0    0    0  501 -0.00000000000E+00 -0.00000000000E+00 -0.13134827089E+02  0.13196082095E+02  0.12700000000E+01 0.  1.
         25    2    1    2    0    0  0.00000000000E+00  0.00000000000E+00  0.28348683973E+03  0.30982046768E+03  0.12499573551E+03 0.  0.
    9000005    1    3    3    0    0 -0.16966901646E+02 -0.24574591938E+02  0.27780286108E+03  0.27940511081E+03  0.10000000000E+01 0.  0.
    9000005    1    3    3    0    0  0.16966901646E+02  0.24574591938E+02  0.56839786426E+01  0.30415356871E+02  0.10000000000E+01 0.  0.
<mgrwt>
<rscale>  0 0.12499574E+03</rscale>
<asrwt>0</asrwt>
<pdfrwt beam="1">  1        4 0.74163414E-01 0.12499574E+03</pdfrwt>
<pdfrwt beam="2">  1       -4 0.32917035E-02 0.12499574E+03</pdfrwt>
<totfact> 0.12701455E+03</totfact>
</mgrwt>
</event>
<event>
 5    1  0.1448308E-002  0.1250009E+03  0.7818608E-02  0.1235068E+00
         -4   -1    0    0    0  501 -0.00000000000E+00  0.00000000000E+00  0.35789108960E+02  0.35811635262E+02  0.12700000000E+01 0. -1.
          4   -1    0    0  501    0  0.00000000000E+00 -0.00000000000E+00 -0.10908725900E+03  0.10909465146E+03  0.12700000000E+01 0. -1.
         25    2    1    2    0    0  0.00000000000E+00  0.00000000000E+00 -0.73298150042E+02  0.14490628672E+03  0.12500085252E+03 0.  0.
    9000005    1    3    3    0    0  0.40972638436E+02 -0.21583956466E+02  0.11993252266E+02  0.47848326794E+02  0.10000000000E+01 0.  0.
    9000005    1    3    3    0    0 -0.40972638436E+02  0.21583956466E+02 -0.85291402309E+02  0.97057959925E+02  0.10000000000E+01 0.  0.
<mgrwt>
<rscale>  0 0.12500085E+03</rscale>
<asrwt>0</asrwt>
<pdfrwt beam="2">  1        4 0.27275554E-01 0.12500085E+03</pdfrwt>
<pdfrwt beam="1">  1       -4 0.89510173E-02 0.12500085E+03</pdfrwt>
<totfact> 0.18791688E+03</totfact>
</mgrwt>
</event>
<event>
 5    1  0.1448308E-002  0.1249794E+03  0.7818608E-02  0.1235102E+00
          4   -1    0    0  501    0  0.00000000000E+00  0.00000000000E+00  0.72446105039E+01  0.73550854076E+01  0.12700000000E+01 0.  1.
         -4   -1    0    0    0  501 -0.00000000000E+00 -0.00000000000E+00 -0.53482604896E+03  0.53482755683E+03  0.12700000000E+01 0.  1.
         25    2    1    2    0    0  0.00000000000E+00  0.00000000000E+00 -0.52758143846E+03  0.54218264224E+03  0.12497937167E+03 0.  0.
    9000005    1    3    3    0    0  0.18153764148E+02  0.46401095485E+02 -0.42734287205E+03  0.43023894653E+03  0.10000000000E+01 0.  0.
    9000005    1    3    3    0    0 -0.18153764148E+02 -0.46401095485E+02 -0.10023856641E+03  0.11194369572E+03  0.10000000000E+01 0.  0.
<mgrwt>
<rscale>  0 0.12497937E+03</rscale>
<asrwt>0</asrwt>
<pdfrwt beam="1">  1        4 0.18251523E-02 0.12497937E+03</pdfrwt>
<pdfrwt beam="2">  1       -4 0.13372038E+00 0.12497937E+03</pdfrwt>
<totfact> 0.81304606E+02</totfact>
</mgrwt>
</event>
<event>
 5    1  0.1448308E-002  0.1249963E+03  0.7818608E-02  0.1235075E+00
          4   -1    0    0  501    0  0.00000000000E+00  0.00000000000E+00  0.45974345290E+03  0.45974520703E+03  0.12700000000E+01 0. -1.
         -4   -1    0    0    0  501 -0.00000000000E+00 -0.00000000000E+00 -0.84468417951E+01  0.85417817996E+01  0.12700000000E+01 0. -1.
         25    2    1    2    0    0  0.00000000000E+00  0.00000000000E+00  0.45129661110E+03  0.46828698883E+03  0.12499629078E+03 0.  0.
    9000005    1    3    3    0    0 -0.58950653879E+01  0.36853398708E+02  0.41342118042E+03  0.41510359817E+03  0.10000000000E+01 0.  0.
    9000005    1    3    3    0    0  0.58950653879E+01 -0.36853398708E+02  0.37875430681E+02  0.53183390655E+02  0.10000000000E+01 0.  0.
<mgrwt>
<rscale>  0 0.12499629E+03</rscale>
<asrwt>0</asrwt>
<pdfrwt beam="1">  1        4 0.11494795E+00 0.12499629E+03</pdfrwt>
<pdfrwt beam="2">  1       -4 0.21237973E-02 0.12499629E+03</pdfrwt>
<totfact> 0.92831854E+02</totfact>
</mgrwt>
</event>
<event>
 5    1  0.1448308E-002  0.1250021E+03  0.7818608E-02  0.1235066E+00
         -4   -1    0    0    0  501 -0.00000000000E+00  0.00000000000E+00  0.13923566112E+03  0.13924145298E+03  0.12700000000E+01 0. -1.
          4   -1    0    0  501    0  0.00000000000E+00 -0.00000000000E+00 -0.28035133089E+02  0.28063884039E+02  0.12700000000E+01 0. -1.
         25    2    1    2    0    0  0.00000000000E+00  0.00000000000E+00  0.11120052803E+03  0.16730533702E+03  0.12500207342E+03 0.  0.
    9000005    1    3    3    0    0  0.52045431911E+02  0.24968949741E+02  0.87644302426E+02  0.10495093702E+03  0.10000000000E+01 0.  0.
    9000005    1    3    3    0    0 -0.52045431911E+02 -0.24968949741E+02  0.23556225603E+02  0.62354399994E+02  0.10000000000E+01 0.  0.
<mgrwt>
<rscale>  0 0.12500207E+03</rscale>
<asrwt>0</asrwt>
<pdfrwt beam="2">  1        4 0.70131012E-02 0.12500207E+03</pdfrwt>
<pdfrwt beam="1">  1       -4 0.34813233E-01 0.12500207E+03</pdfrwt>
<totfact> 0.17718424E+03</totfact>
</mgrwt>
</event>
<event>
 5    1  0.1448308E-002  0.1250292E+03  0.7818608E-02  0.1235024E+00
         -4   -1    0    0    0  501 -0.00000000000E+00  0.00000000000E+00  0.11780393244E+03  0.11781077794E+03  0.12700000000E+01 0. -1.
          4   -1    0    0  501    0  0.00000000000E+00 -0.00000000000E+00 -0.33154414052E+02  0.33178729197E+02  0.12700000000E+01 0. -1.
         25    2    1    2    0    0  0.00000000000E+00  0.00000000000E+00  0.84649518390E+02  0.15098950714E+03  0.12502915781E+03 0.  0.
    9000005    1    3    3    0    0 -0.98583548591E+01 -0.38848832547E+02 -0.15599579043E+02  0.43020527857E+02  0.10000000000E+01 0.  0.
    9000005    1    3    3    0    0  0.98583548591E+01  0.38848832547E+02  0.10024909743E+03  0.10796897928E+03  0.10000000000E+01 0.  0.
<mgrwt>
<rscale>  0 0.12502916E+03</rscale>
<asrwt>0</asrwt>
<pdfrwt beam="2">  1        4 0.82924987E-02 0.12502916E+03</pdfrwt>
<pdfrwt beam="1">  1       -4 0.29454878E-01 0.12502916E+03</pdfrwt>
<totfact> 0.18477694E+03</totfact>
</mgrwt>
</event>
<event>
 5    1  0.1448308E-002  0.1250042E+03  0.7818608E-02  0.1235063E+00
          4   -1    0    0  501    0  0.00000000000E+00  0.00000000000E+00  0.40488251061E+03  0.40488450241E+03  0.12700000000E+01 0.  1.
         -4   -1    0    0    0  501 -0.00000000000E+00 -0.00000000000E+00 -0.96046956381E+01  0.96882959441E+01  0.12700000000E+01 0.  1.
         25    2    1    2    0    0  0.00000000000E+00  0.00000000000E+00  0.39527781497E+03  0.41457279836E+03  0.12500421646E+03 0.  0.
    9000005    1    3    3    0    0  0.31789400763E+02  0.53533837504E+02  0.21552196550E+03  0.22433714666E+03  0.10000000000E+01 0.  0.
    9000005    1    3    3    0    0 -0.31789400763E+02 -0.53533837504E+02  0.17975584947E+03  0.19023565170E+03  0.10000000000E+01 0.  0.
<mgrwt>
<rscale>  0 0.12500422E+03</rscale>
<asrwt>0</asrwt>
<pdfrwt beam="1">  1        4 0.10123132E+00 0.12500422E+03</pdfrwt>
<pdfrwt beam="2">  1       -4 0.24118730E-02 0.12500422E+03</pdfrwt>
<totfact> 0.10272889E+03</totfact>
</mgrwt>
</event>
<event>
 5    1  0.1448308E-002  0.1249972E+03  0.7818608E-02  0.1235074E+00
          4   -1    0    0  501    0  0.00000000000E+00  0.00000000000E+00  0.89483999549E+01  0.90380729004E+01  0.12700000000E+01 0. -1.
         -4   -1    0    0    0  501 -0.00000000000E+00 -0.00000000000E+00 -0.43424426890E+03  0.43424612603E+03  0.12700000000E+01 0. -1.
         25    2    1    2    0    0  0.00000000000E+00  0.00000000000E+00 -0.42529586895E+03  0.44328419893E+03  0.12499721949E+03 0.  0.
    9000005    1    3    3    0    0  0.44274136614E-01  0.21409123333E+02 -0.42085004788E+03  0.42139543819E+03  0.10000000000E+01 0.  0.
    9000005    1    3    3    0    0 -0.44274136614E-01 -0.21409123333E+02 -0.44458210652E+01  0.21888760747E+02  0.10000000000E+01 0.  0.
<mgrwt>
<rscale>  0 0.12499722E+03</rscale>
<asrwt>0</asrwt>
<pdfrwt beam="1">  1        4 0.22485427E-02 0.12499722E+03</pdfrwt>
<pdfrwt beam="2">  1       -4 0.10857244E+00 0.12499722E+03</pdfrwt>
<totfact> 0.97241542E+02</totfact>
</mgrwt>
</event>
<event>
 5    1  0.1448308E-002  0.1250003E+03  0.7818608E-02  0.1235069E+00
         -4   -1    0    0    0  501 -0.00000000000E+00  0.00000000000E+00  0.50449600510E+03  0.50449760363E+03  0.12700000000E+01 0.  1.
          4   -1    0    0  501    0  0.00000000000E+00 -0.00000000000E+00 -0.76892128291E+01  0.77933878340E+01  0.12700000000E+01 0.  1.
         25    2    1    2    0    0  0.00000000000E+00  0.00000000000E+00  0.49680679227E+03  0.51229099146E+03  0.12500028433E+03 0.  0.
    9000005    1    3    3    0    0  0.75185192275E+00  0.52350431294E+02  0.10857114152E+03  0.12053972668E+03  0.10000000000E+01 0.  0.
    9000005    1    3    3    0    0 -0.75185192275E+00 -0.52350431294E+02  0.38823565076E+03  0.39175126478E+03  0.10000000000E+01 0.  0.
<mgrwt>
<rscale>  0 0.12500028E+03</rscale>
<asrwt>0</asrwt>
<pdfrwt beam="2">  1        4 0.19355249E-02 0.12500028E+03</pdfrwt>
<pdfrwt beam="1">  1       -4 0.12613723E+00 0.12500028E+03</pdfrwt>
<totfact> 0.85683951E+02</totfact>
</mgrwt>
</event>
<event>
 5    1  0.1448308E-002  0.1249930E+03  0.7818608E-02  0.1235080E+00
          4   -1    0    0  501    0  0.00000000000E+00  0.00000000000E+00  0.20187537982E+03  0.20187937457E+03  0.12700000000E+01 0. -1.
         -4   -1    0    0    0  501 -0.00000000000E+00 -0.00000000000E+00 -0.19322618996E+02  0.19364310080E+02  0.12700000000E+01 0. -1.
         25    2    1    2    0    0  0.00000000000E+00  0.00000000000E+00  0.18255276082E+03  0.22124368465E+03  0.12499302986E+03 0.  0.
    9000005    1    3    3    0    0 -0.51620647276E+02  0.30803834315E+02  0.61068811412E+02  0.85696949543E+02  0.10000000000E+01 0.  0.
    9000005    1    3    3    0    0  0.51620647276E+02 -0.30803834315E+02  0.12148394941E+03  0.13554673511E+03  0.10000000000E+01 0.  0.
<mgrwt>
<rscale>  0 0.12499303E+03</rscale>
<asrwt>0</asrwt>
<pdfrwt beam="1">  1        4 0.50474556E-01 0.12499303E+03</pdfrwt>
<pdfrwt beam="2">  1       -4 0.48363654E-02 0.12499303E+03</pdfrwt>
<totfact> 0.15507818E+03</totfact>
</mgrwt>
</event>
<event>
 5    1  0.1448308E-002  0.1250016E+03  0.7818608E-02  0.1235067E+00
         -4   -1    0    0    0  501 -0.00000000000E+00  0.00000000000E+00  0.73736460532E+01  0.74822159898E+01  0.12700000000E+01 0. -1.
          4   -1    0    0  501    0  0.00000000000E+00 -0.00000000000E+00 -0.52579087623E+03  0.52579241001E+03  0.12700000000E+01 0. -1.
         25    2    1    2    0    0  0.00000000000E+00  0.00000000000E+00 -0.51841723018E+03  0.53327462600E+03  0.12500160876E+03 0.  0.
    9000005    1    3    3    0    0  0.47595128733E+02  0.37807440346E+02 -0.19729048589E+03  0.20644426523E+03  0.10000000000E+01 0.  0.
    9000005    1    3    3    0    0 -0.47595128733E+02 -0.37807440346E+02 -0.32112674429E+03  0.32683036077E+03  0.10000000000E+01 0.  0.
<mgrwt>
<rscale>  0 0.12500161E+03</rscale>
<asrwt>0</asrwt>
<pdfrwt beam="2">  1        4 0.13146136E+00 0.12500161E+03</pdfrwt>
<pdfrwt beam="1">  1       -4 0.18571763E-02 0.12500161E+03</pdfrwt>
<totfact> 0.82543819E+02</totfact>
</mgrwt>
</event>
<event>
 5    1  0.1448308E-002  0.1249996E+03  0.7818608E-02  0.1235070E+00
         -4   -1    0    0    0  501 -0.00000000000E+00  0.00000000000E+00  0.10528241244E+03  0.10529007203E+03  0.12700000000E+01 0.  1.
          4   -1    0    0  501    0  0.00000000000E+00 -0.00000000000E+00 -0.37082449741E+02  0.37104190852E+02  0.12700000000E+01 0.  1.
         25    2    1    2    0    0  0.00000000000E+00  0.00000000000E+00  0.68199962695E+02  0.14239426288E+03  0.12499956476E+03 0.  0.
    9000005    1    3    3    0    0  0.23659050539E+02  0.56820284028E+02  0.46418038844E+02  0.77096885019E+02  0.10000000000E+01 0.  0.
    9000005    1    3    3    0    0 -0.23659050539E+02 -0.56820284028E+02  0.21781923851E+02  0.65297377865E+02  0.10000000000E+01 0.  0.
<mgrwt>
<rscale>  0 0.12499956E+03</rscale>
<asrwt>0</asrwt>
<pdfrwt beam="2">  1        4 0.92742877E-02 0.12499956E+03</pdfrwt>
<pdfrwt beam="1">  1       -4 0.26324278E-01 0.12499956E+03</pdfrwt>
<totfact> 0.18918710E+03</totfact>
</mgrwt>
</event>
<event>
 5    1  0.1448308E-002  0.1249998E+03  0.7818608E-02  0.1235070E+00
         -4   -1    0    0    0  501 -0.00000000000E+00  0.00000000000E+00  0.30916780898E+02  0.30942854443E+02  0.12700000000E+01 0. -1.
          4   -1    0    0  501    0  0.00000000000E+00 -0.00000000000E+00 -0.12626429755E+03  0.12627068439E+03  0.12700000000E+01 0. -1.
         25    2    1    2    0    0  0.00000000000E+00  0.00000000000E+00 -0.95347516652E+02  0.15721353883E+03  0.12499979144E+03 0.  0.
    9000005    1    3    3    0    0  0.24806533476E+02 -0.55817183648E+02 -0.64279102265E+02  0.88677647023E+02  0.10000000000E+01 0.  0.
    9000005    1    3    3    0    0 -0.24806533476E+02  0.55817183648E+02 -0.31068414386E+02  0.68535891808E+02  0.10000000000E+01 0.  0.
<mgrwt>
<rscale>  0 0.12499979E+03</rscale>
<asrwt>0</asrwt>
<pdfrwt beam="2">  1        4 0.31570131E-01 0.12499979E+03</pdfrwt>
<pdfrwt beam="1">  1       -4 0.77332531E-02 0.12499979E+03</pdfrwt>
<totfact> 0.18189771E+03</totfact>
</mgrwt>
</event>
<event>
 5    1  0.1448308E-002  0.1249708E+03  0.7818608E-02  0.1235115E+00
          4   -1    0    0  501    0  0.00000000000E+00  0.00000000000E+00  0.10281436895E+03  0.10282221239E+03  0.12700000000E+01 0.  1.
         -4   -1    0    0    0  501 -0.00000000000E+00 -0.00000000000E+00 -0.37955548771E+02  0.37976790050E+02  0.12700000000E+01 0.  1.
         25    2    1    2    0    0  0.00000000000E+00  0.00000000000E+00  0.64858820175E+02  0.14079900245E+03  0.12497076672E+03 0.  0.
    9000005    1    3    3    0    0  0.59979948006E+02 -0.14744307443E+02  0.43024427729E+02  0.75280078017E+02  0.10000000000E+01 0.  0.
    9000005    1    3    3    0    0 -0.59979948006E+02  0.14744307443E+02  0.21834392446E+02  0.65518924428E+02  0.10000000000E+01 0.  0.
<mgrwt>
<rscale>  0 0.12497077E+03</rscale>
<asrwt>0</asrwt>
<pdfrwt beam="1">  1        4 0.25707228E-01 0.12497077E+03</pdfrwt>
<pdfrwt beam="2">  1       -4 0.94925229E-02 0.12497077E+03</pdfrwt>
<totfact> 0.19012497E+03</totfact>
</mgrwt>
</event>
<event>
 5    1  0.1448308E-002  0.1249905E+03  0.7818608E-02  0.1235084E+00
         -4   -1    0    0    0  501 -0.00000000000E+00  0.00000000000E+00  0.27166311333E+03  0.27166608188E+03  0.12700000000E+01 0. -1.
          4   -1    0    0  501    0  0.00000000000E+00 -0.00000000000E+00 -0.14345747423E+02  0.14401852975E+02  0.12700000000E+01 0. -1.
         25    2    1    2    0    0  0.00000000000E+00  0.00000000000E+00  0.25731736591E+03  0.28606793485E+03  0.12499054586E+03 0.  0.
    9000005    1    3    3    0    0  0.40413953784E+02  0.32416879377E+01  0.23748379759E+03  0.24092187596E+03  0.10000000000E+01 0.  0.
    9000005    1    3    3    0    0 -0.40413953784E+02 -0.32416879377E+01  0.19833568319E+02  0.45146058891E+02  0.10000000000E+01 0.  0.
<mgrwt>
<rscale>  0 0.12499055E+03</rscale>
<asrwt>0</asrwt>
<pdfrwt beam="2">  1        4 0.35938210E-02 0.12499055E+03</pdfrwt>
<pdfrwt beam="1">  1       -4 0.67923166E-01 0.12499055E+03</pdfrwt>
<totfact> 0.13373610E+03</totfact>
</mgrwt>
</event>
<event>
 5    1  0.1448308E-002  0.1250005E+03  0.7818608E-02  0.1235069E+00
          4   -1    0    0  501    0  0.00000000000E+00  0.00000000000E+00  0.44262617326E+02  0.44280833242E+02  0.12700000000E+01 0. -1.
         -4   -1    0    0    0  501 -0.00000000000E+00 -0.00000000000E+00 -0.88211393908E+02  0.88220535677E+02  0.12700000000E+01 0. -1.
         25    2    1    2    0    0  0.00000000000E+00  0.00000000000E+00 -0.43948776581E+02  0.13250136892E+03  0.12500047121E+03 0.  0.
    9000005    1    3    3    0    0 -0.39865639701E+02 -0.47492132733E+02 -0.13728954660E+02  0.63515794070E+02  0.10000000000E+01 0.  0.
    9000005    1    3    3    0    0  0.39865639701E+02  0.47492132733E+02 -0.30219821921E+02  0.68985574849E+02  0.10000000000E+01 0.  0.
<mgrwt>
<rscale>  0 0.12500047E+03</rscale>
<asrwt>0</asrwt>
<pdfrwt beam="1">  1        4 0.11069074E-01 0.12500047E+03</pdfrwt>
<pdfrwt beam="2">  1       -4 0.22056268E-01 0.12500047E+03</pdfrwt>
<totfact> 0.19430614E+03</totfact>
</mgrwt>
</event>
<event>
 5    1  0.1448308E-002  0.1250035E+03  0.7818608E-02  0.1235064E+00
         -4   -1    0    0    0  501 -0.00000000000E+00  0.00000000000E+00  0.44229734877E+02  0.44247964329E+02  0.12700000000E+01 0. -1.
          4   -1    0    0  501    0  0.00000000000E+00 -0.00000000000E+00 -0.88281235825E+02  0.88290370363E+02  0.12700000000E+01 0. -1.
         25    2    1    2    0    0  0.00000000000E+00  0.00000000000E+00 -0.44051500948E+02  0.13253833469E+03  0.12500350166E+03 0.  0.
    9000005    1    3    3    0    0  0.36712871392E+02  0.39379510853E+02  0.11618427774E+02  0.55086919180E+02  0.10000000000E+01 0.  0.
    9000005    1    3    3    0    0 -0.36712871392E+02 -0.39379510853E+02 -0.55669928723E+02  0.77451415512E+02  0.10000000000E+01 0.  0.
<mgrwt>
<rscale>  0 0.12500350E+03</rscale>
<asrwt>0</asrwt>
<pdfrwt beam="2">  1        4 0.22073729E-01 0.12500350E+03</pdfrwt>
<pdfrwt beam="1">  1       -4 0.11060854E-01 0.12500350E+03</pdfrwt>
<totfact> 0.19427280E+03</totfact>
</mgrwt>
</event>
<event>
 5    1  0.1448308E-002  0.1250004E+03  0.7818608E-02  0.1235069E+00
         -4   -1    0    0    0  501 -0.00000000000E+00  0.00000000000E+00  0.80607010477E+02  0.80617014569E+02  0.12700000000E+01 0.  1.
          4   -1    0    0  501    0  0.00000000000E+00 -0.00000000000E+00 -0.48439381648E+02  0.48456027431E+02  0.12700000000E+01 0.  1.
         25    2    1    2    0    0  0.00000000000E+00  0.00000000000E+00  0.32167628829E+02  0.12907304200E+03  0.12500037531E+03 0.  0.
    9000005    1    3    3    0    0 -0.28620158647E+02  0.28768533190E+02  0.65156214815E+02  0.76766361851E+02  0.10000000000E+01 0.  0.
    9000005    1    3    3    0    0  0.28620158647E+02 -0.28768533190E+02 -0.32988585986E+02  0.52306680149E+02  0.10000000000E+01 0.  0.
<mgrwt>
<rscale>  0 0.12500038E+03</rscale>
<asrwt>0</asrwt>
<pdfrwt beam="2">  1        4 0.12113177E-01 0.12500038E+03</pdfrwt>
<pdfrwt beam="1">  1       -4 0.20155084E-01 0.12500038E+03</pdfrwt>
<totfact> 0.19614175E+03</totfact>
</mgrwt>
</event>
<event>
 5    1  0.1448308E-002  0.1250010E+03  0.7818608E-02  0.1235068E+00
         -4   -1    0    0    0  501 -0.00000000000E+00  0.00000000000E+00  0.23223513598E+03  0.23223860851E+03  0.12700000000E+01 0.  1.
          4   -1    0    0  501    0  0.00000000000E+00 -0.00000000000E+00 -0.16792940366E+02  0.16840895051E+02  0.12700000000E+01 0.  1.
         25    2    1    2    0    0  0.00000000000E+00  0.00000000000E+00  0.21544219561E+03  0.24907950356E+03  0.12500103777E+03 0.  0.
    9000005    1    3    3    0    0  0.34269810203E+02  0.35096885312E+02  0.18487185593E+03  0.19127157229E+03  0.10000000000E+01 0.  0.
    9000005    1    3    3    0    0 -0.34269810203E+02 -0.35096885312E+02  0.30570339680E+02  0.57807931273E+02  0.10000000000E+01 0.  0.
<mgrwt>
<rscale>  0 0.12500104E+03</rscale>
<asrwt>0</asrwt>
<pdfrwt beam="2">  1        4 0.42046636E-02 0.12500104E+03</pdfrwt>
<pdfrwt beam="1">  1       -4 0.58065211E-01 0.12500104E+03</pdfrwt>
<totfact> 0.14528312E+03</totfact>
</mgrwt>
</event>
<event>
 5    1  0.1448308E-002  0.1249578E+03  0.7818608E-02  0.1235135E+00
         -4   -1    0    0    0  501 -0.00000000000E+00  0.00000000000E+00  0.77949481005E+02  0.77959826122E+02  0.12700000000E+01 0.  1.
          4   -1    0    0  501    0  0.00000000000E+00 -0.00000000000E+00 -0.50057062539E+02  0.50073170561E+02  0.12700000000E+01 0.  1.
         25    2    1    2    0    0  0.00000000000E+00  0.00000000000E+00  0.27892418467E+02  0.12803299668E+03  0.12495783782E+03 0.  0.
    9000005    1    3    3    0    0 -0.25517947825E+02  0.37810021976E+02 -0.29787361899E+02  0.54488992943E+02  0.10000000000E+01 0.  0.
    9000005    1    3    3    0    0  0.25517947825E+02 -0.37810021976E+02  0.57679780366E+02  0.73544003740E+02  0.10000000000E+01 0.  0.
<mgrwt>
<rscale>  0 0.12495784E+03</rscale>
<asrwt>0</asrwt>
<pdfrwt beam="2">  1        4 0.12517572E-01 0.12495784E+03</pdfrwt>
<pdfrwt beam="1">  1       -4 0.19490677E-01 0.12495784E+03</pdfrwt>
<totfact> 0.19690109E+03</totfact>
</mgrwt>
</event>
<event>
 5    1  0.1448308E-002  0.1250055E+03  0.7818608E-02  0.1235061E+00
         -4   -1    0    0    0  501 -0.00000000000E+00  0.00000000000E+00  0.12573212196E+03  0.12573853583E+03  0.12700000000E+01 0. -1.
          4   -1    0    0  501    0  0.00000000000E+00 -0.00000000000E+00 -0.31050589252E+02  0.31076550530E+02  0.12700000000E+01 0. -1.
         25    2    1    2    0    0  0.00000000000E+00  0.00000000000E+00  0.94681532708E+02  0.15681508636E+03  0.12500551457E+03 0.  0.
    9000005    1    3    3    0    0 -0.44846221036E+02 -0.43214909893E+02  0.40836549185E+02  0.74480438557E+02  0.10000000000E+01 0.  0.
    9000005    1    3    3    0    0  0.44846221036E+02  0.43214909893E+02  0.53844983523E+02  0.82334647803E+02  0.10000000000E+01 0.  0.
<mgrwt>
<rscale>  0 0.12500551E+03</rscale>
<asrwt>0</asrwt>
<pdfrwt beam="2">  1        4 0.77666943E-02 0.12500551E+03</pdfrwt>
<pdfrwt beam="1">  1       -4 0.31437077E-01 0.12500551E+03</pdfrwt>
<totfact> 0.18206344E+03</totfact>
</mgrwt>
</event>
<event>
 5    1  0.1448308E-002  0.1249982E+03  0.7818608E-02  0.1235072E+00
          4   -1    0    0  501    0  0.00000000000E+00  0.00000000000E+00  0.39844278967E+03  0.39844481367E+03  0.12700000000E+01 0. -1.
         -4   -1    0    0    0  501 -0.00000000000E+00 -0.00000000000E+00 -0.97603185195E+01  0.98425970964E+01  0.12700000000E+01 0. -1.
         25    2    1    2    0    0  0.00000000000E+00  0.00000000000E+00  0.38868247115E+03  0.40828741077E+03  0.12499818563E+03 0.  0.
    9000005    1    3    3    0    0  0.50167008645E+02  0.10495937025E+02  0.77561088685E+02  0.92971048872E+02  0.10000000000E+01 0.  0.
    9000005    1    3    3    0    0 -0.50167008645E+02 -0.10495937025E+02  0.31112138246E+03  0.31531636189E+03  0.10000000000E+01 0.  0.
<mgrwt>
<rscale>  0 0.12499819E+03</rscale>
<asrwt>0</asrwt>
<pdfrwt beam="1">  1        4 0.99621237E-01 0.12499819E+03</pdfrwt>
<pdfrwt beam="2">  1       -4 0.24506174E-02 0.12499819E+03</pdfrwt>
<totfact> 0.10400889E+03</totfact>
</mgrwt>
</event>
<event>
 5    1  0.1448308E-002  0.1249980E+03  0.7818608E-02  0.1235072E+00
          4   -1    0    0  501    0  0.00000000000E+00  0.00000000000E+00  0.54205494754E+02  0.54220370355E+02  0.12700000000E+01 0.  1.
         -4   -1    0    0    0  501 -0.00000000000E+00 -0.00000000000E+00 -0.72031061097E+02  0.72042256091E+02  0.12700000000E+01 0.  1.
         25    2    1    2    0    0  0.00000000000E+00  0.00000000000E+00 -0.17825566343E+02  0.12626262645E+03  0.12499800007E+03 0.  0.
    9000005    1    3    3    0    0 -0.71769214932E+00 -0.14343495310E+02  0.52520896262E+02  0.54458199419E+02  0.10000000000E+01 0.  0.
    9000005    1    3    3    0    0  0.71769214932E+00  0.14343495310E+02 -0.70346462606E+02  0.71804427028E+02  0.10000000000E+01 0.  0.
<mgrwt>
<rscale>  0 0.12499800E+03</rscale>
<asrwt>0</asrwt>
<pdfrwt beam="1">  1        4 0.13554633E-01 0.12499800E+03</pdfrwt>
<pdfrwt beam="2">  1       -4 0.18011024E-01 0.12499800E+03</pdfrwt>
<totfact> 0.19767659E+03</totfact>
</mgrwt>
</event>
<event>
 5    1  0.1448308E-002  0.1249981E+03  0.7818608E-02  0.1235072E+00
          4   -1    0    0  501    0  0.00000000000E+00  0.00000000000E+00  0.28251835860E+03  0.28252121309E+03  0.12700000000E+01 0. -1.
         -4   -1    0    0    0  501 -0.00000000000E+00 -0.00000000000E+00 -0.13794025856E+02  0.13852366199E+02  0.12700000000E+01 0. -1.
         25    2    1    2    0    0  0.00000000000E+00  0.00000000000E+00  0.26872433274E+03  0.29637357928E+03  0.12499812595E+03 0.  0.
    9000005    1    3    3    0    0 -0.25993544683E+02  0.45842442404E+02  0.21399254605E+03  0.22038830199E+03  0.10000000000E+01 0.  0.
    9000005    1    3    3    0    0  0.25993544683E+02 -0.45842442404E+02  0.54731786688E+02  0.75985277290E+02  0.10000000000E+01 0.  0.
<mgrwt>
<rscale>  0 0.12499813E+03</rscale>
<asrwt>0</asrwt>
<pdfrwt beam="1">  1        4 0.70637242E-01 0.12499813E+03</pdfrwt>
<pdfrwt beam="2">  1       -4 0.34561557E-02 0.12499813E+03</pdfrwt>
<totfact> 0.13073866E+03</totfact>
</mgrwt>
</event>
<event>
 5    1  0.1448308E-002  0.1250027E+03  0.7818608E-02  0.1235065E+00
         -4   -1    0    0    0  501 -0.00000000000E+00  0.00000000000E+00  0.61130826163E+02  0.61144016939E+02  0.12700000000E+01 0.  1.
          4   -1    0    0  501    0  0.00000000000E+00 -0.00000000000E+00 -0.63876174928E+02  0.63888798888E+02  0.12700000000E+01 0.  1.
         25    2    1    2    0    0  0.00000000000E+00  0.00000000000E+00 -0.27453487641E+01  0.12503281583E+03  0.12500267235E+03 0.  0.
    9000005    1    3    3    0    0 -0.14133422168E+01 -0.33286248875E+02 -0.54257393233E+02  0.63677599050E+02  0.10000000000E+01 0.  0.
    9000005    1    3    3    0    0  0.14133422168E+01  0.33286248875E+02  0.51512044468E+02  0.61355216777E+02  0.10000000000E+01 0.  0.
<mgrwt>
<rscale>  0 0.12500267E+03</rscale>
<asrwt>0</asrwt>
<pdfrwt beam="2">  1        4 0.15972271E-01 0.12500267E+03</pdfrwt>
<pdfrwt beam="1">  1       -4 0.15285933E-01 0.12500267E+03</pdfrwt>
<totfact> 0.19832036E+03</totfact>
</mgrwt>
</event>
<event>
 5    1  0.1448308E-002  0.1249925E+03  0.7818608E-02  0.1235081E+00
         -4   -1    0    0    0  501 -0.00000000000E+00  0.00000000000E+00  0.35790808279E+02  0.35813333513E+02  0.12700000000E+01 0. -1.
          4   -1    0    0  501    0  0.00000000000E+00 -0.00000000000E+00 -0.10906747676E+03  0.10907487056E+03  0.12700000000E+01 0. -1.
         25    2    1    2    0    0  0.00000000000E+00  0.00000000000E+00 -0.73276668485E+02  0.14488820407E+03  0.12499248592E+03 0.  0.
    9000005    1    3    3    0    0 -0.14063892020E+01 -0.37834255006E+02  0.20987622592E+02  0.43299989428E+02  0.10000000000E+01 0.  0.
    9000005    1    3    3    0    0  0.14063892020E+01  0.37834255006E+02 -0.94264291077E+02  0.10158821464E+03  0.10000000000E+01 0.  0.
<mgrwt>
<rscale>  0 0.12499249E+03</rscale>
<asrwt>0</asrwt>
<pdfrwt beam="2">  1        4 0.27270608E-01 0.12499249E+03</pdfrwt>
<pdfrwt beam="1">  1       -4 0.89514422E-02 0.12499249E+03</pdfrwt>
<totfact> 0.18796259E+03</totfact>
</mgrwt>
</event>
<event>
 5    1  0.1448308E-002  0.1250194E+03  0.7818608E-02  0.1235039E+00
          4   -1    0    0  501    0  0.00000000000E+00  0.00000000000E+00  0.20526984494E+02  0.20566234279E+02  0.12700000000E+01 0.  1.
         -4   -1    0    0    0  501 -0.00000000000E+00 -0.00000000000E+00 -0.19013408541E+03  0.19013832684E+03  0.12700000000E+01 0.  1.
         25    2    1    2    0    0  0.00000000000E+00  0.00000000000E+00 -0.16960710092E+03  0.21070456112E+03  0.12501937209E+03 0.  0.
    9000005    1    3    3    0    0 -0.28651562161E+02 -0.52575151578E+02 -0.11501844581E+03  0.12967382717E+03  0.10000000000E+01 0.  0.
    9000005    1    3    3    0    0  0.28651562161E+02  0.52575151578E+02 -0.54588655108E+02  0.81030733949E+02  0.10000000000E+01 0.  0.
<mgrwt>
<rscale>  0 0.12501937E+03</rscale>
<asrwt>0</asrwt>
<pdfrwt beam="1">  1        4 0.51371831E-02 0.12501937E+03</pdfrwt>
<pdfrwt beam="2">  1       -4 0.47538952E-01 0.12501937E+03</pdfrwt>
<totfact> 0.15895090E+03</totfact>
</mgrwt>
</event>
<event>
 5    1  0.1448308E-002  0.1250004E+03  0.7818608E-02  0.1235069E+00
          4   -1    0    0  501    0  0.00000000000E+00  0.00000000000E+00  0.22340206013E+03  0.22340566996E+03  0.12700000000E+01 0.  1.
         -4   -1    0    0    0  501 -0.00000000000E+00 -0.00000000000E+00 -0.17458574943E+02  0.17504706197E+02  0.12700000000E+01 0.  1.
         25    2    1    2    0    0  0.00000000000E+00  0.00000000000E+00  0.20594348519E+03  0.24091037616E+03  0.12500036100E+03 0.  0.
    9000005    1    3    3    0    0  0.54897065124E+02  0.24635103296E+02  0.70452883976E+02  0.92656273043E+02  0.10000000000E+01 0.  0.
    9000005    1    3    3    0    0 -0.54897065124E+02 -0.24635103296E+02  0.13549060121E+03  0.14825410311E+03  0.10000000000E+01 0.  0.
<mgrwt>
<rscale>  0 0.12500036E+03</rscale>
<asrwt>0</asrwt>
<pdfrwt beam="1">  1        4 0.55856732E-01 0.12500036E+03</pdfrwt>
<pdfrwt beam="2">  1       -4 0.43708615E-02 0.12500036E+03</pdfrwt>
<totfact> 0.14805016E+03</totfact>
</mgrwt>
</event>
<event>
 5    1  0.1448308E-002  0.1250061E+03  0.7818608E-02  0.1235060E+00
          4   -1    0    0  501    0  0.00000000000E+00  0.00000000000E+00  0.35909007134E+02  0.35931458270E+02  0.12700000000E+01 0.  1.
         -4   -1    0    0    0  501 -0.00000000000E+00 -0.00000000000E+00 -0.10873235650E+03  0.10873977309E+03  0.12700000000E+01 0.  1.
         25    2    1    2    0    0  0.00000000000E+00  0.00000000000E+00 -0.72823349368E+02  0.14467123135E+03  0.12500609973E+03 0.  0.
    9000005    1    3    3    0    0  0.36486927184E+02  0.44295615309E+02 -0.77758534784E+01  0.57921164424E+02  0.10000000000E+01 0.  0.
    9000005    1    3    3    0    0 -0.36486927184E+02 -0.44295615309E+02 -0.65047495890E+02  0.86750066931E+02  0.10000000000E+01 0.  0.
<mgrwt>
<rscale>  0 0.12500610E+03</rscale>
<asrwt>0</asrwt>
<pdfrwt beam="1">  1        4 0.89809855E-02 0.12500610E+03</pdfrwt>
<pdfrwt beam="2">  1       -4 0.27186822E-01 0.12500610E+03</pdfrwt>
<totfact> 0.18801192E+03</totfact>
</mgrwt>
</event>
<event>
 5    1  0.1448308E-002  0.1250001E+03  0.7818608E-02  0.1235069E+00
          4   -1    0    0  501    0  0.00000000000E+00  0.00000000000E+00  0.36801995057E+02  0.36823901751E+02  0.12700000000E+01 0. -1.
         -4   -1    0    0    0  501 -0.00000000000E+00 -0.00000000000E+00 -0.10608520908E+03  0.10609281071E+03  0.12700000000E+01 0. -1.
         25    2    1    2    0    0  0.00000000000E+00  0.00000000000E+00 -0.69283214019E+02  0.14291671246E+03  0.12500009182E+03 0.  0.
    9000005    1    3    3    0    0  0.31297550039E+02 -0.39082587744E+02  0.81115582076E+01  0.50732461794E+02  0.10000000000E+01 0.  0.
    9000005    1    3    3    0    0 -0.31297550039E+02  0.39082587744E+02 -0.77394772227E+02  0.92184250668E+02  0.10000000000E+01 0.  0.
<mgrwt>
<rscale>  0 0.12500009E+03</rscale>
<asrwt>0</asrwt>
<pdfrwt beam="1">  1        4 0.92041875E-02 0.12500009E+03</pdfrwt>
<pdfrwt beam="2">  1       -4 0.26524990E-01 0.12500009E+03</pdfrwt>
<totfact> 0.18892068E+03</totfact>
</mgrwt>
</event>
<event>
 5    1  0.1448308E-002  0.1250009E+03  0.7818608E-02  0.1235068E+00
         -4   -1    0    0    0  501 -0.00000000000E+00  0.00000000000E+00  0.34678218769E+02  0.34701466208E+02  0.12700000000E+01 0.  1.
          4   -1    0    0  501    0  0.00000000000E+00 -0.00000000000E+00 -0.11257977043E+03  0.11258693357E+03  0.12700000000E+01 0.  1.
         25    2    1    2    0    0  0.00000000000E+00  0.00000000000E+00 -0.77901551665E+02  0.14728839978E+03  0.12500088383E+03 0.  0.
    9000005    1    3    3    0    0  0.25053958644E+02  0.48965897478E+02 -0.39978695057E+01  0.55157437578E+02  0.10000000000E+01 0.  0.
    9000005    1    3    3    0    0 -0.25053958644E+02 -0.48965897478E+02 -0.73903682159E+02  0.92130962202E+02  0.10000000000E+01 0.  0.
<mgrwt>
<rscale>  0 0.12500088E+03</rscale>
<asrwt>0</asrwt>
<pdfrwt beam="2">  1        4 0.28148743E-01 0.12500088E+03</pdfrwt>
<pdfrwt beam="1">  1       -4 0.86733563E-02 0.12500088E+03</pdfrwt>
<totfact> 0.18672535E+03</totfact>
</mgrwt>
</event>
<event>
 5    1  0.1448308E-002  0.1249991E+03  0.7818608E-02  0.1235071E+00
          4   -1    0    0  501    0  0.00000000000E+00  0.00000000000E+00  0.11824720138E+03  0.11825402122E+03  0.12700000000E+01 0.  1.
         -4   -1    0    0    0  501 -0.00000000000E+00 -0.00000000000E+00 -0.33014136424E+02  0.33038554808E+02  0.12700000000E+01 0.  1.
         25    2    1    2    0    0  0.00000000000E+00  0.00000000000E+00  0.85233064954E+02  0.15129257602E+03  0.12499907279E+03 0.  0.
    9000005    1    3    3    0    0  0.52510596968E+02 -0.26100498493E+02  0.16472050302E+02  0.60917380580E+02  0.10000000000E+01 0.  0.
    9000005    1    3    3    0    0 -0.52510596968E+02  0.26100498493E+02  0.68761014651E+02  0.90375195443E+02  0.10000000000E+01 0.  0.
<mgrwt>
<rscale>  0 0.12499907E+03</rscale>
<asrwt>0</asrwt>
<pdfrwt beam="1">  1        4 0.29565705E-01 0.12499907E+03</pdfrwt>
<pdfrwt beam="2">  1       -4 0.82574389E-02 0.12499907E+03</pdfrwt>
<totfact> 0.18475806E+03</totfact>
</mgrwt>
</event>
<event>
 5    1  0.1448308E-002  0.1249978E+03  0.7818608E-02  0.1235073E+00
         -4   -1    0    0    0  501 -0.00000000000E+00  0.00000000000E+00  0.62673848218E+02  0.62686714305E+02  0.12700000000E+01 0.  1.
          4   -1    0    0  501    0  0.00000000000E+00 -0.00000000000E+00 -0.62298734843E+02  0.62311678384E+02  0.12700000000E+01 0.  1.
         25    2    1    2    0    0  0.00000000000E+00  0.00000000000E+00  0.37511337519E+00  0.12499839269E+03  0.12499782984E+03 0.  0.
    9000005    1    3    3    0    0 -0.46659687537E+02  0.39687853172E+02 -0.12176245819E+02  0.62462093246E+02  0.10000000000E+01 0.  0.
    9000005    1    3    3    0    0  0.46659687537E+02 -0.39687853172E+02  0.12551359195E+02  0.62536299443E+02  0.10000000000E+01 0.  0.
<mgrwt>
<rscale>  0 0.12499783E+03</rscale>
<asrwt>0</asrwt>
<pdfrwt beam="2">  1        4 0.15577910E-01 0.12499783E+03</pdfrwt>
<pdfrwt beam="1">  1       -4 0.15671688E-01 0.12499783E+03</pdfrwt>
<totfact> 0.19836150E+03</totfact>
</mgrwt>
</event>
<event>
 5    1  0.1448308E-002  0.1250249E+03  0.7818608E-02  0.1235030E+00
         -4   -1    0    0    0  501 -0.00000000000E+00  0.00000000000E+00  0.83903408420E+03  0.83903504536E+03  0.12700000000E+01 0.  1.
          4   -1    0    0  501    0  0.00000000000E+00 -0.00000000000E+00 -0.45699522614E+01  0.47431385887E+01  0.12700000000E+01 0.  1.
         25    2    1    2    0    0  0.00000000000E+00  0.00000000000E+00  0.83446413194E+03  0.84377818395E+03  0.12502494240E+03 0.  0.
    9000005    1    3    3    0    0 -0.27935858260E+02  0.45762369822E+02  0.63405941439E+03  0.63632299003E+03  0.10000000000E+01 0.  0.
    9000005    1    3    3    0    0  0.27935858260E+02 -0.45762369822E+02  0.20040471755E+03  0.20745519392E+03  0.10000000000E+01 0.  0.
<mgrwt>
<rscale>  0 0.12502494E+03</rscale>
<asrwt>0</asrwt>
<pdfrwt beam="2">  1        4 0.11642561E-02 0.12502494E+03</pdfrwt>
<pdfrwt beam="1">  1       -4 0.20978035E+00 0.12502494E+03</pdfrwt>
<totfact> 0.48715560E+02</totfact>
</mgrwt>
</event>
<event>
 5    1  0.1448308E-002  0.1250012E+03  0.7818608E-02  0.1235067E+00
          4   -1    0    0  501    0  0.00000000000E+00  0.00000000000E+00  0.11260190831E+02  0.11331584071E+02  0.12700000000E+01 0.  1.
         -4   -1    0    0    0  501 -0.00000000000E+00 -0.00000000000E+00 -0.34574558874E+03  0.34574792123E+03  0.12700000000E+01 0.  1.
         25    2    1    2    0    0  0.00000000000E+00  0.00000000000E+00 -0.33448539791E+03  0.35707950530E+03  0.12500116675E+03 0.  0.
    9000005    1    3    3    0    0  0.48238904552E+02 -0.36629175248E+02 -0.12329967728E+03  0.13737721357E+03  0.10000000000E+01 0.  0.
    9000005    1    3    3    0    0 -0.48238904552E+02  0.36629175248E+02 -0.21118572063E+03  0.21970229172E+03  0.10000000000E+01 0.  0.
<mgrwt>
<rscale>  0 0.12500117E+03</rscale>
<asrwt>0</asrwt>
<pdfrwt beam="1">  1        4 0.28242646E-02 0.12500117E+03</pdfrwt>
<pdfrwt beam="2">  1       -4 0.86445578E-01 0.12500117E+03</pdfrwt>
<totfact> 0.11509968E+03</totfact>
</mgrwt>
</event>
<event>
 5    1  0.1448308E-002  0.1249995E+03  0.7818608E-02  0.1235070E+00
         -4   -1    0    0    0  501 -0.00000000000E+00  0.00000000000E+00  0.15806914832E+03  0.15807425012E+03  0.12700000000E+01 0.  1.
          4   -1    0    0  501    0  0.00000000000E+00 -0.00000000000E+00 -0.24690253384E+02  0.24722894495E+02  0.12700000000E+01 0.  1.
         25    2    1    2    0    0  0.00000000000E+00  0.00000000000E+00  0.13337889494E+03  0.18279714462E+03  0.12499946586E+03 0.  0.
    9000005    1    3    3    0    0 -0.23729661803E+02 -0.49915087147E+02  0.10934002540E+03  0.12251879010E+03  0.10000000000E+01 0.  0.
    9000005    1    3    3    0    0  0.23729661803E+02  0.49915087147E+02  0.24038869542E+02  0.60278354515E+02  0.10000000000E+01 0.  0.
<mgrwt>
<rscale>  0 0.12499947E+03</rscale>
<asrwt>0</asrwt>
<pdfrwt beam="2">  1        4 0.61772812E-02 0.12499947E+03</pdfrwt>
<pdfrwt beam="1">  1       -4 0.39522005E-01 0.12499947E+03</pdfrwt>
<totfact> 0.17035027E+03</totfact>
</mgrwt>
</event>
<event>
 5    1  0.1448308E-002  0.1250007E+03  0.7818608E-02  0.1235068E+00
          4   -1    0    0  501    0  0.00000000000E+00  0.00000000000E+00  0.21480895095E+03  0.21481270518E+03  0.12700000000E+01 0. -1.
         -4   -1    0    0    0  501 -0.00000000000E+00 -0.00000000000E+00 -0.18158886508E+02  0.18203243096E+02  0.12700000000E+01 0. -1.
         25    2    1    2    0    0  0.00000000000E+00  0.00000000000E+00  0.19665006444E+03  0.23301594828E+03  0.12500073723E+03 0.  0.
    9000005    1    3    3    0    0  0.17413406001E+01 -0.31248386783E+02  0.19915637438E+03  0.20160296476E+03  0.10000000000E+01 0.  0.
    9000005    1    3    3    0    0 -0.17413406001E+01  0.31248386783E+02 -0.25063099449E+01  0.31412983512E+02  0.10000000000E+01 0.  0.
<mgrwt>
<rscale>  0 0.12500074E+03</rscale>
<asrwt>0</asrwt>
<pdfrwt beam="1">  1        4 0.53708251E-01 0.12500074E+03</pdfrwt>
<pdfrwt beam="2">  1       -4 0.45457355E-02 0.12500074E+03</pdfrwt>
<totfact> 0.15079884E+03</totfact>
</mgrwt>
</event>
<event>
 5    1  0.1448308E-002  0.1249982E+03  0.7818608E-02  0.1235072E+00
         -4   -1    0    0    0  501 -0.00000000000E+00  0.00000000000E+00  0.10192038079E+03  0.10192829303E+03  0.12700000000E+01 0. -1.
          4   -1    0    0  501    0  0.00000000000E+00 -0.00000000000E+00 -0.38305431946E+02  0.38326479314E+02  0.12700000000E+01 0. -1.
         25    2    1    2    0    0  0.00000000000E+00  0.00000000000E+00  0.63614948840E+02  0.14025477234E+03  0.12499815778E+03 0.  0.
    9000005    1    3    3    0    0 -0.13543388347E+02 -0.54413305384E+02  0.85617542386E+00  0.56088895577E+02  0.10000000000E+01 0.  0.
    9000005    1    3    3    0    0  0.13543388347E+02  0.54413305384E+02  0.62758773416E+02  0.84165876764E+02  0.10000000000E+01 0.  0.
<mgrwt>
<rscale>  0 0.12499816E+03</rscale>
<asrwt>0</asrwt>
<pdfrwt beam="2">  1        4 0.95799780E-02 0.12499816E+03</pdfrwt>
<pdfrwt beam="1">  1       -4 0.25483715E-01 0.12499816E+03</pdfrwt>
<totfact> 0.19028133E+03</totfact>
</mgrwt>
</event>
<event>
 5    1  0.1448308E-002  0.1249996E+03  0.7818608E-02  0.1235070E+00
         -4   -1    0    0    0  501 -0.00000000000E+00  0.00000000000E+00  0.41794459727E+02  0.41813750895E+02  0.12700000000E+01 0.  1.
          4   -1    0    0  501    0  0.00000000000E+00 -0.00000000000E+00 -0.93417582506E+02  0.93426214850E+02  0.12700000000E+01 0.  1.
         25    2    1    2    0    0  0.00000000000E+00  0.00000000000E+00 -0.51623122778E+02  0.13523996575E+03  0.12499960612E+03 0.  0.
    9000005    1    3    3    0    0 -0.23205985509E+02  0.45650086629E+02  0.12938467027E+02  0.52828515989E+02  0.10000000000E+01 0.  0.
    9000005    1    3    3    0    0  0.23205985509E+02 -0.45650086629E+02 -0.64561589805E+02  0.82411449756E+02  0.10000000000E+01 0.  0.
<mgrwt>
<rscale>  0 0.12499961E+03</rscale>
<asrwt>0</asrwt>
<pdfrwt beam="2">  1        4 0.23357886E-01 0.12499961E+03</pdfrwt>
<pdfrwt beam="1">  1       -4 0.10452106E-01 0.12499961E+03</pdfrwt>
<totfact> 0.19286753E+03</totfact>
</mgrwt>
</event>
<event>
 5    1  0.1448308E-002  0.1250020E+03  0.7818608E-02  0.1235066E+00
         -4   -1    0    0    0  501 -0.00000000000E+00  0.00000000000E+00  0.75228539867E+02  0.75239259104E+02  0.12700000000E+01 0. -1.
          4   -1    0    0  501    0  0.00000000000E+00 -0.00000000000E+00 -0.51904589473E+02  0.51920124310E+02  0.12700000000E+01 0. -1.
         25    2    1    2    0    0  0.00000000000E+00  0.00000000000E+00  0.23323950393E+02  0.12715938341E+03  0.12500200850E+03 0.  0.
    9000005    1    3    3    0    0 -0.54786912047E+02 -0.21222099231E+02  0.33322476047E+02  0.67552724870E+02  0.10000000000E+01 0.  0.
    9000005    1    3    3    0    0  0.54786912047E+02  0.21222099231E+02 -0.99985256538E+01  0.59606658544E+02  0.10000000000E+01 0.  0.
<mgrwt>
<rscale>  0 0.12500201E+03</rscale>
<asrwt>0</asrwt>
<pdfrwt beam="2">  1        4 0.12979429E-01 0.12500201E+03</pdfrwt>
<pdfrwt beam="1">  1       -4 0.18810417E-01 0.12500201E+03</pdfrwt>
<totfact> 0.19717429E+03</totfact>
</mgrwt>
</event>
<event>
 5    1  0.1448308E-002  0.1250030E+03  0.7818608E-02  0.1235065E+00
         -4   -1    0    0    0  501 -0.00000000000E+00  0.00000000000E+00  0.37728958876E+02  0.37750327653E+02  0.12700000000E+01 0.  1.
          4   -1    0    0  501    0  0.00000000000E+00 -0.00000000000E+00 -0.10348495847E+03  0.10349275110E+03  0.12700000000E+01 0.  1.
         25    2    1    2    0    0  0.00000000000E+00  0.00000000000E+00 -0.65755999596E+02  0.14124307875E+03  0.12500302321E+03 0.  0.
    9000005    1    3    3    0    0 -0.36339623731E+01 -0.55235163670E+02 -0.65651639534E+02  0.85879373319E+02  0.10000000000E+01 0.  0.
    9000005    1    3    3    0    0  0.36339623731E+01  0.55235163670E+02 -0.10436006166E+00  0.55363705432E+02  0.10000000000E+01 0.  0.
<mgrwt>
<rscale>  0 0.12500302E+03</rscale>
<asrwt>0</asrwt>
<pdfrwt beam="2">  1        4 0.25874884E-01 0.12500302E+03</pdfrwt>
<pdfrwt beam="1">  1       -4 0.94358851E-02 0.12500302E+03</pdfrwt>
<totfact> 0.18975591E+03</totfact>
</mgrwt>
</event>
<event>
 5    1  0.1448308E-002  0.1249868E+03  0.7818608E-02  0.1235090E+00
          4   -1    0    0  501    0  0.00000000000E+00  0.00000000000E+00  0.69217252084E+03  0.69217368594E+03  0.12700000000E+01 0. -1.
         -4   -1    0    0    0  501 -0.00000000000E+00 -0.00000000000E+00 -0.55696226454E+01  0.57125822893E+01  0.12700000000E+01 0. -1.
         25    2    1    2    0    0  0.00000000000E+00  0.00000000000E+00  0.68660289820E+03  0.69788626823E+03  0.12498681359E+03 0.  0.
    9000005    1    3    3    0    0  0.13283633289E+02  0.59259892355E+02  0.42540928292E+03  0.42972345497E+03  0.10000000000E+01 0.  0.
    9000005    1    3    3    0    0 -0.13283633289E+02 -0.59259892355E+02  0.26119361528E+03  0.26816281326E+03  0.10000000000E+01 0.  0.
<mgrwt>
<rscale>  0 0.12498681E+03</rscale>
<asrwt>0</asrwt>
<pdfrwt beam="1">  1        4 0.17306111E+00 0.12498681E+03</pdfrwt>
<pdfrwt beam="2">  1       -4 0.14104215E-02 0.12498681E+03</pdfrwt>
<totfact> 0.62304476E+02</totfact>
</mgrwt>
</event>
<event>
 5    1  0.1448308E-002  0.1250016E+03  0.7818608E-02  0.1235067E+00
          4   -1    0    0  501    0  0.00000000000E+00  0.00000000000E+00  0.36387995687E+03  0.36388217312E+03  0.12700000000E+01 0.  1.
         -4   -1    0    0    0  501 -0.00000000000E+00 -0.00000000000E+00 -0.10695457516E+02  0.10770594760E+02  0.12700000000E+01 0.  1.
         25    2    1    2    0    0  0.00000000000E+00  0.00000000000E+00  0.35318449935E+03  0.37465276788E+03  0.12500162356E+03 0.  0.
    9000005    1    3    3    0    0  0.36640885790E+01 -0.60807105450E+02  0.13480095430E+03  0.14792980395E+03  0.10000000000E+01 0.  0.
    9000005    1    3    3    0    0 -0.36640885790E+01  0.60807105450E+02  0.21838354506E+03  0.22672296392E+03  0.10000000000E+01 0.  0.
<mgrwt>
<rscale>  0 0.12500162E+03</rscale>
<asrwt>0</asrwt>
<pdfrwt beam="1">  1        4 0.90979653E-01 0.12500162E+03</pdfrwt>
<pdfrwt beam="2">  1       -4 0.26835337E-02 0.12500162E+03</pdfrwt>
<totfact> 0.11110236E+03</totfact>
</mgrwt>
</event>
<event>
 5    1  0.1448308E-002  0.1249994E+03  0.7818608E-02  0.1235070E+00
          4   -1    0    0  501    0  0.00000000000E+00  0.00000000000E+00  0.43234353029E+02  0.43253001998E+02  0.12700000000E+01 0.  1.
         -4   -1    0    0    0  501 -0.00000000000E+00 -0.00000000000E+00 -0.90307142621E+02  0.90316072260E+02  0.12700000000E+01 0.  1.
         25    2    1    2    0    0  0.00000000000E+00  0.00000000000E+00 -0.47072789592E+02  0.13356907426E+03  0.12499940031E+03 0.  0.
    9000005    1    3    3    0    0 -0.45662001209E+02 -0.11906361915E+02  0.20241004126E+02  0.51356382821E+02  0.10000000000E+01 0.  0.
    9000005    1    3    3    0    0  0.45662001209E+02  0.11906361915E+02 -0.67313793718E+02  0.82212691436E+02  0.10000000000E+01 0.  0.
<mgrwt>
<rscale>  0 0.12499940E+03</rscale>
<asrwt>0</asrwt>
<pdfrwt beam="1">  1        4 0.10812036E-01 0.12499940E+03</pdfrwt>
<pdfrwt beam="2">  1       -4 0.22580233E-01 0.12499940E+03</pdfrwt>
<totfact> 0.19374623E+03</totfact>
</mgrwt>
</event>
<event>
 5    1  0.1448308E-002  0.1250023E+03  0.7818608E-02  0.1235066E+00
         -4   -1    0    0    0  501 -0.00000000000E+00  0.00000000000E+00  0.93147604445E+01  0.94009394285E+01  0.12700000000E+01 0. -1.
          4   -1    0    0  501    0  0.00000000000E+00 -0.00000000000E+00 -0.41735823259E+03  0.41736016486E+03  0.12700000000E+01 0. -1.
         25    2    1    2    0    0  0.00000000000E+00  0.00000000000E+00 -0.40804347215E+03  0.42676110429E+03  0.12500225987E+03 0.  0.
    9000005    1    3    3    0    0  0.25032114132E+02  0.50182815015E+02 -0.10987443177E+03  0.12336252437E+03  0.10000000000E+01 0.  0.
    9000005    1    3    3    0    0 -0.25032114132E+02 -0.50182815015E+02 -0.29816904038E+03  0.30339857992E+03  0.10000000000E+01 0.  0.
<mgrwt>
<rscale>  0 0.12500226E+03</rscale>
<asrwt>0</asrwt>
<pdfrwt beam="2">  1        4 0.10435051E+00 0.12500226E+03</pdfrwt>
<pdfrwt beam="1">  1       -4 0.23397054E-02 0.12500226E+03</pdfrwt>
<totfact> 0.10033820E+03</totfact>
</mgrwt>
</event>
<event>
 5    1  0.1448308E-002  0.1249992E+03  0.7818608E-02  0.1235070E+00
         -4   -1    0    0    0  501 -0.00000000000E+00  0.00000000000E+00  0.13669060688E+02  0.13727932113E+02  0.12700000000E+01 0.  1.
          4   -1    0    0  501    0  0.00000000000E+00 -0.00000000000E+00 -0.28509521422E+03  0.28509804291E+03  0.12700000000E+01 0.  1.
         25    2    1    2    0    0  0.00000000000E+00  0.00000000000E+00 -0.27142615354E+03  0.29882597503E+03  0.12499922611E+03 0.  0.
    9000005    1    3    3    0    0  0.31680299666E+02 -0.26522202128E+02 -0.24779562804E+03  0.25121851419E+03  0.10000000000E+01 0.  0.
    9000005    1    3    3    0    0 -0.31680299666E+02  0.26522202128E+02 -0.23630525493E+02  0.47607460841E+02  0.10000000000E+01 0.  0.
<mgrwt>
<rscale>  0 0.12499923E+03</rscale>
<asrwt>0</asrwt>
<pdfrwt beam="2">  1        4 0.71281497E-01 0.12499923E+03</pdfrwt>
<pdfrwt beam="1">  1       -4 0.34249786E-02 0.12499923E+03</pdfrwt>
<totfact> 0.13004257E+03</totfact>
</mgrwt>
</event>
<event>
 5    1  0.1448308E-002  0.1250049E+03  0.7818608E-02  0.1235062E+00
         -4   -1    0    0    0  501 -0.00000000000E+00  0.00000000000E+00  0.12080497322E+02  0.12147070245E+02  0.12700000000E+01 0.  1.
          4   -1    0    0  501    0  0.00000000000E+00 -0.00000000000E+00 -0.32242047485E+03  0.32242297607E+03  0.12700000000E+01 0.  1.
         25    2    1    2    0    0  0.00000000000E+00  0.00000000000E+00 -0.31033997752E+03  0.33457004632E+03  0.12500485688E+03 0.  0.
    9000005    1    3    3    0    0 -0.31094853020E+02 -0.18547861883E+02 -0.18837687583E+02  0.40826113435E+02  0.10000000000E+01 0.  0.
    9000005    1    3    3    0    0  0.31094853020E+02  0.18547861883E+02 -0.29150228994E+03  0.29374393288E+03  0.10000000000E+01 0.  0.
<mgrwt>
<rscale>  0 0.12500486E+03</rscale>
<asrwt>0</asrwt>
<pdfrwt beam="2">  1        4 0.80613725E-01 0.12500486E+03</pdfrwt>
<pdfrwt beam="1">  1       -4 0.30287597E-02 0.12500486E+03</pdfrwt>
<totfact> 0.12053305E+03</totfact>
</mgrwt>
</event>
<event>
 5    1  0.1448308E-002  0.1249929E+03  0.7818608E-02  0.1235080E+00
          4   -1    0    0  501    0  0.00000000000E+00  0.00000000000E+00  0.10069888863E+03  0.10070689684E+03  0.12700000000E+01 0.  1.
         -4   -1    0    0    0  501 -0.00000000000E+00 -0.00000000000E+00 -0.38767027091E+02  0.38787823985E+02  0.12700000000E+01 0.  1.
         25    2    1    2    0    0  0.00000000000E+00  0.00000000000E+00  0.61931861542E+02  0.13949472083E+03  0.12499288646E+03 0.  0.
    9000005    1    3    3    0    0  0.12122676811E+02  0.18887610578E+02  0.96051161581E+02  0.98643432460E+02  0.10000000000E+01 0.  0.
    9000005    1    3    3    0    0 -0.12122676811E+02 -0.18887610578E+02 -0.34119300038E+02  0.40851288370E+02  0.10000000000E+01 0.  0.
<mgrwt>
<rscale>  0 0.12499289E+03</rscale>
<asrwt>0</asrwt>
<pdfrwt beam="1">  1        4 0.25178323E-01 0.12499289E+03</pdfrwt>
<pdfrwt beam="2">  1       -4 0.96953575E-02 0.12499289E+03</pdfrwt>
<totfact> 0.19069384E+03</totfact>
</mgrwt>
</event>
<event>
 5    1  0.1448308E-002  0.1249971E+03  0.7818608E-02  0.1235074E+00
         -4   -1    0    0    0  501 -0.00000000000E+00  0.00000000000E+00  0.27892217548E+03  0.27892506677E+03  0.12700000000E+01 0.  1.
          4   -1    0    0  501    0  0.00000000000E+00 -0.00000000000E+00 -0.13972388368E+02  0.14029987053E+02  0.12700000000E+01 0.  1.
         25    2    1    2    0    0  0.00000000000E+00  0.00000000000E+00  0.26494978711E+03  0.29295505382E+03  0.12499709545E+03 0.  0.
    9000005    1    3    3    0    0  0.29848524350E+02 -0.65814932477E+01  0.26021847765E+03  0.26200936352E+03  0.10000000000E+01 0.  0.
    9000005    1    3    3    0    0 -0.29848524350E+02  0.65814932477E+01  0.47313094544E+01  0.30945690304E+02  0.10000000000E+01 0.  0.
<mgrwt>
<rscale>  0 0.12499710E+03</rscale>
<asrwt>0</asrwt>
<pdfrwt beam="2">  1        4 0.35006585E-02 0.12499710E+03</pdfrwt>
<pdfrwt beam="1">  1       -4 0.69738102E-01 0.12499710E+03</pdfrwt>
<totfact> 0.13171703E+03</totfact>
</mgrwt>
</event>
<event>
 5    1  0.1448308E-002  0.1249852E+03  0.7818608E-02  0.1235092E+00
         -4   -1    0    0    0  501 -0.00000000000E+00  0.00000000000E+00  0.82758707270E+02  0.82768451290E+02  0.12700000000E+01 0. -1.
          4   -1    0    0  501    0  0.00000000000E+00 -0.00000000000E+00 -0.47168191379E+02  0.47185285608E+02  0.12700000000E+01 0. -1.
         25    2    1    2    0    0  0.00000000000E+00  0.00000000000E+00  0.35590515891E+02  0.12995373690E+03  0.12498515477E+03 0.  0.
    9000005    1    3    3    0    0  0.24143908596E+01  0.62434693336E+02  0.17136007581E+02  0.64796319116E+02  0.10000000000E+01 0.  0.
    9000005    1    3    3    0    0 -0.24143908596E+01 -0.62434693336E+02  0.18454508310E+02  0.65157417783E+02  0.10000000000E+01 0.  0.
<mgrwt>
<rscale>  0 0.12498515E+03</rscale>
<asrwt>0</asrwt>
<pdfrwt beam="2">  1        4 0.11795403E-01 0.12498515E+03</pdfrwt>
<pdfrwt beam="1">  1       -4 0.20693031E-01 0.12498515E+03</pdfrwt>
<totfact> 0.19573651E+03</totfact>
</mgrwt>
</event>
<event>
 5    1  0.1448308E-002  0.1250039E+03  0.7818608E-02  0.1235063E+00
         -4   -1    0    0    0  501 -0.00000000000E+00  0.00000000000E+00  0.36351552412E+02  0.36373730394E+02  0.12700000000E+01 0. -1.
          4   -1    0    0  501    0  0.00000000000E+00 -0.00000000000E+00 -0.10740558559E+03  0.10741309378E+03  0.12700000000E+01 0. -1.
         25    2    1    2    0    0  0.00000000000E+00  0.00000000000E+00 -0.71054033176E+02  0.14378682417E+03  0.12500390064E+03 0.  0.
    9000005    1    3    3    0    0 -0.28638288432E+02 -0.43462025280E+02  0.42592095213E+01  0.52232557581E+02  0.10000000000E+01 0.  0.
    9000005    1    3    3    0    0  0.28638288432E+02  0.43462025280E+02 -0.75313242697E+02  0.91554266592E+02  0.10000000000E+01 0.  0.
<mgrwt>
<rscale>  0 0.12500390E+03</rscale>
<asrwt>0</asrwt>
<pdfrwt beam="2">  1        4 0.26855106E-01 0.12500390E+03</pdfrwt>
<pdfrwt beam="1">  1       -4 0.90915991E-02 0.12500390E+03</pdfrwt>
<totfact> 0.18846548E+03</totfact>
</mgrwt>
</event>
<event>
 5    1  0.1448308E-002  0.1250020E+03  0.7818608E-02  0.1235066E+00
         -4   -1    0    0    0  501 -0.00000000000E+00  0.00000000000E+00  0.29003914348E+02  0.29031705901E+02  0.12700000000E+01 0.  1.
          4   -1    0    0  501    0  0.00000000000E+00 -0.00000000000E+00 -0.13458913814E+03  0.13459512994E+03  0.12700000000E+01 0.  1.
         25    2    1    2    0    0  0.00000000000E+00  0.00000000000E+00 -0.10558522379E+03  0.16362683584E+03  0.12500200769E+03 0.  0.
    9000005    1    3    3    0    0  0.13768095109E+02  0.53374290537E+02 -0.91335755194E+02  0.10668456079E+03  0.10000000000E+01 0.  0.
    9000005    1    3    3    0    0 -0.13768095109E+02 -0.53374290537E+02 -0.14249468593E+02  0.56942275055E+02  0.10000000000E+01 0.  0.
<mgrwt>
<rscale>  0 0.12500201E+03</rscale>
<asrwt>0</asrwt>
<pdfrwt beam="2">  1        4 0.33651506E-01 0.12500201E+03</pdfrwt>
<pdfrwt beam="1">  1       -4 0.72552019E-02 0.12500201E+03</pdfrwt>
<totfact> 0.17887560E+03</totfact>
</mgrwt>
</event>
<event>
 5    1  0.1448308E-002  0.1249768E+03  0.7818608E-02  0.1235106E+00
          4   -1    0    0  501    0  0.00000000000E+00  0.00000000000E+00  0.31639951961E+03  0.31640206844E+03  0.12700000000E+01 0. -1.
         -4   -1    0    0    0  501 -0.00000000000E+00 -0.00000000000E+00 -0.12306078271E+02  0.12371437362E+02  0.12700000000E+01 0. -1.
         25    2    1    2    0    0  0.00000000000E+00  0.00000000000E+00  0.30409344134E+03  0.32877350580E+03  0.12497678604E+03 0.  0.
    9000005    1    3    3    0    0  0.39751417717E+02 -0.22605407884E+02  0.26404743560E+03  0.26797990209E+03  0.10000000000E+01 0.  0.
    9000005    1    3    3    0    0 -0.39751417717E+02  0.22605407884E+02  0.40046005738E+02  0.60793603706E+02  0.10000000000E+01 0.  0.
<mgrwt>
<rscale>  0 0.12497679E+03</rscale>
<asrwt>0</asrwt>
<pdfrwt beam="1">  1        4 0.79108366E-01 0.12497679E+03</pdfrwt>
<pdfrwt beam="2">  1       -4 0.30850081E-02 0.12497679E+03</pdfrwt>
<totfact> 0.12207771E+03</totfact>
</mgrwt>
</event>
<event>
 5    1  0.1448308E-002  0.1249838E+03  0.7818608E-02  0.1235095E+00
         -4   -1    0    0    0  501 -0.00000000000E+00  0.00000000000E+00  0.83341055393E+02  0.83350731334E+02  0.12700000000E+01 0. -1.
          4   -1    0    0  501    0  0.00000000000E+00 -0.00000000000E+00 -0.46837489794E+02  0.46854704675E+02  0.12700000000E+01 0. -1.
         25    2    1    2    0    0  0.00000000000E+00  0.00000000000E+00  0.36503565599E+02  0.13020543601E+03  0.12498378001E+03 0.  0.
    9000005    1    3    3    0    0 -0.10573832137E+02  0.45864744935E+02  0.61064393829E+02  0.77105388577E+02  0.10000000000E+01 0.  0.
    9000005    1    3    3    0    0  0.10573832137E+02 -0.45864744935E+02 -0.24560828230E+02  0.53100047432E+02  0.10000000000E+01 0.  0.
<mgrwt>
<rscale>  0 0.12498378E+03</rscale>
<asrwt>0</asrwt>
<pdfrwt beam="2">  1        4 0.11712734E-01 0.12498378E+03</pdfrwt>
<pdfrwt beam="1">  1       -4 0.20838625E-01 0.12498378E+03</pdfrwt>
<totfact> 0.19560749E+03</totfact>
</mgrwt>
</event>
<event>
 5    1  0.1448308E-002  0.1250007E+03  0.7818608E-02  0.1235068E+00
          4   -1    0    0  501    0  0.00000000000E+00  0.00000000000E+00  0.86851172918E+02  0.86860457846E+02  0.12700000000E+01 0. -1.
         -4   -1    0    0    0  501 -0.00000000000E+00 -0.00000000000E+00 -0.44956218605E+02  0.44974153592E+02  0.12700000000E+01 0. -1.
         25    2    1    2    0    0  0.00000000000E+00  0.00000000000E+00  0.41894954313E+02  0.13183461144E+03  0.12500071030E+03 0.  0.
    9000005    1    3    3    0    0 -0.26660949879E+02  0.56014949448E+02  0.12997917812E+02  0.63391061496E+02  0.10000000000E+01 0.  0.
    9000005    1    3    3    0    0  0.26660949879E+02 -0.56014949448E+02  0.28897036501E+02  0.68443549942E+02  0.10000000000E+01 0.  0.
<mgrwt>
<rscale>  0 0.12500071E+03</rscale>
<asrwt>0</asrwt>
<pdfrwt beam="1">  1        4 0.21716196E-01 0.12500071E+03</pdfrwt>
<pdfrwt beam="2">  1       -4 0.11242457E-01 0.12500071E+03</pdfrwt>
<totfact> 0.19465931E+03</totfact>
</mgrwt>
</event>
<event>
 5    1  0.1448308E-002  0.1249970E+03  0.7818608E-02  0.1235074E+00
         -4   -1    0    0    0  501 -0.00000000000E+00  0.00000000000E+00  0.73777643063E+02  0.73788573072E+02  0.12700000000E+01 0.  1.
          4   -1    0    0  501    0  0.00000000000E+00 -0.00000000000E+00 -0.52921273088E+02  0.52936509568E+02  0.12700000000E+01 0.  1.
         25    2    1    2    0    0  0.00000000000E+00  0.00000000000E+00  0.20856369976E+02  0.12672508264E+03  0.12499703357E+03 0.  0.
    9000005    1    3    3    0    0  0.28370913009E+02  0.35540524222E+02 -0.33024903538E+02  0.56211047140E+02  0.10000000000E+01 0.  0.
    9000005    1    3    3    0    0 -0.28370913009E+02 -0.35540524222E+02  0.53881273513E+02  0.70514035499E+02  0.10000000000E+01 0.  0.
<mgrwt>
<rscale>  0 0.12499703E+03</rscale>
<asrwt>0</asrwt>
<pdfrwt beam="2">  1        4 0.13233589E-01 0.12499703E+03</pdfrwt>
<pdfrwt beam="1">  1       -4 0.18447681E-01 0.12499703E+03</pdfrwt>
<totfact> 0.19743158E+03</totfact>
</mgrwt>
</event>
<event>
 5    1  0.1448308E-002  0.1250032E+03  0.7818608E-02  0.1235064E+00
         -4   -1    0    0    0  501 -0.00000000000E+00  0.00000000000E+00  0.92049179694E+02  0.92057940355E+02  0.12700000000E+01 0. -1.
          4   -1    0    0  501    0  0.00000000000E+00 -0.00000000000E+00 -0.42418408761E+02  0.42437416295E+02  0.12700000000E+01 0. -1.
         25    2    1    2    0    0  0.00000000000E+00  0.00000000000E+00  0.49630770934E+02  0.13449535665E+03  0.12500315011E+03 0.  0.
    9000005    1    3    3    0    0  0.53100096009E+02 -0.12102281397E+02  0.57791744697E+02  0.79416441410E+02  0.10000000000E+01 0.  0.
    9000005    1    3    3    0    0 -0.53100096009E+02  0.12102281397E+02 -0.81609737633E+01  0.55078915239E+02  0.10000000000E+01 0.  0.
<mgrwt>
<rscale>  0 0.12500315E+03</rscale>
<asrwt>0</asrwt>
<pdfrwt beam="2">  1        4 0.10608073E-01 0.12500315E+03</pdfrwt>
<pdfrwt beam="1">  1       -4 0.23015766E-01 0.12500315E+03</pdfrwt>
<totfact> 0.19324182E+03</totfact>
</mgrwt>
</event>
<event>
 5    1  0.1448308E-002  0.1249960E+03  0.7818608E-02  0.1235076E+00
         -4   -1    0    0    0  501 -0.00000000000E+00  0.00000000000E+00  0.57833265545E+02  0.57847208261E+02  0.12700000000E+01 0.  1.
          4   -1    0    0  501    0  0.00000000000E+00 -0.00000000000E+00 -0.67510895018E+02  0.67522839441E+02  0.12700000000E+01 0.  1.
         25    2    1    2    0    0  0.00000000000E+00  0.00000000000E+00 -0.96776294733E+01  0.12537004770E+03  0.12499596933E+03 0.  0.
    9000005    1    3    3    0    0 -0.11443579434E+02 -0.60299597710E+02  0.69437285851E+01  0.61775499681E+02  0.10000000000E+01 0.  0.
    9000005    1    3    3    0    0  0.11443579434E+02  0.60299597710E+02 -0.16621358058E+02  0.63594548021E+02  0.10000000000E+01 0.  0.
<mgrwt>
<rscale>  0 0.12499597E+03</rscale>
<asrwt>0</asrwt>
<pdfrwt beam="2">  1        4 0.16880960E-01 0.12499597E+03</pdfrwt>
<pdfrwt beam="1">  1       -4 0.14461552E-01 0.12499597E+03</pdfrwt>
<totfact> 0.19816869E+03</totfact>
</mgrwt>
</event>
<event>
 5    1  0.1448308E-002  0.1250001E+03  0.7818608E-02  0.1235069E+00
          4   -1    0    0  501    0  0.00000000000E+00  0.00000000000E+00  0.81424135613E+01  0.82408615207E+01  0.12700000000E+01 0. -1.
         -4   -1    0    0    0  501 -0.00000000000E+00 -0.00000000000E+00 -0.47675973106E+03  0.47676142258E+03  0.12700000000E+01 0. -1.
         25    2    1    2    0    0  0.00000000000E+00  0.00000000000E+00 -0.46861731750E+03  0.48500228410E+03  0.12500010129E+03 0.  0.
    9000005    1    3    3    0    0 -0.44814183135E+02 -0.36173188570E+02 -0.32842968070E+03  0.33344244743E+03  0.10000000000E+01 0.  0.
    9000005    1    3    3    0    0  0.44814183135E+02  0.36173188570E+02 -0.14018763680E+03  0.15155983667E+03  0.10000000000E+01 0.  0.
<mgrwt>
<rscale>  0 0.12500010E+03</rscale>
<asrwt>0</asrwt>
<pdfrwt beam="1">  1        4 0.20481224E-02 0.12500010E+03</pdfrwt>
<pdfrwt beam="2">  1       -4 0.11920236E+00 0.12500010E+03</pdfrwt>
<totfact> 0.90040712E+02</totfact>
</mgrwt>
</event>
<event>
 5    1  0.1448308E-002  0.1249997E+03  0.7818608E-02  0.1235070E+00
          4   -1    0    0  501    0  0.00000000000E+00  0.00000000000E+00  0.25593315022E+02  0.25624805829E+02  0.12700000000E+01 0. -1.
         -4   -1    0    0    0  501 -0.00000000000E+00 -0.00000000000E+00 -0.15249898372E+03  0.15250427186E+03  0.12700000000E+01 0. -1.
         25    2    1    2    0    0  0.00000000000E+00  0.00000000000E+00 -0.12690566870E+03  0.17812907769E+03  0.12499967828E+03 0.  0.
    9000005    1    3    3    0    0 -0.35646711498E+02  0.33827648801E+02 -0.84414124333E+01  0.49872390236E+02  0.10000000000E+01 0.  0.
    9000005    1    3    3    0    0  0.35646711498E+02 -0.33827648801E+02 -0.11846425627E+03  0.12825668745E+03  0.10000000000E+01 0.  0.
<mgrwt>
<rscale>  0 0.12499968E+03</rscale>
<asrwt>0</asrwt>
<pdfrwt beam="1">  1        4 0.64029265E-02 0.12499968E+03</pdfrwt>
<pdfrwt beam="2">  1       -4 0.38129341E-01 0.12499968E+03</pdfrwt>
<totfact> 0.17236632E+03</totfact>
</mgrwt>
</event>
<event>
 5    1  0.1448308E-002  0.1249996E+03  0.7818608E-02  0.1235070E+00
          4   -1    0    0  501    0  0.00000000000E+00  0.00000000000E+00  0.18282430129E+03  0.18282871230E+03  0.12700000000E+01 0.  1.
         -4   -1    0    0    0  501 -0.00000000000E+00 -0.00000000000E+00 -0.21342459661E+02  0.21380212450E+02  0.12700000000E+01 0.  1.
         25    2    1    2    0    0  0.00000000000E+00  0.00000000000E+00  0.16148184163E+03  0.20420892475E+03  0.12499959909E+03 0.  0.
    9000005    1    3    3    0    0 -0.54748741150E+02  0.26167628180E+02  0.10513995229E+03  0.12139843075E+03  0.10000000000E+01 0.  0.
    9000005    1    3    3    0    0  0.54748741150E+02 -0.26167628180E+02  0.56341889339E+02  0.82810493999E+02  0.10000000000E+01 0.  0.
<mgrwt>
<rscale>  0 0.12499960E+03</rscale>
<asrwt>0</asrwt>
<pdfrwt beam="1">  1        4 0.45711345E-01 0.12499960E+03</pdfrwt>
<pdfrwt beam="2">  1       -4 0.53408855E-02 0.12499960E+03</pdfrwt>
<totfact> 0.16155035E+03</totfact>
</mgrwt>
</event>
<event>
 5    1  0.1448308E-002  0.1249743E+03  0.7818608E-02  0.1235109E+00
          4   -1    0    0  501    0  0.00000000000E+00  0.00000000000E+00  0.19238878957E+02  0.19280751114E+02  0.12700000000E+01 0.  1.
         -4   -1    0    0    0  501 -0.00000000000E+00 -0.00000000000E+00 -0.20269156872E+03  0.20269554739E+03  0.12700000000E+01 0.  1.
         25    2    1    2    0    0  0.00000000000E+00  0.00000000000E+00 -0.18345268976E+03  0.22197629850E+03  0.12497434822E+03 0.  0.
    9000005    1    3    3    0    0  0.13189281415E+01  0.29887740541E+02 -0.18915128304E+03  0.19150515524E+03  0.10000000000E+01 0.  0.
    9000005    1    3    3    0    0 -0.13189281415E+01 -0.29887740541E+02  0.56985932820E+01  0.30471143259E+02  0.10000000000E+01 0.  0.
<mgrwt>
<rscale>  0 0.12497435E+03</rscale>
<asrwt>0</asrwt>
<pdfrwt beam="1">  1        4 0.48154517E-02 0.12497435E+03</pdfrwt>
<pdfrwt beam="2">  1       -4 0.50678617E-01 0.12497435E+03</pdfrwt>
<totfact> 0.15487482E+03</totfact>
</mgrwt>
</event>
<event>
 5    1  0.1448308E-002  0.1249938E+03  0.7818608E-02  0.1235079E+00
         -4   -1    0    0    0  501 -0.00000000000E+00  0.00000000000E+00  0.10657874820E+02  0.10733275161E+02  0.12700000000E+01 0. -1.
          4   -1    0    0  501    0  0.00000000000E+00 -0.00000000000E+00 -0.36510828721E+03  0.36511049600E+03  0.12700000000E+01 0. -1.
         25    2    1    2    0    0  0.00000000000E+00  0.00000000000E+00 -0.35445041239E+03  0.37584377116E+03  0.12499378175E+03 0.  0.
    9000005    1    3    3    0    0  0.61845529148E+02 -0.48914806629E+01 -0.19973990105E+03  0.20915502416E+03  0.10000000000E+01 0.  0.
    9000005    1    3    3    0    0 -0.61845529148E+02  0.48914806629E+01 -0.15471051133E+03  0.16668874700E+03  0.10000000000E+01 0.  0.
<mgrwt>
<rscale>  0 0.12499378E+03</rscale>
<asrwt>0</asrwt>
<pdfrwt beam="2">  1        4 0.91286731E-01 0.12499378E+03</pdfrwt>
<pdfrwt beam="1">  1       -4 0.26741711E-02 0.12499378E+03</pdfrwt>
<totfact> 0.11085883E+03</totfact>
</mgrwt>
</event>
<event>
 5    1  0.1448308E-002  0.1249871E+03  0.7818608E-02  0.1235089E+00
          4   -1    0    0  501    0  0.00000000000E+00  0.00000000000E+00  0.11992933862E+02  0.12059990158E+02  0.12700000000E+01 0. -1.
         -4   -1    0    0    0  501 -0.00000000000E+00 -0.00000000000E+00 -0.32466923661E+03  0.32467172051E+03  0.12700000000E+01 0. -1.
         25    2    1    2    0    0  0.00000000000E+00  0.00000000000E+00 -0.31267630274E+03  0.33673171067E+03  0.12498709802E+03 0.  0.
    9000005    1    3    3    0    0  0.60387680681E+02 -0.32677794084E+01 -0.19868775240E+03  0.20769008959E+03  0.10000000000E+01 0.  0.
    9000005    1    3    3    0    0 -0.60387680681E+02  0.32677794084E+01 -0.11398855034E+03  0.12904162107E+03  0.10000000000E+01 0.  0.
<mgrwt>
<rscale>  0 0.12498710E+03</rscale>
<asrwt>0</asrwt>
<pdfrwt beam="1">  1        4 0.30069271E-02 0.12498710E+03</pdfrwt>
<pdfrwt beam="2">  1       -4 0.81175973E-01 0.12498710E+03</pdfrwt>
<totfact> 0.12004177E+03</totfact>
</mgrwt>
</event>
<event>
 5    1  0.1448308E-002  0.1250011E+03  0.7818608E-02  0.1235068E+00
          4   -1    0    0  501    0  0.00000000000E+00  0.00000000000E+00  0.15334801880E+04  0.15334807139E+04  0.12700000000E+01 0.  1.
         -4   -1    0    0    0  501 -0.00000000000E+00 -0.00000000000E+00 -0.23885030373E+01  0.27051518921E+01  0.12700000000E+01 0.  1.
         25    2    1    2    0    0  0.00000000000E+00  0.00000000000E+00  0.15310916850E+04  0.15361858658E+04  0.12500106593E+03 0.  0.
    9000005    1    3    3    0    0  0.39987382440E+02 -0.46696693999E+02  0.90335395433E+03  0.90544405614E+03  0.10000000000E+01 0.  0.
    9000005    1    3    3    0    0 -0.39987382440E+02  0.46696693999E+02  0.62773773067E+03  0.63074180969E+03  0.10000000000E+01 0.  0.
<mgrwt>
<rscale>  0 0.12500107E+03</rscale>
<asrwt>0</asrwt>
<pdfrwt beam="1">  1        4 0.38340965E+00 0.12500107E+03</pdfrwt>
<pdfrwt beam="2">  1       -4 0.63677268E-03 0.12500107E+03</pdfrwt>
<totfact> 0.11342098E+02</totfact>
</mgrwt>
</event>
<event>
 5    1  0.1448308E-002  0.1250004E+03  0.7818608E-02  0.1235069E+00
         -4   -1    0    0    0  501 -0.00000000000E+00  0.00000000000E+00  0.28251634878E+02  0.28280165722E+02  0.12700000000E+01 0.  1.
          4   -1    0    0  501    0  0.00000000000E+00 -0.00000000000E+00 -0.13816593259E+03  0.13817176929E+03  0.12700000000E+01 0.  1.
         25    2    1    2    0    0  0.00000000000E+00  0.00000000000E+00 -0.10991429772E+03  0.16645193502E+03  0.12500037531E+03 0.  0.
    9000005    1    3    3    0    0  0.14363472258E+01 -0.25086612649E+02 -0.13114897703E+03  0.13353821701E+03  0.10000000000E+01 0.  0.
    9000005    1    3    3    0    0 -0.14363472258E+01  0.25086612649E+02  0.21234679309E+02  0.32913718005E+02  0.10000000000E+01 0.  0.
<mgrwt>
<rscale>  0 0.12500038E+03</rscale>
<asrwt>0</asrwt>
<pdfrwt beam="2">  1        4 0.34545777E-01 0.12500038E+03</pdfrwt>
<pdfrwt beam="1">  1       -4 0.70672050E-02 0.12500038E+03</pdfrwt>
<totfact> 0.17758123E+03</totfact>
</mgrwt>
</event>
<event>
 5    1  0.1448308E-002  0.1250010E+03  0.7818608E-02  0.1235068E+00
          4   -1    0    0  501    0  0.00000000000E+00  0.00000000000E+00  0.11615517390E+02  0.11684739802E+02  0.12700000000E+01 0. -1.
         -4   -1    0    0    0  501 -0.00000000000E+00 -0.00000000000E+00 -0.33523191305E+03  0.33523431869E+03  0.12700000000E+01 0. -1.
         25    2    1    2    0    0  0.00000000000E+00  0.00000000000E+00 -0.32361639566E+03  0.34691905849E+03  0.12500104642E+03 0.  0.
    9000005    1    3    3    0    0 -0.23961417976E+02  0.57389418569E+02 -0.17883082989E+03  0.18933874573E+03  0.10000000000E+01 0.  0.
    9000005    1    3    3    0    0  0.23961417976E+02 -0.57389418569E+02 -0.14478556577E+03  0.15758031276E+03  0.10000000000E+01 0.  0.
<mgrwt>
<rscale>  0 0.12500105E+03</rscale>
<asrwt>0</asrwt>
<pdfrwt beam="1">  1        4 0.29128340E-02 0.12500105E+03</pdfrwt>
<pdfrwt beam="2">  1       -4 0.83816900E-01 0.12500105E+03</pdfrwt>
<totfact> 0.11750875E+03</totfact>
</mgrwt>
</event>
<event>
 5    1  0.1448308E-002  0.1250016E+03  0.7818608E-02  0.1235067E+00
         -4   -1    0    0    0  501 -0.00000000000E+00  0.00000000000E+00  0.29564932267E+03  0.29565205038E+03  0.12700000000E+01 0.  1.
          4   -1    0    0  501    0  0.00000000000E+00 -0.00000000000E+00 -0.13179478522E+02  0.13240526958E+02  0.12700000000E+01 0.  1.
         25    2    1    2    0    0  0.00000000000E+00  0.00000000000E+00  0.28246984414E+03  0.30889257734E+03  0.12500164592E+03 0.  0.
    9000005    1    3    3    0    0 -0.11745876526E+02 -0.12511055527E+02  0.28972488911E+03  0.29023439406E+03  0.10000000000E+01 0.  0.
    9000005    1    3    3    0    0  0.11745876526E+02  0.12511055527E+02 -0.72550449651E+01  0.18658183277E+02  0.10000000000E+01 0.  0.
<mgrwt>
<rscale>  0 0.12500165E+03</rscale>
<asrwt>0</asrwt>
<pdfrwt beam="2">  1        4 0.33028417E-02 0.12500165E+03</pdfrwt>
<pdfrwt beam="1">  1       -4 0.73920302E-01 0.12500165E+03</pdfrwt>
<totfact> 0.12724955E+03</totfact>
</mgrwt>
</event>
<event>
 5    1  0.1448308E-002  0.1249912E+03  0.7818608E-02  0.1235083E+00
         -4   -1    0    0    0  501 -0.00000000000E+00  0.00000000000E+00  0.19331610803E+02  0.19373282536E+02  0.12700000000E+01 0. -1.
          4   -1    0    0  501    0  0.00000000000E+00 -0.00000000000E+00 -0.20177565219E+03  0.20177964892E+03  0.12700000000E+01 0. -1.
         25    2    1    2    0    0  0.00000000000E+00  0.00000000000E+00 -0.18244404139E+03  0.22115293146E+03  0.12499116310E+03 0.  0.
    9000005    1    3    3    0    0 -0.17434442969E+02 -0.50724287830E+02 -0.14794570490E+03  0.15737167717E+03  0.10000000000E+01 0.  0.
    9000005    1    3    3    0    0  0.17434442969E+02  0.50724287830E+02 -0.34498336492E+02  0.63781254285E+02  0.10000000000E+01 0.  0.
<mgrwt>
<rscale>  0 0.12499116E+03</rscale>
<asrwt>0</asrwt>
<pdfrwt beam="2">  1        4 0.50449615E-01 0.12499116E+03</pdfrwt>
<pdfrwt beam="1">  1       -4 0.48386119E-02 0.12499116E+03</pdfrwt>
<totfact> 0.15511838E+03</totfact>
</mgrwt>
</event>
<event>
 5    1  0.1448308E-002  0.1249986E+03  0.7818608E-02  0.1235071E+00
          4   -1    0    0  501    0  0.00000000000E+00  0.00000000000E+00  0.39838784534E+01  0.41814097541E+01  0.12700000000E+01 0.  1.
         -4   -1    0    0    0  501 -0.00000000000E+00 -0.00000000000E+00 -0.95657452167E+03  0.95657536473E+03  0.12700000000E+01 0.  1.
         25    2    1    2    0    0  0.00000000000E+00  0.00000000000E+00 -0.95259064322E+03  0.96075677449E+03  0.12499858468E+03 0.  0.
    9000005    1    3    3    0    0 -0.23723325927E+01  0.37690434482E+02 -0.93608476425E+02  0.10094426022E+03  0.10000000000E+01 0.  0.
    9000005    1    3    3    0    0  0.23723325927E+01 -0.37690434482E+02 -0.85898216679E+03  0.85981251426E+03  0.10000000000E+01 0.  0.
<mgrwt>
<rscale>  0 0.12499858E+03</rscale>
<asrwt>0</asrwt>
<pdfrwt beam="1">  1        4 0.10207697E-02 0.12499858E+03</pdfrwt>
<pdfrwt beam="2">  1       -4 0.23916766E+00 0.12499858E+03</pdfrwt>
<totfact> 0.39813732E+02</totfact>
</mgrwt>
</event>
<event>
 5    1  0.1448308E-002  0.1250390E+03  0.7818608E-02  0.1235008E+00
         -4   -1    0    0    0  501 -0.00000000000E+00  0.00000000000E+00  0.14256618020E+03  0.14257183676E+03  0.12700000000E+01 0.  1.
          4   -1    0    0  501    0  0.00000000000E+00 -0.00000000000E+00 -0.27395733087E+02  0.27425154355E+02  0.12700000000E+01 0.  1.
         25    2    1    2    0    0  0.00000000000E+00  0.00000000000E+00  0.11517044711E+03  0.16999699112E+03  0.12503897432E+03 0.  0.
    9000005    1    3    3    0    0  0.43201310213E+02  0.34542028841E+02  0.17990238599E+02  0.58173478884E+02  0.10000000000E+01 0.  0.
    9000005    1    3    3    0    0 -0.43201310213E+02 -0.34542028841E+02  0.97180208516E+02  0.11182351223E+03  0.10000000000E+01 0.  0.
<mgrwt>
<rscale>  0 0.12503897E+03</rscale>
<asrwt>0</asrwt>
<pdfrwt beam="2">  1        4 0.68533182E-02 0.12503897E+03</pdfrwt>
<pdfrwt beam="1">  1       -4 0.35645929E-01 0.12503897E+03</pdfrwt>
<totfact> 0.17581272E+03</totfact>
</mgrwt>
</event>
<event>
 5    1  0.1448308E-002  0.1250005E+03  0.7818608E-02  0.1235068E+00
         -4   -1    0    0    0  501 -0.00000000000E+00  0.00000000000E+00  0.83075370014E+02  0.83085076897E+02  0.12700000000E+01 0.  1.
          4   -1    0    0  501    0  0.00000000000E+00 -0.00000000000E+00 -0.46999921512E+02  0.47017076920E+02  0.12700000000E+01 0.  1.
         25    2    1    2    0    0  0.00000000000E+00  0.00000000000E+00  0.36075448503E+02  0.13010215382E+03  0.12500052977E+03 0.  0.
    9000005    1    3    3    0    0 -0.28932608058E+02  0.10287264656E+02  0.74686628341E+02  0.80758999970E+02  0.10000000000E+01 0.  0.
    9000005    1    3    3    0    0  0.28932608058E+02 -0.10287264656E+02 -0.38611179839E+02  0.49343153848E+02  0.10000000000E+01 0.  0.
<mgrwt>
<rscale>  0 0.12500053E+03</rscale>
<asrwt>0</asrwt>
<pdfrwt beam="2">  1        4 0.11753338E-01 0.12500053E+03</pdfrwt>
<pdfrwt beam="1">  1       -4 0.20772200E-01 0.12500053E+03</pdfrwt>
<totfact> 0.19558650E+03</totfact>
</mgrwt>
</event>
<event>
 5    1  0.1448308E-002  0.1249942E+03  0.7818608E-02  0.1235078E+00
         -4   -1    0    0    0  501 -0.00000000000E+00  0.00000000000E+00  0.35082239832E+02  0.35105219720E+02  0.12700000000E+01 0.  1.
          4   -1    0    0  501    0  0.00000000000E+00 -0.00000000000E+00 -0.11127213024E+03  0.11127937756E+03  0.12700000000E+01 0.  1.
         25    2    1    2    0    0  0.00000000000E+00  0.00000000000E+00 -0.76189890413E+02  0.14638459728E+03  0.12499420354E+03 0.  0.
    9000005    1    3    3    0    0  0.57301590767E+02 -0.19509319992E+02 -0.56268313422E+02  0.82651128040E+02  0.10000000000E+01 0.  0.
    9000005    1    3    3    0    0 -0.57301590767E+02  0.19509319992E+02 -0.19921576991E+02  0.63733469236E+02  0.10000000000E+01 0.  0.
<mgrwt>
<rscale>  0 0.12499420E+03</rscale>
<asrwt>0</asrwt>
<pdfrwt beam="2">  1        4 0.27821810E-01 0.12499420E+03</pdfrwt>
<pdfrwt beam="1">  1       -4 0.87743386E-02 0.12499420E+03</pdfrwt>
<totfact> 0.18720517E+03</totfact>
</mgrwt>
</event>
<event>
 5    1  0.1448308E-002  0.1249980E+03  0.7818608E-02  0.1235072E+00
         -4   -1    0    0    0  501 -0.00000000000E+00  0.00000000000E+00  0.19626362713E+03  0.19626773610E+03  0.12700000000E+01 0.  1.
          4   -1    0    0  501    0  0.00000000000E+00 -0.00000000000E+00 -0.19877866394E+02  0.19918395326E+02  0.12700000000E+01 0.  1.
         25    2    1    2    0    0  0.00000000000E+00  0.00000000000E+00  0.17638576074E+03  0.21618613143E+03  0.12499802731E+03 0.  0.
    9000005    1    3    3    0    0 -0.35905309583E+02 -0.51032305486E+02  0.94093357565E+02  0.11290725131E+03  0.10000000000E+01 0.  0.
    9000005    1    3    3    0    0  0.35905309583E+02  0.51032305486E+02  0.82292403170E+02  0.10327888012E+03  0.10000000000E+01 0.  0.
<mgrwt>
<rscale>  0 0.12499803E+03</rscale>
<asrwt>0</asrwt>
<pdfrwt beam="2">  1        4 0.49750462E-02 0.12499803E+03</pdfrwt>
<pdfrwt beam="1">  1       -4 0.49071488E-01 0.12499803E+03</pdfrwt>
<totfact> 0.15694518E+03</totfact>
</mgrwt>
</event>
<event>
 5    1  0.1448308E-002  0.1250015E+03  0.7818608E-02  0.1235067E+00
         -4   -1    0    0    0  501 -0.00000000000E+00  0.00000000000E+00  0.86205226813E+02  0.86214581306E+02  0.12700000000E+01 0.  1.
          4   -1    0    0  501    0  0.00000000000E+00 -0.00000000000E+00 -0.45293730053E+02  0.45311531447E+02  0.12700000000E+01 0.  1.
         25    2    1    2    0    0  0.00000000000E+00  0.00000000000E+00  0.40911496760E+02  0.13152611275E+03  0.12500147107E+03 0.  0.
    9000005    1    3    3    0    0 -0.17213657141E+02 -0.54858000906E+01 -0.42491093375E+02  0.46183297966E+02  0.10000000000E+01 0.  0.
    9000005    1    3    3    0    0  0.17213657141E+02  0.54858000906E+01  0.83402590134E+02  0.85342814788E+02  0.10000000000E+01 0.  0.
<mgrwt>
<rscale>  0 0.12500147E+03</rscale>
<asrwt>0</asrwt>
<pdfrwt beam="2">  1        4 0.11326827E-01 0.12500147E+03</pdfrwt>
<pdfrwt beam="1">  1       -4 0.21554701E-01 0.12500147E+03</pdfrwt>
<totfact> 0.19482017E+03</totfact>
</mgrwt>
</event>
<event>
 5    1  0.1448308E-002  0.1249982E+03  0.7818608E-02  0.1235072E+00
          4   -1    0    0  501    0  0.00000000000E+00  0.00000000000E+00  0.23041750122E+02  0.23076723093E+02  0.12700000000E+01 0. -1.
         -4   -1    0    0    0  501 -0.00000000000E+00 -0.00000000000E+00 -0.16935845274E+03  0.16936321447E+03  0.12700000000E+01 0. -1.
         25    2    1    2    0    0  0.00000000000E+00  0.00000000000E+00 -0.14631670262E+03  0.19243993756E+03  0.12499820840E+03 0.  0.
    9000005    1    3    3    0    0 -0.35968986968E+02  0.35859540143E+02 -0.17108393986E+02  0.53603841164E+02  0.10000000000E+01 0.  0.
    9000005    1    3    3    0    0  0.35968986968E+02 -0.35859540143E+02 -0.12920830863E+03  0.13883609639E+03  0.10000000000E+01 0.  0.
<mgrwt>
<rscale>  0 0.12499821E+03</rscale>
<asrwt>0</asrwt>
<pdfrwt beam="1">  1        4 0.57654049E-02 0.12499821E+03</pdfrwt>
<pdfrwt beam="2">  1       -4 0.42344576E-01 0.12499821E+03</pdfrwt>
<totfact> 0.16629992E+03</totfact>
</mgrwt>
</event>
<event>
 5    1  0.1448308E-002  0.1250000E+03  0.7818608E-02  0.1235069E+00
          4   -1    0    0  501    0  0.00000000000E+00  0.00000000000E+00  0.17901820891E+02  0.17946812843E+02  0.12700000000E+01 0.  1.
         -4   -1    0    0    0  501 -0.00000000000E+00 -0.00000000000E+00 -0.21788321911E+03  0.21788692038E+03  0.12700000000E+01 0.  1.
         25    2    1    2    0    0  0.00000000000E+00  0.00000000000E+00 -0.19998139822E+03  0.23583373322E+03  0.12499996036E+03 0.  0.
    9000005    1    3    3    0    0  0.62149778394E+02  0.20743617980E+01 -0.88307106144E+02  0.10800945758E+03  0.10000000000E+01 0.  0.
    9000005    1    3    3    0    0 -0.62149778394E+02 -0.20743617980E+01 -0.11167429208E+03  0.12782427564E+03  0.10000000000E+01 0.  0.
<mgrwt>
<rscale>  0 0.12499996E+03</rscale>
<asrwt>0</asrwt>
<pdfrwt beam="1">  1        4 0.44815426E-02 0.12499996E+03</pdfrwt>
<pdfrwt beam="2">  1       -4 0.54476883E-01 0.12499996E+03</pdfrwt>
<totfact> 0.14981090E+03</totfact>
</mgrwt>
</event>
<event>
 5    1  0.1448308E-002  0.1249948E+03  0.7818608E-02  0.1235077E+00
          4   -1    0    0  501    0  0.00000000000E+00  0.00000000000E+00  0.24789236571E+03  0.24789561892E+03  0.12700000000E+01 0.  1.
         -4   -1    0    0    0  501 -0.00000000000E+00 -0.00000000000E+00 -0.15727572061E+02  0.15778764936E+02  0.12700000000E+01 0.  1.
         25    2    1    2    0    0  0.00000000000E+00  0.00000000000E+00  0.23216479365E+03  0.26367438385E+03  0.12499475705E+03 0.  0.
    9000005    1    3    3    0    0  0.27182713089E+02  0.46493961475E+02  0.18293452250E+03  0.19070036147E+03  0.10000000000E+01 0.  0.
    9000005    1    3    3    0    0 -0.27182713089E+02 -0.46493961475E+02  0.49230271153E+02  0.72974022380E+02  0.10000000000E+01 0.  0.
<mgrwt>
<rscale>  0 0.12499476E+03</rscale>
<asrwt>0</asrwt>
<pdfrwt beam="1">  1        4 0.61979899E-01 0.12499476E+03</pdfrwt>
<pdfrwt beam="2">  1       -4 0.39386987E-02 0.12499476E+03</pdfrwt>
<totfact> 0.14055610E+03</totfact>
</mgrwt>
</event>
<event>
 5    1  0.1448308E-002  0.1250017E+03  0.7818608E-02  0.1235067E+00
         -4   -1    0    0    0  501 -0.00000000000E+00  0.00000000000E+00  0.49826425408E+02  0.49842607966E+02  0.12700000000E+01 0.  1.
          4   -1    0    0  501    0  0.00000000000E+00 -0.00000000000E+00 -0.78365283550E+02  0.78375573783E+02  0.12700000000E+01 0.  1.
         25    2    1    2    0    0  0.00000000000E+00  0.00000000000E+00 -0.28538858142E+02  0.12821818175E+03  0.12500174282E+03 0.  0.
    9000005    1    3    3    0    0 -0.44224839739E+02  0.24033575009E+02 -0.52261793021E+02  0.72565447613E+02  0.10000000000E+01 0.  0.
    9000005    1    3    3    0    0  0.44224839739E+02 -0.24033575009E+02  0.23722934878E+02  0.55652734136E+02  0.10000000000E+01 0.  0.
<mgrwt>
<rscale>  0 0.12500174E+03</rscale>
<asrwt>0</asrwt>
<pdfrwt beam="2">  1        4 0.19594630E-01 0.12500174E+03</pdfrwt>
<pdfrwt beam="1">  1       -4 0.12459916E-01 0.12500174E+03</pdfrwt>
<totfact> 0.19659871E+03</totfact>
</mgrwt>
</event>
<event>
 5    1  0.1448308E-002  0.1249993E+03  0.7818608E-02  0.1235070E+00
          4   -1    0    0  501    0  0.00000000000E+00  0.00000000000E+00  0.32393296179E+02  0.32418182203E+02  0.12700000000E+01 0. -1.
         -4   -1    0    0    0  501 -0.00000000000E+00 -0.00000000000E+00 -0.12051235630E+03  0.12051904796E+03  0.12700000000E+01 0. -1.
         25    2    1    2    0    0  0.00000000000E+00  0.00000000000E+00 -0.88119060125E+02  0.15293723017E+03  0.12499931045E+03 0.  0.
    9000005    1    3    3    0    0  0.20022982110E+02 -0.40243176886E+02  0.90576758151E+01  0.45863652162E+02  0.10000000000E+01 0.  0.
    9000005    1    3    3    0    0 -0.20022982110E+02  0.40243176886E+02 -0.97176735940E+02  0.10707357800E+03  0.10000000000E+01 0.  0.
<mgrwt>
<rscale>  0 0.12499931E+03</rscale>
<asrwt>0</asrwt>
<pdfrwt beam="1">  1        4 0.81022715E-02 0.12499931E+03</pdfrwt>
<pdfrwt beam="2">  1       -4 0.30132035E-01 0.12499931E+03</pdfrwt>
<totfact> 0.18395589E+03</totfact>
</mgrwt>
</event>
<event>
 5    1  0.1448308E-002  0.1250033E+03  0.7818608E-02  0.1235064E+00
         -4   -1    0    0    0  501 -0.00000000000E+00  0.00000000000E+00  0.15109652569E+02  0.15162931800E+02  0.12700000000E+01 0. -1.
          4   -1    0    0  501    0  0.00000000000E+00 -0.00000000000E+00 -0.25803036984E+03  0.25803349523E+03  0.12700000000E+01 0. -1.
         25    2    1    2    0    0  0.00000000000E+00  0.00000000000E+00 -0.24292071727E+03  0.27319642703E+03  0.12500325140E+03 0.  0.
    9000005    1    3    3    0    0  0.24961606708E+02 -0.37738108587E+02 -0.21567116065E+03  0.22036854627E+03  0.10000000000E+01 0.  0.
    9000005    1    3    3    0    0 -0.24961606708E+02  0.37738108587E+02 -0.27249556617E+02  0.52827880754E+02  0.10000000000E+01 0.  0.
<mgrwt>
<rscale>  0 0.12500325E+03</rscale>
<asrwt>0</asrwt>
<pdfrwt beam="2">  1        4 0.64514629E-01 0.12500325E+03</pdfrwt>
<pdfrwt beam="1">  1       -4 0.37844646E-02 0.12500325E+03</pdfrwt>
<totfact> 0.13755961E+03</totfact>
</mgrwt>
</event>
<event>
 5    1  0.1448308E-002  0.1249980E+03  0.7818608E-02  0.1235072E+00
          4   -1    0    0  501    0  0.00000000000E+00  0.00000000000E+00  0.34656164264E+03  0.34656396964E+03  0.12700000000E+01 0.  1.
         -4   -1    0    0    0  501 -0.00000000000E+00 -0.00000000000E+00 -0.11232943447E+02  0.11304508768E+02  0.12700000000E+01 0.  1.
         25    2    1    2    0    0  0.00000000000E+00  0.00000000000E+00  0.33532869920E+03  0.35786847841E+03  0.12499804531E+03 0.  0.
    9000005    1    3    3    0    0 -0.10459667576E+02  0.47797900714E+02  0.56372205186E+02  0.74651654208E+02  0.10000000000E+01 0.  0.
    9000005    1    3    3    0    0  0.10459667576E+02 -0.47797900714E+02  0.27895649401E+03  0.28321682420E+03  0.10000000000E+01 0.  0.
<mgrwt>
<rscale>  0 0.12499805E+03</rscale>
<asrwt>0</asrwt>
<pdfrwt beam="1">  1        4 0.86649643E-01 0.12499805E+03</pdfrwt>
<pdfrwt beam="2">  1       -4 0.28174725E-02 0.12499805E+03</pdfrwt>
<totfact> 0.11492389E+03</totfact>
</mgrwt>
</event>
<event>
 5    1  0.1448308E-002  0.1250050E+03  0.7818608E-02  0.1235062E+00
          4   -1    0    0  501    0  0.00000000000E+00  0.00000000000E+00  0.24407685088E+02  0.24440703577E+02  0.12700000000E+01 0. -1.
         -4   -1    0    0    0  501 -0.00000000000E+00 -0.00000000000E+00 -0.15991076699E+03  0.15991581003E+03  0.12700000000E+01 0. -1.
         25    2    1    2    0    0  0.00000000000E+00  0.00000000000E+00 -0.13550308190E+03  0.18435651361E+03  0.12500495553E+03 0.  0.
    9000005    1    3    3    0    0 -0.47386488458E+02  0.36297975276E+02 -0.95046677637E+02  0.11224033690E+03  0.10000000000E+01 0.  0.
    9000005    1    3    3    0    0  0.47386488458E+02 -0.36297975276E+02 -0.40456404261E+02  0.72116176710E+02  0.10000000000E+01 0.  0.
<mgrwt>
<rscale>  0 0.12500496E+03</rscale>
<asrwt>0</asrwt>
<pdfrwt beam="1">  1        4 0.61066794E-02 0.12500496E+03</pdfrwt>
<pdfrwt beam="2">  1       -4 0.39982446E-01 0.12500496E+03</pdfrwt>
<totfact> 0.16966261E+03</totfact>
</mgrwt>
</event>
<event>
 4    1  0.1448308E-002  0.1249302E+03  0.7818608E-02  0.1235178E+00
         -4   -1    0    0    0  501 -0.00000000000E+00  0.00000000000E+00  0.59502390079E+02  0.59515941773E+02  0.12700000000E+01 0. -1.
          4   -1    0    0  501    0  0.00000000000E+00 -0.00000000000E+00 -0.65548207015E+02  0.65560509019E+02  0.12700000000E+01 0. -1.
    9000005    1    1    2    0    0  0.43027644506E+02  0.42725781218E+02 -0.18007758499E+02  0.63262547677E+02  0.10000000000E+01 0.  0.
    9000005    1    1    2    0    0 -0.43027644506E+02 -0.42725781218E+02  0.11961941564E+02  0.61813903115E+02  0.10000000000E+01 0.  0.
<mgrwt>
<rscale>  0 0.12493025E+03</rscale>
<asrwt>0</asrwt>
<pdfrwt beam="2">  1        4 0.16390283E-01 0.12493025E+03</pdfrwt>
<pdfrwt beam="1">  1       -4 0.14878829E-01 0.12493025E+03</pdfrwt>
<totfact> 0.19863310E+03</totfact>
</mgrwt>
</event>
<event>
 5    1  0.1448308E-002  0.1249916E+03  0.7818608E-02  0.1235082E+00
         -4   -1    0    0    0  501 -0.00000000000E+00  0.00000000000E+00  0.52777020778E+03  0.52777173581E+03  0.12700000000E+01 0.  1.
          4   -1    0    0  501    0  0.00000000000E+00 -0.00000000000E+00 -0.73443929965E+01  0.74533890605E+01  0.12700000000E+01 0.  1.
         25    2    1    2    0    0  0.00000000000E+00  0.00000000000E+00  0.52042581478E+03  0.53522512487E+03  0.12499162212E+03 0.  0.
    9000005    1    3    3    0    0  0.47026327705E+02 -0.21810773852E+01  0.84256403827E+02  0.96521366452E+02  0.10000000000E+01 0.  0.
    9000005    1    3    3    0    0 -0.47026327705E+02  0.21810773852E+01  0.43616941095E+03  0.43870375841E+03  0.10000000000E+01 0.  0.
<mgrwt>
<rscale>  0 0.12499162E+03</rscale>
<asrwt>0</asrwt>
<pdfrwt beam="2">  1        4 0.18499138E-02 0.12499162E+03</pdfrwt>
<pdfrwt beam="1">  1       -4 0.13195637E+00 0.12499162E+03</pdfrwt>
<totfact> 0.82279523E+02</totfact>
</mgrwt>
</event>
<event>
 5    1  0.1448308E-002  0.1249998E+03  0.7818608E-02  0.1235070E+00
          4   -1    0    0  501    0  0.00000000000E+00  0.00000000000E+00  0.26517127976E+02  0.26547522975E+02  0.12700000000E+01 0.  1.
         -4   -1    0    0    0  501 -0.00000000000E+00 -0.00000000000E+00 -0.14719245146E+03  0.14719793024E+03  0.12700000000E+01 0.  1.
         25    2    1    2    0    0  0.00000000000E+00  0.00000000000E+00 -0.12067532348E+03  0.17374545321E+03  0.12499979526E+03 0.  0.
    9000005    1    3    3    0    0  0.48111621130E+01 -0.58170842352E+02 -0.91363588254E+02  0.10842185868E+03  0.10000000000E+01 0.  0.
    9000005    1    3    3    0    0 -0.48111621130E+01  0.58170842352E+02 -0.29311735229E+02  0.65323594535E+02  0.10000000000E+01 0.  0.
<mgrwt>
<rscale>  0 0.12499980E+03</rscale>
<asrwt>0</asrwt>
<pdfrwt beam="1">  1        4 0.66337666E-02 0.12499980E+03</pdfrwt>
<pdfrwt beam="2">  1       -4 0.36802595E-01 0.12499980E+03</pdfrwt>
<totfact> 0.17429506E+03</totfact>
</mgrwt>
</event>
<event>
 5    1  0.1448308E-002  0.1249977E+03  0.7818608E-02  0.1235073E+00
         -4   -1    0    0    0  501 -0.00000000000E+00  0.00000000000E+00  0.15478874432E+02  0.15530887086E+02  0.12700000000E+01 0.  1.
          4   -1    0    0  501    0  0.00000000000E+00 -0.00000000000E+00 -0.25187392634E+03  0.25187712812E+03  0.12700000000E+01 0.  1.
         25    2    1    2    0    0  0.00000000000E+00  0.00000000000E+00 -0.23639505190E+03  0.26740801520E+03  0.12499770410E+03 0.  0.
    9000005    1    3    3    0    0 -0.31276869519E+02 -0.12011888860E+01 -0.24886757417E+01  0.31414629213E+02  0.10000000000E+01 0.  0.
    9000005    1    3    3    0    0  0.31276869519E+02  0.12011888860E+01 -0.23390637616E+03  0.23599338599E+03  0.10000000000E+01 0.  0.
<mgrwt>
<rscale>  0 0.12499770E+03</rscale>
<asrwt>0</asrwt>
<pdfrwt beam="2">  1        4 0.62975370E-01 0.12499770E+03</pdfrwt>
<pdfrwt beam="1">  1       -4 0.38766212E-02 0.12499770E+03</pdfrwt>
<totfact> 0.13937058E+03</totfact>
</mgrwt>
</event>
<event>
 5    1  0.1448308E-002  0.1250436E+03  0.7818608E-02  0.1235001E+00
         -4   -1    0    0    0  501 -0.00000000000E+00  0.00000000000E+00  0.15128216028E+02  0.15181430111E+02  0.12700000000E+01 0.  1.
          4   -1    0    0  501    0  0.00000000000E+00 -0.00000000000E+00 -0.25788120387E+03  0.25788433106E+03  0.12700000000E+01 0.  1.
         25    2    1    2    0    0  0.00000000000E+00  0.00000000000E+00 -0.24275298784E+03  0.27306576118E+03  0.12504357969E+03 0.  0.
    9000005    1    3    3    0    0 -0.51782060811E+02  0.26762114493E+02 -0.17071129258E+03  0.18039106965E+03  0.10000000000E+01 0.  0.
    9000005    1    3    3    0    0  0.51782060811E+02 -0.26762114493E+02 -0.72041695259E+02  0.92674691527E+02  0.10000000000E+01 0.  0.
<mgrwt>
<rscale>  0 0.12504358E+03</rscale>
<asrwt>0</asrwt>
<pdfrwt beam="2">  1        4 0.64477330E-01 0.12504358E+03</pdfrwt>
<pdfrwt beam="1">  1       -4 0.37890975E-02 0.12504358E+03</pdfrwt>
<totfact> 0.13747238E+03</totfact>
</mgrwt>
</event>
<event>
 5    1  0.1448308E-002  0.1249985E+03  0.7818608E-02  0.1235072E+00
         -4   -1    0    0    0  501 -0.00000000000E+00  0.00000000000E+00  0.77984712583E+02  0.77995053026E+02  0.12700000000E+01 0.  1.
          4   -1    0    0  501    0  0.00000000000E+00 -0.00000000000E+00 -0.50067020876E+02  0.50083125695E+02  0.12700000000E+01 0.  1.
         25    2    1    2    0    0  0.00000000000E+00  0.00000000000E+00  0.27917691707E+02  0.12807817872E+03  0.12499848941E+03 0.  0.
    9000005    1    3    3    0    0  0.36371950575E+02  0.11023770059E+02 -0.36868904288E+02  0.52959969773E+02  0.10000000000E+01 0.  0.
    9000005    1    3    3    0    0 -0.36371950575E+02 -0.11023770059E+02  0.64786595995E+02  0.75118208948E+02  0.10000000000E+01 0.  0.
<mgrwt>
<rscale>  0 0.12499849E+03</rscale>
<asrwt>0</asrwt>
<pdfrwt beam="2">  1        4 0.12520061E-01 0.12499849E+03</pdfrwt>
<pdfrwt beam="1">  1       -4 0.19499484E-01 0.12499849E+03</pdfrwt>
<totfact> 0.19668975E+03</totfact>
</mgrwt>
</event>
<event>
 5    1  0.1448308E-002  0.1249973E+03  0.7818608E-02  0.1235073E+00
         -4   -1    0    0    0  501 -0.00000000000E+00  0.00000000000E+00  0.52061707453E+02  0.52077195421E+02  0.12700000000E+01 0.  1.
          4   -1    0    0  501    0  0.00000000000E+00 -0.00000000000E+00 -0.74995926234E+02  0.75006678714E+02  0.12700000000E+01 0.  1.
         25    2    1    2    0    0  0.00000000000E+00  0.00000000000E+00 -0.22934218781E+02  0.12708387413E+03  0.12499733067E+03 0.  0.
    9000005    1    3    3    0    0 -0.43063188095E+02 -0.21579768197E+02 -0.51943210208E+02  0.70846465339E+02  0.10000000000E+01 0.  0.
    9000005    1    3    3    0    0  0.43063188095E+02  0.21579768197E+02  0.29008991427E+02  0.56237408795E+02  0.10000000000E+01 0.  0.
<mgrwt>
<rscale>  0 0.12499733E+03</rscale>
<asrwt>0</asrwt>
<pdfrwt beam="2">  1        4 0.18752262E-01 0.12499733E+03</pdfrwt>
<pdfrwt beam="1">  1       -4 0.13018707E-01 0.12499733E+03</pdfrwt>
<totfact> 0.19723685E+03</totfact>
</mgrwt>
</event>
<event>
 5    1  0.1448308E-002  0.1250051E+03  0.7818608E-02  0.1235061E+00
          4   -1    0    0  501    0  0.00000000000E+00  0.00000000000E+00  0.20382940497E+03  0.20383336143E+03  0.12700000000E+01 0. -1.
         -4   -1    0    0    0  501 -0.00000000000E+00 -0.00000000000E+00 -0.19140676003E+02  0.19182762519E+02  0.12700000000E+01 0. -1.
         25    2    1    2    0    0  0.00000000000E+00  0.00000000000E+00  0.18468872897E+03  0.22301612395E+03  0.12500505963E+03 0.  0.
    9000005    1    3    3    0    0  0.62214690693E+02  0.27389246107E+01  0.10168246382E+03  0.11924132209E+03  0.10000000000E+01 0.  0.
    9000005    1    3    3    0    0 -0.62214690693E+02 -0.27389246107E+01  0.83006265149E+02  0.10377480185E+03  0.10000000000E+01 0.  0.
<mgrwt>
<rscale>  0 0.12500506E+03</rscale>
<asrwt>0</asrwt>
<pdfrwt beam="1">  1        4 0.50963106E-01 0.12500506E+03</pdfrwt>
<pdfrwt beam="2">  1       -4 0.47909245E-02 0.12500506E+03</pdfrwt>
<totfact> 0.15438312E+03</totfact>
</mgrwt>
</event>
<event>
 5    1  0.1448308E-002  0.1249988E+03  0.7818608E-02  0.1235071E+00
         -4   -1    0    0    0  501 -0.00000000000E+00  0.00000000000E+00  0.72418874709E+01  0.73524032901E+01  0.12700000000E+01 0.  1.
          4   -1    0    0  501    0  0.00000000000E+00 -0.00000000000E+00 -0.53519036897E+03  0.53519187581E+03  0.12700000000E+01 0.  1.
         25    2    1    2    0    0  0.00000000000E+00  0.00000000000E+00 -0.52794848150E+03  0.54254427910E+03  0.12499878268E+03 0.  0.
    9000005    1    3    3    0    0  0.23379300984E+02  0.53804077068E+02 -0.17050911618E+03  0.18032146052E+03  0.10000000000E+01 0.  0.
    9000005    1    3    3    0    0 -0.23379300984E+02 -0.53804077068E+02 -0.35743936531E+03  0.36222281858E+03  0.10000000000E+01 0.  0.
<mgrwt>
<rscale>  0 0.12499878E+03</rscale>
<asrwt>0</asrwt>
<pdfrwt beam="2">  1        4 0.13381146E+00 0.12499878E+03</pdfrwt>
<pdfrwt beam="1">  1       -4 0.18244765E-02 0.12499878E+03</pdfrwt>
<totfact> 0.81217499E+02</totfact>
</mgrwt>
</event>
<event>
 5    1  0.1448308E-002  0.1250002E+03  0.7818608E-02  0.1235069E+00
         -4   -1    0    0    0  501 -0.00000000000E+00  0.00000000000E+00  0.51365375881E+02  0.51381073747E+02  0.12700000000E+01 0.  1.
          4   -1    0    0  501    0  0.00000000000E+00 -0.00000000000E+00 -0.76015935917E+02  0.76026544136E+02  0.12700000000E+01 0.  1.
         25    2    1    2    0    0  0.00000000000E+00  0.00000000000E+00 -0.24650560036E+02  0.12740761788E+03  0.12500020394E+03 0.  0.
    9000005    1    3    3    0    0  0.45840302943E+02  0.41975469737E+02 -0.18929994629E+02  0.64981675342E+02  0.10000000000E+01 0.  0.
    9000005    1    3    3    0    0 -0.45840302943E+02 -0.41975469737E+02 -0.57205654071E+01  0.62425942541E+02  0.10000000000E+01 0.  0.
<mgrwt>
<rscale>  0 0.12500020E+03</rscale>
<asrwt>0</asrwt>
<pdfrwt beam="2">  1        4 0.19007272E-01 0.12500020E+03</pdfrwt>
<pdfrwt beam="1">  1       -4 0.12844632E-01 0.12500020E+03</pdfrwt>
<totfact> 0.19704736E+03</totfact>
</mgrwt>
</event>
<event>
 5    1  0.1448308E-002  0.1250011E+03  0.7818608E-02  0.1235068E+00
         -4   -1    0    0    0  501 -0.00000000000E+00  0.00000000000E+00  0.54924883694E+02  0.54939564512E+02  0.12700000000E+01 0. -1.
          4   -1    0    0  501    0  0.00000000000E+00 -0.00000000000E+00 -0.71091291071E+02  0.71102634031E+02  0.12700000000E+01 0. -1.
         25    2    1    2    0    0  0.00000000000E+00  0.00000000000E+00 -0.16166407377E+02  0.12604219854E+03  0.12500113234E+03 0.  0.
    9000005    1    3    3    0    0 -0.46321296452E+02 -0.37920624051E+02  0.10001738142E+02  0.60701490915E+02  0.10000000000E+01 0.  0.
    9000005    1    3    3    0    0  0.46321296452E+02  0.37920624051E+02 -0.26168145518E+02  0.65340707628E+02  0.10000000000E+01 0.  0.
<mgrwt>
<rscale>  0 0.12500113E+03</rscale>
<asrwt>0</asrwt>
<pdfrwt beam="2">  1        4 0.17776076E-01 0.12500113E+03</pdfrwt>
<pdfrwt beam="1">  1       -4 0.13734474E-01 0.12500113E+03</pdfrwt>
<totfact> 0.19778116E+03</totfact>
</mgrwt>
</event>
<event>
 5    1  0.1448308E-002  0.1249993E+03  0.7818608E-02  0.1235070E+00
          4   -1    0    0  501    0  0.00000000000E+00  0.00000000000E+00  0.30903156682E+02  0.30929241712E+02  0.12700000000E+01 0. -1.
         -4   -1    0    0    0  501 -0.00000000000E+00 -0.00000000000E+00 -0.12631899432E+03  0.12632537840E+03  0.12700000000E+01 0. -1.
         25    2    1    2    0    0  0.00000000000E+00  0.00000000000E+00 -0.95415837642E+02  0.15725462011E+03  0.12499933389E+03 0.  0.
    9000005    1    3    3    0    0  0.26400222316E+01 -0.62391168241E+02 -0.50679879246E+02  0.80430577221E+02  0.10000000000E+01 0.  0.
    9000005    1    3    3    0    0 -0.26400222316E+01  0.62391168241E+02 -0.44735958396E+02  0.76824042886E+02  0.10000000000E+01 0.  0.
<mgrwt>
<rscale>  0 0.12499933E+03</rscale>
<asrwt>0</asrwt>
<pdfrwt beam="1">  1        4 0.77298481E-02 0.12499933E+03</pdfrwt>
<pdfrwt beam="2">  1       -4 0.31583806E-01 0.12499933E+03</pdfrwt>
<totfact> 0.18188008E+03</totfact>
</mgrwt>
</event>
<event>
 5    1  0.1448308E-002  0.1249935E+03  0.7818608E-02  0.1235079E+00
          4   -1    0    0  501    0  0.00000000000E+00  0.00000000000E+00  0.15822933907E+03  0.15823443570E+03  0.12700000000E+01 0.  1.
         -4   -1    0    0    0  501 -0.00000000000E+00 -0.00000000000E+00 -0.24662869547E+02  0.24695546851E+02  0.12700000000E+01 0.  1.
         25    2    1    2    0    0  0.00000000000E+00  0.00000000000E+00  0.13356646952E+03  0.18292998255E+03  0.12499350678E+03 0.  0.
    9000005    1    3    3    0    0  0.52088073912E+02  0.86024209889E+00  0.16277373197E+02  0.54588097041E+02  0.10000000000E+01 0.  0.
    9000005    1    3    3    0    0 -0.52088073912E+02 -0.86024209889E+00  0.11728909632E+03  0.12834188551E+03  0.10000000000E+01 0.  0.
<mgrwt>
<rscale>  0 0.12499351E+03</rscale>
<asrwt>0</asrwt>
<pdfrwt beam="1">  1        4 0.39562056E-01 0.12499351E+03</pdfrwt>
<pdfrwt beam="2">  1       -4 0.61704391E-02 0.12499351E+03</pdfrwt>
<totfact> 0.17031692E+03</totfact>
</mgrwt>
</event>
<event>
 5    1  0.1448308E-002  0.1250004E+03  0.7818608E-02  0.1235069E+00
          4   -1    0    0  501    0  0.00000000000E+00  0.00000000000E+00  0.38183184931E+02  0.38204299647E+02  0.12700000000E+01 0. -1.
         -4   -1    0    0    0  501 -0.00000000000E+00 -0.00000000000E+00 -0.10225012659E+03  0.10225801332E+03  0.12700000000E+01 0. -1.
         25    2    1    2    0    0  0.00000000000E+00  0.00000000000E+00 -0.64066941663E+02  0.14046231297E+03  0.12500035340E+03 0.  0.
    9000005    1    3    3    0    0  0.25494680724E+02  0.13911575648E+02 -0.94211112673E+02  0.98591299988E+02  0.10000000000E+01 0.  0.
    9000005    1    3    3    0    0 -0.25494680724E+02 -0.13911575648E+02  0.30144171010E+02  0.41871012981E+02  0.10000000000E+01 0.  0.
<mgrwt>
<rscale>  0 0.12500035E+03</rscale>
<asrwt>0</asrwt>
<pdfrwt beam="1">  1        4 0.95494216E-02 0.12500035E+03</pdfrwt>
<pdfrwt beam="2">  1       -4 0.25566156E-01 0.12500035E+03</pdfrwt>
<totfact> 0.19016559E+03</totfact>
</mgrwt>
</event>
<event>
 5    1  0.1448308E-002  0.1249995E+03  0.7818608E-02  0.1235070E+00
          4   -1    0    0  501    0  0.00000000000E+00  0.00000000000E+00  0.17716369176E+03  0.17716824371E+03  0.12700000000E+01 0. -1.
         -4   -1    0    0    0  501 -0.00000000000E+00 -0.00000000000E+00 -0.22025503810E+02  0.22062087800E+02  0.12700000000E+01 0. -1.
         25    2    1    2    0    0  0.00000000000E+00  0.00000000000E+00  0.15513818795E+03  0.19923033151E+03  0.12499947053E+03 0.  0.
    9000005    1    3    3    0    0 -0.25340529095E+02 -0.41940393321E+02  0.15755720010E+02  0.51481858162E+02  0.10000000000E+01 0.  0.
    9000005    1    3    3    0    0  0.25340529095E+02  0.41940393321E+02  0.13938246794E+03  0.14774847335E+03  0.10000000000E+01 0.  0.
<mgrwt>
<rscale>  0 0.12499947E+03</rscale>
<asrwt>0</asrwt>
<pdfrwt beam="1">  1        4 0.44296064E-01 0.12499947E+03</pdfrwt>
<pdfrwt beam="2">  1       -4 0.55115180E-02 0.12499947E+03</pdfrwt>
<totfact> 0.16353106E+03</totfact>
</mgrwt>
</event>
<event>
 5    1  0.1448308E-002  0.1250069E+03  0.7818608E-02  0.1235058E+00
         -4   -1    0    0    0  501 -0.00000000000E+00  0.00000000000E+00  0.25876732052E+02  0.25907878371E+02  0.12700000000E+01 0.  1.
          4   -1    0    0  501    0  0.00000000000E+00 -0.00000000000E+00 -0.15084821297E+03  0.15085355898E+03  0.12700000000E+01 0.  1.
         25    2    1    2    0    0  0.00000000000E+00  0.00000000000E+00 -0.12497148092E+03  0.17676143735E+03  0.12500693857E+03 0.  0.
    9000005    1    3    3    0    0  0.43833453411E+02 -0.28272792535E+02 -0.13810794629E+02  0.53967216752E+02  0.10000000000E+01 0.  0.
    9000005    1    3    3    0    0 -0.43833453411E+02  0.28272792535E+02 -0.11116068629E+03  0.12279422060E+03  0.10000000000E+01 0.  0.
<mgrwt>
<rscale>  0 0.12500694E+03</rscale>
<asrwt>0</asrwt>
<pdfrwt beam="2">  1        4 0.37716612E-01 0.12500694E+03</pdfrwt>
<pdfrwt beam="1">  1       -4 0.64737450E-02 0.12500694E+03</pdfrwt>
<totfact> 0.17293537E+03</totfact>
</mgrwt>
</event>
<event>
 5    1  0.1448308E-002  0.1249974E+03  0.7818608E-02  0.1235073E+00
         -4   -1    0    0    0  501 -0.00000000000E+00  0.00000000000E+00  0.46753182669E+02  0.46770428582E+02  0.12700000000E+01 0.  1.
          4   -1    0    0  501    0  0.00000000000E+00 -0.00000000000E+00 -0.83509477289E+02  0.83519133718E+02  0.12700000000E+01 0.  1.
         25    2    1    2    0    0  0.00000000000E+00  0.00000000000E+00 -0.36756294620E+02  0.13028956230E+03  0.12499737937E+03 0.  0.
    9000005    1    3    3    0    0  0.59853429682E+01 -0.48154299887E+02 -0.59420678633E+02  0.76723386118E+02  0.10000000000E+01 0.  0.
    9000005    1    3    3    0    0 -0.59853429682E+01  0.48154299887E+02  0.22664384014E+02  0.53566176183E+02  0.10000000000E+01 0.  0.
<mgrwt>
<rscale>  0 0.12499738E+03</rscale>
<asrwt>0</asrwt>
<pdfrwt beam="2">  1        4 0.20880732E-01 0.12499738E+03</pdfrwt>
<pdfrwt beam="1">  1       -4 0.11691659E-01 0.12499738E+03</pdfrwt>
<totfact> 0.19550024E+03</totfact>
</mgrwt>
</event>
<event>
 5    1  0.1448308E-002  0.1249702E+03  0.7818608E-02  0.1235116E+00
         -4   -1    0    0    0  501 -0.00000000000E+00  0.00000000000E+00  0.71646099516E+02  0.71657354653E+02  0.12700000000E+01 0.  1.
          4   -1    0    0  501    0  0.00000000000E+00 -0.00000000000E+00 -0.54472536436E+02  0.54487339133E+02  0.12700000000E+01 0.  1.
         25    2    1    2    0    0  0.00000000000E+00  0.00000000000E+00  0.17173563079E+02  0.12614469379E+03  0.12497020646E+03 0.  0.
    9000005    1    3    3    0    0 -0.86712820505E+00  0.52466018484E+02  0.42816440110E+02  0.67732433520E+02  0.10000000000E+01 0.  0.
    9000005    1    3    3    0    0  0.86712820505E+00 -0.52466018484E+02 -0.25642877031E+02  0.58412260265E+02  0.10000000000E+01 0.  0.
<mgrwt>
<rscale>  0 0.12497021E+03</rscale>
<asrwt>0</asrwt>
<pdfrwt beam="2">  1        4 0.13621391E-01 0.12497021E+03</pdfrwt>
<pdfrwt beam="1">  1       -4 0.17914782E-01 0.12497021E+03</pdfrwt>
<totfact> 0.19786889E+03</totfact>
</mgrwt>
</event>
<event>
 5    1  0.1448308E-002  0.1249953E+03  0.7818608E-02  0.1235077E+00
         -4   -1    0    0    0  501 -0.00000000000E+00  0.00000000000E+00  0.17324405365E+02  0.17370892931E+02  0.12700000000E+01 0.  1.
          4   -1    0    0  501    0  0.00000000000E+00 -0.00000000000E+00 -0.22510945273E+03  0.22511303519E+03  0.12700000000E+01 0.  1.
         25    2    1    2    0    0  0.00000000000E+00  0.00000000000E+00 -0.20778504737E+03  0.24248392812E+03  0.12499531785E+03 0.  0.
    9000005    1    3    3    0    0  0.34889928189E+02 -0.23626210008E+02 -0.14371881231E+02  0.44531515340E+02  0.10000000000E+01 0.  0.
    9000005    1    3    3    0    0 -0.34889928189E+02  0.23626210008E+02 -0.19341316614E+03  0.19795241278E+03  0.10000000000E+01 0.  0.
<mgrwt>
<rscale>  0 0.12499532E+03</rscale>
<asrwt>0</asrwt>
<pdfrwt beam="2">  1        4 0.56283613E-01 0.12499532E+03</pdfrwt>
<pdfrwt beam="1">  1       -4 0.43373608E-02 0.12499532E+03</pdfrwt>
<totfact> 0.14752850E+03</totfact>
</mgrwt>
</event>
<event>
 5    1  0.1448308E-002  0.1249964E+03  0.7818608E-02  0.1235075E+00
         -4   -1    0    0    0  501 -0.00000000000E+00  0.00000000000E+00  0.88976488289E+02  0.88985551458E+02  0.12700000000E+01 0. -1.
          4   -1    0    0  501    0  0.00000000000E+00 -0.00000000000E+00 -0.43879063655E+02  0.43897438732E+02  0.12700000000E+01 0. -1.
         25    2    1    2    0    0  0.00000000000E+00  0.00000000000E+00  0.45097424634E+02  0.13288299019E+03  0.12499644544E+03 0.  0.
    9000005    1    3    3    0    0  0.27669166158E+02 -0.53083578785E+02  0.41612772534E+02  0.72911397809E+02  0.10000000000E+01 0.  0.
    9000005    1    3    3    0    0 -0.27669166158E+02  0.53083578785E+02  0.34846520997E+01  0.59971592381E+02  0.10000000000E+01 0.  0.
<mgrwt>
<rscale>  0 0.12499645E+03</rscale>
<asrwt>0</asrwt>
<pdfrwt beam="2">  1        4 0.10973196E-01 0.12499645E+03</pdfrwt>
<pdfrwt beam="1">  1       -4 0.22247552E-01 0.12499645E+03</pdfrwt>
<totfact> 0.19412217E+03</totfact>
</mgrwt>
</event>
<event>
 5    1  0.1448308E-002  0.1249976E+03  0.7818608E-02  0.1235073E+00
         -4   -1    0    0    0  501 -0.00000000000E+00  0.00000000000E+00  0.52273783189E+01  0.53794408714E+01  0.12700000000E+01 0. -1.
          4   -1    0    0  501    0  0.00000000000E+00 -0.00000000000E+00 -0.73637353397E+03  0.73637462914E+03  0.12700000000E+01 0. -1.
         25    2    1    2    0    0  0.00000000000E+00  0.00000000000E+00 -0.73114615566E+03  0.74175407001E+03  0.12499759776E+03 0.  0.
    9000005    1    3    3    0    0 -0.49356933950E+02  0.37757747003E+02 -0.40464188468E+03  0.40938711414E+03  0.10000000000E+01 0.  0.
    9000005    1    3    3    0    0  0.49356933950E+02 -0.37757747003E+02 -0.32650427098E+03  0.33236695587E+03  0.10000000000E+01 0.  0.
<mgrwt>
<rscale>  0 0.12499760E+03</rscale>
<asrwt>0</asrwt>
<pdfrwt beam="2">  1        4 0.18411218E+00 0.12499760E+03</pdfrwt>
<pdfrwt beam="1">  1       -4 0.13259918E-02 0.12499760E+03</pdfrwt>
<totfact> 0.57866851E+02</totfact>
</mgrwt>
</event>
<event>
 5    1  0.1448308E-002  0.1250064E+03  0.7818608E-02  0.1235059E+00
         -4   -1    0    0    0  501 -0.00000000000E+00  0.00000000000E+00  0.13729368930E+03  0.13729956308E+03  0.12700000000E+01 0. -1.
          4   -1    0    0  501    0  0.00000000000E+00 -0.00000000000E+00 -0.28434047534E+02  0.28462395527E+02  0.12700000000E+01 0. -1.
         25    2    1    2    0    0  0.00000000000E+00  0.00000000000E+00  0.10885964177E+03  0.16576195861E+03  0.12500642110E+03 0.  0.
    9000005    1    3    3    0    0 -0.99831548355E+01 -0.26824005901E+02 -0.19238864616E+02  0.34501080922E+02  0.10000000000E+01 0.  0.
    9000005    1    3    3    0    0  0.99831548355E+01  0.26824005901E+02  0.12809850638E+03  0.13126087768E+03  0.10000000000E+01 0.  0.
<mgrwt>
<rscale>  0 0.12500642E+03</rscale>
<asrwt>0</asrwt>
<pdfrwt beam="2">  1        4 0.71127897E-02 0.12500642E+03</pdfrwt>
<pdfrwt beam="1">  1       -4 0.34327700E-01 0.12500642E+03</pdfrwt>
<totfact> 0.17787259E+03</totfact>
</mgrwt>
</event>
<event>
 5    1  0.1448308E-002  0.1250010E+03  0.7818608E-02  0.1235068E+00
         -4   -1    0    0    0  501 -0.00000000000E+00  0.00000000000E+00  0.69950265347E+02  0.69961793303E+02  0.12700000000E+01 0.  1.
          4   -1    0    0  501    0  0.00000000000E+00 -0.00000000000E+00 -0.55820784780E+02  0.55835230039E+02  0.12700000000E+01 0.  1.
         25    2    1    2    0    0  0.00000000000E+00  0.00000000000E+00  0.14129480567E+02  0.12579702334E+03  0.12500099544E+03 0.  0.
    9000005    1    3    3    0    0 -0.34155038716E+02  0.52145760383E+02  0.26133132919E+01  0.62398528845E+02  0.10000000000E+01 0.  0.
    9000005    1    3    3    0    0  0.34155038716E+02 -0.52145760383E+02  0.11516167275E+02  0.63398494496E+02  0.10000000000E+01 0.  0.
<mgrwt>
<rscale>  0 0.12500100E+03</rscale>
<asrwt>0</asrwt>
<pdfrwt beam="2">  1        4 0.13958443E-01 0.12500100E+03</pdfrwt>
<pdfrwt beam="1">  1       -4 0.17490813E-01 0.12500100E+03</pdfrwt>
<totfact> 0.19791432E+03</totfact>
</mgrwt>
</event>
<event>
 5    1  0.1448308E-002  0.1249971E+03  0.7818608E-02  0.1235074E+00
          4   -1    0    0  501    0  0.00000000000E+00  0.00000000000E+00  0.39908238779E+02  0.39928441273E+02  0.12700000000E+01 0.  1.
         -4   -1    0    0    0  501 -0.00000000000E+00 -0.00000000000E+00 -0.97827205245E+02  0.97835448514E+02  0.12700000000E+01 0.  1.
         25    2    1    2    0    0  0.00000000000E+00  0.00000000000E+00 -0.57918966465E+02  0.13776388979E+03  0.12499713058E+03 0.  0.
    9000005    1    3    3    0    0 -0.31874040748E+02 -0.47698078448E+02 -0.56269558632E+02  0.80363700698E+02  0.10000000000E+01 0.  0.
    9000005    1    3    3    0    0  0.31874040748E+02  0.47698078448E+02 -0.16494078329E+01  0.57400189089E+02  0.10000000000E+01 0.  0.
<mgrwt>
<rscale>  0 0.12499713E+03</rscale>
<asrwt>0</asrwt>
<pdfrwt beam="1">  1        4 0.99806156E-02 0.12499713E+03</pdfrwt>
<pdfrwt beam="2">  1       -4 0.24460357E-01 0.12499713E+03</pdfrwt>
<totfact> 0.19156611E+03</totfact>
</mgrwt>
</event>
<event>
 5    1  0.1448308E-002  0.1249980E+03  0.7818608E-02  0.1235072E+00
         -4   -1    0    0    0  501 -0.00000000000E+00  0.00000000000E+00  0.64736296443E+02  0.64748752708E+02  0.12700000000E+01 0. -1.
          4   -1    0    0  501    0  0.00000000000E+00 -0.00000000000E+00 -0.60314105850E+02  0.60327475204E+02  0.12700000000E+01 0. -1.
         25    2    1    2    0    0  0.00000000000E+00  0.00000000000E+00  0.44221905938E+01  0.12507622791E+03  0.12499802806E+03 0.  0.
    9000005    1    3    3    0    0  0.56410003879E+02 -0.18714847150E+02  0.21531015168E+02  0.63221188344E+02  0.10000000000E+01 0.  0.
    9000005    1    3    3    0    0 -0.56410003879E+02  0.18714847150E+02 -0.17108824574E+02  0.61855039567E+02  0.10000000000E+01 0.  0.
<mgrwt>
<rscale>  0 0.12499803E+03</rscale>
<asrwt>0</asrwt>
<pdfrwt beam="2">  1        4 0.15081755E-01 0.12499803E+03</pdfrwt>
<pdfrwt beam="1">  1       -4 0.16187302E-01 0.12499803E+03</pdfrwt>
<totfact> 0.19831837E+03</totfact>
</mgrwt>
</event>
<event>
 5    1  0.1448308E-002  0.1250114E+03  0.7818608E-02  0.1235051E+00
          4   -1    0    0  501    0  0.00000000000E+00  0.00000000000E+00  0.43485091470E+02  0.43503632954E+02  0.12700000000E+01 0.  1.
         -4   -1    0    0    0  501 -0.00000000000E+00 -0.00000000000E+00 -0.89803907626E+02  0.89812887298E+02  0.12700000000E+01 0.  1.
         25    2    1    2    0    0  0.00000000000E+00  0.00000000000E+00 -0.46318816155E+02  0.13331652025E+03  0.12501144684E+03 0.  0.
    9000005    1    3    3    0    0  0.10004327451E+02  0.41899006481E+02 -0.71448430854E+02  0.83435553473E+02  0.10000000000E+01 0.  0.
    9000005    1    3    3    0    0 -0.10004327451E+02 -0.41899006481E+02  0.25129614699E+02  0.49880966779E+02  0.10000000000E+01 0.  0.
<mgrwt>
<rscale>  0 0.12501145E+03</rscale>
<asrwt>0</asrwt>
<pdfrwt beam="1">  1        4 0.10874713E-01 0.12501145E+03</pdfrwt>
<pdfrwt beam="2">  1       -4 0.22454417E-01 0.12501145E+03</pdfrwt>
<totfact> 0.19382505E+03</totfact>
</mgrwt>
</event>
<event>
 5    1  0.1448308E-002  0.1250024E+03  0.7818608E-02  0.1235066E+00
         -4   -1    0    0    0  501 -0.00000000000E+00  0.00000000000E+00  0.59871380701E+03  0.59871515398E+03  0.12700000000E+01 0.  1.
          4   -1    0    0  501    0  0.00000000000E+00 -0.00000000000E+00 -0.64614842566E+01  0.65851103862E+01  0.12700000000E+01 0.  1.
         25    2    1    2    0    0  0.00000000000E+00  0.00000000000E+00  0.59225232275E+03  0.60530026437E+03  0.12500238491E+03 0.  0.
    9000005    1    3    3    0    0 -0.40951075590E+02 -0.33202334017E+02  0.13363701397E+03  0.14366362476E+03  0.10000000000E+01 0.  0.
    9000005    1    3    3    0    0  0.40951075590E+02  0.33202334017E+02  0.45861530878E+03  0.46163663961E+03  0.10000000000E+01 0.  0.
<mgrwt>
<rscale>  0 0.12500238E+03</rscale>
<asrwt>0</asrwt>
<pdfrwt beam="2">  1        4 0.16309929E-02 0.12500238E+03</pdfrwt>
<pdfrwt beam="1">  1       -4 0.14969405E+00 0.12500238E+03</pdfrwt>
<totfact> 0.72836090E+02</totfact>
</mgrwt>
</event>
<event>
 5    1  0.1448308E-002  0.1249959E+03  0.7818608E-02  0.1235076E+00
          4   -1    0    0  501    0  0.00000000000E+00  0.00000000000E+00  0.54162346634E+03  0.54162495529E+03  0.12700000000E+01 0. -1.
         -4   -1    0    0    0  501 -0.00000000000E+00 -0.00000000000E+00 -0.71542212645E+01  0.72660705957E+01  0.12700000000E+01 0. -1.
         25    2    1    2    0    0  0.00000000000E+00  0.00000000000E+00  0.53446924508E+03  0.54889102589E+03  0.12499593739E+03 0.  0.
    9000005    1    3    3    0    0  0.16097512718E+02  0.49700817840E+02  0.11666493603E+03  0.12783195417E+03  0.10000000000E+01 0.  0.
    9000005    1    3    3    0    0 -0.16097512718E+02 -0.49700817840E+02  0.41780430905E+03  0.42105907171E+03  0.10000000000E+01 0.  0.
<mgrwt>
<rscale>  0 0.12499594E+03</rscale>
<asrwt>0</asrwt>
<pdfrwt beam="1">  1        4 0.13542003E+00 0.12499594E+03</pdfrwt>
<pdfrwt beam="2">  1       -4 0.18027226E-02 0.12499594E+03</pdfrwt>
<totfact> 0.80328859E+02</totfact>
</mgrwt>
</event>
<event>
 5    1  0.1448308E-002  0.1249915E+03  0.7818608E-02  0.1235083E+00
          4   -1    0    0  501    0  0.00000000000E+00  0.00000000000E+00  0.33204989094E+02  0.33229267231E+02  0.12700000000E+01 0. -1.
         -4   -1    0    0    0  501 -0.00000000000E+00 -0.00000000000E+00 -0.11755375096E+03  0.11756061103E+03  0.12700000000E+01 0. -1.
         25    2    1    2    0    0  0.00000000000E+00  0.00000000000E+00 -0.84348761871E+02  0.15078987826E+03  0.12499149474E+03 0.  0.
    9000005    1    3    3    0    0 -0.33513231103E+02  0.52155776267E+02 -0.51624189637E+02  0.80680968095E+02  0.10000000000E+01 0.  0.
    9000005    1    3    3    0    0  0.33513231103E+02 -0.52155776267E+02 -0.32724572234E+02  0.70108910167E+02  0.10000000000E+01 0.  0.
<mgrwt>
<rscale>  0 0.12499149E+03</rscale>
<asrwt>0</asrwt>
<pdfrwt beam="1">  1        4 0.83051398E-02 0.12499149E+03</pdfrwt>
<pdfrwt beam="2">  1       -4 0.29392329E-01 0.12499149E+03</pdfrwt>
<totfact> 0.18503672E+03</totfact>
</mgrwt>
</event>
<event>
 5    1  0.1448308E-002  0.1249961E+03  0.7818608E-02  0.1235075E+00
          4   -1    0    0  501    0  0.00000000000E+00  0.00000000000E+00  0.14374757225E+03  0.14375318232E+03  0.12700000000E+01 0.  1.
         -4   -1    0    0    0  501 -0.00000000000E+00 -0.00000000000E+00 -0.27151675110E+02  0.27181360548E+02  0.12700000000E+01 0.  1.
         25    2    1    2    0    0  0.00000000000E+00  0.00000000000E+00  0.11659589714E+03  0.17093454287E+03  0.12499605880E+03 0.  0.
    9000005    1    3    3    0    0  0.40800556179E+02 -0.43624241390E+02  0.83411350039E+02  0.10259733494E+03  0.10000000000E+01 0.  0.
    9000005    1    3    3    0    0 -0.40800556179E+02  0.43624241390E+02  0.33184547100E+02  0.68337207929E+02  0.10000000000E+01 0.  0.
<mgrwt>
<rscale>  0 0.12499606E+03</rscale>
<asrwt>0</asrwt>
<pdfrwt beam="1">  1        4 0.35941304E-01 0.12499606E+03</pdfrwt>
<pdfrwt beam="2">  1       -4 0.67923308E-02 0.12499606E+03</pdfrwt>
<totfact> 0.17556584E+03</totfact>
</mgrwt>
</event>
<event>
 5    1  0.1448308E-002  0.1249986E+03  0.7818608E-02  0.1235071E+00
          4   -1    0    0  501    0  0.00000000000E+00  0.00000000000E+00  0.64333887016E+03  0.64334012369E+03  0.12700000000E+01 0. -1.
         -4   -1    0    0    0  501 -0.00000000000E+00 -0.00000000000E+00 -0.60040180675E+01  0.61368667050E+01  0.12700000000E+01 0. -1.
         25    2    1    2    0    0  0.00000000000E+00  0.00000000000E+00  0.63733485209E+03  0.64947699040E+03  0.12499858947E+03 0.  0.
    9000005    1    3    3    0    0  0.17223079715E+02  0.27887157739E+02  0.59511694815E+03  0.59601972284E+03  0.10000000000E+01 0.  0.
    9000005    1    3    3    0    0 -0.17223079715E+02 -0.27887157739E+02  0.42217903940E+02  0.53457267558E+02  0.10000000000E+01 0.  0.
<mgrwt>
<rscale>  0 0.12499859E+03</rscale>
<asrwt>0</asrwt>
<pdfrwt beam="1">  1        4 0.16085144E+00 0.12499859E+03</pdfrwt>
<pdfrwt beam="2">  1       -4 0.15177677E-02 0.12499859E+03</pdfrwt>
<totfact> 0.67572957E+02</totfact>
</mgrwt>
</event>
<event>
 5    1  0.1448308E-002  0.1250002E+03  0.7818608E-02  0.1235069E+00
         -4   -1    0    0    0  501 -0.00000000000E+00  0.00000000000E+00  0.31723993468E+03  0.31724247675E+03  0.12700000000E+01 0. -1.
          4   -1    0    0  501    0  0.00000000000E+00 -0.00000000000E+00 -0.12277936338E+02  0.12343444443E+02  0.12700000000E+01 0. -1.
         25    2    1    2    0    0  0.00000000000E+00  0.00000000000E+00  0.30496199834E+03  0.32958592119E+03  0.12500023607E+03 0.  0.
    9000005    1    3    3    0    0 -0.32847257244E+02  0.44081829340E+02  0.74126057381E+02  0.92292049329E+02  0.10000000000E+01 0.  0.
    9000005    1    3    3    0    0  0.32847257244E+02 -0.44081829340E+02  0.23083594096E+03  0.23729387187E+03  0.10000000000E+01 0.  0.
<mgrwt>
<rscale>  0 0.12500024E+03</rscale>
<asrwt>0</asrwt>
<pdfrwt beam="2">  1        4 0.30779903E-02 0.12500024E+03</pdfrwt>
<pdfrwt beam="1">  1       -4 0.79318492E-01 0.12500024E+03</pdfrwt>
<totfact> 0.12180509E+03</totfact>
</mgrwt>
</event>
<event>
 5    1  0.1448308E-002  0.1249607E+03  0.7818608E-02  0.1235131E+00
          4   -1    0    0  501    0  0.00000000000E+00  0.00000000000E+00  0.10942794436E+03  0.10943531380E+03  0.12700000000E+01 0. -1.
         -4   -1    0    0    0  501 -0.00000000000E+00 -0.00000000000E+00 -0.35654688969E+02  0.35677300143E+02  0.12700000000E+01 0. -1.
         25    2    1    2    0    0  0.00000000000E+00  0.00000000000E+00  0.73773255389E+02  0.14511261394E+03  0.12496070388E+03 0.  0.
    9000005    1    3    3    0    0  0.53682981734E+02  0.36919863660E+01  0.30359986266E-01  0.53819087812E+02  0.10000000000E+01 0.  0.
    9000005    1    3    3    0    0 -0.53682981734E+02 -0.36919863660E+01  0.73742895403E+02  0.91293526132E+02  0.10000000000E+01 0.  0.
<mgrwt>
<rscale>  0 0.12496070E+03</rscale>
<asrwt>0</asrwt>
<pdfrwt beam="1">  1        4 0.27360733E-01 0.12496070E+03</pdfrwt>
<pdfrwt beam="2">  1       -4 0.89174199E-02 0.12496070E+03</pdfrwt>
<totfact> 0.18798915E+03</totfact>
</mgrwt>
</event>
<event>
 5    1  0.1448308E-002  0.1249989E+03  0.7818608E-02  0.1235071E+00
          4   -1    0    0  501    0  0.00000000000E+00  0.00000000000E+00  0.13907700655E+03  0.13908280501E+03  0.12700000000E+01 0.  1.
         -4   -1    0    0    0  501 -0.00000000000E+00 -0.00000000000E+00 -0.28065723570E+02  0.28094443214E+02  0.12700000000E+01 0.  1.
         25    2    1    2    0    0  0.00000000000E+00  0.00000000000E+00  0.11101128298E+03  0.16717724823E+03  0.12499890950E+03 0.  0.
    9000005    1    3    3    0    0 -0.41556124514E+02 -0.18764961525E+01 -0.68643278024E+01  0.42172878946E+02  0.10000000000E+01 0.  0.
    9000005    1    3    3    0    0  0.41556124514E+02  0.18764961525E+01  0.11787561078E+03  0.12500436928E+03  0.10000000000E+01 0.  0.
<mgrwt>
<rscale>  0 0.12499891E+03</rscale>
<asrwt>0</asrwt>
<pdfrwt beam="1">  1        4 0.34773566E-01 0.12499891E+03</pdfrwt>
<pdfrwt beam="2">  1       -4 0.70207458E-02 0.12499891E+03</pdfrwt>
<totfact> 0.17725571E+03</totfact>
</mgrwt>
</event>
<event>
 5    1  0.1448308E-002  0.1249956E+03  0.7818608E-02  0.1235076E+00
          4   -1    0    0  501    0  0.00000000000E+00  0.00000000000E+00  0.13247160573E+02  0.13307898528E+02  0.12700000000E+01 0.  1.
         -4   -1    0    0    0  501 -0.00000000000E+00 -0.00000000000E+00 -0.29411721474E+03  0.29411995666E+03  0.12700000000E+01 0.  1.
         25    2    1    2    0    0  0.00000000000E+00  0.00000000000E+00 -0.28087005417E+03  0.30742785519E+03  0.12499559520E+03 0.  0.
    9000005    1    3    3    0    0 -0.27544254787E+02  0.55369148914E+02 -0.16250850236E+03  0.17388053935E+03  0.10000000000E+01 0.  0.
    9000005    1    3    3    0    0  0.27544254787E+02 -0.55369148914E+02 -0.11836155181E+03  0.13354731585E+03  0.10000000000E+01 0.  0.
<mgrwt>
<rscale>  0 0.12499560E+03</rscale>
<asrwt>0</asrwt>
<pdfrwt beam="1">  1        4 0.33197261E-02 0.12499560E+03</pdfrwt>
<pdfrwt beam="2">  1       -4 0.73537217E-01 0.12499560E+03</pdfrwt>
<totfact> 0.12766691E+03</totfact>
</mgrwt>
</event>
<event>
 5    1  0.1448308E-002  0.1250020E+03  0.7818608E-02  0.1235066E+00
         -4   -1    0    0    0  501 -0.00000000000E+00  0.00000000000E+00  0.57035115363E+02  0.57049253146E+02  0.12700000000E+01 0. -1.
          4   -1    0    0  501    0  0.00000000000E+00 -0.00000000000E+00 -0.68462229323E+02  0.68474007797E+02  0.12700000000E+01 0. -1.
         25    2    1    2    0    0  0.00000000000E+00  0.00000000000E+00 -0.11427113960E+02  0.12552326094E+03  0.12500204040E+03 0.  0.
    9000005    1    3    3    0    0 -0.41197993882E+02 -0.41772713231E+02 -0.27324055385E+02  0.64728960081E+02  0.10000000000E+01 0.  0.
    9000005    1    3    3    0    0  0.41197993882E+02  0.41772713231E+02  0.15896941425E+02  0.60794300861E+02  0.10000000000E+01 0.  0.
<mgrwt>
<rscale>  0 0.12500204E+03</rscale>
<asrwt>0</asrwt>
<pdfrwt beam="2">  1        4 0.17118797E-01 0.12500204E+03</pdfrwt>
<pdfrwt beam="1">  1       -4 0.14262018E-01 0.12500204E+03</pdfrwt>
<totfact> 0.19805759E+03</totfact>
</mgrwt>
</event>
<event>
 5    1  0.1448308E-002  0.1249974E+03  0.7818608E-02  0.1235073E+00
          4   -1    0    0  501    0  0.00000000000E+00  0.00000000000E+00  0.30037522076E+02  0.30064358175E+02  0.12700000000E+01 0.  1.
         -4   -1    0    0    0  501 -0.00000000000E+00 -0.00000000000E+00 -0.12995233478E+03  0.12995854037E+03  0.12700000000E+01 0.  1.
         25    2    1    2    0    0  0.00000000000E+00  0.00000000000E+00 -0.99914812701E+02  0.16002289854E+03  0.12499743302E+03 0.  0.
    9000005    1    3    3    0    0  0.22694347145E+02  0.49409626131E+02 -0.89390040788E+02  0.10463232741E+03  0.10000000000E+01 0.  0.
    9000005    1    3    3    0    0 -0.22694347145E+02 -0.49409626131E+02 -0.10524771913E+02  0.55390571134E+02  0.10000000000E+01 0.  0.
<mgrwt>
<rscale>  0 0.12499743E+03</rscale>
<asrwt>0</asrwt>
<pdfrwt beam="1">  1        4 0.75135111E-02 0.12499743E+03</pdfrwt>
<pdfrwt beam="2">  1       -4 0.32492212E-01 0.12499743E+03</pdfrwt>
<totfact> 0.18057754E+03</totfact>
</mgrwt>
</event>
<event>
 5    1  0.1448308E-002  0.1249965E+03  0.7818608E-02  0.1235075E+00
          4   -1    0    0  501    0  0.00000000000E+00  0.00000000000E+00  0.28542539456E+01  0.31240463482E+01  0.12700000000E+01 0. -1.
         -4   -1    0    0    0  501 -0.00000000000E+00 -0.00000000000E+00 -0.13064655881E+04  0.13064662054E+04  0.12700000000E+01 0. -1.
         25    2    1    2    0    0  0.00000000000E+00  0.00000000000E+00 -0.13036113341E+04  0.13095902517E+04  0.12499646745E+03 0.  0.
    9000005    1    3    3    0    0 -0.57202365745E+02 -0.19219048733E+02 -0.48172047041E+03  0.48548645099E+03  0.10000000000E+01 0.  0.
    9000005    1    3    3    0    0  0.57202365745E+02  0.19219048733E+02 -0.82189086374E+03  0.82410380073E+03  0.10000000000E+01 0.  0.
<mgrwt>
<rscale>  0 0.12499647E+03</rscale>
<asrwt>0</asrwt>
<pdfrwt beam="1">  1        4 0.74736918E-03 0.12499647E+03</pdfrwt>
<pdfrwt beam="2">  1       -4 0.32664824E+00 0.12499647E+03</pdfrwt>
<totfact> 0.19884494E+02</totfact>
</mgrwt>
</event>
<event>
 5    1  0.1448308E-002  0.1249805E+03  0.7818608E-02  0.1235100E+00
          4   -1    0    0  501    0  0.00000000000E+00  0.00000000000E+00  0.20746496959E+03  0.20746885671E+03  0.12700000000E+01 0. -1.
         -4   -1    0    0    0  501 -0.00000000000E+00 -0.00000000000E+00 -0.18797126452E+02  0.18839980437E+02  0.12700000000E+01 0. -1.
         25    2    1    2    0    0  0.00000000000E+00  0.00000000000E+00  0.18866784313E+03  0.22630883715E+03  0.12498053744E+03 0.  0.
    9000005    1    3    3    0    0 -0.67218964916E+01 -0.21013496847E+02  0.20018604679E+03  0.20140060643E+03  0.10000000000E+01 0.  0.
    9000005    1    3    3    0    0  0.67218964916E+01  0.21013496847E+02 -0.11518203653E+02  0.24908230719E+02  0.10000000000E+01 0.  0.
<mgrwt>
<rscale>  0 0.12498054E+03</rscale>
<asrwt>0</asrwt>
<pdfrwt beam="1">  1        4 0.51872086E-01 0.12498054E+03</pdfrwt>
<pdfrwt beam="2">  1       -4 0.47051242E-02 0.12498054E+03</pdfrwt>
<totfact> 0.15326985E+03</totfact>
</mgrwt>
</event>
<event>
 5    1  0.1448308E-002  0.1249994E+03  0.7818608E-02  0.1235070E+00
          4   -1    0    0  501    0  0.00000000000E+00  0.00000000000E+00  0.45822296930E+02  0.45839893062E+02  0.12700000000E+01 0.  1.
         -4   -1    0    0    0  501 -0.00000000000E+00 -0.00000000000E+00 -0.85208225823E+02  0.85217689760E+02  0.12700000000E+01 0.  1.
         25    2    1    2    0    0  0.00000000000E+00  0.00000000000E+00 -0.39385928893E+02  0.13105758282E+03  0.12499935448E+03 0.  0.
    9000005    1    3    3    0    0 -0.45985602752E+02  0.31667800559E+02  0.97329864787E+01  0.56685591454E+02  0.10000000000E+01 0.  0.
    9000005    1    3    3    0    0  0.45985602752E+02 -0.31667800559E+02 -0.49118915372E+02  0.74371991368E+02  0.10000000000E+01 0.  0.
<mgrwt>
<rscale>  0 0.12499935E+03</rscale>
<asrwt>0</asrwt>
<pdfrwt beam="1">  1        4 0.11458957E-01 0.12499935E+03</pdfrwt>
<pdfrwt beam="2">  1       -4 0.21305439E-01 0.12499935E+03</pdfrwt>
<totfact> 0.19507989E+03</totfact>
</mgrwt>
</event>
<event>
 5    1  0.1448308E-002  0.1250071E+03  0.7818608E-02  0.1235058E+00
         -4   -1    0    0    0  501 -0.00000000000E+00  0.00000000000E+00  0.58836761250E+03  0.58836898315E+03  0.12700000000E+01 0.  1.
          4   -1    0    0  501    0  0.00000000000E+00 -0.00000000000E+00 -0.65777617454E+01  0.66992424631E+01  0.12700000000E+01 0.  1.
         25    2    1    2    0    0  0.00000000000E+00  0.00000000000E+00  0.58178985075E+03  0.59506822562E+03  0.12500705060E+03 0.  0.
    9000005    1    3    3    0    0  0.10188267880E+01  0.35464051748E+02  0.53580430885E+03  0.53697857905E+03  0.10000000000E+01 0.  0.
    9000005    1    3    3    0    0 -0.10188267880E+01 -0.35464051748E+02  0.45985541906E+02  0.58089646572E+02  0.10000000000E+01 0.  0.
<mgrwt>
<rscale>  0 0.12500705E+03</rscale>
<asrwt>0</asrwt>
<pdfrwt beam="2">  1        4 0.16597965E-02 0.12500705E+03</pdfrwt>
<pdfrwt beam="1">  1       -4 0.14710729E+00 0.12500705E+03</pdfrwt>
<totfact> 0.74115087E+02</totfact>
</mgrwt>
</event>
<event>
 5    1  0.1448308E-002  0.1249978E+03  0.7818608E-02  0.1235073E+00
         -4   -1    0    0    0  501 -0.00000000000E+00  0.00000000000E+00  0.68311687495E+02  0.68323491922E+02  0.12700000000E+01 0.  1.
          4   -1    0    0  501    0  0.00000000000E+00 -0.00000000000E+00 -0.57156944641E+02  0.57171052297E+02  0.12700000000E+01 0.  1.
         25    2    1    2    0    0  0.00000000000E+00  0.00000000000E+00  0.11154742853E+02  0.12549454422E+03  0.12499780934E+03 0.  0.
    9000005    1    3    3    0    0 -0.10493703345E+02 -0.61599646725E+02  0.62720739710E+01  0.62809021632E+02  0.10000000000E+01 0.  0.
    9000005    1    3    3    0    0  0.10493703345E+02  0.61599646725E+02  0.48826688824E+01  0.62685522586E+02  0.10000000000E+01 0.  0.
<mgrwt>
<rscale>  0 0.12499781E+03</rscale>
<asrwt>0</asrwt>
<pdfrwt beam="2">  1        4 0.14292475E-01 0.12499781E+03</pdfrwt>
<pdfrwt beam="1">  1       -4 0.17081161E-01 0.12499781E+03</pdfrwt>
<totfact> 0.19809274E+03</totfact>
</mgrwt>
</event>
<event>
 5    1  0.1448308E-002  0.1250015E+03  0.7818608E-02  0.1235067E+00
         -4   -1    0    0    0  501 -0.00000000000E+00  0.00000000000E+00  0.16515673076E+03  0.16516161362E+03  0.12700000000E+01 0. -1.
          4   -1    0    0  501    0  0.00000000000E+00 -0.00000000000E+00 -0.23630067007E+02  0.23664170528E+02  0.12700000000E+01 0. -1.
         25    2    1    2    0    0  0.00000000000E+00  0.00000000000E+00  0.14152666375E+03  0.18882578415E+03  0.12500152082E+03 0.  0.
    9000005    1    3    3    0    0  0.17303467288E+02  0.57526799846E+02  0.44747764050E+02  0.74913984464E+02  0.10000000000E+01 0.  0.
    9000005    1    3    3    0    0 -0.17303467288E+02 -0.57526799846E+02  0.96778899700E+02  0.11391179969E+03  0.10000000000E+01 0.  0.
<mgrwt>
<rscale>  0 0.12500152E+03</rscale>
<asrwt>0</asrwt>
<pdfrwt beam="2">  1        4 0.59123902E-02 0.12500152E+03</pdfrwt>
<pdfrwt beam="1">  1       -4 0.41294055E-01 0.12500152E+03</pdfrwt>
<totfact> 0.16778883E+03</totfact>
</mgrwt>
</event>
<event>
 5    1  0.1448308E-002  0.1249993E+03  0.7818608E-02  0.1235070E+00
         -4   -1    0    0    0  501 -0.00000000000E+00  0.00000000000E+00  0.69262797828E+02  0.69274440186E+02  0.12700000000E+01 0.  1.
          4   -1    0    0  501    0  0.00000000000E+00 -0.00000000000E+00 -0.56373369103E+02  0.56387672802E+02  0.12700000000E+01 0.  1.
         25    2    1    2    0    0  0.00000000000E+00  0.00000000000E+00  0.12889428725E+02  0.12566211299E+03  0.12499931707E+03 0.  0.
    9000005    1    3    3    0    0 -0.43761719591E+02  0.34775004840E+02  0.34536005227E+02  0.65712439615E+02  0.10000000000E+01 0.  0.
    9000005    1    3    3    0    0  0.43761719591E+02 -0.34775004840E+02 -0.21646576501E+02  0.59949673372E+02  0.10000000000E+01 0.  0.
<mgrwt>
<rscale>  0 0.12499932E+03</rscale>
<asrwt>0</asrwt>
<pdfrwt beam="2">  1        4 0.14096586E-01 0.12499932E+03</pdfrwt>
<pdfrwt beam="1">  1       -4 0.17318943E-01 0.12499932E+03</pdfrwt>
<totfact> 0.19799506E+03</totfact>
</mgrwt>
</event>
<event>
 5    1  0.1448308E-002  0.1250008E+03  0.7818608E-02  0.1235068E+00
         -4   -1    0    0    0  501 -0.00000000000E+00  0.00000000000E+00  0.73682589792E+02  0.73693533898E+02  0.12700000000E+01 0. -1.
          4   -1    0    0  501    0  0.00000000000E+00 -0.00000000000E+00 -0.52992759897E+02  0.53007975829E+02  0.12700000000E+01 0. -1.
         25    2    1    2    0    0  0.00000000000E+00  0.00000000000E+00  0.20689829895E+02  0.12670150973E+03  0.12500081402E+03 0.  0.
    9000005    1    3    3    0    0  0.58042655912E+02 -0.22550910876E+02  0.15689931589E+02  0.64223573864E+02  0.10000000000E+01 0.  0.
    9000005    1    3    3    0    0 -0.58042655912E+02  0.22550910876E+02  0.49998983060E+01  0.62477935863E+02  0.10000000000E+01 0.  0.
<mgrwt>
<rscale>  0 0.12500081E+03</rscale>
<asrwt>0</asrwt>
<pdfrwt beam="2">  1        4 0.13251460E-01 0.12500081E+03</pdfrwt>
<pdfrwt beam="1">  1       -4 0.18423917E-01 0.12500081E+03</pdfrwt>
<totfact> 0.19742683E+03</totfact>
</mgrwt>
</event>
<event>
 5    1  0.1448308E-002  0.1250034E+03  0.7818608E-02  0.1235064E+00
          4   -1    0    0  501    0  0.00000000000E+00  0.00000000000E+00  0.72578277540E+02  0.72589388141E+02  0.12700000000E+01 0.  1.
         -4   -1    0    0    0  501 -0.00000000000E+00 -0.00000000000E+00 -0.53801392251E+02  0.53816379553E+02  0.12700000000E+01 0.  1.
         25    2    1    2    0    0  0.00000000000E+00  0.00000000000E+00  0.18776885288E+02  0.12640576769E+03  0.12500338669E+03 0.  0.
    9000005    1    3    3    0    0 -0.48115526195E+02 -0.16102109080E+02 -0.27504829272E+02  0.57722590128E+02  0.10000000000E+01 0.  0.
    9000005    1    3    3    0    0  0.48115526195E+02  0.16102109080E+02  0.46281714560E+02  0.68683177565E+02  0.10000000000E+01 0.  0.
<mgrwt>
<rscale>  0 0.12500339E+03</rscale>
<asrwt>0</asrwt>
<pdfrwt beam="1">  1        4 0.18147832E-01 0.12500339E+03</pdfrwt>
<pdfrwt beam="2">  1       -4 0.13453610E-01 0.12500339E+03</pdfrwt>
<totfact> 0.19757444E+03</totfact>
</mgrwt>
</event>
<event>
 5    1  0.1448308E-002  0.1250017E+03  0.7818608E-02  0.1235067E+00
          4   -1    0    0  501    0  0.00000000000E+00  0.00000000000E+00  0.39210257811E+02  0.39230819741E+02  0.12700000000E+01 0. -1.
         -4   -1    0    0    0  501 -0.00000000000E+00 -0.00000000000E+00 -0.99575175308E+02  0.99583273885E+02  0.12700000000E+01 0. -1.
         25    2    1    2    0    0  0.00000000000E+00  0.00000000000E+00 -0.60364917498E+02  0.13881409363E+03  0.12500171729E+03 0.  0.
    9000005    1    3    3    0    0  0.40131485935E+01  0.30457254483E+02  0.30251541446E+02  0.43126621386E+02  0.10000000000E+01 0.  0.
    9000005    1    3    3    0    0 -0.40131485935E+01 -0.30457254483E+02 -0.90616458944E+02  0.95687472241E+02  0.10000000000E+01 0.  0.
<mgrwt>
<rscale>  0 0.12500172E+03</rscale>
<asrwt>0</asrwt>
<pdfrwt beam="1">  1        4 0.98061472E-02 0.12500172E+03</pdfrwt>
<pdfrwt beam="2">  1       -4 0.24897376E-01 0.12500172E+03</pdfrwt>
<totfact> 0.19100411E+03</totfact>
</mgrwt>
</event>
<event>
 5    1  0.1448308E-002  0.1250006E+03  0.7818608E-02  0.1235068E+00
          4   -1    0    0  501    0  0.00000000000E+00  0.00000000000E+00  0.35376067458E+02  0.35398856603E+02  0.12700000000E+01 0. -1.
         -4   -1    0    0    0  501 -0.00000000000E+00 -0.00000000000E+00 -0.11035980542E+03  0.11036711264E+03  0.12700000000E+01 0. -1.
         25    2    1    2    0    0  0.00000000000E+00  0.00000000000E+00 -0.74983737962E+02  0.14576596924E+03  0.12500062732E+03 0.  0.
    9000005    1    3    3    0    0 -0.17519113691E+02 -0.44363288948E+02 -0.84575886763E+02  0.97103560040E+02  0.10000000000E+01 0.  0.
    9000005    1    3    3    0    0  0.17519113691E+02  0.44363288948E+02  0.95921488004E+01  0.48662409202E+02  0.10000000000E+01 0.  0.
<mgrwt>
<rscale>  0 0.12500063E+03</rscale>
<asrwt>0</asrwt>
<pdfrwt beam="1">  1        4 0.88477792E-02 0.12500063E+03</pdfrwt>
<pdfrwt beam="2">  1       -4 0.27593713E-01 0.12500063E+03</pdfrwt>
<totfact> 0.18748673E+03</totfact>
</mgrwt>
</event>
<event>
 5    1  0.1448308E-002  0.1249989E+03  0.7818608E-02  0.1235071E+00
          4   -1    0    0  501    0  0.00000000000E+00  0.00000000000E+00  0.56451349879E+02  0.56465633824E+02  0.12700000000E+01 0. -1.
         -4   -1    0    0    0  501 -0.00000000000E+00 -0.00000000000E+00 -0.69166703220E+02  0.69178361749E+02  0.12700000000E+01 0. -1.
         25    2    1    2    0    0  0.00000000000E+00  0.00000000000E+00 -0.12715353341E+02  0.12564399557E+03  0.12499893365E+03 0.  0.
    9000005    1    3    3    0    0 -0.30309960811E+02  0.43105062174E+02 -0.40123340403E+02  0.66239131595E+02  0.10000000000E+01 0.  0.
    9000005    1    3    3    0    0  0.30309960811E+02 -0.43105062174E+02  0.27407987062E+02  0.59404863978E+02  0.10000000000E+01 0.  0.
<mgrwt>
<rscale>  0 0.12499893E+03</rscale>
<asrwt>0</asrwt>
<pdfrwt beam="1">  1        4 0.14116080E-01 0.12499893E+03</pdfrwt>
<pdfrwt beam="2">  1       -4 0.17294919E-01 0.12499893E+03</pdfrwt>
<totfact> 0.19800664E+03</totfact>
</mgrwt>
</event>
<event>
 5    1  0.1448308E-002  0.1249959E+03  0.7818608E-02  0.1235076E+00
          4   -1    0    0  501    0  0.00000000000E+00  0.00000000000E+00  0.58516265042E+03  0.58516402859E+03  0.12700000000E+01 0.  1.
         -4   -1    0    0    0  501 -0.00000000000E+00 -0.00000000000E+00 -0.66132513296E+01  0.67340918578E+01  0.12700000000E+01 0.  1.
         25    2    1    2    0    0  0.00000000000E+00  0.00000000000E+00  0.57854939910E+03  0.59189812044E+03  0.12499591110E+03 0.  0.
    9000005    1    3    3    0    0  0.49785321642E+02  0.77744582207E+01  0.11426086900E+03  0.12488221105E+03  0.10000000000E+01 0.  0.
    9000005    1    3    3    0    0 -0.49785321642E+02 -0.77744582207E+01  0.46428853010E+03  0.46701590940E+03  0.10000000000E+01 0.  0.
<mgrwt>
<rscale>  0 0.12499591E+03</rscale>
<asrwt>0</asrwt>
<pdfrwt beam="1">  1        4 0.14630595E+00 0.12499591E+03</pdfrwt>
<pdfrwt beam="2">  1       -4 0.16685901E-02 0.12499591E+03</pdfrwt>
<totfact> 0.74538712E+02</totfact>
</mgrwt>
</event>
<event>
 5    1  0.1448308E-002  0.1249997E+03  0.7818608E-02  0.1235070E+00
         -4   -1    0    0    0  501 -0.00000000000E+00  0.00000000000E+00  0.25300582258E+03  0.25300901004E+03  0.12700000000E+01 0.  1.
          4   -1    0    0  501    0  0.00000000000E+00 -0.00000000000E+00 -0.15409889223E+02  0.15462133937E+02  0.12700000000E+01 0.  1.
         25    2    1    2    0    0  0.00000000000E+00  0.00000000000E+00  0.23759593336E+03  0.26847114398E+03  0.12499971039E+03 0.  0.
    9000005    1    3    3    0    0  0.44132341479E+02  0.35050389728E+02  0.60806533360E+02  0.82913375783E+02  0.10000000000E+01 0.  0.
    9000005    1    3    3    0    0 -0.44132341479E+02 -0.35050389728E+02  0.17678940000E+03  0.18555776819E+03  0.10000000000E+01 0.  0.
<mgrwt>
<rscale>  0 0.12499971E+03</rscale>
<asrwt>0</asrwt>
<pdfrwt beam="2">  1        4 0.38594014E-02 0.12499971E+03</pdfrwt>
<pdfrwt beam="1">  1       -4 0.63258383E-01 0.12499971E+03</pdfrwt>
<totfact> 0.13903207E+03</totfact>
</mgrwt>
</event>
<event>
 5    1  0.1448308E-002  0.1250024E+03  0.7818608E-02  0.1235066E+00
         -4   -1    0    0    0  501 -0.00000000000E+00  0.00000000000E+00  0.23450998282E+03  0.23451342166E+03  0.12700000000E+01 0. -1.
          4   -1    0    0  501    0  0.00000000000E+00 -0.00000000000E+00 -0.16629933926E+02  0.16678357304E+02  0.12700000000E+01 0. -1.
         25    2    1    2    0    0  0.00000000000E+00  0.00000000000E+00  0.21788004889E+03  0.25119177897E+03  0.12500237644E+03 0.  0.
    9000005    1    3    3    0    0 -0.24684327090E+02  0.56988554429E+02  0.12291825986E+03  0.13772040498E+03  0.10000000000E+01 0.  0.
    9000005    1    3    3    0    0  0.24684327090E+02 -0.56988554429E+02  0.94961789031E+02  0.11347137399E+03  0.10000000000E+01 0.  0.
<mgrwt>
<rscale>  0 0.12500238E+03</rscale>
<asrwt>0</asrwt>
<pdfrwt beam="2">  1        4 0.41639663E-02 0.12500238E+03</pdfrwt>
<pdfrwt beam="1">  1       -4 0.58633978E-01 0.12500238E+03</pdfrwt>
<totfact> 0.14457635E+03</totfact>
</mgrwt>
</event>
<event>
 5    1  0.1448308E-002  0.1250016E+03  0.7818608E-02  0.1235067E+00
          4   -1    0    0  501    0  0.00000000000E+00  0.00000000000E+00  0.13456687528E+02  0.13516483982E+02  0.12700000000E+01 0.  1.
         -4   -1    0    0    0  501 -0.00000000000E+00 -0.00000000000E+00 -0.28958607321E+03  0.28958885803E+03  0.12700000000E+01 0.  1.
         25    2    1    2    0    0  0.00000000000E+00  0.00000000000E+00 -0.27612938568E+03  0.30310534201E+03  0.12500164287E+03 0.  0.
    9000005    1    3    3    0    0 -0.77206537614E+01 -0.50314589016E+02 -0.50161157842E+02  0.71472429078E+02  0.10000000000E+01 0.  0.
    9000005    1    3    3    0    0  0.77206537614E+01  0.50314589016E+02 -0.22596822784E+03  0.23163291293E+03  0.10000000000E+01 0.  0.
<mgrwt>
<rscale>  0 0.12500164E+03</rscale>
<asrwt>0</asrwt>
<pdfrwt beam="1">  1        4 0.33719955E-02 0.12500164E+03</pdfrwt>
<pdfrwt beam="2">  1       -4 0.72404321E-01 0.12500164E+03</pdfrwt>
<totfact> 0.12883985E+03</totfact>
</mgrwt>
</event>
<event>
 5    1  0.1448308E-002  0.1249979E+03  0.7818608E-02  0.1235073E+00
          4   -1    0    0  501    0  0.00000000000E+00  0.00000000000E+00  0.55978398312E+01  0.57400967566E+01  0.12700000000E+01 0. -1.
         -4   -1    0    0    0  501 -0.00000000000E+00 -0.00000000000E+00 -0.68889242786E+03  0.68889359850E+03  0.12700000000E+01 0. -1.
         25    2    1    2    0    0  0.00000000000E+00  0.00000000000E+00 -0.68329458802E+03  0.69463369526E+03  0.12499790624E+03 0.  0.
    9000005    1    3    3    0    0 -0.10928973709E+02 -0.41206992756E+02 -0.59555918320E+03  0.59708391321E+03  0.10000000000E+01 0.  0.
    9000005    1    3    3    0    0  0.10928973709E+02  0.41206992756E+02 -0.87735404827E+02  0.97549782053E+02  0.10000000000E+01 0.  0.
<mgrwt>
<rscale>  0 0.12499791E+03</rscale>
<asrwt>0</asrwt>
<pdfrwt beam="1">  1        4 0.14173908E-02 0.12499791E+03</pdfrwt>
<pdfrwt beam="2">  1       -4 0.17224075E+00 0.12499791E+03</pdfrwt>
<totfact> 0.62628687E+02</totfact>
</mgrwt>
</event>
<event>
 5    1  0.1448308E-002  0.1249981E+03  0.7818608E-02  0.1235072E+00
         -4   -1    0    0    0  501 -0.00000000000E+00  0.00000000000E+00  0.11336623925E+02  0.11407538824E+02  0.12700000000E+01 0.  1.
          4   -1    0    0  501    0  0.00000000000E+00 -0.00000000000E+00 -0.34341196625E+03  0.34341431458E+03  0.12700000000E+01 0.  1.
         25    2    1    2    0    0  0.00000000000E+00  0.00000000000E+00 -0.33207534232E+03  0.35482185341E+03  0.12499805870E+03 0.  0.
    9000005    1    3    3    0    0  0.18871646996E+02 -0.29275827275E+02 -0.18759695130E+02  0.39574477689E+02  0.10000000000E+01 0.  0.
    9000005    1    3    3    0    0 -0.18871646996E+02  0.29275827275E+02 -0.31331564719E+03  0.31524737572E+03  0.10000000000E+01 0.  0.
<mgrwt>
<rscale>  0 0.12499806E+03</rscale>
<asrwt>0</asrwt>
<pdfrwt beam="2">  1        4 0.85862115E-01 0.12499806E+03</pdfrwt>
<pdfrwt beam="1">  1       -4 0.28433150E-02 0.12499806E+03</pdfrwt>
<totfact> 0.11563669E+03</totfact>
</mgrwt>
</event>
<event>
 5    1  0.1448308E-002  0.1250012E+03  0.7818608E-02  0.1235067E+00
         -4   -1    0    0    0  501 -0.00000000000E+00  0.00000000000E+00  0.30682471689E+03  0.30682734525E+03  0.12700000000E+01 0.  1.
          4   -1    0    0  501    0  0.00000000000E+00 -0.00000000000E+00 -0.12697091372E+02  0.12760447849E+02  0.12700000000E+01 0.  1.
         25    2    1    2    0    0  0.00000000000E+00  0.00000000000E+00  0.29412762551E+03  0.31958779310E+03  0.12500118962E+03 0.  0.
    9000005    1    3    3    0    0  0.38381966231E+02 -0.47950919497E+02  0.17653315525E+03  0.18691554488E+03  0.10000000000E+01 0.  0.
    9000005    1    3    3    0    0 -0.38381966231E+02  0.47950919497E+02  0.11759447026E+03  0.13267224822E+03  0.10000000000E+01 0.  0.
<mgrwt>
<rscale>  0 0.12500119E+03</rscale>
<asrwt>0</asrwt>
<pdfrwt beam="2">  1        4 0.31825209E-02 0.12500119E+03</pdfrwt>
<pdfrwt beam="1">  1       -4 0.76714427E-01 0.12500119E+03</pdfrwt>
<totfact> 0.12438962E+03</totfact>
</mgrwt>
</event>
<event>
 5    1  0.1448308E-002  0.1249970E+03  0.7818608E-02  0.1235074E+00
         -4   -1    0    0    0  501 -0.00000000000E+00  0.00000000000E+00  0.93953025145E+02  0.93961608297E+02  0.12700000000E+01 0.  1.
          4   -1    0    0  501    0  0.00000000000E+00 -0.00000000000E+00 -0.41554437650E+02  0.41573840193E+02  0.12700000000E+01 0.  1.
         25    2    1    2    0    0  0.00000000000E+00  0.00000000000E+00  0.52398587495E+02  0.13553544849E+03  0.12499698327E+03 0.  0.
    9000005    1    3    3    0    0 -0.49498585848E+02 -0.51787689568E+01 -0.14777456384E+02  0.51925936352E+02  0.10000000000E+01 0.  0.
    9000005    1    3    3    0    0  0.49498585848E+02  0.51787689568E+01  0.67176043879E+02  0.83609512139E+02  0.10000000000E+01 0.  0.
<mgrwt>
<rscale>  0 0.12499698E+03</rscale>
<asrwt>0</asrwt>
<pdfrwt beam="2">  1        4 0.10392108E-01 0.12499698E+03</pdfrwt>
<pdfrwt beam="1">  1       -4 0.23491754E-01 0.12499698E+03</pdfrwt>
<totfact> 0.19272484E+03</totfact>
</mgrwt>
</event>
<event>
 5    1  0.1448308E-002  0.1250002E+03  0.7818608E-02  0.1235069E+00
          4   -1    0    0  501    0  0.00000000000E+00  0.00000000000E+00  0.14184463059E+03  0.14185031592E+03  0.12700000000E+01 0.  1.
         -4   -1    0    0    0  501 -0.00000000000E+00 -0.00000000000E+00 -0.27518122345E+02  0.27547412898E+02  0.12700000000E+01 0.  1.
         25    2    1    2    0    0  0.00000000000E+00  0.00000000000E+00  0.11432650825E+03  0.16939772882E+03  0.12500016017E+03 0.  0.
    9000005    1    3    3    0    0 -0.47304642270E+02 -0.27875606175E+02  0.16723412821E+02  0.57406020036E+02  0.10000000000E+01 0.  0.
    9000005    1    3    3    0    0  0.47304642270E+02  0.27875606175E+02  0.97603095426E+02  0.11199170879E+03  0.10000000000E+01 0.  0.
<mgrwt>
<rscale>  0 0.12500016E+03</rscale>
<asrwt>0</asrwt>
<pdfrwt beam="1">  1        4 0.35465529E-01 0.12500016E+03</pdfrwt>
<pdfrwt beam="2">  1       -4 0.68839027E-02 0.12500016E+03</pdfrwt>
<totfact> 0.17624181E+03</totfact>
</mgrwt>
</event>
<event>
 5    1  0.1448308E-002  0.1250185E+03  0.7818608E-02  0.1235040E+00
          4   -1    0    0  501    0  0.00000000000E+00  0.00000000000E+00  0.22314345568E+02  0.22350456777E+02  0.12700000000E+01 0. -1.
         -4   -1    0    0    0  501 -0.00000000000E+00 -0.00000000000E+00 -0.17492736613E+03  0.17493197627E+03  0.12700000000E+01 0. -1.
         25    2    1    2    0    0  0.00000000000E+00  0.00000000000E+00 -0.15261302056E+03  0.19728243304E+03  0.12501849600E+03 0.  0.
    9000005    1    3    3    0    0 -0.28498628915E+02 -0.49301748492E+02 -0.11695628250E+03  0.13008691814E+03  0.10000000000E+01 0.  0.
    9000005    1    3    3    0    0  0.28498628915E+02  0.49301748492E+02 -0.35656738061E+02  0.67195514906E+02  0.10000000000E+01 0.  0.
<mgrwt>
<rscale>  0 0.12501850E+03</rscale>
<asrwt>0</asrwt>
<pdfrwt beam="1">  1        4 0.55836771E-02 0.12501850E+03</pdfrwt>
<pdfrwt beam="2">  1       -4 0.43736928E-01 0.12501850E+03</pdfrwt>
<totfact> 0.16424411E+03</totfact>
</mgrwt>
</event>
<event>
 5    1  0.1448308E-002  0.1250002E+03  0.7818608E-02  0.1235069E+00
          4   -1    0    0  501    0  0.00000000000E+00  0.00000000000E+00  0.23503314749E+03  0.23503657868E+03  0.12700000000E+01 0.  1.
         -4   -1    0    0    0  501 -0.00000000000E+00 -0.00000000000E+00 -0.16592239326E+02  0.16640772394E+02  0.12700000000E+01 0.  1.
         25    2    1    2    0    0  0.00000000000E+00  0.00000000000E+00  0.21844090816E+03  0.25167735108E+03  0.12500023474E+03 0.  0.
    9000005    1    3    3    0    0 -0.10258741032E+02 -0.31045104701E+02  0.21644731657E+03  0.21890518757E+03  0.10000000000E+01 0.  0.
    9000005    1    3    3    0    0  0.10258741032E+02  0.31045104701E+02  0.19935915904E+01  0.32772163507E+02  0.10000000000E+01 0.  0.
<mgrwt>
<rscale>  0 0.12500023E+03</rscale>
<asrwt>0</asrwt>
<pdfrwt beam="1">  1        4 0.58764782E-01 0.12500023E+03</pdfrwt>
<pdfrwt beam="2">  1       -4 0.41545554E-02 0.12500023E+03</pdfrwt>
<totfact> 0.14442277E+03</totfact>
</mgrwt>
</event>
<event>
 5    1  0.1448308E-002  0.1249992E+03  0.7818608E-02  0.1235071E+00
         -4   -1    0    0    0  501 -0.00000000000E+00  0.00000000000E+00  0.50527401898E+01  0.52099024392E+01  0.12700000000E+01 0.  1.
          4   -1    0    0  501    0  0.00000000000E+00 -0.00000000000E+00 -0.76108853321E+03  0.76108959281E+03  0.12700000000E+01 0.  1.
         25    2    1    2    0    0  0.00000000000E+00  0.00000000000E+00 -0.75603579302E+03  0.76629949525E+03  0.12499918436E+03 0.  0.
    9000005    1    3    3    0    0  0.79784165081E+01 -0.25884211952E+02 -0.32773020370E+02  0.42529030351E+02  0.10000000000E+01 0.  0.
    9000005    1    3    3    0    0 -0.79784165081E+01  0.25884211952E+02 -0.72326277265E+03  0.72377046490E+03  0.10000000000E+01 0.  0.
<mgrwt>
<rscale>  0 0.12499918E+03</rscale>
<asrwt>0</asrwt>
<pdfrwt beam="2">  1        4 0.19029153E+00 0.12499918E+03</pdfrwt>
<pdfrwt beam="1">  1       -4 0.12829654E-02 0.12499918E+03</pdfrwt>
<totfact> 0.55536481E+02</totfact>
</mgrwt>
</event>
<event>
 5    1  0.1448308E-002  0.1250001E+03  0.7818608E-02  0.1235069E+00
          4   -1    0    0  501    0  0.00000000000E+00  0.00000000000E+00  0.22728232517E+02  0.22763687165E+02  0.12700000000E+01 0. -1.
         -4   -1    0    0    0  501 -0.00000000000E+00 -0.00000000000E+00 -0.17169616748E+03  0.17170086438E+03  0.12700000000E+01 0. -1.
         25    2    1    2    0    0  0.00000000000E+00  0.00000000000E+00 -0.14896793497E+03  0.19446455154E+03  0.12500006463E+03 0.  0.
    9000005    1    3    3    0    0 -0.49034399206E+01  0.36960381691E+02  0.35370005156E+01  0.37464969110E+02  0.10000000000E+01 0.  0.
    9000005    1    3    3    0    0  0.49034399206E+01 -0.36960381691E+02 -0.15250493548E+03  0.15699958243E+03  0.10000000000E+01 0.  0.
<mgrwt>
<rscale>  0 0.12500006E+03</rscale>
<asrwt>0</asrwt>
<pdfrwt beam="1">  1        4 0.56870776E-02 0.12500006E+03</pdfrwt>
<pdfrwt beam="2">  1       -4 0.42929057E-01 0.12500006E+03</pdfrwt>
<totfact> 0.16546091E+03</totfact>
</mgrwt>
</event>
<event>
 5    1  0.1448308E-002  0.1249775E+03  0.7818608E-02  0.1235104E+00
          4   -1    0    0  501    0  0.00000000000E+00  0.00000000000E+00  0.58086109523E+02  0.58099991562E+02  0.12700000000E+01 0.  1.
         -4   -1    0    0    0  501 -0.00000000000E+00 -0.00000000000E+00 -0.67197188451E+02  0.67209188626E+02  0.12700000000E+01 0.  1.
         25    2    1    2    0    0  0.00000000000E+00  0.00000000000E+00 -0.91110789278E+01  0.12530918019E+03  0.12497751350E+03 0.  0.
    9000005    1    3    3    0    0  0.10002152408E+02  0.52179280000E+01  0.57061391029E+02  0.58174497605E+02  0.10000000000E+01 0.  0.
    9000005    1    3    3    0    0 -0.10002152408E+02 -0.52179280000E+01 -0.66172469957E+02  0.67134682583E+02  0.10000000000E+01 0.  0.
<mgrwt>
<rscale>  0 0.12497751E+03</rscale>
<asrwt>0</asrwt>
<pdfrwt beam="1">  1        4 0.14524763E-01 0.12497751E+03</pdfrwt>
<pdfrwt beam="2">  1       -4 0.16802532E-01 0.12497751E+03</pdfrwt>
<totfact> 0.19828727E+03</totfact>
</mgrwt>
</event>
<event>
 5    1  0.1448308E-002  0.1250007E+03  0.7818608E-02  0.1235068E+00
          4   -1    0    0  501    0  0.00000000000E+00  0.00000000000E+00  0.58157858677E+02  0.58171723594E+02  0.12700000000E+01 0.  1.
         -4   -1    0    0    0  501 -0.00000000000E+00 -0.00000000000E+00 -0.67139233368E+02  0.67151243899E+02  0.12700000000E+01 0.  1.
         25    2    1    2    0    0  0.00000000000E+00  0.00000000000E+00 -0.89813746909E+01  0.12532296749E+03  0.12500072436E+03 0.  0.
    9000005    1    3    3    0    0  0.24592758115E+02  0.45062509005E+02 -0.40217672555E+02  0.65221887854E+02  0.10000000000E+01 0.  0.
    9000005    1    3    3    0    0 -0.24592758115E+02 -0.45062509005E+02  0.31236297864E+02  0.60101079639E+02  0.10000000000E+01 0.  0.
<mgrwt>
<rscale>  0 0.12500072E+03</rscale>
<asrwt>0</asrwt>
<pdfrwt beam="1">  1        4 0.14542699E-01 0.12500072E+03</pdfrwt>
<pdfrwt beam="2">  1       -4 0.16788043E-01 0.12500072E+03</pdfrwt>
<totfact> 0.19817214E+03</totfact>
</mgrwt>
</event>
<event>
 5    1  0.1448308E-002  0.1250011E+03  0.7818608E-02  0.1235068E+00
          4   -1    0    0  501    0  0.00000000000E+00  0.00000000000E+00  0.96196337545E+02  0.96204720556E+02  0.12700000000E+01 0.  1.
         -4   -1    0    0    0  501 -0.00000000000E+00 -0.00000000000E+00 -0.40587657297E+02  0.40607521776E+02  0.12700000000E+01 0.  1.
         25    2    1    2    0    0  0.00000000000E+00  0.00000000000E+00  0.55608680249E+02  0.13681224233E+03  0.12500105733E+03 0.  0.
    9000005    1    3    3    0    0  0.46365533419E+02 -0.38697156722E+02  0.10221405677E+02  0.61259364685E+02  0.10000000000E+01 0.  0.
    9000005    1    3    3    0    0 -0.46365533419E+02  0.38697156722E+02  0.45387274572E+02  0.75552877647E+02  0.10000000000E+01 0.  0.
<mgrwt>
<rscale>  0 0.12500106E+03</rscale>
<asrwt>0</asrwt>
<pdfrwt beam="1">  1        4 0.24052615E-01 0.12500106E+03</pdfrwt>
<pdfrwt beam="2">  1       -4 0.10150445E-01 0.12500106E+03</pdfrwt>
<totfact> 0.19204156E+03</totfact>
</mgrwt>
</event>
<event>
 5    1  0.1448308E-002  0.1249974E+03  0.7818608E-02  0.1235073E+00
          4   -1    0    0  501    0  0.00000000000E+00  0.00000000000E+00  0.12636943457E+03  0.12637581610E+03  0.12700000000E+01 0. -1.
         -4   -1    0    0    0  501 -0.00000000000E+00 -0.00000000000E+00 -0.30889879608E+02  0.30915975841E+02  0.12700000000E+01 0. -1.
         25    2    1    2    0    0  0.00000000000E+00  0.00000000000E+00  0.95479554965E+02  0.15729179194E+03  0.12499744955E+03 0.  0.
    9000005    1    3    3    0    0 -0.36817054171E+02 -0.32043059371E+02  0.96845452473E+02  0.10845411378E+03  0.10000000000E+01 0.  0.
    9000005    1    3    3    0    0  0.36817054171E+02  0.32043059371E+02 -0.13658975081E+01  0.48837678156E+02  0.10000000000E+01 0.  0.
<mgrwt>
<rscale>  0 0.12499745E+03</rscale>
<asrwt>0</asrwt>
<pdfrwt beam="1">  1        4 0.31596418E-01 0.12499745E+03</pdfrwt>
<pdfrwt beam="2">  1       -4 0.77265297E-02 0.12499745E+03</pdfrwt>
<totfact> 0.18187034E+03</totfact>
</mgrwt>
</event>
<event>
 5    1  0.1448308E-002  0.1249952E+03  0.7818608E-02  0.1235077E+00
          4   -1    0    0  501    0  0.00000000000E+00  0.00000000000E+00  0.94984267665E+02  0.94992757639E+02  0.12700000000E+01 0. -1.
         -4   -1    0    0    0  501 -0.00000000000E+00 -0.00000000000E+00 -0.41101947912E+02  0.41121563956E+02  0.12700000000E+01 0. -1.
         25    2    1    2    0    0  0.00000000000E+00  0.00000000000E+00  0.53882319753E+02  0.13611432160E+03  0.12499521655E+03 0.  0.
    9000005    1    3    3    0    0 -0.14999132774E+02 -0.16962136765E+02 -0.36483067531E+02  0.42949997486E+02  0.10000000000E+01 0.  0.
    9000005    1    3    3    0    0  0.14999132774E+02  0.16962136765E+02  0.90365387284E+02  0.93164324109E+02  0.10000000000E+01 0.  0.
<mgrwt>
<rscale>  0 0.12499522E+03</rscale>
<asrwt>0</asrwt>
<pdfrwt beam="1">  1        4 0.23749580E-01 0.12499522E+03</pdfrwt>
<pdfrwt beam="2">  1       -4 0.10279000E-01 0.12499522E+03</pdfrwt>
<totfact> 0.19243076E+03</totfact>
</mgrwt>
</event>
<event>
 5    1  0.1448308E-002  0.1249865E+03  0.7818608E-02  0.1235090E+00
          4   -1    0    0  501    0  0.00000000000E+00  0.00000000000E+00  0.14866437341E+02  0.14920585083E+02  0.12700000000E+01 0.  1.
         -4   -1    0    0    0  501 -0.00000000000E+00 -0.00000000000E+00 -0.26216621951E+03  0.26216929559E+03  0.12700000000E+01 0.  1.
         25    2    1    2    0    0  0.00000000000E+00  0.00000000000E+00 -0.24729978217E+03  0.27708988067E+03  0.12498647812E+03 0.  0.
    9000005    1    3    3    0    0 -0.23777899430E+02  0.50656114271E+02 -0.62013071350E+02  0.83534731894E+02  0.10000000000E+01 0.  0.
    9000005    1    3    3    0    0  0.23777899430E+02 -0.50656114271E+02 -0.18528671082E+03  0.19355514878E+03  0.10000000000E+01 0.  0.
<mgrwt>
<rscale>  0 0.12498648E+03</rscale>
<asrwt>0</asrwt>
<pdfrwt beam="1">  1        4 0.37237632E-02 0.12498648E+03</pdfrwt>
<pdfrwt beam="2">  1       -4 0.65548693E-01 0.12498648E+03</pdfrwt>
<totfact> 0.13642587E+03</totfact>
</mgrwt>
</event>
<event>
 5    1  0.1448308E-002  0.1249988E+03  0.7818608E-02  0.1235071E+00
          4   -1    0    0  501    0  0.00000000000E+00  0.00000000000E+00  0.35864548688E+03  0.35864773547E+03  0.12700000000E+01 0.  1.
         -4   -1    0    0    0  501 -0.00000000000E+00 -0.00000000000E+00 -0.10852148260E+02  0.10926208027E+02  0.12700000000E+01 0.  1.
         25    2    1    2    0    0  0.00000000000E+00  0.00000000000E+00  0.34779333862E+03  0.36957394350E+03  0.12499877329E+03 0.  0.
    9000005    1    3    3    0    0 -0.39066770440E+02  0.43469516266E+02  0.10849170920E+03  0.12323661129E+03  0.10000000000E+01 0.  0.
    9000005    1    3    3    0    0  0.39066770440E+02 -0.43469516266E+02  0.23930162942E+03  0.24633733221E+03  0.10000000000E+01 0.  0.
<mgrwt>
<rscale>  0 0.12499877E+03</rscale>
<asrwt>0</asrwt>
<pdfrwt beam="1">  1        4 0.89670916E-01 0.12499877E+03</pdfrwt>
<pdfrwt beam="2">  1       -4 0.27225754E-02 0.12499877E+03</pdfrwt>
<totfact> 0.11224320E+03</totfact>
</mgrwt>
</event>
<event>
 5    1  0.1448308E-002  0.1249968E+03  0.7818608E-02  0.1235074E+00
          4   -1    0    0  501    0  0.00000000000E+00  0.00000000000E+00  0.97992265486E+02  0.98000494872E+02  0.12700000000E+01 0.  1.
         -4   -1    0    0    0  501 -0.00000000000E+00 -0.00000000000E+00 -0.39840798017E+02  0.39861034691E+02  0.12700000000E+01 0.  1.
         25    2    1    2    0    0  0.00000000000E+00  0.00000000000E+00  0.58151467469E+02  0.13786152956E+03  0.12499683262E+03 0.  0.
    9000005    1    3    3    0    0 -0.46133501010E+02  0.14014082914E+02 -0.14769437431E+02  0.50436402701E+02  0.10000000000E+01 0.  0.
    9000005    1    3    3    0    0  0.46133501010E+02 -0.14014082914E+02  0.72920904900E+02  0.87425126862E+02  0.10000000000E+01 0.  0.
<mgrwt>
<rscale>  0 0.12499683E+03</rscale>
<asrwt>0</asrwt>
<pdfrwt beam="1">  1        4 0.24501624E-01 0.12499683E+03</pdfrwt>
<pdfrwt beam="2">  1       -4 0.99637578E-02 0.12499683E+03</pdfrwt>
<totfact> 0.19151698E+03</totfact>
</mgrwt>
</event>
<event>
 5    1  0.1448308E-002  0.1249984E+03  0.7818608E-02  0.1235072E+00
         -4   -1    0    0    0  501 -0.00000000000E+00  0.00000000000E+00  0.30594105529E+02  0.30620453836E+02  0.12700000000E+01 0.  1.
          4   -1    0    0  501    0  0.00000000000E+00 -0.00000000000E+00 -0.12759211957E+03  0.12759843995E+03  0.12700000000E+01 0.  1.
         25    2    1    2    0    0  0.00000000000E+00  0.00000000000E+00 -0.96998014043E+02  0.15821889378E+03  0.12499841448E+03 0.  0.
    9000005    1    3    3    0    0 -0.24859837228E+02  0.57208694012E+02 -0.43711674015E+02  0.76174514260E+02  0.10000000000E+01 0.  0.
    9000005    1    3    3    0    0  0.24859837228E+02 -0.57208694012E+02 -0.53286340028E+02  0.82044379522E+02  0.10000000000E+01 0.  0.
<mgrwt>
<rscale>  0 0.12499841E+03</rscale>
<asrwt>0</asrwt>
<pdfrwt beam="2">  1        4 0.31902112E-01 0.12499841E+03</pdfrwt>
<pdfrwt beam="1">  1       -4 0.76526103E-02 0.12499841E+03</pdfrwt>
<totfact> 0.18142568E+03</totfact>
</mgrwt>
</event>
<event>
 5    1  0.1448308E-002  0.1249989E+03  0.7818608E-02  0.1235071E+00
          4   -1    0    0  501    0  0.00000000000E+00  0.00000000000E+00  0.77637981247E+01  0.78669855295E+01  0.12700000000E+01 0.  1.
         -4   -1    0    0    0  501 -0.00000000000E+00 -0.00000000000E+00 -0.49970219358E+03  0.49970380744E+03  0.12700000000E+01 0.  1.
         25    2    1    2    0    0  0.00000000000E+00  0.00000000000E+00 -0.49193839546E+03  0.50757079297E+03  0.12499889980E+03 0.  0.
    9000005    1    3    3    0    0 -0.34292406382E+02  0.49816584114E+02 -0.30985371607E+03  0.31570237020E+03  0.10000000000E+01 0.  0.
    9000005    1    3    3    0    0  0.34292406382E+02 -0.49816584114E+02 -0.18208467939E+03  0.19186842277E+03  0.10000000000E+01 0.  0.
<mgrwt>
<rscale>  0 0.12499890E+03</rscale>
<asrwt>0</asrwt>
<pdfrwt beam="1">  1        4 0.19540514E-02 0.12499890E+03</pdfrwt>
<pdfrwt beam="2">  1       -4 0.12493854E+00 0.12499890E+03</pdfrwt>
<totfact> 0.86417420E+02</totfact>
</mgrwt>
</event>
<event>
 5    1  0.1448308E-002  0.1250033E+03  0.7818608E-02  0.1235064E+00
          4   -1    0    0  501    0  0.00000000000E+00  0.00000000000E+00  0.16257227634E+02  0.16306757812E+02  0.12700000000E+01 0.  1.
         -4   -1    0    0    0  501 -0.00000000000E+00 -0.00000000000E+00 -0.23987359503E+03  0.23987695699E+03  0.12700000000E+01 0.  1.
         25    2    1    2    0    0  0.00000000000E+00  0.00000000000E+00 -0.22361636740E+03  0.25618371480E+03  0.12500326380E+03 0.  0.
    9000005    1    3    3    0    0 -0.14069264129E+02 -0.29111493275E+01  0.12836680018E+02  0.19292468411E+02  0.10000000000E+01 0.  0.
    9000005    1    3    3    0    0  0.14069264129E+02  0.29111493275E+01 -0.23645304742E+03  0.23689124639E+03  0.10000000000E+01 0.  0.
<mgrwt>
<rscale>  0 0.12500326E+03</rscale>
<asrwt>0</asrwt>
<pdfrwt beam="1">  1        4 0.40709192E-02 0.12500326E+03</pdfrwt>
<pdfrwt beam="2">  1       -4 0.59974999E-01 0.12500326E+03</pdfrwt>
<totfact> 0.14293450E+03</totfact>
</mgrwt>
</event>
<event>
 5    1  0.1448308E-002  0.1249979E+03  0.7818608E-02  0.1235073E+00
         -4   -1    0    0    0  501 -0.00000000000E+00  0.00000000000E+00  0.21050918611E+02  0.21089193308E+02  0.12700000000E+01 0.  1.
          4   -1    0    0  501    0  0.00000000000E+00 -0.00000000000E+00 -0.18534664649E+03  0.18535099748E+03  0.12700000000E+01 0.  1.
         25    2    1    2    0    0  0.00000000000E+00  0.00000000000E+00 -0.16429572788E+03  0.20644019079E+03  0.12499786467E+03 0.  0.
    9000005    1    3    3    0    0 -0.18068566484E+02 -0.56716251221E+02 -0.11356684720E+03  0.12822493919E+03  0.10000000000E+01 0.  0.
    9000005    1    3    3    0    0  0.18068566484E+02  0.56716251221E+02 -0.50728880687E+02  0.78215251602E+02  0.10000000000E+01 0.  0.
<mgrwt>
<rscale>  0 0.12499786E+03</rscale>
<asrwt>0</asrwt>
<pdfrwt beam="2">  1        4 0.46341985E-01 0.12499786E+03</pdfrwt>
<pdfrwt beam="1">  1       -4 0.52680584E-02 0.12499786E+03</pdfrwt>
<totfact> 0.16068167E+03</totfact>
</mgrwt>
</event>
<event>
 5    1  0.1448308E-002  0.1249998E+03  0.7818608E-02  0.1235070E+00
          4   -1    0    0  501    0  0.00000000000E+00  0.00000000000E+00  0.53294297379E+02  0.53309427244E+02  0.12700000000E+01 0. -1.
         -4   -1    0    0    0  501 -0.00000000000E+00 -0.00000000000E+00 -0.73264599496E+02  0.73275606032E+02  0.12700000000E+01 0. -1.
         25    2    1    2    0    0  0.00000000000E+00  0.00000000000E+00 -0.19970302117E+02  0.12658503328E+03  0.12499983073E+03 0.  0.
    9000005    1    3    3    0    0 -0.18239924265E+02 -0.20510065586E+02  0.46868439295E+02  0.54323183167E+02  0.10000000000E+01 0.  0.
    9000005    1    3    3    0    0  0.18239924265E+02  0.20510065586E+02 -0.66838741412E+02  0.72261850108E+02  0.10000000000E+01 0.  0.
<mgrwt>
<rscale>  0 0.12499983E+03</rscale>
<asrwt>0</asrwt>
<pdfrwt beam="1">  1        4 0.13326841E-01 0.12499983E+03</pdfrwt>
<pdfrwt beam="2">  1       -4 0.18319417E-01 0.12499983E+03</pdfrwt>
<totfact> 0.19749417E+03</totfact>
</mgrwt>
</event>
<event>
 5    1  0.1448308E-002  0.1250162E+03  0.7818608E-02  0.1235044E+00
         -4   -1    0    0    0  501 -0.00000000000E+00  0.00000000000E+00  0.26241489163E+01  0.29153143115E+01  0.12700000000E+01 0. -1.
          4   -1    0    0  501    0  0.00000000000E+00 -0.00000000000E+00 -0.14104097113E+04  0.14104102830E+04  0.12700000000E+01 0. -1.
         25    2    1    2    0    0  0.00000000000E+00  0.00000000000E+00 -0.14077855623E+04  0.14133255974E+04  0.12501621734E+03 0.  0.
    9000005    1    3    3    0    0 -0.43029950106E+02 -0.33509981820E+02 -0.10489807385E+04  0.10503980604E+04  0.10000000000E+01 0.  0.
    9000005    1    3    3    0    0  0.43029950106E+02  0.33509981820E+02 -0.35880482380E+03  0.36292753694E+03  0.10000000000E+01 0.  0.
<mgrwt>
<rscale>  0 0.12501622E+03</rscale>
<asrwt>0</asrwt>
<pdfrwt beam="2">  1        4 0.35263643E+00 0.12501622E+03</pdfrwt>
<pdfrwt beam="1">  1       -4 0.69250921E-03 0.12501622E+03</pdfrwt>
<totfact> 0.15567926E+02</totfact>
</mgrwt>
</event>
<event>
 5    1  0.1448308E-002  0.1249986E+03  0.7818608E-02  0.1235071E+00
         -4   -1    0    0    0  501 -0.00000000000E+00  0.00000000000E+00  0.36274305220E+03  0.36274527540E+03  0.12700000000E+01 0. -1.
          4   -1    0    0  501    0  0.00000000000E+00 -0.00000000000E+00 -0.10728692503E+02  0.10803598605E+02  0.12700000000E+01 0. -1.
         25    2    1    2    0    0  0.00000000000E+00  0.00000000000E+00  0.35201435970E+03  0.37354887400E+03  0.12499860732E+03 0.  0.
    9000005    1    3    3    0    0  0.44195851009E+02 -0.25084927445E+02  0.67323972158E+02  0.84356647980E+02  0.10000000000E+01 0.  0.
    9000005    1    3    3    0    0 -0.44195851009E+02  0.25084927445E+02  0.28469038754E+03  0.28919222602E+03  0.10000000000E+01 0.  0.
<mgrwt>
<rscale>  0 0.12499861E+03</rscale>
<asrwt>0</asrwt>
<pdfrwt beam="2">  1        4 0.26918145E-02 0.12499861E+03</pdfrwt>
<pdfrwt beam="1">  1       -4 0.90695398E-01 0.12499861E+03</pdfrwt>
<totfact> 0.11135496E+03</totfact>
</mgrwt>
</event>
<event>
 5    1  0.1448308E-002  0.1250037E+03  0.7818608E-02  0.1235064E+00
         -4   -1    0    0    0  501 -0.00000000000E+00  0.00000000000E+00  0.19386898926E+02  0.19428452073E+02  0.12700000000E+01 0. -1.
          4   -1    0    0  501    0  0.00000000000E+00 -0.00000000000E+00 -0.20124177949E+03  0.20124578682E+03  0.12700000000E+01 0. -1.
         25    2    1    2    0    0  0.00000000000E+00  0.00000000000E+00 -0.18185488056E+03  0.22067423889E+03  0.12500368845E+03 0.  0.
    9000005    1    3    3    0    0  0.34290571486E+02  0.50350070974E+02 -0.66306927858E+02  0.90047663056E+02  0.10000000000E+01 0.  0.
    9000005    1    3    3    0    0 -0.34290571486E+02 -0.50350070974E+02 -0.11554795271E+03  0.13062657584E+03  0.10000000000E+01 0.  0.
<mgrwt>
<rscale>  0 0.12500369E+03</rscale>
<asrwt>0</asrwt>
<pdfrwt beam="2">  1        4 0.50316133E-01 0.12500369E+03</pdfrwt>
<pdfrwt beam="1">  1       -4 0.48524204E-02 0.12500369E+03</pdfrwt>
<totfact> 0.15525047E+03</totfact>
</mgrwt>
</event>
<event>
 5    1  0.1448308E-002  0.1249930E+03  0.7818608E-02  0.1235080E+00
          4   -1    0    0  501    0  0.00000000000E+00  0.00000000000E+00  0.72300896902E+02  0.72312050122E+02  0.12700000000E+01 0.  1.
         -4   -1    0    0    0  501 -0.00000000000E+00 -0.00000000000E+00 -0.53998874452E+02  0.54013806958E+02  0.12700000000E+01 0.  1.
         25    2    1    2    0    0  0.00000000000E+00  0.00000000000E+00  0.18302022450E+02  0.12632585708E+03  0.12499303237E+03 0.  0.
    9000005    1    3    3    0    0  0.48583188090E+02 -0.17051671394E+02 -0.26634585459E+02  0.57978330477E+02  0.10000000000E+01 0.  0.
    9000005    1    3    3    0    0 -0.48583188090E+02  0.17051671394E+02  0.44936607909E+02  0.68347526603E+02  0.10000000000E+01 0.  0.
<mgrwt>
<rscale>  0 0.12499303E+03</rscale>
<asrwt>0</asrwt>
<pdfrwt beam="1">  1        4 0.18078485E-01 0.12499303E+03</pdfrwt>
<pdfrwt beam="2">  1       -4 0.13502979E-01 0.12499303E+03</pdfrwt>
<totfact> 0.19766543E+03</totfact>
</mgrwt>
</event>
<event>
 5    1  0.1448308E-002  0.1250010E+03  0.7818608E-02  0.1235068E+00
         -4   -1    0    0    0  501 -0.00000000000E+00  0.00000000000E+00  0.63775360700E+02  0.63788004613E+02  0.12700000000E+01 0.  1.
          4   -1    0    0  501    0  0.00000000000E+00 -0.00000000000E+00 -0.61225841668E+02  0.61239011978E+02  0.12700000000E+01 0.  1.
         25    2    1    2    0    0  0.00000000000E+00  0.00000000000E+00  0.25495190319E+01  0.12502701659E+03  0.12500101932E+03 0.  0.
    9000005    1    3    3    0    0 -0.40073472100E+02  0.35546626283E+02 -0.30916835947E+02  0.61857065492E+02  0.10000000000E+01 0.  0.
    9000005    1    3    3    0    0  0.40073472100E+02 -0.35546626283E+02  0.33466354979E+02  0.63169951099E+02  0.10000000000E+01 0.  0.
<mgrwt>
<rscale>  0 0.12500102E+03</rscale>
<asrwt>0</asrwt>
<pdfrwt beam="2">  1        4 0.15309687E-01 0.12500102E+03</pdfrwt>
<pdfrwt beam="1">  1       -4 0.15947067E-01 0.12500102E+03</pdfrwt>
<totfact> 0.19833117E+03</totfact>
</mgrwt>
</event>
<event>
 5    1  0.1448308E-002  0.1249947E+03  0.7818608E-02  0.1235078E+00
         -4   -1    0    0    0  501 -0.00000000000E+00  0.00000000000E+00  0.19930897571E+03  0.19931302190E+03  0.12700000000E+01 0.  1.
          4   -1    0    0  501    0  0.00000000000E+00 -0.00000000000E+00 -0.19572471389E+02  0.19613631389E+02  0.12700000000E+01 0.  1.
         25    2    1    2    0    0  0.00000000000E+00  0.00000000000E+00  0.17973650432E+03  0.21892665329E+03  0.12499467402E+03 0.  0.
    9000005    1    3    3    0    0 -0.59095525611E+01  0.43005677257E+02  0.11138804072E+02  0.44827268977E+02  0.10000000000E+01 0.  0.
    9000005    1    3    3    0    0  0.59095525611E+01 -0.43005677257E+02  0.16859770025E+03  0.17409938431E+03  0.10000000000E+01 0.  0.
<mgrwt>
<rscale>  0 0.12499467E+03</rscale>
<asrwt>0</asrwt>
<pdfrwt beam="2">  1        4 0.48987687E-02 0.12499467E+03</pdfrwt>
<pdfrwt beam="1">  1       -4 0.49832894E-01 0.12499467E+03</pdfrwt>
<totfact> 0.15593144E+03</totfact>
</mgrwt>
</event>
<event>
 5    1  0.1448308E-002  0.1249981E+03  0.7818608E-02  0.1235072E+00
         -4   -1    0    0    0  501 -0.00000000000E+00  0.00000000000E+00  0.34650461228E+02  0.34673727277E+02  0.12700000000E+01 0.  1.
          4   -1    0    0  501    0  0.00000000000E+00 -0.00000000000E+00 -0.11266480593E+03  0.11267196367E+03  0.12700000000E+01 0.  1.
         25    2    1    2    0    0  0.00000000000E+00  0.00000000000E+00 -0.78014344706E+02  0.14734569094E+03  0.12499805862E+03 0.  0.
    9000005    1    3    3    0    0  0.29392188866E+02 -0.52270627052E+02 -0.18285726780E+02  0.62701571134E+02  0.10000000000E+01 0.  0.
    9000005    1    3    3    0    0 -0.29392188866E+02  0.52270627052E+02 -0.59728617926E+02  0.84644119809E+02  0.10000000000E+01 0.  0.
<mgrwt>
<rscale>  0 0.12499806E+03</rscale>
<asrwt>0</asrwt>
<pdfrwt beam="2">  1        4 0.28170004E-01 0.12499806E+03</pdfrwt>
<pdfrwt beam="1">  1       -4 0.86664185E-02 0.12499806E+03</pdfrwt>
<totfact> 0.18670912E+03</totfact>
</mgrwt>
</event>
<event>
 5    1  0.1448308E-002  0.1250013E+03  0.7818608E-02  0.1235067E+00
         -4   -1    0    0    0  501 -0.00000000000E+00  0.00000000000E+00  0.49567132729E+02  0.49583399914E+02  0.12700000000E+01 0. -1.
          4   -1    0    0  501    0  0.00000000000E+00 -0.00000000000E+00 -0.78774635785E+02  0.78784872552E+02  0.12700000000E+01 0. -1.
         25    2    1    2    0    0  0.00000000000E+00  0.00000000000E+00 -0.29207503056E+02  0.12836827247E+03  0.12500134056E+03 0.  0.
    9000005    1    3    3    0    0 -0.50184126602E+01  0.33662417607E+02  0.39219712022E+02  0.51937738070E+02  0.10000000000E+01 0.  0.
    9000005    1    3    3    0    0  0.50184126602E+01 -0.33662417607E+02 -0.68427215078E+02  0.76430534396E+02  0.10000000000E+01 0.  0.
<mgrwt>
<rscale>  0 0.12500134E+03</rscale>
<asrwt>0</asrwt>
<pdfrwt beam="2">  1        4 0.19696972E-01 0.12500134E+03</pdfrwt>
<pdfrwt beam="1">  1       -4 0.12395096E-01 0.12500134E+03</pdfrwt>
<totfact> 0.19651905E+03</totfact>
</mgrwt>
</event>
<event>
 5    1  0.1448308E-002  0.1250002E+03  0.7818608E-02  0.1235069E+00
          4   -1    0    0  501    0  0.00000000000E+00  0.00000000000E+00  0.22492125780E+02  0.22527952017E+02  0.12700000000E+01 0. -1.
         -4   -1    0    0    0  501 -0.00000000000E+00 -0.00000000000E+00 -0.17349611076E+03  0.17350075893E+03  0.12700000000E+01 0. -1.
         25    2    1    2    0    0  0.00000000000E+00  0.00000000000E+00 -0.15100398498E+03  0.19602871095E+03  0.12500020814E+03 0.  0.
    9000005    1    3    3    0    0  0.10042576341E+02  0.36823381677E+02 -0.15310068628E+03  0.15778984415E+03  0.10000000000E+01 0.  0.
    9000005    1    3    3    0    0 -0.10042576341E+02 -0.36823381677E+02  0.20967012968E+01  0.38238866798E+02  0.10000000000E+01 0.  0.
<mgrwt>
<rscale>  0 0.12500021E+03</rscale>
<asrwt>0</asrwt>
<pdfrwt beam="1">  1        4 0.56280913E-02 0.12500021E+03</pdfrwt>
<pdfrwt beam="2">  1       -4 0.43379083E-01 0.12500021E+03</pdfrwt>
<totfact> 0.16482223E+03</totfact>
</mgrwt>
</event>
<event>
 5    1  0.1448308E-002  0.1250000E+03  0.7818608E-02  0.1235069E+00
         -4   -1    0    0    0  501 -0.00000000000E+00  0.00000000000E+00  0.10508640203E+03  0.10509407591E+03  0.12700000000E+01 0.  1.
          4   -1    0    0  501    0  0.00000000000E+00 -0.00000000000E+00 -0.37151904327E+02  0.37173604818E+02  0.12700000000E+01 0.  1.
         25    2    1    2    0    0  0.00000000000E+00  0.00000000000E+00  0.67934497705E+02  0.14226768073E+03  0.12499998801E+03 0.  0.
    9000005    1    3    3    0    0  0.62119380018E+02 -0.62284045093E+01  0.30821598951E+02  0.69631755388E+02  0.10000000000E+01 0.  0.
    9000005    1    3    3    0    0 -0.62119380018E+02  0.62284045093E+01  0.37112898754E+02  0.72635925343E+02  0.10000000000E+01 0.  0.
<mgrwt>
<rscale>  0 0.12499999E+03</rscale>
<asrwt>0</asrwt>
<pdfrwt beam="2">  1        4 0.92916480E-02 0.12499999E+03</pdfrwt>
<pdfrwt beam="1">  1       -4 0.26275272E-01 0.12499999E+03</pdfrwt>
<totfact> 0.18924931E+03</totfact>
</mgrwt>
</event>
<event>
 5    1  0.1448308E-002  0.1250321E+03  0.7818608E-02  0.1235019E+00
          4   -1    0    0  501    0  0.00000000000E+00  0.00000000000E+00  0.27407353355E+03  0.27407647599E+03  0.12700000000E+01 0.  1.
         -4   -1    0    0    0  501 -0.00000000000E+00 -0.00000000000E+00 -0.14228589206E+02  0.14285154910E+02  0.12700000000E+01 0.  1.
         25    2    1    2    0    0  0.00000000000E+00  0.00000000000E+00  0.25984494434E+03  0.28836163090E+03  0.12503213617E+03 0.  0.
    9000005    1    3    3    0    0 -0.30129902350E+02 -0.46712998144E+02  0.19585779606E+03  0.20359565685E+03  0.10000000000E+01 0.  0.
    9000005    1    3    3    0    0  0.30129902350E+02  0.46712998144E+02  0.63987148280E+02  0.84765974048E+02  0.10000000000E+01 0.  0.
<mgrwt>
<rscale>  0 0.12503214E+03</rscale>
<asrwt>0</asrwt>
<pdfrwt beam="1">  1        4 0.68525823E-01 0.12503214E+03</pdfrwt>
<pdfrwt beam="2">  1       -4 0.35645858E-02 0.12503214E+03</pdfrwt>
<totfact> 0.13293829E+03</totfact>
</mgrwt>
</event>
<event>
 5    1  0.1448308E-002  0.1249836E+03  0.7818608E-02  0.1235095E+00
          4   -1    0    0  501    0  0.00000000000E+00  0.00000000000E+00  0.12447317931E+03  0.12447965805E+03  0.12700000000E+01 0.  1.
         -4   -1    0    0    0  501 -0.00000000000E+00 -0.00000000000E+00 -0.31353869931E+02  0.31379580297E+02  0.12700000000E+01 0.  1.
         25    2    1    2    0    0  0.00000000000E+00  0.00000000000E+00  0.93119309380E+02  0.15585923835E+03  0.12498358451E+03 0.  0.
    9000005    1    3    3    0    0 -0.57421801620E+02 -0.23044697302E+02  0.35695191915E+02  0.71438561722E+02  0.10000000000E+01 0.  0.
    9000005    1    3    3    0    0  0.57421801620E+02  0.23044697302E+02  0.57424117465E+02  0.84420676624E+02  0.10000000000E+01 0.  0.
<mgrwt>
<rscale>  0 0.12498358E+03</rscale>
<asrwt>0</asrwt>
<pdfrwt beam="1">  1        4 0.31122318E-01 0.12498358E+03</pdfrwt>
<pdfrwt beam="2">  1       -4 0.78424912E-02 0.12498358E+03</pdfrwt>
<totfact> 0.18261353E+03</totfact>
</mgrwt>
</event>
<event>
 5    1  0.1448308E-002  0.1250003E+03  0.7818608E-02  0.1235069E+00
         -4   -1    0    0    0  501 -0.00000000000E+00  0.00000000000E+00  0.11606063975E+03  0.11606758807E+03  0.12700000000E+01 0. -1.
          4   -1    0    0  501    0  0.00000000000E+00 -0.00000000000E+00 -0.33637213557E+02  0.33661179954E+02  0.12700000000E+01 0. -1.
         25    2    1    2    0    0  0.00000000000E+00  0.00000000000E+00  0.82423426196E+02  0.14972876802E+03  0.12500033115E+03 0.  0.
    9000005    1    3    3    0    0 -0.21185542565E+02 -0.27468032770E+02 -0.21051681491E+02  0.40589325341E+02  0.10000000000E+01 0.  0.
    9000005    1    3    3    0    0  0.21185542565E+02  0.27468032770E+02  0.10347510769E+03  0.10913944268E+03  0.10000000000E+01 0.  0.
<mgrwt>
<rscale>  0 0.12500033E+03</rscale>
<asrwt>0</asrwt>
<pdfrwt beam="2">  1        4 0.84131678E-02 0.12500033E+03</pdfrwt>
<pdfrwt beam="1">  1       -4 0.29019024E-01 0.12500033E+03</pdfrwt>
<totfact> 0.18551982E+03</totfact>
</mgrwt>
</event>
<event>
 5    1  0.1448308E-002  0.1250005E+03  0.7818608E-02  0.1235069E+00
         -4   -1    0    0    0  501 -0.00000000000E+00  0.00000000000E+00  0.10053583422E+03  0.10054385542E+03  0.12700000000E+01 0.  1.
          4   -1    0    0  501    0  0.00000000000E+00 -0.00000000000E+00 -0.38834638505E+02  0.38855399211E+02  0.12700000000E+01 0.  1.
         25    2    1    2    0    0  0.00000000000E+00  0.00000000000E+00  0.61701195713E+02  0.13939925463E+03  0.12500045855E+03 0.  0.
    9000005    1    3    3    0    0 -0.42357064816E+02 -0.31487760017E+02  0.68166637994E+02  0.86216532673E+02  0.10000000000E+01 0.  0.
    9000005    1    3    3    0    0  0.42357064816E+02  0.31487760017E+02 -0.64654422806E+01  0.53182721955E+02  0.10000000000E+01 0.  0.
<mgrwt>
<rscale>  0 0.12500046E+03</rscale>
<asrwt>0</asrwt>
<pdfrwt beam="2">  1        4 0.97122575E-02 0.12500046E+03</pdfrwt>
<pdfrwt beam="1">  1       -4 0.25137556E-01 0.12500046E+03</pdfrwt>
<totfact> 0.19070914E+03</totfact>
</mgrwt>
</event>
<event>
 5    1  0.1448308E-002  0.1250013E+03  0.7818608E-02  0.1235067E+00
         -4   -1    0    0    0  501 -0.00000000000E+00  0.00000000000E+00  0.95619813258E+03  0.95619897597E+03  0.12700000000E+01 0. -1.
          4   -1    0    0  501    0  0.00000000000E+00 -0.00000000000E+00 -0.39857048534E+01  0.41831499110E+01  0.12700000000E+01 0. -1.
         25    2    1    2    0    0  0.00000000000E+00  0.00000000000E+00  0.95221242773E+03  0.96038212589E+03  0.12500128079E+03 0.  0.
    9000005    1    3    3    0    0 -0.38146097901E+01 -0.60663678603E+02  0.36458469421E+03  0.36961822521E+03  0.10000000000E+01 0.  0.
    9000005    1    3    3    0    0  0.38146097901E+01  0.60663678603E+02  0.58762773352E+03  0.59076390068E+03  0.10000000000E+01 0.  0.
<mgrwt>
<rscale>  0 0.12500128E+03</rscale>
<asrwt>0</asrwt>
<pdfrwt beam="2">  1        4 0.10212125E-02 0.12500128E+03</pdfrwt>
<pdfrwt beam="1">  1       -4 0.23907427E+00 0.12500128E+03</pdfrwt>
<totfact> 0.39837559E+02</totfact>
</mgrwt>
</event>
<event>
 5    1  0.1448308E-002  0.1250023E+03  0.7818608E-02  0.1235066E+00
          4   -1    0    0  501    0  0.00000000000E+00  0.00000000000E+00  0.98401048142E+01  0.99217217636E+01  0.12700000000E+01 0.  1.
         -4   -1    0    0    0  501 -0.00000000000E+00 -0.00000000000E+00 -0.39526493984E+03  0.39526698011E+03  0.12700000000E+01 0.  1.
         25    2    1    2    0    0  0.00000000000E+00  0.00000000000E+00 -0.38542483503E+03  0.40518870188E+03  0.12500232267E+03 0.  0.
    9000005    1    3    3    0    0 -0.37923554501E+02  0.12083254170E+02 -0.34888147103E+03  0.35114595519E+03  0.10000000000E+01 0.  0.
    9000005    1    3    3    0    0  0.37923554501E+02 -0.12083254170E+02 -0.36543363997E+02  0.54042746688E+02  0.10000000000E+01 0.  0.
<mgrwt>
<rscale>  0 0.12500232E+03</rscale>
<asrwt>0</asrwt>
<pdfrwt beam="1">  1        4 0.24704847E-02 0.12500232E+03</pdfrwt>
<pdfrwt beam="2">  1       -4 0.98826639E-01 0.12500232E+03</pdfrwt>
<totfact> 0.10462547E+03</totfact>
</mgrwt>
</event>
<event>
 5    1  0.1448308E-002  0.1250139E+03  0.7818608E-02  0.1235048E+00
          4   -1    0    0  501    0  0.00000000000E+00  0.00000000000E+00  0.25032222779E+02  0.25064418550E+02  0.12700000000E+01 0. -1.
         -4   -1    0    0    0  501 -0.00000000000E+00 -0.00000000000E+00 -0.15594853040E+03  0.15595370157E+03  0.12700000000E+01 0. -1.
         25    2    1    2    0    0  0.00000000000E+00  0.00000000000E+00 -0.13091630762E+03  0.18101812012E+03  0.12501392007E+03 0.  0.
    9000005    1    3    3    0    0 -0.12076066510E+02 -0.22921097909E+02  0.16897782363E+02  0.30947425749E+02  0.10000000000E+01 0.  0.
    9000005    1    3    3    0    0  0.12076066510E+02  0.22921097909E+02 -0.14781408998E+03  0.15007069437E+03  0.10000000000E+01 0.  0.
<mgrwt>
<rscale>  0 0.12501392E+03</rscale>
<asrwt>0</asrwt>
<pdfrwt beam="1">  1        4 0.62627270E-02 0.12501392E+03</pdfrwt>
<pdfrwt beam="2">  1       -4 0.38991801E-01 0.12501392E+03</pdfrwt>
<totfact> 0.17105716E+03</totfact>
</mgrwt>
</event>
<event>
 5    1  0.1448308E-002  0.1250014E+03  0.7818608E-02  0.1235067E+00
         -4   -1    0    0    0  501 -0.00000000000E+00  0.00000000000E+00  0.35476829683E+02  0.35499554143E+02  0.12700000000E+01 0.  1.
          4   -1    0    0  501    0  0.00000000000E+00 -0.00000000000E+00 -0.11004788554E+03  0.11005521347E+03  0.12700000000E+01 0.  1.
         25    2    1    2    0    0  0.00000000000E+00  0.00000000000E+00 -0.74571055857E+02  0.14555476761E+03  0.12500139200E+03 0.  0.
    9000005    1    3    3    0    0  0.15934521459E+02 -0.44027180016E+02  0.10908670419E+02  0.48086387311E+02  0.10000000000E+01 0.  0.
    9000005    1    3    3    0    0 -0.15934521459E+02  0.44027180016E+02 -0.85479726276E+02  0.97468380301E+02  0.10000000000E+01 0.  0.
<mgrwt>
<rscale>  0 0.12500139E+03</rscale>
<asrwt>0</asrwt>
<pdfrwt beam="2">  1        4 0.27515727E-01 0.12500139E+03</pdfrwt>
<pdfrwt beam="1">  1       -4 0.88729642E-02 0.12500139E+03</pdfrwt>
<totfact> 0.18758927E+03</totfact>
</mgrwt>
</event>
<event>
 5    1  0.1448308E-002  0.1250007E+03  0.7818608E-02  0.1235068E+00
          4   -1    0    0  501    0  0.00000000000E+00  0.00000000000E+00  0.18438627094E+02  0.18482312331E+02  0.12700000000E+01 0. -1.
         -4   -1    0    0    0  501 -0.00000000000E+00 -0.00000000000E+00 -0.21155747449E+03  0.21156128642E+03  0.12700000000E+01 0. -1.
         25    2    1    2    0    0  0.00000000000E+00  0.00000000000E+00 -0.19311884740E+03  0.23004359875E+03  0.12500067243E+03 0.  0.
    9000005    1    3    3    0    0  0.38786819673E+02 -0.44768994853E+02 -0.59908865789E+02  0.84254094741E+02  0.10000000000E+01 0.  0.
    9000005    1    3    3    0    0 -0.38786819673E+02  0.44768994853E+02 -0.13320998161E+03  0.14578950401E+03  0.10000000000E+01 0.  0.
<mgrwt>
<rscale>  0 0.12500067E+03</rscale>
<asrwt>0</asrwt>
<pdfrwt beam="1">  1        4 0.46155946E-02 0.12500067E+03</pdfrwt>
<pdfrwt beam="2">  1       -4 0.52895298E-01 0.12500067E+03</pdfrwt>
<totfact> 0.15185519E+03</totfact>
</mgrwt>
</event>
<event>
 5    1  0.1448308E-002  0.1250002E+03  0.7818608E-02  0.1235069E+00
         -4   -1    0    0    0  501 -0.00000000000E+00  0.00000000000E+00  0.19263101837E+03  0.19263520483E+03  0.12700000000E+01 0.  1.
          4   -1    0    0  501    0  0.00000000000E+00 -0.00000000000E+00 -0.20254161616E+02  0.20293939064E+02  0.12700000000E+01 0.  1.
         25    2    1    2    0    0  0.00000000000E+00  0.00000000000E+00  0.17237685676E+03  0.21292914389E+03  0.12500015829E+03 0.  0.
    9000005    1    3    3    0    0 -0.20942897113E+02  0.48051565656E+02  0.28229154591E+02  0.59543623256E+02  0.10000000000E+01 0.  0.
    9000005    1    3    3    0    0  0.20942897113E+02 -0.48051565656E+02  0.14414770217E+03  0.15338552064E+03  0.10000000000E+01 0.  0.
<mgrwt>
<rscale>  0 0.12500016E+03</rscale>
<asrwt>0</asrwt>
<pdfrwt beam="2">  1        4 0.50690360E-02 0.12500016E+03</pdfrwt>
<pdfrwt beam="1">  1       -4 0.48163249E-01 0.12500016E+03</pdfrwt>
<totfact> 0.15817046E+03</totfact>
</mgrwt>
</event>
<event>
 5    1  0.1448308E-002  0.1250023E+03  0.7818608E-02  0.1235066E+00
          4   -1    0    0  501    0  0.00000000000E+00  0.00000000000E+00  0.20777010477E+02  0.20815788824E+02  0.12700000000E+01 0.  1.
         -4   -1    0    0    0  501 -0.00000000000E+00 -0.00000000000E+00 -0.18779911245E+03  0.18780340662E+03  0.12700000000E+01 0.  1.
         25    2    1    2    0    0  0.00000000000E+00  0.00000000000E+00 -0.16702210198E+03  0.20861919545E+03  0.12500234461E+03 0.  0.
    9000005    1    3    3    0    0  0.78291118303E+01 -0.61561189438E+02 -0.95811529172E+02  0.11415745337E+03  0.10000000000E+01 0.  0.
    9000005    1    3    3    0    0 -0.78291118303E+01  0.61561189438E+02 -0.71210572806E+02  0.94461742078E+02  0.10000000000E+01 0.  0.
<mgrwt>
<rscale>  0 0.12500234E+03</rscale>
<asrwt>0</asrwt>
<pdfrwt beam="1">  1        4 0.51996372E-02 0.12500234E+03</pdfrwt>
<pdfrwt beam="2">  1       -4 0.46955157E-01 0.12500234E+03</pdfrwt>
<totfact> 0.15981771E+03</totfact>
</mgrwt>
</event>
<event>
 5    1  0.1448308E-002  0.1250009E+03  0.7818608E-02  0.1235068E+00
          4   -1    0    0  501    0  0.00000000000E+00  0.00000000000E+00  0.40952462449E+02  0.40972150061E+02  0.12700000000E+01 0.  1.
         -4   -1    0    0    0  501 -0.00000000000E+00 -0.00000000000E+00 -0.95339511470E+02  0.95347969812E+02  0.12700000000E+01 0.  1.
         25    2    1    2    0    0  0.00000000000E+00  0.00000000000E+00 -0.54387049021E+02  0.13632011987E+03  0.12500089592E+03 0.  0.
    9000005    1    3    3    0    0 -0.32283844437E+02  0.45983595464E+01  0.30943437743E+02  0.44965407387E+02  0.10000000000E+01 0.  0.
    9000005    1    3    3    0    0  0.32283844437E+02 -0.45983595464E+01 -0.85330486764E+02  0.91354712486E+02  0.10000000000E+01 0.  0.
<mgrwt>
<rscale>  0 0.12500090E+03</rscale>
<asrwt>0</asrwt>
<pdfrwt beam="1">  1        4 0.10241634E-01 0.12500090E+03</pdfrwt>
<pdfrwt beam="2">  1       -4 0.23838396E-01 0.12500090E+03</pdfrwt>
<totfact> 0.19229811E+03</totfact>
</mgrwt>
</event>
<event>
 5    1  0.1448308E-002  0.1250013E+03  0.7818608E-02  0.1235067E+00
          4   -1    0    0  501    0  0.00000000000E+00  0.00000000000E+00  0.16523886335E+02  0.16572619576E+02  0.12700000000E+01 0.  1.
         -4   -1    0    0    0  501 -0.00000000000E+00 -0.00000000000E+00 -0.23600675962E+03  0.23601017666E+03  0.12700000000E+01 0.  1.
         25    2    1    2    0    0  0.00000000000E+00  0.00000000000E+00 -0.21948287329E+03  0.25258279624E+03  0.12500134914E+03 0.  0.
    9000005    1    3    3    0    0 -0.34542785470E+02  0.97844491822E+01 -0.21309863035E+03  0.21610406227E+03  0.10000000000E+01 0.  0.
    9000005    1    3    3    0    0  0.34542785470E+02 -0.97844491822E+01 -0.63842429408E+01  0.36478733966E+02  0.10000000000E+01 0.  0.
<mgrwt>
<rscale>  0 0.12500135E+03</rscale>
<asrwt>0</asrwt>
<pdfrwt beam="1">  1        4 0.41374911E-02 0.12500135E+03</pdfrwt>
<pdfrwt beam="2">  1       -4 0.59008198E-01 0.12500135E+03</pdfrwt>
<totfact> 0.14412016E+03</totfact>
</mgrwt>
</event>
<event>
 5    1  0.1448308E-002  0.1250001E+03  0.7818608E-02  0.1235069E+00
          4   -1    0    0  501    0  0.00000000000E+00  0.00000000000E+00  0.26559376182E+02  0.26589722886E+02  0.12700000000E+01 0. -1.
         -4   -1    0    0    0  501 -0.00000000000E+00 -0.00000000000E+00 -0.14695921354E+03  0.14696470101E+03  0.12700000000E+01 0. -1.
         25    2    1    2    0    0  0.00000000000E+00  0.00000000000E+00 -0.12039983736E+03  0.17355442390E+03  0.12500006888E+03 0.  0.
    9000005    1    3    3    0    0 -0.10163552464E+02 -0.29673357992E+02 -0.13524539888E+03  0.13883848131E+03  0.10000000000E+01 0.  0.
    9000005    1    3    3    0    0  0.10163552464E+02  0.29673357992E+02  0.14845561523E+02  0.34715942594E+02  0.10000000000E+01 0.  0.
<mgrwt>
<rscale>  0 0.12500007E+03</rscale>
<asrwt>0</asrwt>
<pdfrwt beam="1">  1        4 0.66443237E-02 0.12500007E+03</pdfrwt>
<pdfrwt beam="2">  1       -4 0.36744280E-01 0.12500007E+03</pdfrwt>
<totfact> 0.17437881E+03</totfact>
</mgrwt>
</event>
<event>
 5    1  0.1448308E-002  0.1250023E+03  0.7818608E-02  0.1235066E+00
         -4   -1    0    0    0  501 -0.00000000000E+00  0.00000000000E+00  0.54648839638E+03  0.54648987207E+03  0.12700000000E+01 0.  1.
          4   -1    0    0  501    0  0.00000000000E+00 -0.00000000000E+00 -0.70902719880E+01  0.72031143865E+01  0.12700000000E+01 0.  1.
         25    2    1    2    0    0  0.00000000000E+00  0.00000000000E+00  0.53939812439E+03  0.55369298646E+03  0.12500234660E+03 0.  0.
    9000005    1    3    3    0    0 -0.47219193214E+02  0.35907080052E+02  0.18262595166E+03  0.19202137596E+03  0.10000000000E+01 0.  0.
    9000005    1    3    3    0    0  0.47219193214E+02 -0.35907080052E+02  0.35677217273E+03  0.36167161050E+03  0.10000000000E+01 0.  0.
<mgrwt>
<rscale>  0 0.12500235E+03</rscale>
<asrwt>0</asrwt>
<pdfrwt beam="2">  1        4 0.17868578E-02 0.12500235E+03</pdfrwt>
<pdfrwt beam="1">  1       -4 0.13663638E+00 0.12500235E+03</pdfrwt>
<totfact> 0.79650304E+02</totfact>
</mgrwt>
</event>
<event>
 5    1  0.1448308E-002  0.1250025E+03  0.7818608E-02  0.1235065E+00
          4   -1    0    0  501    0  0.00000000000E+00  0.00000000000E+00  0.12505253498E+02  0.12569576964E+02  0.12700000000E+01 0.  1.
         -4   -1    0    0    0  501 -0.00000000000E+00 -0.00000000000E+00 -0.31151421403E+03  0.31151680283E+03  0.12700000000E+01 0.  1.
         25    2    1    2    0    0  0.00000000000E+00  0.00000000000E+00 -0.29900896053E+03  0.32408637979E+03  0.12500249232E+03 0.  0.
    9000005    1    3    3    0    0  0.22823881838E+02 -0.57606913262E+02 -0.17055437023E+03  0.18146426437E+03  0.10000000000E+01 0.  0.
    9000005    1    3    3    0    0 -0.22823881838E+02  0.57606913262E+02 -0.12845459030E+03  0.14262211542E+03  0.10000000000E+01 0.  0.
<mgrwt>
<rscale>  0 0.12500249E+03</rscale>
<asrwt>0</asrwt>
<pdfrwt beam="1">  1        4 0.31346784E-02 0.12500249E+03</pdfrwt>
<pdfrwt beam="2">  1       -4 0.77886892E-01 0.12500249E+03</pdfrwt>
<totfact> 0.12321166E+03</totfact>
</mgrwt>
</event>
<event>
 5    1  0.1448308E-002  0.1250001E+03  0.7818608E-02  0.1235069E+00
          4   -1    0    0  501    0  0.00000000000E+00  0.00000000000E+00  0.28756254479E+02  0.28784285151E+02  0.12700000000E+01 0.  1.
         -4   -1    0    0    0  501 -0.00000000000E+00 -0.00000000000E+00 -0.13574310538E+03  0.13574904625E+03  0.12700000000E+01 0.  1.
         25    2    1    2    0    0  0.00000000000E+00  0.00000000000E+00 -0.10698685090E+03  0.16453333141E+03  0.12500012351E+03 0.  0.
    9000005    1    3    3    0    0  0.33169118441E+02 -0.25786005217E+02  0.73993091944E+01  0.42671515789E+02  0.10000000000E+01 0.  0.
    9000005    1    3    3    0    0 -0.33169118441E+02  0.25786005217E+02 -0.11438616010E+03  0.12186181562E+03  0.10000000000E+01 0.  0.
<mgrwt>
<rscale>  0 0.12500012E+03</rscale>
<asrwt>0</asrwt>
<pdfrwt beam="1">  1        4 0.71933104E-02 0.12500012E+03</pdfrwt>
<pdfrwt beam="2">  1       -4 0.33940021E-01 0.12500012E+03</pdfrwt>
<totfact> 0.17846422E+03</totfact>
</mgrwt>
</event>
<event>
 5    1  0.1448308E-002  0.1249975E+03  0.7818608E-02  0.1235073E+00
         -4   -1    0    0    0  501 -0.00000000000E+00  0.00000000000E+00  0.17834072035E+03  0.17834524225E+03  0.12700000000E+01 0. -1.
          4   -1    0    0  501    0  0.00000000000E+00 -0.00000000000E+00 -0.21879214216E+02  0.21916042405E+02  0.12700000000E+01 0. -1.
         25    2    1    2    0    0  0.00000000000E+00  0.00000000000E+00  0.15646150613E+03  0.20026128466E+03  0.12499751690E+03 0.  0.
    9000005    1    3    3    0    0 -0.50169888679E+02  0.34201015996E+02  0.54555769001E+02  0.81633688857E+02  0.10000000000E+01 0.  0.
    9000005    1    3    3    0    0  0.50169888679E+02 -0.34201015996E+02  0.10190573713E+03  0.11862759580E+03  0.10000000000E+01 0.  0.
<mgrwt>
<rscale>  0 0.12499752E+03</rscale>
<asrwt>0</asrwt>
<pdfrwt beam="2">  1        4 0.54749724E-02 0.12499752E+03</pdfrwt>
<pdfrwt beam="1">  1       -4 0.44590348E-01 0.12499752E+03</pdfrwt>
<totfact> 0.16312521E+03</totfact>
</mgrwt>
</event>
<event>
 5    1  0.1448308E-002  0.1250035E+03  0.7818608E-02  0.1235064E+00
         -4   -1    0    0    0  501 -0.00000000000E+00  0.00000000000E+00  0.17299055837E+03  0.17299522013E+03  0.12700000000E+01 0.  1.
          4   -1    0    0  501    0  0.00000000000E+00 -0.00000000000E+00 -0.22559139387E+02  0.22594859368E+02  0.12700000000E+01 0.  1.
         25    2    1    2    0    0  0.00000000000E+00  0.00000000000E+00  0.15043141899E+03  0.19559007949E+03  0.12500346946E+03 0.  0.
    9000005    1    3    3    0    0 -0.14479052622E+02 -0.54586090948E+02  0.11708895517E+03  0.13000041428E+03  0.10000000000E+01 0.  0.
    9000005    1    3    3    0    0  0.14479052622E+02  0.54586090948E+02  0.33342463817E+02  0.65589665216E+02  0.10000000000E+01 0.  0.
<mgrwt>
<rscale>  0 0.12500347E+03</rscale>
<asrwt>0</asrwt>
<pdfrwt beam="2">  1        4 0.56448327E-02 0.12500347E+03</pdfrwt>
<pdfrwt beam="1">  1       -4 0.43252687E-01 0.12500347E+03</pdfrwt>
<totfact> 0.16498833E+03</totfact>
</mgrwt>
</event>
<event>
 5    1  0.1448308E-002  0.1249611E+03  0.7818608E-02  0.1235130E+00
         -4   -1    0    0    0  501 -0.00000000000E+00  0.00000000000E+00  0.46740143006E+02  0.46757393727E+02  0.12700000000E+01 0.  1.
          4   -1    0    0  501    0  0.00000000000E+00 -0.00000000000E+00 -0.83484313725E+02  0.83493973065E+02  0.12700000000E+01 0.  1.
         25    2    1    2    0    0  0.00000000000E+00  0.00000000000E+00 -0.36744170720E+02  0.13025136679E+03  0.12496113183E+03 0.  0.
    9000005    1    3    3    0    0  0.35496100461E+02 -0.15771536162E+02 -0.69373131270E+02  0.79513180311E+02  0.10000000000E+01 0.  0.
    9000005    1    3    3    0    0 -0.35496100461E+02  0.15771536162E+02  0.32628960551E+02  0.50738186482E+02  0.10000000000E+01 0.  0.
<mgrwt>
<rscale>  0 0.12496113E+03</rscale>
<asrwt>0</asrwt>
<pdfrwt beam="2">  1        4 0.20874442E-01 0.12496113E+03</pdfrwt>
<pdfrwt beam="1">  1       -4 0.11688400E-01 0.12496113E+03</pdfrwt>
<totfact> 0.19568626E+03</totfact>
</mgrwt>
</event>
<event>
 5    1  0.1448308E-002  0.1249993E+03  0.7818608E-02  0.1235070E+00
          4   -1    0    0  501    0  0.00000000000E+00  0.00000000000E+00  0.67442072991E+01  0.68627423159E+01  0.12700000000E+01 0. -1.
         -4   -1    0    0    0  501 -0.00000000000E+00 -0.00000000000E+00 -0.57402906058E+03  0.57403046547E+03  0.12700000000E+01 0. -1.
         25    2    1    2    0    0  0.00000000000E+00  0.00000000000E+00 -0.56728485328E+03  0.58089320778E+03  0.12499925637E+03 0.  0.
    9000005    1    3    3    0    0 -0.54969163185E+02 -0.29423587416E+02 -0.26401004413E+03  0.27127414141E+03  0.10000000000E+01 0.  0.
    9000005    1    3    3    0    0  0.54969163185E+02  0.29423587416E+02 -0.30327480915E+03  0.30961906637E+03  0.10000000000E+01 0.  0.
<mgrwt>
<rscale>  0 0.12499926E+03</rscale>
<asrwt>0</asrwt>
<pdfrwt beam="1">  1        4 0.17010463E-02 0.12499926E+03</pdfrwt>
<pdfrwt beam="2">  1       -4 0.14352209E+00 0.12499926E+03</pdfrwt>
<totfact> 0.75962162E+02</totfact>
</mgrwt>
</event>
<event>
 5    1  0.1448308E-002  0.1250006E+03  0.7818608E-02  0.1235068E+00
          4   -1    0    0  501    0  0.00000000000E+00  0.00000000000E+00  0.93935605433E+02  0.93944190177E+02  0.12700000000E+01 0. -1.
         -4   -1    0    0    0  501 -0.00000000000E+00 -0.00000000000E+00 -0.41564534021E+02  0.41583931853E+02  0.12700000000E+01 0. -1.
         25    2    1    2    0    0  0.00000000000E+00  0.00000000000E+00  0.52371071412E+02  0.13552812203E+03  0.12500057096E+03 0.  0.
    9000005    1    3    3    0    0 -0.16778254720E+02 -0.49222998766E+02  0.63757666685E+02  0.82282765511E+02  0.10000000000E+01 0.  0.
    9000005    1    3    3    0    0  0.16778254720E+02  0.49222998766E+02 -0.11386595273E+02  0.53245356520E+02  0.10000000000E+01 0.  0.
<mgrwt>
<rscale>  0 0.12500057E+03</rscale>
<asrwt>0</asrwt>
<pdfrwt beam="1">  1        4 0.23487399E-01 0.12500057E+03</pdfrwt>
<pdfrwt beam="2">  1       -4 0.10394631E-01 0.12500057E+03</pdfrwt>
<totfact> 0.19271254E+03</totfact>
</mgrwt>
</event>
<event>
 5    1  0.1448308E-002  0.1250013E+03  0.7818608E-02  0.1235067E+00
          4   -1    0    0  501    0  0.00000000000E+00  0.00000000000E+00  0.10837660106E+03  0.10838404198E+03  0.12700000000E+01 0.  1.
         -4   -1    0    0    0  501 -0.00000000000E+00 -0.00000000000E+00 -0.36024177165E+02  0.36046556568E+02  0.12700000000E+01 0.  1.
         25    2    1    2    0    0  0.00000000000E+00  0.00000000000E+00  0.72352423894E+02  0.14443059855E+03  0.12500129821E+03 0.  0.
    9000005    1    3    3    0    0  0.16399481756E+01  0.18168573480E+02  0.10523731650E+03  0.10681141922E+03  0.10000000000E+01 0.  0.
    9000005    1    3    3    0    0 -0.16399481756E+01 -0.18168573480E+02 -0.32884892602E+02  0.37619179334E+02  0.10000000000E+01 0.  0.
<mgrwt>
<rscale>  0 0.12500130E+03</rscale>
<asrwt>0</asrwt>
<pdfrwt beam="1">  1        4 0.27097878E-01 0.12500130E+03</pdfrwt>
<pdfrwt beam="2">  1       -4 0.90097719E-02 0.12500130E+03</pdfrwt>
<totfact> 0.18815358E+03</totfact>
</mgrwt>
</event>
<event>
 5    1  0.1448308E-002  0.1249974E+03  0.7818608E-02  0.1235073E+00
         -4   -1    0    0    0  501 -0.00000000000E+00  0.00000000000E+00  0.11886221368E+03  0.11886899823E+03  0.12700000000E+01 0. -1.
          4   -1    0    0  501    0  0.00000000000E+00 -0.00000000000E+00 -0.32842343265E+02  0.32866889282E+02  0.12700000000E+01 0. -1.
         25    2    1    2    0    0  0.00000000000E+00  0.00000000000E+00  0.86019870417E+02  0.15173588752E+03  0.12499744579E+03 0.  0.
    9000005    1    3    3    0    0  0.26499762679E+02  0.36211460315E+02  0.95805796752E+02  0.10579819456E+03  0.10000000000E+01 0.  0.
    9000005    1    3    3    0    0 -0.26499762679E+02 -0.36211460315E+02 -0.97859263356E+01  0.45937692960E+02  0.10000000000E+01 0.  0.
<mgrwt>
<rscale>  0 0.12499745E+03</rscale>
<asrwt>0</asrwt>
<pdfrwt beam="2">  1        4 0.82145022E-02 0.12499745E+03</pdfrwt>
<pdfrwt beam="1">  1       -4 0.29719470E-01 0.12499745E+03</pdfrwt>
<totfact> 0.18454852E+03</totfact>
</mgrwt>
</event>
<event>
 5    1  0.1448308E-002  0.1250053E+03  0.7818608E-02  0.1235061E+00
         -4   -1    0    0    0  501 -0.00000000000E+00  0.00000000000E+00  0.13634879834E+02  0.13693898206E+02  0.12700000000E+01 0.  1.
          4   -1    0    0  501    0  0.00000000000E+00 -0.00000000000E+00 -0.28583455275E+03  0.28583737413E+03  0.12700000000E+01 0.  1.
         25    2    1    2    0    0  0.00000000000E+00  0.00000000000E+00 -0.27219967292E+03  0.29953127233E+03  0.12500528456E+03 0.  0.
    9000005    1    3    3    0    0  0.39488375166E+02 -0.81992109576E+01 -0.21709850843E+02  0.45813496453E+02  0.10000000000E+01 0.  0.
    9000005    1    3    3    0    0 -0.39488375166E+02  0.81992109576E+01 -0.25048982207E+03  0.25371777588E+03  0.10000000000E+01 0.  0.
<mgrwt>
<rscale>  0 0.12500528E+03</rscale>
<asrwt>0</asrwt>
<pdfrwt beam="2">  1        4 0.71466349E-01 0.12500528E+03</pdfrwt>
<pdfrwt beam="1">  1       -4 0.34164509E-02 0.12500528E+03</pdfrwt>
<totfact> 0.12982633E+03</totfact>
</mgrwt>
</event>
<event>
 5    1  0.1448308E-002  0.1250004E+03  0.7818608E-02  0.1235069E+00
          4   -1    0    0  501    0  0.00000000000E+00  0.00000000000E+00  0.10548122096E+02  0.10624301377E+02  0.12700000000E+01 0. -1.
         -4   -1    0    0    0  501 -0.00000000000E+00 -0.00000000000E+00 -0.36891907059E+03  0.36892125656E+03  0.12700000000E+01 0. -1.
         25    2    1    2    0    0  0.00000000000E+00  0.00000000000E+00 -0.35837094849E+03  0.37954555794E+03  0.12500037532E+03 0.  0.
    9000005    1    3    3    0    0 -0.48067372962E+02 -0.39663560673E+02 -0.16507276752E+03  0.17644741133E+03  0.10000000000E+01 0.  0.
    9000005    1    3    3    0    0  0.48067372962E+02  0.39663560673E+02 -0.19329818097E+03  0.20309814661E+03  0.10000000000E+01 0.  0.
<mgrwt>
<rscale>  0 0.12500038E+03</rscale>
<asrwt>0</asrwt>
<pdfrwt beam="1">  1        4 0.26468274E-02 0.12500038E+03</pdfrwt>
<pdfrwt beam="2">  1       -4 0.92239520E-01 0.12500038E+03</pdfrwt>
<totfact> 0.11002934E+03</totfact>
</mgrwt>
</event>
<event>
 5    1  0.1448308E-002  0.1249997E+03  0.7818608E-02  0.1235070E+00
         -4   -1    0    0    0  501 -0.00000000000E+00  0.00000000000E+00  0.99861744582E+01  0.10066607190E+02  0.12700000000E+01 0. -1.
          4   -1    0    0  501    0  0.00000000000E+00 -0.00000000000E+00 -0.38951363163E+03  0.38951570203E+03  0.12700000000E+01 0. -1.
         25    2    1    2    0    0  0.00000000000E+00  0.00000000000E+00 -0.37952745717E+03  0.39958230922E+03  0.12499972437E+03 0.  0.
    9000005    1    3    3    0    0 -0.29549746527E+02 -0.20822353723E+02 -0.35271451282E+03  0.35456351404E+03  0.10000000000E+01 0.  0.
    9000005    1    3    3    0    0  0.29549746527E+02  0.20822353723E+02 -0.26812944352E+02  0.45018795177E+02  0.10000000000E+01 0.  0.
<mgrwt>
<rscale>  0 0.12499972E+03</rscale>
<asrwt>0</asrwt>
<pdfrwt beam="2">  1        4 0.97388670E-01 0.12499972E+03</pdfrwt>
<pdfrwt beam="1">  1       -4 0.25068578E-02 0.12499972E+03</pdfrwt>
<totfact> 0.10577879E+03</totfact>
</mgrwt>
</event>
<event>
 5    1  0.1448308E-002  0.1249979E+03  0.7818608E-02  0.1235073E+00
          4   -1    0    0  501    0  0.00000000000E+00  0.00000000000E+00  0.36715398877E+02  0.36737357209E+02  0.12700000000E+01 0. -1.
         -4   -1    0    0    0  501 -0.00000000000E+00 -0.00000000000E+00 -0.10633148035E+03  0.10633906438E+03  0.12700000000E+01 0. -1.
         25    2    1    2    0    0  0.00000000000E+00  0.00000000000E+00 -0.69616081471E+02  0.14307642159E+03  0.12499785444E+03 0.  0.
    9000005    1    3    3    0    0 -0.86694334265E+01  0.56717865948E+02 -0.63148709756E+02  0.85327808700E+02  0.10000000000E+01 0.  0.
    9000005    1    3    3    0    0  0.86694334265E+01 -0.56717865948E+02 -0.64673717152E+01  0.57748612889E+02  0.10000000000E+01 0.  0.
<mgrwt>
<rscale>  0 0.12499785E+03</rscale>
<asrwt>0</asrwt>
<pdfrwt beam="1">  1        4 0.91825427E-02 0.12499785E+03</pdfrwt>
<pdfrwt beam="2">  1       -4 0.26586562E-01 0.12499785E+03</pdfrwt>
<totfact> 0.18884992E+03</totfact>
</mgrwt>
</event>
<event>
 5    1  0.1448308E-002  0.1249987E+03  0.7818608E-02  0.1235071E+00
         -4   -1    0    0    0  501 -0.00000000000E+00  0.00000000000E+00  0.12661016550E+03  0.12661653489E+03  0.12700000000E+01 0.  1.
          4   -1    0    0  501    0  0.00000000000E+00 -0.00000000000E+00 -0.30831724298E+02  0.30857869712E+02  0.12700000000E+01 0.  1.
         25    2    1    2    0    0  0.00000000000E+00  0.00000000000E+00  0.95778441199E+02  0.15747440460E+03  0.12499871322E+03 0.  0.
    9000005    1    3    3    0    0 -0.14441234326E+02 -0.49850243054E+02  0.40382376674E+01  0.52066336003E+02  0.10000000000E+01 0.  0.
    9000005    1    3    3    0    0  0.14441234326E+02  0.49850243054E+02  0.91740203532E+02  0.10540806860E+03  0.10000000000E+01 0.  0.
<mgrwt>
<rscale>  0 0.12499871E+03</rscale>
<asrwt>0</asrwt>
<pdfrwt beam="2">  1        4 0.77119955E-02 0.12499871E+03</pdfrwt>
<pdfrwt beam="1">  1       -4 0.31656605E-01 0.12499871E+03</pdfrwt>
<totfact> 0.18177808E+03</totfact>
</mgrwt>
</event>
<event>
 5    1  0.1448308E-002  0.1249995E+03  0.7818608E-02  0.1235070E+00
          4   -1    0    0  501    0  0.00000000000E+00  0.00000000000E+00  0.35606379936E+02  0.35629021768E+02  0.12700000000E+01 0.  1.
         -4   -1    0    0    0  501 -0.00000000000E+00 -0.00000000000E+00 -0.10964445668E+03  0.10965181157E+03  0.12700000000E+01 0.  1.
         25    2    1    2    0    0  0.00000000000E+00  0.00000000000E+00 -0.74038076742E+02  0.14528083334E+03  0.12499953491E+03 0.  0.
    9000005    1    3    3    0    0 -0.40885660191E+02  0.18389672713E+02 -0.87619069343E+02  0.98427224812E+02  0.10000000000E+01 0.  0.
    9000005    1    3    3    0    0  0.40885660191E+02 -0.18389672713E+02  0.13580992601E+02  0.46853608524E+02  0.10000000000E+01 0.  0.
<mgrwt>
<rscale>  0 0.12499953E+03</rscale>
<asrwt>0</asrwt>
<pdfrwt beam="1">  1        4 0.89053448E-02 0.12499953E+03</pdfrwt>
<pdfrwt beam="2">  1       -4 0.27414863E-01 0.12499953E+03</pdfrwt>
<totfact> 0.18773483E+03</totfact>
</mgrwt>
</event>
<event>
 5    1  0.1448308E-002  0.1249982E+03  0.7818608E-02  0.1235072E+00
          4   -1    0    0  501    0  0.00000000000E+00  0.00000000000E+00  0.35470608064E+03  0.35470835420E+03  0.12700000000E+01 0. -1.
         -4   -1    0    0    0  501 -0.00000000000E+00 -0.00000000000E+00 -0.10973395502E+02  0.11046642424E+02  0.12700000000E+01 0. -1.
         25    2    1    2    0    0  0.00000000000E+00  0.00000000000E+00  0.34373268513E+03  0.36575499662E+03  0.12499823489E+03 0.  0.
    9000005    1    3    3    0    0  0.21435284979E+02 -0.51284449199E+02  0.25543009679E+03  0.26140983248E+03  0.10000000000E+01 0.  0.
    9000005    1    3    3    0    0 -0.21435284979E+02  0.51284449199E+02  0.88302588343E+02  0.10434516414E+03  0.10000000000E+01 0.  0.
<mgrwt>
<rscale>  0 0.12499823E+03</rscale>
<asrwt>0</asrwt>
<pdfrwt beam="1">  1        4 0.88685956E-01 0.12499823E+03</pdfrwt>
<pdfrwt beam="2">  1       -4 0.27527891E-02 0.12499823E+03</pdfrwt>
<totfact> 0.11310829E+03</totfact>
</mgrwt>
</event>
<event>
 5    1  0.1448308E-002  0.1250042E+03  0.7818608E-02  0.1235063E+00
         -4   -1    0    0    0  501 -0.00000000000E+00  0.00000000000E+00  0.15512027897E+03  0.15512547775E+03  0.12700000000E+01 0.  1.
          4   -1    0    0  501    0  0.00000000000E+00 -0.00000000000E+00 -0.25162144891E+02  0.25194174635E+02  0.12700000000E+01 0.  1.
         25    2    1    2    0    0  0.00000000000E+00  0.00000000000E+00  0.12995813408E+03  0.18031965239E+03  0.12500424162E+03 0.  0.
    9000005    1    3    3    0    0  0.23085389502E+02  0.57391880009E+02  0.52177912929E+02  0.80933909439E+02  0.10000000000E+01 0.  0.
    9000005    1    3    3    0    0 -0.23085389502E+02 -0.57391880009E+02  0.77780221149E+02  0.99385742948E+02  0.10000000000E+01 0.  0.
<mgrwt>
<rscale>  0 0.12500424E+03</rscale>
<asrwt>0</asrwt>
<pdfrwt beam="2">  1        4 0.62951899E-02 0.12500424E+03</pdfrwt>
<pdfrwt beam="1">  1       -4 0.38784723E-01 0.12500424E+03</pdfrwt>
<totfact> 0.17139701E+03</totfact>
</mgrwt>
</event>
<event>
 5    1  0.1448308E-002  0.1250009E+03  0.7818608E-02  0.1235068E+00
         -4   -1    0    0    0  501 -0.00000000000E+00  0.00000000000E+00  0.17143335520E+03  0.17143805930E+03  0.12700000000E+01 0. -1.
          4   -1    0    0  501    0  0.00000000000E+00 -0.00000000000E+00 -0.22763429244E+02  0.22798829157E+02  0.12700000000E+01 0. -1.
         25    2    1    2    0    0  0.00000000000E+00  0.00000000000E+00  0.14866992596E+03  0.19423688846E+03  0.12500088781E+03 0.  0.
    9000005    1    3    3    0    0 -0.28223227212E+02 -0.10282570540E+02 -0.10817652700E+02  0.31942188734E+02  0.10000000000E+01 0.  0.
    9000005    1    3    3    0    0  0.28223227212E+02  0.10282570540E+02  0.15948757866E+03  0.16229469972E+03  0.10000000000E+01 0.  0.
<mgrwt>
<rscale>  0 0.12500089E+03</rscale>
<asrwt>0</asrwt>
<pdfrwt beam="2">  1        4 0.56958705E-02 0.12500089E+03</pdfrwt>
<pdfrwt beam="1">  1       -4 0.42863351E-01 0.12500089E+03</pdfrwt>
<totfact> 0.16555096E+03</totfact>
</mgrwt>
</event>
<event>
 5    1  0.1448308E-002  0.1250009E+03  0.7818608E-02  0.1235068E+00
         -4   -1    0    0    0  501 -0.00000000000E+00  0.00000000000E+00  0.80092437270E+03  0.80092537960E+03  0.12700000000E+01 0. -1.
          4   -1    0    0  501    0  0.00000000000E+00 -0.00000000000E+00 -0.47935468997E+01  0.49589305177E+01  0.12700000000E+01 0. -1.
         25    2    1    2    0    0  0.00000000000E+00  0.00000000000E+00  0.79613082580E+03  0.80588431012E+03  0.12500091800E+03 0.  0.
    9000005    1    3    3    0    0 -0.35357989595E+02 -0.79104929584E+00  0.65903075865E+02  0.74799923767E+02  0.10000000000E+01 0.  0.
    9000005    1    3    3    0    0  0.35357989595E+02  0.79104929584E+00  0.73022774994E+03  0.73108438635E+03  0.10000000000E+01 0.  0.
<mgrwt>
<rscale>  0 0.12500092E+03</rscale>
<asrwt>0</asrwt>
<pdfrwt beam="2">  1        4 0.12191855E-02 0.12500092E+03</pdfrwt>
<pdfrwt beam="1">  1       -4 0.20025189E+00 0.12500092E+03</pdfrwt>
<totfact> 0.51959964E+02</totfact>
</mgrwt>
</event>
<event>
 5    1  0.1448308E-002  0.1250012E+03  0.7818608E-02  0.1235067E+00
         -4   -1    0    0    0  501 -0.00000000000E+00  0.00000000000E+00  0.77024387662E+02  0.77034857011E+02  0.12700000000E+01 0.  1.
          4   -1    0    0  501    0  0.00000000000E+00 -0.00000000000E+00 -0.50693524447E+02  0.50709430295E+02  0.12700000000E+01 0.  1.
         25    2    1    2    0    0  0.00000000000E+00  0.00000000000E+00  0.26330863215E+02  0.12774428731E+03  0.12500115432E+03 0.  0.
    9000005    1    3    3    0    0 -0.70968486820E+01  0.71162685869E+01 -0.49867242716E+02  0.50879744849E+02  0.10000000000E+01 0.  0.
    9000005    1    3    3    0    0  0.70968486820E+01 -0.71162685869E+01  0.76198105931E+02  0.76864542458E+02  0.10000000000E+01 0.  0.
<mgrwt>
<rscale>  0 0.12500115E+03</rscale>
<asrwt>0</asrwt>
<pdfrwt beam="2">  1        4 0.12676678E-01 0.12500115E+03</pdfrwt>
<pdfrwt beam="1">  1       -4 0.19259394E-01 0.12500115E+03</pdfrwt>
<totfact> 0.19685929E+03</totfact>
</mgrwt>
</event>
<event>
 5    1  0.1448308E-002  0.1249894E+03  0.7818608E-02  0.1235086E+00
          4   -1    0    0  501    0  0.00000000000E+00  0.00000000000E+00  0.43233089545E+02  0.43251739058E+02  0.12700000000E+01 0.  1.
         -4   -1    0    0    0  501 -0.00000000000E+00 -0.00000000000E+00 -0.90295352466E+02  0.90304283270E+02  0.12700000000E+01 0.  1.
         25    2    1    2    0    0  0.00000000000E+00  0.00000000000E+00 -0.47062262921E+02  0.13355602233E+03  0.12498941759E+03 0.  0.
    9000005    1    3    3    0    0 -0.31904914670E+02 -0.51888191354E+02 -0.86373492071E+01  0.61529763395E+02  0.10000000000E+01 0.  0.
    9000005    1    3    3    0    0  0.31904914670E+02  0.51888191354E+02 -0.38424913714E+02  0.72026258934E+02  0.10000000000E+01 0.  0.
<mgrwt>
<rscale>  0 0.12498942E+03</rscale>
<asrwt>0</asrwt>
<pdfrwt beam="1">  1        4 0.10811720E-01 0.12498942E+03</pdfrwt>
<pdfrwt beam="2">  1       -4 0.22577285E-01 0.12498942E+03</pdfrwt>
<totfact> 0.19379826E+03</totfact>
</mgrwt>
</event>
<event>
 5    1  0.1448308E-002  0.1249973E+03  0.7818608E-02  0.1235074E+00
          4   -1    0    0  501    0  0.00000000000E+00  0.00000000000E+00  0.20352827437E+03  0.20353223668E+03  0.12700000000E+01 0. -1.
         -4   -1    0    0    0  501 -0.00000000000E+00 -0.00000000000E+00 -0.19166669276E+02  0.19208698841E+02  0.12700000000E+01 0. -1.
         25    2    1    2    0    0  0.00000000000E+00  0.00000000000E+00  0.18436160510E+03  0.22274093552E+03  0.12499729167E+03 0.  0.
    9000005    1    3    3    0    0 -0.35507982693E+01  0.24889652566E+02 -0.97653788856E+01  0.26990101852E+02  0.10000000000E+01 0.  0.
    9000005    1    3    3    0    0  0.35507982693E+01 -0.24889652566E+02  0.19412698398E+03  0.19575083367E+03  0.10000000000E+01 0.  0.
<mgrwt>
<rscale>  0 0.12499729E+03</rscale>
<asrwt>0</asrwt>
<pdfrwt beam="1">  1        4 0.50887818E-01 0.12499729E+03</pdfrwt>
<pdfrwt beam="2">  1       -4 0.47974162E-02 0.12499729E+03</pdfrwt>
<totfact> 0.15451175E+03</totfact>
</mgrwt>
</event>
<event>
 5    1  0.1448308E-002  0.1249977E+03  0.7818608E-02  0.1235073E+00
         -4   -1    0    0    0  501 -0.00000000000E+00  0.00000000000E+00  0.29184942205E+03  0.29185218528E+03  0.12700000000E+01 0.  1.
          4   -1    0    0  501    0  0.00000000000E+00 -0.00000000000E+00 -0.13351018220E+02  0.13411285826E+02  0.12700000000E+01 0.  1.
         25    2    1    2    0    0  0.00000000000E+00  0.00000000000E+00  0.27849840383E+03  0.30526347111E+03  0.12499770339E+03 0.  0.
    9000005    1    3    3    0    0  0.12795523280E+02  0.57991047814E+02  0.18675641048E+03  0.19597357960E+03  0.10000000000E+01 0.  0.
    9000005    1    3    3    0    0 -0.12795523280E+02 -0.57991047814E+02  0.91741993349E+02  0.10928989151E+03  0.10000000000E+01 0.  0.
<mgrwt>
<rscale>  0 0.12499770E+03</rscale>
<asrwt>0</asrwt>
<pdfrwt beam="2">  1        4 0.33456336E-02 0.12499770E+03</pdfrwt>
<pdfrwt beam="1">  1       -4 0.72970231E-01 0.12499770E+03</pdfrwt>
<totfact> 0.12825484E+03</totfact>
</mgrwt>
</event>
<event>
 5    1  0.1448308E-002  0.1250001E+03  0.7818608E-02  0.1235069E+00
          4   -1    0    0  501    0  0.00000000000E+00  0.00000000000E+00  0.25608058114E+02  0.25639530814E+02  0.12700000000E+01 0.  1.
         -4   -1    0    0    0  501 -0.00000000000E+00 -0.00000000000E+00 -0.15241239756E+03  0.15241768871E+03  0.12700000000E+01 0.  1.
         25    2    1    2    0    0  0.00000000000E+00  0.00000000000E+00 -0.12680433945E+03  0.17805721952E+03  0.12500013168E+03 0.  0.
    9000005    1    3    3    0    0 -0.48823363133E+02 -0.34595983704E+02 -0.37736039023E+02  0.70750346410E+02  0.10000000000E+01 0.  0.
    9000005    1    3    3    0    0  0.48823363133E+02  0.34595983704E+02 -0.89068300424E+02  0.10730687311E+03  0.10000000000E+01 0.  0.
<mgrwt>
<rscale>  0 0.12500013E+03</rscale>
<asrwt>0</asrwt>
<pdfrwt beam="1">  1        4 0.64066104E-02 0.12500013E+03</pdfrwt>
<pdfrwt beam="2">  1       -4 0.38107692E-01 0.12500013E+03</pdfrwt>
<totfact> 0.17239586E+03</totfact>
</mgrwt>
</event>
<event>
 5    1  0.1448308E-002  0.1250000E+03  0.7818608E-02  0.1235069E+00
          4   -1    0    0  501    0  0.00000000000E+00  0.00000000000E+00  0.13477433100E+02  0.13537137916E+02  0.12700000000E+01 0. -1.
         -4   -1    0    0    0  501 -0.00000000000E+00 -0.00000000000E+00 -0.28913455869E+03  0.28913734787E+03  0.12700000000E+01 0. -1.
         25    2    1    2    0    0  0.00000000000E+00  0.00000000000E+00 -0.27565712559E+03  0.30267448578E+03  0.12499997381E+03 0.  0.
    9000005    1    3    3    0    0 -0.35923077923E+02 -0.41251073947E+02 -0.64658718035E+02  0.84698692122E+02  0.10000000000E+01 0.  0.
    9000005    1    3    3    0    0  0.35923077923E+02  0.41251073947E+02 -0.21099840756E+03  0.21797579366E+03  0.10000000000E+01 0.  0.
<mgrwt>
<rscale>  0 0.12499997E+03</rscale>
<asrwt>0</asrwt>
<pdfrwt beam="1">  1        4 0.33771710E-02 0.12499997E+03</pdfrwt>
<pdfrwt beam="2">  1       -4 0.72291431E-01 0.12499997E+03</pdfrwt>
<totfact> 0.12896438E+03</totfact>
</mgrwt>
</event>
<event>
 5    1  0.1448308E-002  0.1249997E+03  0.7818608E-02  0.1235070E+00
          4   -1    0    0  501    0  0.00000000000E+00  0.00000000000E+00  0.12813178323E+02  0.12875963604E+02  0.12700000000E+01 0.  1.
         -4   -1    0    0    0  501 -0.00000000000E+00 -0.00000000000E+00 -0.30405115589E+03  0.30405380823E+03  0.12700000000E+01 0.  1.
         25    2    1    2    0    0  0.00000000000E+00  0.00000000000E+00 -0.29123797757E+03  0.31692977183E+03  0.12499968278E+03 0.  0.
    9000005    1    3    3    0    0  0.59522066063E+02 -0.14798330807E+02 -0.17597697904E+03  0.18636191696E+03  0.10000000000E+01 0.  0.
    9000005    1    3    3    0    0 -0.59522066063E+02  0.14798330807E+02 -0.11526099853E+03  0.13056785487E+03  0.10000000000E+01 0.  0.
<mgrwt>
<rscale>  0 0.12499968E+03</rscale>
<asrwt>0</asrwt>
<pdfrwt beam="1">  1        4 0.32114753E-02 0.12499968E+03</pdfrwt>
<pdfrwt beam="2">  1       -4 0.76020945E-01 0.12499968E+03</pdfrwt>
<totfact> 0.12509583E+03</totfact>
</mgrwt>
</event>
<event>
 5    1  0.1448308E-002  0.1250599E+03  0.7818608E-02  0.1234976E+00
         -4   -1    0    0    0  501 -0.00000000000E+00  0.00000000000E+00  0.54066660737E+02  0.54081574526E+02  0.12700000000E+01 0. -1.
          4   -1    0    0  501    0  0.00000000000E+00 -0.00000000000E+00 -0.72287548658E+02  0.72298703937E+02  0.12700000000E+01 0. -1.
         25    2    1    2    0    0  0.00000000000E+00  0.00000000000E+00 -0.18220887921E+02  0.12638027846E+03  0.12505988177E+03 0.  0.
    9000005    1    3    3    0    0 -0.83969623989E+01 -0.61846093613E+02 -0.53912009640E+01  0.62653917041E+02  0.10000000000E+01 0.  0.
    9000005    1    3    3    0    0  0.83969623989E+01  0.61846093613E+02 -0.12829686957E+02  0.63726361423E+02  0.10000000000E+01 0.  0.
<mgrwt>
<rscale>  0 0.12505988E+03</rscale>
<asrwt>0</asrwt>
<pdfrwt beam="2">  1        4 0.18075146E-01 0.12505988E+03</pdfrwt>
<pdfrwt beam="1">  1       -4 0.13519924E-01 0.12505988E+03</pdfrwt>
<totfact> 0.19732733E+03</totfact>
</mgrwt>
</event>
<event>
 5    1  0.1448308E-002  0.1249966E+03  0.7818608E-02  0.1235075E+00
         -4   -1    0    0    0  501 -0.00000000000E+00  0.00000000000E+00  0.13757710443E+04  0.13757716305E+04  0.12700000000E+01 0.  1.
          4   -1    0    0  501    0  0.00000000000E+00 -0.00000000000E+00 -0.26965243760E+01  0.29806280732E+01  0.12700000000E+01 0.  1.
         25    2    1    2    0    0  0.00000000000E+00  0.00000000000E+00  0.13730745199E+04  0.13787522586E+04  0.12499661276E+03 0.  0.
    9000005    1    3    3    0    0 -0.46967621478E+02 -0.40972197041E+02  0.73630819993E+03  0.73894211119E+03  0.10000000000E+01 0.  0.
    9000005    1    3    3    0    0  0.46967621478E+02  0.40972197041E+02  0.63676632001E+03  0.63981014738E+03  0.10000000000E+01 0.  0.
<mgrwt>
<rscale>  0 0.12499661E+03</rscale>
<asrwt>0</asrwt>
<pdfrwt beam="2">  1        4 0.70971743E-03 0.12499661E+03</pdfrwt>
<pdfrwt beam="1">  1       -4 0.34397830E+00 0.12499661E+03</pdfrwt>
<totfact> 0.16934367E+02</totfact>
</mgrwt>
</event>
<event>
 5    1  0.1448308E-002  0.1250025E+03  0.7818608E-02  0.1235065E+00
         -4   -1    0    0    0  501 -0.00000000000E+00  0.00000000000E+00  0.61375714127E+02  0.61388852283E+02  0.12700000000E+01 0. -1.
          4   -1    0    0  501    0  0.00000000000E+00 -0.00000000000E+00 -0.63621097231E+02  0.63633771795E+02  0.12700000000E+01 0. -1.
         25    2    1    2    0    0  0.00000000000E+00  0.00000000000E+00 -0.22453831032E+01  0.12502262408E+03  0.12500245912E+03 0.  0.
    9000005    1    3    3    0    0  0.29097767641E+02  0.10818779913E+02 -0.55368675502E+02  0.63485559833E+02  0.10000000000E+01 0.  0.
    9000005    1    3    3    0    0 -0.29097767641E+02 -0.10818779913E+02  0.53123292399E+02  0.61537064244E+02  0.10000000000E+01 0.  0.
<mgrwt>
<rscale>  0 0.12500246E+03</rscale>
<asrwt>0</asrwt>
<pdfrwt beam="2">  1        4 0.15908501E-01 0.12500246E+03</pdfrwt>
<pdfrwt beam="1">  1       -4 0.15347155E-01 0.12500246E+03</pdfrwt>
<totfact> 0.19832687E+03</totfact>
</mgrwt>
</event>
<event>
 5    1  0.1448308E-002  0.1249907E+03  0.7818608E-02  0.1235084E+00
         -4   -1    0    0    0  501 -0.00000000000E+00  0.00000000000E+00  0.16860769671E+02  0.16908531985E+02  0.12700000000E+01 0. -1.
          4   -1    0    0  501    0  0.00000000000E+00 -0.00000000000E+00 -0.23126518282E+03  0.23126866991E+03  0.12700000000E+01 0. -1.
         25    2    1    2    0    0  0.00000000000E+00  0.00000000000E+00 -0.21440441315E+03  0.24817720190E+03  0.12499068431E+03 0.  0.
    9000005    1    3    3    0    0  0.46231761653E+02  0.21096801446E+02 -0.35002471813E+02  0.61714049048E+02  0.10000000000E+01 0.  0.
    9000005    1    3    3    0    0 -0.46231761653E+02 -0.21096801446E+02 -0.17940194133E+03  0.18646315285E+03  0.10000000000E+01 0.  0.
<mgrwt>
<rscale>  0 0.12499068E+03</rscale>
<asrwt>0</asrwt>
<pdfrwt beam="2">  1        4 0.57822692E-01 0.12499068E+03</pdfrwt>
<pdfrwt beam="1">  1       -4 0.42215993E-02 0.12499068E+03</pdfrwt>
<totfact> 0.14561943E+03</totfact>
</mgrwt>
</event>
<event>
 5    1  0.1448308E-002  0.1249991E+03  0.7818608E-02  0.1235071E+00
          4   -1    0    0  501    0  0.00000000000E+00  0.00000000000E+00  0.63910003144E+02  0.63922620424E+02  0.12700000000E+01 0. -1.
         -4   -1    0    0    0  501 -0.00000000000E+00 -0.00000000000E+00 -0.61094964872E+02  0.61108163389E+02  0.12700000000E+01 0. -1.
         25    2    1    2    0    0  0.00000000000E+00  0.00000000000E+00  0.28150382719E+01  0.12503078381E+03  0.12499908984E+03 0.  0.
    9000005    1    3    3    0    0  0.54509280095E+02  0.37558242402E+01  0.31743830581E+02  0.63198406722E+02  0.10000000000E+01 0.  0.
    9000005    1    3    3    0    0 -0.54509280095E+02 -0.37558242402E+01 -0.28928792309E+02  0.61832377091E+02  0.10000000000E+01 0.  0.
<mgrwt>
<rscale>  0 0.12499909E+03</rscale>
<asrwt>0</asrwt>
<pdfrwt beam="1">  1        4 0.15980728E-01 0.12499909E+03</pdfrwt>
<pdfrwt beam="2">  1       -4 0.15276968E-01 0.12499909E+03</pdfrwt>
<totfact> 0.19833808E+03</totfact>
</mgrwt>
</event>
<event>
 5    1  0.1448308E-002  0.1249990E+03  0.7818608E-02  0.1235071E+00
          4   -1    0    0  501    0  0.00000000000E+00  0.00000000000E+00  0.73247892813E+02  0.73258901858E+02  0.12700000000E+01 0. -1.
         -4   -1    0    0    0  501 -0.00000000000E+00 -0.00000000000E+00 -0.53305769965E+02  0.53320896575E+02  0.12700000000E+01 0. -1.
         25    2    1    2    0    0  0.00000000000E+00  0.00000000000E+00  0.19942122848E+02  0.12657979843E+03  0.12499902843E+03 0.  0.
    9000005    1    3    3    0    0 -0.18162750510E+02 -0.54160824018E+02 -0.15685264570E+02  0.59247851345E+02  0.10000000000E+01 0.  0.
    9000005    1    3    3    0    0  0.18162750510E+02  0.54160824018E+02  0.35627387418E+02  0.67331947088E+02  0.10000000000E+01 0.  0.
<mgrwt>
<rscale>  0 0.12499903E+03</rscale>
<asrwt>0</asrwt>
<pdfrwt beam="1">  1        4 0.18315240E-01 0.12499903E+03</pdfrwt>
<pdfrwt beam="2">  1       -4 0.13329709E-01 0.12499903E+03</pdfrwt>
<totfact> 0.19750070E+03</totfact>
</mgrwt>
</event>
<event>
 5    1  0.1448308E-002  0.1249976E+03  0.7818608E-02  0.1235073E+00
         -4   -1    0    0    0  501 -0.00000000000E+00  0.00000000000E+00  0.59710780328E+03  0.59710915387E+03  0.12700000000E+01 0.  1.
          4   -1    0    0  501    0  0.00000000000E+00 -0.00000000000E+00 -0.64786877428E+01  0.66019917350E+01  0.12700000000E+01 0.  1.
         25    2    1    2    0    0  0.00000000000E+00  0.00000000000E+00  0.59062911554E+03  0.60371114561E+03  0.12499758082E+03 0.  0.
    9000005    1    3    3    0    0 -0.51537818124E+02  0.35129829950E+02  0.27670443747E+03  0.28364872178E+03  0.10000000000E+01 0.  0.
    9000005    1    3    3    0    0  0.51537818124E+02 -0.35129829950E+02  0.31392467806E+03  0.32006242383E+03  0.10000000000E+01 0.  0.
<mgrwt>
<rscale>  0 0.12499758E+03</rscale>
<asrwt>0</asrwt>
<pdfrwt beam="2">  1        4 0.16352543E-02 0.12499758E+03</pdfrwt>
<pdfrwt beam="1">  1       -4 0.14929248E+00 0.12499758E+03</pdfrwt>
<totfact> 0.73041941E+02</totfact>
</mgrwt>
</event>
<event>
 4    1  0.1448308E-002  0.1249097E+03  0.7818608E-02  0.1235210E+00
         -4   -1    0    0    0  501 -0.00000000000E+00  0.00000000000E+00  0.82065427875E+02  0.82075254202E+02  0.12700000000E+01 0.  1.
          4   -1    0    0  501    0  0.00000000000E+00 -0.00000000000E+00 -0.47509303737E+02  0.47526275275E+02  0.12700000000E+01 0.  1.
    9000005    1    1    2    0    0 -0.30271194480E+02  0.49707381606E+02  0.40765462251E+02  0.71063295124E+02  0.10000000000E+01 0.  0.
    9000005    1    1    2    0    0  0.30271194480E+02 -0.49707381606E+02 -0.62093381123E+01  0.58538234353E+02  0.10000000000E+01 0.  0.
<mgrwt>
<rscale>  0 0.12490969E+03</rscale>
<asrwt>0</asrwt>
<pdfrwt beam="2">  1        4 0.11880676E-01 0.12490969E+03</pdfrwt>
<pdfrwt beam="1">  1       -4 0.20519707E-01 0.12490969E+03</pdfrwt>
<totfact> 0.19627170E+03</totfact>
</mgrwt>
</event>
<event>
 5    1  0.1448308E-002  0.1250021E+03  0.7818608E-02  0.1235066E+00
          4   -1    0    0  501    0  0.00000000000E+00  0.00000000000E+00  0.10411586955E+02  0.10488757931E+02  0.12700000000E+01 0.  1.
         -4   -1    0    0    0  501 -0.00000000000E+00 -0.00000000000E+00 -0.37373207909E+03  0.37373423691E+03  0.12700000000E+01 0.  1.
         25    2    1    2    0    0  0.00000000000E+00  0.00000000000E+00 -0.36332049213E+03  0.38422299484E+03  0.12500211903E+03 0.  0.
    9000005    1    3    3    0    0 -0.52977479587E+02  0.31471821494E+02 -0.21364678650E+03  0.22235790581E+03  0.10000000000E+01 0.  0.
    9000005    1    3    3    0    0  0.52977479587E+02 -0.31471821494E+02 -0.14967370563E+03  0.16186508903E+03  0.10000000000E+01 0.  0.
<mgrwt>
<rscale>  0 0.12500212E+03</rscale>
<asrwt>0</asrwt>
<pdfrwt beam="1">  1        4 0.26128141E-02 0.12500212E+03</pdfrwt>
<pdfrwt beam="2">  1       -4 0.93442891E-01 0.12500212E+03</pdfrwt>
<totfact> 0.10901040E+03</totfact>
</mgrwt>
</event>
<event>
 4    1  0.1448308E-002  0.1249042E+03  0.7818608E-02  0.1235219E+00
          4   -1    0    0  501    0  0.00000000000E+00  0.00000000000E+00  0.15786282336E+03  0.15786793183E+03  0.12700000000E+01 0.  1.
         -4   -1    0    0    0  501 -0.00000000000E+00 -0.00000000000E+00 -0.24684837345E+02  0.24717485608E+02  0.12700000000E+01 0.  1.
    9000005    1    1    2    0    0  0.47848565738E+02 -0.38487345955E+02  0.50018067813E+02  0.79205859314E+02  0.10000000000E+01 0.  0.
    9000005    1    1    2    0    0 -0.47848565738E+02  0.38487345955E+02  0.83159918202E+02  0.10337955812E+03  0.10000000000E+01 0.  0.
<mgrwt>
<rscale>  0 0.12490420E+03</rscale>
<asrwt>0</asrwt>
<pdfrwt beam="1">  1        4 0.39470425E-01 0.12490420E+03</pdfrwt>
<pdfrwt beam="2">  1       -4 0.61759290E-02 0.12490420E+03</pdfrwt>
<totfact> 0.17081786E+03</totfact>
</mgrwt>
</event>
<event>
 5    1  0.1448308E-002  0.1250038E+03  0.7818608E-02  0.1235063E+00
         -4   -1    0    0    0  501 -0.00000000000E+00  0.00000000000E+00  0.10017631640E+03  0.10018436638E+03  0.12700000000E+01 0.  1.
          4   -1    0    0  501    0  0.00000000000E+00 -0.00000000000E+00 -0.38976136584E+02  0.38996821961E+02  0.12700000000E+01 0.  1.
         25    2    1    2    0    0  0.00000000000E+00  0.00000000000E+00  0.61200179815E+02  0.13918118834E+03  0.12500376466E+03 0.  0.
    9000005    1    3    3    0    0 -0.41752398573E+02 -0.61761008373E+01  0.81914897796E+02  0.92154530486E+02  0.10000000000E+01 0.  0.
    9000005    1    3    3    0    0  0.41752398573E+02  0.61761008373E+01 -0.20714717981E+02  0.47026657857E+02  0.10000000000E+01 0.  0.
<mgrwt>
<rscale>  0 0.12500376E+03</rscale>
<asrwt>0</asrwt>
<pdfrwt beam="2">  1        4 0.97476262E-02 0.12500376E+03</pdfrwt>
<pdfrwt beam="1">  1       -4 0.25047671E-01 0.12500376E+03</pdfrwt>
<totfact> 0.19080635E+03</totfact>
</mgrwt>
</event>
<event>
 5    1  0.1448308E-002  0.1249907E+03  0.7818608E-02  0.1235084E+00
          4   -1    0    0  501    0  0.00000000000E+00  0.00000000000E+00  0.15210453768E+02  0.15263381141E+02  0.12700000000E+01 0.  1.
         -4   -1    0    0    0  501 -0.00000000000E+00 -0.00000000000E+00 -0.25627477798E+03  0.25627792478E+03  0.12700000000E+01 0.  1.
         25    2    1    2    0    0  0.00000000000E+00  0.00000000000E+00 -0.24106432421E+03  0.27154130592E+03  0.12499068930E+03 0.  0.
    9000005    1    3    3    0    0 -0.58001828737E+02  0.21184631285E+02 -0.99732053159E+02  0.11730508585E+03  0.10000000000E+01 0.  0.
    9000005    1    3    3    0    0  0.58001828737E+02 -0.21184631285E+02 -0.14133227105E+03  0.15423622007E+03  0.10000000000E+01 0.  0.
<mgrwt>
<rscale>  0 0.12499069E+03</rscale>
<asrwt>0</asrwt>
<pdfrwt beam="1">  1        4 0.38096235E-02 0.12499069E+03</pdfrwt>
<pdfrwt beam="2">  1       -4 0.64075690E-01 0.12499069E+03</pdfrwt>
<totfact> 0.13810854E+03</totfact>
</mgrwt>
</event>
<event>
 5    1  0.1448308E-002  0.1250044E+03  0.7818608E-02  0.1235062E+00
         -4   -1    0    0    0  501 -0.00000000000E+00  0.00000000000E+00  0.56915508484E+02  0.56929675970E+02  0.12700000000E+01 0. -1.
          4   -1    0    0  501    0  0.00000000000E+00 -0.00000000000E+00 -0.68608656818E+02  0.68620410159E+02  0.12700000000E+01 0. -1.
         25    2    1    2    0    0  0.00000000000E+00  0.00000000000E+00 -0.11693148334E+02  0.12555008613E+03  0.12500437756E+03 0.  0.
    9000005    1    3    3    0    0 -0.22593514264E+02 -0.58218175953E+02 -0.82446120666E+01  0.62998385108E+02  0.10000000000E+01 0.  0.
    9000005    1    3    3    0    0  0.22593514264E+02  0.58218175953E+02 -0.34485362669E+01  0.62551701020E+02  0.10000000000E+01 0.  0.
<mgrwt>
<rscale>  0 0.12500438E+03</rscale>
<asrwt>0</asrwt>
<pdfrwt beam="2">  1        4 0.17155404E-01 0.12500438E+03</pdfrwt>
<pdfrwt beam="1">  1       -4 0.14232117E-01 0.12500438E+03</pdfrwt>
<totfact> 0.19803224E+03</totfact>
</mgrwt>
</event>
<event>
 5    1  0.1448308E-002  0.1250020E+03  0.7818608E-02  0.1235066E+00
          4   -1    0    0  501    0  0.00000000000E+00  0.00000000000E+00  0.12258559658E+02  0.12324170759E+02  0.12700000000E+01 0. -1.
         -4   -1    0    0    0  501 -0.00000000000E+00 -0.00000000000E+00 -0.31774783824E+03  0.31775037625E+03  0.12700000000E+01 0. -1.
         25    2    1    2    0    0  0.00000000000E+00  0.00000000000E+00 -0.30548927858E+03  0.33007454701E+03  0.12500202900E+03 0.  0.
    9000005    1    3    3    0    0 -0.22930056224E+02  0.41325879763E+02 -0.44779868310E+02  0.65114149172E+02  0.10000000000E+01 0.  0.
    9000005    1    3    3    0    0  0.22930056224E+02 -0.41325879763E+02 -0.26070941027E+03  0.26496039784E+03  0.10000000000E+01 0.  0.
<mgrwt>
<rscale>  0 0.12500203E+03</rscale>
<asrwt>0</asrwt>
<pdfrwt beam="1">  1        4 0.30731596E-02 0.12500203E+03</pdfrwt>
<pdfrwt beam="2">  1       -4 0.79445451E-01 0.12500203E+03</pdfrwt>
<totfact> 0.12167579E+03</totfact>
</mgrwt>
</event>
<event>
 5    1  0.1448308E-002  0.1250014E+03  0.7818608E-02  0.1235067E+00
          4   -1    0    0  501    0  0.00000000000E+00  0.00000000000E+00  0.32975199201E+03  0.32975443762E+03  0.12700000000E+01 0. -1.
         -4   -1    0    0    0  501 -0.00000000000E+00 -0.00000000000E+00 -0.11809763229E+02  0.11877853658E+02  0.12700000000E+01 0. -1.
         25    2    1    2    0    0  0.00000000000E+00  0.00000000000E+00  0.31794222878E+03  0.34163229128E+03  0.12500144642E+03 0.  0.
    9000005    1    3    3    0    0  0.44125307019E+02 -0.42220541925E+02  0.12274190770E+03  0.13709920782E+03  0.10000000000E+01 0.  0.
    9000005    1    3    3    0    0 -0.44125307019E+02  0.42220541925E+02  0.19520032108E+03  0.20453308346E+03  0.10000000000E+01 0.  0.
<mgrwt>
<rscale>  0 0.12500145E+03</rscale>
<asrwt>0</asrwt>
<pdfrwt beam="1">  1        4 0.82446812E-01 0.12500145E+03</pdfrwt>
<pdfrwt beam="2">  1       -4 0.29612579E-02 0.12500145E+03</pdfrwt>
<totfact> 0.11879161E+03</totfact>
</mgrwt>
</event>
<event>
 5    1  0.1448308E-002  0.1250171E+03  0.7818608E-02  0.1235043E+00
         -4   -1    0    0    0  501 -0.00000000000E+00  0.00000000000E+00  0.58981445652E+01  0.60333248970E+01  0.12700000000E+01 0.  1.
          4   -1    0    0  501    0  0.00000000000E+00 -0.00000000000E+00 -0.65482418211E+03  0.65482541366E+03  0.12700000000E+01 0.  1.
         25    2    1    2    0    0  0.00000000000E+00  0.00000000000E+00 -0.64892603754E+03  0.66085873856E+03  0.12501707933E+03 0.  0.
    9000005    1    3    3    0    0  0.21464792850E+02 -0.21761576793E+02 -0.61264359938E+03  0.61340645857E+03  0.10000000000E+01 0.  0.
    9000005    1    3    3    0    0 -0.21464792850E+02  0.21761576793E+02 -0.36282438163E+02  0.47452279984E+02  0.10000000000E+01 0.  0.
<mgrwt>
<rscale>  0 0.12501708E+03</rscale>
<asrwt>0</asrwt>
<pdfrwt beam="2">  1        4 0.16372285E+00 0.12501708E+03</pdfrwt>
<pdfrwt beam="1">  1       -4 0.14915899E-02 0.12501708E+03</pdfrwt>
<totfact> 0.66256555E+02</totfact>
</mgrwt>
</event>
<event>
 5    1  0.1448308E-002  0.1249996E+03  0.7818608E-02  0.1235070E+00
          4   -1    0    0  501    0  0.00000000000E+00  0.00000000000E+00  0.78529545957E+01  0.79549855991E+01  0.12700000000E+01 0.  1.
         -4   -1    0    0    0  501 -0.00000000000E+00 -0.00000000000E+00 -0.49410732125E+03  0.49410895338E+03  0.12700000000E+01 0.  1.
         25    2    1    2    0    0  0.00000000000E+00  0.00000000000E+00 -0.48625436665E+03  0.50206393898E+03  0.12499955894E+03 0.  0.
    9000005    1    3    3    0    0 -0.49387960913E+02  0.33419201095E+02 -0.31818451247E+03  0.32372580630E+03  0.10000000000E+01 0.  0.
    9000005    1    3    3    0    0  0.49387960913E+02 -0.33419201095E+02 -0.16806985418E+03  0.17833813269E+03  0.10000000000E+01 0.  0.
<mgrwt>
<rscale>  0 0.12499956E+03</rscale>
<asrwt>0</asrwt>
<pdfrwt beam="1">  1        4 0.19761982E-02 0.12499956E+03</pdfrwt>
<pdfrwt beam="2">  1       -4 0.12353968E+00 0.12499956E+03</pdfrwt>
<totfact> 0.87280566E+02</totfact>
</mgrwt>
</event>
<event>
 5    1  0.1448308E-002  0.1250021E+03  0.7818608E-02  0.1235066E+00
         -4   -1    0    0    0  501 -0.00000000000E+00  0.00000000000E+00  0.67719737091E+02  0.67731644685E+02  0.12700000000E+01 0.  1.
          4   -1    0    0  501    0  0.00000000000E+00 -0.00000000000E+00 -0.57660560371E+02  0.57674544838E+02  0.12700000000E+01 0.  1.
         25    2    1    2    0    0  0.00000000000E+00  0.00000000000E+00  0.10059176721E+02  0.12540618952E+03  0.12500210132E+03 0.  0.
    9000005    1    3    3    0    0 -0.33246492019E+02 -0.51136078450E+02  0.18680690572E+02  0.63798087362E+02  0.10000000000E+01 0.  0.
    9000005    1    3    3    0    0  0.33246492019E+02  0.51136078450E+02 -0.86215138511E+01  0.61608102161E+02  0.10000000000E+01 0.  0.
<mgrwt>
<rscale>  0 0.12500210E+03</rscale>
<asrwt>0</asrwt>
<pdfrwt beam="2">  1        4 0.14418377E-01 0.12500210E+03</pdfrwt>
<pdfrwt beam="1">  1       -4 0.16933171E-01 0.12500210E+03</pdfrwt>
<totfact> 0.19812069E+03</totfact>
</mgrwt>
</event>
<event>
 5    1  0.1448308E-002  0.1250013E+03  0.7818608E-02  0.1235067E+00
          4   -1    0    0  501    0  0.00000000000E+00  0.00000000000E+00  0.73537887572E+01  0.74626475922E+01  0.12700000000E+01 0.  1.
         -4   -1    0    0    0  501 -0.00000000000E+00 -0.00000000000E+00 -0.52718766277E+03  0.52718919249E+03  0.12700000000E+01 0.  1.
         25    2    1    2    0    0  0.00000000000E+00  0.00000000000E+00 -0.51983387402E+03  0.53465184009E+03  0.12500133412E+03 0.  0.
    9000005    1    3    3    0    0 -0.19146409538E+02 -0.40994215258E+02 -0.44429332309E+03  0.44659228343E+03  0.10000000000E+01 0.  0.
    9000005    1    3    3    0    0  0.19146409538E+02  0.40994215258E+02 -0.75540550931E+02  0.88059556652E+02  0.10000000000E+01 0.  0.
<mgrwt>
<rscale>  0 0.12500133E+03</rscale>
<asrwt>0</asrwt>
<pdfrwt beam="1">  1        4 0.18522475E-02 0.12500133E+03</pdfrwt>
<pdfrwt beam="2">  1       -4 0.13181059E+00 0.12500133E+03</pdfrwt>
<totfact> 0.82344472E+02</totfact>
</mgrwt>
</event>
<event>
 5    1  0.1448308E-002  0.1249991E+03  0.7818608E-02  0.1235071E+00
          4   -1    0    0  501    0  0.00000000000E+00  0.00000000000E+00  0.97070414122E+01  0.97897677693E+01  0.12700000000E+01 0. -1.
         -4   -1    0    0    0  501 -0.00000000000E+00 -0.00000000000E+00 -0.40061731843E+03  0.40061933144E+03  0.12700000000E+01 0. -1.
         25    2    1    2    0    0  0.00000000000E+00  0.00000000000E+00 -0.39091027702E+03  0.41040909921E+03  0.12499913615E+03 0.  0.
    9000005    1    3    3    0    0  0.28121534691E+02 -0.55651017638E+02 -0.18178324536E+03  0.19218221762E+03  0.10000000000E+01 0.  0.
    9000005    1    3    3    0    0 -0.28121534691E+02  0.55651017638E+02 -0.20912703166E+03  0.21822688159E+03  0.10000000000E+01 0.  0.
<mgrwt>
<rscale>  0 0.12499914E+03</rscale>
<asrwt>0</asrwt>
<pdfrwt beam="1">  1        4 0.24373541E-02 0.12499914E+03</pdfrwt>
<pdfrwt beam="2">  1       -4 0.10016487E+00 0.12499914E+03</pdfrwt>
<totfact> 0.10357928E+03</totfact>
</mgrwt>
</event>
<event>
 5    1  0.1448308E-002  0.1250007E+03  0.7818608E-02  0.1235068E+00
          4   -1    0    0  501    0  0.00000000000E+00  0.00000000000E+00  0.72581745186E+02  0.72592855256E+02  0.12700000000E+01 0.  1.
         -4   -1    0    0    0  501 -0.00000000000E+00 -0.00000000000E+00 -0.53796492626E+02  0.53811481292E+02  0.12700000000E+01 0.  1.
         25    2    1    2    0    0  0.00000000000E+00  0.00000000000E+00  0.18785252560E+02  0.12640433655E+03  0.12500068234E+03 0.  0.
    9000005    1    3    3    0    0  0.46473625864E+02 -0.30954410389E+02  0.37766917210E+02  0.67418939913E+02  0.10000000000E+01 0.  0.
    9000005    1    3    3    0    0 -0.46473625864E+02  0.30954410389E+02 -0.18981664649E+02  0.58985396636E+02  0.10000000000E+01 0.  0.
<mgrwt>
<rscale>  0 0.12500068E+03</rscale>
<asrwt>0</asrwt>
<pdfrwt beam="1">  1        4 0.18148698E-01 0.12500068E+03</pdfrwt>
<pdfrwt beam="2">  1       -4 0.13452386E-01 0.12500068E+03</pdfrwt>
<totfact> 0.19758771E+03</totfact>
</mgrwt>
</event>
<event>
 5    1  0.1448308E-002  0.1249988E+03  0.7818608E-02  0.1235071E+00
          4   -1    0    0  501    0  0.00000000000E+00  0.00000000000E+00  0.18114612960E+03  0.18115058147E+03  0.12700000000E+01 0. -1.
         -4   -1    0    0    0  501 -0.00000000000E+00 -0.00000000000E+00 -0.21540239613E+02  0.21577646364E+02  0.12700000000E+01 0. -1.
         25    2    1    2    0    0  0.00000000000E+00  0.00000000000E+00  0.15960588999E+03  0.20272822784E+03  0.12499877697E+03 0.  0.
    9000005    1    3    3    0    0 -0.43105931306E+02 -0.40686200670E+02  0.11190088116E+03  0.12663449547E+03  0.10000000000E+01 0.  0.
    9000005    1    3    3    0    0  0.43105931306E+02  0.40686200670E+02  0.47705008830E+02  0.76093732371E+02  0.10000000000E+01 0.  0.
<mgrwt>
<rscale>  0 0.12499878E+03</rscale>
<asrwt>0</asrwt>
<pdfrwt beam="1">  1        4 0.45291764E-01 0.12499878E+03</pdfrwt>
<pdfrwt beam="2">  1       -4 0.53902923E-02 0.12499878E+03</pdfrwt>
<totfact> 0.16213837E+03</totfact>
</mgrwt>
</event>
<event>
 5    1  0.1448308E-002  0.1249995E+03  0.7818608E-02  0.1235070E+00
         -4   -1    0    0    0  501 -0.00000000000E+00  0.00000000000E+00  0.58620647830E+02  0.58634403314E+02  0.12700000000E+01 0.  1.
          4   -1    0    0  501    0  0.00000000000E+00 -0.00000000000E+00 -0.66607937293E+02  0.66620043609E+02  0.12700000000E+01 0.  1.
         25    2    1    2    0    0  0.00000000000E+00  0.00000000000E+00 -0.79872894629E+01  0.12525444692E+03  0.12499951872E+03 0.  0.
    9000005    1    3    3    0    0 -0.33079439158E+02  0.33702538305E+02  0.37017927455E+02  0.60011976607E+02  0.10000000000E+01 0.  0.
    9000005    1    3    3    0    0  0.33079439158E+02 -0.33702538305E+02 -0.45005216918E+02  0.65242470316E+02  0.10000000000E+01 0.  0.
<mgrwt>
<rscale>  0 0.12499952E+03</rscale>
<asrwt>0</asrwt>
<pdfrwt beam="2">  1        4 0.16655217E-01 0.12499952E+03</pdfrwt>
<pdfrwt beam="1">  1       -4 0.14658395E-01 0.12499952E+03</pdfrwt>
<totfact> 0.19821486E+03</totfact>
</mgrwt>
</event>
<event>
 5    1  0.1448308E-002  0.1250012E+03  0.7818608E-02  0.1235067E+00
          4   -1    0    0  501    0  0.00000000000E+00  0.00000000000E+00  0.28448896469E+02  0.28477229681E+02  0.12700000000E+01 0.  1.
         -4   -1    0    0    0  501 -0.00000000000E+00 -0.00000000000E+00 -0.13721063255E+03  0.13721650988E+03  0.12700000000E+01 0.  1.
         25    2    1    2    0    0  0.00000000000E+00  0.00000000000E+00 -0.10876173608E+03  0.16569373956E+03  0.12500120038E+03 0.  0.
    9000005    1    3    3    0    0  0.23139060475E+02  0.36054440700E+02 -0.11468896749E+03  0.12243323927E+03  0.10000000000E+01 0.  0.
    9000005    1    3    3    0    0 -0.23139060475E+02 -0.36054440700E+02  0.59272314080E+01  0.43260500298E+02  0.10000000000E+01 0.  0.
<mgrwt>
<rscale>  0 0.12500120E+03</rscale>
<asrwt>0</asrwt>
<pdfrwt beam="1">  1        4 0.71165008E-02 0.12500120E+03</pdfrwt>
<pdfrwt beam="2">  1       -4 0.34306933E-01 0.12500120E+03</pdfrwt>
<totfact> 0.17792549E+03</totfact>
</mgrwt>
</event>
<event>
 5    1  0.1448308E-002  0.1250006E+03  0.7818608E-02  0.1235068E+00
          4   -1    0    0  501    0  0.00000000000E+00  0.00000000000E+00  0.12444982522E+02  0.12509615900E+02  0.12700000000E+01 0. -1.
         -4   -1    0    0    0  501 -0.00000000000E+00 -0.00000000000E+00 -0.31300559068E+03  0.31300816714E+03  0.12700000000E+01 0. -1.
         25    2    1    2    0    0  0.00000000000E+00  0.00000000000E+00 -0.30056060816E+03  0.32551778304E+03  0.12500059160E+03 0.  0.
    9000005    1    3    3    0    0 -0.21617342227E+02  0.57517574156E+02 -0.17993837779E+03  0.19014310565E+03  0.10000000000E+01 0.  0.
    9000005    1    3    3    0    0  0.21617342227E+02 -0.57517574156E+02 -0.12062223036E+03  0.13537467739E+03  0.10000000000E+01 0.  0.
<mgrwt>
<rscale>  0 0.12500059E+03</rscale>
<asrwt>0</asrwt>
<pdfrwt beam="1">  1        4 0.31196479E-02 0.12500059E+03</pdfrwt>
<pdfrwt beam="2">  1       -4 0.78259773E-01 0.12500059E+03</pdfrwt>
<totfact> 0.12284688E+03</totfact>
</mgrwt>
</event>
<event>
 5    1  0.1448308E-002  0.1249935E+03  0.7818608E-02  0.1235079E+00
          4   -1    0    0  501    0  0.00000000000E+00  0.00000000000E+00  0.14766780289E+02  0.14821292120E+02  0.12700000000E+01 0.  1.
         -4   -1    0    0    0  501 -0.00000000000E+00 -0.00000000000E+00 -0.26395855428E+03  0.26396160948E+03  0.12700000000E+01 0.  1.
         25    2    1    2    0    0  0.00000000000E+00  0.00000000000E+00 -0.24919177399E+03  0.27878290160E+03  0.12499346382E+03 0.  0.
    9000005    1    3    3    0    0  0.46030831830E+02 -0.42247702124E+02 -0.12221900337E+03  0.13726685907E+03  0.10000000000E+01 0.  0.
    9000005    1    3    3    0    0 -0.46030831830E+02  0.42247702124E+02 -0.12697277063E+03  0.14151604253E+03  0.10000000000E+01 0.  0.
<mgrwt>
<rscale>  0 0.12499346E+03</rscale>
<asrwt>0</asrwt>
<pdfrwt beam="1">  1        4 0.36988918E-02 0.12499346E+03</pdfrwt>
<pdfrwt beam="2">  1       -4 0.65996819E-01 0.12499346E+03</pdfrwt>
<totfact> 0.13589295E+03</totfact>
</mgrwt>
</event>
<event>
 5    1  0.1448308E-002  0.1250017E+03  0.7818608E-02  0.1235067E+00
         -4   -1    0    0    0  501 -0.00000000000E+00  0.00000000000E+00  0.68755655844E+02  0.68767384061E+02  0.12700000000E+01 0. -1.
          4   -1    0    0  501    0  0.00000000000E+00 -0.00000000000E+00 -0.56791422967E+02  0.56805621400E+02  0.12700000000E+01 0. -1.
         25    2    1    2    0    0  0.00000000000E+00  0.00000000000E+00  0.11964232877E+02  0.12557300546E+03  0.12500174732E+03 0.  0.
    9000005    1    3    3    0    0  0.16501207635E+02  0.22416226656E+01  0.66490633109E+02  0.68551579244E+02  0.10000000000E+01 0.  0.
    9000005    1    3    3    0    0 -0.16501207635E+02 -0.22416226656E+01 -0.54526400232E+02  0.57021426217E+02  0.10000000000E+01 0.  0.
<mgrwt>
<rscale>  0 0.12500175E+03</rscale>
<asrwt>0</asrwt>
<pdfrwt beam="2">  1        4 0.14201097E-01 0.12500175E+03</pdfrwt>
<pdfrwt beam="1">  1       -4 0.17192155E-01 0.12500175E+03</pdfrwt>
<totfact> 0.19803202E+03</totfact>
</mgrwt>
</event>
<event>
 5    1  0.1448308E-002  0.1249972E+03  0.7818608E-02  0.1235074E+00
         -4   -1    0    0    0  501 -0.00000000000E+00  0.00000000000E+00  0.59674990363E+01  0.61011429051E+01  0.12700000000E+01 0. -1.
          4   -1    0    0  501    0  0.00000000000E+00 -0.00000000000E+00 -0.64717589975E+03  0.64717714586E+03  0.12700000000E+01 0. -1.
         25    2    1    2    0    0  0.00000000000E+00  0.00000000000E+00 -0.64120840072E+03  0.65327828876E+03  0.12499723765E+03 0.  0.
    9000005    1    3    3    0    0 -0.64900326486E+01 -0.51654393894E+02 -0.13995258125E+03  0.14932522202E+03  0.10000000000E+01 0.  0.
    9000005    1    3    3    0    0  0.64900326486E+01  0.51654393894E+02 -0.50125581947E+03  0.50395306674E+03  0.10000000000E+01 0.  0.
<mgrwt>
<rscale>  0 0.12499724E+03</rscale>
<asrwt>0</asrwt>
<pdfrwt beam="2">  1        4 0.16181060E+00 0.12499724E+03</pdfrwt>
<pdfrwt beam="1">  1       -4 0.15087382E-02 0.12499724E+03</pdfrwt>
<totfact> 0.67141344E+02</totfact>
</mgrwt>
</event>
<event>
 5    1  0.1448308E-002  0.1250273E+03  0.7818608E-02  0.1235027E+00
         -4   -1    0    0    0  501 -0.00000000000E+00  0.00000000000E+00  0.48453466243E+03  0.48453632681E+03  0.12700000000E+01 0. -1.
          4   -1    0    0  501    0  0.00000000000E+00 -0.00000000000E+00 -0.80136964392E+01  0.81137063430E+01  0.12700000000E+01 0. -1.
         25    2    1    2    0    0  0.00000000000E+00  0.00000000000E+00  0.47652096599E+03  0.49265003315E+03  0.12502729356E+03 0.  0.
    9000005    1    3    3    0    0 -0.58335337815E+02 -0.16681504986E+02  0.17906721465E+03  0.18906970040E+03  0.10000000000E+01 0.  0.
    9000005    1    3    3    0    0  0.58335337815E+02  0.16681504986E+02  0.29745375134E+03  0.30358033276E+03  0.10000000000E+01 0.  0.
<mgrwt>
<rscale>  0 0.12502729E+03</rscale>
<asrwt>0</asrwt>
<pdfrwt beam="2">  1        4 0.20161334E-02 0.12502729E+03</pdfrwt>
<pdfrwt beam="1">  1       -4 0.12114638E+00 0.12502729E+03</pdfrwt>
<totfact> 0.88732642E+02</totfact>
</mgrwt>
</event>
<event>
 5    1  0.1448308E-002  0.1249893E+03  0.7818608E-02  0.1235086E+00
          4   -1    0    0  501    0  0.00000000000E+00  0.00000000000E+00  0.89005262320E+02  0.89014322560E+02  0.12700000000E+01 0.  1.
         -4   -1    0    0    0  501 -0.00000000000E+00 -0.00000000000E+00 -0.43859826338E+02  0.43878209471E+02  0.12700000000E+01 0.  1.
         25    2    1    2    0    0  0.00000000000E+00  0.00000000000E+00  0.45145435982E+02  0.13289253203E+03  0.12498925826E+03 0.  0.
    9000005    1    3    3    0    0 -0.52458899871E+01  0.61574793181E+02  0.32410004090E+02  0.69788128519E+02  0.10000000000E+01 0.  0.
    9000005    1    3    3    0    0  0.52458899871E+01 -0.61574793181E+02  0.12735431893E+02  0.63104403512E+02  0.10000000000E+01 0.  0.
<mgrwt>
<rscale>  0 0.12498926E+03</rscale>
<asrwt>0</asrwt>
<pdfrwt beam="1">  1        4 0.22254746E-01 0.12498926E+03</pdfrwt>
<pdfrwt beam="2">  1       -4 0.10968387E-01 0.12498926E+03</pdfrwt>
<totfact> 0.19414968E+03</totfact>
</mgrwt>
</event>
<event>
 5    1  0.1448308E-002  0.1249994E+03  0.7818608E-02  0.1235070E+00
         -4   -1    0    0    0  501 -0.00000000000E+00  0.00000000000E+00  0.54910255103E+02  0.54924939832E+02  0.12700000000E+01 0. -1.
          4   -1    0    0  501    0  0.00000000000E+00 -0.00000000000E+00 -0.71108307867E+02  0.71119648113E+02  0.12700000000E+01 0. -1.
         25    2    1    2    0    0  0.00000000000E+00  0.00000000000E+00 -0.16198052763E+02  0.12604458794E+03  0.12499944495E+03 0.  0.
    9000005    1    3    3    0    0 -0.74704223238E+00 -0.47566838504E+02  0.32762042053E+02  0.57771217720E+02  0.10000000000E+01 0.  0.
    9000005    1    3    3    0    0  0.74704223238E+00  0.47566838504E+02 -0.48960094816E+02  0.68273370224E+02  0.10000000000E+01 0.  0.
<mgrwt>
<rscale>  0 0.12499944E+03</rscale>
<asrwt>0</asrwt>
<pdfrwt beam="2">  1        4 0.17780330E-01 0.12499944E+03</pdfrwt>
<pdfrwt beam="1">  1       -4 0.13730817E-01 0.12499944E+03</pdfrwt>
<totfact> 0.19778768E+03</totfact>
</mgrwt>
</event>
<event>
 5    1  0.1448308E-002  0.1250056E+03  0.7818608E-02  0.1235061E+00
         -4   -1    0    0    0  501 -0.00000000000E+00  0.00000000000E+00  0.20993654200E+03  0.20994038336E+03  0.12700000000E+01 0. -1.
          4   -1    0    0  501    0  0.00000000000E+00 -0.00000000000E+00 -0.18582787741E+02  0.18626134871E+02  0.12700000000E+01 0. -1.
         25    2    1    2    0    0  0.00000000000E+00  0.00000000000E+00  0.19135375426E+03  0.22856651823E+03  0.12500557583E+03 0.  0.
    9000005    1    3    3    0    0  0.55024720100E+02 -0.29039966404E+02  0.84927978260E+02  0.10528438138E+03  0.10000000000E+01 0.  0.
    9000005    1    3    3    0    0 -0.55024720100E+02  0.29039966404E+02  0.10642577600E+03  0.12328213685E+03  0.10000000000E+01 0.  0.
<mgrwt>
<rscale>  0 0.12500558E+03</rscale>
<asrwt>0</asrwt>
<pdfrwt beam="2">  1        4 0.46515955E-02 0.12500558E+03</pdfrwt>
<pdfrwt beam="1">  1       -4 0.52490034E-01 0.12500558E+03</pdfrwt>
<totfact> 0.15236710E+03</totfact>
</mgrwt>
</event>
<event>
 5    1  0.1448308E-002  0.1250063E+03  0.7818608E-02  0.1235059E+00
         -4   -1    0    0    0  501 -0.00000000000E+00  0.00000000000E+00  0.96385392836E+01  0.97218485650E+01  0.12700000000E+01 0.  1.
          4   -1    0    0  501    0  0.00000000000E+00 -0.00000000000E+00 -0.40348640372E+03  0.40348840242E+03  0.12700000000E+01 0.  1.
         25    2    1    2    0    0  0.00000000000E+00  0.00000000000E+00 -0.39384786444E+03  0.41321025099E+03  0.12500628463E+03 0.  0.
    9000005    1    3    3    0    0 -0.21917848165E-01  0.58083252642E+02 -0.12068336671E+03  0.13393707373E+03  0.10000000000E+01 0.  0.
    9000005    1    3    3    0    0  0.21917848165E-01 -0.58083252642E+02 -0.27316449773E+03  0.27927317726E+03  0.10000000000E+01 0.  0.
<mgrwt>
<rscale>  0 0.12500628E+03</rscale>
<asrwt>0</asrwt>
<pdfrwt beam="2">  1        4 0.10088221E+00 0.12500628E+03</pdfrwt>
<pdfrwt beam="1">  1       -4 0.24202997E-02 0.12500628E+03</pdfrwt>
<totfact> 0.10299731E+03</totfact>
</mgrwt>
</event>
<event>
 5    1  0.1448308E-002  0.1250004E+03  0.7818608E-02  0.1235069E+00
          4   -1    0    0  501    0  0.00000000000E+00  0.00000000000E+00  0.53026821998E+02  0.53042028158E+02  0.12700000000E+01 0.  1.
         -4   -1    0    0    0  501 -0.00000000000E+00 -0.00000000000E+00 -0.73634805544E+02  0.73645756751E+02  0.12700000000E+01 0.  1.
         25    2    1    2    0    0  0.00000000000E+00  0.00000000000E+00 -0.20607983546E+02  0.12668778491E+03  0.12500042344E+03 0.  0.
    9000005    1    3    3    0    0 -0.57291392913E+02 -0.22630596760E+01 -0.35496142690E+02  0.67441836325E+02  0.10000000000E+01 0.  0.
    9000005    1    3    3    0    0  0.57291392913E+02  0.22630596760E+01  0.14888159143E+02  0.59245948585E+02  0.10000000000E+01 0.  0.
<mgrwt>
<rscale>  0 0.12500042E+03</rscale>
<asrwt>0</asrwt>
<pdfrwt beam="1">  1        4 0.13259975E-01 0.12500042E+03</pdfrwt>
<pdfrwt beam="2">  1       -4 0.18411971E-01 0.12500042E+03</pdfrwt>
<totfact> 0.19743603E+03</totfact>
</mgrwt>
</event>
<event>
 5    1  0.1448308E-002  0.1250014E+03  0.7818608E-02  0.1235067E+00
          4   -1    0    0  501    0  0.00000000000E+00  0.00000000000E+00  0.32907511941E+02  0.32932009385E+02  0.12700000000E+01 0. -1.
         -4   -1    0    0    0  501 -0.00000000000E+00 -0.00000000000E+00 -0.11863440956E+03  0.11864120714E+03  0.12700000000E+01 0. -1.
         25    2    1    2    0    0  0.00000000000E+00  0.00000000000E+00 -0.85726897618E+02  0.15157321652E+03  0.12500135596E+03 0.  0.
    9000005    1    3    3    0    0 -0.64348369909E+01  0.62049131228E+02 -0.38353569614E+02  0.73235907281E+02  0.10000000000E+01 0.  0.
    9000005    1    3    3    0    0  0.64348369909E+01 -0.62049131228E+02 -0.47373328004E+02  0.78337309243E+02  0.10000000000E+01 0.  0.
<mgrwt>
<rscale>  0 0.12500136E+03</rscale>
<asrwt>0</asrwt>
<pdfrwt beam="1">  1        4 0.82307901E-02 0.12500136E+03</pdfrwt>
<pdfrwt beam="2">  1       -4 0.29662513E-01 0.12500136E+03</pdfrwt>
<totfact> 0.18461113E+03</totfact>
</mgrwt>
</event>
<event>
 5    1  0.1448308E-002  0.1250005E+03  0.7818608E-02  0.1235069E+00
         -4   -1    0    0    0  501 -0.00000000000E+00  0.00000000000E+00  0.30508418895E+03  0.30508683230E+03  0.12700000000E+01 0. -1.
          4   -1    0    0  501    0  0.00000000000E+00 -0.00000000000E+00 -0.12769739135E+02  0.12832736948E+02  0.12700000000E+01 0. -1.
         25    2    1    2    0    0  0.00000000000E+00  0.00000000000E+00  0.29231444981E+03  0.31791956925E+03  0.12500045978E+03 0.  0.
    9000005    1    3    3    0    0  0.23269210559E+02 -0.42315744653E+02  0.24703550412E+03  0.25171336616E+03  0.10000000000E+01 0.  0.
    9000005    1    3    3    0    0 -0.23269210559E+02  0.42315744653E+02  0.45278945691E+02  0.66206203096E+02  0.10000000000E+01 0.  0.
<mgrwt>
<rscale>  0 0.12500046E+03</rscale>
<asrwt>0</asrwt>
<pdfrwt beam="2">  1        4 0.32006399E-02 0.12500046E+03</pdfrwt>
<pdfrwt beam="1">  1       -4 0.76279254E-01 0.12500046E+03</pdfrwt>
<totfact> 0.12483151E+03</totfact>
</mgrwt>
</event>
<event>
 5    1  0.1448308E-002  0.1250033E+03  0.7818608E-02  0.1235064E+00
         -4   -1    0    0    0  501 -0.00000000000E+00  0.00000000000E+00  0.26911345150E+03  0.26911644817E+03  0.12700000000E+01 0. -1.
          4   -1    0    0  501    0  0.00000000000E+00 -0.00000000000E+00 -0.14485159190E+02  0.14540726831E+02  0.12700000000E+01 0. -1.
         25    2    1    2    0    0  0.00000000000E+00  0.00000000000E+00  0.25462829231E+03  0.28365717501E+03  0.12500330271E+03 0.  0.
    9000005    1    3    3    0    0  0.14475902205E+02  0.60335869674E+02  0.14421738374E+03  0.15700198307E+03  0.10000000000E+01 0.  0.
    9000005    1    3    3    0    0 -0.14475902205E+02 -0.60335869674E+02  0.11041090857E+03  0.12665519194E+03  0.10000000000E+01 0.  0.
<mgrwt>
<rscale>  0 0.12500330E+03</rscale>
<asrwt>0</asrwt>
<pdfrwt beam="2">  1        4 0.36286103E-02 0.12500330E+03</pdfrwt>
<pdfrwt beam="1">  1       -4 0.67285684E-01 0.12500330E+03</pdfrwt>
<totfact> 0.13440761E+03</totfact>
</mgrwt>
</event>
<event>
 5    1  0.1448308E-002  0.1249988E+03  0.7818608E-02  0.1235071E+00
         -4   -1    0    0    0  501 -0.00000000000E+00  0.00000000000E+00  0.16992911232E+02  0.17040303171E+02  0.12700000000E+01 0. -1.
          4   -1    0    0  501    0  0.00000000000E+00 -0.00000000000E+00 -0.22950152185E+03  0.22950503574E+03  0.12700000000E+01 0. -1.
         25    2    1    2    0    0  0.00000000000E+00  0.00000000000E+00 -0.21250861062E+03  0.24654533892E+03  0.12499877821E+03 0.  0.
    9000005    1    3    3    0    0 -0.14144818929E+02 -0.19537752532E+02  0.74509754168E+01  0.25264930461E+02  0.10000000000E+01 0.  0.
    9000005    1    3    3    0    0  0.14144818929E+02  0.19537752532E+02 -0.21995958604E+03  0.22128040845E+03  0.10000000000E+01 0.  0.
<mgrwt>
<rscale>  0 0.12499878E+03</rscale>
<asrwt>0</asrwt>
<pdfrwt beam="2">  1        4 0.57381734E-01 0.12499878E+03</pdfrwt>
<pdfrwt beam="1">  1       -4 0.42545918E-02 0.12499878E+03</pdfrwt>
<totfact> 0.14614001E+03</totfact>
</mgrwt>
</event>
<event>
 5    1  0.1448308E-002  0.1250002E+03  0.7818608E-02  0.1235069E+00
          4   -1    0    0  501    0  0.00000000000E+00  0.00000000000E+00  0.38121484026E+02  0.38142632897E+02  0.12700000000E+01 0.  1.
         -4   -1    0    0    0  501 -0.00000000000E+00 -0.00000000000E+00 -0.10241527962E+03  0.10242315363E+03  0.12700000000E+01 0.  1.
         25    2    1    2    0    0  0.00000000000E+00  0.00000000000E+00 -0.64293795595E+02  0.14056578653E+03  0.12500019276E+03 0.  0.
    9000005    1    3    3    0    0  0.18364700164E+01  0.37677332767E+02 -0.88173821820E+02  0.95909211659E+02  0.10000000000E+01 0.  0.
    9000005    1    3    3    0    0 -0.18364700164E+01 -0.37677332767E+02  0.23880026225E+02  0.44656574870E+02  0.10000000000E+01 0.  0.
<mgrwt>
<rscale>  0 0.12500019E+03</rscale>
<asrwt>0</asrwt>
<pdfrwt beam="1">  1        4 0.95339991E-02 0.12500019E+03</pdfrwt>
<pdfrwt beam="2">  1       -4 0.25607447E-01 0.12500019E+03</pdfrwt>
<totfact> 0.19011349E+03</totfact>
</mgrwt>
</event>
<event>
 5    1  0.1448308E-002  0.1250056E+03  0.7818608E-02  0.1235061E+00
         -4   -1    0    0    0  501 -0.00000000000E+00  0.00000000000E+00  0.82454650737E+02  0.82464430685E+02  0.12700000000E+01 0.  1.
          4   -1    0    0  501    0  0.00000000000E+00 -0.00000000000E+00 -0.47357675421E+02  0.47374701279E+02  0.12700000000E+01 0.  1.
         25    2    1    2    0    0  0.00000000000E+00  0.00000000000E+00  0.35096975317E+02  0.12983913196E+03  0.12500560992E+03 0.  0.
    9000005    1    3    3    0    0  0.17727022470E+02  0.26780087580E+02  0.73232830336E+02  0.79971669080E+02  0.10000000000E+01 0.  0.
    9000005    1    3    3    0    0 -0.17727022470E+02 -0.26780087580E+02 -0.38135855019E+02  0.49867462884E+02  0.10000000000E+01 0.  0.
<mgrwt>
<rscale>  0 0.12500561E+03</rscale>
<asrwt>0</asrwt>
<pdfrwt beam="2">  1        4 0.11842770E-01 0.12500561E+03</pdfrwt>
<pdfrwt beam="1">  1       -4 0.20617013E-01 0.12500561E+03</pdfrwt>
<totfact> 0.19570472E+03</totfact>
</mgrwt>
</event>
<event>
 5    1  0.1448308E-002  0.1250056E+03  0.7818608E-02  0.1235061E+00
          4   -1    0    0  501    0  0.00000000000E+00  0.00000000000E+00  0.62136296294E+02  0.62149273666E+02  0.12700000000E+01 0. -1.
         -4   -1    0    0    0  501 -0.00000000000E+00 -0.00000000000E+00 -0.62845469437E+02  0.62858300396E+02  0.12700000000E+01 0. -1.
         25    2    1    2    0    0  0.00000000000E+00  0.00000000000E+00 -0.70917314260E+00  0.12500757406E+03  0.12500556246E+03 0.  0.
    9000005    1    3    3    0    0 -0.41853767015E+02 -0.26120497525E+02  0.38007201959E+02  0.62286159017E+02  0.10000000000E+01 0.  0.
    9000005    1    3    3    0    0  0.41853767015E+02  0.26120497525E+02 -0.38716375101E+02  0.62721415045E+02  0.10000000000E+01 0.  0.
<mgrwt>
<rscale>  0 0.12500556E+03</rscale>
<asrwt>0</asrwt>
<pdfrwt beam="1">  1        4 0.15537300E-01 0.12500556E+03</pdfrwt>
<pdfrwt beam="2">  1       -4 0.15714593E-01 0.12500556E+03</pdfrwt>
<totfact> 0.19832063E+03</totfact>
</mgrwt>
</event>
<event>
 5    1  0.1448308E-002  0.1249971E+03  0.7818608E-02  0.1235074E+00
         -4   -1    0    0    0  501 -0.00000000000E+00  0.00000000000E+00  0.17142890236E+02  0.17189868691E+02  0.12700000000E+01 0. -1.
          4   -1    0    0  501    0  0.00000000000E+00 -0.00000000000E+00 -0.22749292207E+03  0.22749646699E+03  0.12700000000E+01 0. -1.
         25    2    1    2    0    0  0.00000000000E+00  0.00000000000E+00 -0.21035003184E+03  0.24468633568E+03  0.12499706787E+03 0.  0.
    9000005    1    3    3    0    0 -0.44679476410E+02  0.25224842912E+02 -0.35345033556E+02  0.62312275752E+02  0.10000000000E+01 0.  0.
    9000005    1    3    3    0    0  0.44679476410E+02 -0.25224842912E+02 -0.17500499828E+03  0.18237405993E+03  0.10000000000E+01 0.  0.
<mgrwt>
<rscale>  0 0.12499707E+03</rscale>
<asrwt>0</asrwt>
<pdfrwt beam="2">  1        4 0.56879536E-01 0.12499707E+03</pdfrwt>
<pdfrwt beam="1">  1       -4 0.42920387E-02 0.12499707E+03</pdfrwt>
<totfact> 0.14677347E+03</totfact>
</mgrwt>
</event>
<event>
 5    1  0.1448308E-002  0.1249950E+03  0.7818608E-02  0.1235077E+00
          4   -1    0    0  501    0  0.00000000000E+00  0.00000000000E+00  0.11542220481E+03  0.11542919155E+03  0.12700000000E+01 0.  1.
         -4   -1    0    0    0  501 -0.00000000000E+00 -0.00000000000E+00 -0.33820490327E+02  0.33844326939E+02  0.12700000000E+01 0.  1.
         25    2    1    2    0    0  0.00000000000E+00  0.00000000000E+00  0.81601714478E+02  0.14927351849E+03  0.12499497397E+03 0.  0.
    9000005    1    3    3    0    0 -0.31340606611E+01 -0.59544917178E+02  0.18474185519E+02  0.62431682891E+02  0.10000000000E+01 0.  0.
    9000005    1    3    3    0    0  0.31340606611E+01  0.59544917178E+02  0.63127528959E+02  0.86841835600E+02  0.10000000000E+01 0.  0.
<mgrwt>
<rscale>  0 0.12499497E+03</rscale>
<asrwt>0</asrwt>
<pdfrwt beam="1">  1        4 0.28859404E-01 0.12499497E+03</pdfrwt>
<pdfrwt beam="2">  1       -4 0.84589756E-02 0.12499497E+03</pdfrwt>
<totfact> 0.18576733E+03</totfact>
</mgrwt>
</event>
<event>
 5    1  0.1448308E-002  0.1250073E+03  0.7818608E-02  0.1235058E+00
         -4   -1    0    0    0  501 -0.00000000000E+00  0.00000000000E+00  0.65486162757E+01  0.66706277910E+01  0.12700000000E+01 0. -1.
          4   -1    0    0  501    0  0.00000000000E+00 -0.00000000000E+00 -0.59094047358E+03  0.59094183827E+03  0.12700000000E+01 0. -1.
         25    2    1    2    0    0  0.00000000000E+00  0.00000000000E+00 -0.58439185731E+03  0.59761246606E+03  0.12500726661E+03 0.  0.
    9000005    1    3    3    0    0  0.42637250706E+02 -0.20679171132E+02 -0.97410320786E+02  0.10832974597E+03  0.10000000000E+01 0.  0.
    9000005    1    3    3    0    0 -0.42637250706E+02  0.20679171132E+02 -0.48698153652E+03  0.48928272009E+03  0.10000000000E+01 0.  0.
<mgrwt>
<rscale>  0 0.12500727E+03</rscale>
<asrwt>0</asrwt>
<pdfrwt beam="2">  1        4 0.14775036E+00 0.12500727E+03</pdfrwt>
<pdfrwt beam="1">  1       -4 0.16525781E-02 0.12500727E+03</pdfrwt>
<totfact> 0.73792066E+02</totfact>
</mgrwt>
</event>
<event>
 5    1  0.1448308E-002  0.1250001E+03  0.7818608E-02  0.1235069E+00
          4   -1    0    0  501    0  0.00000000000E+00  0.00000000000E+00  0.24263467662E+03  0.24263800032E+03  0.12700000000E+01 0.  1.
         -4   -1    0    0    0  501 -0.00000000000E+00 -0.00000000000E+00 -0.16070854311E+02  0.16120957114E+02  0.12700000000E+01 0.  1.
         25    2    1    2    0    0  0.00000000000E+00  0.00000000000E+00  0.22656382231E+03  0.25875895743E+03  0.12500012989E+03 0.  0.
    9000005    1    3    3    0    0 -0.55785650553E+02 -0.16837281774E+02  0.66545753632E+02  0.88458296341E+02  0.10000000000E+01 0.  0.
    9000005    1    3    3    0    0  0.55785650553E+02  0.16837281774E+02  0.16001806868E+03  0.17030066109E+03  0.10000000000E+01 0.  0.
<mgrwt>
<rscale>  0 0.12500013E+03</rscale>
<asrwt>0</asrwt>
<pdfrwt beam="1">  1        4 0.60665346E-01 0.12500013E+03</pdfrwt>
<pdfrwt beam="2">  1       -4 0.40243920E-02 0.12500013E+03</pdfrwt>
<totfact> 0.14211047E+03</totfact>
</mgrwt>
</event>
<event>
 5    1  0.1448308E-002  0.1250033E+03  0.7818608E-02  0.1235064E+00
          4   -1    0    0  501    0  0.00000000000E+00  0.00000000000E+00  0.21934973246E+03  0.21935340898E+03  0.12700000000E+01 0.  1.
         -4   -1    0    0    0  501 -0.00000000000E+00 -0.00000000000E+00 -0.17782789516E+02  0.17828081864E+02  0.12700000000E+01 0.  1.
         25    2    1    2    0    0  0.00000000000E+00  0.00000000000E+00  0.20156694295E+03  0.23718149085E+03  0.12500330840E+03 0.  0.
    9000005    1    3    3    0    0  0.11388267618E+02 -0.10097064403E+02  0.21578876634E+03  0.21632714815E+03  0.10000000000E+01 0.  0.
    9000005    1    3    3    0    0 -0.11388267618E+02  0.10097064403E+02 -0.14221823388E+02  0.20854342698E+02  0.10000000000E+01 0.  0.
<mgrwt>
<rscale>  0 0.12500331E+03</rscale>
<asrwt>0</asrwt>
<pdfrwt beam="1">  1        4 0.54843554E-01 0.12500331E+03</pdfrwt>
<pdfrwt beam="2">  1       -4 0.44518185E-02 0.12500331E+03</pdfrwt>
<totfact> 0.14932913E+03</totfact>
</mgrwt>
</event>
<event>
 5    1  0.1448308E-002  0.1250002E+03  0.7818608E-02  0.1235069E+00
         -4   -1    0    0    0  501 -0.00000000000E+00  0.00000000000E+00  0.58082010714E+02  0.58095893732E+02  0.12700000000E+01 0.  1.
          4   -1    0    0  501    0  0.00000000000E+00 -0.00000000000E+00 -0.67226332166E+02  0.67238327139E+02  0.12700000000E+01 0.  1.
         25    2    1    2    0    0  0.00000000000E+00  0.00000000000E+00 -0.91443214519E+01  0.12533422087E+03  0.12500019323E+03 0.  0.
    9000005    1    3    3    0    0  0.28560327141E+02  0.43087173145E+02 -0.39781025261E+02  0.65235931409E+02  0.10000000000E+01 0.  0.
    9000005    1    3    3    0    0 -0.28560327141E+02 -0.43087173145E+02  0.30636703809E+02  0.60098289462E+02  0.10000000000E+01 0.  0.
<mgrwt>
<rscale>  0 0.12500019E+03</rscale>
<asrwt>0</asrwt>
<pdfrwt beam="2">  1        4 0.16809818E-01 0.12500019E+03</pdfrwt>
<pdfrwt beam="1">  1       -4 0.14523737E-01 0.12500019E+03</pdfrwt>
<totfact> 0.19816851E+03</totfact>
</mgrwt>
</event>
<event>
 5    1  0.1448308E-002  0.1249911E+03  0.7818608E-02  0.1235083E+00
         -4   -1    0    0    0  501 -0.00000000000E+00  0.00000000000E+00  0.55987303302E+02  0.56001705608E+02  0.12700000000E+01 0. -1.
          4   -1    0    0  501    0  0.00000000000E+00 -0.00000000000E+00 -0.69731151342E+02  0.69742715515E+02  0.12700000000E+01 0. -1.
         25    2    1    2    0    0  0.00000000000E+00  0.00000000000E+00 -0.13743848040E+02  0.12574442112E+03  0.12499106402E+03 0.  0.
    9000005    1    3    3    0    0 -0.33378686814E+01  0.11327861432E+02 -0.68603234866E+02  0.69619434399E+02  0.10000000000E+01 0.  0.
    9000005    1    3    3    0    0  0.33378686814E+01 -0.11327861432E+02  0.54859386825E+02  0.56124986724E+02  0.10000000000E+01 0.  0.
<mgrwt>
<rscale>  0 0.12499106E+03</rscale>
<asrwt>0</asrwt>
<pdfrwt beam="2">  1        4 0.17436034E-01 0.12499106E+03</pdfrwt>
<pdfrwt beam="1">  1       -4 0.14000072E-01 0.12499106E+03</pdfrwt>
<totfact> 0.19798876E+03</totfact>
</mgrwt>
</event>
<event>
 5    1  0.1448308E-002  0.1250010E+03  0.7818608E-02  0.1235068E+00
          4   -1    0    0  501    0  0.00000000000E+00  0.00000000000E+00  0.55429680035E+03  0.55429825526E+03  0.12700000000E+01 0. -1.
         -4   -1    0    0    0  501 -0.00000000000E+00 -0.00000000000E+00 -0.69886389682E+01  0.71030961298E+01  0.12700000000E+01 0. -1.
         25    2    1    2    0    0  0.00000000000E+00  0.00000000000E+00  0.54730816138E+03  0.56140135139E+03  0.12500101528E+03 0.  0.
    9000005    1    3    3    0    0  0.45741936691E+02  0.31709636141E+02  0.40127676062E+03  0.40511956804E+03  0.10000000000E+01 0.  0.
    9000005    1    3    3    0    0 -0.45741936691E+02 -0.31709636141E+02  0.14603140077E+03  0.15628178335E+03  0.10000000000E+01 0.  0.
<mgrwt>
<rscale>  0 0.12500102E+03</rscale>
<asrwt>0</asrwt>
<pdfrwt beam="1">  1        4 0.13858868E+00 0.12500102E+03</pdfrwt>
<pdfrwt beam="2">  1       -4 0.17616489E-02 0.12500102E+03</pdfrwt>
<totfact> 0.78582459E+02</totfact>
</mgrwt>
</event>
<event>
 5    1  0.1448308E-002  0.1250031E+03  0.7818608E-02  0.1235064E+00
         -4   -1    0    0    0  501 -0.00000000000E+00  0.00000000000E+00  0.11168481215E+02  0.11240456959E+02  0.12700000000E+01 0. -1.
          4   -1    0    0  501    0  0.00000000000E+00 -0.00000000000E+00 -0.34857719735E+03  0.34857951089E+03  0.12700000000E+01 0. -1.
         25    2    1    2    0    0  0.00000000000E+00  0.00000000000E+00 -0.33740871614E+03  0.35981996785E+03  0.12500307012E+03 0.  0.
    9000005    1    3    3    0    0  0.55831327039E+02  0.27007347500E+02 -0.19079720442E+03  0.20062678563E+03  0.10000000000E+01 0.  0.
    9000005    1    3    3    0    0 -0.55831327039E+02 -0.27007347500E+02 -0.14661151172E+03  0.15919318222E+03  0.10000000000E+01 0.  0.
<mgrwt>
<rscale>  0 0.12500307E+03</rscale>
<asrwt>0</asrwt>
<pdfrwt beam="2">  1        4 0.87153550E-01 0.12500307E+03</pdfrwt>
<pdfrwt beam="1">  1       -4 0.28014076E-02 0.12500307E+03</pdfrwt>
<totfact> 0.11445764E+03</totfact>
</mgrwt>
</event>
<event>
 5    1  0.1448308E-002  0.1250005E+03  0.7818608E-02  0.1235068E+00
         -4   -1    0    0    0  501 -0.00000000000E+00  0.00000000000E+00  0.54662377435E+03  0.54662524968E+03  0.12700000000E+01 0.  1.
          4   -1    0    0  501    0  0.00000000000E+00 -0.00000000000E+00 -0.70882777743E+01  0.72011514222E+01  0.12700000000E+01 0.  1.
         25    2    1    2    0    0  0.00000000000E+00  0.00000000000E+00  0.53953549658E+03  0.55382640110E+03  0.12500052196E+03 0.  0.
    9000005    1    3    3    0    0 -0.49189902728E+02  0.38351014432E+02  0.28683317218E+03  0.29353826923E+03  0.10000000000E+01 0.  0.
    9000005    1    3    3    0    0  0.49189902728E+02 -0.38351014432E+02  0.25270232440E+03  0.26028813187E+03  0.10000000000E+01 0.  0.
<mgrwt>
<rscale>  0 0.12500052E+03</rscale>
<asrwt>0</asrwt>
<pdfrwt beam="2">  1        4 0.17863635E-02 0.12500052E+03</pdfrwt>
<pdfrwt beam="1">  1       -4 0.13667021E+00 0.12500052E+03</pdfrwt>
<totfact> 0.79635190E+02</totfact>
</mgrwt>
</event>
<event>
 5    1  0.1448308E-002  0.1249973E+03  0.7818608E-02  0.1235073E+00
         -4   -1    0    0    0  501 -0.00000000000E+00  0.00000000000E+00  0.77704157731E+02  0.77714535505E+02  0.12700000000E+01 0. -1.
          4   -1    0    0  501    0  0.00000000000E+00 -0.00000000000E+00 -0.50246903418E+02  0.50262950601E+02  0.12700000000E+01 0. -1.
         25    2    1    2    0    0  0.00000000000E+00  0.00000000000E+00  0.27457254313E+02  0.12797748611E+03  0.12499734451E+03 0.  0.
    9000005    1    3    3    0    0 -0.35368430342E+02  0.51294048612E+02  0.18647197555E+02  0.65044010213E+02  0.10000000000E+01 0.  0.
    9000005    1    3    3    0    0  0.35368430342E+02 -0.51294048612E+02  0.88100567579E+01  0.62933475893E+02  0.10000000000E+01 0.  0.
<mgrwt>
<rscale>  0 0.12499734E+03</rscale>
<asrwt>0</asrwt>
<pdfrwt beam="2">  1        4 0.12565029E-01 0.12499734E+03</pdfrwt>
<pdfrwt beam="1">  1       -4 0.19429342E-01 0.12499734E+03</pdfrwt>
<totfact> 0.19674978E+03</totfact>
</mgrwt>
</event>
<event>
 5    1  0.1448308E-002  0.1249930E+03  0.7818608E-02  0.1235080E+00
          4   -1    0    0  501    0  0.00000000000E+00  0.00000000000E+00  0.61196715211E+02  0.61209891787E+02  0.12700000000E+01 0. -1.
         -4   -1    0    0    0  501 -0.00000000000E+00 -0.00000000000E+00 -0.63797496209E+02  0.63810135735E+02  0.12700000000E+01 0. -1.
         25    2    1    2    0    0  0.00000000000E+00  0.00000000000E+00 -0.26007809978E+01  0.12502002752E+03  0.12499297268E+03 0.  0.
    9000005    1    3    3    0    0 -0.25365425556E+02 -0.54174635623E+02  0.16773242521E+02  0.62134029511E+02  0.10000000000E+01 0.  0.
    9000005    1    3    3    0    0  0.25365425556E+02  0.54174635623E+02 -0.19374023518E+02  0.62885998011E+02  0.10000000000E+01 0.  0.
<mgrwt>
<rscale>  0 0.12499297E+03</rscale>
<asrwt>0</asrwt>
<pdfrwt beam="1">  1        4 0.15302406E-01 0.12499297E+03</pdfrwt>
<pdfrwt beam="2">  1       -4 0.15952601E-01 0.12499297E+03</pdfrwt>
<totfact> 0.19837231E+03</totfact>
</mgrwt>
</event>
<event>
 5    1  0.1448308E-002  0.1249717E+03  0.7818608E-02  0.1235114E+00
         -4   -1    0    0    0  501 -0.00000000000E+00  0.00000000000E+00  0.28551015921E+03  0.28551298379E+03  0.12700000000E+01 0.  1.
          4   -1    0    0  501    0  0.00000000000E+00 -0.00000000000E+00 -0.13643062994E+02  0.13702046119E+02  0.12700000000E+01 0.  1.
         25    2    1    2    0    0  0.00000000000E+00  0.00000000000E+00  0.27186709621E+03  0.29921502991E+03  0.12497166126E+03 0.  0.
    9000005    1    3    3    0    0  0.59369340885E+02  0.91197163248E+01  0.94769546394E+02  0.11220585897E+03  0.10000000000E+01 0.  0.
    9000005    1    3    3    0    0 -0.59369340885E+02 -0.91197163248E+01  0.17709754982E+03  0.18700917094E+03  0.10000000000E+01 0.  0.
<mgrwt>
<rscale>  0 0.12497166E+03</rscale>
<asrwt>0</asrwt>
<pdfrwt beam="2">  1        4 0.34184917E-02 0.12497166E+03</pdfrwt>
<pdfrwt beam="1">  1       -4 0.71385266E-01 0.12497166E+03</pdfrwt>
<totfact> 0.13001525E+03</totfact>
</mgrwt>
</event>
<event>
 5    1  0.1448308E-002  0.1250286E+03  0.7818608E-02  0.1235025E+00
          4   -1    0    0  501    0  0.00000000000E+00  0.00000000000E+00  0.11396845217E+03  0.11397552803E+03  0.12700000000E+01 0.  1.
         -4   -1    0    0    0  501 -0.00000000000E+00 -0.00000000000E+00 -0.34270593446E+02  0.34294117209E+02  0.12700000000E+01 0.  1.
         25    2    1    2    0    0  0.00000000000E+00  0.00000000000E+00  0.79697858725E+02  0.14826964524E+03  0.12502855280E+03 0.  0.
    9000005    1    3    3    0    0  0.14717272090E+02  0.45339144976E+01 -0.31991512078E+02  0.35519168396E+02  0.10000000000E+01 0.  0.
    9000005    1    3    3    0    0 -0.14717272090E+02 -0.45339144976E+01  0.11168937080E+03  0.11275047685E+03  0.10000000000E+01 0.  0.
<mgrwt>
<rscale>  0 0.12502855E+03</rscale>
<asrwt>0</asrwt>
<pdfrwt beam="1">  1        4 0.28495938E-01 0.12502855E+03</pdfrwt>
<pdfrwt beam="2">  1       -4 0.85714734E-02 0.12502855E+03</pdfrwt>
<totfact> 0.18611819E+03</totfact>
</mgrwt>
</event>
<event>
 5    1  0.1448308E-002  0.1250187E+03  0.7818608E-02  0.1235040E+00
         -4   -1    0    0    0  501 -0.00000000000E+00  0.00000000000E+00  0.68481815878E+02  0.68493590985E+02  0.12700000000E+01 0. -1.
          4   -1    0    0  501    0  0.00000000000E+00 -0.00000000000E+00 -0.57034002715E+02  0.57048140773E+02  0.12700000000E+01 0. -1.
         25    2    1    2    0    0  0.00000000000E+00  0.00000000000E+00  0.11447813163E+02  0.12554173176E+03  0.12501869455E+03 0.  0.
    9000005    1    3    3    0    0  0.52709279667E+01 -0.61913239111E+02 -0.10412392252E+01  0.62153970412E+02  0.10000000000E+01 0.  0.
    9000005    1    3    3    0    0 -0.52709279667E+01  0.61913239111E+02  0.12489052388E+02  0.63387761346E+02  0.10000000000E+01 0.  0.
<mgrwt>
<rscale>  0 0.12501869E+03</rscale>
<asrwt>0</asrwt>
<pdfrwt beam="2">  1        4 0.14261740E-01 0.12501869E+03</pdfrwt>
<pdfrwt beam="1">  1       -4 0.17123693E-01 0.12501869E+03</pdfrwt>
<totfact> 0.19797045E+03</totfact>
</mgrwt>
</event>
<event>
 5    1  0.1448308E-002  0.1250029E+03  0.7818608E-02  0.1235065E+00
          4   -1    0    0  501    0  0.00000000000E+00  0.00000000000E+00  0.17460134689E+02  0.17506261833E+02  0.12700000000E+01 0. -1.
         -4   -1    0    0    0  501 -0.00000000000E+00 -0.00000000000E+00 -0.22339130077E+03  0.22339491077E+03  0.12700000000E+01 0. -1.
         25    2    1    2    0    0  0.00000000000E+00  0.00000000000E+00 -0.20593116608E+03  0.24090117261E+03  0.12500291917E+03 0.  0.
    9000005    1    3    3    0    0  0.49864221604E+01 -0.27343932137E+02 -0.21083304497E+03  0.21265965269E+03  0.10000000000E+01 0.  0.
    9000005    1    3    3    0    0 -0.49864221604E+01  0.27343932137E+02  0.49018788889E+01  0.28241519918E+02  0.10000000000E+01 0.  0.
<mgrwt>
<rscale>  0 0.12500292E+03</rscale>
<asrwt>0</asrwt>
<pdfrwt beam="1">  1        4 0.43712515E-02 0.12500292E+03</pdfrwt>
<pdfrwt beam="2">  1       -4 0.55854033E-01 0.12500292E+03</pdfrwt>
<totfact> 0.14804461E+03</totfact>
</mgrwt>
</event>
<event>
 5    1  0.1448308E-002  0.1250019E+03  0.7818608E-02  0.1235066E+00
         -4   -1    0    0    0  501 -0.00000000000E+00  0.00000000000E+00  0.77922263986E+03  0.77922367480E+03  0.12700000000E+01 0. -1.
          4   -1    0    0  501    0  0.00000000000E+00 -0.00000000000E+00 -0.49316721055E+01  0.50925720178E+01  0.12700000000E+01 0. -1.
         25    2    1    2    0    0  0.00000000000E+00  0.00000000000E+00  0.77429096775E+03  0.78431624682E+03  0.12500188910E+03 0.  0.
    9000005    1    3    3    0    0 -0.56809194218E+02 -0.25928434337E+02  0.37203488462E+03  0.37724067070E+03  0.10000000000E+01 0.  0.
    9000005    1    3    3    0    0  0.56809194218E+02  0.25928434337E+02  0.40225608314E+03  0.40707557612E+03  0.10000000000E+01 0.  0.
<mgrwt>
<rscale>  0 0.12500189E+03</rscale>
<asrwt>0</asrwt>
<pdfrwt beam="2">  1        4 0.12531599E-02 0.12500189E+03</pdfrwt>
<pdfrwt beam="1">  1       -4 0.19482591E+00 0.12500189E+03</pdfrwt>
<totfact> 0.53879063E+02</totfact>
</mgrwt>
</event>
<event>
 5    1  0.1448308E-002  0.1249938E+03  0.7818608E-02  0.1235079E+00
         -4   -1    0    0    0  501 -0.00000000000E+00  0.00000000000E+00  0.24415322275E+03  0.24415652578E+03  0.12700000000E+01 0.  1.
          4   -1    0    0  501    0  0.00000000000E+00 -0.00000000000E+00 -0.15968959498E+02  0.16019380995E+02  0.12700000000E+01 0.  1.
         25    2    1    2    0    0  0.00000000000E+00  0.00000000000E+00  0.22818426325E+03  0.26017590677E+03  0.12499377772E+03 0.  0.
    9000005    1    3    3    0    0 -0.52885464801E+01  0.62259869914E+02  0.11247846859E+03  0.12867270893E+03  0.10000000000E+01 0.  0.
    9000005    1    3    3    0    0  0.52885464801E+01 -0.62259869914E+02  0.11570579466E+03  0.13150319785E+03  0.10000000000E+01 0.  0.
<mgrwt>
<rscale>  0 0.12499378E+03</rscale>
<asrwt>0</asrwt>
<pdfrwt beam="2">  1        4 0.39989554E-02 0.12499378E+03</pdfrwt>
<pdfrwt beam="1">  1       -4 0.61045021E-01 0.12499378E+03</pdfrwt>
<totfact> 0.14167530E+03</totfact>
</mgrwt>
</event>
<event>
 5    1  0.1448308E-002  0.1250007E+03  0.7818608E-02  0.1235068E+00
          4   -1    0    0  501    0  0.00000000000E+00  0.00000000000E+00  0.14750394069E+03  0.14750940790E+03  0.12700000000E+01 0.  1.
         -4   -1    0    0    0  501 -0.00000000000E+00 -0.00000000000E+00 -0.26461443258E+02  0.26491902145E+02  0.12700000000E+01 0.  1.
         25    2    1    2    0    0  0.00000000000E+00  0.00000000000E+00  0.12104249743E+03  0.17400131005E+03  0.12500067885E+03 0.  0.
    9000005    1    3    3    0    0 -0.28755788325E+02  0.55458083743E+02  0.58192808654E+02  0.85380895952E+02  0.10000000000E+01 0.  0.
    9000005    1    3    3    0    0  0.28755788325E+02 -0.55458083743E+02  0.62849688781E+02  0.88620414096E+02  0.10000000000E+01 0.  0.
<mgrwt>
<rscale>  0 0.12500068E+03</rscale>
<asrwt>0</asrwt>
<pdfrwt beam="1">  1        4 0.36880476E-01 0.12500068E+03</pdfrwt>
<pdfrwt beam="2">  1       -4 0.66198516E-02 0.12500068E+03</pdfrwt>
<totfact> 0.17417792E+03</totfact>
</mgrwt>
</event>
<event>
 5    1  0.1448308E-002  0.1250040E+03  0.7818608E-02  0.1235063E+00
          4   -1    0    0  501    0  0.00000000000E+00  0.00000000000E+00  0.10332607523E+03  0.10333387984E+03  0.12700000000E+01 0. -1.
         -4   -1    0    0    0  501 -0.00000000000E+00 -0.00000000000E+00 -0.37787564451E+02  0.37808900105E+02  0.12700000000E+01 0. -1.
         25    2    1    2    0    0  0.00000000000E+00  0.00000000000E+00  0.65538510782E+02  0.14114277995E+03  0.12500395168E+03 0.  0.
    9000005    1    3    3    0    0 -0.40368168760E+02 -0.42943240788E+02  0.93070298198E+01  0.59676894880E+02  0.10000000000E+01 0.  0.
    9000005    1    3    3    0    0  0.40368168760E+02  0.42943240788E+02  0.56231480962E+02  0.81465885066E+02  0.10000000000E+01 0.  0.
<mgrwt>
<rscale>  0 0.12500395E+03</rscale>
<asrwt>0</asrwt>
<pdfrwt beam="1">  1        4 0.25835161E-01 0.12500395E+03</pdfrwt>
<pdfrwt beam="2">  1       -4 0.94505337E-02 0.12500395E+03</pdfrwt>
<totfact> 0.18980283E+03</totfact>
</mgrwt>
</event>
<event>
 5    1  0.1448308E-002  0.1249943E+03  0.7818608E-02  0.1235078E+00
          4   -1    0    0  501    0  0.00000000000E+00  0.00000000000E+00  0.85331635498E+01  0.86271536539E+01  0.12700000000E+01 0. -1.
         -4   -1    0    0    0  501 -0.00000000000E+00 -0.00000000000E+00 -0.45512893802E+03  0.45513070993E+03  0.12700000000E+01 0. -1.
         25    2    1    2    0    0  0.00000000000E+00  0.00000000000E+00 -0.44659577447E+03  0.46375786358E+03  0.12499428092E+03 0.  0.
    9000005    1    3    3    0    0  0.50733381786E+02  0.65577985426E+01 -0.35645398763E+03  0.36010738127E+03  0.10000000000E+01 0.  0.
    9000005    1    3    3    0    0 -0.50733381786E+02 -0.65577985426E+01 -0.90141786838E+02  0.10365048231E+03  0.10000000000E+01 0.  0.
<mgrwt>
<rscale>  0 0.12499428E+03</rscale>
<asrwt>0</asrwt>
<pdfrwt beam="1">  1        4 0.21452627E-02 0.12499428E+03</pdfrwt>
<pdfrwt beam="2">  1       -4 0.11379412E+00 0.12499428E+03</pdfrwt>
<totfact> 0.93610614E+02</totfact>
</mgrwt>
</event>
<event>
 5    1  0.1448308E-002  0.1249956E+03  0.7818608E-02  0.1235076E+00
          4   -1    0    0  501    0  0.00000000000E+00  0.00000000000E+00  0.12428872476E+03  0.12429521311E+03  0.12700000000E+01 0. -1.
         -4   -1    0    0    0  501 -0.00000000000E+00 -0.00000000000E+00 -0.31406502634E+02  0.31432169949E+02  0.12700000000E+01 0. -1.
         25    2    1    2    0    0  0.00000000000E+00  0.00000000000E+00  0.92882222125E+02  0.15572738306E+03  0.12499564251E+03 0.  0.
    9000005    1    3    3    0    0 -0.80043331003E+01 -0.54063445038E+02  0.86922540938E+01  0.55348719217E+02  0.10000000000E+01 0.  0.
    9000005    1    3    3    0    0  0.80043331003E+01  0.54063445038E+02  0.84189968031E+02  0.10037866384E+03  0.10000000000E+01 0.  0.
<mgrwt>
<rscale>  0 0.12499564E+03</rscale>
<asrwt>0</asrwt>
<pdfrwt beam="1">  1        4 0.31076200E-01 0.12499564E+03</pdfrwt>
<pdfrwt beam="2">  1       -4 0.78556452E-02 0.12499564E+03</pdfrwt>
<totfact> 0.18262554E+03</totfact>
</mgrwt>
</event>
<event>
 5    1  0.1448308E-002  0.1249980E+03  0.7818608E-02  0.1235072E+00
          4   -1    0    0  501    0  0.00000000000E+00  0.00000000000E+00  0.35080821261E+02  0.35103802078E+02  0.12700000000E+01 0. -1.
         -4   -1    0    0    0  501 -0.00000000000E+00 -0.00000000000E+00 -0.11128343586E+03  0.11129068244E+03  0.12700000000E+01 0. -1.
         25    2    1    2    0    0  0.00000000000E+00  0.00000000000E+00 -0.76202614603E+02  0.14639448452E+03  0.12499802648E+03 0.  0.
    9000005    1    3    3    0    0 -0.29969648282E+02 -0.47001277563E+02 -0.71182095905E+02  0.90416761102E+02  0.10000000000E+01 0.  0.
    9000005    1    3    3    0    0  0.29969648282E+02  0.47001277563E+02 -0.50205186980E+01  0.55977723415E+02  0.10000000000E+01 0.  0.
<mgrwt>
<rscale>  0 0.12499803E+03</rscale>
<asrwt>0</asrwt>
<pdfrwt beam="1">  1        4 0.87739840E-02 0.12499803E+03</pdfrwt>
<pdfrwt beam="2">  1       -4 0.27824637E-01 0.12499803E+03</pdfrwt>
<totfact> 0.18718357E+03</totfact>
</mgrwt>
</event>
<event>
 5    1  0.1448308E-002  0.1250008E+03  0.7818608E-02  0.1235068E+00
         -4   -1    0    0    0  501 -0.00000000000E+00  0.00000000000E+00  0.42283724909E+02  0.42302792959E+02  0.12700000000E+01 0. -1.
          4   -1    0    0  501    0  0.00000000000E+00 -0.00000000000E+00 -0.92338802464E+02  0.92347535649E+02  0.12700000000E+01 0. -1.
         25    2    1    2    0    0  0.00000000000E+00  0.00000000000E+00 -0.50055077555E+02  0.13465032861E+03  0.12500080082E+03 0.  0.
    9000005    1    3    3    0    0  0.56928049084E+02 -0.20322826317E+02 -0.79452383251E+01  0.60974969078E+02  0.10000000000E+01 0.  0.
    9000005    1    3    3    0    0 -0.56928049084E+02  0.20322826317E+02 -0.42109839230E+02  0.73675359531E+02  0.10000000000E+01 0.  0.
<mgrwt>
<rscale>  0 0.12500080E+03</rscale>
<asrwt>0</asrwt>
<pdfrwt beam="2">  1        4 0.23088175E-01 0.12500080E+03</pdfrwt>
<pdfrwt beam="1">  1       -4 0.10574407E-01 0.12500080E+03</pdfrwt>
<totfact> 0.19317107E+03</totfact>
</mgrwt>
</event>
<event>
 5    1  0.1448308E-002  0.1249983E+03  0.7818608E-02  0.1235072E+00
         -4   -1    0    0    0  501 -0.00000000000E+00  0.00000000000E+00  0.12983085370E+03  0.12983706509E+03  0.12700000000E+01 0.  1.
          4   -1    0    0  501    0  0.00000000000E+00 -0.00000000000E+00 -0.30066070426E+02  0.30092881066E+02  0.12700000000E+01 0.  1.
         25    2    1    2    0    0  0.00000000000E+00  0.00000000000E+00  0.99764783273E+02  0.15992994616E+03  0.12499830278E+03 0.  0.
    9000005    1    3    3    0    0 -0.37568783094E+02 -0.49915072715E+02  0.51787011417E+02  0.81153080649E+02  0.10000000000E+01 0.  0.
    9000005    1    3    3    0    0  0.37568783094E+02  0.49915072715E+02  0.47977771856E+02  0.78776865510E+02  0.10000000000E+01 0.  0.
<mgrwt>
<rscale>  0 0.12499830E+03</rscale>
<asrwt>0</asrwt>
<pdfrwt beam="2">  1        4 0.75206455E-02 0.12499830E+03</pdfrwt>
<pdfrwt beam="1">  1       -4 0.32461840E-01 0.12499830E+03</pdfrwt>
<totfact> 0.18061764E+03</totfact>
</mgrwt>
</event>
<event>
 5    1  0.1448308E-002  0.1249990E+03  0.7818608E-02  0.1235071E+00
          4   -1    0    0  501    0  0.00000000000E+00  0.00000000000E+00  0.30978349248E+03  0.30978609574E+03  0.12700000000E+01 0. -1.
         -4   -1    0    0    0  501 -0.00000000000E+00 -0.00000000000E+00 -0.12574761965E+02  0.12638731680E+02  0.12700000000E+01 0. -1.
         25    2    1    2    0    0  0.00000000000E+00  0.00000000000E+00  0.29720873052E+03  0.32242482742E+03  0.12499895936E+03 0.  0.
    9000005    1    3    3    0    0  0.11438688258E+02 -0.50079169343E+02  0.56811136745E+02  0.76598120404E+02  0.10000000000E+01 0.  0.
    9000005    1    3    3    0    0 -0.11438688258E+02  0.50079169343E+02  0.24039759377E+03  0.24582670702E+03  0.10000000000E+01 0.  0.
<mgrwt>
<rscale>  0 0.12499896E+03</rscale>
<asrwt>0</asrwt>
<pdfrwt beam="1">  1        4 0.77454196E-01 0.12499896E+03</pdfrwt>
<pdfrwt beam="2">  1       -4 0.31520121E-02 0.12499896E+03</pdfrwt>
<totfact> 0.12365337E+03</totfact>
</mgrwt>
</event>
<event>
 5    1  0.1448308E-002  0.1250033E+03  0.7818608E-02  0.1235064E+00
         -4   -1    0    0    0  501 -0.00000000000E+00  0.00000000000E+00  0.41775745114E+02  0.41795044919E+02  0.12700000000E+01 0.  1.
          4   -1    0    0  501    0  0.00000000000E+00 -0.00000000000E+00 -0.93465010156E+02  0.93473638120E+02  0.12700000000E+01 0.  1.
         25    2    1    2    0    0  0.00000000000E+00  0.00000000000E+00 -0.51689265042E+02  0.13526868304E+03  0.12500334592E+03 0.  0.
    9000005    1    3    3    0    0  0.59789468919E+02 -0.52113211872E+01 -0.44697167421E+02  0.74838327330E+02  0.10000000000E+01 0.  0.
    9000005    1    3    3    0    0 -0.59789468919E+02  0.52113211872E+01 -0.69920976211E+01  0.60430355710E+02  0.10000000000E+01 0.  0.
<mgrwt>
<rscale>  0 0.12500335E+03</rscale>
<asrwt>0</asrwt>
<pdfrwt beam="2">  1        4 0.23369743E-01 0.12500335E+03</pdfrwt>
<pdfrwt beam="1">  1       -4 0.10447427E-01 0.12500335E+03</pdfrwt>
<totfact> 0.19283568E+03</totfact>
</mgrwt>
</event>
<event>
 5    1  0.1448308E-002  0.1250007E+03  0.7818608E-02  0.1235068E+00
         -4   -1    0    0    0  501 -0.00000000000E+00  0.00000000000E+00  0.29032465669E+03  0.29032743443E+03  0.12700000000E+01 0. -1.
          4   -1    0    0  501    0  0.00000000000E+00 -0.00000000000E+00 -0.13422103703E+02  0.13482053546E+02  0.12700000000E+01 0. -1.
         25    2    1    2    0    0  0.00000000000E+00  0.00000000000E+00  0.27690255298E+03  0.30380948797E+03  0.12500072453E+03 0.  0.
    9000005    1    3    3    0    0 -0.43681459249E+02 -0.41611950487E+02  0.98836167098E+02  0.11579815297E+03  0.10000000000E+01 0.  0.
    9000005    1    3    3    0    0  0.43681459249E+02  0.41611950487E+02  0.17806638589E+03  0.18801133500E+03  0.10000000000E+01 0.  0.
<mgrwt>
<rscale>  0 0.12500072E+03</rscale>
<asrwt>0</asrwt>
<pdfrwt beam="2">  1        4 0.33633670E-02 0.12500072E+03</pdfrwt>
<pdfrwt beam="1">  1       -4 0.72589001E-01 0.12500072E+03</pdfrwt>
<totfact> 0.12864743E+03</totfact>
</mgrwt>
</event>
<event>
 5    1  0.1448308E-002  0.1250259E+03  0.7818608E-02  0.1235029E+00
         -4   -1    0    0    0  501 -0.00000000000E+00  0.00000000000E+00  0.22023405308E+03  0.22023771483E+03  0.12700000000E+01 0.  1.
          4   -1    0    0  501    0  0.00000000000E+00 -0.00000000000E+00 -0.17717626240E+02  0.17763084743E+02  0.12700000000E+01 0.  1.
         25    2    1    2    0    0  0.00000000000E+00  0.00000000000E+00  0.20251642684E+03  0.23800079957E+03  0.12502590715E+03 0.  0.
    9000005    1    3    3    0    0 -0.11637897810E+02 -0.28277965458E+01 -0.15522319764E+02  0.19631085288E+02  0.10000000000E+01 0.  0.
    9000005    1    3    3    0    0  0.11637897810E+02  0.28277965458E+01  0.21803874660E+03  0.21836971429E+03  0.10000000000E+01 0.  0.
<mgrwt>
<rscale>  0 0.12502591E+03</rscale>
<asrwt>0</asrwt>
<pdfrwt beam="2">  1        4 0.44355467E-02 0.12502591E+03</pdfrwt>
<pdfrwt beam="1">  1       -4 0.55064652E-01 0.12502591E+03</pdfrwt>
<totfact> 0.14896686E+03</totfact>
</mgrwt>
</event>
<event>
 5    1  0.1448308E-002  0.1249989E+03  0.7818608E-02  0.1235071E+00
          4   -1    0    0  501    0  0.00000000000E+00  0.00000000000E+00  0.48228034276E+02  0.48244752980E+02  0.12700000000E+01 0.  1.
         -4   -1    0    0    0  501 -0.00000000000E+00 -0.00000000000E+00 -0.80958221706E+02  0.80968182404E+02  0.12700000000E+01 0.  1.
         25    2    1    2    0    0  0.00000000000E+00  0.00000000000E+00 -0.32730187430E+02  0.12921293538E+03  0.12499887000E+03 0.  0.
    9000005    1    3    3    0    0  0.51047715713E+02 -0.30476022664E+02  0.35327944954E+01  0.59566247774E+02  0.10000000000E+01 0.  0.
    9000005    1    3    3    0    0 -0.51047715713E+02  0.30476022664E+02 -0.36262981925E+02  0.69646687610E+02  0.10000000000E+01 0.  0.
<mgrwt>
<rscale>  0 0.12499887E+03</rscale>
<asrwt>0</asrwt>
<pdfrwt beam="1">  1        4 0.12060344E-01 0.12499887E+03</pdfrwt>
<pdfrwt beam="2">  1       -4 0.20242890E-01 0.12499887E+03</pdfrwt>
<totfact> 0.19607306E+03</totfact>
</mgrwt>
</event>
<event>
 5    1  0.1448308E-002  0.1250041E+03  0.7818608E-02  0.1235063E+00
          4   -1    0    0  501    0  0.00000000000E+00  0.00000000000E+00  0.55694426629E+03  0.55694571428E+03  0.12700000000E+01 0. -1.
         -4   -1    0    0    0  501 -0.00000000000E+00 -0.00000000000E+00 -0.69552243091E+01  0.70702224286E+01  0.12700000000E+01 0. -1.
         25    2    1    2    0    0  0.00000000000E+00  0.00000000000E+00  0.54998904199E+03  0.56401593671E+03  0.12500412218E+03 0.  0.
    9000005    1    3    3    0    0  0.18773420394E+02  0.55778360777E+02  0.36983635577E+03  0.37449111725E+03  0.10000000000E+01 0.  0.
    9000005    1    3    3    0    0 -0.18773420394E+02 -0.55778360777E+02  0.18015268621E+03  0.18952481946E+03  0.10000000000E+01 0.  0.
<mgrwt>
<rscale>  0 0.12500412E+03</rscale>
<asrwt>0</asrwt>
<pdfrwt beam="1">  1        4 0.13925061E+00 0.12500412E+03</pdfrwt>
<pdfrwt beam="2">  1       -4 0.17533620E-02 0.12500412E+03</pdfrwt>
<totfact> 0.78218035E+02</totfact>
</mgrwt>
</event>
<event>
 5    1  0.1448308E-002  0.1250021E+03  0.7818608E-02  0.1235066E+00
          4   -1    0    0  501    0  0.00000000000E+00  0.00000000000E+00  0.70878817982E+02  0.70890194939E+02  0.12700000000E+01 0.  1.
         -4   -1    0    0    0  501 -0.00000000000E+00 -0.00000000000E+00 -0.55090436784E+02  0.55105073496E+02  0.12700000000E+01 0.  1.
         25    2    1    2    0    0  0.00000000000E+00  0.00000000000E+00  0.15788381198E+02  0.12599526844E+03  0.12500213873E+03 0.  0.
    9000005    1    3    3    0    0 -0.14356294468E+01 -0.25998508297E+02 -0.49367373117E+02  0.55822226703E+02  0.10000000000E+01 0.  0.
    9000005    1    3    3    0    0  0.14356294468E+01  0.25998508297E+02  0.65155754315E+02  0.70173041732E+02  0.10000000000E+01 0.  0.
<mgrwt>
<rscale>  0 0.12500214E+03</rscale>
<asrwt>0</asrwt>
<pdfrwt beam="1">  1        4 0.17722956E-01 0.12500214E+03</pdfrwt>
<pdfrwt beam="2">  1       -4 0.13775861E-01 0.12500214E+03</pdfrwt>
<totfact> 0.19780186E+03</totfact>
</mgrwt>
</event>
<event>
 5    1  0.1448308E-002  0.1249890E+03  0.7818608E-02  0.1235086E+00
         -4   -1    0    0    0  501 -0.00000000000E+00  0.00000000000E+00  0.44916892510E+02  0.44934843192E+02  0.12700000000E+01 0. -1.
          4   -1    0    0  501    0  0.00000000000E+00 -0.00000000000E+00 -0.86910888582E+02  0.86920167131E+02  0.12700000000E+01 0. -1.
         25    2    1    2    0    0  0.00000000000E+00  0.00000000000E+00 -0.41993996073E+02  0.13185501032E+03  0.12498899168E+03 0.  0.
    9000005    1    3    3    0    0  0.19173040019E+02 -0.59397697703E+02 -0.17855129479E+02  0.64926863506E+02  0.10000000000E+01 0.  0.
    9000005    1    3    3    0    0 -0.19173040019E+02  0.59397697703E+02 -0.24138866594E+02  0.66928146818E+02  0.10000000000E+01 0.  0.
<mgrwt>
<rscale>  0 0.12498899E+03</rscale>
<asrwt>0</asrwt>
<pdfrwt beam="2">  1        4 0.21731126E-01 0.12498899E+03</pdfrwt>
<pdfrwt beam="1">  1       -4 0.11232627E-01 0.12498899E+03</pdfrwt>
<totfact> 0.19470170E+03</totfact>
</mgrwt>
</event>
<event>
 5    1  0.1448308E-002  0.1250009E+03  0.7818608E-02  0.1235068E+00
          4   -1    0    0  501    0  0.00000000000E+00  0.00000000000E+00  0.67029925514E+02  0.67041955628E+02  0.12700000000E+01 0. -1.
         -4   -1    0    0    0  501 -0.00000000000E+00 -0.00000000000E+00 -0.58252879915E+02  0.58266722222E+02  0.12700000000E+01 0. -1.
         25    2    1    2    0    0  0.00000000000E+00  0.00000000000E+00  0.87770455991E+01  0.12530867785E+03  0.12500091286E+03 0.  0.
    9000005    1    3    3    0    0  0.29691118909E+02  0.19554338988E+02 -0.47132298296E+02  0.59045645546E+02  0.10000000000E+01 0.  0.
    9000005    1    3    3    0    0 -0.29691118909E+02 -0.19554338988E+02  0.55909343895E+02  0.66263032304E+02  0.10000000000E+01 0.  0.
<mgrwt>
<rscale>  0 0.12500091E+03</rscale>
<asrwt>0</asrwt>
<pdfrwt beam="1">  1        4 0.16760715E-01 0.12500091E+03</pdfrwt>
<pdfrwt beam="2">  1       -4 0.14566454E-01 0.12500091E+03</pdfrwt>
<totfact> 0.19817901E+03</totfact>
</mgrwt>
</event>
<event>
 5    1  0.1448308E-002  0.1250096E+03  0.7818608E-02  0.1235054E+00
          4   -1    0    0  501    0  0.00000000000E+00  0.00000000000E+00  0.19137500996E+02  0.19179594479E+02  0.12700000000E+01 0. -1.
         -4   -1    0    0    0  501 -0.00000000000E+00 -0.00000000000E+00 -0.20387799919E+03  0.20388195470E+03  0.12700000000E+01 0. -1.
         25    2    1    2    0    0  0.00000000000E+00  0.00000000000E+00 -0.18474049819E+03  0.22306154918E+03  0.12500961183E+03 0.  0.
    9000005    1    3    3    0    0 -0.15533679525E+02 -0.60489258645E+02 -0.96594745933E+02  0.11502952035E+03  0.10000000000E+01 0.  0.
    9000005    1    3    3    0    0  0.15533679525E+02  0.60489258645E+02 -0.88145752258E+02  0.10803202883E+03  0.10000000000E+01 0.  0.
<mgrwt>
<rscale>  0 0.12500961E+03</rscale>
<asrwt>0</asrwt>
<pdfrwt beam="1">  1        4 0.47901320E-02 0.12500961E+03</pdfrwt>
<pdfrwt beam="2">  1       -4 0.50975249E-01 0.12500961E+03</pdfrwt>
<totfact> 0.15435026E+03</totfact>
</mgrwt>
</event>
<event>
 5    1  0.1448308E-002  0.1250010E+03  0.7818608E-02  0.1235068E+00
          4   -1    0    0  501    0  0.00000000000E+00  0.00000000000E+00  0.43119169502E+03  0.43119356530E+03  0.12700000000E+01 0. -1.
         -4   -1    0    0    0  501 -0.00000000000E+00 -0.00000000000E+00 -0.90129286396E+01  0.91019658680E+01  0.12700000000E+01 0. -1.
         25    2    1    2    0    0  0.00000000000E+00  0.00000000000E+00  0.42217876638E+03  0.44029553116E+03  0.12500097592E+03 0.  0.
    9000005    1    3    3    0    0  0.14730125238E+01 -0.62450196985E+02  0.21730521101E+03  0.22610783180E+03  0.10000000000E+01 0.  0.
    9000005    1    3    3    0    0 -0.14730125238E+01  0.62450196985E+02  0.20487355537E+03  0.21418769937E+03  0.10000000000E+01 0.  0.
<mgrwt>
<rscale>  0 0.12500098E+03</rscale>
<asrwt>0</asrwt>
<pdfrwt beam="1">  1        4 0.10780928E+00 0.12500098E+03</pdfrwt>
<pdfrwt beam="2">  1       -4 0.22645957E-02 0.12500098E+03</pdfrwt>
<totfact> 0.97783617E+02</totfact>
</mgrwt>
</event>
<event>
 5    1  0.1448308E-002  0.1249983E+03  0.7818608E-02  0.1235072E+00
          4   -1    0    0  501    0  0.00000000000E+00  0.00000000000E+00  0.33435111768E+03  0.33435352966E+03  0.12700000000E+01 0.  1.
         -4   -1    0    0    0  501 -0.00000000000E+00 -0.00000000000E+00 -0.11645790665E+02  0.11714834195E+02  0.12700000000E+01 0.  1.
         25    2    1    2    0    0  0.00000000000E+00  0.00000000000E+00  0.32270532702E+03  0.34606836385E+03  0.12499833749E+03 0.  0.
    9000005    1    3    3    0    0 -0.52896700796E+02  0.20789034150E+02  0.23327731437E+03  0.24010320759E+03  0.10000000000E+01 0.  0.
    9000005    1    3    3    0    0  0.52896700796E+02 -0.20789034150E+02  0.89428012651E+02  0.10596515627E+03  0.10000000000E+01 0.  0.
<mgrwt>
<rscale>  0 0.12499834E+03</rscale>
<asrwt>0</asrwt>
<pdfrwt beam="1">  1        4 0.83596712E-01 0.12499834E+03</pdfrwt>
<pdfrwt beam="2">  1       -4 0.29203796E-02 0.12499834E+03</pdfrwt>
<totfact> 0.11772103E+03</totfact>
</mgrwt>
</event>
<event>
 5    1  0.1448308E-002  0.1250003E+03  0.7818608E-02  0.1235069E+00
          4   -1    0    0  501    0  0.00000000000E+00  0.00000000000E+00  0.73328897409E+03  0.73329007386E+03  0.12700000000E+01 0. -1.
         -4   -1    0    0    0  501 -0.00000000000E+00 -0.00000000000E+00 -0.52502369043E+01  0.54016560008E+01  0.12700000000E+01 0. -1.
         25    2    1    2    0    0  0.00000000000E+00  0.00000000000E+00  0.72803873718E+03  0.73869172986E+03  0.12500027569E+03 0.  0.
    9000005    1    3    3    0    0 -0.61388989953E+02 -0.10174692495E+02  0.39803623337E+03  0.40287215780E+03  0.10000000000E+01 0.  0.
    9000005    1    3    3    0    0  0.61388989953E+02  0.10174692495E+02  0.33000250382E+03  0.33581957206E+03  0.10000000000E+01 0.  0.
<mgrwt>
<rscale>  0 0.12500028E+03</rscale>
<asrwt>0</asrwt>
<pdfrwt beam="1">  1        4 0.18334135E+00 0.12500028E+03</pdfrwt>
<pdfrwt beam="2">  1       -4 0.13316238E-02 0.12500028E+03</pdfrwt>
<totfact> 0.58160777E+02</totfact>
</mgrwt>
</event>
<event>
 5    1  0.1448308E-002  0.1250035E+03  0.7818608E-02  0.1235064E+00
         -4   -1    0    0    0  501 -0.00000000000E+00  0.00000000000E+00  0.11684903074E+03  0.11685593217E+03  0.12700000000E+01 0.  1.
          4   -1    0    0  501    0  0.00000000000E+00 -0.00000000000E+00 -0.33411820246E+02  0.33435948202E+02  0.12700000000E+01 0.  1.
         25    2    1    2    0    0  0.00000000000E+00  0.00000000000E+00  0.83437210490E+02  0.15029188037E+03  0.12500352480E+03 0.  0.
    9000005    1    3    3    0    0 -0.32609513578E+02  0.30456170675E+01 -0.22272896164E+02  0.39619920023E+02  0.10000000000E+01 0.  0.
    9000005    1    3    3    0    0  0.32609513578E+02 -0.30456170675E+01  0.10571010665E+03  0.11067196035E+03  0.10000000000E+01 0.  0.
<mgrwt>
<rscale>  0 0.12500352E+03</rscale>
<asrwt>0</asrwt>
<pdfrwt beam="2">  1        4 0.83568338E-02 0.12500352E+03</pdfrwt>
<pdfrwt beam="1">  1       -4 0.29216136E-01 0.12500352E+03</pdfrwt>
<totfact> 0.18522919E+03</totfact>
</mgrwt>
</event>
<event>
 5    1  0.1448308E-002  0.1250014E+03  0.7818608E-02  0.1235067E+00
          4   -1    0    0  501    0  0.00000000000E+00  0.00000000000E+00  0.16335611872E+03  0.16336105540E+03  0.12700000000E+01 0. -1.
         -4   -1    0    0    0  501 -0.00000000000E+00 -0.00000000000E+00 -0.23890870228E+02  0.23924601987E+02  0.12700000000E+01 0. -1.
         25    2    1    2    0    0  0.00000000000E+00  0.00000000000E+00  0.13946524849E+03  0.18728565739E+03  0.12500144770E+03 0.  0.
    9000005    1    3    3    0    0 -0.59851942574E+02 -0.12236087444E+02  0.50005287617E+02  0.78952553192E+02  0.10000000000E+01 0.  0.
    9000005    1    3    3    0    0  0.59851942574E+02  0.12236087444E+02  0.89459960872E+02  0.10833310420E+03  0.10000000000E+01 0.  0.
<mgrwt>
<rscale>  0 0.12500145E+03</rscale>
<asrwt>0</asrwt>
<pdfrwt beam="1">  1        4 0.40843863E-01 0.12500145E+03</pdfrwt>
<pdfrwt beam="2">  1       -4 0.59775512E-02 0.12500145E+03</pdfrwt>
<totfact> 0.16843565E+03</totfact>
</mgrwt>
</event>
<event>
 5    1  0.1448308E-002  0.1249939E+03  0.7818608E-02  0.1235079E+00
          4   -1    0    0  501    0  0.00000000000E+00  0.00000000000E+00  0.19351200296E+02  0.19392829935E+02  0.12700000000E+01 0. -1.
         -4   -1    0    0    0  501 -0.00000000000E+00 -0.00000000000E+00 -0.20158056532E+03  0.20158456591E+03  0.12700000000E+01 0. -1.
         25    2    1    2    0    0  0.00000000000E+00  0.00000000000E+00 -0.18222936502E+03  0.22097739585E+03  0.12499387185E+03 0.  0.
    9000005    1    3    3    0    0 -0.26993524611E+02 -0.54214926045E+02 -0.11832885953E+03  0.13293091279E+03  0.10000000000E+01 0.  0.
    9000005    1    3    3    0    0  0.26993524611E+02  0.54214926045E+02 -0.63900505494E+02  0.88046483061E+02  0.10000000000E+01 0.  0.
<mgrwt>
<rscale>  0 0.12499387E+03</rscale>
<asrwt>0</asrwt>
<pdfrwt beam="1">  1        4 0.48435045E-02 0.12499387E+03</pdfrwt>
<pdfrwt beam="2">  1       -4 0.50400839E-01 0.12499387E+03</pdfrwt>
<totfact> 0.15517353E+03</totfact>
</mgrwt>
</event>
<event>
 5    1  0.1448308E-002  0.1250069E+03  0.7818608E-02  0.1235058E+00
         -4   -1    0    0    0  501 -0.00000000000E+00  0.00000000000E+00  0.72978836745E+02  0.72989886372E+02  0.12700000000E+01 0. -1.
          4   -1    0    0  501    0  0.00000000000E+00 -0.00000000000E+00 -0.53509091483E+02  0.53524160632E+02  0.12700000000E+01 0. -1.
         25    2    1    2    0    0  0.00000000000E+00  0.00000000000E+00  0.19469745262E+02  0.12651404700E+03  0.12500693224E+03 0.  0.
    9000005    1    3    3    0    0  0.57709995577E+02 -0.23448724775E+02  0.46345716029E+01  0.62472118077E+02  0.10000000000E+01 0.  0.
    9000005    1    3    3    0    0 -0.57709995577E+02  0.23448724775E+02  0.14835173659E+02  0.64041928927E+02  0.10000000000E+01 0.  0.
<mgrwt>
<rscale>  0 0.12500693E+03</rscale>
<asrwt>0</asrwt>
<pdfrwt beam="2">  1        4 0.13380538E-01 0.12500693E+03</pdfrwt>
<pdfrwt beam="1">  1       -4 0.18247974E-01 0.12500693E+03</pdfrwt>
<totfact> 0.19749965E+03</totfact>
</mgrwt>
</event>
<event>
 5    1  0.1448308E-002  0.1250003E+03  0.7818608E-02  0.1235069E+00
          4   -1    0    0  501    0  0.00000000000E+00  0.00000000000E+00  0.11197402367E+02  0.11269193394E+02  0.12700000000E+01 0. -1.
         -4   -1    0    0    0  501 -0.00000000000E+00 -0.00000000000E+00 -0.34766705370E+03  0.34766937330E+03  0.12700000000E+01 0. -1.
         25    2    1    2    0    0  0.00000000000E+00  0.00000000000E+00 -0.33646965134E+03  0.35893856670E+03  0.12500027356E+03 0.  0.
    9000005    1    3    3    0    0 -0.34964239767E+02  0.22861965304E+02 -0.30169326651E+03  0.30457346335E+03  0.10000000000E+01 0.  0.
    9000005    1    3    3    0    0  0.34964239767E+02 -0.22861965304E+02 -0.34776384829E+02  0.54365103346E+02  0.10000000000E+01 0.  0.
<mgrwt>
<rscale>  0 0.12500027E+03</rscale>
<asrwt>0</asrwt>
<pdfrwt beam="1">  1        4 0.28086156E-02 0.12500027E+03</pdfrwt>
<pdfrwt beam="2">  1       -4 0.86925991E-01 0.12500027E+03</pdfrwt>
<totfact> 0.11466928E+03</totfact>
</mgrwt>
</event>
<event>
 5    1  0.1448308E-002  0.1250015E+03  0.7818608E-02  0.1235067E+00
          4   -1    0    0  501    0  0.00000000000E+00  0.00000000000E+00  0.70314780356E+02  0.70326248560E+02  0.12700000000E+01 0. -1.
         -4   -1    0    0    0  501 -0.00000000000E+00 -0.00000000000E+00 -0.55531850945E+02  0.55546371343E+02  0.12700000000E+01 0. -1.
         25    2    1    2    0    0  0.00000000000E+00  0.00000000000E+00  0.14782929411E+02  0.12587261990E+03  0.12500152575E+03 0.  0.
    9000005    1    3    3    0    0  0.61735054457E+02  0.73124090099E+01  0.13812189846E+02  0.63690382812E+02  0.10000000000E+01 0.  0.
    9000005    1    3    3    0    0 -0.61735054457E+02 -0.73124090099E+01  0.97073956505E+00  0.62182237091E+02  0.10000000000E+01 0.  0.
<mgrwt>
<rscale>  0 0.12500153E+03</rscale>
<asrwt>0</asrwt>
<pdfrwt beam="1">  1        4 0.17581944E-01 0.12500153E+03</pdfrwt>
<pdfrwt beam="2">  1       -4 0.13886211E-01 0.12500153E+03</pdfrwt>
<totfact> 0.19787099E+03</totfact>
</mgrwt>
</event>
<event>
 5    1  0.1448308E-002  0.1250028E+03  0.7818608E-02  0.1235065E+00
         -4   -1    0    0    0  501 -0.00000000000E+00  0.00000000000E+00  0.70468909827E+03  0.70469024267E+03  0.12700000000E+01 0. -1.
          4   -1    0    0  501    0  0.00000000000E+00 -0.00000000000E+00 -0.54695672724E+01  0.56150749013E+01  0.12700000000E+01 0. -1.
         25    2    1    2    0    0  0.00000000000E+00  0.00000000000E+00  0.69921953100E+03  0.71030531757E+03  0.12500276656E+03 0.  0.
    9000005    1    3    3    0    0  0.43920673246E+01  0.59966043765E+02  0.25280899303E+03  0.25986266299E+03  0.10000000000E+01 0.  0.
    9000005    1    3    3    0    0 -0.43920673246E+01 -0.59966043765E+02  0.44641053796E+03  0.45044265458E+03  0.10000000000E+01 0.  0.
<mgrwt>
<rscale>  0 0.12500277E+03</rscale>
<asrwt>0</asrwt>
<pdfrwt beam="2">  1        4 0.13857232E-02 0.12500277E+03</pdfrwt>
<pdfrwt beam="1">  1       -4 0.17619062E+00 0.12500277E+03</pdfrwt>
<totfact> 0.60995268E+02</totfact>
</mgrwt>
</event>
<event>
 5    1  0.1448308E-002  0.1250015E+03  0.7818608E-02  0.1235067E+00
         -4   -1    0    0    0  501 -0.00000000000E+00  0.00000000000E+00  0.19323850734E+02  0.19365539166E+02  0.12700000000E+01 0.  1.
          4   -1    0    0  501    0  0.00000000000E+00 -0.00000000000E+00 -0.20188982673E+03  0.20189382120E+03  0.12700000000E+01 0.  1.
         25    2    1    2    0    0  0.00000000000E+00  0.00000000000E+00 -0.18256597600E+03  0.22125936036E+03  0.12500147582E+03 0.  0.
    9000005    1    3    3    0    0  0.55588331208E+02 -0.27487635793E+02 -0.77605434711E+02  0.99344029436E+02  0.10000000000E+01 0.  0.
    9000005    1    3    3    0    0 -0.55588331208E+02  0.27487635793E+02 -0.10496054129E+03  0.12191533093E+03  0.10000000000E+01 0.  0.
<mgrwt>
<rscale>  0 0.12500148E+03</rscale>
<asrwt>0</asrwt>
<pdfrwt beam="2">  1        4 0.50478160E-01 0.12500148E+03</pdfrwt>
<pdfrwt beam="1">  1       -4 0.48366737E-02 0.12500148E+03</pdfrwt>
<totfact> 0.15504218E+03</totfact>
</mgrwt>
</event>
<event>
 5    1  0.1448308E-002  0.1249953E+03  0.7818608E-02  0.1235077E+00
          4   -1    0    0  501    0  0.00000000000E+00  0.00000000000E+00  0.18583740084E+02  0.18627084997E+02  0.12700000000E+01 0. -1.
         -4   -1    0    0    0  501 -0.00000000000E+00 -0.00000000000E+00 -0.20989122473E+03  0.20989506692E+03  0.12700000000E+01 0. -1.
         25    2    1    2    0    0  0.00000000000E+00  0.00000000000E+00 -0.19130748465E+03  0.22852215192E+03  0.12499528086E+03 0.  0.
    9000005    1    3    3    0    0  0.48899127203E+02  0.36456840622E+02 -0.12050237242E+03  0.13506312460E+03  0.10000000000E+01 0.  0.
    9000005    1    3    3    0    0 -0.48899127203E+02 -0.36456840622E+02 -0.70805112232E+02  0.93459027320E+02  0.10000000000E+01 0.  0.
<mgrwt>
<rscale>  0 0.12499528E+03</rscale>
<asrwt>0</asrwt>
<pdfrwt beam="1">  1        4 0.46518341E-02 0.12499528E+03</pdfrwt>
<pdfrwt beam="2">  1       -4 0.52478697E-01 0.12499528E+03</pdfrwt>
<totfact> 0.15241922E+03</totfact>
</mgrwt>
</event>
<event>
 5    1  0.1448308E-002  0.1249974E+03  0.7818608E-02  0.1235073E+00
         -4   -1    0    0    0  501 -0.00000000000E+00  0.00000000000E+00  0.30816220953E+02  0.30842379510E+02  0.12700000000E+01 0.  1.
          4   -1    0    0  501    0  0.00000000000E+00 -0.00000000000E+00 -0.12667108161E+03  0.12667744794E+03  0.12700000000E+01 0.  1.
         25    2    1    2    0    0  0.00000000000E+00  0.00000000000E+00 -0.95854860657E+02  0.15751982745E+03  0.12499736688E+03 0.  0.
    9000005    1    3    3    0    0  0.59387734067E+02 -0.11486954185E+02 -0.67701994697E+02  0.90793244022E+02  0.10000000000E+01 0.  0.
    9000005    1    3    3    0    0 -0.59387734067E+02  0.11486954185E+02 -0.28152865960E+02  0.66726583427E+02  0.10000000000E+01 0.  0.
<mgrwt>
<rscale>  0 0.12499737E+03</rscale>
<asrwt>0</asrwt>
<pdfrwt beam="2">  1        4 0.31671835E-01 0.12499737E+03</pdfrwt>
<pdfrwt beam="1">  1       -4 0.77081212E-02 0.12499737E+03</pdfrwt>
<totfact> 0.18176216E+03</totfact>
</mgrwt>
</event>
<event>
 5    1  0.1448308E-002  0.1250002E+03  0.7818608E-02  0.1235069E+00
         -4   -1    0    0    0  501 -0.00000000000E+00  0.00000000000E+00  0.12867970346E+03  0.12868597042E+03  0.12700000000E+01 0. -1.
          4   -1    0    0  501    0  0.00000000000E+00 -0.00000000000E+00 -0.30336177760E+02  0.30362749894E+02  0.12700000000E+01 0. -1.
         25    2    1    2    0    0  0.00000000000E+00  0.00000000000E+00  0.98343525703E+02  0.15904872032E+03  0.12500018555E+03 0.  0.
    9000005    1    3    3    0    0 -0.41971062486E+02  0.25846254368E+01 -0.96479530965E+01  0.43154760731E+02  0.10000000000E+01 0.  0.
    9000005    1    3    3    0    0  0.41971062486E+02 -0.25846254368E+01  0.10799147880E+03  0.11589395958E+03  0.10000000000E+01 0.  0.
<mgrwt>
<rscale>  0 0.12500019E+03</rscale>
<asrwt>0</asrwt>
<pdfrwt beam="2">  1        4 0.75881495E-02 0.12500019E+03</pdfrwt>
<pdfrwt beam="1">  1       -4 0.32174030E-01 0.12500019E+03</pdfrwt>
<totfact> 0.18102537E+03</totfact>
</mgrwt>
</event>
<event>
 5    1  0.1448308E-002  0.1249979E+03  0.7818608E-02  0.1235073E+00
         -4   -1    0    0    0  501 -0.00000000000E+00  0.00000000000E+00  0.23558577592E+03  0.23558919906E+03  0.12700000000E+01 0.  1.
          4   -1    0    0  501    0  0.00000000000E+00 -0.00000000000E+00 -0.16552591328E+02  0.16601240305E+02  0.12700000000E+01 0.  1.
         25    2    1    2    0    0  0.00000000000E+00  0.00000000000E+00  0.21903318459E+03  0.25219043937E+03  0.12499792701E+03 0.  0.
    9000005    1    3    3    0    0 -0.59874839600E+01 -0.16073653026E+02 -0.11720085934E+02  0.20798382150E+02  0.10000000000E+01 0.  0.
    9000005    1    3    3    0    0  0.59874839600E+01  0.16073653026E+02  0.23075327052E+03  0.23139205722E+03  0.10000000000E+01 0.  0.
<mgrwt>
<rscale>  0 0.12499793E+03</rscale>
<asrwt>0</asrwt>
<pdfrwt beam="2">  1        4 0.41446569E-02 0.12499793E+03</pdfrwt>
<pdfrwt beam="1">  1       -4 0.58902952E-01 0.12499793E+03</pdfrwt>
<totfact> 0.14426091E+03</totfact>
</mgrwt>
</event>
<event>
 5    1  0.1448308E-002  0.1249976E+03  0.7818608E-02  0.1235073E+00
          4   -1    0    0  501    0  0.00000000000E+00  0.00000000000E+00  0.67853028005E+02  0.67864912211E+02  0.12700000000E+01 0. -1.
         -4   -1    0    0    0  501 -0.00000000000E+00 -0.00000000000E+00 -0.57543099560E+02  0.57557112567E+02  0.12700000000E+01 0. -1.
         25    2    1    2    0    0  0.00000000000E+00  0.00000000000E+00  0.10309928444E+02  0.12542202478E+03  0.12499755868E+03 0.  0.
    9000005    1    3    3    0    0  0.52066423003E+02  0.28471995191E+02  0.24805402104E+02  0.64326315672E+02  0.10000000000E+01 0.  0.
    9000005    1    3    3    0    0 -0.52066423003E+02 -0.28471995191E+02 -0.14495473659E+02  0.61095709105E+02  0.10000000000E+01 0.  0.
<mgrwt>
<rscale>  0 0.12499756E+03</rscale>
<asrwt>0</asrwt>
<pdfrwt beam="1">  1        4 0.16966494E-01 0.12499756E+03</pdfrwt>
<pdfrwt beam="2">  1       -4 0.14389012E-01 0.12499756E+03</pdfrwt>
<totfact> 0.19813317E+03</totfact>
</mgrwt>
</event>
<event>
 5    1  0.1448308E-002  0.1249997E+03  0.7818608E-02  0.1235070E+00
          4   -1    0    0  501    0  0.00000000000E+00  0.00000000000E+00  0.71866538056E+03  0.71866650271E+03  0.12700000000E+01 0. -1.
         -4   -1    0    0    0  501 -0.00000000000E+00 -0.00000000000E+00 -0.53600651851E+01  0.55084661012E+01  0.12700000000E+01 0. -1.
         25    2    1    2    0    0  0.00000000000E+00  0.00000000000E+00  0.71330531537E+03  0.72417496881E+03  0.12499965003E+03 0.  0.
    9000005    1    3    3    0    0 -0.27305293044E+02  0.17683504778E+02  0.66577050457E+03  0.66656556326E+03  0.10000000000E+01 0.  0.
    9000005    1    3    3    0    0  0.27305293044E+02 -0.17683504778E+02  0.47534810804E+02  0.57609405548E+02  0.10000000000E+01 0.  0.
<mgrwt>
<rscale>  0 0.12499965E+03</rscale>
<asrwt>0</asrwt>
<pdfrwt beam="1">  1        4 0.17968501E+00 0.12499965E+03</pdfrwt>
<pdfrwt beam="2">  1       -4 0.13587069E-02 0.12499965E+03</pdfrwt>
<totfact> 0.59594742E+02</totfact>
</mgrwt>
</event>
<event>
 5    1  0.1448308E-002  0.1249938E+03  0.7818608E-02  0.1235079E+00
          4   -1    0    0  501    0  0.00000000000E+00  0.00000000000E+00  0.48189920173E+01  0.49835312844E+01  0.12700000000E+01 0.  1.
         -4   -1    0    0    0  501 -0.00000000000E+00 -0.00000000000E+00 -0.79674463871E+03  0.79674565089E+03  0.12700000000E+01 0.  1.
         25    2    1    2    0    0  0.00000000000E+00  0.00000000000E+00 -0.79192564669E+03  0.80172918218E+03  0.12499380649E+03 0.  0.
    9000005    1    3    3    0    0  0.50860547110E+02  0.26573680495E+01 -0.16372040400E+03  0.17146202945E+03  0.10000000000E+01 0.  0.
    9000005    1    3    3    0    0 -0.50860547110E+02 -0.26573680495E+01 -0.62820524269E+03  0.63026715272E+03  0.10000000000E+01 0.  0.
<mgrwt>
<rscale>  0 0.12499381E+03</rscale>
<asrwt>0</asrwt>
<pdfrwt beam="1">  1        4 0.12254447E-02 0.12499381E+03</pdfrwt>
<pdfrwt beam="2">  1       -4 0.19920641E+00 0.12499381E+03</pdfrwt>
<totfact> 0.52333263E+02</totfact>
</mgrwt>
</event>
<event>
 5    1  0.1448308E-002  0.1249985E+03  0.7818608E-02  0.1235072E+00
          4   -1    0    0  501    0  0.00000000000E+00  0.00000000000E+00  0.37615915788E+03  0.37616130178E+03  0.12700000000E+01 0.  1.
         -4   -1    0    0    0  501 -0.00000000000E+00 -0.00000000000E+00 -0.10343303857E+02  0.10420980504E+02  0.12700000000E+01 0.  1.
         25    2    1    2    0    0  0.00000000000E+00  0.00000000000E+00  0.36581585402E+03  0.38658228228E+03  0.12499848768E+03 0.  0.
    9000005    1    3    3    0    0 -0.25005598488E+02  0.17731514362E+02  0.35132413150E+03  0.35266036343E+03  0.10000000000E+01 0.  0.
    9000005    1    3    3    0    0  0.25005598488E+02 -0.17731514362E+02  0.14491722521E+02  0.33921918857E+02  0.10000000000E+01 0.  0.
<mgrwt>
<rscale>  0 0.12499849E+03</rscale>
<asrwt>0</asrwt>
<pdfrwt beam="1">  1        4 0.94049768E-01 0.12499849E+03</pdfrwt>
<pdfrwt beam="2">  1       -4 0.25958035E-02 0.12499849E+03</pdfrwt>
<totfact> 0.10851277E+03</totfact>
</mgrwt>
</event>
<event>
 5    1  0.1448308E-002  0.1249950E+03  0.7818608E-02  0.1235077E+00
          4   -1    0    0  501    0  0.00000000000E+00  0.00000000000E+00  0.57732647815E+02  0.57746614825E+02  0.12700000000E+01 0.  1.
         -4   -1    0    0    0  501 -0.00000000000E+00 -0.00000000000E+00 -0.67627466613E+02  0.67639390450E+02  0.12700000000E+01 0.  1.
         25    2    1    2    0    0  0.00000000000E+00  0.00000000000E+00 -0.98948187981E+01  0.12538600528E+03  0.12499497142E+03 0.  0.
    9000005    1    3    3    0    0 -0.60936973205E+02 -0.90713870458E+01  0.55414458666E+01  0.61865276114E+02  0.10000000000E+01 0.  0.
    9000005    1    3    3    0    0  0.60936973205E+02  0.90713870458E+01 -0.15436264665E+02  0.63520729161E+02  0.10000000000E+01 0.  0.
<mgrwt>
<rscale>  0 0.12499497E+03</rscale>
<asrwt>0</asrwt>
<pdfrwt beam="1">  1        4 0.14436398E-01 0.12499497E+03</pdfrwt>
<pdfrwt beam="2">  1       -4 0.16910103E-01 0.12499497E+03</pdfrwt>
<totfact> 0.19816467E+03</totfact>
</mgrwt>
</event>
<event>
 5    1  0.1448308E-002  0.1249960E+03  0.7818608E-02  0.1235076E+00
         -4   -1    0    0    0  501 -0.00000000000E+00  0.00000000000E+00  0.47313259709E+03  0.47313430158E+03  0.12700000000E+01 0.  1.
          4   -1    0    0  501    0  0.00000000000E+00 -0.00000000000E+00 -0.82050368358E+01  0.83027422866E+01  0.12700000000E+01 0.  1.
         25    2    1    2    0    0  0.00000000000E+00  0.00000000000E+00  0.46492756026E+03  0.48143704387E+03  0.12499596362E+03 0.  0.
    9000005    1    3    3    0    0  0.55416689841E+02 -0.25356264933E+02  0.17922662806E+03  0.18930698321E+03  0.10000000000E+01 0.  0.
    9000005    1    3    3    0    0 -0.55416689841E+02  0.25356264933E+02  0.28570093220E+03  0.29213006066E+03  0.10000000000E+01 0.  0.
<mgrwt>
<rscale>  0 0.12499596E+03</rscale>
<asrwt>0</asrwt>
<pdfrwt beam="2">  1        4 0.20636856E-02 0.12499596E+03</pdfrwt>
<pdfrwt beam="1">  1       -4 0.11829557E+00 0.12499596E+03</pdfrwt>
<totfact> 0.90641206E+02</totfact>
</mgrwt>
</event>
<event>
 5    1  0.1448308E-002  0.1249997E+03  0.7818608E-02  0.1235070E+00
          4   -1    0    0  501    0  0.00000000000E+00  0.00000000000E+00  0.20025815156E+03  0.20026217857E+03  0.12700000000E+01 0.  1.
         -4   -1    0    0    0  501 -0.00000000000E+00 -0.00000000000E+00 -0.19481067763E+02  0.19522420474E+02  0.12700000000E+01 0.  1.
         25    2    1    2    0    0  0.00000000000E+00  0.00000000000E+00  0.18077708380E+03  0.21978459904E+03  0.12499966381E+03 0.  0.
    9000005    1    3    3    0    0 -0.28603109412E+01  0.61153579373E+02  0.11243989759E+03  0.12802996609E+03  0.10000000000E+01 0.  0.
    9000005    1    3    3    0    0  0.28603109412E+01 -0.61153579373E+02  0.68337186210E+02  0.91754632951E+02  0.10000000000E+01 0.  0.
<mgrwt>
<rscale>  0 0.12499966E+03</rscale>
<asrwt>0</asrwt>
<pdfrwt beam="1">  1        4 0.50070209E-01 0.12499966E+03</pdfrwt>
<pdfrwt beam="2">  1       -4 0.48759396E-02 0.12499966E+03</pdfrwt>
<totfact> 0.15559453E+03</totfact>
</mgrwt>
</event>
<event>
 5    1  0.1448308E-002  0.1250008E+03  0.7818608E-02  0.1235068E+00
          4   -1    0    0  501    0  0.00000000000E+00  0.00000000000E+00  0.63935814484E+02  0.63948426672E+02  0.12700000000E+01 0.  1.
         -4   -1    0    0    0  501 -0.00000000000E+00 -0.00000000000E+00 -0.61071978346E+02  0.61085181830E+02  0.12700000000E+01 0.  1.
         25    2    1    2    0    0  0.00000000000E+00  0.00000000000E+00  0.28638361378E+01  0.12503360850E+03  0.12500080679E+03 0.  0.
    9000005    1    3    3    0    0 -0.49424805358E+02  0.17081862799E+02  0.35656375619E+02  0.63300699393E+02  0.10000000000E+01 0.  0.
    9000005    1    3    3    0    0  0.49424805358E+02 -0.17081862799E+02 -0.32792539481E+02  0.61732909108E+02  0.10000000000E+01 0.  0.
<mgrwt>
<rscale>  0 0.12500081E+03</rscale>
<asrwt>0</asrwt>
<pdfrwt beam="1">  1        4 0.15987181E-01 0.12500081E+03</pdfrwt>
<pdfrwt beam="2">  1       -4 0.15271222E-01 0.12500081E+03</pdfrwt>
<totfact> 0.19832858E+03</totfact>
</mgrwt>
</event>
<event>
 5    1  0.1448308E-002  0.1249862E+03  0.7818608E-02  0.1235091E+00
         -4   -1    0    0    0  501 -0.00000000000E+00  0.00000000000E+00  0.96576862311E+02  0.96585212294E+02  0.12700000000E+01 0. -1.
          4   -1    0    0  501    0  0.00000000000E+00 -0.00000000000E+00 -0.40418040190E+02  0.40437987992E+02  0.12700000000E+01 0. -1.
         25    2    1    2    0    0  0.00000000000E+00  0.00000000000E+00  0.56158822121E+02  0.13702320029E+03  0.12498617569E+03 0.  0.
    9000005    1    3    3    0    0  0.52078108905E+02  0.25998664333E+02  0.31682398206E+01  0.58301781429E+02  0.10000000000E+01 0.  0.
    9000005    1    3    3    0    0 -0.52078108905E+02 -0.25998664333E+02  0.52990582300E+02  0.78721418856E+02  0.10000000000E+01 0.  0.
<mgrwt>
<rscale>  0 0.12498618E+03</rscale>
<asrwt>0</asrwt>
<pdfrwt beam="2">  1        4 0.10108047E-01 0.12498618E+03</pdfrwt>
<pdfrwt beam="1">  1       -4 0.24147753E-01 0.12498618E+03</pdfrwt>
<totfact> 0.19199873E+03</totfact>
</mgrwt>
</event>
<event>
 5    1  0.1448308E-002  0.1249983E+03  0.7818608E-02  0.1235072E+00
         -4   -1    0    0    0  501 -0.00000000000E+00  0.00000000000E+00  0.68221562749E+02  0.68233382768E+02  0.12700000000E+01 0. -1.
          4   -1    0    0  501    0  0.00000000000E+00 -0.00000000000E+00 -0.57232933862E+02  0.57247022791E+02  0.12700000000E+01 0. -1.
         25    2    1    2    0    0  0.00000000000E+00  0.00000000000E+00  0.10988628888E+02  0.12548040556E+03  0.12499832885E+03 0.  0.
    9000005    1    3    3    0    0 -0.53362732990E+02  0.82955626777E+01  0.37059947137E+02  0.65504483160E+02  0.10000000000E+01 0.  0.
    9000005    1    3    3    0    0  0.53362732990E+02 -0.82955626777E+01 -0.26071318249E+02  0.59975922398E+02  0.10000000000E+01 0.  0.
<mgrwt>
<rscale>  0 0.12499833E+03</rscale>
<asrwt>0</asrwt>
<pdfrwt beam="2">  1        4 0.14311472E-01 0.12499833E+03</pdfrwt>
<pdfrwt beam="1">  1       -4 0.17058629E-01 0.12499833E+03</pdfrwt>
<totfact> 0.19809799E+03</totfact>
</mgrwt>
</event>
<event>
 5    1  0.1448308E-002  0.1249994E+03  0.7818608E-02  0.1235070E+00
         -4   -1    0    0    0  501 -0.00000000000E+00  0.00000000000E+00  0.21392359444E+03  0.21392736421E+03  0.12700000000E+01 0. -1.
          4   -1    0    0  501    0  0.00000000000E+00 -0.00000000000E+00 -0.18233836848E+02  0.18278011549E+02  0.12700000000E+01 0. -1.
         25    2    1    2    0    0  0.00000000000E+00  0.00000000000E+00  0.19568975759E+03  0.23220537576E+03  0.12499942122E+03 0.  0.
    9000005    1    3    3    0    0 -0.52378987505E+01  0.10382470346E+02  0.21190502865E+03  0.21222622939E+03  0.10000000000E+01 0.  0.
    9000005    1    3    3    0    0  0.52378987505E+01 -0.10382470346E+02 -0.16215271063E+02  0.19979146365E+02  0.10000000000E+01 0.  0.
<mgrwt>
<rscale>  0 0.12499942E+03</rscale>
<asrwt>0</asrwt>
<pdfrwt beam="2">  1        4 0.45644522E-02 0.12499942E+03</pdfrwt>
<pdfrwt beam="1">  1       -4 0.53486892E-01 0.12499942E+03</pdfrwt>
<totfact> 0.15109029E+03</totfact>
</mgrwt>
</event>
<event>
 5    1  0.1448308E-002  0.1249992E+03  0.7818608E-02  0.1235071E+00
          4   -1    0    0  501    0  0.00000000000E+00  0.00000000000E+00  0.39277661211E+01  0.41279833699E+01  0.12700000000E+01 0.  1.
         -4   -1    0    0    0  501 -0.00000000000E+00 -0.00000000000E+00 -0.96959145332E+03  0.96959228507E+03  0.12700000000E+01 0.  1.
         25    2    1    2    0    0  0.00000000000E+00  0.00000000000E+00 -0.96566368720E+03  0.97372026844E+03  0.12499921752E+03 0.  0.
    9000005    1    3    3    0    0  0.16464549712E+02 -0.52562588061E+02 -0.71276906869E+03  0.71489485405E+03  0.10000000000E+01 0.  0.
    9000005    1    3    3    0    0 -0.16464549712E+02  0.52562588061E+02 -0.25289461851E+03  0.25882541439E+03  0.10000000000E+01 0.  0.
<mgrwt>
<rscale>  0 0.12499922E+03</rscale>
<asrwt>0</asrwt>
<pdfrwt beam="1">  1        4 0.10070760E-02 0.12499922E+03</pdfrwt>
<pdfrwt beam="2">  1       -4 0.24242220E+00 0.12499922E+03</pdfrwt>
<totfact> 0.38905635E+02</totfact>
</mgrwt>
</event>
<event>
 5    1  0.1448308E-002  0.1250002E+03  0.7818608E-02  0.1235069E+00
         -4   -1    0    0    0  501 -0.00000000000E+00  0.00000000000E+00  0.73121815020E+01  0.74216506465E+01  0.12700000000E+01 0. -1.
          4   -1    0    0  501    0  0.00000000000E+00 -0.00000000000E+00 -0.53013388670E+03  0.53013540792E+03  0.12700000000E+01 0. -1.
         25    2    1    2    0    0  0.00000000000E+00  0.00000000000E+00 -0.52282170520E+03  0.53755705857E+03  0.12500022314E+03 0.  0.
    9000005    1    3    3    0    0  0.56431227666E+01  0.18458809375E+02 -0.51701425783E+03  0.51737541039E+03  0.10000000000E+01 0.  0.
    9000005    1    3    3    0    0 -0.56431227666E+01 -0.18458809375E+02 -0.58074473701E+01  0.20181648175E+02  0.10000000000E+01 0.  0.
<mgrwt>
<rscale>  0 0.12500022E+03</rscale>
<asrwt>0</asrwt>
<pdfrwt beam="2">  1        4 0.13254722E+00 0.12500022E+03</pdfrwt>
<pdfrwt beam="1">  1       -4 0.18419210E-02 0.12500022E+03</pdfrwt>
<totfact> 0.81927280E+02</totfact>
</mgrwt>
</event>
<event>
 5    1  0.1448308E-002  0.1249897E+03  0.7818608E-02  0.1235085E+00
         -4   -1    0    0    0  501 -0.00000000000E+00  0.00000000000E+00  0.31521239028E+03  0.31521494871E+03  0.12700000000E+01 0. -1.
          4   -1    0    0  501    0  0.00000000000E+00 -0.00000000000E+00 -0.12355243771E+02  0.12420344143E+02  0.12700000000E+01 0. -1.
         25    2    1    2    0    0  0.00000000000E+00  0.00000000000E+00  0.30285714651E+03  0.32763529285E+03  0.12498973529E+03 0.  0.
    9000005    1    3    3    0    0 -0.12145845464E+02 -0.36874489200E+02  0.23082418058E+02  0.45177954128E+02  0.10000000000E+01 0.  0.
    9000005    1    3    3    0    0  0.12145845464E+02  0.36874489200E+02  0.27977472845E+03  0.28245733872E+03  0.10000000000E+01 0.  0.
<mgrwt>
<rscale>  0 0.12498974E+03</rscale>
<asrwt>0</asrwt>
<pdfrwt beam="2">  1        4 0.30972684E-02 0.12498974E+03</pdfrwt>
<pdfrwt beam="1">  1       -4 0.78811553E-01 0.12498974E+03</pdfrwt>
<totfact> 0.12233278E+03</totfact>
</mgrwt>
</event>
<event>
 5    1  0.1448308E-002  0.1250002E+03  0.7818608E-02  0.1235069E+00
         -4   -1    0    0    0  501 -0.00000000000E+00  0.00000000000E+00  0.11469043599E+03  0.11469746731E+03  0.12700000000E+01 0. -1.
          4   -1    0    0  501    0  0.00000000000E+00 -0.00000000000E+00 -0.34039291472E+02  0.34062974971E+02  0.12700000000E+01 0. -1.
         25    2    1    2    0    0  0.00000000000E+00  0.00000000000E+00  0.80651144516E+02  0.14876044228E+03  0.12500024830E+03 0.  0.
    9000005    1    3    3    0    0 -0.49925529640E+02 -0.36216989662E+02  0.28363233555E+02  0.67894785276E+02  0.10000000000E+01 0.  0.
    9000005    1    3    3    0    0  0.49925529640E+02  0.36216989662E+02  0.52287910960E+02  0.80865657003E+02  0.10000000000E+01 0.  0.
<mgrwt>
<rscale>  0 0.12500025E+03</rscale>
<asrwt>0</asrwt>
<pdfrwt beam="2">  1        4 0.85136623E-02 0.12500025E+03</pdfrwt>
<pdfrwt beam="1">  1       -4 0.28676448E-01 0.12500025E+03</pdfrwt>
<totfact> 0.18599791E+03</totfact>
</mgrwt>
</event>
<event>
 5    1  0.1448308E-002  0.1250015E+03  0.7818608E-02  0.1235067E+00
          4   -1    0    0  501    0  0.00000000000E+00  0.00000000000E+00  0.14073555620E+03  0.14074128633E+03  0.12700000000E+01 0.  1.
         -4   -1    0    0    0  501 -0.00000000000E+00 -0.00000000000E+00 -0.27735807803E+02  0.27764868710E+02  0.12700000000E+01 0.  1.
         25    2    1    2    0    0  0.00000000000E+00  0.00000000000E+00  0.11299974840E+03  0.16850615505E+03  0.12500152459E+03 0.  0.
    9000005    1    3    3    0    0  0.47869450563E+02  0.52343974529E+01  0.11019258195E+03  0.12025925465E+03  0.10000000000E+01 0.  0.
    9000005    1    3    3    0    0 -0.47869450563E+02 -0.52343974529E+01  0.28071664513E+01  0.48246900391E+02  0.10000000000E+01 0.  0.
<mgrwt>
<rscale>  0 0.12500152E+03</rscale>
<asrwt>0</asrwt>
<pdfrwt beam="1">  1        4 0.35188238E-01 0.12500152E+03</pdfrwt>
<pdfrwt beam="2">  1       -4 0.69383008E-02 0.12500152E+03</pdfrwt>
<totfact> 0.17664012E+03</totfact>
</mgrwt>
</event>
<event>
 5    1  0.1448308E-002  0.1250023E+03  0.7818608E-02  0.1235066E+00
          4   -1    0    0  501    0  0.00000000000E+00  0.00000000000E+00  0.85610845263E+03  0.85610939462E+03  0.12700000000E+01 0. -1.
         -4   -1    0    0    0  501 -0.00000000000E+00 -0.00000000000E+00 -0.44736316020E+01  0.46504064028E+01  0.12700000000E+01 0. -1.
         25    2    1    2    0    0  0.00000000000E+00  0.00000000000E+00  0.85163482103E+03  0.86075980103E+03  0.12500226669E+03 0.  0.
    9000005    1    3    3    0    0 -0.17735801877E+02 -0.38166101046E+02  0.74392921658E+03  0.74511937917E+03  0.10000000000E+01 0.  0.
    9000005    1    3    3    0    0  0.17735801877E+02  0.38166101046E+02  0.10770560445E+03  0.11564042186E+03  0.10000000000E+01 0.  0.
<mgrwt>
<rscale>  0 0.12500227E+03</rscale>
<asrwt>0</asrwt>
<pdfrwt beam="1">  1        4 0.21404935E+00 0.12500227E+03</pdfrwt>
<pdfrwt beam="2">  1       -4 0.11406224E-02 0.12500227E+03</pdfrwt>
<totfact> 0.47352584E+02</totfact>
</mgrwt>
</event>
<event>
 5    1  0.1448308E-002  0.1250012E+03  0.7818608E-02  0.1235067E+00
         -4   -1    0    0    0  501 -0.00000000000E+00  0.00000000000E+00  0.14987220981E+02  0.15040933905E+02  0.12700000000E+01 0. -1.
          4   -1    0    0  501    0  0.00000000000E+00 -0.00000000000E+00 -0.26012237773E+03  0.26012547798E+03  0.12700000000E+01 0. -1.
         25    2    1    2    0    0  0.00000000000E+00  0.00000000000E+00 -0.24513515675E+03  0.27516641189E+03  0.12500123662E+03 0.  0.
    9000005    1    3    3    0    0 -0.27919231913E+02  0.52800147087E+01 -0.44082303594E-01  0.28431742985E+02  0.10000000000E+01 0.  0.
    9000005    1    3    3    0    0  0.27919231913E+02 -0.52800147087E+01 -0.24509107444E+03  0.24673466890E+03  0.10000000000E+01 0.  0.
<mgrwt>
<rscale>  0 0.12500124E+03</rscale>
<asrwt>0</asrwt>
<pdfrwt beam="2">  1        4 0.65037682E-01 0.12500124E+03</pdfrwt>
<pdfrwt beam="1">  1       -4 0.37539077E-02 0.12500124E+03</pdfrwt>
<totfact> 0.13696376E+03</totfact>
</mgrwt>
</event>
<event>
 5    1  0.1448308E-002  0.1249970E+03  0.7818608E-02  0.1235074E+00
         -4   -1    0    0    0  501 -0.00000000000E+00  0.00000000000E+00  0.74393974438E+02  0.74404813908E+02  0.12700000000E+01 0.  1.
          4   -1    0    0  501    0  0.00000000000E+00 -0.00000000000E+00 -0.52482752239E+02  0.52498115991E+02  0.12700000000E+01 0.  1.
         25    2    1    2    0    0  0.00000000000E+00  0.00000000000E+00  0.21911222199E+02  0.12690292990E+03  0.12499700780E+03 0.  0.
    9000005    1    3    3    0    0 -0.23847552968E+02 -0.48289666298E+02 -0.21220941294E+02  0.57895820256E+02  0.10000000000E+01 0.  0.
    9000005    1    3    3    0    0  0.23847552968E+02  0.48289666298E+02  0.43132163493E+02  0.69007109643E+02  0.10000000000E+01 0.  0.
<mgrwt>
<rscale>  0 0.12499701E+03</rscale>
<asrwt>0</asrwt>
<pdfrwt beam="2">  1        4 0.13123964E-01 0.12499701E+03</pdfrwt>
<pdfrwt beam="1">  1       -4 0.18601769E-01 0.12499701E+03</pdfrwt>
<totfact> 0.19733586E+03</totfact>
</mgrwt>
</event>
<event>
 5    1  0.1448308E-002  0.1249973E+03  0.7818608E-02  0.1235073E+00
         -4   -1    0    0    0  501 -0.00000000000E+00  0.00000000000E+00  0.70551479634E+02  0.70562909369E+02  0.12700000000E+01 0.  1.
          4   -1    0    0  501    0  0.00000000000E+00 -0.00000000000E+00 -0.55341803684E+02  0.55356373933E+02  0.12700000000E+01 0.  1.
         25    2    1    2    0    0  0.00000000000E+00  0.00000000000E+00  0.15209675951E+02  0.12591928330E+03  0.12499732663E+03 0.  0.
    9000005    1    3    3    0    0 -0.32881408393E+02 -0.33517168696E+02  0.49146056981E+02  0.67977367793E+02  0.10000000000E+01 0.  0.
    9000005    1    3    3    0    0  0.32881408393E+02  0.33517168696E+02 -0.33936381031E+02  0.57941915508E+02  0.10000000000E+01 0.  0.
<mgrwt>
<rscale>  0 0.12499733E+03</rscale>
<asrwt>0</asrwt>
<pdfrwt beam="2">  1        4 0.13838701E-01 0.12499733E+03</pdfrwt>
<pdfrwt beam="1">  1       -4 0.17641120E-01 0.12499733E+03</pdfrwt>
<totfact> 0.19786520E+03</totfact>
</mgrwt>
</event>
<event>
 4    1  0.1448308E-002  0.1249082E+03  0.7818608E-02  0.1235213E+00
          4   -1    0    0  501    0  0.00000000000E+00  0.00000000000E+00  0.11312149091E+03  0.11312861974E+03  0.12700000000E+01 0. -1.
         -4   -1    0    0    0  501 -0.00000000000E+00 -0.00000000000E+00 -0.34460830181E+02  0.34484224172E+02  0.12700000000E+01 0. -1.
    9000005    1    1    2    0    0 -0.20871311155E+02  0.29054977020E+02  0.99817027476E+02  0.10603887161E+03  0.10000000000E+01 0.  0.
    9000005    1    1    2    0    0  0.20871311155E+02 -0.29054977020E+02 -0.21156366749E+02  0.41573972302E+02  0.10000000000E+01 0.  0.
<mgrwt>
<rscale>  0 0.12490817E+03</rscale>
<asrwt>0</asrwt>
<pdfrwt beam="1">  1        4 0.28284188E-01 0.12490817E+03</pdfrwt>
<pdfrwt beam="2">  1       -4 0.86190230E-02 0.12490817E+03</pdfrwt>
<totfact> 0.18696719E+03</totfact>
</mgrwt>
</event>
<event>
 5    1  0.1448308E-002  0.1250049E+03  0.7818608E-02  0.1235062E+00
         -4   -1    0    0    0  501 -0.00000000000E+00  0.00000000000E+00  0.99518336302E+02  0.99526439503E+02  0.12700000000E+01 0.  1.
          4   -1    0    0  501    0  0.00000000000E+00 -0.00000000000E+00 -0.39234671198E+02  0.39255220341E+02  0.12700000000E+01 0.  1.
         25    2    1    2    0    0  0.00000000000E+00  0.00000000000E+00  0.60283665104E+02  0.13878165984E+03  0.12500491523E+03 0.  0.
    9000005    1    3    3    0    0  0.54720823105E+01 -0.13439867730E+02 -0.37343786785E+02  0.40076578457E+02  0.10000000000E+01 0.  0.
    9000005    1    3    3    0    0 -0.54720823105E+01  0.13439867730E+02  0.97627451888E+02  0.98705081387E+02  0.10000000000E+01 0.  0.
<mgrwt>
<rscale>  0 0.12500492E+03</rscale>
<asrwt>0</asrwt>
<pdfrwt beam="2">  1        4 0.98122494E-02 0.12500492E+03</pdfrwt>
<pdfrwt beam="1">  1       -4 0.24883165E-01 0.12500492E+03</pdfrwt>
<totfact> 0.19100655E+03</totfact>
</mgrwt>
</event>
<event>
 5    1  0.1448308E-002  0.1249995E+03  0.7818608E-02  0.1235070E+00
         -4   -1    0    0    0  501 -0.00000000000E+00  0.00000000000E+00  0.39185804311E+02  0.39206379067E+02  0.12700000000E+01 0. -1.
          4   -1    0    0  501    0  0.00000000000E+00 -0.00000000000E+00 -0.99633791748E+02  0.99641885561E+02  0.12700000000E+01 0. -1.
         25    2    1    2    0    0  0.00000000000E+00  0.00000000000E+00 -0.60447987437E+02  0.13884826463E+03  0.12499952562E+03 0.  0.
    9000005    1    3    3    0    0 -0.36455419217E+02  0.38668729034E+02 -0.66744377044E+02  0.85323385202E+02  0.10000000000E+01 0.  0.
    9000005    1    3    3    0    0  0.36455419217E+02 -0.38668729034E+02  0.62963896073E+01  0.53524879425E+02  0.10000000000E+01 0.  0.
<mgrwt>
<rscale>  0 0.12499953E+03</rscale>
<asrwt>0</asrwt>
<pdfrwt beam="2">  1        4 0.24912031E-01 0.12499953E+03</pdfrwt>
<pdfrwt beam="1">  1       -4 0.98000348E-02 0.12499953E+03</pdfrwt>
<totfact> 0.19099630E+03</totfact>
</mgrwt>
</event>
<event>
 5    1  0.1448308E-002  0.1249992E+03  0.7818608E-02  0.1235071E+00
         -4   -1    0    0    0  501 -0.00000000000E+00  0.00000000000E+00  0.45965706785E+02  0.45983248039E+02  0.12700000000E+01 0.  1.
          4   -1    0    0  501    0  0.00000000000E+00 -0.00000000000E+00 -0.84942187883E+02  0.84951681457E+02  0.12700000000E+01 0.  1.
         25    2    1    2    0    0  0.00000000000E+00  0.00000000000E+00 -0.38976481098E+02  0.13093492950E+03  0.12499915873E+03 0.  0.
    9000005    1    3    3    0    0 -0.38373009075E+02  0.76650902475E+01  0.31548715001E+02  0.50274872970E+02  0.10000000000E+01 0.  0.
    9000005    1    3    3    0    0  0.38373009075E+02 -0.76650902475E+01 -0.70525196099E+02  0.80660056526E+02  0.10000000000E+01 0.  0.
<mgrwt>
<rscale>  0 0.12499916E+03</rscale>
<asrwt>0</asrwt>
<pdfrwt beam="2">  1        4 0.21238926E-01 0.12499916E+03</pdfrwt>
<pdfrwt beam="1">  1       -4 0.11494806E-01 0.12499916E+03</pdfrwt>
<totfact> 0.19514636E+03</totfact>
</mgrwt>
</event>
<event>
 5    1  0.1448308E-002  0.1249968E+03  0.7818608E-02  0.1235074E+00
         -4   -1    0    0    0  501 -0.00000000000E+00  0.00000000000E+00  0.10508714620E+03  0.10509482002E+03  0.12700000000E+01 0.  1.
          4   -1    0    0  501    0  0.00000000000E+00 -0.00000000000E+00 -0.37149767465E+02  0.37171469203E+02  0.12700000000E+01 0.  1.
         25    2    1    2    0    0  0.00000000000E+00  0.00000000000E+00  0.67937378732E+02  0.14226628923E+03  0.12499683844E+03 0.  0.
    9000005    1    3    3    0    0  0.54965764209E+02 -0.28132743768E+02  0.44907215393E+02  0.76356692577E+02  0.10000000000E+01 0.  0.
    9000005    1    3    3    0    0 -0.54965764209E+02  0.28132743768E+02  0.23030163338E+02  0.65909596648E+02  0.10000000000E+01 0.  0.
<mgrwt>
<rscale>  0 0.12499684E+03</rscale>
<asrwt>0</asrwt>
<pdfrwt beam="2">  1        4 0.92911139E-02 0.12499684E+03</pdfrwt>
<pdfrwt beam="1">  1       -4 0.26275458E-01 0.12499684E+03</pdfrwt>
<totfact> 0.18926391E+03</totfact>
</mgrwt>
</event>
<event>
 5    1  0.1448308E-002  0.1250012E+03  0.7818608E-02  0.1235067E+00
         -4   -1    0    0    0  501 -0.00000000000E+00  0.00000000000E+00  0.55282685057E+02  0.55297270883E+02  0.12700000000E+01 0. -1.
          4   -1    0    0  501    0  0.00000000000E+00 -0.00000000000E+00 -0.70631272181E+02  0.70642689005E+02  0.12700000000E+01 0. -1.
         25    2    1    2    0    0  0.00000000000E+00  0.00000000000E+00 -0.15348587123E+02  0.12593995989E+03  0.12500117747E+03 0.  0.
    9000005    1    3    3    0    0 -0.13679404540E+02  0.17395363493E+02  0.51207749923E+02  0.55793892424E+02  0.10000000000E+01 0.  0.
    9000005    1    3    3    0    0  0.13679404540E+02 -0.17395363493E+02 -0.66556337047E+02  0.70146067464E+02  0.10000000000E+01 0.  0.
<mgrwt>
<rscale>  0 0.12500118E+03</rscale>
<asrwt>0</asrwt>
<pdfrwt beam="2">  1        4 0.17661068E-01 0.12500118E+03</pdfrwt>
<pdfrwt beam="1">  1       -4 0.13823922E-01 0.12500118E+03</pdfrwt>
<totfact> 0.19783620E+03</totfact>
</mgrwt>
</event>
<event>
 5    1  0.1448308E-002  0.1250016E+03  0.7818608E-02  0.1235067E+00
         -4   -1    0    0    0  501 -0.00000000000E+00  0.00000000000E+00  0.10100037257E+04  0.10100045242E+04  0.12700000000E+01 0.  1.
          4   -1    0    0  501    0  0.00000000000E+00 -0.00000000000E+00 -0.37625794996E+01  0.39711339050E+01  0.12700000000E+01 0.  1.
         25    2    1    2    0    0  0.00000000000E+00  0.00000000000E+00  0.10062411462E+04  0.10139756581E+04  0.12500156338E+03 0.  0.
    9000005    1    3    3    0    0 -0.29825882726E+02  0.46279800383E+02  0.74292324256E+03  0.74496130607E+03  0.10000000000E+01 0.  0.
    9000005    1    3    3    0    0  0.29825882726E+02 -0.46279800383E+02  0.26331790367E+03  0.26901435203E+03  0.10000000000E+01 0.  0.
<mgrwt>
<rscale>  0 0.12500156E+03</rscale>
<asrwt>0</asrwt>
<pdfrwt beam="2">  1        4 0.96681422E-03 0.12500156E+03</pdfrwt>
<pdfrwt beam="1">  1       -4 0.25252704E+00 0.12500156E+03</pdfrwt>
<totfact> 0.36175693E+02</totfact>
</mgrwt>
</event>
<event>
 5    1  0.1448308E-002  0.1249913E+03  0.7818608E-02  0.1235083E+00
          4   -1    0    0  501    0  0.00000000000E+00  0.00000000000E+00  0.32324598503E+01  0.34729953475E+01  0.12700000000E+01 0.  1.
         -4   -1    0    0    0  501 -0.00000000000E+00 -0.00000000000E+00 -0.11646935107E+04  0.11646942031E+04  0.12700000000E+01 0.  1.
         25    2    1    2    0    0  0.00000000000E+00  0.00000000000E+00 -0.11614610509E+04  0.11681671985E+04  0.12499132338E+03 0.  0.
    9000005    1    3    3    0    0 -0.81734660287E+01 -0.48564827110E+02 -0.22126103144E+03  0.22667772721E+03  0.10000000000E+01 0.  0.
    9000005    1    3    3    0    0  0.81734660287E+01  0.48564827110E+02 -0.94020001944E+03  0.94148947129E+03  0.10000000000E+01 0.  0.
<mgrwt>
<rscale>  0 0.12499132E+03</rscale>
<asrwt>0</asrwt>
<pdfrwt beam="1">  1        4 0.83827244E-03 0.12499132E+03</pdfrwt>
<pdfrwt beam="2">  1       -4 0.29120214E+00 0.12499132E+03</pdfrwt>
<totfact> 0.26907805E+02</totfact>
</mgrwt>
</event>
<event>
 5    1  0.1448308E-002  0.1250341E+03  0.7818608E-02  0.1235016E+00
         -4   -1    0    0    0  501 -0.00000000000E+00  0.00000000000E+00  0.33929691659E+03  0.33929929341E+03  0.12700000000E+01 0. -1.
          4   -1    0    0  501    0  0.00000000000E+00 -0.00000000000E+00 -0.11481625751E+02  0.11551650526E+02  0.12700000000E+01 0. -1.
         25    2    1    2    0    0  0.00000000000E+00  0.00000000000E+00  0.32781529084E+03  0.35085094393E+03  0.12503407516E+03 0.  0.
    9000005    1    3    3    0    0 -0.24770763020E+02 -0.22071345756E+02  0.15249741823E+02  0.36527929448E+02  0.10000000000E+01 0.  0.
    9000005    1    3    3    0    0  0.24770763020E+02  0.22071345756E+02  0.31256554901E+03  0.31432301449E+03  0.10000000000E+01 0.  0.
<mgrwt>
<rscale>  0 0.12503408E+03</rscale>
<asrwt>0</asrwt>
<pdfrwt beam="2">  1        4 0.28794569E-02 0.12503408E+03</pdfrwt>
<pdfrwt beam="1">  1       -4 0.84833272E-01 0.12503408E+03</pdfrwt>
<totfact> 0.11647987E+03</totfact>
</mgrwt>
</event>
<event>
 5    1  0.1448308E-002  0.1250033E+03  0.7818608E-02  0.1235064E+00
         -4   -1    0    0    0  501 -0.00000000000E+00  0.00000000000E+00  0.90309295218E+01  0.91197910079E+01  0.12700000000E+01 0.  1.
          4   -1    0    0  501    0  0.00000000000E+00 -0.00000000000E+00 -0.43035665852E+03  0.43035853243E+03  0.12700000000E+01 0.  1.
         25    2    1    2    0    0  0.00000000000E+00  0.00000000000E+00 -0.42132572900E+03  0.43947832343E+03  0.12500330737E+03 0.  0.
    9000005    1    3    3    0    0 -0.61059170206E+02  0.90928690713E+01 -0.17647623231E+03  0.18696460388E+03  0.10000000000E+01 0.  0.
    9000005    1    3    3    0    0  0.61059170206E+02 -0.90928690713E+01 -0.24484949669E+03  0.25251371956E+03  0.10000000000E+01 0.  0.
<mgrwt>
<rscale>  0 0.12500331E+03</rscale>
<asrwt>0</asrwt>
<pdfrwt beam="2">  1        4 0.10760044E+00 0.12500331E+03</pdfrwt>
<pdfrwt beam="1">  1       -4 0.22690757E-02 0.12500331E+03</pdfrwt>
<totfact> 0.97929872E+02</totfact>
</mgrwt>
</event>
<event>
 5    1  0.1448308E-002  0.1249967E+03  0.7818608E-02  0.1235074E+00
         -4   -1    0    0    0  501 -0.00000000000E+00  0.00000000000E+00  0.99317454389E+01  0.10012615416E+02  0.12700000000E+01 0. -1.
          4   -1    0    0  501    0  0.00000000000E+00 -0.00000000000E+00 -0.39161206457E+03  0.39161412388E+03  0.12700000000E+01 0. -1.
         25    2    1    2    0    0  0.00000000000E+00  0.00000000000E+00 -0.38168031914E+03  0.40162673929E+03  0.12499668675E+03 0.  0.
    9000005    1    3    3    0    0 -0.47491275983E+02  0.40368674939E+02 -0.20520659860E+03  0.21446631278E+03  0.10000000000E+01 0.  0.
    9000005    1    3    3    0    0  0.47491275983E+02 -0.40368674939E+02 -0.17647372054E+03  0.18716042651E+03  0.10000000000E+01 0.  0.
<mgrwt>
<rscale>  0 0.12499669E+03</rscale>
<asrwt>0</asrwt>
<pdfrwt beam="2">  1        4 0.97913331E-01 0.12499669E+03</pdfrwt>
<pdfrwt beam="1">  1       -4 0.24933038E-02 0.12499669E+03</pdfrwt>
<totfact> 0.10536567E+03</totfact>
</mgrwt>
</event>
<event>
 5    1  0.1448308E-002  0.1249989E+03  0.7818608E-02  0.1235071E+00
         -4   -1    0    0    0  501 -0.00000000000E+00  0.00000000000E+00  0.15778205812E+02  0.15829234936E+02  0.12700000000E+01 0. -1.
          4   -1    0    0  501    0  0.00000000000E+00 -0.00000000000E+00 -0.24711590845E+03  0.24711917187E+03  0.12700000000E+01 0. -1.
         25    2    1    2    0    0  0.00000000000E+00  0.00000000000E+00 -0.23133770264E+03  0.26294840681E+03  0.12499892793E+03 0.  0.
    9000005    1    3    3    0    0 -0.62281187355E+02 -0.44533580936E+01 -0.12099238572E+03  0.13615776180E+03  0.10000000000E+01 0.  0.
    9000005    1    3    3    0    0  0.62281187355E+02  0.44533580936E+01 -0.11034531692E+03  0.12679064501E+03  0.10000000000E+01 0.  0.
<mgrwt>
<rscale>  0 0.12499893E+03</rscale>
<asrwt>0</asrwt>
<pdfrwt beam="2">  1        4 0.61785751E-01 0.12499893E+03</pdfrwt>
<pdfrwt beam="1">  1       -4 0.39513388E-02 0.12499893E+03</pdfrwt>
<totfact> 0.14077309E+03</totfact>
</mgrwt>
</event>
<event>
 5    1  0.1448308E-002  0.1250032E+03  0.7818608E-02  0.1235064E+00
          4   -1    0    0  501    0  0.00000000000E+00  0.00000000000E+00  0.81140781419E+01  0.82128657661E+01  0.12700000000E+01 0.  1.
         -4   -1    0    0    0  501 -0.00000000000E+00 -0.00000000000E+00 -0.47842852078E+03  0.47843020640E+03  0.12700000000E+01 0.  1.
         25    2    1    2    0    0  0.00000000000E+00  0.00000000000E+00 -0.47031444263E+03  0.48664307216E+03  0.12500321889E+03 0.  0.
    9000005    1    3    3    0    0  0.12346563515E+02 -0.19179956608E+02 -0.86521934604E+01  0.24416568510E+02  0.10000000000E+01 0.  0.
    9000005    1    3    3    0    0 -0.12346563515E+02  0.19179956608E+02 -0.46166224917E+03  0.46222650365E+03  0.10000000000E+01 0.  0.
<mgrwt>
<rscale>  0 0.12500322E+03</rscale>
<asrwt>0</asrwt>
<pdfrwt beam="1">  1        4 0.20410803E-02 0.12500322E+03</pdfrwt>
<pdfrwt beam="2">  1       -4 0.11961959E+00 0.12500322E+03</pdfrwt>
<totfact> 0.89763313E+02</totfact>
</mgrwt>
</event>
<event>
 5    1  0.1448308E-002  0.1249987E+03  0.7818608E-02  0.1235071E+00
         -4   -1    0    0    0  501 -0.00000000000E+00  0.00000000000E+00  0.19765956730E+02  0.19806714656E+02  0.12700000000E+01 0.  1.
          4   -1    0    0  501    0  0.00000000000E+00 -0.00000000000E+00 -0.19737481237E+03  0.19737889821E+03  0.12700000000E+01 0.  1.
         25    2    1    2    0    0  0.00000000000E+00  0.00000000000E+00 -0.17760885564E+03  0.21718561286E+03  0.12499873933E+03 0.  0.
    9000005    1    3    3    0    0 -0.26921736404E+02 -0.13204219248E+02 -0.18406710688E+03  0.18649619602E+03  0.10000000000E+01 0.  0.
    9000005    1    3    3    0    0  0.26921736404E+02  0.13204219248E+02  0.64582512379E+01  0.30689416841E+02  0.10000000000E+01 0.  0.
<mgrwt>
<rscale>  0 0.12499874E+03</rscale>
<asrwt>0</asrwt>
<pdfrwt beam="2">  1        4 0.49349302E-01 0.12499874E+03</pdfrwt>
<pdfrwt beam="1">  1       -4 0.49470953E-02 0.12499874E+03</pdfrwt>
<totfact> 0.15656727E+03</totfact>
</mgrwt>
</event>
<event>
 5    1  0.1448308E-002  0.1249933E+03  0.7818608E-02  0.1235080E+00
         -4   -1    0    0    0  501 -0.00000000000E+00  0.00000000000E+00  0.47316228681E+02  0.47333269447E+02  0.12700000000E+01 0.  1.
          4   -1    0    0  501    0  0.00000000000E+00 -0.00000000000E+00 -0.82510635463E+02  0.82520408776E+02  0.12700000000E+01 0.  1.
         25    2    1    2    0    0  0.00000000000E+00  0.00000000000E+00 -0.35194406782E+02  0.12985367822E+03  0.12499332574E+03 0.  0.
    9000005    1    3    3    0    0 -0.39187448869E+02  0.85972087245E+01 -0.67369057933E+02  0.78416567851E+02  0.10000000000E+01 0.  0.
    9000005    1    3    3    0    0  0.39187448869E+02 -0.85972087245E+01  0.32174651151E+02  0.51437110372E+02  0.10000000000E+01 0.  0.
<mgrwt>
<rscale>  0 0.12499333E+03</rscale>
<asrwt>0</asrwt>
<pdfrwt beam="2">  1        4 0.20631010E-01 0.12499333E+03</pdfrwt>
<pdfrwt beam="1">  1       -4 0.11832409E-01 0.12499333E+03</pdfrwt>
<totfact> 0.19575301E+03</totfact>
</mgrwt>
</event>
<event>
 5    1  0.1448308E-002  0.1250000E+03  0.7818608E-02  0.1235069E+00
          4   -1    0    0  501    0  0.00000000000E+00  0.00000000000E+00  0.21973640355E+03  0.21974007360E+03  0.12700000000E+01 0.  1.
         -4   -1    0    0    0  501 -0.00000000000E+00 -0.00000000000E+00 -0.17750485152E+02  0.17795859719E+02  0.12700000000E+01 0.  1.
         25    2    1    2    0    0  0.00000000000E+00  0.00000000000E+00  0.20198591839E+03  0.23753593331E+03  0.12500003354E+03 0.  0.
    9000005    1    3    3    0    0 -0.88596927738E+01 -0.26494532534E+01 -0.16452436160E+02  0.18899640583E+02  0.10000000000E+01 0.  0.
    9000005    1    3    3    0    0  0.88596927738E+01  0.26494532534E+01  0.21843835455E+03  0.21863629273E+03  0.10000000000E+01 0.  0.
<mgrwt>
<rscale>  0 0.12500003E+03</rscale>
<asrwt>0</asrwt>
<pdfrwt beam="1">  1        4 0.54940231E-01 0.12500003E+03</pdfrwt>
<pdfrwt beam="2">  1       -4 0.44437519E-02 0.12500003E+03</pdfrwt>
<totfact> 0.14921711E+03</totfact>
</mgrwt>
</event>
<event>
 5    1  0.1448308E-002  0.1250004E+03  0.7818608E-02  0.1235069E+00
          4   -1    0    0  501    0  0.00000000000E+00  0.00000000000E+00  0.11710462658E+02  0.11779127118E+02  0.12700000000E+01 0. -1.
         -4   -1    0    0    0  501 -0.00000000000E+00 -0.00000000000E+00 -0.33252633622E+03  0.33252876144E+03  0.12700000000E+01 0. -1.
         25    2    1    2    0    0  0.00000000000E+00  0.00000000000E+00 -0.32081587357E+03  0.34430788855E+03  0.12500038955E+03 0.  0.
    9000005    1    3    3    0    0 -0.59414093301E+01 -0.37273835424E+02 -0.23219642236E+02  0.44325962342E+02  0.10000000000E+01 0.  0.
    9000005    1    3    3    0    0  0.59414093301E+01  0.37273835424E+02 -0.29759623133E+03  0.29998192621E+03  0.10000000000E+01 0.  0.
<mgrwt>
<rscale>  0 0.12500039E+03</rscale>
<asrwt>0</asrwt>
<pdfrwt beam="1">  1        4 0.29365030E-02 0.12500039E+03</pdfrwt>
<pdfrwt beam="2">  1       -4 0.83140439E-01 0.12500039E+03</pdfrwt>
<totfact> 0.11814147E+03</totfact>
</mgrwt>
</event>
<event>
 5    1  0.1448308E-002  0.1250019E+03  0.7818608E-02  0.1235066E+00
          4   -1    0    0  501    0  0.00000000000E+00  0.00000000000E+00  0.67558792846E+02  0.67570728801E+02  0.12700000000E+01 0. -1.
         -4   -1    0    0    0  501 -0.00000000000E+00 -0.00000000000E+00 -0.57797747778E+02  0.57811699060E+02  0.12700000000E+01 0. -1.
         25    2    1    2    0    0  0.00000000000E+00  0.00000000000E+00  0.97610450675E+01  0.12538242786E+03  0.12500190085E+03 0.  0.
    9000005    1    3    3    0    0  0.80024806460E+01 -0.19357057167E+01 -0.57256279903E+02  0.57853852434E+02  0.10000000000E+01 0.  0.
    9000005    1    3    3    0    0 -0.80024806460E+01  0.19357057167E+01  0.67017324970E+02  0.67528575428E+02  0.10000000000E+01 0.  0.
<mgrwt>
<rscale>  0 0.12500190E+03</rscale>
<asrwt>0</asrwt>
<pdfrwt beam="1">  1        4 0.16892934E-01 0.12500190E+03</pdfrwt>
<pdfrwt beam="2">  1       -4 0.14452673E-01 0.12500190E+03</pdfrwt>
<totfact> 0.19813448E+03</totfact>
</mgrwt>
</event>
<event>
 5    1  0.1448308E-002  0.1249995E+03  0.7818608E-02  0.1235070E+00
         -4   -1    0    0    0  501 -0.00000000000E+00  0.00000000000E+00  0.24985121193E+02  0.25017377581E+02  0.12700000000E+01 0. -1.
          4   -1    0    0  501    0  0.00000000000E+00 -0.00000000000E+00 -0.15620607903E+03  0.15621124167E+03  0.12700000000E+01 0. -1.
         25    2    1    2    0    0  0.00000000000E+00  0.00000000000E+00 -0.13122095783E+03  0.18122861925E+03  0.12499949065E+03 0.  0.
    9000005    1    3    3    0    0 -0.78354793284E+01 -0.34825685536E+01  0.24135296173E+02  0.25632704528E+02  0.10000000000E+01 0.  0.
    9000005    1    3    3    0    0  0.78354793284E+01  0.34825685536E+01 -0.15535625401E+03  0.15559591473E+03  0.10000000000E+01 0.  0.
<mgrwt>
<rscale>  0 0.12499949E+03</rscale>
<asrwt>0</asrwt>
<pdfrwt beam="2">  1        4 0.39056194E-01 0.12499949E+03</pdfrwt>
<pdfrwt beam="1">  1       -4 0.62509581E-02 0.12499949E+03</pdfrwt>
<totfact> 0.17102369E+03</totfact>
</mgrwt>
</event>
<event>
 5    1  0.1448308E-002  0.1250056E+03  0.7818608E-02  0.1235061E+00
         -4   -1    0    0    0  501 -0.00000000000E+00  0.00000000000E+00  0.28919188195E+02  0.28947061092E+02  0.12700000000E+01 0.  1.
          4   -1    0    0  501    0  0.00000000000E+00 -0.00000000000E+00 -0.13499085611E+03  0.13499683008E+03  0.12700000000E+01 0.  1.
         25    2    1    2    0    0  0.00000000000E+00  0.00000000000E+00 -0.10607166791E+03  0.16394389118E+03  0.12500560275E+03 0.  0.
    9000005    1    3    3    0    0 -0.55537908597E+00  0.31701472721E+02 -0.12366561299E+03  0.12766939984E+03  0.10000000000E+01 0.  0.
    9000005    1    3    3    0    0  0.55537908597E+00 -0.31701472721E+02  0.17593945077E+02  0.36274491339E+02  0.10000000000E+01 0.  0.
<mgrwt>
<rscale>  0 0.12500560E+03</rscale>
<asrwt>0</asrwt>
<pdfrwt beam="2">  1        4 0.33751943E-01 0.12500560E+03</pdfrwt>
<pdfrwt beam="1">  1       -4 0.72340283E-02 0.12500560E+03</pdfrwt>
<totfact> 0.17871387E+03</totfact>
</mgrwt>
</event>
<event>
 5    1  0.1448308E-002  0.1250077E+03  0.7818608E-02  0.1235057E+00
         -4   -1    0    0    0  501 -0.00000000000E+00  0.00000000000E+00  0.10099883478E+03  0.10100681921E+03  0.12700000000E+01 0. -1.
          4   -1    0    0  501    0  0.00000000000E+00 -0.00000000000E+00 -0.38661016732E+02  0.38681870621E+02  0.12700000000E+01 0. -1.
         25    2    1    2    0    0  0.00000000000E+00  0.00000000000E+00  0.62337818049E+02  0.13968868983E+03  0.12500770579E+03 0.  0.
    9000005    1    3    3    0    0 -0.34633065782E+02 -0.66568595219E+00  0.89295580533E+02  0.95784096206E+02  0.10000000000E+01 0.  0.
    9000005    1    3    3    0    0  0.34633065782E+02  0.66568595219E+00 -0.26957762484E+02  0.43904593625E+02  0.10000000000E+01 0.  0.
<mgrwt>
<rscale>  0 0.12500771E+03</rscale>
<asrwt>0</asrwt>
<pdfrwt beam="2">  1        4 0.96688590E-02 0.12500771E+03</pdfrwt>
<pdfrwt beam="1">  1       -4 0.25253313E-01 0.12500771E+03</pdfrwt>
<totfact> 0.19052856E+03</totfact>
</mgrwt>
</event>
<event>
 5    1  0.1448308E-002  0.1249928E+03  0.7818608E-02  0.1235081E+00
          4   -1    0    0  501    0  0.00000000000E+00  0.00000000000E+00  0.31262349322E+02  0.31288134893E+02  0.12700000000E+01 0.  1.
         -4   -1    0    0    0  501 -0.00000000000E+00 -0.00000000000E+00 -0.12485561689E+03  0.12486207578E+03  0.12700000000E+01 0.  1.
         25    2    1    2    0    0  0.00000000000E+00  0.00000000000E+00 -0.93593267567E+02  0.15615021068E+03  0.12499275403E+03 0.  0.
    9000005    1    3    3    0    0  0.18637533077E+02  0.34554071410E+02  0.13937307591E+02  0.41672413334E+02  0.10000000000E+01 0.  0.
    9000005    1    3    3    0    0 -0.18637533077E+02 -0.34554071410E+02 -0.10753057516E+03  0.11447779734E+03  0.10000000000E+01 0.  0.
<mgrwt>
<rscale>  0 0.12499275E+03</rscale>
<asrwt>0</asrwt>
<pdfrwt beam="1">  1        4 0.78196182E-02 0.12499275E+03</pdfrwt>
<pdfrwt beam="2">  1       -4 0.31217934E-01 0.12499275E+03</pdfrwt>
<totfact> 0.18243524E+03</totfact>
</mgrwt>
</event>
<event>
 5    1  0.1448308E-002  0.1250004E+03  0.7818608E-02  0.1235069E+00
         -4   -1    0    0    0  501 -0.00000000000E+00  0.00000000000E+00  0.22816503122E+03  0.22816856569E+03  0.12700000000E+01 0. -1.
          4   -1    0    0  501    0  0.00000000000E+00 -0.00000000000E+00 -0.17093169831E+02  0.17140284562E+02  0.12700000000E+01 0. -1.
         25    2    1    2    0    0  0.00000000000E+00  0.00000000000E+00  0.21107186139E+03  0.24530885025E+03  0.12500040538E+03 0.  0.
    9000005    1    3    3    0    0 -0.15684247241E+02  0.23176899754E+02 -0.41184453959E+01  0.28304167294E+02  0.10000000000E+01 0.  0.
    9000005    1    3    3    0    0  0.15684247241E+02 -0.23176899754E+02  0.21519030678E+03  0.21700468296E+03  0.10000000000E+01 0.  0.
<mgrwt>
<rscale>  0 0.12500041E+03</rscale>
<asrwt>0</asrwt>
<pdfrwt beam="2">  1        4 0.42796235E-02 0.12500041E+03</pdfrwt>
<pdfrwt beam="1">  1       -4 0.57047590E-01 0.12500041E+03</pdfrwt>
<totfact> 0.14655154E+03</totfact>
</mgrwt>
</event>
<event>
 5    1  0.1448308E-002  0.1250001E+03  0.7818608E-02  0.1235069E+00
          4   -1    0    0  501    0  0.00000000000E+00  0.00000000000E+00  0.27699062279E+02  0.27728161697E+02  0.12700000000E+01 0.  1.
         -4   -1    0    0    0  501 -0.00000000000E+00 -0.00000000000E+00 -0.14091875435E+03  0.14092447704E+03  0.12700000000E+01 0.  1.
         25    2    1    2    0    0  0.00000000000E+00  0.00000000000E+00 -0.11321969208E+03  0.16865263874E+03  0.12500005552E+03 0.  0.
    9000005    1    3    3    0    0 -0.45472954188E+02  0.86369435287E+01 -0.11325890797E+03  0.12235590134E+03  0.10000000000E+01 0.  0.
    9000005    1    3    3    0    0  0.45472954188E+02 -0.86369435287E+01  0.39215898682E-01  0.46296737401E+02  0.10000000000E+01 0.  0.
<mgrwt>
<rscale>  0 0.12500006E+03</rscale>
<asrwt>0</asrwt>
<pdfrwt beam="1">  1        4 0.69291187E-02 0.12500006E+03</pdfrwt>
<pdfrwt beam="2">  1       -4 0.35234039E-01 0.12500006E+03</pdfrwt>
<totfact> 0.17657968E+03</totfact>
</mgrwt>
</event>
<event>
 5    1  0.1448308E-002  0.1250013E+03  0.7818608E-02  0.1235067E+00
         -4   -1    0    0    0  501 -0.00000000000E+00  0.00000000000E+00  0.40720512078E+01  0.42655012646E+01  0.12700000000E+01 0.  1.
          4   -1    0    0  501    0  0.00000000000E+00 -0.00000000000E+00 -0.93685060698E+03  0.93685146779E+03  0.12700000000E+01 0.  1.
         25    2    1    2    0    0  0.00000000000E+00  0.00000000000E+00 -0.93277855577E+03  0.94111696905E+03  0.12500126132E+03 0.  0.
    9000005    1    3    3    0    0 -0.54692794236E+02  0.15596376183E+02 -0.66138240644E+03  0.66382394973E+03  0.10000000000E+01 0.  0.
    9000005    1    3    3    0    0  0.54692794236E+02 -0.15596376183E+02 -0.27139614933E+03  0.27729301932E+03  0.10000000000E+01 0.  0.
<mgrwt>
<rscale>  0 0.12500126E+03</rscale>
<asrwt>0</asrwt>
<pdfrwt beam="2">  1        4 0.23423622E+00 0.12500126E+03</pdfrwt>
<pdfrwt beam="1">  1       -4 0.10423049E-02 0.12500126E+03</pdfrwt>
<totfact> 0.41215981E+02</totfact>
</mgrwt>
</event>
<event>
 5    1  0.1448308E-002  0.1249991E+03  0.7818608E-02  0.1235071E+00
          4   -1    0    0  501    0  0.00000000000E+00  0.00000000000E+00  0.43048302343E+01  0.44882583868E+01  0.12700000000E+01 0. -1.
         -4   -1    0    0    0  501 -0.00000000000E+00 -0.00000000000E+00 -0.88828576694E+03  0.88828667482E+03  0.12700000000E+01 0. -1.
         25    2    1    2    0    0  0.00000000000E+00  0.00000000000E+00 -0.88398093671E+03  0.89277493320E+03  0.12499913955E+03 0.  0.
    9000005    1    3    3    0    0 -0.32408964573E+01 -0.52833532273E+02 -0.67922826151E+03  0.68128842407E+03  0.10000000000E+01 0.  0.
    9000005    1    3    3    0    0  0.32408964573E+01  0.52833532273E+02 -0.20475267520E+03  0.21148650913E+03  0.10000000000E+01 0.  0.
<mgrwt>
<rscale>  0 0.12499914E+03</rscale>
<asrwt>0</asrwt>
<pdfrwt beam="1">  1        4 0.10992526E-02 0.12499914E+03</pdfrwt>
<pdfrwt beam="2">  1       -4 0.22209387E+00 0.12499914E+03</pdfrwt>
<totfact> 0.44829983E+02</totfact>
</mgrwt>
</event>
<event>
 5    1  0.1448308E-002  0.1250007E+03  0.7818608E-02  0.1235068E+00
          4   -1    0    0  501    0  0.00000000000E+00  0.00000000000E+00  0.51706046142E+02  0.51721640613E+02  0.12700000000E+01 0.  1.
         -4   -1    0    0    0  501 -0.00000000000E+00 -0.00000000000E+00 -0.75515782110E+02  0.75526460580E+02  0.12700000000E+01 0.  1.
         25    2    1    2    0    0  0.00000000000E+00  0.00000000000E+00 -0.23809735968E+02  0.12724810119E+03  0.12500070292E+03 0.  0.
    9000005    1    3    3    0    0 -0.43074412722E+01  0.50703916274E+02 -0.48831738419E+02  0.70533537079E+02  0.10000000000E+01 0.  0.
    9000005    1    3    3    0    0  0.43074412722E+01 -0.50703916274E+02  0.25022002452E+02  0.56714564113E+02  0.10000000000E+01 0.  0.
<mgrwt>
<rscale>  0 0.12500070E+03</rscale>
<asrwt>0</asrwt>
<pdfrwt beam="1">  1        4 0.12929796E-01 0.12500070E+03</pdfrwt>
<pdfrwt beam="2">  1       -4 0.18882230E-01 0.12500070E+03</pdfrwt>
<totfact> 0.19713214E+03</totfact>
</mgrwt>
</event>
<event>
 5    1  0.1448308E-002  0.1250009E+03  0.7818608E-02  0.1235068E+00
         -4   -1    0    0    0  501 -0.00000000000E+00  0.00000000000E+00  0.23208698825E+01  0.26456260151E+01  0.12700000000E+01 0.  1.
          4   -1    0    0  501    0  0.00000000000E+00 -0.00000000000E+00 -0.15727379448E+04  0.15727384576E+04  0.12700000000E+01 0.  1.
         25    2    1    2    0    0  0.00000000000E+00  0.00000000000E+00 -0.15704170749E+04  0.15753840836E+04  0.12500088646E+03 0.  0.
    9000005    1    3    3    0    0  0.53443255383E+01  0.57170421975E+02 -0.10960417578E+04  0.10975452400E+04  0.10000000000E+01 0.  0.
    9000005    1    3    3    0    0 -0.53443255383E+01 -0.57170421975E+02 -0.47437531707E+03  0.47783884355E+03  0.10000000000E+01 0.  0.
<mgrwt>
<rscale>  0 0.12500089E+03</rscale>
<asrwt>0</asrwt>
<pdfrwt beam="2">  1        4 0.39322173E+00 0.12500089E+03</pdfrwt>
<pdfrwt beam="1">  1       -4 0.62088148E-03 0.12500089E+03</pdfrwt>
<totfact> 0.10183814E+02</totfact>
</mgrwt>
</event>
<event>
 5    1  0.1448308E-002  0.1250241E+03  0.7818608E-02  0.1235032E+00
         -4   -1    0    0    0  501 -0.00000000000E+00  0.00000000000E+00  0.14449799072E+02  0.14505502171E+02  0.12700000000E+01 0. -1.
          4   -1    0    0  501    0  0.00000000000E+00 -0.00000000000E+00 -0.26985912733E+03  0.26986211572E+03  0.12700000000E+01 0. -1.
         25    2    1    2    0    0  0.00000000000E+00  0.00000000000E+00 -0.25540932825E+03  0.28436761789E+03  0.12502406627E+03 0.  0.
    9000005    1    3    3    0    0  0.11946771222E+01  0.67737540118E+01  0.13597512616E+02  0.15270996895E+02  0.10000000000E+01 0.  0.
    9000005    1    3    3    0    0 -0.11946771222E+01 -0.67737540118E+01 -0.26900684087E+03  0.26909662100E+03  0.10000000000E+01 0.  0.
<mgrwt>
<rscale>  0 0.12502407E+03</rscale>
<asrwt>0</asrwt>
<pdfrwt beam="2">  1        4 0.67472102E-01 0.12502407E+03</pdfrwt>
<pdfrwt beam="1">  1       -4 0.36197871E-02 0.12502407E+03</pdfrwt>
<totfact> 0.13413372E+03</totfact>
</mgrwt>
</event>
<event>
 5    1  0.1448308E-002  0.1250079E+03  0.7818608E-02  0.1235057E+00
         -4   -1    0    0    0  501 -0.00000000000E+00  0.00000000000E+00  0.16736277823E+02  0.16784394400E+02  0.12700000000E+01 0.  1.
          4   -1    0    0  501    0  0.00000000000E+00 -0.00000000000E+00 -0.23304463089E+03  0.23304809136E+03  0.12700000000E+01 0.  1.
         25    2    1    2    0    0  0.00000000000E+00  0.00000000000E+00 -0.21630835307E+03  0.24983248576E+03  0.12500786909E+03 0.  0.
    9000005    1    3    3    0    0 -0.26005159208E+02  0.49303249492E+02 -0.16463400532E+03  0.17381724432E+03  0.10000000000E+01 0.  0.
    9000005    1    3    3    0    0  0.26005159208E+02 -0.49303249492E+02 -0.51674347747E+02  0.76015241438E+02  0.10000000000E+01 0.  0.
<mgrwt>
<rscale>  0 0.12500787E+03</rscale>
<asrwt>0</asrwt>
<pdfrwt beam="2">  1        4 0.58267595E-01 0.12500787E+03</pdfrwt>
<pdfrwt beam="1">  1       -4 0.41905173E-02 0.12500787E+03</pdfrwt>
<totfact> 0.14500938E+03</totfact>
</mgrwt>
</event>
<event>
 5    1  0.1448308E-002  0.1250008E+03  0.7818608E-02  0.1235068E+00
         -4   -1    0    0    0  501 -0.00000000000E+00  0.00000000000E+00  0.46868497432E+03  0.46868669498E+03  0.12700000000E+01 0.  1.
          4   -1    0    0  501    0  0.00000000000E+00 -0.00000000000E+00 -0.82844681554E+01  0.83812476767E+01  0.12700000000E+01 0.  1.
         25    2    1    2    0    0  0.00000000000E+00  0.00000000000E+00  0.46040050616E+03  0.47706794266E+03  0.12500078334E+03 0.  0.
    9000005    1    3    3    0    0 -0.28759879773E+02 -0.15705827108E+02  0.27116388129E+02  0.42545295802E+02  0.10000000000E+01 0.  0.
    9000005    1    3    3    0    0  0.28759879773E+02  0.15705827108E+02  0.43328411803E+03  0.43452264685E+03  0.10000000000E+01 0.  0.
<mgrwt>
<rscale>  0 0.12500078E+03</rscale>
<asrwt>0</asrwt>
<pdfrwt beam="2">  1        4 0.20834299E-02 0.12500078E+03</pdfrwt>
<pdfrwt beam="1">  1       -4 0.11718354E+00 0.12500078E+03</pdfrwt>
<totfact> 0.91350172E+02</totfact>
</mgrwt>
</event>
<event>
 5    1  0.1448308E-002  0.1250004E+03  0.7818608E-02  0.1235069E+00
         -4   -1    0    0    0  501 -0.00000000000E+00  0.00000000000E+00  0.84863737787E+02  0.84873240136E+02  0.12700000000E+01 0. -1.
          4   -1    0    0  501    0  0.00000000000E+00 -0.00000000000E+00 -0.46009087916E+02  0.46026612637E+02  0.12700000000E+01 0. -1.
         25    2    1    2    0    0  0.00000000000E+00  0.00000000000E+00  0.38854649871E+02  0.13089985277E+03  0.12500035056E+03 0.  0.
    9000005    1    3    3    0    0  0.32109499798E+02  0.53017356325E+01  0.75294450390E+02  0.82032814395E+02  0.10000000000E+01 0.  0.
    9000005    1    3    3    0    0 -0.32109499798E+02 -0.53017356325E+01 -0.36439800519E+02  0.48867038378E+02  0.10000000000E+01 0.  0.
<mgrwt>
<rscale>  0 0.12500035E+03</rscale>
<asrwt>0</asrwt>
<pdfrwt beam="2">  1        4 0.11505650E-01 0.12500035E+03</pdfrwt>
<pdfrwt beam="1">  1       -4 0.21219313E-01 0.12500035E+03</pdfrwt>
<totfact> 0.19515969E+03</totfact>
</mgrwt>
</event>
<event>
 5    1  0.1448308E-002  0.1250050E+03  0.7818608E-02  0.1235061E+00
         -4   -1    0    0    0  501 -0.00000000000E+00  0.00000000000E+00  0.64003109384E+02  0.64015708313E+02  0.12700000000E+01 0. -1.
          4   -1    0    0  501    0  0.00000000000E+00 -0.00000000000E+00 -0.61011874388E+02  0.61025090875E+02  0.12700000000E+01 0. -1.
         25    2    1    2    0    0  0.00000000000E+00  0.00000000000E+00  0.29912349963E+01  0.12504079919E+03  0.12500501580E+03 0.  0.
    9000005    1    3    3    0    0  0.48559610117E+02  0.16228523233E+02  0.37341092744E+02  0.63377897633E+02  0.10000000000E+01 0.  0.
    9000005    1    3    3    0    0 -0.48559610117E+02 -0.16228523233E+02 -0.34349857748E+02  0.61662901556E+02  0.10000000000E+01 0.  0.
<mgrwt>
<rscale>  0 0.12500502E+03</rscale>
<asrwt>0</asrwt>
<pdfrwt beam="2">  1        4 0.15256196E-01 0.12500502E+03</pdfrwt>
<pdfrwt beam="1">  1       -4 0.16004004E-01 0.12500502E+03</pdfrwt>
<totfact> 0.19830515E+03</totfact>
</mgrwt>
</event>
<event>
 5    1  0.1448308E-002  0.1250011E+03  0.7818608E-02  0.1235068E+00
         -4   -1    0    0    0  501 -0.00000000000E+00  0.00000000000E+00  0.14159237950E+02  0.14216079605E+02  0.12700000000E+01 0.  1.
          4   -1    0    0  501    0  0.00000000000E+00 -0.00000000000E+00 -0.27527400480E+03  0.27527693441E+03  0.12700000000E+01 0.  1.
         25    2    1    2    0    0  0.00000000000E+00  0.00000000000E+00 -0.26111476685E+03  0.28949301402E+03  0.12500113478E+03 0.  0.
    9000005    1    3    3    0    0 -0.39169424409E+02  0.27097438625E+02 -0.36861021581E+02  0.60234955803E+02  0.10000000000E+01 0.  0.
    9000005    1    3    3    0    0  0.39169424409E+02 -0.27097438625E+02 -0.22425374527E+03  0.22925805821E+03  0.10000000000E+01 0.  0.
<mgrwt>
<rscale>  0 0.12500113E+03</rscale>
<asrwt>0</asrwt>
<pdfrwt beam="2">  1        4 0.68825955E-01 0.12500113E+03</pdfrwt>
<pdfrwt beam="1">  1       -4 0.35472818E-02 0.12500113E+03</pdfrwt>
<totfact> 0.13270385E+03</totfact>
</mgrwt>
</event>
<event>
 5    1  0.1448308E-002  0.1250044E+03  0.7818608E-02  0.1235062E+00
         -4   -1    0    0    0  501 -0.00000000000E+00  0.00000000000E+00  0.10612499791E+03  0.10613259669E+03  0.12700000000E+01 0. -1.
          4   -1    0    0  501    0  0.00000000000E+00 -0.00000000000E+00 -0.36790699264E+02  0.36812612680E+02  0.12700000000E+01 0. -1.
         25    2    1    2    0    0  0.00000000000E+00  0.00000000000E+00  0.69334298642E+02  0.14294520937E+03  0.12500435158E+03 0.  0.
    9000005    1    3    3    0    0  0.28047787236E+02 -0.14673283613E+02  0.96285242882E+02  0.10135991130E+03  0.10000000000E+01 0.  0.
    9000005    1    3    3    0    0 -0.28047787236E+02  0.14673283613E+02 -0.26950944240E+02  0.41585298078E+02  0.10000000000E+01 0.  0.
<mgrwt>
<rscale>  0 0.12500435E+03</rscale>
<asrwt>0</asrwt>
<pdfrwt beam="2">  1        4 0.92013639E-02 0.12500435E+03</pdfrwt>
<pdfrwt beam="1">  1       -4 0.26534938E-01 0.12500435E+03</pdfrwt>
<totfact> 0.18888754E+03</totfact>
</mgrwt>
</event>
<event>
 5    1  0.1448308E-002  0.1250033E+03  0.7818608E-02  0.1235064E+00
          4   -1    0    0  501    0  0.00000000000E+00  0.00000000000E+00  0.45939653855E+02  0.45957205053E+02  0.12700000000E+01 0. -1.
         -4   -1    0    0    0  501 -0.00000000000E+00 -0.00000000000E+00 -0.84996016442E+02  0.85005504004E+02  0.12700000000E+01 0. -1.
         25    2    1    2    0    0  0.00000000000E+00  0.00000000000E+00 -0.39056362587E+02  0.13096270906E+03  0.12500332678E+03 0.  0.
    9000005    1    3    3    0    0 -0.57939128835E+02  0.18836067146E+02 -0.49463892677E+01  0.61132698635E+02  0.10000000000E+01 0.  0.
    9000005    1    3    3    0    0  0.57939128835E+02 -0.18836067146E+02 -0.34109973320E+02  0.69830010422E+02  0.10000000000E+01 0.  0.
<mgrwt>
<rscale>  0 0.12500333E+03</rscale>
<asrwt>0</asrwt>
<pdfrwt beam="1">  1        4 0.11488293E-01 0.12500333E+03</pdfrwt>
<pdfrwt beam="2">  1       -4 0.21252384E-01 0.12500333E+03</pdfrwt>
<totfact> 0.19511252E+03</totfact>
</mgrwt>
</event>
<event>
 5    1  0.1448308E-002  0.1249995E+03  0.7818608E-02  0.1235070E+00
          4   -1    0    0  501    0  0.00000000000E+00  0.00000000000E+00  0.29788368164E+02  0.29815428521E+02  0.12700000000E+01 0. -1.
         -4   -1    0    0    0  501 -0.00000000000E+00 -0.00000000000E+00 -0.13104274986E+03  0.13104890382E+03  0.12700000000E+01 0. -1.
         25    2    1    2    0    0  0.00000000000E+00  0.00000000000E+00 -0.10125438170E+03  0.16086433234E+03  0.12499953442E+03 0.  0.
    9000005    1    3    3    0    0 -0.32754658663E+02  0.13213767072E+02  0.15717839310E+02  0.38671976636E+02  0.10000000000E+01 0.  0.
    9000005    1    3    3    0    0  0.32754658663E+02 -0.13213767072E+02 -0.11697222101E+03  0.12219235570E+03  0.10000000000E+01 0.  0.
<mgrwt>
<rscale>  0 0.12499953E+03</rscale>
<asrwt>0</asrwt>
<pdfrwt beam="1">  1        4 0.74512442E-02 0.12499953E+03</pdfrwt>
<pdfrwt beam="2">  1       -4 0.32764838E-01 0.12499953E+03</pdfrwt>
<totfact> 0.18017348E+03</totfact>
</mgrwt>
</event>
<event>
 5    1  0.1448308E-002  0.1249981E+03  0.7818608E-02  0.1235072E+00
          4   -1    0    0  501    0  0.00000000000E+00  0.00000000000E+00  0.10236268272E+03  0.10237056078E+03  0.12700000000E+01 0.  1.
         -4   -1    0    0    0  501 -0.00000000000E+00 -0.00000000000E+00 -0.38139813861E+02  0.38160952574E+02  0.12700000000E+01 0.  1.
         25    2    1    2    0    0  0.00000000000E+00  0.00000000000E+00  0.64222868860E+02  0.14053151335E+03  0.12499811743E+03 0.  0.
    9000005    1    3    3    0    0 -0.31025714927E+02 -0.46184952660E+02  0.12430080621E+00  0.55647644062E+02  0.10000000000E+01 0.  0.
    9000005    1    3    3    0    0  0.31025714927E+02  0.46184952660E+02  0.64098568054E+02  0.84883869289E+02  0.10000000000E+01 0.  0.
<mgrwt>
<rscale>  0 0.12499812E+03</rscale>
<asrwt>0</asrwt>
<pdfrwt beam="1">  1        4 0.25594298E-01 0.12499812E+03</pdfrwt>
<pdfrwt beam="2">  1       -4 0.95385807E-02 0.12499812E+03</pdfrwt>
<totfact> 0.19014018E+03</totfact>
</mgrwt>
</event>
<event>
 5    1  0.1448308E-002  0.1250010E+03  0.7818608E-02  0.1235068E+00
         -4   -1    0    0    0  501 -0.00000000000E+00  0.00000000000E+00  0.62179953943E+03  0.62180083639E+03  0.12700000000E+01 0.  1.
          4   -1    0    0  501    0  0.00000000000E+00 -0.00000000000E+00 -0.62167647708E+01  0.63451606926E+01  0.12700000000E+01 0.  1.
         25    2    1    2    0    0  0.00000000000E+00  0.00000000000E+00  0.61558277466E+03  0.62814599708E+03  0.12500096477E+03 0.  0.
    9000005    1    3    3    0    0 -0.42615822252E+02 -0.45646451763E+02  0.29589611606E+03  0.30241563843E+03  0.10000000000E+01 0.  0.
    9000005    1    3    3    0    0  0.42615822252E+02  0.45646451763E+02  0.31968665859E+03  0.32573035865E+03  0.10000000000E+01 0.  0.
<mgrwt>
<rscale>  0 0.12500096E+03</rscale>
<asrwt>0</asrwt>
<pdfrwt beam="2">  1        4 0.15704026E-02 0.12500096E+03</pdfrwt>
<pdfrwt beam="1">  1       -4 0.15546611E+00 0.12500096E+03</pdfrwt>
<totfact> 0.70066588E+02</totfact>
</mgrwt>
</event>
<event>
 5    1  0.1448308E-002  0.1249972E+03  0.7818608E-02  0.1235074E+00
         -4   -1    0    0    0  501 -0.00000000000E+00  0.00000000000E+00  0.57556292765E+02  0.57570302560E+02  0.12700000000E+01 0. -1.
          4   -1    0    0  501    0  0.00000000000E+00 -0.00000000000E+00 -0.67837066151E+02  0.67848953153E+02  0.12700000000E+01 0. -1.
         25    2    1    2    0    0  0.00000000000E+00  0.00000000000E+00 -0.10280773386E+02  0.12541925571E+03  0.12499718158E+03 0.  0.
    9000005    1    3    3    0    0  0.98578337101E+01  0.61476810770E+02  0.21605699551E+00  0.62270553463E+02  0.10000000000E+01 0.  0.
    9000005    1    3    3    0    0 -0.98578337101E+01 -0.61476810770E+02 -0.10496830381E+02  0.63148702251E+02  0.10000000000E+01 0.  0.
<mgrwt>
<rscale>  0 0.12499718E+03</rscale>
<asrwt>0</asrwt>
<pdfrwt beam="2">  1        4 0.16962504E-01 0.12499718E+03</pdfrwt>
<pdfrwt beam="1">  1       -4 0.14392310E-01 0.12499718E+03</pdfrwt>
<totfact> 0.19813642E+03</totfact>
</mgrwt>
</event>
<event>
 5    1  0.1448308E-002  0.1249981E+03  0.7818608E-02  0.1235072E+00
          4   -1    0    0  501    0  0.00000000000E+00  0.00000000000E+00  0.21845718429E+02  0.21882602991E+02  0.12700000000E+01 0.  1.
         -4   -1    0    0    0  501 -0.00000000000E+00 -0.00000000000E+00 -0.17861541732E+03  0.17861993228E+03  0.12700000000E+01 0.  1.
         25    2    1    2    0    0  0.00000000000E+00  0.00000000000E+00 -0.15676969890E+03  0.20050253527E+03  0.12499811261E+03 0.  0.
    9000005    1    3    3    0    0  0.48213762628E+01  0.28109257650E+02 -0.16757543587E+03  0.16998794882E+03  0.10000000000E+01 0.  0.
    9000005    1    3    3    0    0 -0.48213762628E+01 -0.28109257650E+02  0.10805736976E+02  0.30514586451E+02  0.10000000000E+01 0.  0.
<mgrwt>
<rscale>  0 0.12499811E+03</rscale>
<asrwt>0</asrwt>
<pdfrwt beam="1">  1        4 0.54666051E-02 0.12499811E+03</pdfrwt>
<pdfrwt beam="2">  1       -4 0.44659025E-01 0.12499811E+03</pdfrwt>
<totfact> 0.16302650E+03</totfact>
</mgrwt>
</event>
<event>
 4    1  0.1448308E-002  0.1251843E+03  0.7818608E-02  0.1234782E+00
         -4   -1    0    0    0  501 -0.00000000000E+00  0.00000000000E+00  0.44258485651E+02  0.44276703266E+02  0.12700000000E+01 0. -1.
          4   -1    0    0  501    0  0.00000000000E+00 -0.00000000000E+00 -0.88479330470E+02  0.88488444558E+02  0.12700000000E+01 0. -1.
    9000005    1    1    2    0    0 -0.34469643847E+02 -0.48431467702E+02 -0.13545747746E+01  0.59469305390E+02  0.10000000000E+01 0.  0.
    9000005    1    1    2    0    0  0.34469643847E+02  0.48431467702E+02 -0.42866270044E+02  0.73295842435E+02  0.10000000000E+01 0.  0.
<mgrwt>
<rscale>  0 0.12518427E+03</rscale>
<asrwt>0</asrwt>
<pdfrwt beam="2">  1        4 0.22123249E-01 0.12518427E+03</pdfrwt>
<pdfrwt beam="1">  1       -4 0.11068038E-01 0.12518427E+03</pdfrwt>
<totfact> 0.19333580E+03</totfact>
</mgrwt>
</event>
<event>
 5    1  0.1448308E-002  0.1250028E+03  0.7818608E-02  0.1235065E+00
          4   -1    0    0  501    0  0.00000000000E+00  0.00000000000E+00  0.12469478999E+03  0.12470125721E+03  0.12700000000E+01 0. -1.
         -4   -1    0    0    0  501 -0.00000000000E+00 -0.00000000000E+00 -0.31307759804E+02  0.31333508006E+02  0.12700000000E+01 0. -1.
         25    2    1    2    0    0  0.00000000000E+00  0.00000000000E+00  0.93387030181E+02  0.15603476521E+03  0.12500284217E+03 0.  0.
    9000005    1    3    3    0    0  0.54265743031E+02 -0.59792197785E+01  0.87314165175E+01  0.55297012309E+02  0.10000000000E+01 0.  0.
    9000005    1    3    3    0    0 -0.54265743031E+02  0.59792197785E+01  0.84655613663E+02  0.10073775291E+03  0.10000000000E+01 0.  0.
<mgrwt>
<rscale>  0 0.12500284E+03</rscale>
<asrwt>0</asrwt>
<pdfrwt beam="1">  1        4 0.31177724E-01 0.12500284E+03</pdfrwt>
<pdfrwt beam="2">  1       -4 0.78309670E-02 0.12500284E+03</pdfrwt>
<totfact> 0.18244770E+03</totfact>
</mgrwt>
</event>
<event>
 5    1  0.1448308E-002  0.1250292E+03  0.7818608E-02  0.1235024E+00
          4   -1    0    0  501    0  0.00000000000E+00  0.00000000000E+00  0.33976372339E+02  0.34000099667E+02  0.12700000000E+01 0.  1.
         -4   -1    0    0    0  501 -0.00000000000E+00 -0.00000000000E+00 -0.11495588241E+03  0.11496289749E+03  0.12700000000E+01 0.  1.
         25    2    1    2    0    0  0.00000000000E+00  0.00000000000E+00 -0.80979510066E+02  0.14896299716E+03  0.12502917048E+03 0.  0.
    9000005    1    3    3    0    0  0.28361373966E+02 -0.46324733138E+02 -0.36377944161E+01  0.54447975002E+02  0.10000000000E+01 0.  0.
    9000005    1    3    3    0    0 -0.28361373966E+02  0.46324733138E+02 -0.77341715650E+02  0.94515022157E+02  0.10000000000E+01 0.  0.
<mgrwt>
<rscale>  0 0.12502917E+03</rscale>
<asrwt>0</asrwt>
<pdfrwt beam="1">  1        4 0.84979361E-02 0.12502917E+03</pdfrwt>
<pdfrwt beam="2">  1       -4 0.28742813E-01 0.12502917E+03</pdfrwt>
<totfact> 0.18577273E+03</totfact>
</mgrwt>
</event>
<event>
 5    1  0.1448308E-002  0.1250044E+03  0.7818608E-02  0.1235062E+00
         -4   -1    0    0    0  501 -0.00000000000E+00  0.00000000000E+00  0.17715533784E+03  0.17715989000E+03  0.12700000000E+01 0.  1.
          4   -1    0    0  501    0  0.00000000000E+00 -0.00000000000E+00 -0.22028284710E+02  0.22064864089E+02  0.12700000000E+01 0.  1.
         25    2    1    2    0    0  0.00000000000E+00  0.00000000000E+00  0.15512705313E+03  0.19922475409E+03  0.12500440004E+03 0.  0.
    9000005    1    3    3    0    0 -0.23605409653E+02  0.29831186160E+02 -0.14579524717E+01  0.38082025393E+02  0.10000000000E+01 0.  0.
    9000005    1    3    3    0    0  0.23605409653E+02 -0.29831186160E+02  0.15658500560E+03  0.16114272869E+03  0.10000000000E+01 0.  0.
<mgrwt>
<rscale>  0 0.12500440E+03</rscale>
<asrwt>0</asrwt>
<pdfrwt beam="2">  1        4 0.55122128E-02 0.12500440E+03</pdfrwt>
<pdfrwt beam="1">  1       -4 0.44293975E-01 0.12500440E+03</pdfrwt>
<totfact> 0.16351466E+03</totfact>
</mgrwt>
</event>
<event>
 5    1  0.1448308E-002  0.1250015E+03  0.7818608E-02  0.1235067E+00
         -4   -1    0    0    0  501 -0.00000000000E+00  0.00000000000E+00  0.15074268315E+03  0.15074803290E+03  0.12700000000E+01 0.  1.
          4   -1    0    0  501    0  0.00000000000E+00 -0.00000000000E+00 -0.25892599944E+02  0.25923727198E+02  0.12700000000E+01 0.  1.
         25    2    1    2    0    0  0.00000000000E+00  0.00000000000E+00  0.12485008321E+03  0.17667176010E+03  0.12500147015E+03 0.  0.
    9000005    1    3    3    0    0 -0.57300242180E+02 -0.23539499083E+02  0.50777388464E+02  0.80104737377E+02  0.10000000000E+01 0.  0.
    9000005    1    3    3    0    0  0.57300242180E+02  0.23539499083E+02  0.74072694743E+02  0.96567022722E+02  0.10000000000E+01 0.  0.
<mgrwt>
<rscale>  0 0.12500147E+03</rscale>
<asrwt>0</asrwt>
<pdfrwt beam="2">  1        4 0.64777097E-02 0.12500147E+03</pdfrwt>
<pdfrwt beam="1">  1       -4 0.37690230E-01 0.12500147E+03</pdfrwt>
<totfact> 0.17299664E+03</totfact>
</mgrwt>
</event>
<event>
 5    1  0.1448308E-002  0.1249943E+03  0.7818608E-02  0.1235078E+00
          4   -1    0    0  501    0  0.00000000000E+00  0.00000000000E+00  0.30590407600E+03  0.30590671228E+03  0.12700000000E+01 0. -1.
         -4   -1    0    0    0  501 -0.00000000000E+00 -0.00000000000E+00 -0.12734084125E+02  0.12797257461E+02  0.12700000000E+01 0. -1.
         25    2    1    2    0    0  0.00000000000E+00  0.00000000000E+00  0.29316999188E+03  0.31870396974E+03  0.12499430462E+03 0.  0.
    9000005    1    3    3    0    0  0.30881522565E+02 -0.37723403062E+01  0.84038289177E+01  0.32241639657E+02  0.10000000000E+01 0.  0.
    9000005    1    3    3    0    0 -0.30881522565E+02  0.37723403062E+01  0.28476616296E+03  0.28646233008E+03  0.10000000000E+01 0.  0.
<mgrwt>
<rscale>  0 0.12499430E+03</rscale>
<asrwt>0</asrwt>
<pdfrwt beam="1">  1        4 0.76484244E-01 0.12499430E+03</pdfrwt>
<pdfrwt beam="2">  1       -4 0.31917473E-02 0.12499430E+03</pdfrwt>
<totfact> 0.12464197E+03</totfact>
</mgrwt>
</event>
<event>
 5    1  0.1448308E-002  0.1249991E+03  0.7818608E-02  0.1235071E+00
          4   -1    0    0  501    0  0.00000000000E+00  0.00000000000E+00  0.42165478077E+02  0.42184599577E+02  0.12700000000E+01 0. -1.
         -4   -1    0    0    0  501 -0.00000000000E+00 -0.00000000000E+00 -0.92595133388E+02  0.92603842400E+02  0.12700000000E+01 0. -1.
         25    2    1    2    0    0  0.00000000000E+00  0.00000000000E+00 -0.50429655311E+02  0.13478844198E+03  0.12499909582E+03 0.  0.
    9000005    1    3    3    0    0 -0.45661153292E+01 -0.31470343082E+02  0.32793742775E+02  0.45690934200E+02  0.10000000000E+01 0.  0.
    9000005    1    3    3    0    0  0.45661153292E+01  0.31470343082E+02 -0.83223398086E+02  0.89097507776E+02  0.10000000000E+01 0.  0.
<mgrwt>
<rscale>  0 0.12499910E+03</rscale>
<asrwt>0</asrwt>
<pdfrwt beam="1">  1        4 0.10544848E-01 0.12499910E+03</pdfrwt>
<pdfrwt beam="2">  1       -4 0.23152262E-01 0.12499910E+03</pdfrwt>
<totfact> 0.19310631E+03</totfact>
</mgrwt>
</event>
<event>
 5    1  0.1448308E-002  0.1250013E+03  0.7818608E-02  0.1235067E+00
         -4   -1    0    0    0  501 -0.00000000000E+00  0.00000000000E+00  0.25144623670E+02  0.25176675704E+02  0.12700000000E+01 0. -1.
          4   -1    0    0  501    0  0.00000000000E+00 -0.00000000000E+00 -0.15522093468E+03  0.15522613009E+03  0.12700000000E+01 0. -1.
         25    2    1    2    0    0  0.00000000000E+00  0.00000000000E+00 -0.13007631101E+03  0.18040280580E+03  0.12500130260E+03 0.  0.
    9000005    1    3    3    0    0  0.97274476376E+01 -0.57047612098E+02 -0.30999316250E+02  0.65658288826E+02  0.10000000000E+01 0.  0.
    9000005    1    3    3    0    0 -0.97274476376E+01  0.57047612098E+02 -0.99076994762E+02  0.11474451697E+03  0.10000000000E+01 0.  0.
<mgrwt>
<rscale>  0 0.12500130E+03</rscale>
<asrwt>0</asrwt>
<pdfrwt beam="2">  1        4 0.38809887E-01 0.12500130E+03</pdfrwt>
<pdfrwt beam="1">  1       -4 0.62908123E-02 0.12500130E+03</pdfrwt>
<totfact> 0.17137276E+03</totfact>
</mgrwt>
</event>
<event>
 5    1  0.1448308E-002  0.1250042E+03  0.7818608E-02  0.1235063E+00
          4   -1    0    0  501    0  0.00000000000E+00  0.00000000000E+00  0.16080141982E+03  0.16080643493E+03  0.12700000000E+01 0.  1.
         -4   -1    0    0    0  501 -0.00000000000E+00 -0.00000000000E+00 -0.24272019054E+02  0.24305221845E+02  0.12700000000E+01 0.  1.
         25    2    1    2    0    0  0.00000000000E+00  0.00000000000E+00  0.13652940076E+03  0.18511165678E+03  0.12500419274E+03 0.  0.
    9000005    1    3    3    0    0 -0.89851820043E+00  0.18293521079E+02  0.15674497195E+03  0.15781459527E+03  0.10000000000E+01 0.  0.
    9000005    1    3    3    0    0  0.89851820043E+00 -0.18293521079E+02 -0.20215571187E+02  0.27297061506E+02  0.10000000000E+01 0.  0.
<mgrwt>
<rscale>  0 0.12500419E+03</rscale>
<asrwt>0</asrwt>
<pdfrwt beam="1">  1        4 0.40205132E-01 0.12500419E+03</pdfrwt>
<pdfrwt beam="2">  1       -4 0.60727821E-02 0.12500419E+03</pdfrwt>
<totfact> 0.16934435E+03</totfact>
</mgrwt>
</event>
<event>
 5    1  0.1448308E-002  0.1250002E+03  0.7818608E-02  0.1235069E+00
          4   -1    0    0  501    0  0.00000000000E+00  0.00000000000E+00  0.64400306545E+01  0.65640608492E+01  0.12700000000E+01 0. -1.
         -4   -1    0    0    0  501 -0.00000000000E+00 -0.00000000000E+00 -0.60064993756E+03  0.60065128019E+03  0.12700000000E+01 0. -1.
         25    2    1    2    0    0  0.00000000000E+00  0.00000000000E+00 -0.59420990691E+03  0.60721534104E+03  0.12500022770E+03 0.  0.
    9000005    1    3    3    0    0 -0.48794147525E+02 -0.37862035855E+02 -0.34340934864E+03  0.34892031085E+03  0.10000000000E+01 0.  0.
    9000005    1    3    3    0    0  0.48794147525E+02  0.37862035855E+02 -0.25080055826E+03  0.25829503018E+03  0.10000000000E+01 0.  0.
<mgrwt>
<rscale>  0 0.12500023E+03</rscale>
<asrwt>0</asrwt>
<pdfrwt beam="1">  1        4 0.16256813E-02 0.12500023E+03</pdfrwt>
<pdfrwt beam="2">  1       -4 0.15017797E+00 0.12500023E+03</pdfrwt>
<totfact> 0.72602166E+02</totfact>
</mgrwt>
</event>
<event>
 5    1  0.1448308E-002  0.1250007E+03  0.7818608E-02  0.1235068E+00
          4   -1    0    0  501    0  0.00000000000E+00  0.00000000000E+00  0.22360296882E+03  0.22360657541E+03  0.12700000000E+01 0.  1.
         -4   -1    0    0    0  501 -0.00000000000E+00 -0.00000000000E+00 -0.17442941236E+02  0.17489113727E+02  0.12700000000E+01 0.  1.
         25    2    1    2    0    0  0.00000000000E+00  0.00000000000E+00  0.20616002758E+03  0.24109568913E+03  0.12500069738E+03 0.  0.
    9000005    1    3    3    0    0 -0.15039410510E+02  0.55434213506E+02  0.15056647641E+03  0.16115334223E+03  0.10000000000E+01 0.  0.
    9000005    1    3    3    0    0  0.15039410510E+02 -0.55434213506E+02  0.55593551177E+02  0.79942346900E+02  0.10000000000E+01 0.  0.
<mgrwt>
<rscale>  0 0.12500070E+03</rscale>
<asrwt>0</asrwt>
<pdfrwt beam="1">  1        4 0.55906965E-01 0.12500070E+03</pdfrwt>
<pdfrwt beam="2">  1       -4 0.43669577E-02 0.12500070E+03</pdfrwt>
<totfact> 0.14798540E+03</totfact>
</mgrwt>
</event>
<event>
 5    1  0.1448308E-002  0.1249998E+03  0.7818608E-02  0.1235070E+00
          4   -1    0    0  501    0  0.00000000000E+00  0.00000000000E+00  0.78928028598E+02  0.78938245473E+02  0.12700000000E+01 0. -1.
         -4   -1    0    0    0  501 -0.00000000000E+00 -0.00000000000E+00 -0.49469558637E+02  0.49485857896E+02  0.12700000000E+01 0. -1.
         25    2    1    2    0    0  0.00000000000E+00  0.00000000000E+00  0.29458469961E+02  0.12842410337E+03  0.12499979549E+03 0.  0.
    9000005    1    3    3    0    0 -0.29653306201E+02 -0.99022809964E+01 -0.40862810139E+02  0.51460110668E+02  0.10000000000E+01 0.  0.
    9000005    1    3    3    0    0  0.29653306201E+02  0.99022809964E+01  0.70321280100E+02  0.76963992700E+02  0.10000000000E+01 0.  0.
<mgrwt>
<rscale>  0 0.12499980E+03</rscale>
<asrwt>0</asrwt>
<pdfrwt beam="1">  1        4 0.19735322E-01 0.12499980E+03</pdfrwt>
<pdfrwt beam="2">  1       -4 0.12370704E-01 0.12499980E+03</pdfrwt>
<totfact> 0.19649584E+03</totfact>
</mgrwt>
</event>
<event>
 5    1  0.1448308E-002  0.1250150E+03  0.7818608E-02  0.1235046E+00
          4   -1    0    0  501    0  0.00000000000E+00  0.00000000000E+00  0.32768370585E+03  0.32768616690E+03  0.12700000000E+01 0. -1.
         -4   -1    0    0    0  501 -0.00000000000E+00 -0.00000000000E+00 -0.11887331410E+02  0.11954980053E+02  0.12700000000E+01 0. -1.
         25    2    1    2    0    0  0.00000000000E+00  0.00000000000E+00  0.31579637444E+03  0.33964114696E+03  0.12501503348E+03 0.  0.
    9000005    1    3    3    0    0 -0.44723315469E+02  0.40992792136E+02  0.11709133579E+03  0.13187859899E+03  0.10000000000E+01 0.  0.
    9000005    1    3    3    0    0  0.44723315469E+02 -0.40992792136E+02  0.19870503865E+03  0.20776254797E+03  0.10000000000E+01 0.  0.
<mgrwt>
<rscale>  0 0.12501503E+03</rscale>
<asrwt>0</asrwt>
<pdfrwt beam="1">  1        4 0.81929693E-01 0.12501503E+03</pdfrwt>
<pdfrwt beam="2">  1       -4 0.29805965E-02 0.12501503E+03</pdfrwt>
<totfact> 0.11924428E+03</totfact>
</mgrwt>
</event>
<event>
 5    1  0.1448308E-002  0.1250009E+03  0.7818608E-02  0.1235068E+00
          4   -1    0    0  501    0  0.00000000000E+00  0.00000000000E+00  0.77020464239E+02  0.77030934121E+02  0.12700000000E+01 0. -1.
         -4   -1    0    0    0  501 -0.00000000000E+00 -0.00000000000E+00 -0.50695917223E+02  0.50711822321E+02  0.12700000000E+01 0. -1.
         25    2    1    2    0    0  0.00000000000E+00  0.00000000000E+00  0.26324547016E+02  0.12774275644E+03  0.12500092019E+03 0.  0.
    9000005    1    3    3    0    0  0.46448430860E+02  0.20823467490E+02  0.50209817271E+02  0.71505938761E+02  0.10000000000E+01 0.  0.
    9000005    1    3    3    0    0 -0.46448430860E+02 -0.20823467490E+02 -0.23885270255E+02  0.56236817681E+02  0.10000000000E+01 0.  0.
<mgrwt>
<rscale>  0 0.12500092E+03</rscale>
<asrwt>0</asrwt>
<pdfrwt beam="1">  1        4 0.19258413E-01 0.12500092E+03</pdfrwt>
<pdfrwt beam="2">  1       -4 0.12677276E-01 0.12500092E+03</pdfrwt>
<totfact> 0.19686120E+03</totfact>
</mgrwt>
</event>
<event>
 5    1  0.1448308E-002  0.1250007E+03  0.7818608E-02  0.1235068E+00
         -4   -1    0    0    0  501 -0.00000000000E+00  0.00000000000E+00  0.35255573531E+02  0.35278440513E+02  0.12700000000E+01 0.  1.
          4   -1    0    0  501    0  0.00000000000E+00 -0.00000000000E+00 -0.11073686355E+03  0.11074414589E+03  0.12700000000E+01 0.  1.
         25    2    1    2    0    0  0.00000000000E+00  0.00000000000E+00 -0.75481290015E+02  0.14602258640E+03  0.12500068238E+03 0.  0.
    9000005    1    3    3    0    0 -0.25311442102E+02 -0.44474175978E+02  0.41620007973E+01  0.51351179936E+02  0.10000000000E+01 0.  0.
    9000005    1    3    3    0    0  0.25311442102E+02  0.44474175978E+02 -0.79643290813E+02  0.94671406463E+02  0.10000000000E+01 0.  0.
<mgrwt>
<rscale>  0 0.12500068E+03</rscale>
<asrwt>0</asrwt>
<pdfrwt beam="2">  1        4 0.27687984E-01 0.12500068E+03</pdfrwt>
<pdfrwt beam="1">  1       -4 0.88176623E-02 0.12500068E+03</pdfrwt>
<totfact> 0.18735798E+03</totfact>
</mgrwt>
</event>
<event>
 5    1  0.1448308E-002  0.1250010E+03  0.7818608E-02  0.1235068E+00
         -4   -1    0    0    0  501 -0.00000000000E+00  0.00000000000E+00  0.23167576793E+02  0.23202360105E+02  0.12700000000E+01 0. -1.
          4   -1    0    0  501    0  0.00000000000E+00 -0.00000000000E+00 -0.16844751484E+03  0.16845230231E+03  0.12700000000E+01 0. -1.
         25    2    1    2    0    0  0.00000000000E+00  0.00000000000E+00 -0.14527993804E+03  0.19165466242E+03  0.12500099691E+03 0.  0.
    9000005    1    3    3    0    0 -0.47541622565E+02 -0.27133720822E+02 -0.26417171222E+02  0.60789074817E+02  0.10000000000E+01 0.  0.
    9000005    1    3    3    0    0  0.47541622565E+02  0.27133720822E+02 -0.11886276682E+03  0.13086558760E+03  0.10000000000E+01 0.  0.
<mgrwt>
<rscale>  0 0.12500100E+03</rscale>
<asrwt>0</asrwt>
<pdfrwt beam="2">  1        4 0.42116821E-01 0.12500100E+03</pdfrwt>
<pdfrwt beam="1">  1       -4 0.57968410E-02 0.12500100E+03</pdfrwt>
<totfact> 0.16661363E+03</totfact>
</mgrwt>
</event>
<event>
 5    1  0.1448308E-002  0.1250014E+03  0.7818608E-02  0.1235067E+00
          4   -1    0    0  501    0  0.00000000000E+00  0.00000000000E+00  0.11208702843E+03  0.11209422305E+03  0.12700000000E+01 0.  1.
         -4   -1    0    0    0  501 -0.00000000000E+00 -0.00000000000E+00 -0.34831070487E+02  0.34854215976E+02  0.12700000000E+01 0.  1.
         25    2    1    2    0    0  0.00000000000E+00  0.00000000000E+00  0.77255957938E+02  0.14694843903E+03  0.12500144277E+03 0.  0.
    9000005    1    3    3    0    0  0.42318503941E+02 -0.45373306909E+02  0.29850650916E+02  0.68859669734E+02  0.10000000000E+01 0.  0.
    9000005    1    3    3    0    0 -0.42318503941E+02  0.45373306909E+02  0.47405307022E+02  0.78088769292E+02  0.10000000000E+01 0.  0.
<mgrwt>
<rscale>  0 0.12500144E+03</rscale>
<asrwt>0</asrwt>
<pdfrwt beam="1">  1        4 0.28025549E-01 0.12500144E+03</pdfrwt>
<pdfrwt beam="2">  1       -4 0.87115602E-02 0.12500144E+03</pdfrwt>
<totfact> 0.18689223E+03</totfact>
</mgrwt>
</event>
<event>
 5    1  0.1448308E-002  0.1249914E+03  0.7818608E-02  0.1235083E+00
          4   -1    0    0  501    0  0.00000000000E+00  0.00000000000E+00  0.46792301375E+03  0.46792473721E+03  0.12700000000E+01 0. -1.
         -4   -1    0    0    0  501 -0.00000000000E+00 -0.00000000000E+00 -0.82968568629E+01  0.83934935399E+01  0.12700000000E+01 0. -1.
         25    2    1    2    0    0  0.00000000000E+00  0.00000000000E+00  0.45962615689E+03  0.47631823075E+03  0.12499141112E+03 0.  0.
    9000005    1    3    3    0    0  0.24320593732E+02  0.12676111261E+02  0.15845876448E+02  0.31690170030E+02  0.10000000000E+01 0.  0.
    9000005    1    3    3    0    0 -0.24320593732E+02 -0.12676111261E+02  0.44378028044E+03  0.44462806072E+03  0.10000000000E+01 0.  0.
<mgrwt>
<rscale>  0 0.12499141E+03</rscale>
<asrwt>0</asrwt>
<pdfrwt beam="1">  1        4 0.11699305E+00 0.12499141E+03</pdfrwt>
<pdfrwt beam="2">  1       -4 0.20865093E-02 0.12499141E+03</pdfrwt>
<totfact> 0.91493875E+02</totfact>
</mgrwt>
</event>
<event>
 5    1  0.1448308E-002  0.1249981E+03  0.7818608E-02  0.1235072E+00
         -4   -1    0    0    0  501 -0.00000000000E+00  0.00000000000E+00  0.48956007706E+03  0.48956172435E+03  0.12700000000E+01 0. -1.
          4   -1    0    0  501    0  0.00000000000E+00 -0.00000000000E+00 -0.79266476680E+01  0.80277421018E+01  0.12700000000E+01 0. -1.
         25    2    1    2    0    0  0.00000000000E+00  0.00000000000E+00  0.48163342939E+03  0.49758946645E+03  0.12499806726E+03 0.  0.
    9000005    1    3    3    0    0  0.27274256711E+02 -0.74819466718E+01  0.46264513493E+03  0.46350985478E+03  0.10000000000E+01 0.  0.
    9000005    1    3    3    0    0 -0.27274256711E+02  0.74819466718E+01  0.18988294459E+02  0.34079611670E+02  0.10000000000E+01 0.  0.
<mgrwt>
<rscale>  0 0.12499807E+03</rscale>
<asrwt>0</asrwt>
<pdfrwt beam="2">  1        4 0.19945048E-02 0.12499807E+03</pdfrwt>
<pdfrwt beam="1">  1       -4 0.12240285E+00 0.12499807E+03</pdfrwt>
<totfact> 0.87995470E+02</totfact>
</mgrwt>
</event>
<event>
 5    1  0.1448308E-002  0.1249966E+03  0.7818608E-02  0.1235075E+00
          4   -1    0    0  501    0  0.00000000000E+00  0.00000000000E+00  0.62058957681E+02  0.62071951222E+02  0.12700000000E+01 0.  1.
         -4   -1    0    0    0  501 -0.00000000000E+00 -0.00000000000E+00 -0.62914784931E+02  0.62927601757E+02  0.12700000000E+01 0.  1.
         25    2    1    2    0    0  0.00000000000E+00  0.00000000000E+00 -0.85582724985E+00  0.12499955298E+03  0.12499662317E+03 0.  0.
    9000005    1    3    3    0    0  0.14839802137E+02  0.27835601603E+02 -0.54373580032E+02  0.62869123181E+02  0.10000000000E+01 0.  0.
    9000005    1    3    3    0    0 -0.14839802137E+02 -0.27835601603E+02  0.53517752782E+02  0.62130429798E+02  0.10000000000E+01 0.  0.
<mgrwt>
<rscale>  0 0.12499662E+03</rscale>
<asrwt>0</asrwt>
<pdfrwt beam="1">  1        4 0.15517966E-01 0.12499662E+03</pdfrwt>
<pdfrwt beam="2">  1       -4 0.15731923E-01 0.12499662E+03</pdfrwt>
<totfact> 0.19836647E+03</totfact>
</mgrwt>
</event>
<event>
 5    1  0.1448308E-002  0.1249999E+03  0.7818608E-02  0.1235069E+00
          4   -1    0    0  501    0  0.00000000000E+00  0.00000000000E+00  0.20944980496E+02  0.20983448429E+02  0.12700000000E+01 0. -1.
         -4   -1    0    0    0  501 -0.00000000000E+00 -0.00000000000E+00 -0.18628862687E+03  0.18629295585E+03  0.12700000000E+01 0. -1.
         25    2    1    2    0    0  0.00000000000E+00  0.00000000000E+00 -0.16534364637E+03  0.20727640428E+03  0.12499994551E+03 0.  0.
    9000005    1    3    3    0    0  0.90864184971E+01  0.60687203387E+02 -0.10227431102E+03  0.11927503658E+03  0.10000000000E+01 0.  0.
    9000005    1    3    3    0    0 -0.90864184971E+01 -0.60687203387E+02 -0.63069335349E+02  0.88001367702E+02  0.10000000000E+01 0.  0.
<mgrwt>
<rscale>  0 0.12499995E+03</rscale>
<asrwt>0</asrwt>
<pdfrwt beam="1">  1        4 0.52415953E-02 0.12499995E+03</pdfrwt>
<pdfrwt beam="2">  1       -4 0.46577501E-01 0.12499995E+03</pdfrwt>
<totfact> 0.16034792E+03</totfact>
</mgrwt>
</event>
<event>
 5    1  0.1448308E-002  0.1249970E+03  0.7818608E-02  0.1235074E+00
          4   -1    0    0  501    0  0.00000000000E+00  0.00000000000E+00  0.67691321041E+02  0.67703233632E+02  0.12700000000E+01 0.  1.
         -4   -1    0    0    0  501 -0.00000000000E+00 -0.00000000000E+00 -0.57680100258E+02  0.57694079989E+02  0.12700000000E+01 0.  1.
         25    2    1    2    0    0  0.00000000000E+00  0.00000000000E+00  0.10011220783E+02  0.12539731362E+03  0.12499704685E+03 0.  0.
    9000005    1    3    3    0    0  0.60183114941E+02 -0.16402798933E+02  0.12511278054E+01  0.62398913914E+02  0.10000000000E+01 0.  0.
    9000005    1    3    3    0    0 -0.60183114941E+02  0.16402798933E+02  0.87600929774E+01  0.62998399708E+02  0.10000000000E+01 0.  0.
<mgrwt>
<rscale>  0 0.12499705E+03</rscale>
<asrwt>0</asrwt>
<pdfrwt beam="1">  1        4 0.16926067E-01 0.12499705E+03</pdfrwt>
<pdfrwt beam="2">  1       -4 0.14423262E-01 0.12499705E+03</pdfrwt>
<totfact> 0.19814892E+03</totfact>
</mgrwt>
</event>
<event>
 5    1  0.1448308E-002  0.1250005E+03  0.7818608E-02  0.1235068E+00
         -4   -1    0    0    0  501 -0.00000000000E+00  0.00000000000E+00  0.10105986613E+02  0.10185473254E+02  0.12700000000E+01 0. -1.
          4   -1    0    0  501    0  0.00000000000E+00 -0.00000000000E+00 -0.38493682642E+03  0.38493892144E+03  0.12700000000E+01 0. -1.
         25    2    1    2    0    0  0.00000000000E+00  0.00000000000E+00 -0.37483083981E+03  0.39512439469E+03  0.12500051523E+03 0.  0.
    9000005    1    3    3    0    0 -0.51439225586E+02  0.35191478576E+02 -0.17298246120E+03  0.18387051415E+03  0.10000000000E+01 0.  0.
    9000005    1    3    3    0    0  0.51439225586E+02 -0.35191478576E+02 -0.20184837861E+03  0.21125388054E+03  0.10000000000E+01 0.  0.
<mgrwt>
<rscale>  0 0.12500052E+03</rscale>
<asrwt>0</asrwt>
<pdfrwt beam="2">  1        4 0.96244356E-01 0.12500052E+03</pdfrwt>
<pdfrwt beam="1">  1       -4 0.25366956E-02 0.12500052E+03</pdfrwt>
<totfact> 0.10670201E+03</totfact>
</mgrwt>
</event>
<event>
 5    1  0.1448308E-002  0.1250021E+03  0.7818608E-02  0.1235066E+00
         -4   -1    0    0    0  501 -0.00000000000E+00  0.00000000000E+00  0.43645724212E+01  0.45455904369E+01  0.12700000000E+01 0. -1.
          4   -1    0    0  501    0  0.00000000000E+00 -0.00000000000E+00 -0.87665550075E+03  0.87665642067E+03  0.12700000000E+01 0. -1.
         25    2    1    2    0    0  0.00000000000E+00  0.00000000000E+00 -0.87229092833E+03  0.88120201110E+03  0.12500208289E+03 0.  0.
    9000005    1    3    3    0    0 -0.45538489032E+02 -0.42453566788E+02 -0.39797331406E+03  0.40281486817E+03  0.10000000000E+01 0.  0.
    9000005    1    3    3    0    0  0.45538489032E+02  0.42453566788E+02 -0.47431761427E+03  0.47838714294E+03  0.10000000000E+01 0.  0.
<mgrwt>
<rscale>  0 0.12500208E+03</rscale>
<asrwt>0</asrwt>
<pdfrwt beam="2">  1        4 0.21918603E+00 0.12500208E+03</pdfrwt>
<pdfrwt beam="1">  1       -4 0.11138883E-02 0.12500208E+03</pdfrwt>
<totfact> 0.45726644E+02</totfact>
</mgrwt>
</event>
<event>
 5    1  0.1448308E-002  0.1249963E+03  0.7818608E-02  0.1235075E+00
         -4   -1    0    0    0  501 -0.00000000000E+00  0.00000000000E+00  0.69522275941E+01  0.70672744761E+01  0.12700000000E+01 0. -1.
          4   -1    0    0  501    0  0.00000000000E+00 -0.00000000000E+00 -0.55711081094E+03  0.55711225850E+03  0.12700000000E+01 0. -1.
         25    2    1    2    0    0  0.00000000000E+00  0.00000000000E+00 -0.55015858335E+03  0.56417953297E+03  0.12499631433E+03 0.  0.
    9000005    1    3    3    0    0 -0.29242203749E+02  0.11073754344E+02 -0.30875370525E+02  0.43954783817E+02  0.10000000000E+01 0.  0.
    9000005    1    3    3    0    0  0.29242203749E+02 -0.11073754344E+02 -0.51928321282E+03  0.52022474916E+03  0.10000000000E+01 0.  0.
<mgrwt>
<rscale>  0 0.12499631E+03</rscale>
<asrwt>0</asrwt>
<pdfrwt beam="2">  1        4 0.13929211E+00 0.12499631E+03</pdfrwt>
<pdfrwt beam="1">  1       -4 0.17526206E-02 0.12499631E+03</pdfrwt>
<totfact> 0.78209549E+02</totfact>
</mgrwt>
</event>
<event>
 5    1  0.1448308E-002  0.1250004E+03  0.7818608E-02  0.1235069E+00
         -4   -1    0    0    0  501 -0.00000000000E+00  0.00000000000E+00  0.33852782142E+02  0.33876596033E+02  0.12700000000E+01 0.  1.
          4   -1    0    0  501    0  0.00000000000E+00 -0.00000000000E+00 -0.11532220055E+03  0.11532919335E+03  0.12700000000E+01 0.  1.
         25    2    1    2    0    0  0.00000000000E+00  0.00000000000E+00 -0.81469418403E+02  0.14920578938E+03  0.12500040580E+03 0.  0.
    9000005    1    3    3    0    0 -0.29889866285E+02  0.50102986198E+02 -0.14002393738E+02  0.60006502671E+02  0.10000000000E+01 0.  0.
    9000005    1    3    3    0    0  0.29889866285E+02 -0.50102986198E+02 -0.67467024665E+02  0.89199286710E+02  0.10000000000E+01 0.  0.
<mgrwt>
<rscale>  0 0.12500041E+03</rscale>
<asrwt>0</asrwt>
<pdfrwt beam="2">  1        4 0.28834400E-01 0.12500041E+03</pdfrwt>
<pdfrwt beam="1">  1       -4 0.84670466E-02 0.12500041E+03</pdfrwt>
<totfact> 0.18577726E+03</totfact>
</mgrwt>
</event>
<event>
 5    1  0.1448308E-002  0.1250026E+03  0.7818608E-02  0.1235065E+00
          4   -1    0    0  501    0  0.00000000000E+00  0.00000000000E+00  0.28771582079E+03  0.28771862372E+03  0.12700000000E+01 0. -1.
         -4   -1    0    0    0  501 -0.00000000000E+00 -0.00000000000E+00 -0.13544753721E+02  0.13604163089E+02  0.12700000000E+01 0. -1.
         25    2    1    2    0    0  0.00000000000E+00  0.00000000000E+00  0.27417106707E+03  0.30132278680E+03  0.12500259129E+03 0.  0.
    9000005    1    3    3    0    0 -0.81913725313E+00 -0.47360615269E+02  0.38822316068E+02  0.61252519045E+02  0.10000000000E+01 0.  0.
    9000005    1    3    3    0    0  0.81913725313E+00  0.47360615269E+02  0.23534875100E+03  0.24007026776E+03  0.10000000000E+01 0.  0.
<mgrwt>
<rscale>  0 0.12500259E+03</rscale>
<asrwt>0</asrwt>
<pdfrwt beam="1">  1        4 0.71936734E-01 0.12500259E+03</pdfrwt>
<pdfrwt beam="2">  1       -4 0.33939649E-02 0.12500259E+03</pdfrwt>
<totfact> 0.12933295E+03</totfact>
</mgrwt>
</event>
<event>
 5    1  0.1448308E-002  0.1249940E+03  0.7818608E-02  0.1235079E+00
          4   -1    0    0  501    0  0.00000000000E+00  0.00000000000E+00  0.21416902842E+02  0.21454524636E+02  0.12700000000E+01 0. -1.
         -4   -1    0    0    0  501 -0.00000000000E+00 -0.00000000000E+00 -0.18217358074E+03  0.18217800751E+03  0.12700000000E+01 0. -1.
         25    2    1    2    0    0  0.00000000000E+00  0.00000000000E+00 -0.16075667790E+03  0.20363253215E+03  0.12499399449E+03 0.  0.
    9000005    1    3    3    0    0 -0.87578652897E+01 -0.60515665962E+02 -0.59386547111E+02  0.85244401629E+02  0.10000000000E+01 0.  0.
    9000005    1    3    3    0    0  0.87578652897E+01  0.60515665962E+02 -0.10137013079E+03  0.11838813052E+03  0.10000000000E+01 0.  0.
<mgrwt>
<rscale>  0 0.12499399E+03</rscale>
<asrwt>0</asrwt>
<pdfrwt beam="1">  1        4 0.53594823E-02 0.12499399E+03</pdfrwt>
<pdfrwt beam="2">  1       -4 0.45548647E-01 0.12499399E+03</pdfrwt>
<totfact> 0.16179862E+03</totfact>
</mgrwt>
</event>
<event>
 5    1  0.1448308E-002  0.1249967E+03  0.7818608E-02  0.1235074E+00
          4   -1    0    0  501    0  0.00000000000E+00  0.00000000000E+00  0.19321835760E+02  0.19363528531E+02  0.12700000000E+01 0.  1.
         -4   -1    0    0    0  501 -0.00000000000E+00 -0.00000000000E+00 -0.20189533685E+03  0.20189933121E+03  0.12700000000E+01 0.  1.
         25    2    1    2    0    0  0.00000000000E+00  0.00000000000E+00 -0.18257350109E+03  0.22126285974E+03  0.12499667915E+03 0.  0.
    9000005    1    3    3    0    0  0.41226311339E+02  0.44347025483E+02 -0.63933779616E+02  0.88061317227E+02  0.10000000000E+01 0.  0.
    9000005    1    3    3    0    0 -0.41226311339E+02 -0.44347025483E+02 -0.11863972148E+03  0.13320154251E+03  0.10000000000E+01 0.  0.
<mgrwt>
<rscale>  0 0.12499668E+03</rscale>
<asrwt>0</asrwt>
<pdfrwt beam="1">  1        4 0.48361705E-02 0.12499668E+03</pdfrwt>
<pdfrwt beam="2">  1       -4 0.50479539E-01 0.12499668E+03</pdfrwt>
<totfact> 0.15505805E+03</totfact>
</mgrwt>
</event>
<event>
 5    1  0.1448308E-002  0.1250009E+03  0.7818608E-02  0.1235068E+00
         -4   -1    0    0    0  501 -0.00000000000E+00  0.00000000000E+00  0.38705435582E+02  0.38726265551E+02  0.12700000000E+01 0. -1.
          4   -1    0    0  501    0  0.00000000000E+00 -0.00000000000E+00 -0.10087195309E+03  0.10087994756E+03  0.12700000000E+01 0. -1.
         25    2    1    2    0    0  0.00000000000E+00  0.00000000000E+00 -0.62166517506E+02  0.13960621311E+03  0.12500087536E+03 0.  0.
    9000005    1    3    3    0    0  0.43628667617E+02  0.25878177283E+02 -0.71846671950E+02  0.87955016730E+02  0.10000000000E+01 0.  0.
    9000005    1    3    3    0    0 -0.43628667617E+02 -0.25878177283E+02  0.96801544445E+01  0.51651196382E+02  0.10000000000E+01 0.  0.
<mgrwt>
<rscale>  0 0.12500088E+03</rscale>
<asrwt>0</asrwt>
<pdfrwt beam="2">  1        4 0.25221591E-01 0.12500088E+03</pdfrwt>
<pdfrwt beam="1">  1       -4 0.96799622E-02 0.12500088E+03</pdfrwt>
<totfact> 0.19060117E+03</totfact>
</mgrwt>
</event>
<event>
 5    1  0.1448308E-002  0.1249984E+03  0.7818608E-02  0.1235072E+00
         -4   -1    0    0    0  501 -0.00000000000E+00  0.00000000000E+00  0.11513604717E+02  0.11583436173E+02  0.12700000000E+01 0.  1.
          4   -1    0    0  501    0  0.00000000000E+00 -0.00000000000E+00 -0.33816713584E+03  0.33816952060E+03  0.12700000000E+01 0.  1.
         25    2    1    2    0    0  0.00000000000E+00  0.00000000000E+00 -0.32665353112E+03  0.34975295677E+03  0.12499840549E+03 0.  0.
    9000005    1    3    3    0    0 -0.11150918454E+02  0.59591544051E+02 -0.20572962071E+03  0.21447883798E+03  0.10000000000E+01 0.  0.
    9000005    1    3    3    0    0  0.11150918454E+02 -0.59591544051E+02 -0.12092391042E+03  0.13527411879E+03  0.10000000000E+01 0.  0.
<mgrwt>
<rscale>  0 0.12499841E+03</rscale>
<asrwt>0</asrwt>
<pdfrwt beam="2">  1        4 0.84550778E-01 0.12499841E+03</pdfrwt>
<pdfrwt beam="1">  1       -4 0.28874293E-02 0.12499841E+03</pdfrwt>
<totfact> 0.11683643E+03</totfact>
</mgrwt>
</event>
<event>
 5    1  0.1448308E-002  0.1249961E+03  0.7818608E-02  0.1235075E+00
         -4   -1    0    0    0  501 -0.00000000000E+00  0.00000000000E+00  0.66631675018E+02  0.66643777021E+02  0.12700000000E+01 0.  1.
          4   -1    0    0  501    0  0.00000000000E+00 -0.00000000000E+00 -0.58596568458E+02  0.58610329593E+02  0.12700000000E+01 0.  1.
         25    2    1    2    0    0  0.00000000000E+00  0.00000000000E+00  0.80351065597E+01  0.12525410661E+03  0.12499611309E+03 0.  0.
    9000005    1    3    3    0    0 -0.97294792190E+01 -0.97987067975E+00  0.65865153234E+02  0.66594604309E+02  0.10000000000E+01 0.  0.
    9000005    1    3    3    0    0  0.97294792190E+01  0.97987067975E+00 -0.57830046675E+02  0.58659502306E+02  0.10000000000E+01 0.  0.
<mgrwt>
<rscale>  0 0.12499611E+03</rscale>
<asrwt>0</asrwt>
<pdfrwt beam="2">  1        4 0.14652375E-01 0.12499611E+03</pdfrwt>
<pdfrwt beam="1">  1       -4 0.16661152E-01 0.12499611E+03</pdfrwt>
<totfact> 0.19823084E+03</totfact>
</mgrwt>
</event>
<event>
 5    1  0.1448308E-002  0.1249999E+03  0.7818608E-02  0.1235069E+00
         -4   -1    0    0    0  501 -0.00000000000E+00  0.00000000000E+00  0.74600638653E+02  0.74611448099E+02  0.12700000000E+01 0.  1.
          4   -1    0    0  501    0  0.00000000000E+00 -0.00000000000E+00 -0.52339778048E+02  0.52355183756E+02  0.12700000000E+01 0.  1.
         25    2    1    2    0    0  0.00000000000E+00  0.00000000000E+00  0.22260860605E+02  0.12696663185E+03  0.12499991876E+03 0.  0.
    9000005    1    3    3    0    0  0.44211727768E+02 -0.28294813599E+02  0.45575210732E+02  0.69522465305E+02  0.10000000000E+01 0.  0.
    9000005    1    3    3    0    0 -0.44211727768E+02  0.28294813599E+02 -0.23314350127E+02  0.57444166550E+02  0.10000000000E+01 0.  0.
<mgrwt>
<rscale>  0 0.12499992E+03</rscale>
<asrwt>0</asrwt>
<pdfrwt beam="2">  1        4 0.13088221E-01 0.12499992E+03</pdfrwt>
<pdfrwt beam="1">  1       -4 0.18653437E-01 0.12499992E+03</pdfrwt>
<totfact> 0.19728812E+03</totfact>
</mgrwt>
</event>
<event>
 5    1  0.1448308E-002  0.1249988E+03  0.7818608E-02  0.1235071E+00
         -4   -1    0    0    0  501 -0.00000000000E+00  0.00000000000E+00  0.30275203986E+02  0.30301829588E+02  0.12700000000E+01 0. -1.
          4   -1    0    0  501    0  0.00000000000E+00 -0.00000000000E+00 -0.12893580810E+03  0.12894206261E+03  0.12700000000E+01 0. -1.
         25    2    1    2    0    0  0.00000000000E+00  0.00000000000E+00 -0.98660604117E+02  0.15924389220E+03  0.12499880959E+03 0.  0.
    9000005    1    3    3    0    0 -0.47593522161E+02  0.39574592654E+02 -0.38379858580E+02  0.72837526592E+02  0.10000000000E+01 0.  0.
    9000005    1    3    3    0    0  0.47593522161E+02 -0.39574592654E+02 -0.60280745537E+02  0.86406365610E+02  0.10000000000E+01 0.  0.
<mgrwt>
<rscale>  0 0.12499881E+03</rscale>
<asrwt>0</asrwt>
<pdfrwt beam="2">  1        4 0.32238061E-01 0.12499881E+03</pdfrwt>
<pdfrwt beam="1">  1       -4 0.75729113E-02 0.12499881E+03</pdfrwt>
<totfact> 0.18093897E+03</totfact>
</mgrwt>
</event>
<event>
 5    1  0.1448308E-002  0.1249987E+03  0.7818608E-02  0.1235071E+00
          4   -1    0    0  501    0  0.00000000000E+00  0.00000000000E+00  0.39369950481E+02  0.39390429051E+02  0.12700000000E+01 0.  1.
         -4   -1    0    0    0  501 -0.00000000000E+00 -0.00000000000E+00 -0.99166599416E+02  0.99174731357E+02  0.12700000000E+01 0.  1.
         25    2    1    2    0    0  0.00000000000E+00  0.00000000000E+00 -0.59796648935E+02  0.13856516041E+03  0.12499865781E+03 0.  0.
    9000005    1    3    3    0    0 -0.16880174843E+02 -0.29883347415E+02 -0.87788930708E+02  0.94264792528E+02  0.10000000000E+01 0.  0.
    9000005    1    3    3    0    0  0.16880174843E+02  0.29883347415E+02  0.27992281773E+02  0.44300367880E+02  0.10000000000E+01 0.  0.
<mgrwt>
<rscale>  0 0.12499866E+03</rscale>
<asrwt>0</asrwt>
<pdfrwt beam="1">  1        4 0.98460641E-02 0.12499866E+03</pdfrwt>
<pdfrwt beam="2">  1       -4 0.24795226E-01 0.12499866E+03</pdfrwt>
<totfact> 0.19114587E+03</totfact>
</mgrwt>
</event>
<event>
 5    1  0.1448308E-002  0.1250024E+03  0.7818608E-02  0.1235066E+00
         -4   -1    0    0    0  501 -0.00000000000E+00  0.00000000000E+00  0.71191645376E+03  0.71191758655E+03  0.12700000000E+01 0. -1.
          4   -1    0    0  501    0  0.00000000000E+00 -0.00000000000E+00 -0.54125225609E+01  0.55595234034E+01  0.12700000000E+01 0. -1.
         25    2    1    2    0    0  0.00000000000E+00  0.00000000000E+00  0.70650393120E+03  0.71747710995E+03  0.12500239399E+03 0.  0.
    9000005    1    3    3    0    0 -0.49677089992E+02 -0.28659363274E+02  0.49573402051E+03  0.49904147269E+03  0.10000000000E+01 0.  0.
    9000005    1    3    3    0    0  0.49677089992E+02  0.28659363274E+02  0.21076991069E+03  0.21843563726E+03  0.10000000000E+01 0.  0.
<mgrwt>
<rscale>  0 0.12500239E+03</rscale>
<asrwt>0</asrwt>
<pdfrwt beam="2">  1        4 0.13716475E-02 0.12500239E+03</pdfrwt>
<pdfrwt beam="1">  1       -4 0.17799761E+00 0.12500239E+03</pdfrwt>
<totfact> 0.60265006E+02</totfact>
</mgrwt>
</event>
<event>
 5    1  0.1448308E-002  0.1249995E+03  0.7818608E-02  0.1235070E+00
         -4   -1    0    0    0  501 -0.00000000000E+00  0.00000000000E+00  0.47192882212E+01  0.48871854185E+01  0.12700000000E+01 0.  1.
          4   -1    0    0  501    0  0.00000000000E+00 -0.00000000000E+00 -0.81307913752E+03  0.81308012937E+03  0.12700000000E+01 0.  1.
         25    2    1    2    0    0  0.00000000000E+00  0.00000000000E+00 -0.80835984930E+03  0.81796731479E+03  0.12499952839E+03 0.  0.
    9000005    1    3    3    0    0 -0.41511603504E+01 -0.30884243726E+02 -0.49718587975E+02  0.58685659518E+02  0.10000000000E+01 0.  0.
    9000005    1    3    3    0    0  0.41511603504E+01  0.30884243726E+02 -0.75864126133E+03  0.75928165527E+03  0.10000000000E+01 0.  0.
<mgrwt>
<rscale>  0 0.12499953E+03</rscale>
<asrwt>0</asrwt>
<pdfrwt beam="2">  1        4 0.20329043E+00 0.12499953E+03</pdfrwt>
<pdfrwt beam="1">  1       -4 0.12009360E-02 0.12499953E+03</pdfrwt>
<totfact> 0.50914797E+02</totfact>
</mgrwt>
</event>
<event>
 5    1  0.1448308E-002  0.1249981E+03  0.7818608E-02  0.1235072E+00
          4   -1    0    0  501    0  0.00000000000E+00  0.00000000000E+00  0.56001294648E+02  0.56015693357E+02  0.12700000000E+01 0. -1.
         -4   -1    0    0    0  501 -0.00000000000E+00 -0.00000000000E+00 -0.69721596089E+02  0.69733161847E+02  0.12700000000E+01 0. -1.
         25    2    1    2    0    0  0.00000000000E+00  0.00000000000E+00 -0.13720301441E+02  0.12574885520E+03  0.12499811164E+03 0.  0.
    9000005    1    3    3    0    0 -0.43143842767E+02 -0.30221942503E+02 -0.40683130035E+02  0.66564810875E+02  0.10000000000E+01 0.  0.
    9000005    1    3    3    0    0  0.43143842767E+02  0.30221942503E+02  0.26962828593E+02  0.59184044329E+02  0.10000000000E+01 0.  0.
<mgrwt>
<rscale>  0 0.12499811E+03</rscale>
<asrwt>0</asrwt>
<pdfrwt beam="1">  1        4 0.14003569E-01 0.12499811E+03</pdfrwt>
<pdfrwt beam="2">  1       -4 0.17433645E-01 0.12499811E+03</pdfrwt>
<totfact> 0.19795372E+03</totfact>
</mgrwt>
</event>
<event>
 5    1  0.1448308E-002  0.1249961E+03  0.7818608E-02  0.1235075E+00
          4   -1    0    0  501    0  0.00000000000E+00  0.00000000000E+00  0.33229430831E+03  0.33229673521E+03  0.12700000000E+01 0. -1.
         -4   -1    0    0    0  501 -0.00000000000E+00 -0.00000000000E+00 -0.11717882887E+02  0.11786504119E+02  0.12700000000E+01 0. -1.
         25    2    1    2    0    0  0.00000000000E+00  0.00000000000E+00  0.32057642542E+03  0.34408323933E+03  0.12499612416E+03 0.  0.
    9000005    1    3    3    0    0 -0.44636907765E+02  0.43607752919E+02  0.16938401024E+03  0.18051601751E+03  0.10000000000E+01 0.  0.
    9000005    1    3    3    0    0  0.44636907765E+02 -0.43607752919E+02  0.15119241517E+03  0.16356722183E+03  0.10000000000E+01 0.  0.
<mgrwt>
<rscale>  0 0.12499612E+03</rscale>
<asrwt>0</asrwt>
<pdfrwt beam="1">  1        4 0.83082462E-01 0.12499612E+03</pdfrwt>
<pdfrwt beam="2">  1       -4 0.29383516E-02 0.12499612E+03</pdfrwt>
<totfact> 0.11820748E+03</totfact>
</mgrwt>
</event>
<event>
 5    1  0.1448308E-002  0.1249988E+03  0.7818608E-02  0.1235071E+00
         -4   -1    0    0    0  501 -0.00000000000E+00  0.00000000000E+00  0.26879107713E+02  0.26909093842E+02  0.12700000000E+01 0.  1.
          4   -1    0    0  501    0  0.00000000000E+00 -0.00000000000E+00 -0.14521009779E+03  0.14521565136E+03  0.12700000000E+01 0.  1.
         25    2    1    2    0    0  0.00000000000E+00  0.00000000000E+00 -0.11833099008E+03  0.17212474520E+03  0.12499881879E+03 0.  0.
    9000005    1    3    3    0    0  0.27950800444E+02 -0.25708357660E+02  0.91737890716E+01  0.39081009519E+02  0.10000000000E+01 0.  0.
    9000005    1    3    3    0    0 -0.27950800444E+02  0.25708357660E+02 -0.12750477915E+03  0.13304373568E+03  0.10000000000E+01 0.  0.
<mgrwt>
<rscale>  0 0.12499882E+03</rscale>
<asrwt>0</asrwt>
<pdfrwt beam="2">  1        4 0.36306965E-01 0.12499882E+03</pdfrwt>
<pdfrwt beam="1">  1       -4 0.67242198E-02 0.12499882E+03</pdfrwt>
<totfact> 0.17502116E+03</totfact>
</mgrwt>
</event>
<event>
 5    1  0.1448308E-002  0.1249966E+03  0.7818608E-02  0.1235075E+00
          4   -1    0    0  501    0  0.00000000000E+00  0.00000000000E+00  0.81822453547E+02  0.81832309050E+02  0.12700000000E+01 0. -1.
         -4   -1    0    0    0  501 -0.00000000000E+00 -0.00000000000E+00 -0.47716820709E+02  0.47733718466E+02  0.12700000000E+01 0. -1.
         25    2    1    2    0    0  0.00000000000E+00  0.00000000000E+00  0.34105632839E+02  0.12956602752E+03  0.12499664513E+03 0.  0.
    9000005    1    3    3    0    0  0.35766855318E+02 -0.83084059215E+00  0.70161340347E+02  0.78762757155E+02  0.10000000000E+01 0.  0.
    9000005    1    3    3    0    0 -0.35766855318E+02  0.83084059215E+00 -0.36055707508E+02  0.50803270361E+02  0.10000000000E+01 0.  0.
<mgrwt>
<rscale>  0 0.12499665E+03</rscale>
<asrwt>0</asrwt>
<pdfrwt beam="1">  1        4 0.20458957E-01 0.12499665E+03</pdfrwt>
<pdfrwt beam="2">  1       -4 0.11932549E-01 0.12499665E+03</pdfrwt>
<totfact> 0.19589275E+03</totfact>
</mgrwt>
</event>
<event>
 5    1  0.1448308E-002  0.1250049E+03  0.7818608E-02  0.1235062E+00
          4   -1    0    0  501    0  0.00000000000E+00  0.00000000000E+00  0.93781232179E+02  0.93789831053E+02  0.12700000000E+01 0. -1.
         -4   -1    0    0    0  501 -0.00000000000E+00 -0.00000000000E+00 -0.41635846364E+02  0.41655210988E+02  0.12700000000E+01 0. -1.
         25    2    1    2    0    0  0.00000000000E+00  0.00000000000E+00  0.52145385815E+02  0.13544504204E+03  0.12500487251E+03 0.  0.
    9000005    1    3    3    0    0  0.60519771914E+02  0.50828769735E+01  0.10108675854E+02  0.61576487058E+02  0.10000000000E+01 0.  0.
    9000005    1    3    3    0    0 -0.60519771914E+02 -0.50828769735E+01  0.42036709961E+02  0.73868554983E+02  0.10000000000E+01 0.  0.
<mgrwt>
<rscale>  0 0.12500487E+03</rscale>
<asrwt>0</asrwt>
<pdfrwt beam="1">  1        4 0.23448803E-01 0.12500487E+03</pdfrwt>
<pdfrwt beam="2">  1       -4 0.10412457E-01 0.12500487E+03</pdfrwt>
<totfact> 0.19273661E+03</totfact>
</mgrwt>
</event>
<event>
 5    1  0.1448308E-002  0.1250003E+03  0.7818608E-02  0.1235069E+00
          4   -1    0    0  501    0  0.00000000000E+00  0.00000000000E+00  0.68366141028E+03  0.68366258989E+03  0.12700000000E+01 0.  1.
         -4   -1    0    0    0  501 -0.00000000000E+00 -0.00000000000E+00 -0.56419793213E+01  0.57831505827E+01  0.12700000000E+01 0.  1.
         25    2    1    2    0    0  0.00000000000E+00  0.00000000000E+00  0.67801943096E+03  0.68944574047E+03  0.12500032116E+03 0.  0.
    9000005    1    3    3    0    0 -0.35129442670E+02 -0.42929607612E+02  0.18027666656E+03  0.18862053297E+03  0.10000000000E+01 0.  0.
    9000005    1    3    3    0    0  0.35129442670E+02  0.42929607612E+02  0.49774276440E+03  0.50082520750E+03  0.10000000000E+01 0.  0.
<mgrwt>
<rscale>  0 0.12500032E+03</rscale>
<asrwt>0</asrwt>
<pdfrwt beam="1">  1        4 0.17093314E+00 0.12500032E+03</pdfrwt>
<pdfrwt beam="2">  1       -4 0.14282887E-02 0.12500032E+03</pdfrwt>
<totfact> 0.63171300E+02</totfact>
</mgrwt>
</event>
<event>
 5    1  0.1448308E-002  0.1250004E+03  0.7818608E-02  0.1235069E+00
          4   -1    0    0  501    0  0.00000000000E+00  0.00000000000E+00  0.14042709133E+03  0.14043283405E+03  0.12700000000E+01 0. -1.
         -4   -1    0    0    0  501 -0.00000000000E+00 -0.00000000000E+00 -0.27796278299E+02  0.27825276050E+02  0.12700000000E+01 0. -1.
         25    2    1    2    0    0  0.00000000000E+00  0.00000000000E+00  0.11263081303E+03  0.16825811010E+03  0.12500036628E+03 0.  0.
    9000005    1    3    3    0    0 -0.47360575472E+02  0.38707504911E+02  0.73552233053E+02  0.95667267300E+02  0.10000000000E+01 0.  0.
    9000005    1    3    3    0    0  0.47360575472E+02 -0.38707504911E+02  0.39078579979E+02  0.72590842801E+02  0.10000000000E+01 0.  0.
<mgrwt>
<rscale>  0 0.12500037E+03</rscale>
<asrwt>0</asrwt>
<pdfrwt beam="1">  1        4 0.35111115E-01 0.12500037E+03</pdfrwt>
<pdfrwt beam="2">  1       -4 0.69534122E-02 0.12500037E+03</pdfrwt>
<totfact> 0.17675751E+03</totfact>
</mgrwt>
</event>
<event>
 5    1  0.1448308E-002  0.1250031E+03  0.7818608E-02  0.1235064E+00
         -4   -1    0    0    0  501 -0.00000000000E+00  0.00000000000E+00  0.39839454861E+02  0.39859692217E+02  0.12700000000E+01 0. -1.
          4   -1    0    0  501    0  0.00000000000E+00 -0.00000000000E+00 -0.98005419831E+02  0.98013648112E+02  0.12700000000E+01 0. -1.
         25    2    1    2    0    0  0.00000000000E+00  0.00000000000E+00 -0.58165964970E+02  0.13787334033E+03  0.12500311393E+03 0.  0.
    9000005    1    3    3    0    0 -0.25361897743E+02 -0.57113206518E+02 -0.29687508067E+02  0.69191707242E+02  0.10000000000E+01 0.  0.
    9000005    1    3    3    0    0  0.25361897743E+02  0.57113206518E+02 -0.28478456903E+02  0.68681633087E+02  0.10000000000E+01 0.  0.
<mgrwt>
<rscale>  0 0.12500311E+03</rscale>
<asrwt>0</asrwt>
<pdfrwt beam="2">  1        4 0.24504913E-01 0.12500311E+03</pdfrwt>
<pdfrwt beam="1">  1       -4 0.99634221E-02 0.12500311E+03</pdfrwt>
<totfact> 0.19148282E+03</totfact>
</mgrwt>
</event>
<event>
 5    1  0.1448308E-002  0.1249996E+03  0.7818608E-02  0.1235070E+00
          4   -1    0    0  501    0  0.00000000000E+00  0.00000000000E+00  0.30895818059E+02  0.30921909280E+02  0.12700000000E+01 0.  1.
         -4   -1    0    0    0  501 -0.00000000000E+00 -0.00000000000E+00 -0.12634955091E+03  0.12635593344E+03  0.12700000000E+01 0.  1.
         25    2    1    2    0    0  0.00000000000E+00  0.00000000000E+00 -0.95453732850E+02  0.15727784272E+03  0.12499961878E+03 0.  0.
    9000005    1    3    3    0    0 -0.47706984803E+02  0.40165072512E+02 -0.52765545448E+02  0.81696953648E+02  0.10000000000E+01 0.  0.
    9000005    1    3    3    0    0  0.47706984803E+02 -0.40165072512E+02 -0.42688187402E+02  0.75580889069E+02  0.10000000000E+01 0.  0.
<mgrwt>
<rscale>  0 0.12499962E+03</rscale>
<asrwt>0</asrwt>
<pdfrwt beam="1">  1        4 0.77280141E-02 0.12499962E+03</pdfrwt>
<pdfrwt beam="2">  1       -4 0.31591446E-01 0.12499962E+03</pdfrwt>
<totfact> 0.18186782E+03</totfact>
</mgrwt>
</event>
<event>
 5    1  0.1448308E-002  0.1249949E+03  0.7818608E-02  0.1235077E+00
          4   -1    0    0  501    0  0.00000000000E+00  0.00000000000E+00  0.94337245258E+01  0.95188265258E+01  0.12700000000E+01 0. -1.
         -4   -1    0    0    0  501 -0.00000000000E+00 -0.00000000000E+00 -0.41209409603E+03  0.41209605299E+03  0.12700000000E+01 0. -1.
         25    2    1    2    0    0  0.00000000000E+00  0.00000000000E+00 -0.40266037151E+03  0.42161487951E+03  0.12499492727E+03 0.  0.
    9000005    1    3    3    0    0 -0.19055403979E+01 -0.62074305741E+02 -0.22471946312E+03  0.23314520716E+03  0.10000000000E+01 0.  0.
    9000005    1    3    3    0    0  0.19055403979E+01  0.62074305741E+02 -0.17794090839E+03  0.18846967235E+03  0.10000000000E+01 0.  0.
<mgrwt>
<rscale>  0 0.12499493E+03</rscale>
<asrwt>0</asrwt>
<pdfrwt beam="1">  1        4 0.23693149E-02 0.12499493E+03</pdfrwt>
<pdfrwt beam="2">  1       -4 0.10303435E+00 0.12499493E+03</pdfrwt>
<totfact> 0.10135574E+03</totfact>
</mgrwt>
</event>
<event>
 5    1  0.1448308E-002  0.1250021E+03  0.7818608E-02  0.1235066E+00
         -4   -1    0    0    0  501 -0.00000000000E+00  0.00000000000E+00  0.12089012273E+02  0.12155538562E+02  0.12700000000E+01 0.  1.
          4   -1    0    0  501    0  0.00000000000E+00 -0.00000000000E+00 -0.32218059293E+03  0.32218309601E+03  0.12700000000E+01 0.  1.
         25    2    1    2    0    0  0.00000000000E+00  0.00000000000E+00 -0.31009158065E+03  0.33433863458E+03  0.12500213670E+03 0.  0.
    9000005    1    3    3    0    0 -0.16258337518E+02 -0.18339405165E+02 -0.30880325675E+03  0.30977591691E+03  0.10000000000E+01 0.  0.
    9000005    1    3    3    0    0  0.16258337518E+02  0.18339405165E+02 -0.12883239063E+01  0.24562717666E+02  0.10000000000E+01 0.  0.
<mgrwt>
<rscale>  0 0.12500214E+03</rscale>
<asrwt>0</asrwt>
<pdfrwt beam="2">  1        4 0.80553749E-01 0.12500214E+03</pdfrwt>
<pdfrwt beam="1">  1       -4 0.30308828E-02 0.12500214E+03</pdfrwt>
<totfact> 0.12059858E+03</totfact>
</mgrwt>
</event>
<event>
 5    1  0.1448308E-002  0.1249975E+03  0.7818608E-02  0.1235073E+00
          4   -1    0    0  501    0  0.00000000000E+00  0.00000000000E+00  0.65756149456E+02  0.65768412564E+02  0.12700000000E+01 0. -1.
         -4   -1    0    0    0  501 -0.00000000000E+00 -0.00000000000E+00 -0.59378098814E+02  0.59391678868E+02  0.12700000000E+01 0. -1.
         25    2    1    2    0    0  0.00000000000E+00  0.00000000000E+00  0.63780506416E+01  0.12516009143E+03  0.12499747580E+03 0.  0.
    9000005    1    3    3    0    0  0.38413921781E+02  0.15048038082E+02 -0.43808370065E+02  0.60185098858E+02  0.10000000000E+01 0.  0.
    9000005    1    3    3    0    0 -0.38413921781E+02 -0.15048038082E+02  0.50186420707E+02  0.64974992575E+02  0.10000000000E+01 0.  0.
<mgrwt>
<rscale>  0 0.12499748E+03</rscale>
<asrwt>0</asrwt>
<pdfrwt beam="1">  1        4 0.16442268E-01 0.12499748E+03</pdfrwt>
<pdfrwt beam="2">  1       -4 0.14847755E-01 0.12499748E+03</pdfrwt>
<totfact> 0.19827547E+03</totfact>
</mgrwt>
</event>
<event>
 5    1  0.1448308E-002  0.1250015E+03  0.7818608E-02  0.1235067E+00
          4   -1    0    0  501    0  0.00000000000E+00  0.00000000000E+00  0.65271886411E+02  0.65284240485E+02  0.12700000000E+01 0. -1.
         -4   -1    0    0    0  501 -0.00000000000E+00 -0.00000000000E+00 -0.59822550557E+02  0.59836029741E+02  0.12700000000E+01 0. -1.
         25    2    1    2    0    0  0.00000000000E+00  0.00000000000E+00  0.54493358537E+01  0.12512027023E+03  0.12500154703E+03 0.  0.
    9000005    1    3    3    0    0  0.23657465868E+02  0.57830739372E+02  0.38556005052E+01  0.62609390373E+02  0.10000000000E+01 0.  0.
    9000005    1    3    3    0    0 -0.23657465868E+02 -0.57830739372E+02  0.15937353485E+01  0.62510879853E+02  0.10000000000E+01 0.  0.
<mgrwt>
<rscale>  0 0.12500155E+03</rscale>
<asrwt>0</asrwt>
<pdfrwt beam="1">  1        4 0.16321201E-01 0.12500155E+03</pdfrwt>
<pdfrwt beam="2">  1       -4 0.14958867E-01 0.12500155E+03</pdfrwt>
<totfact> 0.19827816E+03</totfact>
</mgrwt>
</event>
<event>
 5    1  0.1448308E-002  0.1249998E+03  0.7818608E-02  0.1235070E+00
         -4   -1    0    0    0  501 -0.00000000000E+00  0.00000000000E+00  0.16327748517E+03  0.16328242423E+03  0.12700000000E+01 0.  1.
          4   -1    0    0  501    0  0.00000000000E+00 -0.00000000000E+00 -0.23901756123E+02  0.23935472541E+02  0.12700000000E+01 0.  1.
         25    2    1    2    0    0  0.00000000000E+00  0.00000000000E+00  0.13937572905E+03  0.18721789677E+03  0.12499978810E+03 0.  0.
    9000005    1    3    3    0    0 -0.53015720895E+02 -0.20324723157E+02  0.30589077914E+02  0.64501571462E+02  0.10000000000E+01 0.  0.
    9000005    1    3    3    0    0  0.53015720895E+02  0.20324723157E+02  0.10878665113E+03  0.12271632531E+03  0.10000000000E+01 0.  0.
<mgrwt>
<rscale>  0 0.12499979E+03</rscale>
<asrwt>0</asrwt>
<pdfrwt beam="2">  1        4 0.59802710E-02 0.12499979E+03</pdfrwt>
<pdfrwt beam="1">  1       -4 0.40824203E-01 0.12499979E+03</pdfrwt>
<totfact> 0.16847067E+03</totfact>
</mgrwt>
</event>
<event>
 5    1  0.1448308E-002  0.1250007E+03  0.7818608E-02  0.1235068E+00
         -4   -1    0    0    0  501 -0.00000000000E+00  0.00000000000E+00  0.15256707385E+02  0.15309474851E+02  0.12700000000E+01 0.  1.
          4   -1    0    0  501    0  0.00000000000E+00 -0.00000000000E+00 -0.25554142935E+03  0.25554458518E+03  0.12700000000E+01 0.  1.
         25    2    1    2    0    0  0.00000000000E+00  0.00000000000E+00 -0.24028472197E+03  0.27085406003E+03  0.12500069690E+03 0.  0.
    9000005    1    3    3    0    0  0.36528249861E+02  0.14797716023E+02 -0.22522774701E+03  0.22865218884E+03  0.10000000000E+01 0.  0.
    9000005    1    3    3    0    0 -0.36528249861E+02 -0.14797716023E+02 -0.15056974958E+02  0.42201871195E+02  0.10000000000E+01 0.  0.
<mgrwt>
<rscale>  0 0.12500070E+03</rscale>
<asrwt>0</asrwt>
<pdfrwt beam="2">  1        4 0.63892334E-01 0.12500070E+03</pdfrwt>
<pdfrwt beam="1">  1       -4 0.38211681E-02 0.12500070E+03</pdfrwt>
<totfact> 0.13828906E+03</totfact>
</mgrwt>
</event>
<event>
 5    1  0.1448308E-002  0.1249975E+03  0.7818608E-02  0.1235073E+00
          4   -1    0    0  501    0  0.00000000000E+00  0.00000000000E+00  0.10157484919E+03  0.10158278835E+03  0.12700000000E+01 0. -1.
         -4   -1    0    0    0  501 -0.00000000000E+00 -0.00000000000E+00 -0.38435396573E+02  0.38456372810E+02  0.12700000000E+01 0. -1.
         25    2    1    2    0    0  0.00000000000E+00  0.00000000000E+00  0.63139452620E+02  0.14003916116E+03  0.12499750470E+03 0.  0.
    9000005    1    3    3    0    0  0.34181642296E+02 -0.31866515391E+00  0.90177394119E+02  0.96444018102E+02  0.10000000000E+01 0.  0.
    9000005    1    3    3    0    0 -0.34181642296E+02  0.31866515391E+00 -0.27037941500E+02  0.43595143056E+02  0.10000000000E+01 0.  0.
<mgrwt>
<rscale>  0 0.12499750E+03</rscale>
<asrwt>0</asrwt>
<pdfrwt beam="1">  1        4 0.25397327E-01 0.12499750E+03</pdfrwt>
<pdfrwt beam="2">  1       -4 0.96124636E-02 0.12499750E+03</pdfrwt>
<totfact> 0.19039447E+03</totfact>
</mgrwt>
</event>
<event>
 5    1  0.1448308E-002  0.1250026E+03  0.7818608E-02  0.1235065E+00
          4   -1    0    0  501    0  0.00000000000E+00  0.00000000000E+00  0.19513038179E+02  0.19554323281E+02  0.12700000000E+01 0. -1.
         -4   -1    0    0    0  501 -0.00000000000E+00 -0.00000000000E+00 -0.19994017691E+03  0.19994421032E+03  0.12700000000E+01 0. -1.
         25    2    1    2    0    0  0.00000000000E+00  0.00000000000E+00 -0.18042713873E+03  0.21949853360E+03  0.12500261543E+03 0.  0.
    9000005    1    3    3    0    0  0.54227196795E+02  0.23694380221E+02 -0.54945557662E+02  0.80759066569E+02  0.10000000000E+01 0.  0.
    9000005    1    3    3    0    0 -0.54227196795E+02 -0.23694380221E+02 -0.12548158107E+03  0.13873946704E+03  0.10000000000E+01 0.  0.
<mgrwt>
<rscale>  0 0.12500262E+03</rscale>
<asrwt>0</asrwt>
<pdfrwt beam="1">  1        4 0.48839250E-02 0.12500262E+03</pdfrwt>
<pdfrwt beam="2">  1       -4 0.49990703E-01 0.12500262E+03</pdfrwt>
<totfact> 0.15569017E+03</totfact>
</mgrwt>
</event>
<event>
 5    1  0.1448308E-002  0.1249845E+03  0.7818608E-02  0.1235093E+00
          4   -1    0    0  501    0  0.00000000000E+00  0.00000000000E+00  0.26891584446E+01  0.29739658943E+01  0.12700000000E+01 0.  1.
         -4   -1    0    0    0  501 -0.00000000000E+00 -0.00000000000E+00 -0.13789125150E+04  0.13789130999E+04  0.12700000000E+01 0.  1.
         25    2    1    2    0    0  0.00000000000E+00  0.00000000000E+00 -0.13762233566E+04  0.13818870657E+04  0.12498454036E+03 0.  0.
    9000005    1    3    3    0    0  0.58641863223E+02  0.13445716527E+02 -0.50157880364E+03  0.50517516930E+03  0.10000000000E+01 0.  0.
    9000005    1    3    3    0    0 -0.58641863223E+02 -0.13445716527E+02 -0.87464455293E+03  0.87671189645E+03  0.10000000000E+01 0.  0.
<mgrwt>
<rscale>  0 0.12498454E+03</rscale>
<asrwt>0</asrwt>
<pdfrwt beam="1">  1        4 0.70796838E-03 0.12498454E+03</pdfrwt>
<pdfrwt beam="2">  1       -4 0.34476150E+00 0.12498454E+03</pdfrwt>
<totfact> 0.16812910E+02</totfact>
</mgrwt>
</event>
<event>
 5    1  0.1448308E-002  0.1249969E+03  0.7818608E-02  0.1235074E+00
          4   -1    0    0  501    0  0.00000000000E+00  0.00000000000E+00  0.59898713830E+02  0.59912175879E+02  0.12700000000E+01 0. -1.
         -4   -1    0    0    0  501 -0.00000000000E+00 -0.00000000000E+00 -0.65184008401E+02  0.65196379126E+02  0.12700000000E+01 0. -1.
         25    2    1    2    0    0  0.00000000000E+00  0.00000000000E+00 -0.52852945701E+01  0.12510855501E+03  0.12499686475E+03 0.  0.
    9000005    1    3    3    0    0  0.56030895364E+02  0.57074962674E+01 -0.29741131609E+02  0.63699071094E+02  0.10000000000E+01 0.  0.
    9000005    1    3    3    0    0 -0.56030895364E+02 -0.57074962674E+01  0.24455837039E+02  0.61409483911E+02  0.10000000000E+01 0.  0.
<mgrwt>
<rscale>  0 0.12499686E+03</rscale>
<asrwt>0</asrwt>
<pdfrwt beam="1">  1        4 0.14977908E-01 0.12499686E+03</pdfrwt>
<pdfrwt beam="2">  1       -4 0.16299231E-01 0.12499686E+03</pdfrwt>
<totfact> 0.19830624E+03</totfact>
</mgrwt>
</event>
<event>
 5    1  0.1448308E-002  0.1249999E+03  0.7818608E-02  0.1235069E+00
         -4   -1    0    0    0  501 -0.00000000000E+00  0.00000000000E+00  0.31251123189E+03  0.31251381243E+03  0.12700000000E+01 0. -1.
          4   -1    0    0  501    0  0.00000000000E+00 -0.00000000000E+00 -0.12464637099E+02  0.12529169087E+02  0.12700000000E+01 0. -1.
         25    2    1    2    0    0  0.00000000000E+00  0.00000000000E+00  0.30004659480E+03  0.32504298152E+03  0.12499992314E+03 0.  0.
    9000005    1    3    3    0    0  0.49377108770E+02  0.69084207098E+01  0.52054784753E+02  0.72086931984E+02  0.10000000000E+01 0.  0.
    9000005    1    3    3    0    0 -0.49377108770E+02 -0.69084207098E+01  0.24799181004E+03  0.25295604953E+03  0.10000000000E+01 0.  0.
<mgrwt>
<rscale>  0 0.12499992E+03</rscale>
<asrwt>0</asrwt>
<pdfrwt beam="2">  1        4 0.31245483E-02 0.12499992E+03</pdfrwt>
<pdfrwt beam="1">  1       -4 0.78136198E-01 0.12499992E+03</pdfrwt>
<totfact> 0.12297132E+03</totfact>
</mgrwt>
</event>
<event>
 5    1  0.1448308E-002  0.1250002E+03  0.7818608E-02  0.1235069E+00
          4   -1    0    0  501    0  0.00000000000E+00  0.00000000000E+00  0.93597688404E+03  0.93597774565E+03  0.12700000000E+01 0. -1.
         -4   -1    0    0    0  501 -0.00000000000E+00 -0.00000000000E+00 -0.40759600208E+01  0.42692329629E+01  0.12700000000E+01 0. -1.
         25    2    1    2    0    0  0.00000000000E+00  0.00000000000E+00  0.93190092402E+03  0.94024697861E+03  0.12500019443E+03 0.  0.
    9000005    1    3    3    0    0  0.37920093365E+02  0.39183121663E+02  0.69558749556E+03  0.69772216139E+03  0.10000000000E+01 0.  0.
    9000005    1    3    3    0    0 -0.37920093365E+02 -0.39183121663E+02  0.23631342845E+03  0.24252481723E+03  0.10000000000E+01 0.  0.
<mgrwt>
<rscale>  0 0.12500019E+03</rscale>
<asrwt>0</asrwt>
<pdfrwt beam="1">  1        4 0.23401846E+00 0.12500019E+03</pdfrwt>
<pdfrwt beam="2">  1       -4 0.10432569E-02 0.12500019E+03</pdfrwt>
<totfact> 0.41279848E+02</totfact>
</mgrwt>
</event>
<event>
 5    1  0.1448308E-002  0.1249970E+03  0.7818608E-02  0.1235074E+00
         -4   -1    0    0    0  501 -0.00000000000E+00  0.00000000000E+00  0.47959260518E+02  0.47976072884E+02  0.12700000000E+01 0. -1.
          4   -1    0    0  501    0  0.00000000000E+00 -0.00000000000E+00 -0.81409421652E+02  0.81419327151E+02  0.12700000000E+01 0. -1.
         25    2    1    2    0    0  0.00000000000E+00  0.00000000000E+00 -0.33450161134E+02  0.12939540004E+03  0.12499702505E+03 0.  0.
    9000005    1    3    3    0    0  0.18692209762E+02 -0.44980394919E+02  0.23798648527E+02  0.54221861869E+02  0.10000000000E+01 0.  0.
    9000005    1    3    3    0    0 -0.18692209762E+02  0.44980394919E+02 -0.57248809661E+02  0.75173538166E+02  0.10000000000E+01 0.  0.
<mgrwt>
<rscale>  0 0.12499703E+03</rscale>
<asrwt>0</asrwt>
<pdfrwt beam="2">  1        4 0.20355695E-01 0.12499703E+03</pdfrwt>
<pdfrwt beam="1">  1       -4 0.11993155E-01 0.12499703E+03</pdfrwt>
<totfact> 0.19598302E+03</totfact>
</mgrwt>
</event>
<event>
 5    1  0.1448308E-002  0.1249985E+03  0.7818608E-02  0.1235072E+00
          4   -1    0    0  501    0  0.00000000000E+00  0.00000000000E+00  0.10454802937E+03  0.10455574276E+03  0.12700000000E+01 0.  1.
         -4   -1    0    0    0  501 -0.00000000000E+00 -0.00000000000E+00 -0.37342436187E+02  0.37364026020E+02  0.12700000000E+01 0.  1.
         25    2    1    2    0    0  0.00000000000E+00  0.00000000000E+00  0.67205593182E+02  0.14191976878E+03  0.12499851606E+03 0.  0.
    9000005    1    3    3    0    0 -0.47791196003E+02 -0.40250701296E+02  0.34760588446E+02  0.71508152538E+02  0.10000000000E+01 0.  0.
    9000005    1    3    3    0    0  0.47791196003E+02  0.40250701296E+02  0.32445004736E+02  0.70411616247E+02  0.10000000000E+01 0.  0.
<mgrwt>
<rscale>  0 0.12499852E+03</rscale>
<asrwt>0</asrwt>
<pdfrwt beam="1">  1        4 0.26140670E-01 0.12499852E+03</pdfrwt>
<pdfrwt beam="2">  1       -4 0.93392720E-02 0.12499852E+03</pdfrwt>
<totfact> 0.18943212E+03</totfact>
</mgrwt>
</event>
<event>
 5    1  0.1448308E-002  0.1250069E+03  0.7818608E-02  0.1235059E+00
          4   -1    0    0  501    0  0.00000000000E+00  0.00000000000E+00  0.20667942357E+03  0.20668332547E+03  0.12700000000E+01 0. -1.
         -4   -1    0    0    0  501 -0.00000000000E+00 -0.00000000000E+00 -0.18876702490E+02  0.18919376229E+02  0.12700000000E+01 0. -1.
         25    2    1    2    0    0  0.00000000000E+00  0.00000000000E+00  0.18780272108E+03  0.22560270169E+03  0.12500686768E+03 0.  0.
    9000005    1    3    3    0    0  0.10395804969E+02  0.68307479354E+01  0.20443154836E+03  0.20481208422E+03  0.10000000000E+01 0.  0.
    9000005    1    3    3    0    0 -0.10395804969E+02 -0.68307479354E+01 -0.16628827281E+02  0.20790617476E+02  0.10000000000E+01 0.  0.
<mgrwt>
<rscale>  0 0.12500687E+03</rscale>
<asrwt>0</asrwt>
<pdfrwt beam="1">  1        4 0.51675677E-01 0.12500687E+03</pdfrwt>
<pdfrwt beam="2">  1       -4 0.47249977E-02 0.12500687E+03</pdfrwt>
<totfact> 0.15343290E+03</totfact>
</mgrwt>
</event>
<event>
 5    1  0.1448308E-002  0.1250009E+03  0.7818608E-02  0.1235068E+00
          4   -1    0    0  501    0  0.00000000000E+00  0.00000000000E+00  0.23358074756E+03  0.23358420009E+03  0.12700000000E+01 0. -1.
         -4   -1    0    0    0  501 -0.00000000000E+00 -0.00000000000E+00 -0.16695890284E+02  0.16744122920E+02  0.12700000000E+01 0. -1.
         25    2    1    2    0    0  0.00000000000E+00  0.00000000000E+00  0.21688485728E+03  0.25032832301E+03  0.12500091193E+03 0.  0.
    9000005    1    3    3    0    0  0.45965214167E+02  0.18174765159E+02  0.18501933572E+03  0.19151051562E+03  0.10000000000E+01 0.  0.
    9000005    1    3    3    0    0 -0.45965214167E+02 -0.18174765159E+02  0.31865521552E+02  0.58817807386E+02  0.10000000000E+01 0.  0.
<mgrwt>
<rscale>  0 0.12500091E+03</rscale>
<asrwt>0</asrwt>
<pdfrwt beam="1">  1        4 0.58401647E-01 0.12500091E+03</pdfrwt>
<pdfrwt beam="2">  1       -4 0.41804332E-02 0.12500091E+03</pdfrwt>
<totfact> 0.14486768E+03</totfact>
</mgrwt>
</event>
<event>
 5    1  0.1448308E-002  0.1249921E+03  0.7818608E-02  0.1235082E+00
         -4   -1    0    0    0  501 -0.00000000000E+00  0.00000000000E+00  0.50065875419E+02  0.50081980607E+02  0.12700000000E+01 0.  1.
          4   -1    0    0  501    0  0.00000000000E+00 -0.00000000000E+00 -0.77978468459E+02  0.77988809731E+02  0.12700000000E+01 0.  1.
         25    2    1    2    0    0  0.00000000000E+00  0.00000000000E+00 -0.27912593040E+02  0.12807079034E+03  0.12499205770E+03 0.  0.
    9000005    1    3    3    0    0  0.39469776988E+02  0.48251207508E+02 -0.95240933748E+01  0.63069411572E+02  0.10000000000E+01 0.  0.
    9000005    1    3    3    0    0 -0.39469776988E+02 -0.48251207508E+02 -0.18388499665E+02  0.65001378765E+02  0.10000000000E+01 0.  0.
<mgrwt>
<rscale>  0 0.12499206E+03</rscale>
<asrwt>0</asrwt>
<pdfrwt beam="2">  1        4 0.19497923E-01 0.12499206E+03</pdfrwt>
<pdfrwt beam="1">  1       -4 0.12519775E-01 0.12499206E+03</pdfrwt>
<totfact> 0.19672330E+03</totfact>
</mgrwt>
</event>
<event>
 5    1  0.1448308E-002  0.1250037E+03  0.7818608E-02  0.1235064E+00
         -4   -1    0    0    0  501 -0.00000000000E+00  0.00000000000E+00  0.23912231631E+02  0.23945933300E+02  0.12700000000E+01 0. -1.
          4   -1    0    0  501    0  0.00000000000E+00 -0.00000000000E+00 -0.16321614632E+03  0.16322108724E+03  0.12700000000E+01 0. -1.
         25    2    1    2    0    0  0.00000000000E+00  0.00000000000E+00 -0.13930391469E+03  0.18716702054E+03  0.12500365167E+03 0.  0.
    9000005    1    3    3    0    0  0.23077877648E+02  0.37212992073E+02 -0.13641311896E+03  0.14327223821E+03  0.10000000000E+01 0.  0.
    9000005    1    3    3    0    0 -0.23077877648E+02 -0.37212992073E+02 -0.28907957226E+01  0.43894782328E+02  0.10000000000E+01 0.  0.
<mgrwt>
<rscale>  0 0.12500365E+03</rscale>
<asrwt>0</asrwt>
<pdfrwt beam="2">  1        4 0.40808864E-01 0.12500365E+03</pdfrwt>
<pdfrwt beam="1">  1       -4 0.59828887E-02 0.12500365E+03</pdfrwt>
<totfact> 0.16847703E+03</totfact>
</mgrwt>
</event>
<event>
 5    1  0.1448308E-002  0.1250019E+03  0.7818608E-02  0.1235066E+00
         -4   -1    0    0    0  501 -0.00000000000E+00  0.00000000000E+00  0.36289805931E+02  0.36312021625E+02  0.12700000000E+01 0.  1.
          4   -1    0    0  501    0  0.00000000000E+00 -0.00000000000E+00 -0.10758480142E+03  0.10759229710E+03  0.12700000000E+01 0.  1.
         25    2    1    2    0    0  0.00000000000E+00  0.00000000000E+00 -0.71294995487E+02  0.14390431873E+03  0.12500190626E+03 0.  0.
    9000005    1    3    3    0    0 -0.60031237480E+02 -0.41564313394E+01 -0.55059888865E+02  0.81569704895E+02  0.10000000000E+01 0.  0.
    9000005    1    3    3    0    0  0.60031237480E+02  0.41564313394E+01 -0.16235106622E+02  0.62334613834E+02  0.10000000000E+01 0.  0.
<mgrwt>
<rscale>  0 0.12500191E+03</rscale>
<asrwt>0</asrwt>
<pdfrwt beam="2">  1        4 0.26899914E-01 0.12500191E+03</pdfrwt>
<pdfrwt beam="1">  1       -4 0.90761656E-02 0.12500191E+03</pdfrwt>
<totfact> 0.18841516E+03</totfact>
</mgrwt>
</event>
<event>
 5    1  0.1448308E-002  0.1249976E+03  0.7818608E-02  0.1235073E+00
          4   -1    0    0  501    0  0.00000000000E+00  0.00000000000E+00  0.27294660177E+02  0.27324190275E+02  0.12700000000E+01 0. -1.
         -4   -1    0    0    0  501 -0.00000000000E+00 -0.00000000000E+00 -0.14299876510E+03  0.14300440454E+03  0.12700000000E+01 0. -1.
         25    2    1    2    0    0  0.00000000000E+00  0.00000000000E+00 -0.11570410492E+03  0.17032859482E+03  0.12499756125E+03 0.  0.
    9000005    1    3    3    0    0 -0.27433542427E+02 -0.50002028066E+02 -0.23049730435E+02  0.61523102441E+02  0.10000000000E+01 0.  0.
    9000005    1    3    3    0    0  0.27433542427E+02  0.50002028066E+02 -0.92654374484E+02  0.10880549238E+03  0.10000000000E+01 0.  0.
<mgrwt>
<rscale>  0 0.12499756E+03</rscale>
<asrwt>0</asrwt>
<pdfrwt beam="1">  1        4 0.68280616E-02 0.12499756E+03</pdfrwt>
<pdfrwt beam="2">  1       -4 0.35754085E-01 0.12499756E+03</pdfrwt>
<totfact> 0.17583232E+03</totfact>
</mgrwt>
</event>
<event>
 5    1  0.1448308E-002  0.1249988E+03  0.7818608E-02  0.1235071E+00
         -4   -1    0    0    0  501 -0.00000000000E+00  0.00000000000E+00  0.13395390293E+03  0.13395992315E+03  0.12700000000E+01 0.  1.
          4   -1    0    0  501    0  0.00000000000E+00 -0.00000000000E+00 -0.29140101950E+02  0.29167763741E+02  0.12700000000E+01 0.  1.
         25    2    1    2    0    0  0.00000000000E+00  0.00000000000E+00  0.10481380098E+03  0.16312768689E+03  0.12499883741E+03 0.  0.
    9000005    1    3    3    0    0 -0.16042155582E+02 -0.30891040934E+02 -0.15323844324E+02  0.38045070253E+02  0.10000000000E+01 0.  0.
    9000005    1    3    3    0    0  0.16042155582E+02  0.30891040934E+02  0.12013764531E+03  0.12508261664E+03  0.10000000000E+01 0.  0.
<mgrwt>
<rscale>  0 0.12499884E+03</rscale>
<asrwt>0</asrwt>
<pdfrwt beam="2">  1        4 0.72892358E-02 0.12499884E+03</pdfrwt>
<pdfrwt beam="1">  1       -4 0.33492686E-01 0.12499884E+03</pdfrwt>
<totfact> 0.17912030E+03</totfact>
</mgrwt>
</event>
<event>
 5    1  0.1448308E-002  0.1250049E+03  0.7818608E-02  0.1235062E+00
          4   -1    0    0  501    0  0.00000000000E+00  0.00000000000E+00  0.39914115241E+02  0.39934314761E+02  0.12700000000E+01 0.  1.
         -4   -1    0    0    0  501 -0.00000000000E+00 -0.00000000000E+00 -0.97824947113E+02  0.97833190573E+02  0.12700000000E+01 0.  1.
         25    2    1    2    0    0  0.00000000000E+00  0.00000000000E+00 -0.57910831872E+02  0.13776750533E+03  0.12500488422E+03 0.  0.
    9000005    1    3    3    0    0  0.30334230775E+02 -0.29698862476E+02 -0.79500319129E+02  0.90130398483E+02  0.10000000000E+01 0.  0.
    9000005    1    3    3    0    0 -0.30334230775E+02  0.29698862476E+02  0.21589487258E+02  0.47637106851E+02  0.10000000000E+01 0.  0.
<mgrwt>
<rscale>  0 0.12500488E+03</rscale>
<asrwt>0</asrwt>
<pdfrwt beam="1">  1        4 0.99820844E-02 0.12500488E+03</pdfrwt>
<pdfrwt beam="2">  1       -4 0.24459792E-01 0.12500488E+03</pdfrwt>
<totfact> 0.19152960E+03</totfact>
</mgrwt>
</event>
<event>
 5    1  0.1448308E-002  0.1250011E+03  0.7818608E-02  0.1235068E+00
         -4   -1    0    0    0  501 -0.00000000000E+00  0.00000000000E+00  0.36266226859E+03  0.36266449228E+03  0.12700000000E+01 0.  1.
          4   -1    0    0  501    0  0.00000000000E+00 -0.00000000000E+00 -0.10731528494E+02  0.10806414938E+02  0.12700000000E+01 0.  1.
         25    2    1    2    0    0  0.00000000000E+00  0.00000000000E+00  0.35193074009E+03  0.37347090721E+03  0.12500109084E+03 0.  0.
    9000005    1    3    3    0    0  0.29934557525E+02 -0.48920295296E+02  0.10180886634E+03  0.11685597243E+03  0.10000000000E+01 0.  0.
    9000005    1    3    3    0    0 -0.29934557525E+02  0.48920295296E+02  0.25012187375E+03  0.25661493479E+03  0.10000000000E+01 0.  0.
<mgrwt>
<rscale>  0 0.12500109E+03</rscale>
<asrwt>0</asrwt>
<pdfrwt beam="2">  1        4 0.26925211E-02 0.12500109E+03</pdfrwt>
<pdfrwt beam="1">  1       -4 0.90675199E-01 0.12500109E+03</pdfrwt>
<totfact> 0.11136599E+03</totfact>
</mgrwt>
</event>
<event>
 5    1  0.1448308E-002  0.1249988E+03  0.7818608E-02  0.1235071E+00
          4   -1    0    0  501    0  0.00000000000E+00  0.00000000000E+00  0.54751066557E+03  0.54751213850E+03  0.12700000000E+01 0.  1.
         -4   -1    0    0    0  501 -0.00000000000E+00 -0.00000000000E+00 -0.70764114192E+01  0.71894713696E+01  0.12700000000E+01 0.  1.
         25    2    1    2    0    0  0.00000000000E+00  0.00000000000E+00  0.54043425415E+03  0.55470160987E+03  0.12499877176E+03 0.  0.
    9000005    1    3    3    0    0  0.23319056462E+01 -0.29512880459E+02  0.25995777913E+02  0.39411018336E+02  0.10000000000E+01 0.  0.
    9000005    1    3    3    0    0 -0.23319056462E+01  0.29512880459E+02  0.51443847623E+03  0.51529059154E+03  0.10000000000E+01 0.  0.
<mgrwt>
<rscale>  0 0.12499877E+03</rscale>
<asrwt>0</asrwt>
<pdfrwt beam="1">  1        4 0.13689198E+00 0.12499877E+03</pdfrwt>
<pdfrwt beam="2">  1       -4 0.17834195E-02 0.12499877E+03</pdfrwt>
<totfact> 0.79516323E+02</totfact>
</mgrwt>
</event>
<event>
 5    1  0.1448308E-002  0.1250007E+03  0.7818608E-02  0.1235068E+00
          4   -1    0    0  501    0  0.00000000000E+00  0.00000000000E+00  0.38811832041E+02  0.38832604940E+02  0.12700000000E+01 0.  1.
         -4   -1    0    0    0  501 -0.00000000000E+00 -0.00000000000E+00 -0.10059527877E+03  0.10060329523E+03  0.12700000000E+01 0.  1.
         25    2    1    2    0    0  0.00000000000E+00  0.00000000000E+00 -0.61783446730E+02  0.13943590017E+03  0.12500070386E+03 0.  0.
    9000005    1    3    3    0    0  0.95692388834E+01  0.69116190629E+01  0.37562398630E+02  0.39386223502E+02  0.10000000000E+01 0.  0.
    9000005    1    3    3    0    0 -0.95692388834E+01 -0.69116190629E+01 -0.99345845361E+02  0.10004967667E+03  0.10000000000E+01 0.  0.
<mgrwt>
<rscale>  0 0.12500070E+03</rscale>
<asrwt>0</asrwt>
<pdfrwt beam="1">  1        4 0.97065569E-02 0.12500070E+03</pdfrwt>
<pdfrwt beam="2">  1       -4 0.25152418E-01 0.12500070E+03</pdfrwt>
<totfact> 0.19068925E+03</totfact>
</mgrwt>
</event>
<event>
 5    1  0.1448308E-002  0.1249985E+03  0.7818608E-02  0.1235072E+00
          4   -1    0    0  501    0  0.00000000000E+00  0.00000000000E+00  0.40961590044E+02  0.40981273271E+02  0.12700000000E+01 0. -1.
         -4   -1    0    0    0  501 -0.00000000000E+00 -0.00000000000E+00 -0.95314544352E+02  0.95323004910E+02  0.12700000000E+01 0. -1.
         25    2    1    2    0    0  0.00000000000E+00  0.00000000000E+00 -0.54352954309E+02  0.13630427818E+03  0.12499845042E+03 0.  0.
    9000005    1    3    3    0    0  0.46052958038E+02 -0.48841249982E+01 -0.72928830810E+02  0.86396435021E+02  0.10000000000E+01 0.  0.
    9000005    1    3    3    0    0 -0.46052958038E+02  0.48841249982E+01  0.18575876501E+02  0.49907843160E+02  0.10000000000E+01 0.  0.
<mgrwt>
<rscale>  0 0.12499845E+03</rscale>
<asrwt>0</asrwt>
<pdfrwt beam="1">  1        4 0.10243916E-01 0.12499845E+03</pdfrwt>
<pdfrwt beam="2">  1       -4 0.23832154E-01 0.12499845E+03</pdfrwt>
<totfact> 0.19231732E+03</totfact>
</mgrwt>
</event>
<event>
 5    1  0.1448308E-002  0.1249983E+03  0.7818608E-02  0.1235072E+00
         -4   -1    0    0    0  501 -0.00000000000E+00  0.00000000000E+00  0.46794497933E+03  0.46794670271E+03  0.12700000000E+01 0.  1.
          4   -1    0    0  501    0  0.00000000000E+00 -0.00000000000E+00 -0.82973832082E+01  0.83940138255E+01  0.12700000000E+01 0.  1.
         25    2    1    2    0    0  0.00000000000E+00  0.00000000000E+00  0.45964759612E+03  0.47634071654E+03  0.12499826244E+03 0.  0.
    9000005    1    3    3    0    0 -0.17591741401E+02  0.38575189839E+01  0.45785971262E+03  0.45821486909E+03  0.10000000000E+01 0.  0.
    9000005    1    3    3    0    0  0.17591741401E+02 -0.38575189839E+01  0.17878835036E+01  0.18125847447E+02  0.10000000000E+01 0.  0.
<mgrwt>
<rscale>  0 0.12499826E+03</rscale>
<asrwt>0</asrwt>
<pdfrwt beam="2">  1        4 0.20866401E-02 0.12499826E+03</pdfrwt>
<pdfrwt beam="1">  1       -4 0.11699853E+00 0.12499826E+03</pdfrwt>
<totfact> 0.91475914E+02</totfact>
</mgrwt>
</event>
<event>
 5    1  0.1448308E-002  0.1250035E+03  0.7818608E-02  0.1235064E+00
          4   -1    0    0  501    0  0.00000000000E+00  0.00000000000E+00  0.72804210706E+02  0.72815286833E+02  0.12700000000E+01 0. -1.
         -4   -1    0    0    0  501 -0.00000000000E+00 -0.00000000000E+00 -0.53634464835E+02  0.53649498769E+02  0.12700000000E+01 0. -1.
         25    2    1    2    0    0  0.00000000000E+00  0.00000000000E+00  0.19169745871E+02  0.12646478560E+03  0.12500345131E+03 0.  0.
    9000005    1    3    3    0    0 -0.57493693707E+02  0.14489935502E+02  0.29563712459E+02  0.66260819051E+02  0.10000000000E+01 0.  0.
    9000005    1    3    3    0    0  0.57493693707E+02 -0.14489935502E+02 -0.10393966588E+02  0.60203966550E+02  0.10000000000E+01 0.  0.
<mgrwt>
<rscale>  0 0.12500345E+03</rscale>
<asrwt>0</asrwt>
<pdfrwt beam="1">  1        4 0.18204316E-01 0.12500345E+03</pdfrwt>
<pdfrwt beam="2">  1       -4 0.13411880E-01 0.12500345E+03</pdfrwt>
<totfact> 0.19754230E+03</totfact>
</mgrwt>
</event>
<event>
 5    1  0.1448308E-002  0.1249977E+03  0.7818608E-02  0.1235073E+00
         -4   -1    0    0    0  501 -0.00000000000E+00  0.00000000000E+00  0.11601454762E+03  0.11602149869E+03  0.12700000000E+01 0.  1.
          4   -1    0    0  501    0  0.00000000000E+00 -0.00000000000E+00 -0.33649167939E+02  0.33673125827E+02  0.12700000000E+01 0.  1.
         25    2    1    2    0    0  0.00000000000E+00  0.00000000000E+00  0.82365379679E+02  0.14969462452E+03  0.12499769934E+03 0.  0.
    9000005    1    3    3    0    0  0.61470954485E+02  0.54244357432E+01  0.29387693729E+02  0.68357437716E+02  0.10000000000E+01 0.  0.
    9000005    1    3    3    0    0 -0.61470954485E+02 -0.54244357432E+01  0.52977685951E+02  0.81337186804E+02  0.10000000000E+01 0.  0.
<mgrwt>
<rscale>  0 0.12499770E+03</rscale>
<asrwt>0</asrwt>
<pdfrwt beam="2">  1        4 0.84161557E-02 0.12499770E+03</pdfrwt>
<pdfrwt beam="1">  1       -4 0.29007500E-01 0.12499770E+03</pdfrwt>
<totfact> 0.18554800E+03</totfact>
</mgrwt>
</event>
<event>
 5    1  0.1448308E-002  0.1249995E+03  0.7818608E-02  0.1235070E+00
          4   -1    0    0  501    0  0.00000000000E+00  0.00000000000E+00  0.15342429787E+02  0.15394903435E+02  0.12700000000E+01 0. -1.
         -4   -1    0    0    0  501 -0.00000000000E+00 -0.00000000000E+00 -0.25411382123E+03  0.25411699479E+03  0.12700000000E+01 0. -1.
         25    2    1    2    0    0  0.00000000000E+00  0.00000000000E+00 -0.23877139144E+03  0.26951189822E+03  0.12499954365E+03 0.  0.
    9000005    1    3    3    0    0  0.15518015175E+02  0.60109464154E+02 -0.13482330359E+03  0.14843274459E+03  0.10000000000E+01 0.  0.
    9000005    1    3    3    0    0 -0.15518015175E+02 -0.60109464154E+02 -0.10394808785E+03  0.12107915363E+03  0.10000000000E+01 0.  0.
<mgrwt>
<rscale>  0 0.12499954E+03</rscale>
<asrwt>0</asrwt>
<pdfrwt beam="1">  1        4 0.38425642E-02 0.12499954E+03</pdfrwt>
<pdfrwt beam="2">  1       -4 0.63535398E-01 0.12499954E+03</pdfrwt>
<totfact> 0.13870872E+03</totfact>
</mgrwt>
</event>
<event>
 5    1  0.1448308E-002  0.1250003E+03  0.7818608E-02  0.1235069E+00
         -4   -1    0    0    0  501 -0.00000000000E+00  0.00000000000E+00  0.13237574351E+03  0.13238183550E+03  0.12700000000E+01 0.  1.
          4   -1    0    0  501    0  0.00000000000E+00 -0.00000000000E+00 -0.29488525274E+02  0.29515860530E+02  0.12700000000E+01 0.  1.
         25    2    1    2    0    0  0.00000000000E+00  0.00000000000E+00  0.10288721824E+03  0.16189769603E+03  0.12500033721E+03 0.  0.
    9000005    1    3    3    0    0 -0.38541338556E+02  0.10083113295E+02 -0.10915780410E+02  0.41318981272E+02  0.10000000000E+01 0.  0.
    9000005    1    3    3    0    0  0.38541338556E+02 -0.10083113295E+02  0.11380299865E+03  0.12057871476E+03  0.10000000000E+01 0.  0.
<mgrwt>
<rscale>  0 0.12500034E+03</rscale>
<asrwt>0</asrwt>
<pdfrwt beam="2">  1        4 0.73763098E-02 0.12500034E+03</pdfrwt>
<pdfrwt beam="1">  1       -4 0.33098114E-01 0.12500034E+03</pdfrwt>
<totfact> 0.17968669E+03</totfact>
</mgrwt>
</event>
<event>
 5    1  0.1448308E-002  0.1249960E+03  0.7818608E-02  0.1235076E+00
          4   -1    0    0  501    0  0.00000000000E+00  0.00000000000E+00  0.36703918128E+02  0.36725883324E+02  0.12700000000E+01 0.  1.
         -4   -1    0    0    0  501 -0.00000000000E+00 -0.00000000000E+00 -0.10636148956E+03  0.10636907146E+03  0.12700000000E+01 0.  1.
         25    2    1    2    0    0  0.00000000000E+00  0.00000000000E+00 -0.69657571437E+02  0.14309495478E+03  0.12499595524E+03 0.  0.
    9000005    1    3    3    0    0 -0.55358401385E+02  0.28748511875E+02 -0.30550297869E+02  0.69464740976E+02  0.10000000000E+01 0.  0.
    9000005    1    3    3    0    0  0.55358401385E+02 -0.28748511875E+02 -0.39107273567E+02  0.73630213804E+02  0.10000000000E+01 0.  0.
<mgrwt>
<rscale>  0 0.12499596E+03</rscale>
<asrwt>0</asrwt>
<pdfrwt beam="1">  1        4 0.91796731E-02 0.12499596E+03</pdfrwt>
<pdfrwt beam="2">  1       -4 0.26594065E-01 0.12499596E+03</pdfrwt>
<totfact> 0.18884893E+03</totfact>
</mgrwt>
</event>
<event>
 5    1  0.1448308E-002  0.1250008E+03  0.7818608E-02  0.1235068E+00
          4   -1    0    0  501    0  0.00000000000E+00  0.00000000000E+00  0.84537817043E+02  0.84547356022E+02  0.12700000000E+01 0.  1.
         -4   -1    0    0    0  501 -0.00000000000E+00 -0.00000000000E+00 -0.46186847493E+02  0.46204304793E+02  0.12700000000E+01 0.  1.
         25    2    1    2    0    0  0.00000000000E+00  0.00000000000E+00  0.38350969549E+02  0.13075166082E+03  0.12500079976E+03 0.  0.
    9000005    1    3    3    0    0  0.45326247676E+02 -0.40856013974E+02  0.33272044125E+02  0.69510513784E+02  0.10000000000E+01 0.  0.
    9000005    1    3    3    0    0 -0.45326247676E+02  0.40856013974E+02  0.50789254249E+01  0.61241147031E+02  0.10000000000E+01 0.  0.
<mgrwt>
<rscale>  0 0.12500080E+03</rscale>
<asrwt>0</asrwt>
<pdfrwt beam="1">  1        4 0.21137829E-01 0.12500080E+03</pdfrwt>
<pdfrwt beam="2">  1       -4 0.11550086E-01 0.12500080E+03</pdfrwt>
<totfact> 0.19523695E+03</totfact>
</mgrwt>
</event>
<event>
 5    1  0.1448308E-002  0.1250021E+03  0.7818608E-02  0.1235066E+00
         -4   -1    0    0    0  501 -0.00000000000E+00  0.00000000000E+00  0.69493915708E+02  0.69505519352E+02  0.12700000000E+01 0. -1.
          4   -1    0    0  501    0  0.00000000000E+00 -0.00000000000E+00 -0.56188333920E+02  0.56202684710E+02  0.12700000000E+01 0. -1.
         25    2    1    2    0    0  0.00000000000E+00  0.00000000000E+00  0.13305581788E+02  0.12570820406E+03  0.12500205623E+03 0.  0.
    9000005    1    3    3    0    0 -0.31887013299E+02  0.45377868352E+02 -0.22310006984E+02  0.59788535397E+02  0.10000000000E+01 0.  0.
    9000005    1    3    3    0    0  0.31887013299E+02 -0.45377868352E+02  0.35615588772E+02  0.65919668665E+02  0.10000000000E+01 0.  0.
<mgrwt>
<rscale>  0 0.12500206E+03</rscale>
<asrwt>0</asrwt>
<pdfrwt beam="2">  1        4 0.14050328E-01 0.12500206E+03</pdfrwt>
<pdfrwt beam="1">  1       -4 0.17376723E-01 0.12500206E+03</pdfrwt>
<totfact> 0.19795744E+03</totfact>
</mgrwt>
</event>
<event>
 5    1  0.1448308E-002  0.1249987E+03  0.7818608E-02  0.1235071E+00
          4   -1    0    0  501    0  0.00000000000E+00  0.00000000000E+00  0.85829122247E+02  0.85838517728E+02  0.12700000000E+01 0. -1.
         -4   -1    0    0    0  501 -0.00000000000E+00 -0.00000000000E+00 -0.45490266520E+02  0.45507991036E+02  0.12700000000E+01 0. -1.
         25    2    1    2    0    0  0.00000000000E+00  0.00000000000E+00  0.40338855727E+02  0.13134650876E+03  0.12499872833E+03 0.  0.
    9000005    1    3    3    0    0 -0.51294381193E+02 -0.10236317684E+02 -0.15761731453E+02  0.54638154436E+02  0.10000000000E+01 0.  0.
    9000005    1    3    3    0    0  0.51294381193E+02  0.10236317684E+02  0.56100587180E+02  0.76708354327E+02  0.10000000000E+01 0.  0.
<mgrwt>
<rscale>  0 0.12499873E+03</rscale>
<asrwt>0</asrwt>
<pdfrwt beam="1">  1        4 0.21460670E-01 0.12499873E+03</pdfrwt>
<pdfrwt beam="2">  1       -4 0.11375957E-01 0.12499873E+03</pdfrwt>
<totfact> 0.19492844E+03</totfact>
</mgrwt>
</event>
<event>
 5    1  0.1448308E-002  0.1250004E+03  0.7818608E-02  0.1235069E+00
         -4   -1    0    0    0  501 -0.00000000000E+00  0.00000000000E+00  0.10257045673E+03  0.10257831883E+03  0.12700000000E+01 0. -1.
          4   -1    0    0  501    0  0.00000000000E+00 -0.00000000000E+00 -0.38063895050E+02  0.38085075901E+02  0.12700000000E+01 0. -1.
         25    2    1    2    0    0  0.00000000000E+00  0.00000000000E+00  0.64506561684E+02  0.14066339473E+03  0.12500037647E+03 0.  0.
    9000005    1    3    3    0    0 -0.40263456285E+02  0.16769511447E+02 -0.18108445686E+02  0.47236407900E+02  0.10000000000E+01 0.  0.
    9000005    1    3    3    0    0  0.40263456285E+02 -0.16769511447E+02  0.82615007370E+02  0.93426986834E+02  0.10000000000E+01 0.  0.
<mgrwt>
<rscale>  0 0.12500038E+03</rscale>
<asrwt>0</asrwt>
<pdfrwt beam="2">  1        4 0.95196042E-02 0.12500038E+03</pdfrwt>
<pdfrwt beam="1">  1       -4 0.25646244E-01 0.12500038E+03</pdfrwt>
<totfact> 0.19006289E+03</totfact>
</mgrwt>
</event>
<event>
 5    1  0.1448308E-002  0.1250173E+03  0.7818608E-02  0.1235042E+00
         -4   -1    0    0    0  501 -0.00000000000E+00  0.00000000000E+00  0.35866383574E+02  0.35888861373E+02  0.12700000000E+01 0. -1.
          4   -1    0    0  501    0  0.00000000000E+00 -0.00000000000E+00 -0.10888099953E+03  0.10888840599E+03  0.12700000000E+01 0. -1.
         25    2    1    2    0    0  0.00000000000E+00  0.00000000000E+00 -0.73014615954E+02  0.14477726736E+03  0.12501729081E+03 0.  0.
    9000005    1    3    3    0    0  0.20685878949E+02 -0.39023550101E+02 -0.87718978223E+02  0.98215895815E+02  0.10000000000E+01 0.  0.
    9000005    1    3    3    0    0 -0.20685878949E+02  0.39023550101E+02  0.14704362269E+02  0.46561371544E+02  0.10000000000E+01 0.  0.
<mgrwt>
<rscale>  0 0.12501729E+03</rscale>
<asrwt>0</asrwt>
<pdfrwt beam="2">  1        4 0.27223985E-01 0.12501729E+03</pdfrwt>
<pdfrwt beam="1">  1       -4 0.89703317E-02 0.12501729E+03</pdfrwt>
<totfact> 0.18790967E+03</totfact>
</mgrwt>
</event>
<event>
 5    1  0.1448308E-002  0.1249992E+03  0.7818608E-02  0.1235071E+00
          4   -1    0    0  501    0  0.00000000000E+00  0.00000000000E+00  0.12266351832E+02  0.12331921475E+02  0.12700000000E+01 0. -1.
         -4   -1    0    0    0  501 -0.00000000000E+00 -0.00000000000E+00 -0.31753264488E+03  0.31753518461E+03  0.12700000000E+01 0. -1.
         25    2    1    2    0    0  0.00000000000E+00  0.00000000000E+00 -0.30526629305E+03  0.32986710609E+03  0.12499919202E+03 0.  0.
    9000005    1    3    3    0    0 -0.22045959572E+02 -0.33793363646E+02 -0.27856362163E+03  0.28147239128E+03  0.10000000000E+01 0.  0.
    9000005    1    3    3    0    0  0.22045959572E+02  0.33793363646E+02 -0.26702671425E+02  0.48394714807E+02  0.10000000000E+01 0.  0.
<mgrwt>
<rscale>  0 0.12499919E+03</rscale>
<asrwt>0</asrwt>
<pdfrwt beam="1">  1        4 0.30751027E-02 0.12499919E+03</pdfrwt>
<pdfrwt beam="2">  1       -4 0.79391648E-01 0.12499919E+03</pdfrwt>
<totfact> 0.12173645E+03</totfact>
</mgrwt>
</event>
<event>
 5    1  0.1448308E-002  0.1250021E+03  0.7818608E-02  0.1235066E+00
          4   -1    0    0  501    0  0.00000000000E+00  0.00000000000E+00  0.75117436811E+01  0.76183458264E+01  0.12700000000E+01 0.  1.
         -4   -1    0    0    0  501 -0.00000000000E+00 -0.00000000000E+00 -0.51626495889E+03  0.51626652097E+03  0.12700000000E+01 0.  1.
         25    2    1    2    0    0  0.00000000000E+00  0.00000000000E+00 -0.50875321521E+03  0.52388486680E+03  0.12500207869E+03 0.  0.
    9000005    1    3    3    0    0  0.52494527134E+02  0.19807454214E+02 -0.36971462083E+03  0.37394907605E+03  0.10000000000E+01 0.  0.
    9000005    1    3    3    0    0 -0.52494527134E+02 -0.19807454214E+02 -0.13903859438E+03  0.14993579075E+03  0.10000000000E+01 0.  0.
<mgrwt>
<rscale>  0 0.12500208E+03</rscale>
<asrwt>0</asrwt>
<pdfrwt beam="1">  1        4 0.18914582E-02 0.12500208E+03</pdfrwt>
<pdfrwt beam="2">  1       -4 0.12907964E+00 0.12500208E+03</pdfrwt>
<totfact> 0.83925121E+02</totfact>
</mgrwt>
</event>
<event>
 5    1  0.1448308E-002  0.1250001E+03  0.7818608E-02  0.1235069E+00
         -4   -1    0    0    0  501 -0.00000000000E+00  0.00000000000E+00  0.22168154727E+02  0.22204503687E+02  0.12700000000E+01 0.  1.
          4   -1    0    0  501    0  0.00000000000E+00 -0.00000000000E+00 -0.17602731120E+03  0.17603189253E+03  0.12700000000E+01 0.  1.
         25    2    1    2    0    0  0.00000000000E+00  0.00000000000E+00 -0.15385915647E+03  0.19823639622E+03  0.12500011502E+03 0.  0.
    9000005    1    3    3    0    0  0.14733239914E+02 -0.19926306904E+02 -0.16790950316E+03  0.16973133864E+03  0.10000000000E+01 0.  0.
    9000005    1    3    3    0    0 -0.14733239914E+02  0.19926306904E+02  0.14050346691E+02  0.28505057575E+02  0.10000000000E+01 0.  0.
<mgrwt>
<rscale>  0 0.12500012E+03</rscale>
<asrwt>0</asrwt>
<pdfrwt beam="2">  1        4 0.44011940E-01 0.12500012E+03</pdfrwt>
<pdfrwt beam="1">  1       -4 0.55471555E-02 0.12500012E+03</pdfrwt>
<totfact> 0.16392860E+03</totfact>
</mgrwt>
</event>
<event>
 5    1  0.1448308E-002  0.1249991E+03  0.7818608E-02  0.1235071E+00
         -4   -1    0    0    0  501 -0.00000000000E+00  0.00000000000E+00  0.14413605611E+02  0.14469448044E+02  0.12700000000E+01 0. -1.
          4   -1    0    0  501    0  0.00000000000E+00 -0.00000000000E+00 -0.27042592402E+03  0.27042890615E+03  0.12700000000E+01 0. -1.
         25    2    1    2    0    0  0.00000000000E+00  0.00000000000E+00 -0.25601231841E+03  0.28489835420E+03  0.12499906018E+03 0.  0.
    9000005    1    3    3    0    0  0.56624252769E+02 -0.65765604135E+01 -0.69646336521E+02  0.90006496096E+02  0.10000000000E+01 0.  0.
    9000005    1    3    3    0    0 -0.56624252769E+02  0.65765604135E+01 -0.18636598189E+03  0.19489185810E+03  0.10000000000E+01 0.  0.
<mgrwt>
<rscale>  0 0.12499906E+03</rscale>
<asrwt>0</asrwt>
<pdfrwt beam="2">  1        4 0.67613818E-01 0.12499906E+03</pdfrwt>
<pdfrwt beam="1">  1       -4 0.36107554E-02 0.12499906E+03</pdfrwt>
<totfact> 0.13405409E+03</totfact>
</mgrwt>
</event>
<event>
 5    1  0.1448308E-002  0.1250013E+03  0.7818608E-02  0.1235067E+00
          4   -1    0    0  501    0  0.00000000000E+00  0.00000000000E+00  0.77558096276E+02  0.77568493591E+02  0.12700000000E+01 0. -1.
         -4   -1    0    0    0  501 -0.00000000000E+00 -0.00000000000E+00 -0.50344704473E+02  0.50360720492E+02  0.12700000000E+01 0. -1.
         25    2    1    2    0    0  0.00000000000E+00  0.00000000000E+00  0.27213391803E+02  0.12792921408E+03  0.12500126048E+03 0.  0.
    9000005    1    3    3    0    0 -0.59965141350E+01 -0.31732722221E+02  0.68361329334E+02  0.75612136523E+02  0.10000000000E+01 0.  0.
    9000005    1    3    3    0    0  0.59965141350E+01  0.31732722221E+02 -0.41147937531E+02  0.52317077560E+02  0.10000000000E+01 0.  0.
<mgrwt>
<rscale>  0 0.12500126E+03</rscale>
<asrwt>0</asrwt>
<pdfrwt beam="1">  1        4 0.19392826E-01 0.12500126E+03</pdfrwt>
<pdfrwt beam="2">  1       -4 0.12589478E-01 0.12500126E+03</pdfrwt>
<totfact> 0.19675807E+03</totfact>
</mgrwt>
</event>
<event>
 5    1  0.1448308E-002  0.1250010E+03  0.7818608E-02  0.1235068E+00
         -4   -1    0    0    0  501 -0.00000000000E+00  0.00000000000E+00  0.26285686245E+01  0.29192932388E+01  0.12700000000E+01 0. -1.
          4   -1    0    0  501    0  0.00000000000E+00 -0.00000000000E+00 -0.14079318881E+04  0.14079324609E+04  0.12700000000E+01 0. -1.
         25    2    1    2    0    0  0.00000000000E+00  0.00000000000E+00 -0.14053033195E+04  0.14108517541E+04  0.12500100960E+03 0.  0.
    9000005    1    3    3    0    0  0.38003808434E+01  0.61202496087E+02 -0.56668310016E+03  0.56999203892E+03  0.10000000000E+01 0.  0.
    9000005    1    3    3    0    0 -0.38003808434E+01 -0.61202496087E+02 -0.83862021932E+03  0.84085971521E+03  0.10000000000E+01 0.  0.
<mgrwt>
<rscale>  0 0.12500101E+03</rscale>
<asrwt>0</asrwt>
<pdfrwt beam="2">  1        4 0.35201693E+00 0.12500101E+03</pdfrwt>
<pdfrwt beam="1">  1       -4 0.69355916E-03 0.12500101E+03</pdfrwt>
<totfact> 0.15668093E+02</totfact>
</mgrwt>
</event>
<event>
 5    1  0.1448308E-002  0.1250019E+03  0.7818608E-02  0.1235066E+00
          4   -1    0    0  501    0  0.00000000000E+00  0.00000000000E+00  0.34549407928E+02  0.34572741983E+02  0.12700000000E+01 0. -1.
         -4   -1    0    0    0  501 -0.00000000000E+00 -0.00000000000E+00 -0.11300117415E+03  0.11300831057E+03  0.12700000000E+01 0. -1.
         25    2    1    2    0    0  0.00000000000E+00  0.00000000000E+00 -0.78451766220E+02  0.14758105256E+03  0.12500194979E+03 0.  0.
    9000005    1    3    3    0    0  0.51308288953E+02 -0.86591784470E+01  0.16356851234E+01  0.52069159322E+02  0.10000000000E+01 0.  0.
    9000005    1    3    3    0    0 -0.51308288953E+02  0.86591784470E+01 -0.80087451343E+02  0.95511893235E+02  0.10000000000E+01 0.  0.
<mgrwt>
<rscale>  0 0.12500195E+03</rscale>
<asrwt>0</asrwt>
<pdfrwt beam="1">  1        4 0.86411611E-02 0.12500195E+03</pdfrwt>
<pdfrwt beam="2">  1       -4 0.28254101E-01 0.12500195E+03</pdfrwt>
<totfact> 0.18657517E+03</totfact>
</mgrwt>
</event>
<event>
 5    1  0.1448308E-002  0.1250029E+03  0.7818608E-02  0.1235065E+00
          4   -1    0    0  501    0  0.00000000000E+00  0.00000000000E+00  0.83054944513E+01  0.84020317829E+01  0.12700000000E+01 0.  1.
         -4   -1    0    0    0  501 -0.00000000000E+00 -0.00000000000E+00 -0.46752798743E+03  0.46752971235E+03  0.12700000000E+01 0.  1.
         25    2    1    2    0    0  0.00000000000E+00  0.00000000000E+00 -0.45922249298E+03  0.47593174413E+03  0.12500290803E+03 0.  0.
    9000005    1    3    3    0    0  0.61717910279E+02  0.41295917631E+00 -0.26694687971E+03  0.27399070709E+03  0.10000000000E+01 0.  0.
    9000005    1    3    3    0    0 -0.61717910279E+02 -0.41295917631E+00 -0.19227561327E+03  0.20194103704E+03  0.10000000000E+01 0.  0.
<mgrwt>
<rscale>  0 0.12500291E+03</rscale>
<asrwt>0</asrwt>
<pdfrwt beam="1">  1        4 0.20886580E-02 0.12500291E+03</pdfrwt>
<pdfrwt beam="2">  1       -4 0.11689419E+00 0.12500291E+03</pdfrwt>
<totfact> 0.91534201E+02</totfact>
</mgrwt>
</event>
<event>
 5    1  0.1448308E-002  0.1250006E+03  0.7818608E-02  0.1235068E+00
          4   -1    0    0  501    0  0.00000000000E+00  0.00000000000E+00  0.11269450325E+03  0.11270165909E+03  0.12700000000E+01 0. -1.
         -4   -1    0    0    0  501 -0.00000000000E+00 -0.00000000000E+00 -0.34642754410E+02  0.34666025632E+02  0.12700000000E+01 0. -1.
         25    2    1    2    0    0  0.00000000000E+00  0.00000000000E+00  0.78051748837E+02  0.14736768472E+03  0.12500063602E+03 0.  0.
    9000005    1    3    3    0    0 -0.59736260835E+02  0.17519367200E+02  0.32574967699E+02  0.70267187266E+02  0.10000000000E+01 0.  0.
    9000005    1    3    3    0    0  0.59736260835E+02 -0.17519367200E+02  0.45476781137E+02  0.77100497458E+02  0.10000000000E+01 0.  0.
<mgrwt>
<rscale>  0 0.12500064E+03</rscale>
<asrwt>0</asrwt>
<pdfrwt beam="1">  1        4 0.28177429E-01 0.12500064E+03</pdfrwt>
<pdfrwt beam="2">  1       -4 0.86644921E-02 0.12500064E+03</pdfrwt>
<totfact> 0.18668697E+03</totfact>
</mgrwt>
</event>
<event>
 5    1  0.1448308E-002  0.1249998E+03  0.7818608E-02  0.1235070E+00
         -4   -1    0    0    0  501 -0.00000000000E+00  0.00000000000E+00  0.34799513513E+02  0.34822679976E+02  0.12700000000E+01 0.  1.
          4   -1    0    0  501    0  0.00000000000E+00 -0.00000000000E+00 -0.11218561326E+03  0.11219280156E+03  0.12700000000E+01 0.  1.
         25    2    1    2    0    0  0.00000000000E+00  0.00000000000E+00 -0.77386099749E+02  0.14701548154E+03  0.12499977351E+03 0.  0.
    9000005    1    3    3    0    0  0.47547077048E+02  0.36399630150E+02 -0.17667738284E+02  0.62440424302E+02  0.10000000000E+01 0.  0.
    9000005    1    3    3    0    0 -0.47547077048E+02 -0.36399630150E+02 -0.59718361465E+02  0.84575057239E+02  0.10000000000E+01 0.  0.
<mgrwt>
<rscale>  0 0.12499977E+03</rscale>
<asrwt>0</asrwt>
<pdfrwt beam="2">  1        4 0.28050197E-01 0.12499977E+03</pdfrwt>
<pdfrwt beam="1">  1       -4 0.87036730E-02 0.12499977E+03</pdfrwt>
<totfact> 0.18686609E+03</totfact>
</mgrwt>
</event>
<event>
 5    1  0.1448308E-002  0.1250003E+03  0.7818608E-02  0.1235069E+00
         -4   -1    0    0    0  501 -0.00000000000E+00  0.00000000000E+00  0.19695309701E+03  0.19695719159E+03  0.12700000000E+01 0.  1.
          4   -1    0    0  501    0  0.00000000000E+00 -0.00000000000E+00 -0.19808864326E+02  0.19849534148E+02  0.12700000000E+01 0.  1.
         25    2    1    2    0    0  0.00000000000E+00  0.00000000000E+00  0.17714423268E+03  0.21680672574E+03  0.12500030862E+03 0.  0.
    9000005    1    3    3    0    0  0.41660934529E+02 -0.38680397606E+02  0.43561140622E+02  0.71626668197E+02  0.10000000000E+01 0.  0.
    9000005    1    3    3    0    0 -0.41660934529E+02  0.38680397606E+02  0.13358309206E+03  0.14518005754E+03  0.10000000000E+01 0.  0.
<mgrwt>
<rscale>  0 0.12500031E+03</rscale>
<asrwt>0</asrwt>
<pdfrwt beam="2">  1        4 0.49578116E-02 0.12500031E+03</pdfrwt>
<pdfrwt beam="1">  1       -4 0.49243870E-01 0.12500031E+03</pdfrwt>
<totfact> 0.15670370E+03</totfact>
</mgrwt>
</event>
<event>
 5    1  0.1448308E-002  0.1249932E+03  0.7818608E-02  0.1235080E+00
          4   -1    0    0  501    0  0.00000000000E+00  0.00000000000E+00  0.81470363360E+02  0.81480261450E+02  0.12700000000E+01 0.  1.
         -4   -1    0    0    0  501 -0.00000000000E+00 -0.00000000000E+00 -0.47920477026E+02  0.47937302995E+02  0.12700000000E+01 0.  1.
         25    2    1    2    0    0  0.00000000000E+00  0.00000000000E+00  0.33549886333E+02  0.12941756444E+03  0.12499324427E+03 0.  0.
    9000005    1    3    3    0    0 -0.60393779064E+02  0.14202870758E+02  0.24502198762E+02  0.66711976673E+02  0.10000000000E+01 0.  0.
    9000005    1    3    3    0    0  0.60393779064E+02 -0.14202870758E+02  0.90476875712E+01  0.62705587772E+02  0.10000000000E+01 0.  0.
<mgrwt>
<rscale>  0 0.12499324E+03</rscale>
<asrwt>0</asrwt>
<pdfrwt beam="1">  1        4 0.20370931E-01 0.12499324E+03</pdfrwt>
<pdfrwt beam="2">  1       -4 0.11983460E-01 0.12499324E+03</pdfrwt>
<totfact> 0.19598836E+03</totfact>
</mgrwt>
</event>
<event>
 5    1  0.1448308E-002  0.1249716E+03  0.7818608E-02  0.1235114E+00
         -4   -1    0    0    0  501 -0.00000000000E+00  0.00000000000E+00  0.93847317365E+02  0.93855910185E+02  0.12700000000E+01 0. -1.
          4   -1    0    0  501    0  0.00000000000E+00 -0.00000000000E+00 -0.41584346976E+02  0.41603735571E+02  0.12700000000E+01 0. -1.
         25    2    1    2    0    0  0.00000000000E+00  0.00000000000E+00  0.52262970389E+02  0.13545964576E+03  0.12497158699E+03 0.  0.
    9000005    1    3    3    0    0 -0.47764197605E+02  0.27034806390E+02  0.58489372824E+02  0.80214126329E+02  0.10000000000E+01 0.  0.
    9000005    1    3    3    0    0  0.47764197605E+02 -0.27034806390E+02 -0.62264024348E+01  0.55245519427E+02  0.10000000000E+01 0.  0.
<mgrwt>
<rscale>  0 0.12497159E+03</rscale>
<asrwt>0</asrwt>
<pdfrwt beam="2">  1        4 0.10399585E-01 0.12497159E+03</pdfrwt>
<pdfrwt beam="1">  1       -4 0.23465327E-01 0.12497159E+03</pdfrwt>
<totfact> 0.19287872E+03</totfact>
</mgrwt>
</event>
<event>
 5    1  0.1448308E-002  0.1250114E+03  0.7818608E-02  0.1235052E+00
          4   -1    0    0  501    0  0.00000000000E+00  0.00000000000E+00  0.10998844753E+02  0.11071923315E+02  0.12700000000E+01 0. -1.
         -4   -1    0    0    0  501 -0.00000000000E+00 -0.00000000000E+00 -0.35396518364E+03  0.35396746197E+03  0.12700000000E+01 0. -1.
         25    2    1    2    0    0  0.00000000000E+00  0.00000000000E+00 -0.34296633889E+03  0.36503938528E+03  0.12501137226E+03 0.  0.
    9000005    1    3    3    0    0  0.35416803527E+02  0.27932101925E+02 -0.29780386310E+03  0.30120208028E+03  0.10000000000E+01 0.  0.
    9000005    1    3    3    0    0 -0.35416803527E+02 -0.27932101925E+02 -0.45162475791E+02  0.63837305000E+02  0.10000000000E+01 0.  0.
<mgrwt>
<rscale>  0 0.12501137E+03</rscale>
<asrwt>0</asrwt>
<pdfrwt beam="1">  1        4 0.27591320E-02 0.12501137E+03</pdfrwt>
<pdfrwt beam="2">  1       -4 0.88500678E-01 0.12501137E+03</pdfrwt>
<totfact> 0.11323732E+03</totfact>
</mgrwt>
</event>
<event>
 5    1  0.1448308E-002  0.1249865E+03  0.7818608E-02  0.1235090E+00
          4   -1    0    0  501    0  0.00000000000E+00  0.00000000000E+00  0.75670126606E+02  0.75680783298E+02  0.12700000000E+01 0.  1.
         -4   -1    0    0    0  501 -0.00000000000E+00 -0.00000000000E+00 -0.51588843488E+02  0.51604473376E+02  0.12700000000E+01 0.  1.
         25    2    1    2    0    0  0.00000000000E+00  0.00000000000E+00  0.24081283119E+02  0.12728525667E+03  0.12498651275E+03 0.  0.
    9000005    1    3    3    0    0 -0.28059273696E+02 -0.44645890295E+02  0.46180759511E+02  0.70101646982E+02  0.10000000000E+01 0.  0.
    9000005    1    3    3    0    0  0.28059273696E+02  0.44645890295E+02 -0.22099476392E+02  0.57183609692E+02  0.10000000000E+01 0.  0.
<mgrwt>
<rscale>  0 0.12498651E+03</rscale>
<asrwt>0</asrwt>
<pdfrwt beam="1">  1        4 0.18920817E-01 0.12498651E+03</pdfrwt>
<pdfrwt beam="2">  1       -4 0.12900497E-01 0.12498651E+03</pdfrwt>
<totfact> 0.19717723E+03</totfact>
</mgrwt>
</event>
<event>
 5    1  0.1448308E-002  0.1250006E+03  0.7818608E-02  0.1235068E+00
          4   -1    0    0  501    0  0.00000000000E+00  0.00000000000E+00  0.60898556919E+03  0.60898689344E+03  0.12700000000E+01 0.  1.
         -4   -1    0    0    0  501 -0.00000000000E+00 -0.00000000000E+00 -0.63502074990E+01  0.64759582519E+01  0.12700000000E+01 0.  1.
         25    2    1    2    0    0  0.00000000000E+00  0.00000000000E+00  0.60263536169E+03  0.61546285169E+03  0.12500057061E+03 0.  0.
    9000005    1    3    3    0    0  0.38601328065E+02 -0.34591373104E+02  0.12943538936E+03  0.13943150878E+03  0.10000000000E+01 0.  0.
    9000005    1    3    3    0    0 -0.38601328065E+02  0.34591373104E+02  0.47319997233E+03  0.47603134291E+03  0.10000000000E+01 0.  0.
<mgrwt>
<rscale>  0 0.12500057E+03</rscale>
<asrwt>0</asrwt>
<pdfrwt beam="1">  1        4 0.15226229E+00 0.12500057E+03</pdfrwt>
<pdfrwt beam="2">  1       -4 0.16034362E-02 0.12500057E+03</pdfrwt>
<totfact> 0.71589923E+02</totfact>
</mgrwt>
</event>
<event>
 5    1  0.1448308E-002  0.1250008E+03  0.7818608E-02  0.1235068E+00
         -4   -1    0    0    0  501 -0.00000000000E+00  0.00000000000E+00  0.35188631820E+03  0.35188860999E+03  0.12700000000E+01 0.  1.
          4   -1    0    0  501    0  0.00000000000E+00 -0.00000000000E+00 -0.11062363792E+02  0.11135025490E+02  0.12700000000E+01 0.  1.
         25    2    1    2    0    0  0.00000000000E+00  0.00000000000E+00  0.34082395441E+03  0.36302363548E+03  0.12500076805E+03 0.  0.
    9000005    1    3    3    0    0 -0.51726569795E+02 -0.27056228693E+02  0.23519651112E+03  0.24233463718E+03  0.10000000000E+01 0.  0.
    9000005    1    3    3    0    0  0.51726569795E+02  0.27056228693E+02  0.10562744329E+03  0.12068899830E+03  0.10000000000E+01 0.  0.
<mgrwt>
<rscale>  0 0.12500077E+03</rscale>
<asrwt>0</asrwt>
<pdfrwt beam="2">  1        4 0.27749601E-02 0.12500077E+03</pdfrwt>
<pdfrwt beam="1">  1       -4 0.87980949E-01 0.12500077E+03</pdfrwt>
<totfact> 0.11372550E+03</totfact>
</mgrwt>
</event>
<event>
 5    1  0.1448308E-002  0.1249987E+03  0.7818608E-02  0.1235071E+00
          4   -1    0    0  501    0  0.00000000000E+00  0.00000000000E+00  0.10248508753E+02  0.10326898453E+02  0.12700000000E+01 0.  1.
         -4   -1    0    0    0  501 -0.00000000000E+00 -0.00000000000E+00 -0.37961365748E+03  0.37961578187E+03  0.12700000000E+01 0.  1.
         25    2    1    2    0    0  0.00000000000E+00  0.00000000000E+00 -0.36936514872E+03  0.38994268032E+03  0.12499872337E+03 0.  0.
    9000005    1    3    3    0    0  0.43903263621E+02 -0.44468408563E+02 -0.18317257750E+03  0.19354102682E+03  0.10000000000E+01 0.  0.
    9000005    1    3    3    0    0 -0.43903263621E+02  0.44468408563E+02 -0.18619257123E+03  0.19640165350E+03  0.10000000000E+01 0.  0.
<mgrwt>
<rscale>  0 0.12499872E+03</rscale>
<asrwt>0</asrwt>
<pdfrwt beam="1">  1        4 0.25721927E-02 0.12499872E+03</pdfrwt>
<pdfrwt beam="2">  1       -4 0.94913432E-01 0.12499872E+03</pdfrwt>
<totfact> 0.10779655E+03</totfact>
</mgrwt>
</event>
<event>
 5    1  0.1448308E-002  0.1250008E+03  0.7818608E-02  0.1235068E+00
         -4   -1    0    0    0  501 -0.00000000000E+00  0.00000000000E+00  0.20455999054E+02  0.20495384781E+02  0.12700000000E+01 0. -1.
          4   -1    0    0  501    0  0.00000000000E+00 -0.00000000000E+00 -0.19073578898E+03  0.19074001703E+03  0.12700000000E+01 0. -1.
         25    2    1    2    0    0  0.00000000000E+00  0.00000000000E+00 -0.17027978993E+03  0.21123540182E+03  0.12500075249E+03 0.  0.
    9000005    1    3    3    0    0 -0.24555278279E+02  0.18841819847E+02  0.66020216949E+01  0.31663268261E+02  0.10000000000E+01 0.  0.
    9000005    1    3    3    0    0  0.24555278279E+02 -0.18841819847E+02 -0.17688181162E+03  0.17957213355E+03  0.10000000000E+01 0.  0.
<mgrwt>
<rscale>  0 0.12500075E+03</rscale>
<asrwt>0</asrwt>
<pdfrwt beam="2">  1        4 0.47689394E-01 0.12500075E+03</pdfrwt>
<pdfrwt beam="1">  1       -4 0.51194521E-02 0.12500075E+03</pdfrwt>
<totfact> 0.15881555E+03</totfact>
</mgrwt>
</event>
<event>
 5    1  0.1448308E-002  0.1249967E+03  0.7818608E-02  0.1235074E+00
          4   -1    0    0  501    0  0.00000000000E+00  0.00000000000E+00  0.80861195637E+01  0.81852446266E+01  0.12700000000E+01 0. -1.
         -4   -1    0    0    0  501 -0.00000000000E+00 -0.00000000000E+00 -0.48001298639E+03  0.48001466644E+03  0.12700000000E+01 0. -1.
         25    2    1    2    0    0  0.00000000000E+00  0.00000000000E+00 -0.47192686682E+03  0.48819991107E+03  0.12499674211E+03 0.  0.
    9000005    1    3    3    0    0 -0.51291404618E+02  0.34957724991E+02 -0.26418078181E+03  0.27137674219E+03  0.10000000000E+01 0.  0.
    9000005    1    3    3    0    0  0.51291404618E+02 -0.34957724991E+02 -0.20774608502E+03  0.21682316888E+03  0.10000000000E+01 0.  0.
<mgrwt>
<rscale>  0 0.12499674E+03</rscale>
<asrwt>0</asrwt>
<pdfrwt beam="1">  1        4 0.20341322E-02 0.12499674E+03</pdfrwt>
<pdfrwt beam="2">  1       -4 0.12001575E+00 0.12499674E+03</pdfrwt>
<totfact> 0.89520404E+02</totfact>
</mgrwt>
</event>
<event>
 5    1  0.1448308E-002  0.1250041E+03  0.7818608E-02  0.1235063E+00
         -4   -1    0    0    0  501 -0.00000000000E+00  0.00000000000E+00  0.68517135571E+03  0.68517253272E+03  0.12700000000E+01 0.  1.
          4   -1    0    0  501    0  0.00000000000E+00 -0.00000000000E+00 -0.56295814537E+01  0.57710559990E+01  0.12700000000E+01 0.  1.
         25    2    1    2    0    0  0.00000000000E+00  0.00000000000E+00  0.67954177426E+03  0.69094358872E+03  0.12500407923E+03 0.  0.
    9000005    1    3    3    0    0  0.48060991530E+02  0.35668770184E+02  0.43916902832E+03  0.44322968708E+03  0.10000000000E+01 0.  0.
    9000005    1    3    3    0    0 -0.48060991530E+02 -0.35668770184E+02  0.24037274594E+03  0.24771390163E+03  0.10000000000E+01 0.  0.
<mgrwt>
<rscale>  0 0.12500408E+03</rscale>
<asrwt>0</asrwt>
<pdfrwt beam="2">  1        4 0.14252267E-02 0.12500408E+03</pdfrwt>
<pdfrwt beam="1">  1       -4 0.17131068E+00 0.12500408E+03</pdfrwt>
<totfact> 0.63007709E+02</totfact>
</mgrwt>
</event>
<event>
 5    1  0.1448308E-002  0.1250294E+03  0.7818608E-02  0.1235023E+00
         -4   -1    0    0    0  501 -0.00000000000E+00  0.00000000000E+00  0.94405528784E+02  0.94414070800E+02  0.12700000000E+01 0. -1.
          4   -1    0    0  501    0  0.00000000000E+00 -0.00000000000E+00 -0.41376665538E+02  0.41396151404E+02  0.12700000000E+01 0. -1.
         25    2    1    2    0    0  0.00000000000E+00  0.00000000000E+00  0.53028863246E+02  0.13581022220E+03  0.12502942101E+03 0.  0.
    9000005    1    3    3    0    0  0.35864523376E+02 -0.50470872481E+02  0.35827895699E+02  0.71541673982E+02  0.10000000000E+01 0.  0.
    9000005    1    3    3    0    0 -0.35864523376E+02  0.50470872481E+02  0.17200967548E+02  0.64268548222E+02  0.10000000000E+01 0.  0.
<mgrwt>
<rscale>  0 0.12502942E+03</rscale>
<asrwt>0</asrwt>
<pdfrwt beam="2">  1        4 0.10347670E-01 0.12502942E+03</pdfrwt>
<pdfrwt beam="1">  1       -4 0.23604886E-01 0.12502942E+03</pdfrwt>
<totfact> 0.19243570E+03</totfact>
</mgrwt>
</event>
<event>
 5    1  0.1448308E-002  0.1250045E+03  0.7818608E-02  0.1235062E+00
         -4   -1    0    0    0  501 -0.00000000000E+00  0.00000000000E+00  0.69151686070E+02  0.69163347130E+02  0.12700000000E+01 0.  1.
          4   -1    0    0  501    0  0.00000000000E+00 -0.00000000000E+00 -0.56468678867E+02  0.56482958430E+02  0.12700000000E+01 0.  1.
         25    2    1    2    0    0  0.00000000000E+00  0.00000000000E+00  0.12683007202E+02  0.12564630556E+03  0.12500454163E+03 0.  0.
    9000005    1    3    3    0    0 -0.53082875424E+02  0.32693536864E+02  0.10708326573E+02  0.63263949244E+02  0.10000000000E+01 0.  0.
    9000005    1    3    3    0    0  0.53082875424E+02 -0.32693536864E+02  0.19746806290E+01  0.62382356316E+02  0.10000000000E+01 0.  0.
<mgrwt>
<rscale>  0 0.12500454E+03</rscale>
<asrwt>0</asrwt>
<pdfrwt beam="2">  1        4 0.14120412E-01 0.12500454E+03</pdfrwt>
<pdfrwt beam="1">  1       -4 0.17291164E-01 0.12500454E+03</pdfrwt>
<totfact> 0.19797942E+03</totfact>
</mgrwt>
</event>
<event>
 5    1  0.1448308E-002  0.1249996E+03  0.7818608E-02  0.1235070E+00
         -4   -1    0    0    0  501 -0.00000000000E+00  0.00000000000E+00  0.43107575563E+03  0.43107762641E+03  0.12700000000E+01 0.  1.
          4   -1    0    0  501    0  0.00000000000E+00 -0.00000000000E+00 -0.90151732289E+01  0.91041885057E+01  0.12700000000E+01 0.  1.
         25    2    1    2    0    0  0.00000000000E+00  0.00000000000E+00  0.42206058240E+03  0.44018181492E+03  0.12499957986E+03 0.  0.
    9000005    1    3    3    0    0  0.67665802018E+00  0.13573081618E+02 -0.37658013536E+01  0.14137456296E+02  0.10000000000E+01 0.  0.
    9000005    1    3    3    0    0 -0.67665802018E+00 -0.13573081618E+02  0.42582638375E+03  0.42604435862E+03  0.10000000000E+01 0.  0.
<mgrwt>
<rscale>  0 0.12499958E+03</rscale>
<asrwt>0</asrwt>
<pdfrwt beam="2">  1        4 0.22651542E-02 0.12499958E+03</pdfrwt>
<pdfrwt beam="1">  1       -4 0.10778030E+00 0.12499958E+03</pdfrwt>
<totfact> 0.97807766E+02</totfact>
</mgrwt>
</event>
<event>
 5    1  0.1448308E-002  0.1249935E+03  0.7818608E-02  0.1235079E+00
          4   -1    0    0  501    0  0.00000000000E+00  0.00000000000E+00  0.39947852194E+03  0.39948054069E+03  0.12700000000E+01 0.  1.
         -4   -1    0    0    0  501 -0.00000000000E+00 -0.00000000000E+00 -0.97340574616E+01  0.98165561510E+01  0.12700000000E+01 0.  1.
         25    2    1    2    0    0  0.00000000000E+00  0.00000000000E+00  0.38974446447E+03  0.40929709684E+03  0.12499346340E+03 0.  0.
    9000005    1    3    3    0    0 -0.35265915288E+02 -0.42149633757E+02  0.29226265570E+03  0.29738650999E+03  0.10000000000E+01 0.  0.
    9000005    1    3    3    0    0  0.35265915288E+02  0.42149633757E+02  0.97481808771E+02  0.11191058685E+03  0.10000000000E+01 0.  0.
<mgrwt>
<rscale>  0 0.12499346E+03</rscale>
<asrwt>0</asrwt>
<pdfrwt beam="1">  1        4 0.99880191E-01 0.12499346E+03</pdfrwt>
<pdfrwt beam="2">  1       -4 0.24440791E-02 0.12499346E+03</pdfrwt>
<totfact> 0.10381711E+03</totfact>
</mgrwt>
</event>
<event>
 5    1  0.1448308E-002  0.1250072E+03  0.7818608E-02  0.1235058E+00
         -4   -1    0    0    0  501 -0.00000000000E+00  0.00000000000E+00  0.14793356546E+02  0.14847770806E+02  0.12700000000E+01 0. -1.
          4   -1    0    0  501    0  0.00000000000E+00 -0.00000000000E+00 -0.26354417866E+03  0.26354723866E+03  0.12700000000E+01 0. -1.
         25    2    1    2    0    0  0.00000000000E+00  0.00000000000E+00 -0.24875082212E+03  0.27839500947E+03  0.12500723896E+03 0.  0.
    9000005    1    3    3    0    0 -0.45267191232E+01 -0.15584772439E+02 -0.25878049534E+03  0.25929080410E+03  0.10000000000E+01 0.  0.
    9000005    1    3    3    0    0  0.45267191232E+01  0.15584772439E+02  0.10029673225E+02  0.19104205375E+02  0.10000000000E+01 0.  0.
<mgrwt>
<rscale>  0 0.12500724E+03</rscale>
<asrwt>0</asrwt>
<pdfrwt beam="2">  1        4 0.65893214E-01 0.12500724E+03</pdfrwt>
<pdfrwt beam="1">  1       -4 0.37055243E-02 0.12500724E+03</pdfrwt>
<totfact> 0.13596679E+03</totfact>
</mgrwt>
</event>
<event>
 5    1  0.1448308E-002  0.1249975E+03  0.7818608E-02  0.1235073E+00
          4   -1    0    0  501    0  0.00000000000E+00  0.00000000000E+00  0.23616767578E+02  0.23650890276E+02  0.12700000000E+01 0. -1.
         -4   -1    0    0    0  501 -0.00000000000E+00 -0.00000000000E+00 -0.16523907964E+03  0.16524396007E+03  0.12700000000E+01 0. -1.
         25    2    1    2    0    0  0.00000000000E+00  0.00000000000E+00 -0.14162231206E+03  0.18889485035E+03  0.12499754083E+03 0.  0.
    9000005    1    3    3    0    0 -0.59125941836E+02  0.11823369882E+02 -0.95616165237E+02  0.11304477046E+03  0.10000000000E+01 0.  0.
    9000005    1    3    3    0    0  0.59125941836E+02 -0.11823369882E+02 -0.46006146822E+02  0.75850079886E+02  0.10000000000E+01 0.  0.
<mgrwt>
<rscale>  0 0.12499754E+03</rscale>
<asrwt>0</asrwt>
<pdfrwt beam="1">  1        4 0.59090678E-02 0.12499754E+03</pdfrwt>
<pdfrwt beam="2">  1       -4 0.41314642E-01 0.12499754E+03</pdfrwt>
<totfact> 0.16777539E+03</totfact>
</mgrwt>
</event>
<event>
 5    1  0.1448308E-002  0.1250014E+03  0.7818608E-02  0.1235067E+00
         -4   -1    0    0    0  501 -0.00000000000E+00  0.00000000000E+00  0.45314028471E+03  0.45314206440E+03  0.12700000000E+01 0.  1.
          4   -1    0    0  501    0  0.00000000000E+00 -0.00000000000E+00 -0.85720059926E+01  0.86655748071E+01  0.12700000000E+01 0.  1.
         25    2    1    2    0    0  0.00000000000E+00  0.00000000000E+00  0.44456827872E+03  0.46180763921E+03  0.12500136474E+03 0.  0.
    9000005    1    3    3    0    0 -0.25563741219E+02  0.12834158979E+02  0.17015431876E+02  0.33297829115E+02  0.10000000000E+01 0.  0.
    9000005    1    3    3    0    0  0.25563741219E+02 -0.12834158979E+02  0.42755284684E+03  0.42850981009E+03  0.10000000000E+01 0.  0.
<mgrwt>
<rscale>  0 0.12500136E+03</rscale>
<asrwt>0</asrwt>
<pdfrwt beam="2">  1        4 0.21549201E-02 0.12500136E+03</pdfrwt>
<pdfrwt beam="1">  1       -4 0.11329699E+00 0.12500136E+03</pdfrwt>
<totfact> 0.93932184E+02</totfact>
</mgrwt>
</event>
<event>
 5    1  0.1448308E-002  0.1250035E+03  0.7818608E-02  0.1235064E+00
         -4   -1    0    0    0  501 -0.00000000000E+00  0.00000000000E+00  0.23574278288E+03  0.23574620374E+03  0.12700000000E+01 0.  1.
          4   -1    0    0  501    0  0.00000000000E+00 -0.00000000000E+00 -0.16543022278E+02  0.16591699313E+02  0.12700000000E+01 0.  1.
         25    2    1    2    0    0  0.00000000000E+00  0.00000000000E+00  0.21919976060E+03  0.25233790306E+03  0.12500352904E+03 0.  0.
    9000005    1    3    3    0    0 -0.15869365160E+02 -0.51986331049E+02  0.47346479916E+02  0.72090946221E+02  0.10000000000E+01 0.  0.
    9000005    1    3    3    0    0  0.15869365160E+02  0.51986331049E+02  0.17185328069E+03  0.18024695684E+03  0.10000000000E+01 0.  0.
<mgrwt>
<rscale>  0 0.12500353E+03</rscale>
<asrwt>0</asrwt>
<pdfrwt beam="2">  1        4 0.41422678E-02 0.12500353E+03</pdfrwt>
<pdfrwt beam="1">  1       -4 0.58942207E-01 0.12500353E+03</pdfrwt>
<totfact> 0.14419367E+03</totfact>
</mgrwt>
</event>
<event>
 5    1  0.1448308E-002  0.1249956E+03  0.7818608E-02  0.1235076E+00
         -4   -1    0    0    0  501 -0.00000000000E+00  0.00000000000E+00  0.13883015273E+03  0.13883596151E+03  0.12700000000E+01 0. -1.
          4   -1    0    0  501    0  0.00000000000E+00 -0.00000000000E+00 -0.28114175811E+02  0.28142846010E+02  0.12700000000E+01 0. -1.
         25    2    1    2    0    0  0.00000000000E+00  0.00000000000E+00  0.11071597692E+03  0.16697880752E+03  0.12499557838E+03 0.  0.
    9000005    1    3    3    0    0 -0.72226594588E+01 -0.96526156940E+01  0.13726847028E+03  0.13780048161E+03  0.10000000000E+01 0.  0.
    9000005    1    3    3    0    0  0.72226594588E+01  0.96526156940E+01 -0.26552493356E+02  0.29178325908E+02  0.10000000000E+01 0.  0.
<mgrwt>
<rscale>  0 0.12499558E+03</rscale>
<asrwt>0</asrwt>
<pdfrwt beam="2">  1        4 0.70328539E-02 0.12499558E+03</pdfrwt>
<pdfrwt beam="1">  1       -4 0.34711848E-01 0.12499558E+03</pdfrwt>
<totfact> 0.17736004E+03</totfact>
</mgrwt>
</event>
<event>
 5    1  0.1448308E-002  0.1250041E+03  0.7818608E-02  0.1235063E+00
         -4   -1    0    0    0  501 -0.00000000000E+00  0.00000000000E+00  0.40909083523E+03  0.40909280655E+03  0.12700000000E+01 0.  1.
          4   -1    0    0  501    0  0.00000000000E+00 -0.00000000000E+00 -0.95050092617E+01  0.95894786650E+01  0.12700000000E+01 0.  1.
         25    2    1    2    0    0  0.00000000000E+00  0.00000000000E+00  0.39958582597E+03  0.41868228521E+03  0.12500409448E+03 0.  0.
    9000005    1    3    3    0    0 -0.26187897439E+02  0.23633778504E+02  0.27012474387E+02  0.44441368466E+02  0.10000000000E+01 0.  0.
    9000005    1    3    3    0    0  0.26187897439E+02 -0.23633778504E+02  0.37257335158E+03  0.37424091675E+03  0.10000000000E+01 0.  0.
<mgrwt>
<rscale>  0 0.12500409E+03</rscale>
<asrwt>0</asrwt>
<pdfrwt beam="2">  1        4 0.23870576E-02 0.12500409E+03</pdfrwt>
<pdfrwt beam="1">  1       -4 0.10228350E+00 0.12500409E+03</pdfrwt>
<totfact> 0.10191177E+03</totfact>
</mgrwt>
</event>
<event>
 5    1  0.1448308E-002  0.1249982E+03  0.7818608E-02  0.1235072E+00
          4   -1    0    0  501    0  0.00000000000E+00  0.00000000000E+00  0.34773872035E+02  0.34797055570E+02  0.12700000000E+01 0.  1.
         -4   -1    0    0    0  501 -0.00000000000E+00 -0.00000000000E+00 -0.11226538019E+03  0.11227256339E+03  0.12700000000E+01 0.  1.
         25    2    1    2    0    0  0.00000000000E+00  0.00000000000E+00 -0.77491508154E+02  0.14706961895E+03  0.12499815592E+03 0.  0.
    9000005    1    3    3    0    0 -0.29969607822E+02 -0.17148437297E+02  0.22536584455E+02  0.41244926156E+02  0.10000000000E+01 0.  0.
    9000005    1    3    3    0    0  0.29969607822E+02  0.17148437297E+02 -0.10002809261E+03  0.10582469280E+03  0.10000000000E+01 0.  0.
<mgrwt>
<rscale>  0 0.12499816E+03</rscale>
<asrwt>0</asrwt>
<pdfrwt beam="1">  1        4 0.86972641E-02 0.12499816E+03</pdfrwt>
<pdfrwt beam="2">  1       -4 0.28070140E-01 0.12499816E+03</pdfrwt>
<totfact> 0.18684615E+03</totfact>
</mgrwt>
</event>
<event>
 5    1  0.1448308E-002  0.1250005E+03  0.7818608E-02  0.1235068E+00
         -4   -1    0    0    0  501 -0.00000000000E+00  0.00000000000E+00  0.82211099275E+01  0.83186265958E+01  0.12700000000E+01 0. -1.
          4   -1    0    0  501    0  0.00000000000E+00 -0.00000000000E+00 -0.47225295672E+03  0.47225466439E+03  0.12700000000E+01 0. -1.
         25    2    1    2    0    0  0.00000000000E+00  0.00000000000E+00 -0.46403184680E+03  0.48057329098E+03  0.12500053265E+03 0.  0.
    9000005    1    3    3    0    0  0.31434687437E+02  0.18868718681E+02 -0.37451997431E+02  0.52419655001E+02  0.10000000000E+01 0.  0.
    9000005    1    3    3    0    0 -0.31434687437E+02 -0.18868718681E+02 -0.42657984936E+03  0.42815363598E+03  0.10000000000E+01 0.  0.
<mgrwt>
<rscale>  0 0.12500053E+03</rscale>
<asrwt>0</asrwt>
<pdfrwt beam="2">  1        4 0.11807555E+00 0.12500053E+03</pdfrwt>
<pdfrwt beam="1">  1       -4 0.20676821E-02 0.12500053E+03</pdfrwt>
<totfact> 0.90773284E+02</totfact>
</mgrwt>
</event>
<event>
 5    1  0.1448308E-002  0.1250069E+03  0.7818608E-02  0.1235059E+00
         -4   -1    0    0    0  501 -0.00000000000E+00  0.00000000000E+00  0.16778459698E+03  0.16778940338E+03  0.12700000000E+01 0. -1.
          4   -1    0    0  501    0  0.00000000000E+00 -0.00000000000E+00 -0.23261434196E+02  0.23296077370E+02  0.12700000000E+01 0. -1.
         25    2    1    2    0    0  0.00000000000E+00  0.00000000000E+00  0.14452316279E+03  0.19108548075E+03  0.12500686529E+03 0.  0.
    9000005    1    3    3    0    0 -0.35753152428E+02 -0.50011888968E+02  0.55089331726E+02  0.82554899410E+02  0.10000000000E+01 0.  0.
    9000005    1    3    3    0    0  0.35753152428E+02  0.50011888968E+02  0.89433831062E+02  0.10853058134E+03  0.10000000000E+01 0.  0.
<mgrwt>
<rscale>  0 0.12500687E+03</rscale>
<asrwt>0</asrwt>
<pdfrwt beam="2">  1        4 0.58202898E-02 0.12500687E+03</pdfrwt>
<pdfrwt beam="1">  1       -4 0.41951080E-01 0.12500687E+03</pdfrwt>
<totfact> 0.16682677E+03</totfact>
</mgrwt>
</event>
<event>
 5    1  0.1448308E-002  0.1249940E+03  0.7818608E-02  0.1235079E+00
          4   -1    0    0  501    0  0.00000000000E+00  0.00000000000E+00  0.98900219951E+03  0.98900301492E+03  0.12700000000E+01 0. -1.
         -4   -1    0    0    0  501 -0.00000000000E+00 -0.00000000000E+00 -0.38463708722E+01  0.40506133964E+01  0.12700000000E+01 0. -1.
         25    2    1    2    0    0  0.00000000000E+00  0.00000000000E+00  0.98515582863E+03  0.99305362832E+03  0.12499400797E+03 0.  0.
    9000005    1    3    3    0    0  0.36110304373E+02 -0.48973299674E+02  0.37951086364E+03  0.38435899076E+03  0.10000000000E+01 0.  0.
    9000005    1    3    3    0    0 -0.36110304373E+02  0.48973299674E+02  0.60564496500E+03  0.60869463756E+03  0.10000000000E+01 0.  0.
<mgrwt>
<rscale>  0 0.12499401E+03</rscale>
<asrwt>0</asrwt>
<pdfrwt beam="1">  1        4 0.24727628E+00 0.12499401E+03</pdfrwt>
<pdfrwt beam="2">  1       -4 0.98722456E-03 0.12499401E+03</pdfrwt>
<totfact> 0.37584038E+02</totfact>
</mgrwt>
</event>
<event>
 5    1  0.1448308E-002  0.1250006E+03  0.7818608E-02  0.1235068E+00
         -4   -1    0    0    0  501 -0.00000000000E+00  0.00000000000E+00  0.50617879079E+02  0.50633808690E+02  0.12700000000E+01 0.  1.
          4   -1    0    0  501    0  0.00000000000E+00 -0.00000000000E+00 -0.77138751345E+02  0.77149205174E+02  0.12700000000E+01 0.  1.
         25    2    1    2    0    0  0.00000000000E+00  0.00000000000E+00 -0.26520872266E+02  0.12778301386E+03  0.12500056786E+03 0.  0.
    9000005    1    3    3    0    0 -0.45984915868E+02 -0.44687713626E+00 -0.56516307620E+02  0.72869096424E+02  0.10000000000E+01 0.  0.
    9000005    1    3    3    0    0  0.45984915868E+02  0.44687713626E+00  0.29995435355E+02  0.54913917441E+02  0.10000000000E+01 0.  0.
<mgrwt>
<rscale>  0 0.12500057E+03</rscale>
<asrwt>0</asrwt>
<pdfrwt beam="2">  1        4 0.19287986E-01 0.12500057E+03</pdfrwt>
<pdfrwt beam="1">  1       -4 0.12657768E-01 0.12500057E+03</pdfrwt>
<totfact> 0.19684088E+03</totfact>
</mgrwt>
</event>
<event>
 5    1  0.1448308E-002  0.1250010E+03  0.7818608E-02  0.1235068E+00
          4   -1    0    0  501    0  0.00000000000E+00  0.00000000000E+00  0.17453572079E+02  0.17499716521E+02  0.12700000000E+01 0. -1.
         -4   -1    0    0    0  501 -0.00000000000E+00 -0.00000000000E+00 -0.22346835336E+03  0.22347196212E+03  0.12700000000E+01 0. -1.
         25    2    1    2    0    0  0.00000000000E+00  0.00000000000E+00 -0.20601478129E+03  0.24097167864E+03  0.12500103920E+03 0.  0.
    9000005    1    3    3    0    0 -0.26256133010E+02  0.56507646011E+02 -0.11221561034E+03  0.12835825560E+03  0.10000000000E+01 0.  0.
    9000005    1    3    3    0    0  0.26256133010E+02 -0.56507646011E+02 -0.93799170951E+02  0.11261342304E+03  0.10000000000E+01 0.  0.
<mgrwt>
<rscale>  0 0.12500104E+03</rscale>
<asrwt>0</asrwt>
<pdfrwt beam="1">  1        4 0.43696129E-02 0.12500104E+03</pdfrwt>
<pdfrwt beam="2">  1       -4 0.55873298E-01 0.12500104E+03</pdfrwt>
<totfact> 0.14802681E+03</totfact>
</mgrwt>
</event>
<event>
 5    1  0.1448308E-002  0.1250006E+03  0.7818608E-02  0.1235068E+00
         -4   -1    0    0    0  501 -0.00000000000E+00  0.00000000000E+00  0.11993353343E+03  0.11994025738E+03  0.12700000000E+01 0.  1.
          4   -1    0    0  501    0  0.00000000000E+00 -0.00000000000E+00 -0.32550398290E+02  0.32575164295E+02  0.12700000000E+01 0.  1.
         25    2    1    2    0    0  0.00000000000E+00  0.00000000000E+00  0.87383135140E+02  0.15251542168E+03  0.12500056617E+03 0.  0.
    9000005    1    3    3    0    0 -0.36423199526E+02 -0.41349545914E+02  0.79656100629E+02  0.96863454297E+02  0.10000000000E+01 0.  0.
    9000005    1    3    3    0    0  0.36423199526E+02  0.41349545914E+02  0.77270345115E+01  0.55651967381E+02  0.10000000000E+01 0.  0.
<mgrwt>
<rscale>  0 0.12500057E+03</rscale>
<asrwt>0</asrwt>
<pdfrwt beam="2">  1        4 0.81415359E-02 0.12500057E+03</pdfrwt>
<pdfrwt beam="1">  1       -4 0.29987319E-01 0.12500057E+03</pdfrwt>
<totfact> 0.18415543E+03</totfact>
</mgrwt>
</event>
<event>
 5    1  0.1448308E-002  0.1250027E+03  0.7818608E-02  0.1235065E+00
          4   -1    0    0  501    0  0.00000000000E+00  0.00000000000E+00  0.10928079142E+03  0.10928817079E+03  0.12700000000E+01 0.  1.
         -4   -1    0    0    0  501 -0.00000000000E+00 -0.00000000000E+00 -0.35726745139E+02  0.35749310737E+02  0.12700000000E+01 0.  1.
         25    2    1    2    0    0  0.00000000000E+00  0.00000000000E+00  0.73554046285E+02  0.14503748152E+03  0.12500269326E+03 0.  0.
    9000005    1    3    3    0    0 -0.55079717499E+02  0.29507673609E+02  0.35651945928E+02  0.71948171137E+02  0.10000000000E+01 0.  0.
    9000005    1    3    3    0    0  0.55079717499E+02 -0.29507673609E+02  0.37902100357E+02  0.73089310388E+02  0.10000000000E+01 0.  0.
<mgrwt>
<rscale>  0 0.12500269E+03</rscale>
<asrwt>0</asrwt>
<pdfrwt beam="1">  1        4 0.27323941E-01 0.12500269E+03</pdfrwt>
<pdfrwt beam="2">  1       -4 0.89354295E-02 0.12500269E+03</pdfrwt>
<totfact> 0.18784300E+03</totfact>
</mgrwt>
</event>
<event>
 5    1  0.1448308E-002  0.1250002E+03  0.7818608E-02  0.1235069E+00
         -4   -1    0    0    0  501 -0.00000000000E+00  0.00000000000E+00  0.14520716344E+03  0.14521271712E+03  0.12700000000E+01 0.  1.
          4   -1    0    0  501    0  0.00000000000E+00 -0.00000000000E+00 -0.26880259886E+02  0.26910244732E+02  0.12700000000E+01 0.  1.
         25    2    1    2    0    0  0.00000000000E+00  0.00000000000E+00  0.11832690355E+03  0.17212296185E+03  0.12500023157E+03 0.  0.
    9000005    1    3    3    0    0  0.16961907726E+02 -0.33831747134E+02 -0.93124103613E+01  0.38987362242E+02  0.10000000000E+01 0.  0.
    9000005    1    3    3    0    0 -0.16961907726E+02  0.33831747134E+02  0.12763931391E+03  0.13313559961E+03  0.10000000000E+01 0.  0.
<mgrwt>
<rscale>  0 0.12500023E+03</rscale>
<asrwt>0</asrwt>
<pdfrwt beam="2">  1        4 0.67245074E-02 0.12500023E+03</pdfrwt>
<pdfrwt beam="1">  1       -4 0.36306233E-01 0.12500023E+03</pdfrwt>
<totfact> 0.17501622E+03</totfact>
</mgrwt>
</event>
<event>
 5    1  0.1448308E-002  0.1250011E+03  0.7818608E-02  0.1235068E+00
          4   -1    0    0  501    0  0.00000000000E+00  0.00000000000E+00  0.27007431274E+02  0.27037275085E+02  0.12700000000E+01 0.  1.
         -4   -1    0    0    0  501 -0.00000000000E+00 -0.00000000000E+00 -0.14452605327E+03  0.14453163312E+03  0.12700000000E+01 0.  1.
         25    2    1    2    0    0  0.00000000000E+00  0.00000000000E+00 -0.11751862199E+03  0.17156890821E+03  0.12500105499E+03 0.  0.
    9000005    1    3    3    0    0  0.44787273243E+01  0.42901655391E+02 -0.12082337762E+03  0.12829614029E+03  0.10000000000E+01 0.  0.
    9000005    1    3    3    0    0 -0.44787273243E+01 -0.42901655391E+02  0.33047556255E+01  0.43272767920E+02  0.10000000000E+01 0.  0.
<mgrwt>
<rscale>  0 0.12500105E+03</rscale>
<asrwt>0</asrwt>
<pdfrwt beam="1">  1        4 0.67562862E-02 0.12500105E+03</pdfrwt>
<pdfrwt beam="2">  1       -4 0.36135939E-01 0.12500105E+03</pdfrwt>
<totfact> 0.17526085E+03</totfact>
</mgrwt>
</event>
<event>
 5    1  0.1448308E-002  0.1249995E+03  0.7818608E-02  0.1235070E+00
         -4   -1    0    0    0  501 -0.00000000000E+00  0.00000000000E+00  0.82786232252E+02  0.82795973033E+02  0.12700000000E+01 0. -1.
          4   -1    0    0  501    0  0.00000000000E+00 -0.00000000000E+00 -0.47163311757E+02  0.47180407754E+02  0.12700000000E+01 0. -1.
         25    2    1    2    0    0  0.00000000000E+00  0.00000000000E+00  0.35622920495E+02  0.12997638079E+03  0.12499946839E+03 0.  0.
    9000005    1    3    3    0    0 -0.24587858106E+02 -0.43549038967E+02  0.56775209446E+02  0.75667073214E+02  0.10000000000E+01 0.  0.
    9000005    1    3    3    0    0  0.24587858106E+02  0.43549038967E+02 -0.21152288951E+02  0.54309307573E+02  0.10000000000E+01 0.  0.
<mgrwt>
<rscale>  0 0.12499947E+03</rscale>
<asrwt>0</asrwt>
<pdfrwt beam="2">  1        4 0.11794183E-01 0.12499947E+03</pdfrwt>
<pdfrwt beam="1">  1       -4 0.20699913E-01 0.12499947E+03</pdfrwt>
<totfact> 0.19565895E+03</totfact>
</mgrwt>
</event>
<event>
 5    1  0.1448308E-002  0.1249955E+03  0.7818608E-02  0.1235076E+00
          4   -1    0    0  501    0  0.00000000000E+00  0.00000000000E+00  0.75139344205E+02  0.75150076164E+02  0.12700000000E+01 0. -1.
         -4   -1    0    0    0  501 -0.00000000000E+00 -0.00000000000E+00 -0.51960764012E+02  0.51976282060E+02  0.12700000000E+01 0. -1.
         25    2    1    2    0    0  0.00000000000E+00  0.00000000000E+00  0.23178580193E+02  0.12712635822E+03  0.12499545742E+03 0.  0.
    9000005    1    3    3    0    0 -0.53214842684E+02  0.26161990511E+02 -0.84622111905E+01  0.59907247037E+02  0.10000000000E+01 0.  0.
    9000005    1    3    3    0    0  0.53214842684E+02 -0.26161990511E+02  0.31640791383E+02  0.67219111187E+02  0.10000000000E+01 0.  0.
<mgrwt>
<rscale>  0 0.12499546E+03</rscale>
<asrwt>0</asrwt>
<pdfrwt beam="1">  1        4 0.18788117E-01 0.12499546E+03</pdfrwt>
<pdfrwt beam="2">  1       -4 0.12993472E-01 0.12499546E+03</pdfrwt>
<totfact> 0.19722240E+03</totfact>
</mgrwt>
</event>
<event>
 5    1  0.1448308E-002  0.1250008E+03  0.7818608E-02  0.1235068E+00
         -4   -1    0    0    0  501 -0.00000000000E+00  0.00000000000E+00  0.36327259568E+03  0.36327481563E+03  0.12700000000E+01 0. -1.
          4   -1    0    0  501    0  0.00000000000E+00 -0.00000000000E+00 -0.10713319644E+02  0.10788332484E+02  0.12700000000E+01 0. -1.
         25    2    1    2    0    0  0.00000000000E+00  0.00000000000E+00  0.35255927603E+03  0.37406314811E+03  0.12500078263E+03 0.  0.
    9000005    1    3    3    0    0  0.39395196563E+02  0.39106571635E+02  0.90379457970E+02  0.10606956152E+03  0.10000000000E+01 0.  0.
    9000005    1    3    3    0    0 -0.39395196563E+02 -0.39106571635E+02  0.26217981806E+03  0.26799358660E+03  0.10000000000E+01 0.  0.
<mgrwt>
<rscale>  0 0.12500078E+03</rscale>
<asrwt>0</asrwt>
<pdfrwt beam="2">  1        4 0.26879839E-02 0.12500078E+03</pdfrwt>
<pdfrwt beam="1">  1       -4 0.90827807E-01 0.12500078E+03</pdfrwt>
<totfact> 0.11123522E+03</totfact>
</mgrwt>
</event>
<event>
 5    1  0.1448308E-002  0.1250015E+03  0.7818608E-02  0.1235067E+00
         -4   -1    0    0    0  501 -0.00000000000E+00  0.00000000000E+00  0.13833781482E+03  0.13834364427E+03  0.12700000000E+01 0.  1.
          4   -1    0    0  501    0  0.00000000000E+00 -0.00000000000E+00 -0.28217014993E+02  0.28245580807E+02  0.12700000000E+01 0.  1.
         25    2    1    2    0    0  0.00000000000E+00  0.00000000000E+00  0.11012079983E+03  0.16658922507E+03  0.12500151742E+03 0.  0.
    9000005    1    3    3    0    0 -0.76021121465E+01 -0.62028374539E+02  0.54816541368E+02  0.83133414248E+02  0.10000000000E+01 0.  0.
    9000005    1    3    3    0    0  0.76021121465E+01  0.62028374539E+02  0.55304258457E+02  0.83455810825E+02  0.10000000000E+01 0.  0.
<mgrwt>
<rscale>  0 0.12500152E+03</rscale>
<asrwt>0</asrwt>
<pdfrwt beam="2">  1        4 0.70585533E-02 0.12500152E+03</pdfrwt>
<pdfrwt beam="1">  1       -4 0.34588752E-01 0.12500152E+03</pdfrwt>
<totfact> 0.17751368E+03</totfact>
</mgrwt>
</event>
<event>
 5    1  0.1448308E-002  0.1249986E+03  0.7818608E-02  0.1235071E+00
         -4   -1    0    0    0  501 -0.00000000000E+00  0.00000000000E+00  0.13804063533E+04  0.13804069375E+04  0.12700000000E+01 0.  1.
          4   -1    0    0  501    0  0.00000000000E+00 -0.00000000000E+00 -0.26866104135E+01  0.29716620794E+01  0.12700000000E+01 0.  1.
         25    2    1    2    0    0  0.00000000000E+00  0.00000000000E+00  0.13777197429E+04  0.13833785996E+04  0.12499863946E+03 0.  0.
    9000005    1    3    3    0    0 -0.42625645463E+01 -0.58482923929E+02  0.92795720297E+03  0.92980857836E+03  0.10000000000E+01 0.  0.
    9000005    1    3    3    0    0  0.42625645463E+01  0.58482923929E+02  0.44976253994E+03  0.45357002125E+03  0.10000000000E+01 0.  0.
<mgrwt>
<rscale>  0 0.12499864E+03</rscale>
<asrwt>0</asrwt>
<pdfrwt beam="2">  1        4 0.70735753E-03 0.12499864E+03</pdfrwt>
<pdfrwt beam="1">  1       -4 0.34513707E+00 0.12499864E+03</pdfrwt>
<totfact> 0.16747238E+02</totfact>
</mgrwt>
</event>
<event>
 5    1  0.1448308E-002  0.1250005E+03  0.7818608E-02  0.1235068E+00
          4   -1    0    0  501    0  0.00000000000E+00  0.00000000000E+00  0.27952718071E+03  0.27953006574E+03  0.12700000000E+01 0.  1.
         -4   -1    0    0    0  501 -0.00000000000E+00 -0.00000000000E+00 -0.13942786465E+02  0.14000506934E+02  0.12700000000E+01 0.  1.
         25    2    1    2    0    0  0.00000000000E+00  0.00000000000E+00  0.26558439424E+03  0.29353057268E+03  0.12500050652E+03 0.  0.
    9000005    1    3    3    0    0 -0.35187223329E+02  0.91542750704E+01  0.13439463116E+02  0.38775773448E+02  0.10000000000E+01 0.  0.
    9000005    1    3    3    0    0  0.35187223329E+02 -0.91542750704E+01  0.25214493113E+03  0.25475479923E+03  0.10000000000E+01 0.  0.
<mgrwt>
<rscale>  0 0.12500051E+03</rscale>
<asrwt>0</asrwt>
<pdfrwt beam="1">  1        4 0.69889368E-01 0.12500051E+03</pdfrwt>
<pdfrwt beam="2">  1       -4 0.34932725E-02 0.12500051E+03</pdfrwt>
<totfact> 0.13154178E+03</totfact>
</mgrwt>
</event>
<event>
 5    1  0.1448308E-002  0.1250001E+03  0.7818608E-02  0.1235069E+00
          4   -1    0    0  501    0  0.00000000000E+00  0.00000000000E+00  0.36085166533E+02  0.36107508135E+02  0.12700000000E+01 0.  1.
         -4   -1    0    0    0  501 -0.00000000000E+00 -0.00000000000E+00 -0.10819144000E+03  0.10819889366E+03  0.12700000000E+01 0.  1.
         25    2    1    2    0    0  0.00000000000E+00  0.00000000000E+00 -0.72106273464E+02  0.14430640179E+03  0.12500009170E+03 0.  0.
    9000005    1    3    3    0    0 -0.15954253095E+02 -0.49253065096E+02  0.43502036576E+01  0.51964669585E+02  0.10000000000E+01 0.  0.
    9000005    1    3    3    0    0  0.15954253095E+02  0.49253065096E+02 -0.76456477121E+02  0.92341732207E+02  0.10000000000E+01 0.  0.
<mgrwt>
<rscale>  0 0.12500009E+03</rscale>
<asrwt>0</asrwt>
<pdfrwt beam="1">  1        4 0.90250163E-02 0.12500009E+03</pdfrwt>
<pdfrwt beam="2">  1       -4 0.27051584E-01 0.12500009E+03</pdfrwt>
<totfact> 0.18822118E+03</totfact>
</mgrwt>
</event>
<event>
 5    1  0.1448308E-002  0.1250005E+03  0.7818608E-02  0.1235069E+00
         -4   -1    0    0    0  501 -0.00000000000E+00  0.00000000000E+00  0.38407235061E+03  0.38407445033E+03  0.12700000000E+01 0.  1.
          4   -1    0    0  501    0  0.00000000000E+00 -0.00000000000E+00 -0.10128902029E+02  0.10208210241E+02  0.12700000000E+01 0.  1.
         25    2    1    2    0    0  0.00000000000E+00  0.00000000000E+00  0.37394344858E+03  0.39428266057E+03  0.12500045479E+03 0.  0.
    9000005    1    3    3    0    0  0.44780749972E+02  0.14501606024E+01  0.49558617385E+02  0.66816727629E+02  0.10000000000E+01 0.  0.
    9000005    1    3    3    0    0 -0.44780749972E+02 -0.14501606024E+01  0.32438483119E+03  0.32746593295E+03  0.10000000000E+01 0.  0.
<mgrwt>
<rscale>  0 0.12500045E+03</rscale>
<asrwt>0</asrwt>
<pdfrwt beam="2">  1        4 0.25424018E-02 0.12500045E+03</pdfrwt>
<pdfrwt beam="1">  1       -4 0.96028251E-01 0.12500045E+03</pdfrwt>
<totfact> 0.10687813E+03</totfact>
</mgrwt>
</event>
<event>
 5    1  0.1448308E-002  0.1249985E+03  0.7818608E-02  0.1235072E+00
          4   -1    0    0  501    0  0.00000000000E+00  0.00000000000E+00  0.15839227672E+03  0.15839736811E+03  0.12700000000E+01 0.  1.
         -4   -1    0    0    0  501 -0.00000000000E+00 -0.00000000000E+00 -0.24639431199E+02  0.24672139546E+02  0.12700000000E+01 0.  1.
         25    2    1    2    0    0  0.00000000000E+00  0.00000000000E+00  0.13375284552E+03  0.18306950765E+03  0.12499848378E+03 0.  0.
    9000005    1    3    3    0    0 -0.35185682332E+01 -0.50007642837E+02  0.12233674337E+02  0.51612086300E+02  0.10000000000E+01 0.  0.
    9000005    1    3    3    0    0  0.35185682332E+01  0.50007642837E+02  0.12151917118E+03  0.13145742135E+03  0.10000000000E+01 0.  0.
<mgrwt>
<rscale>  0 0.12499848E+03</rscale>
<asrwt>0</asrwt>
<pdfrwt beam="1">  1        4 0.39602794E-01 0.12499848E+03</pdfrwt>
<pdfrwt beam="2">  1       -4 0.61645828E-02 0.12499848E+03</pdfrwt>
<totfact> 0.17023756E+03</totfact>
</mgrwt>
</event>
<event>
 5    1  0.1448308E-002  0.1249936E+03  0.7818608E-02  0.1235079E+00
          4   -1    0    0  501    0  0.00000000000E+00  0.00000000000E+00  0.11188793250E+02  0.11260639164E+02  0.12700000000E+01 0.  1.
         -4   -1    0    0    0  501 -0.00000000000E+00 -0.00000000000E+00 -0.34789566250E+03  0.34789798058E+03  0.12700000000E+01 0.  1.
         25    2    1    2    0    0  0.00000000000E+00  0.00000000000E+00 -0.33670686925E+03  0.35915861974E+03  0.12499359316E+03 0.  0.
    9000005    1    3    3    0    0 -0.50504160058E+02  0.92657968440E+00 -0.62647607833E+02  0.80481373623E+02  0.10000000000E+01 0.  0.
    9000005    1    3    3    0    0  0.50504160058E+02 -0.92657968440E+00 -0.27405926142E+03  0.27867724612E+03  0.10000000000E+01 0.  0.
<mgrwt>
<rscale>  0 0.12499359E+03</rscale>
<asrwt>0</asrwt>
<pdfrwt beam="1">  1        4 0.28064700E-02 0.12499359E+03</pdfrwt>
<pdfrwt beam="2">  1       -4 0.86983150E-01 0.12499359E+03</pdfrwt>
<totfact> 0.11463569E+03</totfact>
</mgrwt>
</event>
<event>
 5    1  0.1448308E-002  0.1249983E+03  0.7818608E-02  0.1235072E+00
          4   -1    0    0  501    0  0.00000000000E+00  0.00000000000E+00  0.36535936121E+03  0.36536156848E+03  0.12700000000E+01 0. -1.
         -4   -1    0    0    0  501 -0.00000000000E+00 -0.00000000000E+00 -0.10651281751E+02  0.10726728436E+02  0.12700000000E+01 0. -1.
         25    2    1    2    0    0  0.00000000000E+00  0.00000000000E+00  0.35470807946E+03  0.37608829692E+03  0.12499834177E+03 0.  0.
    9000005    1    3    3    0    0  0.61223638631E+01 -0.15439903216E+02  0.35861127494E+03  0.35899710370E+03  0.10000000000E+01 0.  0.
    9000005    1    3    3    0    0 -0.61223638631E+01  0.15439903216E+02 -0.39031954822E+01  0.17091193217E+02  0.10000000000E+01 0.  0.
<mgrwt>
<rscale>  0 0.12499834E+03</rscale>
<asrwt>0</asrwt>
<pdfrwt beam="1">  1        4 0.91349535E-01 0.12499834E+03</pdfrwt>
<pdfrwt beam="2">  1       -4 0.26725275E-02 0.12499834E+03</pdfrwt>
<totfact> 0.11079331E+03</totfact>
</mgrwt>
</event>
<event>
 5    1  0.1448308E-002  0.1249892E+03  0.7818608E-02  0.1235086E+00
          4   -1    0    0  501    0  0.00000000000E+00  0.00000000000E+00  0.10417817734E+03  0.10418591812E+03  0.12700000000E+01 0.  1.
         -4   -1    0    0    0  501 -0.00000000000E+00 -0.00000000000E+00 -0.37469500548E+02  0.37491017208E+02  0.12700000000E+01 0.  1.
         25    2    1    2    0    0  0.00000000000E+00  0.00000000000E+00  0.66708676797E+02  0.14167693533E+03  0.12498922531E+03 0.  0.
    9000005    1    3    3    0    0 -0.20733562484E+02  0.24302782211E+02  0.94228015239E+02  0.99500877847E+02  0.10000000000E+01 0.  0.
    9000005    1    3    3    0    0  0.20733562484E+02 -0.24302782211E+02 -0.27519338442E+02  0.42176057483E+02  0.10000000000E+01 0.  0.
<mgrwt>
<rscale>  0 0.12498923E+03</rscale>
<asrwt>0</asrwt>
<pdfrwt beam="1">  1        4 0.26048201E-01 0.12498923E+03</pdfrwt>
<pdfrwt beam="2">  1       -4 0.93710324E-02 0.12498923E+03</pdfrwt>
<totfact> 0.18959641E+03</totfact>
</mgrwt>
</event>
<event>
 5    1  0.1448308E-002  0.1249985E+03  0.7818608E-02  0.1235072E+00
          4   -1    0    0  501    0  0.00000000000E+00  0.00000000000E+00  0.40064980385E+01  0.42029663968E+01  0.12700000000E+01 0. -1.
         -4   -1    0    0    0  501 -0.00000000000E+00 -0.00000000000E+00 -0.95142599584E+03  0.95142684346E+03  0.12700000000E+01 0. -1.
         25    2    1    2    0    0  0.00000000000E+00  0.00000000000E+00 -0.94741949780E+03  0.95562980986E+03  0.12499851470E+03 0.  0.
    9000005    1    3    3    0    0  0.27874380656E+02  0.55238204438E+02 -0.54075925147E+03  0.54428835039E+03  0.10000000000E+01 0.  0.
    9000005    1    3    3    0    0 -0.27874380656E+02 -0.55238204438E+02 -0.40666024633E+03  0.41134145947E+03  0.10000000000E+01 0.  0.
<mgrwt>
<rscale>  0 0.12499851E+03</rscale>
<asrwt>0</asrwt>
<pdfrwt beam="1">  1        4 0.10262923E-02 0.12499851E+03</pdfrwt>
<pdfrwt beam="2">  1       -4 0.23788041E+00 0.12499851E+03</pdfrwt>
<totfact> 0.40176996E+02</totfact>
</mgrwt>
</event>
<event>
 5    1  0.1448308E-002  0.1249972E+03  0.7818608E-02  0.1235074E+00
          4   -1    0    0  501    0  0.00000000000E+00  0.00000000000E+00  0.12095750745E+02  0.12162240176E+02  0.12700000000E+01 0.  1.
         -4   -1    0    0    0  501 -0.00000000000E+00 -0.00000000000E+00 -0.32197666246E+03  0.32197916714E+03  0.12700000000E+01 0.  1.
         25    2    1    2    0    0  0.00000000000E+00  0.00000000000E+00 -0.30988091172E+03  0.33414140731E+03  0.12499720251E+03 0.  0.
    9000005    1    3    3    0    0  0.41422718508E+02 -0.30028278412E+02 -0.59020338346E+02  0.78114911838E+02  0.10000000000E+01 0.  0.
    9000005    1    3    3    0    0 -0.41422718508E+02  0.30028278412E+02 -0.25086057337E+03  0.25602649547E+03  0.10000000000E+01 0.  0.
<mgrwt>
<rscale>  0 0.12499720E+03</rscale>
<asrwt>0</asrwt>
<pdfrwt beam="1">  1        4 0.30325630E-02 0.12499720E+03</pdfrwt>
<pdfrwt beam="2">  1       -4 0.80502762E-01 0.12499720E+03</pdfrwt>
<totfact> 0.12066168E+03</totfact>
</mgrwt>
</event>
<event>
 5    1  0.1448308E-002  0.1249960E+03  0.7818608E-02  0.1235075E+00
         -4   -1    0    0    0  501 -0.00000000000E+00  0.00000000000E+00  0.27288699053E+03  0.27288994577E+03  0.12700000000E+01 0.  1.
          4   -1    0    0  501    0  0.00000000000E+00 -0.00000000000E+00 -0.14282413519E+02  0.14338766891E+02  0.12700000000E+01 0.  1.
         25    2    1    2    0    0  0.00000000000E+00  0.00000000000E+00  0.25860457701E+03  0.28722871266E+03  0.12499602443E+03 0.  0.
    9000005    1    3    3    0    0 -0.24771371886E+02 -0.93822122831E+00  0.26111661832E+03  0.26229256468E+03  0.10000000000E+01 0.  0.
    9000005    1    3    3    0    0  0.24771371886E+02  0.93822122831E+00 -0.25120413118E+01  0.24936147974E+02  0.10000000000E+01 0.  0.
<mgrwt>
<rscale>  0 0.12499602E+03</rscale>
<asrwt>0</asrwt>
<pdfrwt beam="2">  1        4 0.35780172E-02 0.12499602E+03</pdfrwt>
<pdfrwt beam="1">  1       -4 0.68229157E-01 0.12499602E+03</pdfrwt>
<totfact> 0.13337914E+03</totfact>
</mgrwt>
</event>
<event>
 5    1  0.1448308E-002  0.1250051E+03  0.7818608E-02  0.1235061E+00
          4   -1    0    0  501    0  0.00000000000E+00  0.00000000000E+00  0.13811493798E+03  0.13812077683E+03  0.12700000000E+01 0.  1.
         -4   -1    0    0    0  501 -0.00000000000E+00 -0.00000000000E+00 -0.28264192622E+02  0.28292710803E+02  0.12700000000E+01 0.  1.
         25    2    1    2    0    0  0.00000000000E+00  0.00000000000E+00  0.10985074535E+03  0.16641348763E+03  0.12500505034E+03 0.  0.
    9000005    1    3    3    0    0 -0.24366276330E+02  0.57424102456E+02  0.49887197949E+02  0.79881008283E+02  0.10000000000E+01 0.  0.
    9000005    1    3    3    0    0  0.24366276330E+02 -0.57424102456E+02  0.59963547404E+02  0.86532479349E+02  0.10000000000E+01 0.  0.
<mgrwt>
<rscale>  0 0.12500505E+03</rscale>
<asrwt>0</asrwt>
<pdfrwt beam="1">  1        4 0.34533029E-01 0.12500505E+03</pdfrwt>
<pdfrwt beam="2">  1       -4 0.70703428E-02 0.12500505E+03</pdfrwt>
<totfact> 0.17757955E+03</totfact>
</mgrwt>
</event>
<event>
 5    1  0.1448308E-002  0.1250002E+03  0.7818608E-02  0.1235069E+00
         -4   -1    0    0    0  501 -0.00000000000E+00  0.00000000000E+00  0.13707490502E+03  0.13708078817E+03  0.12700000000E+01 0. -1.
          4   -1    0    0  501    0  0.00000000000E+00 -0.00000000000E+00 -0.28476643867E+02  0.28504949499E+02  0.12700000000E+01 0. -1.
         25    2    1    2    0    0  0.00000000000E+00  0.00000000000E+00  0.10859826115E+03  0.16558573767E+03  0.12500021678E+03 0.  0.
    9000005    1    3    3    0    0  0.23445163453E+02  0.39559691724E+02  0.11035404743E+03  0.11955609848E+03  0.10000000000E+01 0.  0.
    9000005    1    3    3    0    0 -0.23445163453E+02 -0.39559691724E+02 -0.17557862812E+01  0.46029639192E+02  0.10000000000E+01 0.  0.
<mgrwt>
<rscale>  0 0.12500022E+03</rscale>
<asrwt>0</asrwt>
<pdfrwt beam="2">  1        4 0.71234348E-02 0.12500022E+03</pdfrwt>
<pdfrwt beam="1">  1       -4 0.34272999E-01 0.12500022E+03</pdfrwt>
<totfact> 0.17797917E+03</totfact>
</mgrwt>
</event>
<event>
 5    1  0.1448308E-002  0.1250007E+03  0.7818608E-02  0.1235068E+00
          4   -1    0    0  501    0  0.00000000000E+00  0.00000000000E+00  0.45444716887E+03  0.45444894344E+03  0.12700000000E+01 0.  1.
         -4   -1    0    0    0  501 -0.00000000000E+00 -0.00000000000E+00 -0.85469980731E+01  0.86408376944E+01  0.12700000000E+01 0.  1.
         25    2    1    2    0    0  0.00000000000E+00  0.00000000000E+00  0.44590017080E+03  0.46308978114E+03  0.12500073230E+03 0.  0.
    9000005    1    3    3    0    0  0.57486787954E+02 -0.13614796619E+02  0.14746128713E+03  0.15885819047E+03  0.10000000000E+01 0.  0.
    9000005    1    3    3    0    0 -0.57486787954E+02  0.13614796619E+02  0.29843888367E+03  0.30423159067E+03  0.10000000000E+01 0.  0.
<mgrwt>
<rscale>  0 0.12500073E+03</rscale>
<asrwt>0</asrwt>
<pdfrwt beam="1">  1        4 0.11362374E+00 0.12500073E+03</pdfrwt>
<pdfrwt beam="2">  1       -4 0.21487014E-02 0.12500073E+03</pdfrwt>
<totfact> 0.93711962E+02</totfact>
</mgrwt>
</event>
<event>
 5    1  0.1448308E-002  0.1249898E+03  0.7818608E-02  0.1235085E+00
          4   -1    0    0  501    0  0.00000000000E+00  0.00000000000E+00  0.48286212443E+01  0.49928431901E+01  0.12700000000E+01 0. -1.
         -4   -1    0    0    0  501 -0.00000000000E+00 -0.00000000000E+00 -0.79515686437E+03  0.79515787857E+03  0.12700000000E+01 0. -1.
         25    2    1    2    0    0  0.00000000000E+00  0.00000000000E+00 -0.79032824313E+03  0.80015072176E+03  0.12498978220E+03 0.  0.
    9000005    1    3    3    0    0 -0.46974729780E+02  0.39258749012E+02 -0.31501795028E+03  0.32091304681E+03  0.10000000000E+01 0.  0.
    9000005    1    3    3    0    0  0.46974729780E+02 -0.39258749012E+02 -0.47531029285E+03  0.47923767496E+03  0.10000000000E+01 0.  0.
<mgrwt>
<rscale>  0 0.12498978E+03</rscale>
<asrwt>0</asrwt>
<pdfrwt beam="1">  1        4 0.12278125E-02 0.12498978E+03</pdfrwt>
<pdfrwt beam="2">  1       -4 0.19880943E+00 0.12498978E+03</pdfrwt>
<totfact> 0.52477256E+02</totfact>
</mgrwt>
</event>
<event>
 5    1  0.1448308E-002  0.1250002E+03  0.7818608E-02  0.1235069E+00
         -4   -1    0    0    0  501 -0.00000000000E+00  0.00000000000E+00  0.23630674821E+03  0.23631016091E+03  0.12700000000E+01 0.  1.
          4   -1    0    0  501    0  0.00000000000E+00 -0.00000000000E+00 -0.16502551393E+02  0.16551347452E+02  0.12700000000E+01 0.  1.
         25    2    1    2    0    0  0.00000000000E+00  0.00000000000E+00  0.21980419682E+03  0.25286150836E+03  0.12500022989E+03 0.  0.
    9000005    1    3    3    0    0 -0.53022569560E+01 -0.54510384067E+02  0.17078292096E+03  0.17935245187E+03  0.10000000000E+01 0.  0.
    9000005    1    3    3    0    0  0.53022569560E+01  0.54510384067E+02  0.49021275859E+02  0.73509056495E+02  0.10000000000E+01 0.  0.
<mgrwt>
<rscale>  0 0.12500023E+03</rscale>
<asrwt>0</asrwt>
<pdfrwt beam="2">  1        4 0.41321640E-02 0.12500023E+03</pdfrwt>
<pdfrwt beam="1">  1       -4 0.59083212E-01 0.12500023E+03</pdfrwt>
<totfact> 0.14403203E+03</totfact>
</mgrwt>
</event>
<event>
 5    1  0.1448308E-002  0.1250005E+03  0.7818608E-02  0.1235069E+00
          4   -1    0    0  501    0  0.00000000000E+00  0.00000000000E+00  0.15208882860E+03  0.15209413100E+03  0.12700000000E+01 0.  1.
         -4   -1    0    0    0  501 -0.00000000000E+00 -0.00000000000E+00 -0.25662754646E+02  0.25694160348E+02  0.12700000000E+01 0.  1.
         25    2    1    2    0    0  0.00000000000E+00  0.00000000000E+00  0.12642607396E+03  0.17778829135E+03  0.12500049746E+03 0.  0.
    9000005    1    3    3    0    0 -0.55073496721E+02 -0.12007973769E+02  0.10158879703E+03  0.11618332564E+03  0.10000000000E+01 0.  0.
    9000005    1    3    3    0    0  0.55073496721E+02  0.12007973769E+02  0.24837276927E+02  0.61604965711E+02  0.10000000000E+01 0.  0.
<mgrwt>
<rscale>  0 0.12500050E+03</rscale>
<asrwt>0</asrwt>
<pdfrwt beam="1">  1        4 0.38026795E-01 0.12500050E+03</pdfrwt>
<pdfrwt beam="2">  1       -4 0.64202773E-02 0.12500050E+03</pdfrwt>
<totfact> 0.17251178E+03</totfact>
</mgrwt>
</event>
<event>
 5    1  0.1448308E-002  0.1250098E+03  0.7818608E-02  0.1235054E+00
          4   -1    0    0  501    0  0.00000000000E+00  0.00000000000E+00  0.19971919341E+03  0.19972323128E+03  0.12700000000E+01 0.  1.
         -4   -1    0    0    0  501 -0.00000000000E+00 -0.00000000000E+00 -0.19536910293E+02  0.19578145055E+02  0.12700000000E+01 0.  1.
         25    2    1    2    0    0  0.00000000000E+00  0.00000000000E+00  0.18018228311E+03  0.21930137634E+03  0.12500975369E+03 0.  0.
    9000005    1    3    3    0    0 -0.49140100046E+02  0.12138007974E+02  0.25783678610E+02  0.56814423810E+02  0.10000000000E+01 0.  0.
    9000005    1    3    3    0    0  0.49140100046E+02 -0.12138007974E+02  0.15439860450E+03  0.16248695253E+03  0.10000000000E+01 0.  0.
<mgrwt>
<rscale>  0 0.12500975E+03</rscale>
<asrwt>0</asrwt>
<pdfrwt beam="1">  1        4 0.49935457E-01 0.12500975E+03</pdfrwt>
<pdfrwt beam="2">  1       -4 0.48898867E-02 0.12500975E+03</pdfrwt>
<totfact> 0.15573778E+03</totfact>
</mgrwt>
</event>
<event>
 5    1  0.1448308E-002  0.1250012E+03  0.7818608E-02  0.1235067E+00
         -4   -1    0    0    0  501 -0.00000000000E+00  0.00000000000E+00  0.67780370268E+03  0.67780489248E+03  0.12700000000E+01 0.  1.
          4   -1    0    0  501    0  0.00000000000E+00 -0.00000000000E+00 -0.56920324500E+01  0.58319922335E+01  0.12700000000E+01 0.  1.
         25    2    1    2    0    0  0.00000000000E+00  0.00000000000E+00  0.67211167023E+03  0.68363688471E+03  0.12500117151E+03 0.  0.
    9000005    1    3    3    0    0 -0.12720344609E+01  0.27457210416E+02  0.64299574233E+03  0.64358374834E+03  0.10000000000E+01 0.  0.
    9000005    1    3    3    0    0  0.12720344609E+01 -0.27457210416E+02  0.29115927899E+02  0.40053136368E+02  0.10000000000E+01 0.  0.
<mgrwt>
<rscale>  0 0.12500117E+03</rscale>
<asrwt>0</asrwt>
<pdfrwt beam="2">  1        4 0.14406518E-02 0.12500117E+03</pdfrwt>
<pdfrwt beam="1">  1       -4 0.16946857E+00 0.12500117E+03</pdfrwt>
<totfact> 0.63788028E+02</totfact>
</mgrwt>
</event>
<event>
 5    1  0.1448308E-002  0.1250014E+03  0.7818608E-02  0.1235067E+00
          4   -1    0    0  501    0  0.00000000000E+00  0.00000000000E+00  0.42248368715E+02  0.42267452715E+02  0.12700000000E+01 0. -1.
         -4   -1    0    0    0  501 -0.00000000000E+00 -0.00000000000E+00 -0.92416881638E+02  0.92425607446E+02  0.12700000000E+01 0. -1.
         25    2    1    2    0    0  0.00000000000E+00  0.00000000000E+00 -0.50168512924E+02  0.13469306016E+03  0.12500136306E+03 0.  0.
    9000005    1    3    3    0    0 -0.30685173762E+01 -0.16996444346E+01  0.42147487998E+02  0.42305027298E+02  0.10000000000E+01 0.  0.
    9000005    1    3    3    0    0  0.30685173762E+01  0.16996444346E+01 -0.92316000922E+02  0.92388032863E+02  0.10000000000E+01 0.  0.
<mgrwt>
<rscale>  0 0.12500136E+03</rscale>
<asrwt>0</asrwt>
<pdfrwt beam="1">  1        4 0.10565569E-01 0.12500136E+03</pdfrwt>
<pdfrwt beam="2">  1       -4 0.23107696E-01 0.12500136E+03</pdfrwt>
<totfact> 0.19314612E+03</totfact>
</mgrwt>
</event>
<event>
 5    1  0.1448308E-002  0.1249992E+03  0.7818608E-02  0.1235071E+00
          4   -1    0    0  501    0  0.00000000000E+00  0.00000000000E+00  0.27818988173E+02  0.27847962277E+02  0.12700000000E+01 0.  1.
         -4   -1    0    0    0  501 -0.00000000000E+00 -0.00000000000E+00 -0.14030997748E+03  0.14031572499E+03  0.12700000000E+01 0.  1.
         25    2    1    2    0    0  0.00000000000E+00  0.00000000000E+00 -0.11249098931E+03  0.16816368727E+03  0.12499921216E+03 0.  0.
    9000005    1    3    3    0    0  0.10530076231E+02  0.19626341358E+01  0.26581378587E+02  0.28675845686E+02  0.10000000000E+01 0.  0.
    9000005    1    3    3    0    0 -0.10530076231E+02 -0.19626341358E+01 -0.13907236790E+03  0.13948784159E+03  0.10000000000E+01 0.  0.
<mgrwt>
<rscale>  0 0.12499921E+03</rscale>
<asrwt>0</asrwt>
<pdfrwt beam="1">  1        4 0.69590876E-02 0.12499921E+03</pdfrwt>
<pdfrwt beam="2">  1       -4 0.35081833E-01 0.12499921E+03</pdfrwt>
<totfact> 0.17680516E+03</totfact>
</mgrwt>
</event>
<event>
 5    1  0.1448308E-002  0.1249987E+03  0.7818608E-02  0.1235071E+00
          4   -1    0    0  501    0  0.00000000000E+00  0.00000000000E+00  0.16903759414E+03  0.16904236490E+03  0.12700000000E+01 0. -1.
         -4   -1    0    0    0  501 -0.00000000000E+00 -0.00000000000E+00 -0.23085728753E+02  0.23120635200E+02  0.12700000000E+01 0. -1.
         25    2    1    2    0    0  0.00000000000E+00  0.00000000000E+00  0.14595186539E+03  0.19216300010E+03  0.12499868639E+03 0.  0.
    9000005    1    3    3    0    0 -0.18755971305E+02 -0.89985011884E+01  0.16356582044E+03  0.16488643698E+03  0.10000000000E+01 0.  0.
    9000005    1    3    3    0    0  0.18755971305E+02  0.89985011884E+01 -0.17613955055E+02  0.27276563125E+02  0.10000000000E+01 0.  0.
<mgrwt>
<rscale>  0 0.12499869E+03</rscale>
<asrwt>0</asrwt>
<pdfrwt beam="1">  1        4 0.42264357E-01 0.12499869E+03</pdfrwt>
<pdfrwt beam="2">  1       -4 0.57763920E-02 0.12499869E+03</pdfrwt>
<totfact> 0.16641238E+03</totfact>
</mgrwt>
</event>
<event>
 5    1  0.1448308E-002  0.1249996E+03  0.7818608E-02  0.1235070E+00
         -4   -1    0    0    0  501 -0.00000000000E+00  0.00000000000E+00  0.14292809666E+03  0.14293373890E+03  0.12700000000E+01 0. -1.
          4   -1    0    0  501    0  0.00000000000E+00 -0.00000000000E+00 -0.27309072982E+02  0.27338587512E+02  0.12700000000E+01 0. -1.
         25    2    1    2    0    0  0.00000000000E+00  0.00000000000E+00  0.11561902368E+03  0.17027232641E+03  0.12499962602E+03 0.  0.
    9000005    1    3    3    0    0 -0.42725996063E+02 -0.89698635611E+01 -0.30978397889E+01  0.43778599832E+02  0.10000000000E+01 0.  0.
    9000005    1    3    3    0    0  0.42725996063E+02  0.89698635611E+01  0.11871686347E+03  0.12649372658E+03  0.10000000000E+01 0.  0.
<mgrwt>
<rscale>  0 0.12499963E+03</rscale>
<asrwt>0</asrwt>
<pdfrwt beam="2">  1        4 0.68316630E-02 0.12499963E+03</pdfrwt>
<pdfrwt beam="1">  1       -4 0.35736418E-01 0.12499963E+03</pdfrwt>
<totfact> 0.17584924E+03</totfact>
</mgrwt>
</event>
<event>
 5    1  0.1448308E-002  0.1250012E+03  0.7818608E-02  0.1235067E+00
          4   -1    0    0  501    0  0.00000000000E+00  0.00000000000E+00  0.16923063812E+04  0.16923068577E+04  0.12700000000E+01 0.  1.
         -4   -1    0    0    0  501 -0.00000000000E+00 -0.00000000000E+00 -0.21330838446E+01  0.24825282855E+01  0.12700000000E+01 0.  1.
         25    2    1    2    0    0  0.00000000000E+00  0.00000000000E+00  0.16901732973E+04  0.16947893860E+04  0.12500115154E+03 0.  0.
    9000005    1    3    3    0    0 -0.62329611983E+02 -0.31616578287E+01  0.88869549122E+03  0.89088475839E+03  0.10000000000E+01 0.  0.
    9000005    1    3    3    0    0  0.62329611983E+02  0.31616578287E+01  0.80147780610E+03  0.80390462760E+03  0.10000000000E+01 0.  0.
<mgrwt>
<rscale>  0 0.12500115E+03</rscale>
<asrwt>0</asrwt>
<pdfrwt beam="1">  1        4 0.42312037E+00 0.12500115E+03</pdfrwt>
<pdfrwt beam="2">  1       -4 0.57701104E-03 0.12500115E+03</pdfrwt>
<totfact> 0.71854554E+01</totfact>
</mgrwt>
</event>
<event>
 5    1  0.1448308E-002  0.1249997E+03  0.7818608E-02  0.1235070E+00
         -4   -1    0    0    0  501 -0.00000000000E+00  0.00000000000E+00  0.13960864860E+03  0.13961442498E+03  0.12700000000E+01 0. -1.
          4   -1    0    0  501    0  0.00000000000E+00 -0.00000000000E+00 -0.27959092775E+02  0.27987921838E+02  0.12700000000E+01 0. -1.
         25    2    1    2    0    0  0.00000000000E+00  0.00000000000E+00  0.11164955582E+03  0.16760234682E+03  0.12499969338E+03 0.  0.
    9000005    1    3    3    0    0 -0.54751770167E+02  0.29511188939E+02  0.63932509191E+02  0.89202199191E+02  0.10000000000E+01 0.  0.
    9000005    1    3    3    0    0  0.54751770167E+02 -0.29511188939E+02  0.47717046629E+02  0.78400147628E+02  0.10000000000E+01 0.  0.
<mgrwt>
<rscale>  0 0.12499969E+03</rscale>
<asrwt>0</asrwt>
<pdfrwt beam="2">  1        4 0.69940990E-02 0.12499969E+03</pdfrwt>
<pdfrwt beam="1">  1       -4 0.34906487E-01 0.12499969E+03</pdfrwt>
<totfact> 0.17705863E+03</totfact>
</mgrwt>
</event>
<event>
 5    1  0.1448308E-002  0.1250029E+03  0.7818608E-02  0.1235065E+00
         -4   -1    0    0    0  501 -0.00000000000E+00  0.00000000000E+00  0.13219379825E+03  0.13219989863E+03  0.12700000000E+01 0.  1.
          4   -1    0    0  501    0  0.00000000000E+00 -0.00000000000E+00 -0.29530337254E+02  0.29557633842E+02  0.12700000000E+01 0.  1.
         25    2    1    2    0    0  0.00000000000E+00  0.00000000000E+00  0.10266346100E+03  0.16175753247E+03  0.12500285231E+03 0.  0.
    9000005    1    3    3    0    0 -0.36770533586E+02 -0.33870220531E+02  0.99856404147E+02  0.11167616321E+03  0.10000000000E+01 0.  0.
    9000005    1    3    3    0    0  0.36770533586E+02  0.33870220531E+02  0.28070568534E+01  0.50081369263E+02  0.10000000000E+01 0.  0.
<mgrwt>
<rscale>  0 0.12500285E+03</rscale>
<asrwt>0</asrwt>
<pdfrwt beam="2">  1        4 0.73867591E-02 0.12500285E+03</pdfrwt>
<pdfrwt beam="1">  1       -4 0.33052623E-01 0.12500285E+03</pdfrwt>
<totfact> 0.17974163E+03</totfact>
</mgrwt>
</event>
<event>
 5    1  0.1448308E-002  0.1250009E+03  0.7818608E-02  0.1235068E+00
          4   -1    0    0  501    0  0.00000000000E+00  0.00000000000E+00  0.11102250798E+02  0.11174653140E+02  0.12700000000E+01 0. -1.
         -4   -1    0    0    0  501 -0.00000000000E+00 -0.00000000000E+00 -0.35063075843E+03  0.35063305842E+03  0.12700000000E+01 0. -1.
         25    2    1    2    0    0  0.00000000000E+00  0.00000000000E+00 -0.33952850763E+03  0.36180771156E+03  0.12500085060E+03 0.  0.
    9000005    1    3    3    0    0 -0.23431681458E+02 -0.20120322099E+02 -0.12517659031E+02  0.33340108653E+02  0.10000000000E+01 0.  0.
    9000005    1    3    3    0    0  0.23431681458E+02  0.20120322099E+02 -0.32701084860E+03  0.32846760291E+03  0.10000000000E+01 0.  0.
<mgrwt>
<rscale>  0 0.12500085E+03</rscale>
<asrwt>0</asrwt>
<pdfrwt beam="1">  1        4 0.27849017E-02 0.12500085E+03</pdfrwt>
<pdfrwt beam="2">  1       -4 0.87666991E-01 0.12500085E+03</pdfrwt>
<totfact> 0.11400463E+03</totfact>
</mgrwt>
</event>
<event>
 5    1  0.1448308E-002  0.1249963E+03  0.7818608E-02  0.1235075E+00
          4   -1    0    0  501    0  0.00000000000E+00  0.00000000000E+00  0.35431421840E+03  0.35431649448E+03  0.12700000000E+01 0. -1.
         -4   -1    0    0    0  501 -0.00000000000E+00 -0.00000000000E+00 -0.10985278863E+02  0.11058447075E+02  0.12700000000E+01 0. -1.
         25    2    1    2    0    0  0.00000000000E+00  0.00000000000E+00  0.34332893954E+03  0.36537494156E+03  0.12499634872E+03 0.  0.
    9000005    1    3    3    0    0 -0.50134310836E+02  0.55797047830E+01  0.63849004952E+02  0.81377378072E+02  0.10000000000E+01 0.  0.
    9000005    1    3    3    0    0  0.50134310836E+02 -0.55797047830E+01  0.27947993459E+03  0.28399756349E+03  0.10000000000E+01 0.  0.
<mgrwt>
<rscale>  0 0.12499635E+03</rscale>
<asrwt>0</asrwt>
<pdfrwt beam="1">  1        4 0.88587983E-01 0.12499635E+03</pdfrwt>
<pdfrwt beam="2">  1       -4 0.27557503E-02 0.12499635E+03</pdfrwt>
<totfact> 0.11319965E+03</totfact>
</mgrwt>
</event>
<event>
 5    1  0.1448308E-002  0.1250028E+03  0.7818608E-02  0.1235065E+00
         -4   -1    0    0    0  501 -0.00000000000E+00  0.00000000000E+00  0.83899423707E+02  0.83909035261E+02  0.12700000000E+01 0.  1.
          4   -1    0    0  501    0  0.00000000000E+00 -0.00000000000E+00 -0.46539875265E+02  0.46557200192E+02  0.12700000000E+01 0.  1.
         25    2    1    2    0    0  0.00000000000E+00  0.00000000000E+00  0.37359548442E+02  0.13046623545E+03  0.12500281090E+03 0.  0.
    9000005    1    3    3    0    0  0.53451189585E+02  0.26770839835E+02 -0.32938767295E+00  0.59789765259E+02  0.10000000000E+01 0.  0.
    9000005    1    3    3    0    0 -0.53451189585E+02 -0.26770839835E+02  0.37688936115E+02  0.70676470193E+02  0.10000000000E+01 0.  0.
<mgrwt>
<rscale>  0 0.12500281E+03</rscale>
<asrwt>0</asrwt>
<pdfrwt beam="2">  1        4 0.11638336E-01 0.12500281E+03</pdfrwt>
<pdfrwt beam="1">  1       -4 0.20978223E-01 0.12500281E+03</pdfrwt>
<totfact> 0.19538069E+03</totfact>
</mgrwt>
</event>
<event>
 5    1  0.1448308E-002  0.1250024E+03  0.7818608E-02  0.1235066E+00
          4   -1    0    0  501    0  0.00000000000E+00  0.00000000000E+00  0.74000353991E+01  0.75082237519E+01  0.12700000000E+01 0.  1.
         -4   -1    0    0    0  501 -0.00000000000E+00 -0.00000000000E+00 -0.52394934723E+03  0.52395088641E+03  0.12700000000E+01 0.  1.
         25    2    1    2    0    0  0.00000000000E+00  0.00000000000E+00 -0.51654931183E+03  0.53145911016E+03  0.12500237683E+03 0.  0.
    9000005    1    3    3    0    0  0.39962562004E+02  0.33806265168E+02 -0.40342332486E+03  0.40680615650E+03  0.10000000000E+01 0.  0.
    9000005    1    3    3    0    0 -0.39962562004E+02 -0.33806265168E+02 -0.11312598697E+03  0.12465295366E+03  0.10000000000E+01 0.  0.
<mgrwt>
<rscale>  0 0.12500238E+03</rscale>
<asrwt>0</asrwt>
<pdfrwt beam="1">  1        4 0.18637266E-02 0.12500238E+03</pdfrwt>
<pdfrwt beam="2">  1       -4 0.13100093E+00 0.12500238E+03</pdfrwt>
<totfact> 0.82806949E+02</totfact>
</mgrwt>
</event>
<event>
 5    1  0.1448308E-002  0.1249982E+03  0.7818608E-02  0.1235072E+00
          4   -1    0    0  501    0  0.00000000000E+00  0.00000000000E+00  0.65266349765E+02  0.65278704887E+02  0.12700000000E+01 0. -1.
         -4   -1    0    0    0  501 -0.00000000000E+00 -0.00000000000E+00 -0.59824454975E+02  0.59837933730E+02  0.12700000000E+01 0. -1.
         25    2    1    2    0    0  0.00000000000E+00  0.00000000000E+00  0.54418947901E+01  0.12511663862E+03  0.12499823615E+03 0.  0.
    9000005    1    3    3    0    0 -0.20047237508E+02 -0.57630290121E+02 -0.10782483306E+02  0.61970993354E+02  0.10000000000E+01 0.  0.
    9000005    1    3    3    0    0  0.20047237508E+02  0.57630290121E+02  0.16224378096E+02  0.63145645263E+02  0.10000000000E+01 0.  0.
<mgrwt>
<rscale>  0 0.12499824E+03</rscale>
<asrwt>0</asrwt>
<pdfrwt beam="1">  1        4 0.16319817E-01 0.12499824E+03</pdfrwt>
<pdfrwt beam="2">  1       -4 0.14959343E-01 0.12499824E+03</pdfrwt>
<totfact> 0.19829549E+03</totfact>
</mgrwt>
</event>
<event>
 5    1  0.1448308E-002  0.1249999E+03  0.7818608E-02  0.1235069E+00
          4   -1    0    0  501    0  0.00000000000E+00  0.00000000000E+00  0.12250753520E+02  0.12316406205E+02  0.12700000000E+01 0. -1.
         -4   -1    0    0    0  501 -0.00000000000E+00 -0.00000000000E+00 -0.31793825941E+03  0.31794079590E+03  0.12700000000E+01 0. -1.
         25    2    1    2    0    0  0.00000000000E+00  0.00000000000E+00 -0.30568750589E+03  0.33025720210E+03  0.12499987314E+03 0.  0.
    9000005    1    3    3    0    0  0.54142486342E+02 -0.31149414033E+02 -0.15781984690E+03  0.16973449530E+03  0.10000000000E+01 0.  0.
    9000005    1    3    3    0    0 -0.54142486342E+02  0.31149414033E+02 -0.14786765899E+03  0.16052270680E+03  0.10000000000E+01 0.  0.
<mgrwt>
<rscale>  0 0.12499987E+03</rscale>
<asrwt>0</asrwt>
<pdfrwt beam="1">  1        4 0.30712131E-02 0.12499987E+03</pdfrwt>
<pdfrwt beam="2">  1       -4 0.79493061E-01 0.12499987E+03</pdfrwt>
<totfact> 0.12163536E+03</totfact>
</mgrwt>
</event>
<event>
 5    1  0.1448308E-002  0.1249972E+03  0.7818608E-02  0.1235074E+00
          4   -1    0    0  501    0  0.00000000000E+00  0.00000000000E+00  0.16626780101E+02  0.16675212638E+02  0.12700000000E+01 0. -1.
         -4   -1    0    0    0  501 -0.00000000000E+00 -0.00000000000E+00 -0.23453493636E+03  0.23453837485E+03  0.12700000000E+01 0. -1.
         25    2    1    2    0    0  0.00000000000E+00  0.00000000000E+00 -0.21790815626E+03  0.25121358748E+03  0.12499720785E+03 0.  0.
    9000005    1    3    3    0    0 -0.37922466762E+02  0.49512178512E+02 -0.10104009148E+03  0.11874202875E+03  0.10000000000E+01 0.  0.
    9000005    1    3    3    0    0  0.37922466762E+02 -0.49512178512E+02 -0.11686806478E+03  0.13247155873E+03  0.10000000000E+01 0.  0.
<mgrwt>
<rscale>  0 0.12499721E+03</rscale>
<asrwt>0</asrwt>
<pdfrwt beam="1">  1        4 0.41631797E-02 0.12499721E+03</pdfrwt>
<pdfrwt beam="2">  1       -4 0.58640207E-01 0.12499721E+03</pdfrwt>
<totfact> 0.14458633E+03</totfact>
</mgrwt>
</event>
<event>
 5    1  0.1448308E-002  0.1249987E+03  0.7818608E-02  0.1235071E+00
          4   -1    0    0  501    0  0.00000000000E+00  0.00000000000E+00  0.54707576151E+01  0.56162344043E+01  0.12700000000E+01 0. -1.
         -4   -1    0    0    0  501 -0.00000000000E+00 -0.00000000000E+00 -0.70449392241E+03  0.70449506713E+03  0.12700000000E+01 0. -1.
         25    2    1    2    0    0  0.00000000000E+00  0.00000000000E+00 -0.69902316480E+03  0.71011130154E+03  0.12499870259E+03 0.  0.
    9000005    1    3    3    0    0  0.57894301656E+02  0.23524820115E+02 -0.34973786451E+03  0.35527839957E+03  0.10000000000E+01 0.  0.
    9000005    1    3    3    0    0 -0.57894301656E+02 -0.23524820115E+02 -0.34928530028E+03  0.35483290197E+03  0.10000000000E+01 0.  0.
<mgrwt>
<rscale>  0 0.12499870E+03</rscale>
<asrwt>0</asrwt>
<pdfrwt beam="1">  1        4 0.13860195E-02 0.12499870E+03</pdfrwt>
<pdfrwt beam="2">  1       -4 0.17614150E+00 0.12499870E+03</pdfrwt>
<totfact> 0.61020899E+02</totfact>
</mgrwt>
</event>
<event>
 4    1  0.1448308E-002  0.1266896E+03  0.7818608E-02  0.1232452E+00
         -4   -1    0    0    0  501 -0.00000000000E+00  0.00000000000E+00  0.22643981915E+02  0.22679568271E+02  0.12700000000E+01 0. -1.
          4   -1    0    0  501    0  0.00000000000E+00 -0.00000000000E+00 -0.17702519605E+03  0.17702975156E+03  0.12700000000E+01 0. -1.
    9000005    1    1    2    0    0 -0.65262807272E+01  0.20593799042E+02 -0.17104558773E+03  0.17240733737E+03  0.10000000000E+01 0.  0.
    9000005    1    1    2    0    0  0.65262807272E+01 -0.20593799042E+02  0.16664373588E+02  0.27301982459E+02  0.10000000000E+01 0.  0.
<mgrwt>
<rscale>  0 0.12668959E+03</rscale>
<asrwt>0</asrwt>
<pdfrwt beam="2">  1        4 0.44261313E-01 0.12668959E+03</pdfrwt>
<pdfrwt beam="1">  1       -4 0.56660137E-02 0.12668959E+03</pdfrwt>
<totfact> 0.15711446E+03</totfact>
</mgrwt>
</event>
<event>
 5    1  0.1448308E-002  0.1249998E+03  0.7818608E-02  0.1235070E+00
          4   -1    0    0  501    0  0.00000000000E+00  0.00000000000E+00  0.28203408147E+02  0.28231987728E+02  0.12700000000E+01 0. -1.
         -4   -1    0    0    0  501 -0.00000000000E+00 -0.00000000000E+00 -0.13840064446E+03  0.13840647126E+03  0.12700000000E+01 0. -1.
         25    2    1    2    0    0  0.00000000000E+00  0.00000000000E+00 -0.11019723631E+03  0.16663845899E+03  0.12499978049E+03 0.  0.
    9000005    1    3    3    0    0 -0.29507247940E+02  0.11863216019E+02 -0.12681228847E+03  0.13074314545E+03  0.10000000000E+01 0.  0.
    9000005    1    3    3    0    0  0.29507247940E+02 -0.11863216019E+02  0.16615052162E+02  0.35895313533E+02  0.10000000000E+01 0.  0.
<mgrwt>
<rscale>  0 0.12499978E+03</rscale>
<asrwt>0</asrwt>
<pdfrwt beam="1">  1        4 0.70551532E-02 0.12499978E+03</pdfrwt>
<pdfrwt beam="2">  1       -4 0.34604460E-01 0.12499978E+03</pdfrwt>
<totfact> 0.17749832E+03</totfact>
</mgrwt>
</event>
<event>
 5    1  0.1448308E-002  0.1249997E+03  0.7818608E-02  0.1235070E+00
         -4   -1    0    0    0  501 -0.00000000000E+00  0.00000000000E+00  0.73527708721E+02  0.73538675877E+02  0.12700000000E+01 0. -1.
          4   -1    0    0  501    0  0.00000000000E+00 -0.00000000000E+00 -0.53103463751E+02  0.53118647972E+02  0.12700000000E+01 0. -1.
         25    2    1    2    0    0  0.00000000000E+00  0.00000000000E+00  0.20424244970E+02  0.12665732385E+03  0.12499971161E+03 0.  0.
    9000005    1    3    3    0    0 -0.40535538034E+02 -0.41904990659E+02  0.33006527573E+02  0.67004394992E+02  0.10000000000E+01 0.  0.
    9000005    1    3    3    0    0  0.40535538034E+02  0.41904990659E+02 -0.12582282603E+02  0.59652928858E+02  0.10000000000E+01 0.  0.
<mgrwt>
<rscale>  0 0.12499971E+03</rscale>
<asrwt>0</asrwt>
<pdfrwt beam="2">  1        4 0.13279135E-01 0.12499971E+03</pdfrwt>
<pdfrwt beam="1">  1       -4 0.18385196E-01 0.12499971E+03</pdfrwt>
<totfact> 0.19745574E+03</totfact>
</mgrwt>
</event>
<event>
 5    1  0.1448308E-002  0.1250017E+03  0.7818608E-02  0.1235067E+00
          4   -1    0    0  501    0  0.00000000000E+00  0.00000000000E+00  0.71941945406E+01  0.73054318892E+01  0.12700000000E+01 0. -1.
         -4   -1    0    0    0  501 -0.00000000000E+00 -0.00000000000E+00 -0.53870997334E+03  0.53871147034E+03  0.12700000000E+01 0. -1.
         25    2    1    2    0    0  0.00000000000E+00  0.00000000000E+00 -0.53151577880E+03  0.54601690223E+03  0.12500173762E+03 0.  0.
    9000005    1    3    3    0    0 -0.61328420484E+02  0.11791870617E+02 -0.27565640320E+03  0.28264408006E+03  0.10000000000E+01 0.  0.
    9000005    1    3    3    0    0  0.61328420484E+02 -0.11791870617E+02 -0.25585937560E+03  0.26337282217E+03  0.10000000000E+01 0.  0.
<mgrwt>
<rscale>  0 0.12500174E+03</rscale>
<asrwt>0</asrwt>
<pdfrwt beam="1">  1        4 0.18126423E-02 0.12500174E+03</pdfrwt>
<pdfrwt beam="2">  1       -4 0.13469145E+00 0.12500174E+03</pdfrwt>
<totfact> 0.80721325E+02</totfact>
</mgrwt>
</event>
<event>
 5    1  0.1448308E-002  0.1250165E+03  0.7818608E-02  0.1235043E+00
          4   -1    0    0  501    0  0.00000000000E+00  0.00000000000E+00  0.13953967299E+03  0.13954545223E+03  0.12700000000E+01 0. -1.
         -4   -1    0    0    0  501 -0.00000000000E+00 -0.00000000000E+00 -0.27980468023E+02  0.28009275085E+02  0.12700000000E+01 0. -1.
         25    2    1    2    0    0  0.00000000000E+00  0.00000000000E+00  0.11155920496E+03  0.16755472731E+03  0.12501652064E+03 0.  0.
    9000005    1    3    3    0    0  0.49624848911E+02 -0.91841207594E+01  0.10519341447E+03  0.11667745348E+03  0.10000000000E+01 0.  0.
    9000005    1    3    3    0    0 -0.49624848911E+02  0.91841207594E+01  0.63657904948E+01  0.50877273828E+02  0.10000000000E+01 0.  0.
<mgrwt>
<rscale>  0 0.12501652E+03</rscale>
<asrwt>0</asrwt>
<pdfrwt beam="1">  1        4 0.34889240E-01 0.12501652E+03</pdfrwt>
<pdfrwt beam="2">  1       -4 0.69994405E-02 0.12501652E+03</pdfrwt>
<totfact> 0.17701115E+03</totfact>
</mgrwt>
</event>
<event>
 5    1  0.1448308E-002  0.1249983E+03  0.7818608E-02  0.1235072E+00
          4   -1    0    0  501    0  0.00000000000E+00  0.00000000000E+00  0.16664951905E+02  0.16713273826E+02  0.12700000000E+01 0.  1.
         -4   -1    0    0    0  501 -0.00000000000E+00 -0.00000000000E+00 -0.23400337185E+03  0.23400681815E+03  0.12700000000E+01 0.  1.
         25    2    1    2    0    0  0.00000000000E+00  0.00000000000E+00 -0.21733841995E+03  0.25072009197E+03  0.12499830292E+03 0.  0.
    9000005    1    3    3    0    0 -0.32056635705E+02  0.49557100450E+02 -0.67484084961E+02  0.89658439763E+02  0.10000000000E+01 0.  0.
    9000005    1    3    3    0    0  0.32056635705E+02 -0.49557100450E+02 -0.14985433499E+03  0.16106165221E+03  0.10000000000E+01 0.  0.
<mgrwt>
<rscale>  0 0.12499830E+03</rscale>
<asrwt>0</asrwt>
<pdfrwt beam="1">  1        4 0.41727097E-02 0.12499830E+03</pdfrwt>
<pdfrwt beam="2">  1       -4 0.58507304E-01 0.12499830E+03</pdfrwt>
<totfact> 0.14474630E+03</totfact>
</mgrwt>
</event>
<event>
 5    1  0.1448308E-002  0.1250006E+03  0.7818608E-02  0.1235068E+00
         -4   -1    0    0    0  501 -0.00000000000E+00  0.00000000000E+00  0.15119930528E+03  0.15120463888E+03  0.12700000000E+01 0.  1.
          4   -1    0    0  501    0  0.00000000000E+00 -0.00000000000E+00 -0.25813965023E+02  0.25845186983E+02  0.12700000000E+01 0.  1.
         25    2    1    2    0    0  0.00000000000E+00  0.00000000000E+00  0.12538534026E+03  0.17704982586E+03  0.12500062914E+03 0.  0.
    9000005    1    3    3    0    0  0.37293600604E+02 -0.41067723066E+02  0.10344732096E+03  0.11738704672E+03  0.10000000000E+01 0.  0.
    9000005    1    3    3    0    0 -0.37293600604E+02  0.41067723066E+02  0.21938019298E+02  0.59662779139E+02  0.10000000000E+01 0.  0.
<mgrwt>
<rscale>  0 0.12500063E+03</rscale>
<asrwt>0</asrwt>
<pdfrwt beam="2">  1        4 0.64580608E-02 0.12500063E+03</pdfrwt>
<pdfrwt beam="1">  1       -4 0.37804395E-01 0.12500063E+03</pdfrwt>
<totfact> 0.17283427E+03</totfact>
</mgrwt>
</event>
<event>
 5    1  0.1448308E-002  0.1250007E+03  0.7818608E-02  0.1235068E+00
          4   -1    0    0  501    0  0.00000000000E+00  0.00000000000E+00  0.16154845426E+03  0.16155344618E+03  0.12700000000E+01 0.  1.
         -4   -1    0    0    0  501 -0.00000000000E+00 -0.00000000000E+00 -0.24158294347E+02  0.24191653225E+02  0.12700000000E+01 0.  1.
         25    2    1    2    0    0  0.00000000000E+00  0.00000000000E+00  0.13739015991E+03  0.18574509941E+03  0.12500074365E+03 0.  0.
    9000005    1    3    3    0    0  0.49183346305E+02  0.14456677518E+02  0.15588159098E+02  0.53590930042E+02  0.10000000000E+01 0.  0.
    9000005    1    3    3    0    0 -0.49183346305E+02 -0.14456677518E+02  0.12180200081E+03  0.13215416936E+03  0.10000000000E+01 0.  0.
<mgrwt>
<rscale>  0 0.12500074E+03</rscale>
<asrwt>0</asrwt>
<pdfrwt beam="1">  1        4 0.40391907E-01 0.12500074E+03</pdfrwt>
<pdfrwt beam="2">  1       -4 0.60443675E-02 0.12500074E+03</pdfrwt>
<totfact> 0.16908914E+03</totfact>
</mgrwt>
</event>
<event>
 5    1  0.1448308E-002  0.1249986E+03  0.7818608E-02  0.1235071E+00
         -4   -1    0    0    0  501 -0.00000000000E+00  0.00000000000E+00  0.80883322726E+02  0.80893292646E+02  0.12700000000E+01 0.  1.
          4   -1    0    0  501    0  0.00000000000E+00 -0.00000000000E+00 -0.48272530760E+02  0.48289234059E+02  0.12700000000E+01 0.  1.
         25    2    1    2    0    0  0.00000000000E+00  0.00000000000E+00  0.32610791966E+02  0.12918252670E+03  0.12499864581E+03 0.  0.
    9000005    1    3    3    0    0  0.44794371800E+02  0.41594714395E+02  0.28897845203E+01  0.61204631076E+02  0.10000000000E+01 0.  0.
    9000005    1    3    3    0    0 -0.44794371800E+02 -0.41594714395E+02  0.29721007446E+02  0.67977895629E+02  0.10000000000E+01 0.  0.
<mgrwt>
<rscale>  0 0.12499865E+03</rscale>
<asrwt>0</asrwt>
<pdfrwt beam="2">  1        4 0.12071467E-01 0.12499865E+03</pdfrwt>
<pdfrwt beam="1">  1       -4 0.20224165E-01 0.12499865E+03</pdfrwt>
<totfact> 0.19609051E+03</totfact>
</mgrwt>
</event>
<event>
 5    1  0.1448308E-002  0.1249980E+03  0.7818608E-02  0.1235072E+00
         -4   -1    0    0    0  501 -0.00000000000E+00  0.00000000000E+00  0.23668952570E+02  0.23703000143E+02  0.12700000000E+01 0. -1.
          4   -1    0    0  501    0  0.00000000000E+00 -0.00000000000E+00 -0.16487640020E+03  0.16488129137E+03  0.12700000000E+01 0. -1.
         25    2    1    2    0    0  0.00000000000E+00  0.00000000000E+00 -0.14120744763E+03  0.18858429151E+03  0.12499796694E+03 0.  0.
    9000005    1    3    3    0    0 -0.23564341347E+02 -0.43359214766E+02 -0.12762813278E+02  0.50982242899E+02  0.10000000000E+01 0.  0.
    9000005    1    3    3    0    0  0.23564341347E+02  0.43359214766E+02 -0.12844463436E+03  0.13760204861E+03  0.10000000000E+01 0.  0.
<mgrwt>
<rscale>  0 0.12499797E+03</rscale>
<asrwt>0</asrwt>
<pdfrwt beam="2">  1        4 0.41223964E-01 0.12499797E+03</pdfrwt>
<pdfrwt beam="1">  1       -4 0.59221060E-02 0.12499797E+03</pdfrwt>
<totfact> 0.16790376E+03</totfact>
</mgrwt>
</event>
<event>
 5    1  0.1448308E-002  0.1249959E+03  0.7818608E-02  0.1235076E+00
          4   -1    0    0  501    0  0.00000000000E+00  0.00000000000E+00  0.44822408273E+02  0.44840396780E+02  0.12700000000E+01 0.  1.
         -4   -1    0    0    0  501 -0.00000000000E+00 -0.00000000000E+00 -0.87103606873E+02  0.87112864895E+02  0.12700000000E+01 0.  1.
         25    2    1    2    0    0  0.00000000000E+00  0.00000000000E+00 -0.42281198600E+02  0.13195326168E+03  0.12499585398E+03 0.  0.
    9000005    1    3    3    0    0 -0.18552434809E+02 -0.41812644242E+02  0.23802563081E+02  0.51575692580E+02  0.10000000000E+01 0.  0.
    9000005    1    3    3    0    0  0.18552434809E+02  0.41812644242E+02 -0.66083761680E+02  0.80377569096E+02  0.10000000000E+01 0.  0.
<mgrwt>
<rscale>  0 0.12499585E+03</rscale>
<asrwt>0</asrwt>
<pdfrwt beam="1">  1        4 0.11209008E-01 0.12499585E+03</pdfrwt>
<pdfrwt beam="2">  1       -4 0.21779307E-01 0.12499585E+03</pdfrwt>
<totfact> 0.19461824E+03</totfact>
</mgrwt>
</event>
<event>
 5    1  0.1448308E-002  0.1249765E+03  0.7818608E-02  0.1235106E+00
         -4   -1    0    0    0  501 -0.00000000000E+00  0.00000000000E+00  0.13151682915E+03  0.13152296092E+03  0.12700000000E+01 0. -1.
          4   -1    0    0  501    0  0.00000000000E+00 -0.00000000000E+00 -0.29669937590E+02  0.29697105862E+02  0.12700000000E+01 0. -1.
         25    2    1    2    0    0  0.00000000000E+00  0.00000000000E+00  0.10184689156E+03  0.16122006678E+03  0.12497648024E+03 0.  0.
    9000005    1    3    3    0    0  0.77600718099E+01  0.23543785812E+02 -0.23060817570E+02  0.33872258145E+02  0.10000000000E+01 0.  0.
    9000005    1    3    3    0    0 -0.77600718099E+01 -0.23543785812E+02  0.12490770913E+03  0.12734780864E+03  0.10000000000E+01 0.  0.
<mgrwt>
<rscale>  0 0.12497648E+03</rscale>
<asrwt>0</asrwt>
<pdfrwt beam="2">  1        4 0.74216470E-02 0.12497648E+03</pdfrwt>
<pdfrwt beam="1">  1       -4 0.32883369E-01 0.12497648E+03</pdfrwt>
<totfact> 0.18010329E+03</totfact>
</mgrwt>
</event>
<event>
 5    1  0.1448308E-002  0.1250014E+03  0.7818608E-02  0.1235067E+00
          4   -1    0    0  501    0  0.00000000000E+00  0.00000000000E+00  0.23064016159E+01  0.26329429189E+01  0.12700000000E+01 0. -1.
         -4   -1    0    0    0  501 -0.00000000000E+00 -0.00000000000E+00 -0.15813953082E+04  0.15813958182E+04  0.12700000000E+01 0. -1.
         25    2    1    2    0    0  0.00000000000E+00  0.00000000000E+00 -0.15790889066E+04  0.15840287611E+04  0.12500136412E+03 0.  0.
    9000005    1    3    3    0    0  0.36715945109E+02  0.28811513530E+02 -0.13161870936E+04  0.13170146655E+04  0.10000000000E+01 0.  0.
    9000005    1    3    3    0    0 -0.36715945109E+02 -0.28811513530E+02 -0.26290181304E+03  0.26701409558E+03  0.10000000000E+01 0.  0.
<mgrwt>
<rscale>  0 0.12500136E+03</rscale>
<asrwt>0</asrwt>
<pdfrwt beam="1">  1        4 0.61748724E-03 0.12500136E+03</pdfrwt>
<pdfrwt beam="2">  1       -4 0.39538623E+00 0.12500136E+03</pdfrwt>
<totfact> 0.99401411E+01</totfact>
</mgrwt>
</event>
<event>
 5    1  0.1448308E-002  0.1250029E+03  0.7818608E-02  0.1235065E+00
         -4   -1    0    0    0  501 -0.00000000000E+00  0.00000000000E+00  0.43484840149E+03  0.43485025604E+03  0.12700000000E+01 0.  1.
          4   -1    0    0  501    0  0.00000000000E+00 -0.00000000000E+00 -0.89366640456E+01  0.90264535818E+01  0.12700000000E+01 0.  1.
         25    2    1    2    0    0  0.00000000000E+00  0.00000000000E+00  0.42591173745E+03  0.44387670962E+03  0.12500290098E+03 0.  0.
    9000005    1    3    3    0    0 -0.21659066242E+02 -0.45586048612E+02  0.34382242049E+03  0.34750835934E+03  0.10000000000E+01 0.  0.
    9000005    1    3    3    0    0  0.21659066242E+02  0.45586048612E+02  0.82089316958E+02  0.96368350288E+02  0.10000000000E+01 0.  0.
<mgrwt>
<rscale>  0 0.12500290E+03</rscale>
<asrwt>0</asrwt>
<pdfrwt beam="2">  1        4 0.22456218E-02 0.12500290E+03</pdfrwt>
<pdfrwt beam="1">  1       -4 0.10872354E+00 0.12500290E+03</pdfrwt>
<totfact> 0.97120432E+02</totfact>
</mgrwt>
</event>
<event>
 4    1  0.1448308E-002  0.1253731E+03  0.7818608E-02  0.1234487E+00
          4   -1    0    0  501    0  0.00000000000E+00  0.00000000000E+00  0.38855098912E+02  0.38875848691E+02  0.12700000000E+01 0. -1.
         -4   -1    0    0    0  501 -0.00000000000E+00 -0.00000000000E+00 -0.10108302516E+03  0.10109100294E+03  0.12700000000E+01 0. -1.
    9000005    1    1    2    0    0 -0.55780658265E+02  0.17915678195E+02 -0.62467849360E+01  0.58927715752E+02  0.10000000000E+01 0.  0.
    9000005    1    1    2    0    0  0.55780658265E+02 -0.17915678195E+02 -0.55981141313E+02  0.81039135881E+02  0.10000000000E+01 0.  0.
<mgrwt>
<rscale>  0 0.12537306E+03</rscale>
<asrwt>0</asrwt>
<pdfrwt beam="1">  1        4 0.97173659E-02 0.12537306E+03</pdfrwt>
<pdfrwt beam="2">  1       -4 0.25274347E-01 0.12537306E+03</pdfrwt>
<totfact> 0.18877321E+03</totfact>
</mgrwt>
</event>
<event>
 5    1  0.1448308E-002  0.1249909E+03  0.7818608E-02  0.1235083E+00
          4   -1    0    0  501    0  0.00000000000E+00  0.00000000000E+00  0.20953845666E+03  0.20954230532E+03  0.12700000000E+01 0. -1.
         -4   -1    0    0    0  501 -0.00000000000E+00 -0.00000000000E+00 -0.18613795498E+02  0.18657070586E+02  0.12700000000E+01 0. -1.
         25    2    1    2    0    0  0.00000000000E+00  0.00000000000E+00  0.19092466116E+03  0.22819937591E+03  0.12499091537E+03 0.  0.
    9000005    1    3    3    0    0  0.32230968056E+02  0.64420673059E+01  0.19248986757E+03  0.19527847975E+03  0.10000000000E+01 0.  0.
    9000005    1    3    3    0    0 -0.32230968056E+02 -0.64420673059E+01 -0.15652064116E+01  0.32920896162E+02  0.10000000000E+01 0.  0.
<mgrwt>
<rscale>  0 0.12499092E+03</rscale>
<asrwt>0</asrwt>
<pdfrwt beam="1">  1        4 0.52390505E-01 0.12499092E+03</pdfrwt>
<pdfrwt beam="2">  1       -4 0.46593394E-02 0.12499092E+03</pdfrwt>
<totfact> 0.15255061E+03</totfact>
</mgrwt>
</event>
<event>
 5    1  0.1448308E-002  0.1250005E+03  0.7818608E-02  0.1235069E+00
         -4   -1    0    0    0  501 -0.00000000000E+00  0.00000000000E+00  0.34669909592E+02  0.34693162599E+02  0.12700000000E+01 0. -1.
          4   -1    0    0  501    0  0.00000000000E+00 -0.00000000000E+00 -0.11260595786E+03  0.11261311933E+03  0.12700000000E+01 0. -1.
         25    2    1    2    0    0  0.00000000000E+00  0.00000000000E+00 -0.77936048268E+02  0.14730628193E+03  0.12500045231E+03 0.  0.
    9000005    1    3    3    0    0 -0.69318826546E+01  0.62059994184E+02 -0.36133771129E+02  0.72153608996E+02  0.10000000000E+01 0.  0.
    9000005    1    3    3    0    0  0.69318826546E+01 -0.62059994184E+02 -0.41802277139E+02  0.75152672934E+02  0.10000000000E+01 0.  0.
<mgrwt>
<rscale>  0 0.12500045E+03</rscale>
<asrwt>0</asrwt>
<pdfrwt beam="2">  1        4 0.28155290E-01 0.12500045E+03</pdfrwt>
<pdfrwt beam="1">  1       -4 0.86712795E-02 0.12500045E+03</pdfrwt>
<totfact> 0.18671833E+03</totfact>
</mgrwt>
</event>
<event>
 5    1  0.1448308E-002  0.1249972E+03  0.7818608E-02  0.1235074E+00
         -4   -1    0    0    0  501 -0.00000000000E+00  0.00000000000E+00  0.57884101465E+02  0.57898031939E+02  0.12700000000E+01 0. -1.
          4   -1    0    0  501    0  0.00000000000E+00 -0.00000000000E+00 -0.67452964004E+02  0.67464918683E+02  0.12700000000E+01 0. -1.
         25    2    1    2    0    0  0.00000000000E+00  0.00000000000E+00 -0.95688625397E+01  0.12536295062E+03  0.12499722500E+03 0.  0.
    9000005    1    3    3    0    0 -0.42108741196E+02  0.45314578330E+02  0.41026164971E+01  0.62003133440E+02  0.10000000000E+01 0.  0.
    9000005    1    3    3    0    0  0.42108741196E+02 -0.45314578330E+02 -0.13671479037E+02  0.63359817182E+02  0.10000000000E+01 0.  0.
<mgrwt>
<rscale>  0 0.12499723E+03</rscale>
<asrwt>0</asrwt>
<pdfrwt beam="2">  1        4 0.16866477E-01 0.12499723E+03</pdfrwt>
<pdfrwt beam="1">  1       -4 0.14474261E-01 0.12499723E+03</pdfrwt>
<totfact> 0.19816671E+03</totfact>
</mgrwt>
</event>
<event>
 5    1  0.1448308E-002  0.1250040E+03  0.7818608E-02  0.1235063E+00
         -4   -1    0    0    0  501 -0.00000000000E+00  0.00000000000E+00  0.51260099357E+02  0.51275829453E+02  0.12700000000E+01 0.  1.
          4   -1    0    0  501    0  0.00000000000E+00 -0.00000000000E+00 -0.76176615564E+02  0.76187201411E+02  0.12700000000E+01 0.  1.
         25    2    1    2    0    0  0.00000000000E+00  0.00000000000E+00 -0.24916516207E+02  0.12746303086E+03  0.12500396577E+03 0.  0.
    9000005    1    3    3    0    0  0.26694743740E+02  0.20059661318E+02 -0.66322598649E+02  0.74260934865E+02  0.10000000000E+01 0.  0.
    9000005    1    3    3    0    0 -0.26694743740E+02 -0.20059661318E+02  0.41406082441E+02  0.53202095999E+02  0.10000000000E+01 0.  0.
<mgrwt>
<rscale>  0 0.12500397E+03</rscale>
<asrwt>0</asrwt>
<pdfrwt beam="2">  1        4 0.19047443E-01 0.12500397E+03</pdfrwt>
<pdfrwt beam="1">  1       -4 0.12818314E-01 0.12500397E+03</pdfrwt>
<totfact> 0.19699980E+03</totfact>
</mgrwt>
</event>
<event>
 5    1  0.1448308E-002  0.1249987E+03  0.7818608E-02  0.1235071E+00
         -4   -1    0    0    0  501 -0.00000000000E+00  0.00000000000E+00  0.92260846689E+03  0.92260934098E+03  0.12700000000E+01 0. -1.
          4   -1    0    0  501    0  0.00000000000E+00 -0.00000000000E+00 -0.41376964173E+01  0.43282134468E+01  0.12700000000E+01 0. -1.
         25    2    1    2    0    0  0.00000000000E+00  0.00000000000E+00  0.91847077047E+03  0.92693755443E+03  0.12499869442E+03 0.  0.
    9000005    1    3    3    0    0 -0.45746061166E+02  0.39103072974E+02  0.58407636339E+03  0.58716943951E+03  0.10000000000E+01 0.  0.
    9000005    1    3    3    0    0  0.45746061166E+02 -0.39103072974E+02  0.33439440708E+03  0.33976811492E+03  0.10000000000E+01 0.  0.
<mgrwt>
<rscale>  0 0.12499869E+03</rscale>
<asrwt>0</asrwt>
<pdfrwt beam="2">  1        4 0.10583481E-02 0.12499869E+03</pdfrwt>
<pdfrwt beam="1">  1       -4 0.23067602E+00 0.12499869E+03</pdfrwt>
<totfact> 0.42255359E+02</totfact>
</mgrwt>
</event>
<event>
 5    1  0.1448308E-002  0.1249992E+03  0.7818608E-02  0.1235070E+00
         -4   -1    0    0    0  501 -0.00000000000E+00  0.00000000000E+00  0.14260763894E+02  0.14317202480E+02  0.12700000000E+01 0.  1.
          4   -1    0    0  501    0  0.00000000000E+00 -0.00000000000E+00 -0.27331363117E+03  0.27331658179E+03  0.12700000000E+01 0.  1.
         25    2    1    2    0    0  0.00000000000E+00  0.00000000000E+00 -0.25905286727E+03  0.28763378427E+03  0.12499922324E+03 0.  0.
    9000005    1    3    3    0    0 -0.38295270625E+02 -0.35415555456E+01 -0.24286813096E+03  0.24589631840E+03  0.10000000000E+01 0.  0.
    9000005    1    3    3    0    0  0.38295270625E+02  0.35415555456E+01 -0.16184736318E+02  0.41737465874E+02  0.10000000000E+01 0.  0.
<mgrwt>
<rscale>  0 0.12499922E+03</rscale>
<asrwt>0</asrwt>
<pdfrwt beam="2">  1        4 0.68335815E-01 0.12499922E+03</pdfrwt>
<pdfrwt beam="1">  1       -4 0.35726155E-02 0.12499922E+03</pdfrwt>
<totfact> 0.13325098E+03</totfact>
</mgrwt>
</event>
<event>
 5    1  0.1448308E-002  0.1249983E+03  0.7818608E-02  0.1235072E+00
         -4   -1    0    0    0  501 -0.00000000000E+00  0.00000000000E+00  0.66891483737E+02  0.66903538745E+02  0.12700000000E+01 0.  1.
          4   -1    0    0  501    0  0.00000000000E+00 -0.00000000000E+00 -0.58371000624E+02  0.58384814925E+02  0.12700000000E+01 0.  1.
         25    2    1    2    0    0  0.00000000000E+00  0.00000000000E+00  0.85204831132E+01  0.12528835367E+03  0.12499829172E+03 0.  0.
    9000005    1    3    3    0    0 -0.18405123425E+02  0.14846579455E+02 -0.53718380434E+02  0.58701225594E+02  0.10000000000E+01 0.  0.
    9000005    1    3    3    0    0  0.18405123425E+02 -0.14846579455E+02  0.62238863547E+02  0.66587128076E+02  0.10000000000E+01 0.  0.
<mgrwt>
<rscale>  0 0.12499829E+03</rscale>
<asrwt>0</asrwt>
<pdfrwt beam="2">  1        4 0.14595984E-01 0.12499829E+03</pdfrwt>
<pdfrwt beam="1">  1       -4 0.16726105E-01 0.12499829E+03</pdfrwt>
<totfact> 0.19820218E+03</totfact>
</mgrwt>
</event>
<event>
 5    1  0.1448308E-002  0.1250001E+03  0.7818608E-02  0.1235069E+00
          4   -1    0    0  501    0  0.00000000000E+00  0.00000000000E+00  0.75994696120E+02  0.76005307304E+02  0.12700000000E+01 0. -1.
         -4   -1    0    0    0  501 -0.00000000000E+00 -0.00000000000E+00 -0.51379660287E+02  0.51395353790E+02  0.12700000000E+01 0. -1.
         25    2    1    2    0    0  0.00000000000E+00  0.00000000000E+00  0.24615035834E+02  0.12740066109E+03  0.12500011383E+03 0.  0.
    9000005    1    3    3    0    0 -0.46254148881E+02  0.41246480266E+02  0.41196401406E+01  0.62118353632E+02  0.10000000000E+01 0.  0.
    9000005    1    3    3    0    0  0.46254148881E+02 -0.41246480266E+02  0.20495395693E+02  0.65282307463E+02  0.10000000000E+01 0.  0.
<mgrwt>
<rscale>  0 0.12500011E+03</rscale>
<asrwt>0</asrwt>
<pdfrwt beam="1">  1        4 0.19001962E-01 0.12500011E+03</pdfrwt>
<pdfrwt beam="2">  1       -4 0.12848203E-01 0.12500011E+03</pdfrwt>
<totfact> 0.19705157E+03</totfact>
</mgrwt>
</event>
<event>
 5    1  0.1448308E-002  0.1249988E+03  0.7818608E-02  0.1235071E+00
         -4   -1    0    0    0  501 -0.00000000000E+00  0.00000000000E+00  0.22749662981E+03  0.22750017467E+03  0.12700000000E+01 0.  1.
          4   -1    0    0  501    0  0.00000000000E+00 -0.00000000000E+00 -0.17143098393E+02  0.17190076280E+02  0.12700000000E+01 0.  1.
         25    2    1    2    0    0  0.00000000000E+00  0.00000000000E+00  0.21035353142E+03  0.24469025095E+03  0.12499884292E+03 0.  0.
    9000005    1    3    3    0    0 -0.95324251325E+01 -0.23707952278E+02 -0.64587040410E+01  0.26375158540E+02  0.10000000000E+01 0.  0.
    9000005    1    3    3    0    0  0.95324251325E+01  0.23707952278E+02  0.21681223546E+03  0.21831509241E+03  0.10000000000E+01 0.  0.
<mgrwt>
<rscale>  0 0.12499884E+03</rscale>
<asrwt>0</asrwt>
<pdfrwt beam="2">  1        4 0.42920900E-02 0.12499884E+03</pdfrwt>
<pdfrwt beam="1">  1       -4 0.56880472E-01 0.12499884E+03</pdfrwt>
<totfact> 0.14676614E+03</totfact>
</mgrwt>
</event>
<event>
 5    1  0.1448308E-002  0.1250021E+03  0.7818608E-02  0.1235066E+00
         -4   -1    0    0    0  501 -0.00000000000E+00  0.00000000000E+00  0.58019124676E+02  0.58033022739E+02  0.12700000000E+01 0. -1.
          4   -1    0    0  501    0  0.00000000000E+00 -0.00000000000E+00 -0.67301300417E+02  0.67313282031E+02  0.12700000000E+01 0. -1.
         25    2    1    2    0    0  0.00000000000E+00  0.00000000000E+00 -0.92821757407E+01  0.12534630477E+03  0.12500214931E+03 0.  0.
    9000005    1    3    3    0    0  0.60221362197E+02 -0.16383150029E+02 -0.78693090105E+01  0.62912209420E+02  0.10000000000E+01 0.  0.
    9000005    1    3    3    0    0 -0.60221362197E+02  0.16383150029E+02 -0.14128667302E+01  0.62434095350E+02  0.10000000000E+01 0.  0.
<mgrwt>
<rscale>  0 0.12500215E+03</rscale>
<asrwt>0</asrwt>
<pdfrwt beam="2">  1        4 0.16828560E-01 0.12500215E+03</pdfrwt>
<pdfrwt beam="1">  1       -4 0.14508016E-01 0.12500215E+03</pdfrwt>
<totfact> 0.19815290E+03</totfact>
</mgrwt>
</event>
<event>
 5    1  0.1448308E-002  0.1249982E+03  0.7818608E-02  0.1235072E+00
          4   -1    0    0  501    0  0.00000000000E+00  0.00000000000E+00  0.11670400395E+04  0.11670407305E+04  0.12700000000E+01 0. -1.
         -4   -1    0    0    0  501 -0.00000000000E+00 -0.00000000000E+00 -0.32258555124E+01  0.34668492593E+01  0.12700000000E+01 0. -1.
         25    2    1    2    0    0  0.00000000000E+00  0.00000000000E+00  0.11638141840E+04  0.11705075798E+04  0.12499815788E+03 0.  0.
    9000005    1    3    3    0    0 -0.42699100914E+02  0.42694543145E+02  0.73263800934E+03  0.73512277204E+03  0.10000000000E+01 0.  0.
    9000005    1    3    3    0    0  0.42699100914E+02 -0.42694543145E+02  0.43117617467E+03  0.43538480777E+03  0.10000000000E+01 0.  0.
<mgrwt>
<rscale>  0 0.12499816E+03</rscale>
<asrwt>0</asrwt>
<pdfrwt beam="1">  1        4 0.29179014E+00 0.12499816E+03</pdfrwt>
<pdfrwt beam="2">  1       -4 0.83667469E-03 0.12499816E+03</pdfrwt>
<totfact> 0.26775981E+02</totfact>
</mgrwt>
</event>
<event>
 5    1  0.1448308E-002  0.1250001E+03  0.7818608E-02  0.1235069E+00
          4   -1    0    0  501    0  0.00000000000E+00  0.00000000000E+00  0.22783595884E+02  0.22818964512E+02  0.12700000000E+01 0.  1.
         -4   -1    0    0    0  501 -0.00000000000E+00 -0.00000000000E+00 -0.17127973918E+03  0.17128444750E+03  0.12700000000E+01 0.  1.
         25    2    1    2    0    0  0.00000000000E+00  0.00000000000E+00 -0.14849614330E+03  0.19410341201E+03  0.12500011992E+03 0.  0.
    9000005    1    3    3    0    0 -0.42574907319E+02  0.44373281865E+02 -0.56981192032E+02  0.83841917452E+02  0.10000000000E+01 0.  0.
    9000005    1    3    3    0    0  0.42574907319E+02 -0.44373281865E+02 -0.91514951266E+02  0.11026149456E+03  0.10000000000E+01 0.  0.
<mgrwt>
<rscale>  0 0.12500012E+03</rscale>
<asrwt>0</asrwt>
<pdfrwt beam="1">  1        4 0.57009091E-02 0.12500012E+03</pdfrwt>
<pdfrwt beam="2">  1       -4 0.42824941E-01 0.12500012E+03</pdfrwt>
<totfact> 0.16560859E+03</totfact>
</mgrwt>
</event>
<event>
 5    1  0.1448308E-002  0.1250043E+03  0.7818608E-02  0.1235063E+00
         -4   -1    0    0    0  501 -0.00000000000E+00  0.00000000000E+00  0.12920557940E+03  0.12921182085E+03  0.12700000000E+01 0.  1.
          4   -1    0    0  501    0  0.00000000000E+00 -0.00000000000E+00 -0.30214587513E+02  0.30241266484E+02  0.12700000000E+01 0.  1.
         25    2    1    2    0    0  0.00000000000E+00  0.00000000000E+00  0.98990991888E+02  0.15945308734E+03  0.12500428227E+03 0.  0.
    9000005    1    3    3    0    0  0.19974644947E+02  0.31536004842E+02 -0.14436588183E+02  0.40036497355E+02  0.10000000000E+01 0.  0.
    9000005    1    3    3    0    0 -0.19974644947E+02 -0.31536004842E+02  0.11342758007E+03  0.11941658998E+03  0.10000000000E+01 0.  0.
<mgrwt>
<rscale>  0 0.12500428E+03</rscale>
<asrwt>0</asrwt>
<pdfrwt beam="2">  1        4 0.75577621E-02 0.12500428E+03</pdfrwt>
<pdfrwt beam="1">  1       -4 0.32305509E-01 0.12500428E+03</pdfrwt>
<totfact> 0.18081723E+03</totfact>
</mgrwt>
</event>
<event>
 5    1  0.1448308E-002  0.1250004E+03  0.7818608E-02  0.1235069E+00
          4   -1    0    0  501    0  0.00000000000E+00  0.00000000000E+00  0.10520276364E+03  0.10521042903E+03  0.12700000000E+01 0. -1.
         -4   -1    0    0    0  501 -0.00000000000E+00 -0.00000000000E+00 -0.37111052498E+02  0.37132776862E+02  0.12700000000E+01 0. -1.
         25    2    1    2    0    0  0.00000000000E+00  0.00000000000E+00  0.68091711139E+02  0.14234320589E+03  0.12500042855E+03 0.  0.
    9000005    1    3    3    0    0  0.21560405072E+02 -0.47607650191E+02 -0.49705900788E+01  0.52507582208E+02  0.10000000000E+01 0.  0.
    9000005    1    3    3    0    0 -0.21560405072E+02  0.47607650191E+02  0.73062301218E+02  0.89835623685E+02  0.10000000000E+01 0.  0.
<mgrwt>
<rscale>  0 0.12500043E+03</rscale>
<asrwt>0</asrwt>
<pdfrwt beam="1">  1        4 0.26304364E-01 0.12500043E+03</pdfrwt>
<pdfrwt beam="2">  1       -4 0.92814369E-02 0.12500043E+03</pdfrwt>
<totfact> 0.18920913E+03</totfact>
</mgrwt>
</event>
<event>
 5    1  0.1448308E-002  0.1249990E+03  0.7818608E-02  0.1235071E+00
         -4   -1    0    0    0  501 -0.00000000000E+00  0.00000000000E+00  0.82982001585E+02  0.82991719388E+02  0.12700000000E+01 0.  1.
          4   -1    0    0  501    0  0.00000000000E+00 -0.00000000000E+00 -0.47051670485E+02  0.47068807032E+02  0.12700000000E+01 0.  1.
         25    2    1    2    0    0  0.00000000000E+00  0.00000000000E+00  0.35930331100E+02  0.13006052642E+03  0.12499900736E+03 0.  0.
    9000005    1    3    3    0    0 -0.16257851741E+02 -0.55350050571E+02  0.42963895739E+02  0.71936375906E+02  0.10000000000E+01 0.  0.
    9000005    1    3    3    0    0  0.16257851741E+02  0.55350050571E+02 -0.70335646387E+01  0.58124150514E+02  0.10000000000E+01 0.  0.
<mgrwt>
<rscale>  0 0.12499901E+03</rscale>
<asrwt>0</asrwt>
<pdfrwt beam="2">  1        4 0.11766274E-01 0.12499901E+03</pdfrwt>
<pdfrwt beam="1">  1       -4 0.20748857E-01 0.12499901E+03</pdfrwt>
<totfact> 0.19561582E+03</totfact>
</mgrwt>
</event>
<event>
 5    1  0.1448308E-002  0.1250004E+03  0.7818608E-02  0.1235069E+00
          4   -1    0    0  501    0  0.00000000000E+00  0.00000000000E+00  0.12831235944E+03  0.12831864434E+03  0.12700000000E+01 0. -1.
         -4   -1    0    0    0  501 -0.00000000000E+00 -0.00000000000E+00 -0.30423207874E+02  0.30449704060E+02  0.12700000000E+01 0. -1.
         25    2    1    2    0    0  0.00000000000E+00  0.00000000000E+00  0.97889151567E+02  0.15876834840E+03  0.12500040984E+03 0.  0.
    9000005    1    3    3    0    0 -0.39631037557E+01  0.28276610024E+02 -0.21659849623E+02  0.35852781643E+02  0.10000000000E+01 0.  0.
    9000005    1    3    3    0    0  0.39631037557E+01 -0.28276610024E+02  0.11954900119E+03  0.12291556676E+03  0.10000000000E+01 0.  0.
<mgrwt>
<rscale>  0 0.12500041E+03</rscale>
<asrwt>0</asrwt>
<pdfrwt beam="1">  1        4 0.32082187E-01 0.12500041E+03</pdfrwt>
<pdfrwt beam="2">  1       -4 0.76098997E-02 0.12500041E+03</pdfrwt>
<totfact> 0.18115699E+03</totfact>
</mgrwt>
</event>
<event>
 5    1  0.1448308E-002  0.1250018E+03  0.7818608E-02  0.1235066E+00
          4   -1    0    0  501    0  0.00000000000E+00  0.00000000000E+00  0.77151691296E+02  0.77162143372E+02  0.12700000000E+01 0. -1.
         -4   -1    0    0    0  501 -0.00000000000E+00 -0.00000000000E+00 -0.50610423047E+02  0.50626355004E+02  0.12700000000E+01 0. -1.
         25    2    1    2    0    0  0.00000000000E+00  0.00000000000E+00  0.26541268249E+02  0.12778849838E+03  0.12500184557E+03 0.  0.
    9000005    1    3    3    0    0  0.45421932942E+02 -0.18000992895E+02  0.53103048666E+02  0.72167316113E+02  0.10000000000E+01 0.  0.
    9000005    1    3    3    0    0 -0.45421932942E+02  0.18000992895E+02 -0.26561780417E+02  0.55621182263E+02  0.10000000000E+01 0.  0.
<mgrwt>
<rscale>  0 0.12500185E+03</rscale>
<asrwt>0</asrwt>
<pdfrwt beam="1">  1        4 0.19291221E-01 0.12500185E+03</pdfrwt>
<pdfrwt beam="2">  1       -4 0.12655904E-01 0.12500185E+03</pdfrwt>
<totfact> 0.19683202E+03</totfact>
</mgrwt>
</event>
<event>
 5    1  0.1448308E-002  0.1250057E+03  0.7818608E-02  0.1235060E+00
         -4   -1    0    0    0  501 -0.00000000000E+00  0.00000000000E+00  0.47165741643E+01  0.48845646528E+01  0.12700000000E+01 0.  1.
          4   -1    0    0  501    0  0.00000000000E+00 -0.00000000000E+00 -0.81361183421E+03  0.81361282541E+03  0.12700000000E+01 0.  1.
         25    2    1    2    0    0  0.00000000000E+00  0.00000000000E+00 -0.80889526005E+03  0.81849739006E+03  0.12500574311E+03 0.  0.
    9000005    1    3    3    0    0 -0.62146228151E+01  0.61188078250E+02 -0.47706681261E+03  0.48101595208E+03  0.10000000000E+01 0.  0.
    9000005    1    3    3    0    0  0.62146228151E+01 -0.61188078250E+02 -0.33182844743E+03  0.33748143798E+03  0.10000000000E+01 0.  0.
<mgrwt>
<rscale>  0 0.12500574E+03</rscale>
<asrwt>0</asrwt>
<pdfrwt beam="2">  1        4 0.20342361E+00 0.12500574E+03</pdfrwt>
<pdfrwt beam="1">  1       -4 0.12002690E-02 0.12500574E+03</pdfrwt>
<totfact> 0.50862186E+02</totfact>
</mgrwt>
</event>
<event>
 5    1  0.1448308E-002  0.1249972E+03  0.7818608E-02  0.1235074E+00
         -4   -1    0    0    0  501 -0.00000000000E+00  0.00000000000E+00  0.15437223950E+04  0.15437229174E+04  0.12700000000E+01 0. -1.
          4   -1    0    0  501    0  0.00000000000E+00 -0.00000000000E+00 -0.23703821971E+01  0.26891656253E+01  0.12700000000E+01 0. -1.
         25    2    1    2    0    0  0.00000000000E+00  0.00000000000E+00  0.15413520128E+04  0.15464120830E+04  0.12499721266E+03 0.  0.
    9000005    1    3    3    0    0  0.54246981707E+01 -0.57515159165E+02  0.10654350270E+04  0.10670005706E+04  0.10000000000E+01 0.  0.
    9000005    1    3    3    0    0 -0.54246981707E+01  0.57515159165E+02  0.47591698578E+03  0.47941151242E+03  0.10000000000E+01 0.  0.
<mgrwt>
<rscale>  0 0.12499721E+03</rscale>
<asrwt>0</asrwt>
<pdfrwt beam="2">  1        4 0.63250812E-03 0.12499721E+03</pdfrwt>
<pdfrwt beam="1">  1       -4 0.38597091E+00 0.12499721E+03</pdfrwt>
<totfact> 0.11032041E+02</totfact>
</mgrwt>
</event>
<event>
 5    1  0.1448308E-002  0.1249981E+03  0.7818608E-02  0.1235072E+00
          4   -1    0    0  501    0  0.00000000000E+00  0.00000000000E+00  0.65750773537E+02  0.65763037648E+02  0.12700000000E+01 0.  1.
         -4   -1    0    0    0  501 -0.00000000000E+00 -0.00000000000E+00 -0.59383506254E+02  0.59397085071E+02  0.12700000000E+01 0.  1.
         25    2    1    2    0    0  0.00000000000E+00  0.00000000000E+00  0.63672672836E+01  0.12516012272E+03  0.12499805689E+03 0.  0.
    9000005    1    3    3    0    0  0.40725789703E+02 -0.97532365011E+01  0.49627098405E+02  0.64942778392E+02  0.10000000000E+01 0.  0.
    9000005    1    3    3    0    0 -0.40725789703E+02  0.97532365011E+01 -0.43259831122E+02  0.60217344328E+02  0.10000000000E+01 0.  0.
<mgrwt>
<rscale>  0 0.12499806E+03</rscale>
<asrwt>0</asrwt>
<pdfrwt beam="1">  1        4 0.16440924E-01 0.12499806E+03</pdfrwt>
<pdfrwt beam="2">  1       -4 0.14849107E-01 0.12499806E+03</pdfrwt>
<totfact> 0.19827275E+03</totfact>
</mgrwt>
</event>
<event>
 5    1  0.1448308E-002  0.1250025E+03  0.7818608E-02  0.1235065E+00
         -4   -1    0    0    0  501 -0.00000000000E+00  0.00000000000E+00  0.62398596779E+01  0.63677899463E+01  0.12700000000E+01 0. -1.
          4   -1    0    0  501    0  0.00000000000E+00 -0.00000000000E+00 -0.61956010281E+03  0.61956140445E+03  0.12700000000E+01 0. -1.
         25    2    1    2    0    0  0.00000000000E+00  0.00000000000E+00 -0.61332024313E+03  0.62592919440E+03  0.12500254306E+03 0.  0.
    9000005    1    3    3    0    0  0.51758422447E+02 -0.29030829984E+02 -0.40474319969E+03  0.40907185320E+03  0.10000000000E+01 0.  0.
    9000005    1    3    3    0    0 -0.51758422447E+02  0.29030829984E+02 -0.20857704344E+03  0.21685734120E+03  0.10000000000E+01 0.  0.
<mgrwt>
<rscale>  0 0.12500254E+03</rscale>
<asrwt>0</asrwt>
<pdfrwt beam="2">  1        4 0.15490597E+00 0.12500254E+03</pdfrwt>
<pdfrwt beam="1">  1       -4 0.15761210E-02 0.12500254E+03</pdfrwt>
<totfact> 0.70328971E+02</totfact>
</mgrwt>
</event>
<event>
 5    1  0.1448308E-002  0.1250020E+03  0.7818608E-02  0.1235066E+00
          4   -1    0    0  501    0  0.00000000000E+00  0.00000000000E+00  0.34303181467E+02  0.34326682898E+02  0.12700000000E+01 0.  1.
         -4   -1    0    0    0  501 -0.00000000000E+00 -0.00000000000E+00 -0.11381195876E+03  0.11381904435E+03  0.12700000000E+01 0.  1.
         25    2    1    2    0    0  0.00000000000E+00  0.00000000000E+00 -0.79508777292E+02  0.14814572725E+03  0.12500204332E+03 0.  0.
    9000005    1    3    3    0    0  0.38565527266E+02  0.44444742342E+02 -0.14817186858E+02  0.60689241563E+02  0.10000000000E+01 0.  0.
    9000005    1    3    3    0    0 -0.38565527266E+02 -0.44444742342E+02 -0.64691590434E+02  0.87456485683E+02  0.10000000000E+01 0.  0.
<mgrwt>
<rscale>  0 0.12500204E+03</rscale>
<asrwt>0</asrwt>
<pdfrwt beam="1">  1        4 0.85796190E-02 0.12500204E+03</pdfrwt>
<pdfrwt beam="2">  1       -4 0.28456812E-01 0.12500204E+03</pdfrwt>
<totfact> 0.18629447E+03</totfact>
</mgrwt>
</event>
<event>
 5    1  0.1448308E-002  0.1249992E+03  0.7818608E-02  0.1235071E+00
          4   -1    0    0  501    0  0.00000000000E+00  0.00000000000E+00  0.12562501629E+03  0.12563143563E+03  0.12700000000E+01 0.  1.
         -4   -1    0    0    0  501 -0.00000000000E+00 -0.00000000000E+00 -0.31073940921E+02  0.31099882707E+02  0.12700000000E+01 0.  1.
         25    2    1    2    0    0  0.00000000000E+00  0.00000000000E+00  0.94551075371E+02  0.15673131834E+03  0.12499920117E+03 0.  0.
    9000005    1    3    3    0    0  0.24529708991E+02  0.57409384079E+02  0.43806160676E+02  0.76272693126E+02  0.10000000000E+01 0.  0.
    9000005    1    3    3    0    0 -0.24529708991E+02 -0.57409384079E+02  0.50744914695E+02  0.80458625211E+02  0.10000000000E+01 0.  0.
<mgrwt>
<rscale>  0 0.12499920E+03</rscale>
<asrwt>0</asrwt>
<pdfrwt beam="1">  1        4 0.31410299E-01 0.12499920E+03</pdfrwt>
<pdfrwt beam="2">  1       -4 0.77725304E-02 0.12499920E+03</pdfrwt>
<totfact> 0.18213015E+03</totfact>
</mgrwt>
</event>
<event>
 5    1  0.1448308E-002  0.1249976E+03  0.7818608E-02  0.1235073E+00
          4   -1    0    0  501    0  0.00000000000E+00  0.00000000000E+00  0.46840019634E+02  0.46857233586E+02  0.12700000000E+01 0. -1.
         -4   -1    0    0    0  501 -0.00000000000E+00 -0.00000000000E+00 -0.83354963935E+02  0.83364638263E+02  0.12700000000E+01 0. -1.
         25    2    1    2    0    0  0.00000000000E+00  0.00000000000E+00 -0.36514944301E+02  0.13022187185E+03  0.12499757898E+03 0.  0.
    9000005    1    3    3    0    0  0.24283774024E+02  0.17750096681E+02 -0.75322091194E+02  0.81112175627E+02  0.10000000000E+01 0.  0.
    9000005    1    3    3    0    0 -0.24283774024E+02 -0.17750096681E+02  0.38807146893E+02  0.49109696222E+02  0.10000000000E+01 0.  0.
<mgrwt>
<rscale>  0 0.12499758E+03</rscale>
<asrwt>0</asrwt>
<pdfrwt beam="1">  1        4 0.11713366E-01 0.12499758E+03</pdfrwt>
<pdfrwt beam="2">  1       -4 0.20842102E-01 0.12499758E+03</pdfrwt>
<totfact> 0.19553567E+03</totfact>
</mgrwt>
</event>
<event>
 5    1  0.1448308E-002  0.1249948E+03  0.7818608E-02  0.1235077E+00
         -4   -1    0    0    0  501 -0.00000000000E+00  0.00000000000E+00  0.71759128145E+02  0.71770365557E+02  0.12700000000E+01 0.  1.
          4   -1    0    0  501    0  0.00000000000E+00 -0.00000000000E+00 -0.54408126025E+02  0.54422946241E+02  0.12700000000E+01 0.  1.
         25    2    1    2    0    0  0.00000000000E+00  0.00000000000E+00  0.17351002120E+02  0.12619331180E+03  0.12499477856E+03 0.  0.
    9000005    1    3    3    0    0  0.27593986223E+02  0.46483727380E+02 -0.22974075996E+02  0.58744984081E+02  0.10000000000E+01 0.  0.
    9000005    1    3    3    0    0 -0.27593986223E+02 -0.46483727380E+02  0.40325078116E+02  0.67448327717E+02  0.10000000000E+01 0.  0.
<mgrwt>
<rscale>  0 0.12499478E+03</rscale>
<asrwt>0</asrwt>
<pdfrwt beam="2">  1        4 0.13605289E-01 0.12499478E+03</pdfrwt>
<pdfrwt beam="1">  1       -4 0.17943039E-01 0.12499478E+03</pdfrwt>
<totfact> 0.19772892E+03</totfact>
</mgrwt>
</event>
<event>
 5    1  0.1448308E-002  0.1249952E+03  0.7818608E-02  0.1235077E+00
         -4   -1    0    0    0  501 -0.00000000000E+00  0.00000000000E+00  0.39081733644E+03  0.39081939993E+03  0.12700000000E+01 0. -1.
          4   -1    0    0  501    0  0.00000000000E+00 -0.00000000000E+00 -0.99518646313E+01  0.10032572434E+02  0.12700000000E+01 0. -1.
         25    2    1    2    0    0  0.00000000000E+00  0.00000000000E+00  0.38086547180E+03  0.40085197236E+03  0.12499518444E+03 0.  0.
    9000005    1    3    3    0    0  0.50547176858E+02  0.35437002425E+02  0.22155009698E+03  0.22999183399E+03  0.10000000000E+01 0.  0.
    9000005    1    3    3    0    0 -0.50547176858E+02 -0.35437002425E+02  0.15931537483E+03  0.17086013837E+03  0.10000000000E+01 0.  0.
<mgrwt>
<rscale>  0 0.12499518E+03</rscale>
<asrwt>0</asrwt>
<pdfrwt beam="2">  1        4 0.24983126E-02 0.12499518E+03</pdfrwt>
<pdfrwt beam="1">  1       -4 0.97714678E-01 0.12499518E+03</pdfrwt>
<totfact> 0.10552829E+03</totfact>
</mgrwt>
</event>
<event>
 5    1  0.1448308E-002  0.1249985E+03  0.7818608E-02  0.1235072E+00
         -4   -1    0    0    0  501 -0.00000000000E+00  0.00000000000E+00  0.20719110557E+02  0.20757997068E+02  0.12700000000E+01 0.  1.
          4   -1    0    0  501    0  0.00000000000E+00 -0.00000000000E+00 -0.18831133443E+03  0.18831561692E+03  0.12700000000E+01 0.  1.
         25    2    1    2    0    0  0.00000000000E+00  0.00000000000E+00 -0.16759222388E+03  0.20907361399E+03  0.12499849024E+03 0.  0.
    9000005    1    3    3    0    0 -0.24790630268E+02 -0.56434265945E+02 -0.66595547693E+02  0.90748932194E+02  0.10000000000E+01 0.  0.
    9000005    1    3    3    0    0  0.24790630268E+02  0.56434265945E+02 -0.10099667618E+03  0.11832468179E+03  0.10000000000E+01 0.  0.
<mgrwt>
<rscale>  0 0.12499849E+03</rscale>
<asrwt>0</asrwt>
<pdfrwt beam="2">  1        4 0.47083225E-01 0.12499849E+03</pdfrwt>
<pdfrwt beam="1">  1       -4 0.51851743E-02 0.12499849E+03</pdfrwt>
<totfact> 0.15965612E+03</totfact>
</mgrwt>
</event>
<event>
 5    1  0.1448308E-002  0.1249938E+03  0.7818608E-02  0.1235079E+00
         -4   -1    0    0    0  501 -0.00000000000E+00  0.00000000000E+00  0.43527303292E+02  0.43545826802E+02  0.12700000000E+01 0. -1.
          4   -1    0    0  501    0  0.00000000000E+00 -0.00000000000E+00 -0.89691454666E+02  0.89700445596E+02  0.12700000000E+01 0. -1.
         25    2    1    2    0    0  0.00000000000E+00  0.00000000000E+00 -0.46164151374E+02  0.13324627240E+03  0.12499376079E+03 0.  0.
    9000005    1    3    3    0    0  0.47591214178E+02 -0.30794707450E+02 -0.51117120442E+02  0.76336083710E+02  0.10000000000E+01 0.  0.
    9000005    1    3    3    0    0 -0.47591214178E+02  0.30794707450E+02  0.49529690680E+01  0.56910188688E+02  0.10000000000E+01 0.  0.
<mgrwt>
<rscale>  0 0.12499376E+03</rscale>
<asrwt>0</asrwt>
<pdfrwt beam="2">  1        4 0.22426303E-01 0.12499376E+03</pdfrwt>
<pdfrwt beam="1">  1       -4 0.10885265E-01 0.12499376E+03</pdfrwt>
<totfact> 0.19394218E+03</totfact>
</mgrwt>
</event>
<event>
 5    1  0.1448308E-002  0.1250163E+03  0.7818608E-02  0.1235044E+00
         -4   -1    0    0    0  501 -0.00000000000E+00  0.00000000000E+00  0.16802813141E+02  0.16850739730E+02  0.12700000000E+01 0. -1.
          4   -1    0    0  501    0  0.00000000000E+00 -0.00000000000E+00 -0.23215574678E+03  0.23215922050E+03  0.12700000000E+01 0. -1.
         25    2    1    2    0    0  0.00000000000E+00  0.00000000000E+00 -0.21535293364E+03  0.24900996023E+03  0.12501629600E+03 0.  0.
    9000005    1    3    3    0    0 -0.40450736132E+02 -0.44238131103E+02 -0.14291503750E+03  0.15498058666E+03  0.10000000000E+01 0.  0.
    9000005    1    3    3    0    0  0.40450736132E+02  0.44238131103E+02 -0.72437896138E+02  0.94029373570E+02  0.10000000000E+01 0.  0.
<mgrwt>
<rscale>  0 0.12501630E+03</rscale>
<asrwt>0</asrwt>
<pdfrwt beam="2">  1        4 0.58045352E-01 0.12501630E+03</pdfrwt>
<pdfrwt beam="1">  1       -4 0.42071291E-02 0.12501630E+03</pdfrwt>
<totfact> 0.14525535E+03</totfact>
</mgrwt>
</event>
<event>
 5    1  0.1448308E-002  0.1249982E+03  0.7818608E-02  0.1235072E+00
         -4   -1    0    0    0  501 -0.00000000000E+00  0.00000000000E+00  0.19856320223E+03  0.19856726361E+03  0.12700000000E+01 0.  1.
          4   -1    0    0  501    0  0.00000000000E+00 -0.00000000000E+00 -0.19647243663E+02  0.19688247346E+02  0.12700000000E+01 0.  1.
         25    2    1    2    0    0  0.00000000000E+00  0.00000000000E+00  0.17891595856E+03  0.21825551096E+03  0.12499819133E+03 0.  0.
    9000005    1    3    3    0    0  0.34529435273E+02 -0.48344697802E+02  0.12329954453E+03  0.13686953418E+03  0.10000000000E+01 0.  0.
    9000005    1    3    3    0    0 -0.34529435273E+02  0.48344697802E+02  0.55616414031E+02  0.81385976774E+02  0.10000000000E+01 0.  0.
<mgrwt>
<rscale>  0 0.12499819E+03</rscale>
<asrwt>0</asrwt>
<pdfrwt beam="2">  1        4 0.49174440E-02 0.12499819E+03</pdfrwt>
<pdfrwt beam="1">  1       -4 0.49646434E-01 0.12499819E+03</pdfrwt>
<totfact> 0.15616902E+03</totfact>
</mgrwt>
</event>
<event>
 5    1  0.1448308E-002  0.1249994E+03  0.7818608E-02  0.1235070E+00
          4   -1    0    0  501    0  0.00000000000E+00  0.00000000000E+00  0.25663757386E+02  0.25695161863E+02  0.12700000000E+01 0.  1.
         -4   -1    0    0    0  501 -0.00000000000E+00 -0.00000000000E+00 -0.15208021556E+03  0.15208551827E+03  0.12700000000E+01 0.  1.
         25    2    1    2    0    0  0.00000000000E+00  0.00000000000E+00 -0.12641645818E+03  0.17778068013E+03  0.12499939731E+03 0.  0.
    9000005    1    3    3    0    0 -0.35670644209E+02  0.42370639230E+02 -0.22047687203E+02  0.59621862082E+02  0.10000000000E+01 0.  0.
    9000005    1    3    3    0    0  0.35670644209E+02 -0.42370639230E+02 -0.10436877098E+03  0.11815881805E+03  0.10000000000E+01 0.  0.
<mgrwt>
<rscale>  0 0.12499940E+03</rscale>
<asrwt>0</asrwt>
<pdfrwt beam="1">  1        4 0.64205282E-02 0.12499940E+03</pdfrwt>
<pdfrwt beam="2">  1       -4 0.38024640E-01 0.12499940E+03</pdfrwt>
<totfact> 0.17251951E+03</totfact>
</mgrwt>
</event>
<event>
 5    1  0.1448308E-002  0.1249929E+03  0.7818608E-02  0.1235080E+00
          4   -1    0    0  501    0  0.00000000000E+00  0.00000000000E+00  0.28255192721E+03  0.28255478136E+03  0.12700000000E+01 0. -1.
         -4   -1    0    0    0  501 -0.00000000000E+00 -0.00000000000E+00 -0.13791227102E+02  0.13849579235E+02  0.12700000000E+01 0. -1.
         25    2    1    2    0    0  0.00000000000E+00  0.00000000000E+00  0.26876070010E+03  0.29640436059E+03  0.12499292403E+03 0.  0.
    9000005    1    3    3    0    0  0.14147990375E+02 -0.11705098710E+02  0.27602143167E+03  0.27663334164E+03  0.10000000000E+01 0.  0.
    9000005    1    3    3    0    0 -0.14147990375E+02  0.11705098710E+02 -0.72607315651E+01  0.19771018950E+02  0.10000000000E+01 0.  0.
<mgrwt>
<rscale>  0 0.12499292E+03</rscale>
<asrwt>0</asrwt>
<pdfrwt beam="1">  1        4 0.70645632E-01 0.12499292E+03</pdfrwt>
<pdfrwt beam="2">  1       -4 0.34554576E-02 0.12499292E+03</pdfrwt>
<totfact> 0.13074552E+03</totfact>
</mgrwt>
</event>
<event>
 5    1  0.1448308E-002  0.1250044E+03  0.7818608E-02  0.1235062E+00
          4   -1    0    0  501    0  0.00000000000E+00  0.00000000000E+00  0.36619619144E+02  0.36641634874E+02  0.12700000000E+01 0. -1.
         -4   -1    0    0    0  501 -0.00000000000E+00 -0.00000000000E+00 -0.10662059792E+03  0.10662816139E+03  0.12700000000E+01 0. -1.
         25    2    1    2    0    0  0.00000000000E+00  0.00000000000E+00 -0.70000978775E+02  0.14326979626E+03  0.12500438989E+03 0.  0.
    9000005    1    3    3    0    0 -0.12620666451E+01 -0.18396241724E+02  0.33436390106E+02  0.38196946280E+02  0.10000000000E+01 0.  0.
    9000005    1    3    3    0    0  0.12620666451E+01  0.18396241724E+02 -0.10343736888E+03  0.10507284998E+03  0.10000000000E+01 0.  0.
<mgrwt>
<rscale>  0 0.12500439E+03</rscale>
<asrwt>0</asrwt>
<pdfrwt beam="1">  1        4 0.91586024E-02 0.12500439E+03</pdfrwt>
<pdfrwt beam="2">  1       -4 0.26658846E-01 0.12500439E+03</pdfrwt>
<totfact> 0.18872364E+03</totfact>
</mgrwt>
</event>
<event>
 5    1  0.1448308E-002  0.1249998E+03  0.7818608E-02  0.1235070E+00
          4   -1    0    0  501    0  0.00000000000E+00  0.00000000000E+00  0.77618592484E+01  0.78650720907E+01  0.12700000000E+01 0.  1.
         -4   -1    0    0    0  501 -0.00000000000E+00 -0.00000000000E+00 -0.49983268181E+03  0.49983429525E+03  0.12700000000E+01 0.  1.
         25    2    1    2    0    0  0.00000000000E+00  0.00000000000E+00 -0.49207082256E+03  0.50769936734E+03  0.12499981272E+03 0.  0.
    9000005    1    3    3    0    0 -0.55401341649E+01  0.29838730634E+02 -0.46791169619E+03  0.46889593554E+03  0.10000000000E+01 0.  0.
    9000005    1    3    3    0    0  0.55401341649E+01 -0.29838730634E+02 -0.24159126370E+02  0.38803431799E+02  0.10000000000E+01 0.  0.
<mgrwt>
<rscale>  0 0.12499981E+03</rscale>
<asrwt>0</asrwt>
<pdfrwt beam="1">  1        4 0.19535698E-02 0.12499981E+03</pdfrwt>
<pdfrwt beam="2">  1       -4 0.12497117E+00 0.12499981E+03</pdfrwt>
<totfact> 0.86395603E+02</totfact>
</mgrwt>
</event>
<event>
 5    1  0.1448308E-002  0.1249980E+03  0.7818608E-02  0.1235072E+00
         -4   -1    0    0    0  501 -0.00000000000E+00  0.00000000000E+00  0.26722604207E+02  0.26752765756E+02  0.12700000000E+01 0.  1.
          4   -1    0    0  501    0  0.00000000000E+00 -0.00000000000E+00 -0.14605762229E+03  0.14606314363E+03  0.12700000000E+01 0.  1.
         25    2    1    2    0    0  0.00000000000E+00  0.00000000000E+00 -0.11933501808E+03  0.17281590939E+03  0.12499796798E+03 0.  0.
    9000005    1    3    3    0    0 -0.17416155711E+02 -0.26486119317E+02  0.14788744778E+02  0.34993484655E+02  0.10000000000E+01 0.  0.
    9000005    1    3    3    0    0  0.17416155711E+02  0.26486119317E+02 -0.13412376286E+03  0.13782242473E+03  0.10000000000E+01 0.  0.
<mgrwt>
<rscale>  0 0.12499797E+03</rscale>
<asrwt>0</asrwt>
<pdfrwt beam="2">  1        4 0.36518864E-01 0.12499797E+03</pdfrwt>
<pdfrwt beam="1">  1       -4 0.66851118E-02 0.12499797E+03</pdfrwt>
<totfact> 0.17471605E+03</totfact>
</mgrwt>
</event>
<event>
 5    1  0.1448308E-002  0.1250268E+03  0.7818608E-02  0.1235027E+00
         -4   -1    0    0    0  501 -0.00000000000E+00  0.00000000000E+00  0.36302532916E+02  0.36324740826E+02  0.12700000000E+01 0.  1.
          4   -1    0    0  501    0  0.00000000000E+00 -0.00000000000E+00 -0.10758992522E+03  0.10759742055E+03  0.12700000000E+01 0.  1.
         25    2    1    2    0    0  0.00000000000E+00  0.00000000000E+00 -0.71287392308E+02  0.14392216138E+03  0.12502678207E+03 0.  0.
    9000005    1    3    3    0    0  0.54332155382E+01 -0.27797063490E+02 -0.99784790065E+02  0.10373138820E+03  0.10000000000E+01 0.  0.
    9000005    1    3    3    0    0 -0.54332155382E+01  0.27797063490E+02  0.28497397757E+02  0.40190773179E+02  0.10000000000E+01 0.  0.
<mgrwt>
<rscale>  0 0.12502678E+03</rscale>
<asrwt>0</asrwt>
<pdfrwt beam="2">  1        4 0.26901194E-01 0.12502678E+03</pdfrwt>
<pdfrwt beam="1">  1       -4 0.90793464E-02 0.12502678E+03</pdfrwt>
<totfact> 0.18829701E+03</totfact>
</mgrwt>
</event>
<event>
 5    1  0.1448308E-002  0.1249938E+03  0.7818608E-02  0.1235079E+00
         -4   -1    0    0    0  501 -0.00000000000E+00  0.00000000000E+00  0.26408731644E+02  0.26439251257E+02  0.12700000000E+01 0.  1.
          4   -1    0    0  501    0  0.00000000000E+00 -0.00000000000E+00 -0.14778178097E+03  0.14778723791E+03  0.12700000000E+01 0.  1.
         25    2    1    2    0    0  0.00000000000E+00  0.00000000000E+00 -0.12137304933E+03  0.17422648916E+03  0.12499380954E+03 0.  0.
    9000005    1    3    3    0    0  0.23055830212E+02  0.26044822563E+02 -0.13304705867E+03  0.13752244874E+03  0.10000000000E+01 0.  0.
    9000005    1    3    3    0    0 -0.23055830212E+02 -0.26044822563E+02  0.11674009335E+02  0.36704040419E+02  0.10000000000E+01 0.  0.
<mgrwt>
<rscale>  0 0.12499381E+03</rscale>
<asrwt>0</asrwt>
<pdfrwt beam="2">  1        4 0.36949940E-01 0.12499381E+03</pdfrwt>
<pdfrwt beam="1">  1       -4 0.66066804E-02 0.12499381E+03</pdfrwt>
<totfact> 0.17410583E+03</totfact>
</mgrwt>
</event>
<event>
 5    1  0.1448308E-002  0.1250014E+03  0.7818608E-02  0.1235067E+00
          4   -1    0    0  501    0  0.00000000000E+00  0.00000000000E+00  0.61606936404E+02  0.61620025260E+02  0.12700000000E+01 0. -1.
         -4   -1    0    0    0  501 -0.00000000000E+00 -0.00000000000E+00 -0.63381238891E+02  0.63393961411E+02  0.12700000000E+01 0. -1.
         25    2    1    2    0    0  0.00000000000E+00  0.00000000000E+00 -0.17743024877E+01  0.12501398667E+03  0.12500139485E+03 0.  0.
    9000005    1    3    3    0    0 -0.45290413665E+02  0.33206363115E+02 -0.28302556726E+02  0.62896095575E+02  0.10000000000E+01 0.  0.
    9000005    1    3    3    0    0  0.45290413665E+02 -0.33206363115E+02  0.26528254239E+02  0.62117891097E+02  0.10000000000E+01 0.  0.
<mgrwt>
<rscale>  0 0.12500139E+03</rscale>
<asrwt>0</asrwt>
<pdfrwt beam="1">  1        4 0.15404960E-01 0.12500139E+03</pdfrwt>
<pdfrwt beam="2">  1       -4 0.15848536E-01 0.12500139E+03</pdfrwt>
<totfact> 0.19833650E+03</totfact>
</mgrwt>
</event>
<event>
 5    1  0.1448308E-002  0.1250048E+03  0.7818608E-02  0.1235062E+00
          4   -1    0    0  501    0  0.00000000000E+00  0.00000000000E+00  0.12394763498E+02  0.12459657386E+02  0.12700000000E+01 0. -1.
         -4   -1    0    0    0  501 -0.00000000000E+00 -0.00000000000E+00 -0.31428835048E+03  0.31429091643E+03  0.12700000000E+01 0. -1.
         25    2    1    2    0    0  0.00000000000E+00  0.00000000000E+00 -0.30189358699E+03  0.32675057382E+03  0.12500479841E+03 0.  0.
    9000005    1    3    3    0    0  0.48809728725E+01 -0.57864966886E+02 -0.90579094035E+02  0.10759995616E+03  0.10000000000E+01 0.  0.
    9000005    1    3    3    0    0 -0.48809728725E+01  0.57864966886E+02 -0.21131449295E+03  0.21915061766E+03  0.10000000000E+01 0.  0.
<mgrwt>
<rscale>  0 0.12500480E+03</rscale>
<asrwt>0</asrwt>
<pdfrwt beam="1">  1        4 0.31071244E-02 0.12500480E+03</pdfrwt>
<pdfrwt beam="2">  1       -4 0.78580494E-01 0.12500480E+03</pdfrwt>
<totfact> 0.12251768E+03</totfact>
</mgrwt>
</event>
<event>
 5    1  0.1448308E-002  0.1249637E+03  0.7818608E-02  0.1235126E+00
         -4   -1    0    0    0  501 -0.00000000000E+00  0.00000000000E+00  0.85430638114E+01  0.86369461782E+01  0.12700000000E+01 0. -1.
          4   -1    0    0  501    0  0.00000000000E+00 -0.00000000000E+00 -0.45438466070E+03  0.45438643551E+03  0.12700000000E+01 0. -1.
         25    2    1    2    0    0  0.00000000000E+00  0.00000000000E+00 -0.44584159689E+03  0.46302338169E+03  0.12496368464E+03 0.  0.
    9000005    1    3    3    0    0 -0.54463589531E+01 -0.47730742977E+02 -0.74937658941E+02  0.89019881928E+02  0.10000000000E+01 0.  0.
    9000005    1    3    3    0    0  0.54463589531E+01  0.47730742977E+02 -0.37090393795E+03  0.37400349976E+03  0.10000000000E+01 0.  0.
<mgrwt>
<rscale>  0 0.12496368E+03</rscale>
<asrwt>0</asrwt>
<pdfrwt beam="2">  1        4 0.11360804E+00 0.12496368E+03</pdfrwt>
<pdfrwt beam="1">  1       -4 0.21477246E-02 0.12496368E+03</pdfrwt>
<totfact> 0.93802379E+02</totfact>
</mgrwt>
</event>
<event>
 5    1  0.1448308E-002  0.1250003E+03  0.7818608E-02  0.1235069E+00
          4   -1    0    0  501    0  0.00000000000E+00  0.00000000000E+00  0.16018113787E+03  0.16018617240E+03  0.12700000000E+01 0. -1.
         -4   -1    0    0    0  501 -0.00000000000E+00 -0.00000000000E+00 -0.24364616504E+02  0.24397693280E+02  0.12700000000E+01 0. -1.
         25    2    1    2    0    0  0.00000000000E+00  0.00000000000E+00  0.13581652137E+03  0.18458386568E+03  0.12500030398E+03 0.  0.
    9000005    1    3    3    0    0 -0.25052837565E+02 -0.53171671813E+02  0.99246942393E+02  0.11535088612E+03  0.10000000000E+01 0.  0.
    9000005    1    3    3    0    0  0.25052837565E+02  0.53171671813E+02  0.36569578973E+02  0.69232979567E+02  0.10000000000E+01 0.  0.
<mgrwt>
<rscale>  0 0.12500030E+03</rscale>
<asrwt>0</asrwt>
<pdfrwt beam="1">  1        4 0.40050048E-01 0.12500030E+03</pdfrwt>
<pdfrwt beam="2">  1       -4 0.60959181E-02 0.12500030E+03</pdfrwt>
<totfact> 0.16958405E+03</totfact>
</mgrwt>
</event>
<event>
 5    1  0.1448308E-002  0.1249999E+03  0.7818608E-02  0.1235069E+00
          4   -1    0    0  501    0  0.00000000000E+00  0.00000000000E+00  0.11609564231E+02  0.11678821928E+02  0.12700000000E+01 0. -1.
         -4   -1    0    0    0  501 -0.00000000000E+00 -0.00000000000E+00 -0.33539675572E+03  0.33539916017E+03  0.12700000000E+01 0. -1.
         25    2    1    2    0    0  0.00000000000E+00  0.00000000000E+00 -0.32378719148E+03  0.34707798210E+03  0.12499992116E+03 0.  0.
    9000005    1    3    3    0    0 -0.19546299792E+02  0.24583044743E+02 -0.11882272265E+02  0.33594230436E+02  0.10000000000E+01 0.  0.
    9000005    1    3    3    0    0  0.19546299792E+02 -0.24583044743E+02 -0.31190491922E+03  0.31348375166E+03  0.10000000000E+01 0.  0.
<mgrwt>
<rscale>  0 0.12499992E+03</rscale>
<asrwt>0</asrwt>
<pdfrwt beam="1">  1        4 0.29113499E-02 0.12499992E+03</pdfrwt>
<pdfrwt beam="2">  1       -4 0.83858115E-01 0.12499992E+03</pdfrwt>
<totfact> 0.11747351E+03</totfact>
</mgrwt>
</event>
<event>
 5    1  0.1448308E-002  0.1249997E+03  0.7818608E-02  0.1235070E+00
         -4   -1    0    0    0  501 -0.00000000000E+00  0.00000000000E+00  0.31531551750E+03  0.31531807509E+03  0.12700000000E+01 0. -1.
          4   -1    0    0  501    0  0.00000000000E+00 -0.00000000000E+00 -0.12353159933E+02  0.12418271229E+02  0.12700000000E+01 0. -1.
         25    2    1    2    0    0  0.00000000000E+00  0.00000000000E+00  0.30296235757E+03  0.32773634632E+03  0.12499969038E+03 0.  0.
    9000005    1    3    3    0    0  0.41363779925E+02  0.17133588784E+02  0.26578833710E+03  0.26953471445E+03  0.10000000000E+01 0.  0.
    9000005    1    3    3    0    0 -0.41363779925E+02 -0.17133588784E+02  0.37174020465E+02  0.58201631866E+02  0.10000000000E+01 0.  0.
<mgrwt>
<rscale>  0 0.12499969E+03</rscale>
<asrwt>0</asrwt>
<pdfrwt beam="2">  1        4 0.30967486E-02 0.12499969E+03</pdfrwt>
<pdfrwt beam="1">  1       -4 0.78837337E-01 0.12499969E+03</pdfrwt>
<totfact> 0.12227904E+03</totfact>
</mgrwt>
</event>
<event>
 5    1  0.1448308E-002  0.1250090E+03  0.7818608E-02  0.1235055E+00
         -4   -1    0    0    0  501 -0.00000000000E+00  0.00000000000E+00  0.65501312400E+02  0.65513623210E+02  0.12700000000E+01 0.  1.
          4   -1    0    0  501    0  0.00000000000E+00 -0.00000000000E+00 -0.59620140901E+02  0.59633665836E+02  0.12700000000E+01 0.  1.
         25    2    1    2    0    0  0.00000000000E+00  0.00000000000E+00  0.58811714989E+01  0.12514728905E+03  0.12500902278E+03 0.  0.
    9000005    1    3    3    0    0 -0.52860667881E+02  0.21143436561E+02 -0.22866188968E+02  0.61360880994E+02  0.10000000000E+01 0.  0.
    9000005    1    3    3    0    0  0.52860667881E+02 -0.21143436561E+02  0.28747360467E+02  0.63786408053E+02  0.10000000000E+01 0.  0.
<mgrwt>
<rscale>  0 0.12500902E+03</rscale>
<asrwt>0</asrwt>
<pdfrwt beam="2">  1        4 0.14908265E-01 0.12500902E+03</pdfrwt>
<pdfrwt beam="1">  1       -4 0.16378557E-01 0.12500902E+03</pdfrwt>
<totfact> 0.19822884E+03</totfact>
</mgrwt>
</event>
<event>
 5    1  0.1448308E-002  0.1250108E+03  0.7818608E-02  0.1235052E+00
          4   -1    0    0  501    0  0.00000000000E+00  0.00000000000E+00  0.32678778120E+02  0.32703446904E+02  0.12700000000E+01 0. -1.
         -4   -1    0    0    0  501 -0.00000000000E+00 -0.00000000000E+00 -0.11948229814E+03  0.11948904748E+03  0.12700000000E+01 0. -1.
         25    2    1    2    0    0  0.00000000000E+00  0.00000000000E+00 -0.86803520016E+02  0.15219249438E+03  0.12501081657E+03 0.  0.
    9000005    1    3    3    0    0 -0.56387236889E+02 -0.22198844141E+02 -0.62009677479E+02  0.86709337826E+02  0.10000000000E+01 0.  0.
    9000005    1    3    3    0    0  0.56387236889E+02  0.22198844141E+02 -0.24793842537E+02  0.65483156559E+02  0.10000000000E+01 0.  0.
<mgrwt>
<rscale>  0 0.12501082E+03</rscale>
<asrwt>0</asrwt>
<pdfrwt beam="1">  1        4 0.81736221E-02 0.12501082E+03</pdfrwt>
<pdfrwt beam="2">  1       -4 0.29874501E-01 0.12501082E+03</pdfrwt>
<totfact> 0.18426861E+03</totfact>
</mgrwt>
</event>
<event>
 5    1  0.1448308E-002  0.1249961E+03  0.7818608E-02  0.1235075E+00
          4   -1    0    0  501    0  0.00000000000E+00  0.00000000000E+00  0.35025267222E+03  0.35025497469E+03  0.12700000000E+01 0. -1.
         -4   -1    0    0    0  501 -0.00000000000E+00 -0.00000000000E+00 -0.11113463297E+02  0.11185793064E+02  0.12700000000E+01 0. -1.
         25    2    1    2    0    0  0.00000000000E+00  0.00000000000E+00  0.33913920892E+03  0.36144076775E+03  0.12499610221E+03 0.  0.
    9000005    1    3    3    0    0 -0.13359418978E+02  0.59513026368E+02  0.13026786772E+03  0.14384363643E+03  0.10000000000E+01 0.  0.
    9000005    1    3    3    0    0  0.13359418978E+02 -0.59513026368E+02  0.20887134120E+03  0.21759713132E+03  0.10000000000E+01 0.  0.
<mgrwt>
<rscale>  0 0.12499610E+03</rscale>
<asrwt>0</asrwt>
<pdfrwt beam="1">  1        4 0.87572496E-01 0.12499610E+03</pdfrwt>
<pdfrwt beam="2">  1       -4 0.27876949E-02 0.12499610E+03</pdfrwt>
<totfact> 0.11410145E+03</totfact>
</mgrwt>
</event>
<event>
 5    1  0.1448308E-002  0.1250036E+03  0.7818608E-02  0.1235064E+00
         -4   -1    0    0    0  501 -0.00000000000E+00  0.00000000000E+00  0.72925261837E+02  0.72936319580E+02  0.12700000000E+01 0. -1.
          4   -1    0    0  501    0  0.00000000000E+00 -0.00000000000E+00 -0.53545586749E+02  0.53560645630E+02  0.12700000000E+01 0. -1.
         25    2    1    2    0    0  0.00000000000E+00  0.00000000000E+00  0.19379675088E+02  0.12649696521E+03  0.12500364155E+03 0.  0.
    9000005    1    3    3    0    0  0.24836827571E+02  0.41714937458E+02  0.49510579052E+02  0.69349127240E+02  0.10000000000E+01 0.  0.
    9000005    1    3    3    0    0 -0.24836827571E+02 -0.41714937458E+02 -0.30130903965E+02  0.57147837970E+02  0.10000000000E+01 0.  0.
<mgrwt>
<rscale>  0 0.12500364E+03</rscale>
<asrwt>0</asrwt>
<pdfrwt beam="2">  1        4 0.13389661E-01 0.12500364E+03</pdfrwt>
<pdfrwt beam="1">  1       -4 0.18234580E-01 0.12500364E+03</pdfrwt>
<totfact> 0.19752406E+03</totfact>
</mgrwt>
</event>
<event>
 5    1  0.1448308E-002  0.1250012E+03  0.7818608E-02  0.1235067E+00
         -4   -1    0    0    0  501 -0.00000000000E+00  0.00000000000E+00  0.52019467037E+02  0.52034967578E+02  0.12700000000E+01 0.  1.
          4   -1    0    0  501    0  0.00000000000E+00 -0.00000000000E+00 -0.75061475042E+02  0.75072218134E+02  0.12700000000E+01 0.  1.
         25    2    1    2    0    0  0.00000000000E+00  0.00000000000E+00 -0.23042008005E+02  0.12710718571E+03  0.12500121010E+03 0.  0.
    9000005    1    3    3    0    0  0.35253366078E+02  0.10740226405E+02  0.39798817454E+02  0.54250328605E+02  0.10000000000E+01 0.  0.
    9000005    1    3    3    0    0 -0.35253366078E+02 -0.10740226405E+02 -0.62840825459E+02  0.72856857106E+02  0.10000000000E+01 0.  0.
<mgrwt>
<rscale>  0 0.12500121E+03</rscale>
<asrwt>0</asrwt>
<pdfrwt beam="2">  1        4 0.18768649E-01 0.12500121E+03</pdfrwt>
<pdfrwt beam="1">  1       -4 0.13008147E-01 0.12500121E+03</pdfrwt>
<totfact> 0.19720631E+03</totfact>
</mgrwt>
</event>
<event>
 5    1  0.1448308E-002  0.1250026E+03  0.7818608E-02  0.1235065E+00
         -4   -1    0    0    0  501 -0.00000000000E+00  0.00000000000E+00  0.38506981800E+01  0.40547227369E+01  0.12700000000E+01 0. -1.
          4   -1    0    0  501    0  0.00000000000E+00 -0.00000000000E+00 -0.98808316717E+03  0.98808398334E+03  0.12700000000E+01 0. -1.
         25    2    1    2    0    0  0.00000000000E+00  0.00000000000E+00 -0.98423246899E+03  0.99213870608E+03  0.12500263635E+03 0.  0.
    9000005    1    3    3    0    0 -0.34013139389E+02 -0.47532702765E+02 -0.31657459540E+03  0.32192658470E+03  0.10000000000E+01 0.  0.
    9000005    1    3    3    0    0  0.34013139389E+02  0.47532702765E+02 -0.66765787358E+03  0.67021212138E+03  0.10000000000E+01 0.  0.
<mgrwt>
<rscale>  0 0.12500264E+03</rscale>
<asrwt>0</asrwt>
<pdfrwt beam="2">  1        4 0.24704555E+00 0.12500264E+03</pdfrwt>
<pdfrwt beam="1">  1       -4 0.98828302E-03 0.12500264E+03</pdfrwt>
<totfact> 0.37639112E+02</totfact>
</mgrwt>
</event>
<event>
 5    1  0.1448308E-002  0.1250143E+03  0.7818608E-02  0.1235047E+00
         -4   -1    0    0    0  501 -0.00000000000E+00  0.00000000000E+00  0.34766453430E+02  0.34789641908E+02  0.12700000000E+01 0. -1.
          4   -1    0    0  501    0  0.00000000000E+00 -0.00000000000E+00 -0.11231833977E+03  0.11232551958E+03  0.12700000000E+01 0. -1.
         25    2    1    2    0    0  0.00000000000E+00  0.00000000000E+00 -0.77551886345E+02  0.14711516149E+03  0.12501430184E+03 0.  0.
    9000005    1    3    3    0    0  0.50590831998E+02 -0.35313563750E+02 -0.50524014144E+02  0.79750586657E+02  0.10000000000E+01 0.  0.
    9000005    1    3    3    0    0 -0.50590831998E+02  0.35313563750E+02 -0.27027872201E+02  0.67364574835E+02  0.10000000000E+01 0.  0.
<mgrwt>
<rscale>  0 0.12501430E+03</rscale>
<asrwt>0</asrwt>
<pdfrwt beam="2">  1        4 0.28083380E-01 0.12501430E+03</pdfrwt>
<pdfrwt beam="1">  1       -4 0.86954096E-02 0.12501430E+03</pdfrwt>
<totfact> 0.18675326E+03</totfact>
</mgrwt>
</event>
<event>
 5    1  0.1448308E-002  0.1249713E+03  0.7818608E-02  0.1235114E+00
          4   -1    0    0  501    0  0.00000000000E+00  0.00000000000E+00  0.10925420405E+03  0.10926158521E+03  0.12700000000E+01 0.  1.
         -4   -1    0    0    0  501 -0.00000000000E+00 -0.00000000000E+00 -0.35717483585E+02  0.35740055031E+02  0.12700000000E+01 0.  1.
         25    2    1    2    0    0  0.00000000000E+00  0.00000000000E+00  0.73536720463E+02  0.14500164024E+03  0.12497130237E+03 0.  0.
    9000005    1    3    3    0    0 -0.14018311445E+02  0.60631636118E+02  0.30334482262E+02  0.69237917128E+02  0.10000000000E+01 0.  0.
    9000005    1    3    3    0    0  0.14018311445E+02 -0.60631636118E+02  0.43202238201E+02  0.75763723111E+02  0.10000000000E+01 0.  0.
<mgrwt>
<rscale>  0 0.12497130E+03</rscale>
<asrwt>0</asrwt>
<pdfrwt beam="1">  1        4 0.27317295E-01 0.12497130E+03</pdfrwt>
<pdfrwt beam="2">  1       -4 0.89331150E-02 0.12497130E+03</pdfrwt>
<totfact> 0.18799843E+03</totfact>
</mgrwt>
</event>
<event>
 5    1  0.1448308E-002  0.1249999E+03  0.7818608E-02  0.1235070E+00
          4   -1    0    0  501    0  0.00000000000E+00  0.00000000000E+00  0.41373182440E+02  0.41392669946E+02  0.12700000000E+01 0. -1.
         -4   -1    0    0    0  501 -0.00000000000E+00 -0.00000000000E+00 -0.94368813425E+02  0.94377358764E+02  0.12700000000E+01 0. -1.
         25    2    1    2    0    0  0.00000000000E+00  0.00000000000E+00 -0.52995630985E+02  0.13577002871E+03  0.12499985517E+03 0.  0.
    9000005    1    3    3    0    0  0.44995411705E+02  0.29911203851E+02  0.76078931832E+01  0.54572403548E+02  0.10000000000E+01 0.  0.
    9000005    1    3    3    0    0 -0.44995411705E+02 -0.29911203851E+02 -0.60603524168E+02  0.81197625162E+02  0.10000000000E+01 0.  0.
<mgrwt>
<rscale>  0 0.12499986E+03</rscale>
<asrwt>0</asrwt>
<pdfrwt beam="1">  1        4 0.10346800E-01 0.12499986E+03</pdfrwt>
<pdfrwt beam="2">  1       -4 0.23595707E-01 0.12499986E+03</pdfrwt>
<totfact> 0.19258945E+03</totfact>
</mgrwt>
</event>
<event>
 5    1  0.1448308E-002  0.1249975E+03  0.7818608E-02  0.1235073E+00
          4   -1    0    0  501    0  0.00000000000E+00  0.00000000000E+00  0.29650219837E+03  0.29650491823E+03  0.12700000000E+01 0. -1.
         -4   -1    0    0    0  501 -0.00000000000E+00 -0.00000000000E+00 -0.13140511675E+02  0.13201740305E+02  0.12700000000E+01 0. -1.
         25    2    1    2    0    0  0.00000000000E+00  0.00000000000E+00  0.28336168669E+03  0.30970665854E+03  0.12499747541E+03 0.  0.
    9000005    1    3    3    0    0 -0.45961100116E+02  0.25361998562E+01  0.24639824644E+03  0.25066302256E+03  0.10000000000E+01 0.  0.
    9000005    1    3    3    0    0  0.45961100116E+02 -0.25361998562E+01  0.36963440253E+02  0.59043635973E+02  0.10000000000E+01 0.  0.
<mgrwt>
<rscale>  0 0.12499748E+03</rscale>
<asrwt>0</asrwt>
<pdfrwt beam="1">  1        4 0.74133542E-01 0.12499748E+03</pdfrwt>
<pdfrwt beam="2">  1       -4 0.32931216E-02 0.12499748E+03</pdfrwt>
<totfact> 0.12704039E+03</totfact>
</mgrwt>
</event>
<event>
 5    1  0.1448308E-002  0.1249968E+03  0.7818608E-02  0.1235074E+00
         -4   -1    0    0    0  501 -0.00000000000E+00  0.00000000000E+00  0.44967858394E+02  0.44985788740E+02  0.12700000000E+01 0. -1.
          4   -1    0    0  501    0  0.00000000000E+00 -0.00000000000E+00 -0.86823294180E+02  0.86832582089E+02  0.12700000000E+01 0. -1.
         25    2    1    2    0    0  0.00000000000E+00  0.00000000000E+00 -0.41855435786E+02  0.13181837083E+03  0.12499682149E+03 0.  0.
    9000005    1    3    3    0    0  0.55570032647E+02 -0.22377455377E+02 -0.39682307027E+02  0.71864208954E+02  0.10000000000E+01 0.  0.
    9000005    1    3    3    0    0 -0.55570032647E+02  0.22377455377E+02 -0.21731287591E+01  0.59954161875E+02  0.10000000000E+01 0.  0.
<mgrwt>
<rscale>  0 0.12499682E+03</rscale>
<asrwt>0</asrwt>
<pdfrwt beam="2">  1        4 0.21709226E-01 0.12499682E+03</pdfrwt>
<pdfrwt beam="1">  1       -4 0.11245367E-01 0.12499682E+03</pdfrwt>
<totfact> 0.19468562E+03</totfact>
</mgrwt>
</event>
<event>
 5    1  0.1448308E-002  0.1249980E+03  0.7818608E-02  0.1235072E+00
         -4   -1    0    0    0  501 -0.00000000000E+00  0.00000000000E+00  0.14156229074E+03  0.14156798741E+03  0.12700000000E+01 0.  1.
          4   -1    0    0  501    0  0.00000000000E+00 -0.00000000000E+00 -0.27572121810E+02  0.27601355059E+02  0.12700000000E+01 0.  1.
         25    2    1    2    0    0  0.00000000000E+00  0.00000000000E+00  0.11399016892E+03  0.16916934247E+03  0.12499803126E+03 0.  0.
    9000005    1    3    3    0    0 -0.25067439020E+02 -0.51390714644E+02  0.22871084541E+02  0.61591140261E+02  0.10000000000E+01 0.  0.
    9000005    1    3    3    0    0  0.25067439020E+02  0.51390714644E+02  0.91119084383E+02  0.10757820220E+03  0.10000000000E+01 0.  0.
<mgrwt>
<rscale>  0 0.12499803E+03</rscale>
<asrwt>0</asrwt>
<pdfrwt beam="2">  1        4 0.68973968E-02 0.12499803E+03</pdfrwt>
<pdfrwt beam="1">  1       -4 0.35394938E-01 0.12499803E+03</pdfrwt>
<totfact> 0.17635385E+03</totfact>
</mgrwt>
</event>
<event>
 5    1  0.1448308E-002  0.1249998E+03  0.7818608E-02  0.1235070E+00
          4   -1    0    0  501    0  0.00000000000E+00  0.00000000000E+00  0.37053236218E+01  0.39169277684E+01  0.12700000000E+01 0. -1.
         -4   -1    0    0    0  501 -0.00000000000E+00 -0.00000000000E+00 -0.10247443990E+04  0.10247451860E+04  0.12700000000E+01 0. -1.
         25    2    1    2    0    0  0.00000000000E+00  0.00000000000E+00 -0.10210390754E+04  0.10286621138E+04  0.12499980322E+03 0.  0.
    9000005    1    3    3    0    0 -0.45253805273E+02 -0.42544174904E+02 -0.45390811116E+03  0.45813915690E+03  0.10000000000E+01 0.  0.
    9000005    1    3    3    0    0  0.45253805273E+02  0.42544174904E+02 -0.56713096423E+03  0.57052295685E+03  0.10000000000E+01 0.  0.
<mgrwt>
<rscale>  0 0.12499980E+03</rscale>
<asrwt>0</asrwt>
<pdfrwt beam="1">  1        4 0.95288330E-03 0.12499980E+03</pdfrwt>
<pdfrwt beam="2">  1       -4 0.25621171E+00 0.12499980E+03</pdfrwt>
<totfact> 0.35215148E+02</totfact>
</mgrwt>
</event>
<event>
 5    1  0.1448308E-002  0.1249970E+03  0.7818608E-02  0.1235074E+00
         -4   -1    0    0    0  501 -0.00000000000E+00  0.00000000000E+00  0.10393638268E+03  0.10394414146E+03  0.12700000000E+01 0. -1.
          4   -1    0    0  501    0  0.00000000000E+00 -0.00000000000E+00 -0.37561358276E+02  0.37582822347E+02  0.12700000000E+01 0. -1.
         25    2    1    2    0    0  0.00000000000E+00  0.00000000000E+00  0.66375024399E+02  0.14152696381E+03  0.12499695044E+03 0.  0.
    9000005    1    3    3    0    0 -0.26556756085E+02 -0.45770284045E+02 -0.44479429834E+01  0.53112751690E+02  0.10000000000E+01 0.  0.
    9000005    1    3    3    0    0  0.26556756085E+02  0.45770284045E+02  0.70822967383E+02  0.88414212116E+02  0.10000000000E+01 0.  0.
<mgrwt>
<rscale>  0 0.12499695E+03</rscale>
<asrwt>0</asrwt>
<pdfrwt beam="2">  1        4 0.93939925E-02 0.12499695E+03</pdfrwt>
<pdfrwt beam="1">  1       -4 0.25987748E-01 0.12499695E+03</pdfrwt>
<totfact> 0.18963844E+03</totfact>
</mgrwt>
</event>
<event>
 5    1  0.1448308E-002  0.1250005E+03  0.7818608E-02  0.1235068E+00
         -4   -1    0    0    0  501 -0.00000000000E+00  0.00000000000E+00  0.17137269878E+03  0.17137740454E+03  0.12700000000E+01 0.  1.
          4   -1    0    0  501    0  0.00000000000E+00 -0.00000000000E+00 -0.22771374141E+02  0.22806761723E+02  0.12700000000E+01 0.  1.
         25    2    1    2    0    0  0.00000000000E+00  0.00000000000E+00  0.14860132464E+03  0.19418416627E+03  0.12500054697E+03 0.  0.
    9000005    1    3    3    0    0  0.22156499928E+02 -0.15752204371E+02 -0.13111917384E+02  0.30198755092E+02  0.10000000000E+01 0.  0.
    9000005    1    3    3    0    0 -0.22156499928E+02  0.15752204371E+02  0.16171324203E+03  0.16398541117E+03  0.10000000000E+01 0.  0.
<mgrwt>
<rscale>  0 0.12500055E+03</rscale>
<asrwt>0</asrwt>
<pdfrwt beam="2">  1        4 0.56978552E-02 0.12500055E+03</pdfrwt>
<pdfrwt beam="1">  1       -4 0.42848186E-01 0.12500055E+03</pdfrwt>
<totfact> 0.16557386E+03</totfact>
</mgrwt>
</event>
<event>
 5    1  0.1448308E-002  0.1250199E+03  0.7818608E-02  0.1235038E+00
         -4   -1    0    0    0  501 -0.00000000000E+00  0.00000000000E+00  0.48535271351E+01  0.50169338894E+01  0.12700000000E+01 0. -1.
          4   -1    0    0  501    0  0.00000000000E+00 -0.00000000000E+00 -0.79159093042E+03  0.79159194919E+03  0.12700000000E+01 0. -1.
         25    2    1    2    0    0  0.00000000000E+00  0.00000000000E+00 -0.78673740329E+03  0.79660888308E+03  0.12501988192E+03 0.  0.
    9000005    1    3    3    0    0  0.50451318373E+02 -0.75129230128E+01 -0.62352538232E+03  0.62560904880E+03  0.10000000000E+01 0.  0.
    9000005    1    3    3    0    0 -0.50451318373E+02  0.75129230128E+01 -0.16321202097E+03  0.17099983429E+03  0.10000000000E+01 0.  0.
<mgrwt>
<rscale>  0 0.12501988E+03</rscale>
<asrwt>0</asrwt>
<pdfrwt beam="2">  1        4 0.19791785E+00 0.12501988E+03</pdfrwt>
<pdfrwt beam="1">  1       -4 0.12339377E-02 0.12501988E+03</pdfrwt>
<totfact> 0.52755094E+02</totfact>
</mgrwt>
</event>
<event>
 5    1  0.1448308E-002  0.1249979E+03  0.7818608E-02  0.1235073E+00
         -4   -1    0    0    0  501 -0.00000000000E+00  0.00000000000E+00  0.42167744908E+03  0.42167936156E+03  0.12700000000E+01 0. -1.
          4   -1    0    0  501    0  0.00000000000E+00 -0.00000000000E+00 -0.92178189400E+01  0.93048958087E+01  0.12700000000E+01 0. -1.
         25    2    1    2    0    0  0.00000000000E+00  0.00000000000E+00  0.41245963014E+03  0.43098425737E+03  0.12499793439E+03 0.  0.
    9000005    1    3    3    0    0  0.75438615786E+01 -0.30309501681E+02  0.39285002313E+03  0.39409100017E+03  0.10000000000E+01 0.  0.
    9000005    1    3    3    0    0 -0.75438615786E+01  0.30309501681E+02  0.19609607012E+02  0.36893257200E+02  0.10000000000E+01 0.  0.
<mgrwt>
<rscale>  0 0.12499793E+03</rscale>
<asrwt>0</asrwt>
<pdfrwt beam="2">  1        4 0.23155786E-02 0.12499793E+03</pdfrwt>
<pdfrwt beam="1">  1       -4 0.10543048E+00 0.12499793E+03</pdfrwt>
<totfact> 0.99538466E+02</totfact>
</mgrwt>
</event>
<event>
 5    1  0.1448308E-002  0.1250013E+03  0.7818608E-02  0.1235067E+00
          4   -1    0    0  501    0  0.00000000000E+00  0.00000000000E+00  0.64162911912E+01  0.65407715639E+01  0.12700000000E+01 0.  1.
         -4   -1    0    0    0  501 -0.00000000000E+00 -0.00000000000E+00 -0.60284037616E+03  0.60284171390E+03  0.12700000000E+01 0.  1.
         25    2    1    2    0    0  0.00000000000E+00  0.00000000000E+00 -0.59642408496E+03  0.60938248547E+03  0.12500129787E+03 0.  0.
    9000005    1    3    3    0    0  0.57559442356E+02 -0.12179362196E+01 -0.41670168193E+03  0.42066122295E+03  0.10000000000E+01 0.  0.
    9000005    1    3    3    0    0 -0.57559442356E+02  0.12179362196E+01 -0.17972240304E+03  0.18872126252E+03  0.10000000000E+01 0.  0.
<mgrwt>
<rscale>  0 0.12500130E+03</rscale>
<asrwt>0</asrwt>
<pdfrwt beam="1">  1        4 0.16198021E-02 0.12500130E+03</pdfrwt>
<pdfrwt beam="2">  1       -4 0.15072563E+00 0.12500130E+03</pdfrwt>
<totfact> 0.72332812E+02</totfact>
</mgrwt>
</event>
<event>
 5    1  0.1448308E-002  0.1249999E+03  0.7818608E-02  0.1235069E+00
          4   -1    0    0  501    0  0.00000000000E+00  0.00000000000E+00  0.83442884194E+02  0.83452548329E+02  0.12700000000E+01 0. -1.
         -4   -1    0    0    0  501 -0.00000000000E+00 -0.00000000000E+00 -0.46792392938E+02  0.46809624405E+02  0.12700000000E+01 0. -1.
         25    2    1    2    0    0  0.00000000000E+00  0.00000000000E+00  0.36650491255E+02  0.13026217273E+03  0.12499990054E+03 0.  0.
    9000005    1    3    3    0    0  0.54215163579E+02  0.29991510902E+02  0.26821324512E+02  0.67521538317E+02  0.10000000000E+01 0.  0.
    9000005    1    3    3    0    0 -0.54215163579E+02 -0.29991510902E+02  0.98291667428E+01  0.62740634416E+02  0.10000000000E+01 0.  0.
<mgrwt>
<rscale>  0 0.12499990E+03</rscale>
<asrwt>0</asrwt>
<pdfrwt beam="1">  1        4 0.20864083E-01 0.12499990E+03</pdfrwt>
<pdfrwt beam="2">  1       -4 0.11701460E-01 0.12499990E+03</pdfrwt>
<totfact> 0.19550344E+03</totfact>
</mgrwt>
</event>
<event>
 5    1  0.1448308E-002  0.1250107E+03  0.7818608E-02  0.1235053E+00
         -4   -1    0    0    0  501 -0.00000000000E+00  0.00000000000E+00  0.24156976932E+02  0.24190337627E+02  0.12700000000E+01 0.  1.
          4   -1    0    0  501    0  0.00000000000E+00 -0.00000000000E+00 -0.16158292191E+03  0.16158791277E+03  0.12700000000E+01 0.  1.
         25    2    1    2    0    0  0.00000000000E+00  0.00000000000E+00 -0.13742594498E+03  0.18577825039E+03  0.12501067141E+03 0.  0.
    9000005    1    3    3    0    0  0.25413500885E+02  0.39219584063E+02 -0.13037973338E+03  0.13850594456E+03  0.10000000000E+01 0.  0.
    9000005    1    3    3    0    0 -0.25413500885E+02 -0.39219584063E+02 -0.70462115965E+01  0.47272305837E+02  0.10000000000E+01 0.  0.
<mgrwt>
<rscale>  0 0.12501067E+03</rscale>
<asrwt>0</asrwt>
<pdfrwt beam="2">  1        4 0.40400521E-01 0.12501067E+03</pdfrwt>
<pdfrwt beam="1">  1       -4 0.60440386E-02 0.12501067E+03</pdfrwt>
<totfact> 0.16903623E+03</totfact>
</mgrwt>
</event>
<event>
 5    1  0.1448308E-002  0.1250012E+03  0.7818608E-02  0.1235067E+00
         -4   -1    0    0    0  501 -0.00000000000E+00  0.00000000000E+00  0.37863666221E+01  0.39936790303E+01  0.12700000000E+01 0.  1.
          4   -1    0    0  501    0  0.00000000000E+00 -0.00000000000E+00 -0.10039830536E+04  0.10039838569E+04  0.12700000000E+01 0.  1.
         25    2    1    2    0    0  0.00000000000E+00  0.00000000000E+00 -0.10001966870E+04  0.10079775359E+04  0.12500120079E+03 0.  0.
    9000005    1    3    3    0    0 -0.30105358253E+02 -0.53684923897E+02 -0.41290493152E+03  0.41746842530E+03  0.10000000000E+01 0.  0.
    9000005    1    3    3    0    0  0.30105358253E+02  0.53684923897E+02 -0.58729175546E+03  0.59050911058E+03  0.10000000000E+01 0.  0.
<mgrwt>
<rscale>  0 0.12500120E+03</rscale>
<asrwt>0</asrwt>
<pdfrwt beam="2">  1        4 0.25102089E+00 0.12500120E+03</pdfrwt>
<pdfrwt beam="1">  1       -4 0.97260955E-03 0.12500120E+03</pdfrwt>
<totfact> 0.36574356E+02</totfact>
</mgrwt>
</event>
<event>
 5    1  0.1448308E-002  0.1249961E+03  0.7818608E-02  0.1235075E+00
          4   -1    0    0  501    0  0.00000000000E+00  0.00000000000E+00  0.43021229894E+02  0.43039971208E+02  0.12700000000E+01 0. -1.
         -4   -1    0    0    0  501 -0.00000000000E+00 -0.00000000000E+00 -0.90749632789E+02  0.90758518892E+02  0.12700000000E+01 0. -1.
         25    2    1    2    0    0  0.00000000000E+00  0.00000000000E+00 -0.47728402896E+02  0.13379849010E+03  0.12499614198E+03 0.  0.
    9000005    1    3    3    0    0  0.44897466054E+02  0.42634902037E+02 -0.14813505958E+02  0.63670694111E+02  0.10000000000E+01 0.  0.
    9000005    1    3    3    0    0 -0.44897466054E+02 -0.42634902037E+02 -0.32914896938E+02  0.70127795989E+02  0.10000000000E+01 0.  0.
<mgrwt>
<rscale>  0 0.12499614E+03</rscale>
<asrwt>0</asrwt>
<pdfrwt beam="1">  1        4 0.10758761E-01 0.12499614E+03</pdfrwt>
<pdfrwt beam="2">  1       -4 0.22690861E-01 0.12499614E+03</pdfrwt>
<totfact> 0.19364000E+03</totfact>
</mgrwt>
</event>
<event>
 5    1  0.1448308E-002  0.1249996E+03  0.7818608E-02  0.1235070E+00
         -4   -1    0    0    0  501 -0.00000000000E+00  0.00000000000E+00  0.26732498899E+02  0.26762649297E+02  0.12700000000E+01 0.  1.
          4   -1    0    0  501    0  0.00000000000E+00 -0.00000000000E+00 -0.14600747106E+03  0.14601299430E+03  0.12700000000E+01 0.  1.
         25    2    1    2    0    0  0.00000000000E+00  0.00000000000E+00 -0.11927497216E+03  0.17277564360E+03  0.12499961615E+03 0.  0.
    9000005    1    3    3    0    0  0.28410926949E+02 -0.27748438179E+02 -0.12632918839E+03  0.13242817084E+03  0.10000000000E+01 0.  0.
    9000005    1    3    3    0    0 -0.28410926949E+02  0.27748438179E+02  0.70542162333E+01  0.40347472761E+02  0.10000000000E+01 0.  0.
<mgrwt>
<rscale>  0 0.12499962E+03</rscale>
<asrwt>0</asrwt>
<pdfrwt beam="2">  1        4 0.36506325E-01 0.12499962E+03</pdfrwt>
<pdfrwt beam="1">  1       -4 0.66875843E-02 0.12499962E+03</pdfrwt>
<totfact> 0.17472732E+03</totfact>
</mgrwt>
</event>
<event>
 5    1  0.1448308E-002  0.1250025E+03  0.7818608E-02  0.1235065E+00
         -4   -1    0    0    0  501 -0.00000000000E+00  0.00000000000E+00  0.61495228142E+02  0.61508340770E+02  0.12700000000E+01 0.  1.
          4   -1    0    0  501    0  0.00000000000E+00 -0.00000000000E+00 -0.63497466681E+02  0.63510165918E+02  0.12700000000E+01 0.  1.
         25    2    1    2    0    0  0.00000000000E+00  0.00000000000E+00 -0.20022385386E+01  0.12501850669E+03  0.12500247220E+03 0.  0.
    9000005    1    3    3    0    0 -0.42638268234E+02 -0.17549309784E+02  0.41187277851E+02  0.61833583502E+02  0.10000000000E+01 0.  0.
    9000005    1    3    3    0    0  0.42638268234E+02  0.17549309784E+02 -0.43189516390E+02  0.63184923185E+02  0.10000000000E+01 0.  0.
<mgrwt>
<rscale>  0 0.12500247E+03</rscale>
<asrwt>0</asrwt>
<pdfrwt beam="2">  1        4 0.15877593E-01 0.12500247E+03</pdfrwt>
<pdfrwt beam="1">  1       -4 0.15377034E-01 0.12500247E+03</pdfrwt>
<totfact> 0.19832904E+03</totfact>
</mgrwt>
</event>
<event>
 5    1  0.1448308E-002  0.1250122E+03  0.7818608E-02  0.1235050E+00
         -4   -1    0    0    0  501 -0.00000000000E+00  0.00000000000E+00  0.18566466078E+02  0.18609851225E+02  0.12700000000E+01 0.  1.
          4   -1    0    0  501    0  0.00000000000E+00 -0.00000000000E+00 -0.21014279282E+03  0.21014663042E+03  0.12700000000E+01 0.  1.
         25    2    1    2    0    0  0.00000000000E+00  0.00000000000E+00 -0.19157632675E+03  0.22875648164E+03  0.12501215510E+03 0.  0.
    9000005    1    3    3    0    0 -0.28901493045E+02  0.27655748198E+02 -0.79185206937E+01  0.40790190960E+02  0.10000000000E+01 0.  0.
    9000005    1    3    3    0    0  0.28901493045E+02 -0.27655748198E+02 -0.18365780605E+03  0.18796629068E+03  0.10000000000E+01 0.  0.
<mgrwt>
<rscale>  0 0.12501216E+03</rscale>
<asrwt>0</asrwt>
<pdfrwt beam="2">  1        4 0.52541594E-01 0.12501216E+03</pdfrwt>
<pdfrwt beam="1">  1       -4 0.46475200E-02 0.12501216E+03</pdfrwt>
<totfact> 0.15227581E+03</totfact>
</mgrwt>
</event>
<event>
 4    1  0.1448308E-002  0.1251819E+03  0.7818608E-02  0.1234785E+00
         -4   -1    0    0    0  501 -0.00000000000E+00  0.00000000000E+00  0.17288951214E+02  0.17335533856E+02  0.12700000000E+01 0. -1.
          4   -1    0    0  501    0  0.00000000000E+00 -0.00000000000E+00 -0.22624393220E+03  0.22624749669E+03  0.12700000000E+01 0. -1.
    9000005    1    1    2    0    0 -0.20950277324E+02 -0.23950976746E+02 -0.20933717729E+03  0.21174422590E+03  0.10000000000E+01 0.  0.
    9000005    1    1    2    0    0  0.20950277324E+02  0.23950976746E+02  0.38219630362E+00  0.31838804642E+02  0.10000000000E+01 0.  0.
<mgrwt>
<rscale>  0 0.12518190E+03</rscale>
<asrwt>0</asrwt>
<pdfrwt beam="2">  1        4 0.56567242E-01 0.12518190E+03</pdfrwt>
<pdfrwt beam="1">  1       -4 0.43285069E-02 0.12518190E+03</pdfrwt>
<totfact> 0.14652357E+03</totfact>
</mgrwt>
</event>
<event>
 5    1  0.1448308E-002  0.1250014E+03  0.7818608E-02  0.1235067E+00
          4   -1    0    0  501    0  0.00000000000E+00  0.00000000000E+00  0.18193379666E+03  0.18193822926E+03  0.12700000000E+01 0. -1.
         -4   -1    0    0    0  501 -0.00000000000E+00 -0.00000000000E+00 -0.21447727503E+02  0.21485295321E+02  0.12700000000E+01 0. -1.
         25    2    1    2    0    0  0.00000000000E+00  0.00000000000E+00  0.16048606916E+03  0.20342352458E+03  0.12500140783E+03 0.  0.
    9000005    1    3    3    0    0 -0.57532909528E+02 -0.54402040101E+01  0.11894935181E+03  0.13224817501E+03  0.10000000000E+01 0.  0.
    9000005    1    3    3    0    0  0.57532909528E+02  0.54402040101E+01  0.41536717349E+02  0.71175349571E+02  0.10000000000E+01 0.  0.
<mgrwt>
<rscale>  0 0.12500141E+03</rscale>
<asrwt>0</asrwt>
<pdfrwt beam="1">  1        4 0.45488698E-01 0.12500141E+03</pdfrwt>
<pdfrwt beam="2">  1       -4 0.53671821E-02 0.12500141E+03</pdfrwt>
<totfact> 0.16185343E+03</totfact>
</mgrwt>
</event>
<event>
 5    1  0.1448308E-002  0.1250000E+03  0.7818608E-02  0.1235069E+00
         -4   -1    0    0    0  501 -0.00000000000E+00  0.00000000000E+00  0.14011682178E+02  0.14069119996E+02  0.12700000000E+01 0. -1.
          4   -1    0    0  501    0  0.00000000000E+00 -0.00000000000E+00 -0.27815628192E+03  0.27815918118E+03  0.12700000000E+01 0. -1.
         25    2    1    2    0    0  0.00000000000E+00  0.00000000000E+00 -0.26414459974E+03  0.29222830117E+03  0.12500004173E+03 0.  0.
    9000005    1    3    3    0    0  0.38547649034E+02 -0.45001371857E+00 -0.24705741271E+03  0.25004897307E+03  0.10000000000E+01 0.  0.
    9000005    1    3    3    0    0 -0.38547649034E+02  0.45001371857E+00 -0.17087187034E+02  0.42179328102E+02  0.10000000000E+01 0.  0.
<mgrwt>
<rscale>  0 0.12500004E+03</rscale>
<asrwt>0</asrwt>
<pdfrwt beam="2">  1        4 0.69546595E-01 0.12500004E+03</pdfrwt>
<pdfrwt beam="1">  1       -4 0.35104636E-02 0.12500004E+03</pdfrwt>
<totfact> 0.13191691E+03</totfact>
</mgrwt>
</event>
<event>
 5    1  0.1448308E-002  0.1249997E+03  0.7818608E-02  0.1235070E+00
          4   -1    0    0  501    0  0.00000000000E+00  0.00000000000E+00  0.98960443192E+02  0.98968592072E+02  0.12700000000E+01 0.  1.
         -4   -1    0    0    0  501 -0.00000000000E+00 -0.00000000000E+00 -0.39452687289E+02  0.39473122936E+02  0.12700000000E+01 0.  1.
         25    2    1    2    0    0  0.00000000000E+00  0.00000000000E+00  0.59507755903E+02  0.13844171501E+03  0.12499974177E+03 0.  0.
    9000005    1    3    3    0    0 -0.13632601788E+02  0.47118909457E+02 -0.13129287003E+02  0.50787967444E+02  0.10000000000E+01 0.  0.
    9000005    1    3    3    0    0  0.13632601788E+02 -0.47118909457E+02  0.72637042906E+02  0.87653747564E+02  0.10000000000E+01 0.  0.
<mgrwt>
<rscale>  0 0.12499974E+03</rscale>
<asrwt>0</asrwt>
<pdfrwt beam="1">  1        4 0.24743683E-01 0.12499974E+03</pdfrwt>
<pdfrwt beam="2">  1       -4 0.98667450E-02 0.12499974E+03</pdfrwt>
<totfact> 0.19120462E+03</totfact>
</mgrwt>
</event>
<event>
 5    1  0.1448308E-002  0.1250007E+03  0.7818608E-02  0.1235068E+00
         -4   -1    0    0    0  501 -0.00000000000E+00  0.00000000000E+00  0.48618447212E+03  0.48618613085E+03  0.12700000000E+01 0. -1.
          4   -1    0    0  501    0  0.00000000000E+00 -0.00000000000E+00 -0.79827173064E+01  0.80831105148E+01  0.12700000000E+01 0. -1.
         25    2    1    2    0    0  0.00000000000E+00  0.00000000000E+00  0.47820175481E+03  0.49426924136E+03  0.12500065861E+03 0.  0.
    9000005    1    3    3    0    0  0.15457223211E+02  0.16520550699E+01 -0.23480393297E+00  0.15579158137E+02  0.10000000000E+01 0.  0.
    9000005    1    3    3    0    0 -0.15457223211E+02 -0.16520550699E+01  0.47843655875E+03  0.47869008323E+03  0.10000000000E+01 0.  0.
<mgrwt>
<rscale>  0 0.12500066E+03</rscale>
<asrwt>0</asrwt>
<pdfrwt beam="2">  1        4 0.20084360E-02 0.12500066E+03</pdfrwt>
<pdfrwt beam="1">  1       -4 0.12155886E+00 0.12500066E+03</pdfrwt>
<totfact> 0.88524225E+02</totfact>
</mgrwt>
</event>
<event>
 5    1  0.1448308E-002  0.1250001E+03  0.7818608E-02  0.1235069E+00
         -4   -1    0    0    0  501 -0.00000000000E+00  0.00000000000E+00  0.30194709803E+02  0.30221406322E+02  0.12700000000E+01 0. -1.
          4   -1    0    0  501    0  0.00000000000E+00 -0.00000000000E+00 -0.12928192026E+03  0.12928815803E+03  0.12700000000E+01 0. -1.
         25    2    1    2    0    0  0.00000000000E+00  0.00000000000E+00 -0.99087210461E+02  0.15950956435E+03  0.12500010337E+03 0.  0.
    9000005    1    3    3    0    0  0.34504379631E+02 -0.50722782702E+02 -0.64744634850E+02  0.89197649300E+02  0.10000000000E+01 0.  0.
    9000005    1    3    3    0    0 -0.34504379631E+02  0.50722782702E+02 -0.34342575611E+02  0.70311915053E+02  0.10000000000E+01 0.  0.
<mgrwt>
<rscale>  0 0.12500010E+03</rscale>
<asrwt>0</asrwt>
<pdfrwt beam="2">  1        4 0.32324595E-01 0.12500010E+03</pdfrwt>
<pdfrwt beam="1">  1       -4 0.75527946E-02 0.12500010E+03</pdfrwt>
<totfact> 0.18080816E+03</totfact>
</mgrwt>
</event>
<event>
 5    1  0.1448308E-002  0.1249648E+03  0.7818608E-02  0.1235124E+00
          4   -1    0    0  501    0  0.00000000000E+00  0.00000000000E+00  0.10445283266E+03  0.10446055308E+03  0.12700000000E+01 0. -1.
         -4   -1    0    0    0  501 -0.00000000000E+00 -0.00000000000E+00 -0.37356328447E+02  0.37377910255E+02  0.12700000000E+01 0. -1.
         25    2    1    2    0    0  0.00000000000E+00  0.00000000000E+00  0.67096504208E+02  0.14183846333E+03  0.12496483027E+03 0.  0.
    9000005    1    3    3    0    0  0.17932046491E+02  0.56260851278E+02  0.10392294697E+02  0.59965335544E+02  0.10000000000E+01 0.  0.
    9000005    1    3    3    0    0 -0.17932046491E+02 -0.56260851278E+02  0.56704209511E+02  0.81873127790E+02  0.10000000000E+01 0.  0.
<mgrwt>
<rscale>  0 0.12496483E+03</rscale>
<asrwt>0</asrwt>
<pdfrwt beam="1">  1        4 0.26116871E-01 0.12496483E+03</pdfrwt>
<pdfrwt beam="2">  1       -4 0.93427450E-02 0.12496483E+03</pdfrwt>
<totfact> 0.18962223E+03</totfact>
</mgrwt>
</event>
<event>
 5    1  0.1448308E-002  0.1249988E+03  0.7818608E-02  0.1235071E+00
          4   -1    0    0  501    0  0.00000000000E+00  0.00000000000E+00  0.58840016517E+03  0.58840153575E+03  0.12700000000E+01 0.  1.
         -4   -1    0    0    0  501 -0.00000000000E+00 -0.00000000000E+00 -0.65765071769E+01  0.66980106485E+01  0.12700000000E+01 0.  1.
         25    2    1    2    0    0  0.00000000000E+00  0.00000000000E+00  0.58182365800E+03  0.59509954640E+03  0.12499880448E+03 0.  0.
    9000005    1    3    3    0    0  0.60353958959E+02  0.82686725129E+01  0.22456612366E+03  0.23268415331E+03  0.10000000000E+01 0.  0.
    9000005    1    3    3    0    0 -0.60353958959E+02 -0.82686725129E+01  0.35725753433E+03  0.36241539309E+03  0.10000000000E+01 0.  0.
<mgrwt>
<rscale>  0 0.12499880E+03</rscale>
<asrwt>0</asrwt>
<pdfrwt beam="1">  1        4 0.14711540E+00 0.12499880E+03</pdfrwt>
<pdfrwt beam="2">  1       -4 0.16594860E-02 0.12499880E+03</pdfrwt>
<totfact> 0.74124947E+02</totfact>
</mgrwt>
</event>
<event>
 5    1  0.1448308E-002  0.1249997E+03  0.7818608E-02  0.1235070E+00
          4   -1    0    0  501    0  0.00000000000E+00  0.00000000000E+00  0.41978109960E+02  0.41997316769E+02  0.12700000000E+01 0.  1.
         -4   -1    0    0    0  501 -0.00000000000E+00 -0.00000000000E+00 -0.93009158517E+02  0.93017828764E+02  0.12700000000E+01 0.  1.
         25    2    1    2    0    0  0.00000000000E+00  0.00000000000E+00 -0.51031048557E+02  0.13501514553E+03  0.12499968643E+03 0.  0.
    9000005    1    3    3    0    0  0.57408672251E+02  0.18271471504E+02 -0.43447795390E+02  0.74285350135E+02  0.10000000000E+01 0.  0.
    9000005    1    3    3    0    0 -0.57408672251E+02 -0.18271471504E+02 -0.75832531666E+01  0.60729795398E+02  0.10000000000E+01 0.  0.
<mgrwt>
<rscale>  0 0.12499969E+03</rscale>
<asrwt>0</asrwt>
<pdfrwt beam="1">  1        4 0.10498012E-01 0.12499969E+03</pdfrwt>
<pdfrwt beam="2">  1       -4 0.23255774E-01 0.12499969E+03</pdfrwt>
<totfact> 0.19298485E+03</totfact>
</mgrwt>
</event>
<event>
 5    1  0.1448308E-002  0.1250038E+03  0.7818608E-02  0.1235063E+00
         -4   -1    0    0    0  501 -0.00000000000E+00  0.00000000000E+00  0.93519790188E+01  0.94378181572E+01  0.12700000000E+01 0. -1.
          4   -1    0    0  501    0  0.00000000000E+00 -0.00000000000E+00 -0.41572279387E+03  0.41572473374E+03  0.12700000000E+01 0. -1.
         25    2    1    2    0    0  0.00000000000E+00  0.00000000000E+00 -0.40637081485E+03  0.42516255190E+03  0.12500382543E+03 0.  0.
    9000005    1    3    3    0    0 -0.50206733637E+02 -0.36207932765E+02 -0.23239584218E+03  0.24050064025E+03  0.10000000000E+01 0.  0.
    9000005    1    3    3    0    0  0.50206733637E+02  0.36207932765E+02 -0.17397497267E+03  0.18466191165E+03  0.10000000000E+01 0.  0.
<mgrwt>
<rscale>  0 0.12500383E+03</rscale>
<asrwt>0</asrwt>
<pdfrwt beam="2">  1        4 0.10394161E+00 0.12500383E+03</pdfrwt>
<pdfrwt beam="1">  1       -4 0.23489685E-02 0.12500383E+03</pdfrwt>
<totfact> 0.10064376E+03</totfact>
</mgrwt>
</event>
<event>
 5    1  0.1448308E-002  0.1249983E+03  0.7818608E-02  0.1235072E+00
         -4   -1    0    0    0  501 -0.00000000000E+00  0.00000000000E+00  0.10185230357E+04  0.10185238275E+04  0.12700000000E+01 0.  1.
          4   -1    0    0  501    0  0.00000000000E+00 -0.00000000000E+00 -0.37291531030E+01  0.39394774864E+01  0.12700000000E+01 0.  1.
         25    2    1    2    0    0  0.00000000000E+00  0.00000000000E+00  0.10147938826E+04  0.10224633050E+04  0.12499834341E+03 0.  0.
    9000005    1    3    3    0    0 -0.49130831695E+02  0.16477073283E+02  0.79308379862E+03  0.79477559361E+03  0.10000000000E+01 0.  0.
    9000005    1    3    3    0    0  0.49130831695E+02 -0.16477073283E+02  0.22171008402E+03  0.22768771140E+03  0.10000000000E+01 0.  0.
<mgrwt>
<rscale>  0 0.12499834E+03</rscale>
<asrwt>0</asrwt>
<pdfrwt beam="2">  1        4 0.95867747E-03 0.12499834E+03</pdfrwt>
<pdfrwt beam="1">  1       -4 0.25465724E+00 0.12499834E+03</pdfrwt>
<totfact> 0.35620006E+02</totfact>
</mgrwt>
</event>
<event>
 5    1  0.1448308E-002  0.1249990E+03  0.7818608E-02  0.1235071E+00
         -4   -1    0    0    0  501 -0.00000000000E+00  0.00000000000E+00  0.74750151597E+02  0.74760939425E+02  0.12700000000E+01 0.  1.
          4   -1    0    0  501    0  0.00000000000E+00 -0.00000000000E+00 -0.52234344011E+02  0.52249780806E+02  0.12700000000E+01 0.  1.
         25    2    1    2    0    0  0.00000000000E+00  0.00000000000E+00  0.22515807586E+02  0.12701072023E+03  0.12499904585E+03 0.  0.
    9000005    1    3    3    0    0 -0.14526695296E+02  0.60777947913E+02  0.10796126658E+02  0.63423498639E+02  0.10000000000E+01 0.  0.
    9000005    1    3    3    0    0  0.14526695296E+02 -0.60777947913E+02  0.11719680928E+02  0.63587221592E+02  0.10000000000E+01 0.  0.
<mgrwt>
<rscale>  0 0.12499905E+03</rscale>
<asrwt>0</asrwt>
<pdfrwt beam="2">  1        4 0.13061864E-01 0.12499905E+03</pdfrwt>
<pdfrwt beam="1">  1       -4 0.18690816E-01 0.12499905E+03</pdfrwt>
<totfact> 0.19726840E+03</totfact>
</mgrwt>
</event>
<event>
 5    1  0.1448308E-002  0.1250007E+03  0.7818608E-02  0.1235068E+00
          4   -1    0    0  501    0  0.00000000000E+00  0.00000000000E+00  0.16442201839E+03  0.16442692307E+03  0.12700000000E+01 0.  1.
         -4   -1    0    0    0  501 -0.00000000000E+00 -0.00000000000E+00 -0.23735480786E+02  0.23769433063E+02  0.12700000000E+01 0.  1.
         25    2    1    2    0    0  0.00000000000E+00  0.00000000000E+00  0.14068653760E+03  0.18819635614E+03  0.12500066640E+03 0.  0.
    9000005    1    3    3    0    0 -0.13519970645E+02 -0.57402945109E+02  0.39217639488E+02  0.70830155728E+02  0.10000000000E+01 0.  0.
    9000005    1    3    3    0    0  0.13519970645E+02  0.57402945109E+02  0.10146889812E+03  0.11736620041E+03  0.10000000000E+01 0.  0.
<mgrwt>
<rscale>  0 0.12500067E+03</rscale>
<asrwt>0</asrwt>
<pdfrwt beam="1">  1        4 0.41110362E-01 0.12500067E+03</pdfrwt>
<pdfrwt beam="2">  1       -4 0.59387273E-02 0.12500067E+03</pdfrwt>
<totfact> 0.16805590E+03</totfact>
</mgrwt>
</event>
<event>
 5    1  0.1448308E-002  0.1250000E+03  0.7818608E-02  0.1235069E+00
          4   -1    0    0  501    0  0.00000000000E+00  0.00000000000E+00  0.40015300559E+03  0.40015502094E+03  0.12700000000E+01 0. -1.
         -4   -1    0    0    0  501 -0.00000000000E+00 -0.00000000000E+00 -0.97185322240E+01  0.98011615939E+01  0.12700000000E+01 0. -1.
         25    2    1    2    0    0  0.00000000000E+00  0.00000000000E+00  0.39043447337E+03  0.40995618254E+03  0.12499997442E+03 0.  0.
    9000005    1    3    3    0    0 -0.57123694660E+02 -0.20519828746E+02  0.14645417278E+03  0.15853707638E+03  0.10000000000E+01 0.  0.
    9000005    1    3    3    0    0  0.57123694660E+02  0.20519828746E+02  0.24398030059E+03  0.25141910615E+03  0.10000000000E+01 0.  0.
<mgrwt>
<rscale>  0 0.12499997E+03</rscale>
<asrwt>0</asrwt>
<pdfrwt beam="1">  1        4 0.10004883E+00 0.12499997E+03</pdfrwt>
<pdfrwt beam="2">  1       -4 0.24402137E-02 0.12499997E+03</pdfrwt>
<totfact> 0.10366908E+03</totfact>
</mgrwt>
</event>
<event>
 5    1  0.1448308E-002  0.1250024E+03  0.7818608E-02  0.1235065E+00
          4   -1    0    0  501    0  0.00000000000E+00  0.00000000000E+00  0.31351310847E+02  0.31377023310E+02  0.12700000000E+01 0. -1.
         -4   -1    0    0    0  501 -0.00000000000E+00 -0.00000000000E+00 -0.12452090713E+03  0.12452738338E+03  0.12700000000E+01 0. -1.
         25    2    1    2    0    0  0.00000000000E+00  0.00000000000E+00 -0.93169596283E+02  0.15590440669E+03  0.12500244140E+03 0.  0.
    9000005    1    3    3    0    0  0.36043137866E+01 -0.51693265613E+02 -0.30177060332E+01  0.51916195328E+02  0.10000000000E+01 0.  0.
    9000005    1    3    3    0    0 -0.36043137866E+01  0.51693265613E+02 -0.90151890250E+02  0.10398821137E+03  0.10000000000E+01 0.  0.
<mgrwt>
<rscale>  0 0.12500244E+03</rscale>
<asrwt>0</asrwt>
<pdfrwt beam="1">  1        4 0.78418516E-02 0.12500244E+03</pdfrwt>
<pdfrwt beam="2">  1       -4 0.31134249E-01 0.12500244E+03</pdfrwt>
<totfact> 0.18251183E+03</totfact>
</mgrwt>
</event>
<event>
 5    1  0.1448308E-002  0.1250148E+03  0.7818608E-02  0.1235046E+00
         -4   -1    0    0    0  501 -0.00000000000E+00  0.00000000000E+00  0.37230153281E+03  0.37230369893E+03  0.12700000000E+01 0.  1.
          4   -1    0    0  501    0  0.00000000000E+00 -0.00000000000E+00 -0.10454025492E+02  0.10530885480E+02  0.12700000000E+01 0.  1.
         25    2    1    2    0    0  0.00000000000E+00  0.00000000000E+00  0.36184750732E+03  0.38283458441E+03  0.12501480098E+03 0.  0.
    9000005    1    3    3    0    0 -0.36925082974E+02 -0.40863420801E+02  0.27139915849E+03  0.27693281521E+03  0.10000000000E+01 0.  0.
    9000005    1    3    3    0    0  0.36925082974E+02  0.40863420801E+02  0.90448348831E+02  0.10590176919E+03  0.10000000000E+01 0.  0.
<mgrwt>
<rscale>  0 0.12501480E+03</rscale>
<asrwt>0</asrwt>
<pdfrwt beam="2">  1        4 0.26233849E-02 0.12501480E+03</pdfrwt>
<pdfrwt beam="1">  1       -4 0.93085254E-01 0.12501480E+03</pdfrwt>
<totfact> 0.10927850E+03</totfact>
</mgrwt>
</event>
<event>
 5    1  0.1448308E-002  0.1250043E+03  0.7818608E-02  0.1235063E+00
          4   -1    0    0  501    0  0.00000000000E+00  0.00000000000E+00  0.31657792712E+01  0.34110201398E+01  0.12700000000E+01 0. -1.
         -4   -1    0    0    0  501 -0.00000000000E+00 -0.00000000000E+00 -0.11877236885E+04  0.11877243675E+04  0.12700000000E+01 0. -1.
         25    2    1    2    0    0  0.00000000000E+00  0.00000000000E+00 -0.11845579093E+04  0.11911353877E+04  0.12500428530E+03 0.  0.
    9000005    1    3    3    0    0  0.60359253256E+02  0.74101249724E+01 -0.72949583630E+03  0.73202686056E+03  0.10000000000E+01 0.  0.
    9000005    1    3    3    0    0 -0.60359253256E+02 -0.74101249724E+01 -0.45506207295E+03  0.45910852709E+03  0.10000000000E+01 0.  0.
<mgrwt>
<rscale>  0 0.12500429E+03</rscale>
<asrwt>0</asrwt>
<pdfrwt beam="1">  1        4 0.82218887E-03 0.12500429E+03</pdfrwt>
<pdfrwt beam="2">  1       -4 0.29696019E+00 0.12500429E+03</pdfrwt>
<totfact> 0.25666958E+02</totfact>
</mgrwt>
</event>
<event>
 5    1  0.1448308E-002  0.1250013E+03  0.7818608E-02  0.1235067E+00
         -4   -1    0    0    0  501 -0.00000000000E+00  0.00000000000E+00  0.30453626420E+03  0.30453891231E+03  0.12700000000E+01 0.  1.
          4   -1    0    0  501    0  0.00000000000E+00 -0.00000000000E+00 -0.12793005896E+02  0.12855889695E+02  0.12700000000E+01 0.  1.
         25    2    1    2    0    0  0.00000000000E+00  0.00000000000E+00  0.29174325830E+03  0.31739480201E+03  0.12500132630E+03 0.  0.
    9000005    1    3    3    0    0 -0.23077220634E+02  0.12539668513E+02  0.28985474674E+03  0.29104394103E+03  0.10000000000E+01 0.  0.
    9000005    1    3    3    0    0  0.23077220634E+02 -0.12539668513E+02  0.18885115613E+01  0.26350860982E+02  0.10000000000E+01 0.  0.
<mgrwt>
<rscale>  0 0.12500133E+03</rscale>
<asrwt>0</asrwt>
<pdfrwt beam="2">  1        4 0.32064429E-02 0.12500133E+03</pdfrwt>
<pdfrwt beam="1">  1       -4 0.76142259E-01 0.12500133E+03</pdfrwt>
<totfact> 0.12496787E+03</totfact>
</mgrwt>
</event>
<event>
 5    1  0.1448308E-002  0.1250008E+03  0.7818608E-02  0.1235068E+00
         -4   -1    0    0    0  501 -0.00000000000E+00  0.00000000000E+00  0.38095084823E+01  0.40156263368E+01  0.12700000000E+01 0. -1.
          4   -1    0    0  501    0  0.00000000000E+00 -0.00000000000E+00 -0.99819132506E+03  0.99819213297E+03  0.12700000000E+01 0. -1.
         25    2    1    2    0    0  0.00000000000E+00  0.00000000000E+00 -0.99438181658E+03  0.10022077593E+04  0.12500078270E+03 0.  0.
    9000005    1    3    3    0    0 -0.30545070656E+02 -0.20725052475E+02 -0.90148607450E+03  0.90224202499E+03  0.10000000000E+01 0.  0.
    9000005    1    3    3    0    0  0.30545070656E+02  0.20725052475E+02 -0.92895742082E+02  0.99965734322E+02  0.10000000000E+01 0.  0.
<mgrwt>
<rscale>  0 0.12500078E+03</rscale>
<asrwt>0</asrwt>
<pdfrwt beam="2">  1        4 0.24957283E+00 0.12500078E+03</pdfrwt>
<pdfrwt beam="1">  1       -4 0.97824626E-03 0.12500078E+03</pdfrwt>
<totfact> 0.36960555E+02</totfact>
</mgrwt>
</event>
<event>
 5    1  0.1448308E-002  0.1249876E+03  0.7818608E-02  0.1235089E+00
         -4   -1    0    0    0  501 -0.00000000000E+00  0.00000000000E+00  0.10352541342E+02  0.10430149196E+02  0.12700000000E+01 0.  1.
          4   -1    0    0  501    0  0.00000000000E+00 -0.00000000000E+00 -0.37576041614E+03  0.37576256231E+03  0.12700000000E+01 0.  1.
         25    2    1    2    0    0  0.00000000000E+00  0.00000000000E+00 -0.36540787479E+03  0.38619271151E+03  0.12498758122E+03 0.  0.
    9000005    1    3    3    0    0  0.32512026012E+02  0.17239311981E+02 -0.33874123865E+03  0.34073575169E+03  0.10000000000E+01 0.  0.
    9000005    1    3    3    0    0 -0.32512026012E+02 -0.17239311981E+02 -0.26666636140E+02  0.45456959819E+02  0.10000000000E+01 0.  0.
<mgrwt>
<rscale>  0 0.12498758E+03</rscale>
<asrwt>0</asrwt>
<pdfrwt beam="2">  1        4 0.93950028E-01 0.12498758E+03</pdfrwt>
<pdfrwt beam="1">  1       -4 0.25981058E-02 0.12498758E+03</pdfrwt>
<totfact> 0.10862322E+03</totfact>
</mgrwt>
</event>
<event>
 5    1  0.1448308E-002  0.1250011E+03  0.7818608E-02  0.1235068E+00
          4   -1    0    0  501    0  0.00000000000E+00  0.00000000000E+00  0.25565430867E+02  0.25596955980E+02  0.12700000000E+01 0.  1.
         -4   -1    0    0    0  501 -0.00000000000E+00 -0.00000000000E+00 -0.15266849732E+03  0.15267377959E+03  0.12700000000E+01 0.  1.
         25    2    1    2    0    0  0.00000000000E+00  0.00000000000E+00 -0.12710306645E+03  0.17827073557E+03  0.12500106263E+03 0.  0.
    9000005    1    3    3    0    0  0.44960011440E+01  0.61950959742E+02 -0.53755509943E+02  0.82151021226E+02  0.10000000000E+01 0.  0.
    9000005    1    3    3    0    0 -0.44960011440E+01 -0.61950959742E+02 -0.73347556511E+02  0.96119714343E+02  0.10000000000E+01 0.  0.
<mgrwt>
<rscale>  0 0.12500106E+03</rscale>
<asrwt>0</asrwt>
<pdfrwt beam="1">  1        4 0.63959591E-02 0.12500106E+03</pdfrwt>
<pdfrwt beam="2">  1       -4 0.38171723E-01 0.12500106E+03</pdfrwt>
<totfact> 0.17229903E+03</totfact>
</mgrwt>
</event>
