<event>
 5    1  0.3266101E-002  0.1250014E+03  0.7818608E-02  0.1235067E+00
         -4   -1    0    0    0  501 -0.00000000000E+00  0.00000000000E+00  0.25921982778E+03  0.25922293883E+03  0.12700000000E+01 0. -1.
          4   -1    0    0  501    0  0.00000000000E+00 -0.00000000000E+00 -0.15039627726E+02  0.15093154149E+02  0.12700000000E+01 0. -1.
         25    2    1    2    0    0  0.00000000000E+00  0.00000000000E+00  0.24418020005E+03  0.27431609297E+03  0.12500139506E+03 0.  0.
    9000005    1    3    3    0    0 -0.39022077299E+02  0.48737508643E+02  0.11617310188E+03  0.13189107955E+03  0.10000000000E+01 0.  0.
    9000005    1    3    3    0    0  0.39022077299E+02 -0.48737508643E+02  0.12800709817E+03  0.14242501342E+03  0.10000000000E+01 0.  0.
<mgrwt>
<rscale>  0 0.12500140E+03</rscale>
<asrwt>0</asrwt>
<pdfrwt beam="2">  1        4 0.23181458E-02 0.12500140E+03</pdfrwt>
<pdfrwt beam="1">  1       -4 0.39884326E-01 0.12500140E+03</pdfrwt>
<totfact> 0.78935390E+03</totfact>
</mgrwt>
</event>
<event>
 5    1  0.3266101E-002  0.1249984E+03  0.7818608E-02  0.1235072E+00
         -4   -1    0    0    0  501 -0.00000000000E+00  0.00000000000E+00  0.35824515067E+02  0.35847019120E+02  0.12700000000E+01 0.  1.
          4   -1    0    0  501    0  0.00000000000E+00 -0.00000000000E+00 -0.10897519936E+03  0.10898259941E+03  0.12700000000E+01 0.  1.
         25    2    1    2    0    0  0.00000000000E+00  0.00000000000E+00 -0.73150684292E+02  0.14482961853E+03  0.12499838316E+03 0.  0.
    9000005    1    3    3    0    0  0.44165633253E+01 -0.57816692072E+02 -0.63571510400E+02  0.86050060130E+02  0.10000000000E+01 0.  0.
    9000005    1    3    3    0    0 -0.44165633253E+01  0.57816692072E+02 -0.95791738913E+01  0.58779558404E+02  0.10000000000E+01 0.  0.
<mgrwt>
<rscale>  0 0.12499838E+03</rscale>
<asrwt>0</asrwt>
<pdfrwt beam="2">  1        4 0.16767715E-01 0.12499838E+03</pdfrwt>
<pdfrwt beam="1">  1       -4 0.55137642E-02 0.12499838E+03</pdfrwt>
<totfact> 0.10034817E+04</totfact>
</mgrwt>
</event>
<event>
 5    1  0.3266101E-002  0.1249588E+03  0.7818608E-02  0.1235134E+00
         -4   -1    0    0    0  501 -0.00000000000E+00  0.00000000000E+00  0.57703003267E+03  0.57703143026E+03  0.12700000000E+01 0.  1.
          4   -1    0    0  501    0  0.00000000000E+00 -0.00000000000E+00 -0.67040943512E+01  0.68233262467E+01  0.12700000000E+01 0.  1.
         25    2    1    2    0    0  0.00000000000E+00  0.00000000000E+00  0.57032593832E+03  0.58385475650E+03  0.12495879630E+03 0.  0.
    9000005    1    3    3    0    0  0.17104912904E+02  0.35333377496E+01  0.56541269196E+03  0.56568328130E+03  0.10000000000E+01 0.  0.
    9000005    1    3    3    0    0 -0.17104912904E+02 -0.35333377496E+01  0.49132463631E+01  0.18171475200E+02  0.10000000000E+01 0.  0.
<mgrwt>
<rscale>  0 0.12495880E+03</rscale>
<asrwt>0</asrwt>
<pdfrwt beam="2">  1        4 0.10406783E-02 0.12495880E+03</pdfrwt>
<pdfrwt beam="1">  1       -4 0.88783136E-01 0.12495880E+03</pdfrwt>
<totfact> 0.49947994E+03</totfact>
</mgrwt>
</event>
<event>
 5    1  0.3266101E-002  0.1250004E+03  0.7818608E-02  0.1235069E+00
         -4   -1    0    0    0  501 -0.00000000000E+00  0.00000000000E+00  0.16701311932E+04  0.16701316761E+04  0.12700000000E+01 0. -1.
          4   -1    0    0  501    0  0.00000000000E+00 -0.00000000000E+00 -0.21659862732E+01  0.25108557378E+01  0.12700000000E+01 0. -1.
         25    2    1    2    0    0  0.00000000000E+00  0.00000000000E+00  0.16679652069E+04  0.16726425318E+04  0.12500043073E+03 0.  0.
    9000005    1    3    3    0    0 -0.31064009326E+02  0.42030032022E+02  0.37553986321E+03  0.37916050048E+03  0.10000000000E+01 0.  0.
    9000005    1    3    3    0    0  0.31064009326E+02 -0.42030032022E+02  0.12924253437E+04  0.12934820313E+04  0.10000000000E+01 0.  0.
<mgrwt>
<rscale>  0 0.12500043E+03</rscale>
<asrwt>0</asrwt>
<pdfrwt beam="2">  1        4 0.35979324E-03 0.12500043E+03</pdfrwt>
<pdfrwt beam="1">  1       -4 0.25697052E+00 0.12500043E+03</pdfrwt>
<totfact> 0.14769271E+03</totfact>
</mgrwt>
</event>
<event>
 5    1  0.3266101E-002  0.1250022E+03  0.7818608E-02  0.1235066E+00
         -4   -1    0    0    0  501 -0.00000000000E+00  0.00000000000E+00  0.84882981556E+02  0.84892481750E+02  0.12700000000E+01 0. -1.
          4   -1    0    0  501    0  0.00000000000E+00 -0.00000000000E+00 -0.45999983673E+02  0.46017511862E+02  0.12700000000E+01 0. -1.
         25    2    1    2    0    0  0.00000000000E+00  0.00000000000E+00  0.38882997882E+02  0.13090999361E+03  0.12500215559E+03 0.  0.
    9000005    1    3    3    0    0 -0.26658817032E+02  0.48596951313E+02  0.49667816134E+02  0.74432843302E+02  0.10000000000E+01 0.  0.
    9000005    1    3    3    0    0  0.26658817032E+02 -0.48596951313E+02 -0.10784818251E+02  0.56477150311E+02  0.10000000000E+01 0.  0.
<mgrwt>
<rscale>  0 0.12500216E+03</rscale>
<asrwt>0</asrwt>
<pdfrwt beam="2">  1        4 0.70789998E-02 0.12500216E+03</pdfrwt>
<pdfrwt beam="1">  1       -4 0.13060999E-01 0.12500216E+03</pdfrwt>
<totfact> 0.10324517E+04</totfact>
</mgrwt>
</event>
<event>
 5    1  0.3266101E-002  0.1250029E+03  0.7818608E-02  0.1235065E+00
         -4   -1    0    0    0  501 -0.00000000000E+00  0.00000000000E+00  0.23412213829E+01  0.26634972431E+01  0.12700000000E+01 0.  1.
          4   -1    0    0  501    0  0.00000000000E+00 -0.00000000000E+00 -0.15607769095E+04  0.15607774262E+04  0.12700000000E+01 0.  1.
         25    2    1    2    0    0  0.00000000000E+00  0.00000000000E+00 -0.15584356881E+04  0.15634409234E+04  0.12500290833E+03 0.  0.
    9000005    1    3    3    0    0  0.19138913023E+02  0.55348955833E+02 -0.10519865533E+04  0.10536159230E+04  0.10000000000E+01 0.  0.
    9000005    1    3    3    0    0 -0.19138913023E+02 -0.55348955833E+02 -0.50644913479E+03  0.50982500040E+03  0.10000000000E+01 0.  0.
<mgrwt>
<rscale>  0 0.12500291E+03</rscale>
<asrwt>0</asrwt>
<pdfrwt beam="2">  1        4 0.24014358E+00 0.12500291E+03</pdfrwt>
<pdfrwt beam="1">  1       -4 0.38501935E-03 0.12500291E+03</pdfrwt>
<totfact> 0.16715553E+03</totfact>
</mgrwt>
</event>
<event>
 5    1  0.3266101E-002  0.1249894E+03  0.7818608E-02  0.1235086E+00
         -4   -1    0    0    0  501 -0.00000000000E+00  0.00000000000E+00  0.77211843820E+01  0.78249337545E+01  0.12700000000E+01 0. -1.
          4   -1    0    0  501    0  0.00000000000E+00 -0.00000000000E+00 -0.50234762007E+03  0.50234922543E+03  0.12700000000E+01 0. -1.
         25    2    1    2    0    0  0.00000000000E+00  0.00000000000E+00 -0.49462643568E+03  0.51017415918E+03  0.12498944683E+03 0.  0.
    9000005    1    3    3    0    0 -0.30919818835E+02 -0.51226073992E+02 -0.17379154377E+03  0.18380600246E+03  0.10000000000E+01 0.  0.
    9000005    1    3    3    0    0  0.30919818835E+02  0.51226073992E+02 -0.32083489191E+03  0.32636815672E+03  0.10000000000E+01 0.  0.
<mgrwt>
<rscale>  0 0.12498945E+03</rscale>
<asrwt>0</asrwt>
<pdfrwt beam="2">  1        4 0.77292328E-01 0.12498945E+03</pdfrwt>
<pdfrwt beam="1">  1       -4 0.11959791E-02 0.12498945E+03</pdfrwt>
<totfact> 0.55096319E+03</totfact>
</mgrwt>
</event>
<event>
 5    1  0.3266101E-002  0.1250043E+03  0.7818608E-02  0.1235063E+00
         -4   -1    0    0    0  501 -0.00000000000E+00  0.00000000000E+00  0.33834341016E+03  0.33834579367E+03  0.12700000000E+01 0.  1.
          4   -1    0    0  501    0  0.00000000000E+00 -0.00000000000E+00 -0.11508662666E+02  0.11578523929E+02  0.12700000000E+01 0.  1.
         25    2    1    2    0    0  0.00000000000E+00  0.00000000000E+00  0.32683474749E+03  0.34992431760E+03  0.12500430346E+03 0.  0.
    9000005    1    3    3    0    0 -0.34760694757E+02 -0.48783056441E+02  0.11354377201E+03  0.12837944017E+03  0.10000000000E+01 0.  0.
    9000005    1    3    3    0    0  0.34760694757E+02  0.48783056441E+02  0.21329097548E+03  0.22154487743E+03  0.10000000000E+01 0.  0.
<mgrwt>
<rscale>  0 0.12500430E+03</rscale>
<asrwt>0</asrwt>
<pdfrwt beam="2">  1        4 0.17761206E-02 0.12500430E+03</pdfrwt>
<pdfrwt beam="1">  1       -4 0.52058394E-01 0.12500430E+03</pdfrwt>
<totfact> 0.69726237E+03</totfact>
</mgrwt>
</event>
<event>
 5    1  0.3266101E-002  0.1250061E+03  0.7818608E-02  0.1235060E+00
         -4   -1    0    0    0  501 -0.00000000000E+00  0.00000000000E+00  0.34518181654E+01  0.36780359768E+01  0.12700000000E+01 0. -1.
          4   -1    0    0  501    0  0.00000000000E+00 -0.00000000000E+00 -0.10956258262E+04  0.10956265623E+04  0.12700000000E+01 0. -1.
         25    2    1    2    0    0  0.00000000000E+00  0.00000000000E+00 -0.10921740080E+04  0.10993045982E+04  0.12500614339E+03 0.  0.
    9000005    1    3    3    0    0 -0.53984189302E+02 -0.27537364284E+02 -0.41184231286E+03  0.41627838016E+03  0.10000000000E+01 0.  0.
    9000005    1    3    3    0    0  0.53984189302E+02  0.27537364284E+02 -0.68033169518E+03  0.68302621808E+03  0.10000000000E+01 0.  0.
<mgrwt>
<rscale>  0 0.12500614E+03</rscale>
<asrwt>0</asrwt>
<pdfrwt beam="2">  1        4 0.16857501E+00 0.12500614E+03</pdfrwt>
<pdfrwt beam="1">  1       -4 0.54850781E-03 0.12500614E+03</pdfrwt>
<totfact> 0.27500115E+03</totfact>
</mgrwt>
</event>
<event>
 5    1  0.3266101E-002  0.1249969E+03  0.7818608E-02  0.1235074E+00
         -4   -1    0    0    0  501 -0.00000000000E+00  0.00000000000E+00  0.10852499651E+04  0.10852507082E+04  0.12700000000E+01 0.  1.
          4   -1    0    0  501    0  0.00000000000E+00 -0.00000000000E+00 -0.34864251615E+01  0.37105337092E+01  0.12700000000E+01 0.  1.
         25    2    1    2    0    0  0.00000000000E+00  0.00000000000E+00  0.10817635400E+04  0.10889612419E+04  0.12499692013E+03 0.  0.
    9000005    1    3    3    0    0  0.43844900515E+02 -0.23665968586E+02  0.86947237689E+03  0.87089934410E+03  0.10000000000E+01 0.  0.
    9000005    1    3    3    0    0 -0.43844900515E+02  0.23665968586E+02  0.21229116306E+03  0.21806189783E+03  0.10000000000E+01 0.  0.
<mgrwt>
<rscale>  0 0.12499692E+03</rscale>
<asrwt>0</asrwt>
<pdfrwt beam="2">  1        4 0.55366961E-03 0.12499692E+03</pdfrwt>
<pdfrwt beam="1">  1       -4 0.16697876E+00 0.12499692E+03</pdfrwt>
<totfact> 0.27810605E+03</totfact>
</mgrwt>
</event>
<event>
 5    1  0.3266101E-002  0.1250122E+03  0.7818608E-02  0.1235050E+00
         -4   -1    0    0    0  501 -0.00000000000E+00  0.00000000000E+00  0.38327411862E+03  0.38327622273E+03  0.12700000000E+01 0. -1.
          4   -1    0    0  501    0  0.00000000000E+00 -0.00000000000E+00 -0.10152081393E+02  0.10231209929E+02  0.12700000000E+01 0. -1.
         25    2    1    2    0    0  0.00000000000E+00  0.00000000000E+00  0.37312203723E+03  0.39350743266E+03  0.12501217896E+03 0.  0.
    9000005    1    3    3    0    0  0.39025613255E+02 -0.27306903109E+02  0.59189942943E+02  0.75981016003E+02  0.10000000000E+01 0.  0.
    9000005    1    3    3    0    0 -0.39025613255E+02  0.27306903109E+02  0.31393209429E+03  0.31752641665E+03  0.10000000000E+01 0.  0.
<mgrwt>
<rscale>  0 0.12501218E+03</rscale>
<asrwt>0</asrwt>
<pdfrwt beam="2">  1        4 0.15681076E-02 0.12501218E+03</pdfrwt>
<pdfrwt beam="1">  1       -4 0.58971489E-01 0.12501218E+03</pdfrwt>
<totfact> 0.65171659E+03</totfact>
</mgrwt>
</event>
<event>
 4    1  0.3266101E-002  0.1250825E+03  0.7818608E-02  0.1234940E+00
         -4   -1    0    0    0  501 -0.00000000000E+00  0.00000000000E+00  0.41944977176E+02  0.41964199150E+02  0.12700000000E+01 0.  1.
          4   -1    0    0  501    0  0.00000000000E+00 -0.00000000000E+00 -0.93206065545E+02  0.93214717478E+02  0.12700000000E+01 0.  1.
    9000005    1    1    2    0    0  0.34273259625E+02 -0.41971878379E+02  0.80995416336E+01  0.54798699570E+02  0.10000000000E+01 0.  0.
    9000005    1    1    2    0    0 -0.34273259625E+02  0.41971878379E+02 -0.59360630003E+02  0.80380217058E+02  0.10000000000E+01 0.  0.
<mgrwt>
<rscale>  0 0.12508253E+03</rscale>
<asrwt>0</asrwt>
<pdfrwt beam="2">  1        4 0.14341539E-01 0.12508253E+03</pdfrwt>
<pdfrwt beam="1">  1       -4 0.64552176E-02 0.12508253E+03</pdfrwt>
<totfact> 0.10215275E+04</totfact>
</mgrwt>
</event>
<event>
 5    1  0.3266101E-002  0.1250033E+03  0.7818608E-02  0.1235064E+00
          4   -1    0    0  501    0  0.00000000000E+00  0.00000000000E+00  0.30352536564E+02  0.30379094389E+02  0.12700000000E+01 0.  1.
         -4   -1    0    0    0  501 -0.00000000000E+00 -0.00000000000E+00 -0.12861673149E+03  0.12862300152E+03  0.12700000000E+01 0.  1.
         25    2    1    2    0    0  0.00000000000E+00  0.00000000000E+00 -0.98264194928E+02  0.15900209591E+03  0.12500325795E+03 0.  0.
    9000005    1    3    3    0    0 -0.28861273956E+02  0.13375109905E+02 -0.11755473065E+03  0.12178662241E+03  0.10000000000E+01 0.  0.
    9000005    1    3    3    0    0  0.28861273956E+02 -0.13375109905E+02  0.19290535722E+02  0.37215473499E+02  0.10000000000E+01 0.  0.
<mgrwt>
<rscale>  0 0.12500326E+03</rscale>
<asrwt>0</asrwt>
<pdfrwt beam="1">  1        4 0.46721463E-02 0.12500326E+03</pdfrwt>
<pdfrwt beam="2">  1       -4 0.19789714E-01 0.12500326E+03</pdfrwt>
<totfact> 0.97528376E+03</totfact>
</mgrwt>
</event>
<event>
 5    1  0.3266101E-002  0.1250000E+03  0.7818608E-02  0.1235069E+00
          4   -1    0    0  501    0  0.00000000000E+00  0.00000000000E+00  0.21848052345E+04  0.21848056036E+04  0.12700000000E+01 0. -1.
         -4   -1    0    0    0  501 -0.00000000000E+00 -0.00000000000E+00 -0.15619718260E+01  0.20131209564E+01  0.12700000000E+01 0. -1.
         25    2    1    2    0    0  0.00000000000E+00  0.00000000000E+00  0.21832432627E+04  0.21868187246E+04  0.12499996054E+03 0.  0.
    9000005    1    3    3    0    0  0.50678898624E+02 -0.34175205579E+02  0.13190186124E+04  0.13204345479E+04  0.10000000000E+01 0.  0.
    9000005    1    3    3    0    0 -0.50678898624E+02  0.34175205579E+02  0.86422465027E+03  0.86638417667E+03  0.10000000000E+01 0.  0.
<mgrwt>
<rscale>  0 0.12499996E+03</rscale>
<asrwt>0</asrwt>
<pdfrwt beam="1">  1        4 0.33616116E+00 0.12499996E+03</pdfrwt>
<pdfrwt beam="2">  1       -4 0.27503345E-03 0.12499996E+03</pdfrwt>
<totfact> 0.76155187E+02</totfact>
</mgrwt>
</event>
<event>
 5    1  0.3266101E-002  0.1250097E+03  0.7818608E-02  0.1235054E+00
          4   -1    0    0  501    0  0.00000000000E+00  0.00000000000E+00  0.69663909802E+02  0.69675485136E+02  0.12700000000E+01 0.  1.
         -4   -1    0    0    0  501 -0.00000000000E+00 -0.00000000000E+00 -0.56058064129E+02  0.56072448260E+02  0.12700000000E+01 0.  1.
         25    2    1    2    0    0  0.00000000000E+00  0.00000000000E+00  0.13605845673E+02  0.12574793340E+03  0.12500969449E+03 0.  0.
    9000005    1    3    3    0    0  0.21567475490E+01  0.57995865569E+02 -0.16522025872E+02  0.60350222220E+02  0.10000000000E+01 0.  0.
    9000005    1    3    3    0    0 -0.21567475490E+01 -0.57995865569E+02  0.30127871546E+02  0.65397711176E+02  0.10000000000E+01 0.  0.
<mgrwt>
<rscale>  0 0.12500969E+03</rscale>
<asrwt>0</asrwt>
<pdfrwt beam="1">  1        4 0.10719521E-01 0.12500969E+03</pdfrwt>
<pdfrwt beam="2">  1       -4 0.86263144E-02 0.12500969E+03</pdfrwt>
<totfact> 0.10434207E+04</totfact>
</mgrwt>
</event>
<event>
 5    1  0.3266101E-002  0.1249994E+03  0.7818608E-02  0.1235070E+00
         -4   -1    0    0    0  501 -0.00000000000E+00  0.00000000000E+00  0.23579708706E+03  0.23580050714E+03  0.12700000000E+01 0. -1.
          4   -1    0    0  501    0  0.00000000000E+00 -0.00000000000E+00 -0.16538107448E+02  0.16586798906E+02  0.12700000000E+01 0. -1.
         25    2    1    2    0    0  0.00000000000E+00  0.00000000000E+00  0.21925897962E+03  0.25238730605E+03  0.12499940844E+03 0.  0.
    9000005    1    3    3    0    0 -0.44128335133E+02 -0.43996114794E+02  0.10010645745E+03  0.11792061271E+03  0.10000000000E+01 0.  0.
    9000005    1    3    3    0    0  0.44128335133E+02  0.43996114794E+02  0.11915252216E+03  0.13446669334E+03  0.10000000000E+01 0.  0.
<mgrwt>
<rscale>  0 0.12499941E+03</rscale>
<asrwt>0</asrwt>
<pdfrwt beam="2">  1        4 0.25483329E-02 0.12499941E+03</pdfrwt>
<pdfrwt beam="1">  1       -4 0.36280483E-01 0.12499941E+03</pdfrwt>
<totfact> 0.81987488E+03</totfact>
</mgrwt>
</event>
<event>
 5    1  0.3266101E-002  0.1250001E+03  0.7818608E-02  0.1235069E+00
         -4   -1    0    0    0  501 -0.00000000000E+00  0.00000000000E+00  0.14939122015E+03  0.14939661829E+03  0.12700000000E+01 0. -1.
          4   -1    0    0  501    0  0.00000000000E+00 -0.00000000000E+00 -0.26126554614E+02  0.26157403464E+02  0.12700000000E+01 0. -1.
         25    2    1    2    0    0  0.00000000000E+00  0.00000000000E+00  0.12326466553E+03  0.17555402176E+03  0.12500014714E+03 0.  0.
    9000005    1    3    3    0    0  0.40424393829E+01 -0.28696011048E+02 -0.16126164888E+02  0.33179143453E+02  0.10000000000E+01 0.  0.
    9000005    1    3    3    0    0 -0.40424393829E+01  0.28696011048E+02  0.13939083042E+03  0.14237487830E+03  0.10000000000E+01 0.  0.
<mgrwt>
<rscale>  0 0.12500015E+03</rscale>
<asrwt>0</asrwt>
<pdfrwt beam="2">  1        4 0.40222582E-02 0.12500015E+03</pdfrwt>
<pdfrwt beam="1">  1       -4 0.22986053E-01 0.12500015E+03</pdfrwt>
<totfact> 0.94423159E+03</totfact>
</mgrwt>
</event>
<event>
 5    1  0.3266101E-002  0.1249981E+03  0.7818608E-02  0.1235072E+00
         -4   -1    0    0    0  501 -0.00000000000E+00  0.00000000000E+00  0.10973582495E+03  0.10974317372E+03  0.12700000000E+01 0. -1.
          4   -1    0    0  501    0  0.00000000000E+00 -0.00000000000E+00 -0.35575908108E+02  0.35598569321E+02  0.12700000000E+01 0. -1.
         25    2    1    2    0    0  0.00000000000E+00  0.00000000000E+00  0.74159916843E+02  0.14534174304E+03  0.12499811600E+03 0.  0.
    9000005    1    3    3    0    0  0.48939921504E+02  0.11179288915E+02 -0.61931436260E+01  0.50590981858E+02  0.10000000000E+01 0.  0.
    9000005    1    3    3    0    0 -0.48939921504E+02 -0.11179288915E+02  0.80353060469E+02  0.94750761180E+02  0.10000000000E+01 0.  0.
<mgrwt>
<rscale>  0 0.12499812E+03</rscale>
<asrwt>0</asrwt>
<pdfrwt beam="2">  1        4 0.54755251E-02 0.12499812E+03</pdfrwt>
<pdfrwt beam="1">  1       -4 0.16884743E-01 0.12499812E+03</pdfrwt>
<totfact> 0.10024475E+04</totfact>
</mgrwt>
</event>
<event>
 5    1  0.3266101E-002  0.1249979E+03  0.7818608E-02  0.1235072E+00
         -4   -1    0    0    0  501 -0.00000000000E+00  0.00000000000E+00  0.71548018728E+02  0.71559289292E+02  0.12700000000E+01 0.  1.
          4   -1    0    0  501    0  0.00000000000E+00 -0.00000000000E+00 -0.54571449317E+02  0.54586225190E+02  0.12700000000E+01 0.  1.
         25    2    1    2    0    0  0.00000000000E+00  0.00000000000E+00  0.16976569411E+02  0.12614551448E+03  0.12499794764E+03 0.  0.
    9000005    1    3    3    0    0 -0.41925238336E+02 -0.41247223108E+02 -0.12825809792E+02  0.60204322274E+02  0.10000000000E+01 0.  0.
    9000005    1    3    3    0    0  0.41925238336E+02  0.41247223108E+02  0.29802379204E+02  0.65941192208E+02  0.10000000000E+01 0.  0.
<mgrwt>
<rscale>  0 0.12499795E+03</rscale>
<asrwt>0</asrwt>
<pdfrwt beam="2">  1        4 0.83976112E-02 0.12499795E+03</pdfrwt>
<pdfrwt beam="1">  1       -4 0.11009391E-01 0.12499795E+03</pdfrwt>
<totfact> 0.10428254E+04</totfact>
</mgrwt>
</event>
<event>
 5    1  0.3266101E-002  0.1250072E+03  0.7818608E-02  0.1235058E+00
          4   -1    0    0  501    0  0.00000000000E+00  0.00000000000E+00  0.22633557560E+02  0.22669160281E+02  0.12700000000E+01 0. -1.
         -4   -1    0    0    0  501 -0.00000000000E+00 -0.00000000000E+00 -0.17243297682E+03  0.17243765364E+03  0.12700000000E+01 0. -1.
         25    2    1    2    0    0  0.00000000000E+00  0.00000000000E+00 -0.14979941926E+03  0.19510681392E+03  0.12500721111E+03 0.  0.
    9000005    1    3    3    0    0  0.41166591272E+02 -0.46987094791E+02 -0.72096673283E+02  0.95401287268E+02  0.10000000000E+01 0.  0.
    9000005    1    3    3    0    0 -0.41166591272E+02  0.46987094791E+02 -0.77702745973E+02  0.99705526656E+02  0.10000000000E+01 0.  0.
<mgrwt>
<rscale>  0 0.12500721E+03</rscale>
<asrwt>0</asrwt>
<pdfrwt beam="1">  1        4 0.34851843E-02 0.12500721E+03</pdfrwt>
<pdfrwt beam="2">  1       -4 0.26531248E-01 0.12500721E+03</pdfrwt>
<totfact> 0.90951576E+03</totfact>
</mgrwt>
</event>
<event>
 5    1  0.3266101E-002  0.1250001E+03  0.7818608E-02  0.1235069E+00
         -4   -1    0    0    0  501 -0.00000000000E+00  0.00000000000E+00  0.32663004868E+02  0.32687685556E+02  0.12700000000E+01 0. -1.
          4   -1    0    0  501    0  0.00000000000E+00 -0.00000000000E+00 -0.11951955271E+03  0.11952629995E+03  0.12700000000E+01 0. -1.
         25    2    1    2    0    0  0.00000000000E+00  0.00000000000E+00 -0.86856547841E+02  0.15221398551E+03  0.12500014992E+03 0.  0.
    9000005    1    3    3    0    0 -0.18982752089E+01 -0.17564048508E+02 -0.11642145807E+03  0.11775846105E+03  0.10000000000E+01 0.  0.
    9000005    1    3    3    0    0  0.18982752089E+01  0.17564048508E+02  0.29564910231E+02  0.34455524458E+02  0.10000000000E+01 0.  0.
<mgrwt>
<rscale>  0 0.12500015E+03</rscale>
<asrwt>0</asrwt>
<pdfrwt beam="2">  1        4 0.18390041E-01 0.12500015E+03</pdfrwt>
<pdfrwt beam="1">  1       -4 0.50274953E-02 0.12500015E+03</pdfrwt>
<totfact> 0.98863857E+03</totfact>
</mgrwt>
</event>
<event>
 5    1  0.3266101E-002  0.1250098E+03  0.7818608E-02  0.1235054E+00
         -4   -1    0    0    0  501 -0.00000000000E+00  0.00000000000E+00  0.14106336290E+02  0.14163390256E+02  0.12700000000E+01 0. -1.
          4   -1    0    0  501    0  0.00000000000E+00 -0.00000000000E+00 -0.27634049704E+03  0.27634341534E+03  0.12700000000E+01 0. -1.
         25    2    1    2    0    0  0.00000000000E+00  0.00000000000E+00 -0.26223416075E+03  0.29050680560E+03  0.12500979576E+03 0.  0.
    9000005    1    3    3    0    0  0.62081987691E+02 -0.30974264424E+01 -0.14619451964E+03  0.15886347855E+03  0.10000000000E+01 0.  0.
    9000005    1    3    3    0    0 -0.62081987691E+02  0.30974264424E+01 -0.11603964111E+03  0.13164332705E+03  0.10000000000E+01 0.  0.
<mgrwt>
<rscale>  0 0.12500980E+03</rscale>
<asrwt>0</asrwt>
<pdfrwt beam="2">  1        4 0.42518532E-01 0.12500980E+03</pdfrwt>
<pdfrwt beam="1">  1       -4 0.21748190E-02 0.12500980E+03</pdfrwt>
<totfact> 0.76788581E+03</totfact>
</mgrwt>
</event>
<event>
 5    1  0.3266101E-002  0.1250011E+03  0.7818608E-02  0.1235068E+00
          4   -1    0    0  501    0  0.00000000000E+00  0.00000000000E+00  0.15370753380E+03  0.15371278036E+03  0.12700000000E+01 0. -1.
         -4   -1    0    0    0  501 -0.00000000000E+00 -0.00000000000E+00 -0.25392423233E+02  0.25424162870E+02  0.12700000000E+01 0. -1.
         25    2    1    2    0    0  0.00000000000E+00  0.00000000000E+00  0.12831511057E+03  0.17913694323E+03  0.12500110732E+03 0.  0.
    9000005    1    3    3    0    0  0.89845946564E+00 -0.17907295089E+02 -0.21634219320E+02  0.28116150028E+02  0.10000000000E+01 0.  0.
    9000005    1    3    3    0    0 -0.89845946564E+00  0.17907295089E+02  0.14994932989E+03  0.15102079320E+03  0.10000000000E+01 0.  0.
<mgrwt>
<rscale>  0 0.12500111E+03</rscale>
<asrwt>0</asrwt>
<pdfrwt beam="1">  1        4 0.23650158E-01 0.12500111E+03</pdfrwt>
<pdfrwt beam="2">  1       -4 0.39093718E-02 0.12500111E+03</pdfrwt>
<totfact> 0.93770259E+03</totfact>
</mgrwt>
</event>
<event>
 5    1  0.3266101E-002  0.1250112E+03  0.7818608E-02  0.1235052E+00
          4   -1    0    0  501    0  0.00000000000E+00  0.00000000000E+00  0.10471074287E+02  0.10547810044E+02  0.12700000000E+01 0. -1.
         -4   -1    0    0    0  501 -0.00000000000E+00 -0.00000000000E+00 -0.37167816875E+03  0.37168033850E+03  0.12700000000E+01 0. -1.
         25    2    1    2    0    0  0.00000000000E+00  0.00000000000E+00 -0.36120709447E+03  0.38222814855E+03  0.12501116929E+03 0.  0.
    9000005    1    3    3    0    0  0.44786905944E+02  0.26286206583E+02 -0.74285271333E+02  0.90642887959E+02  0.10000000000E+01 0.  0.
    9000005    1    3    3    0    0 -0.44786905944E+02 -0.26286206583E+02 -0.28692182313E+03  0.29158526059E+03  0.10000000000E+01 0.  0.
<mgrwt>
<rscale>  0 0.12501117E+03</rscale>
<asrwt>0</asrwt>
<pdfrwt beam="1">  1        4 0.16170044E-02 0.12501117E+03</pdfrwt>
<pdfrwt beam="2">  1       -4 0.57187316E-01 0.12501117E+03</pdfrwt>
<totfact> 0.66302395E+03</totfact>
</mgrwt>
</event>
<event>
 5    1  0.3266101E-002  0.1249984E+03  0.7818608E-02  0.1235072E+00
          4   -1    0    0  501    0  0.00000000000E+00  0.00000000000E+00  0.61530266057E+03  0.61530397122E+03  0.12700000000E+01 0.  1.
         -4   -1    0    0    0  501 -0.00000000000E+00 -0.00000000000E+00 -0.62834936280E+01  0.64105531878E+01  0.12700000000E+01 0.  1.
         25    2    1    2    0    0  0.00000000000E+00  0.00000000000E+00  0.60901916694E+03  0.62171452441E+03  0.12499841664E+03 0.  0.
    9000005    1    3    3    0    0 -0.16208641952E+02 -0.59767954854E+02  0.26282986601E+03  0.27002864101E+03  0.10000000000E+01 0.  0.
    9000005    1    3    3    0    0  0.16208641952E+02  0.59767954854E+02  0.34618930093E+03  0.35168588340E+03  0.10000000000E+01 0.  0.
<mgrwt>
<rscale>  0 0.12499842E+03</rscale>
<asrwt>0</asrwt>
<pdfrwt beam="1">  1        4 0.94671811E-01 0.12499842E+03</pdfrwt>
<pdfrwt beam="2">  1       -4 0.97656607E-03 0.12499842E+03</pdfrwt>
<totfact> 0.47526654E+03</totfact>
</mgrwt>
</event>
<event>
 5    1  0.3266101E-002  0.1250013E+03  0.7818608E-02  0.1235067E+00
          4   -1    0    0  501    0  0.00000000000E+00  0.00000000000E+00  0.40682635333E+02  0.40702453459E+02  0.12700000000E+01 0.  1.
         -4   -1    0    0    0  501 -0.00000000000E+00 -0.00000000000E+00 -0.95972186487E+02  0.95980589075E+02  0.12700000000E+01 0.  1.
         25    2    1    2    0    0  0.00000000000E+00  0.00000000000E+00 -0.55289551155E+02  0.13668304253E+03  0.12500127859E+03 0.  0.
    9000005    1    3    3    0    0  0.50259778991E+02  0.48513421813E+01  0.12616713176E+02  0.52055377787E+02  0.10000000000E+01 0.  0.
    9000005    1    3    3    0    0 -0.50259778991E+02 -0.48513421813E+01 -0.67906264330E+02  0.84627664747E+02  0.10000000000E+01 0.  0.
<mgrwt>
<rscale>  0 0.12500128E+03</rscale>
<asrwt>0</asrwt>
<pdfrwt beam="1">  1        4 0.62610378E-02 0.12500128E+03</pdfrwt>
<pdfrwt beam="2">  1       -4 0.14767123E-01 0.12500128E+03</pdfrwt>
<totfact> 0.10202423E+04</totfact>
</mgrwt>
</event>
<event>
 5    1  0.3266101E-002  0.1250099E+03  0.7818608E-02  0.1235054E+00
          4   -1    0    0  501    0  0.00000000000E+00  0.00000000000E+00  0.50819621333E+02  0.50835487726E+02  0.12700000000E+01 0. -1.
         -4   -1    0    0    0  501 -0.00000000000E+00 -0.00000000000E+00 -0.76843998290E+02  0.76854492212E+02  0.12700000000E+01 0. -1.
         25    2    1    2    0    0  0.00000000000E+00  0.00000000000E+00 -0.26024376957E+02  0.12768997994E+03  0.12500985073E+03 0.  0.
    9000005    1    3    3    0    0 -0.44311235293E+01 -0.11545770287E+02  0.49562339792E+02  0.51091733117E+02  0.10000000000E+01 0.  0.
    9000005    1    3    3    0    0  0.44311235293E+01  0.11545770287E+02 -0.75586716749E+02  0.76598246822E+02  0.10000000000E+01 0.  0.
<mgrwt>
<rscale>  0 0.12500985E+03</rscale>
<asrwt>0</asrwt>
<pdfrwt beam="1">  1        4 0.78204310E-02 0.12500985E+03</pdfrwt>
<pdfrwt beam="2">  1       -4 0.11824181E-01 0.12500985E+03</pdfrwt>
<totfact> 0.10391877E+04</totfact>
</mgrwt>
</event>
<event>
 5    1  0.3266101E-002  0.1250008E+03  0.7818608E-02  0.1235068E+00
          4   -1    0    0  501    0  0.00000000000E+00  0.00000000000E+00  0.17937848347E+02  0.17982750160E+02  0.12700000000E+01 0. -1.
         -4   -1    0    0    0  501 -0.00000000000E+00 -0.00000000000E+00 -0.21744972367E+03  0.21745343231E+03  0.12700000000E+01 0. -1.
         25    2    1    2    0    0  0.00000000000E+00  0.00000000000E+00 -0.19951187532E+03  0.23543618247E+03  0.12500083048E+03 0.  0.
    9000005    1    3    3    0    0  0.47119675588E+02  0.24342735438E+02 -0.37502271646E+02  0.64963474158E+02  0.10000000000E+01 0.  0.
    9000005    1    3    3    0    0 -0.47119675588E+02 -0.24342735438E+02 -0.16200960367E+03  0.17047270831E+03  0.10000000000E+01 0.  0.
<mgrwt>
<rscale>  0 0.12500083E+03</rscale>
<asrwt>0</asrwt>
<pdfrwt beam="1">  1        4 0.27634084E-02 0.12500083E+03</pdfrwt>
<pdfrwt beam="2">  1       -4 0.33457541E-01 0.12500083E+03</pdfrwt>
<totfact> 0.84480232E+03</totfact>
</mgrwt>
</event>
<event>
 5    1  0.3266101E-002  0.1249999E+03  0.7818608E-02  0.1235069E+00
          4   -1    0    0  501    0  0.00000000000E+00  0.00000000000E+00  0.12464686474E+02  0.12529218207E+02  0.12700000000E+01 0. -1.
         -4   -1    0    0    0  501 -0.00000000000E+00 -0.00000000000E+00 -0.31251001396E+03  0.31251259451E+03  0.12700000000E+01 0. -1.
         25    2    1    2    0    0  0.00000000000E+00  0.00000000000E+00 -0.30004532749E+03  0.32504181271E+03  0.12499992586E+03 0.  0.
    9000005    1    3    3    0    0 -0.37144059836E+02 -0.50254516567E+02 -0.15059088334E+03  0.16304542852E+03  0.10000000000E+01 0.  0.
    9000005    1    3    3    0    0  0.37144059836E+02  0.50254516567E+02 -0.14945444414E+03  0.16199638419E+03  0.10000000000E+01 0.  0.
<mgrwt>
<rscale>  0 0.12499993E+03</rscale>
<asrwt>0</asrwt>
<pdfrwt beam="1">  1        4 0.19228068E-02 0.12499993E+03</pdfrwt>
<pdfrwt beam="2">  1       -4 0.48083620E-01 0.12499993E+03</pdfrwt>
<totfact> 0.72560576E+03</totfact>
</mgrwt>
</event>
<event>
 5    1  0.3266101E-002  0.1250015E+03  0.7818608E-02  0.1235067E+00
          4   -1    0    0  501    0  0.00000000000E+00  0.00000000000E+00  0.25915746280E+02  0.25946845767E+02  0.12700000000E+01 0.  1.
         -4   -1    0    0    0  501 -0.00000000000E+00 -0.00000000000E+00 -0.15060833515E+03  0.15061368967E+03  0.12700000000E+01 0.  1.
         25    2    1    2    0    0  0.00000000000E+00  0.00000000000E+00 -0.12469258887E+03  0.17656053544E+03  0.12500152381E+03 0.  0.
    9000005    1    3    3    0    0 -0.49203148974E+02 -0.17770216361E+02 -0.11063149252E+03  0.12238078933E+03  0.10000000000E+01 0.  0.
    9000005    1    3    3    0    0  0.49203148974E+02  0.17770216361E+02 -0.14061096351E+02  0.54179746115E+02  0.10000000000E+01 0.  0.
<mgrwt>
<rscale>  0 0.12500152E+03</rscale>
<asrwt>0</asrwt>
<pdfrwt beam="1">  1        4 0.39898421E-02 0.12500152E+03</pdfrwt>
<pdfrwt beam="2">  1       -4 0.23173317E-01 0.12500152E+03</pdfrwt>
<totfact> 0.94236586E+03</totfact>
</mgrwt>
</event>
<event>
 5    1  0.3266101E-002  0.1249964E+03  0.7818608E-02  0.1235075E+00
          4   -1    0    0  501    0  0.00000000000E+00  0.00000000000E+00  0.42861152957E+01  0.44703114352E+01  0.12700000000E+01 0.  1.
         -4   -1    0    0    0  501 -0.00000000000E+00 -0.00000000000E+00 -0.89196624915E+03  0.89196715327E+03  0.12700000000E+01 0.  1.
         25    2    1    2    0    0  0.00000000000E+00  0.00000000000E+00 -0.88768013385E+03  0.89643746471E+03  0.12499643234E+03 0.  0.
    9000005    1    3    3    0    0  0.68031968093E+00 -0.62353001731E+02 -0.41456109319E+03  0.41922578600E+03  0.10000000000E+01 0.  0.
    9000005    1    3    3    0    0 -0.68031968093E+00  0.62353001731E+02 -0.47311904066E+03  0.47721167871E+03  0.10000000000E+01 0.  0.
<mgrwt>
<rscale>  0 0.12499643E+03</rscale>
<asrwt>0</asrwt>
<pdfrwt beam="1">  1        4 0.67364154E-03 0.12499643E+03</pdfrwt>
<pdfrwt beam="2">  1       -4 0.13723967E+00 0.12499643E+03</pdfrwt>
<totfact> 0.34299403E+03</totfact>
</mgrwt>
</event>
<event>
 5    1  0.3266101E-002  0.1249976E+03  0.7818608E-02  0.1235073E+00
         -4   -1    0    0    0  501 -0.00000000000E+00  0.00000000000E+00  0.88871150365E+01  0.89774001622E+01  0.12700000000E+01 0.  1.
          4   -1    0    0  501    0  0.00000000000E+00 -0.00000000000E+00 -0.43721126291E+03  0.43721310744E+03  0.12700000000E+01 0.  1.
         25    2    1    2    0    0  0.00000000000E+00  0.00000000000E+00 -0.42832414788E+03  0.44619050760E+03  0.12499757366E+03 0.  0.
    9000005    1    3    3    0    0 -0.52416127701E+02 -0.21651357755E+02 -0.30785058005E+03  0.31303228487E+03  0.10000000000E+01 0.  0.
    9000005    1    3    3    0    0  0.52416127701E+02  0.21651357755E+02 -0.12047356783E+03  0.13315822274E+03  0.10000000000E+01 0.  0.
<mgrwt>
<rscale>  0 0.12499757E+03</rscale>
<asrwt>0</asrwt>
<pdfrwt beam="2">  1        4 0.67270341E-01 0.12499757E+03</pdfrwt>
<pdfrwt beam="1">  1       -4 0.13743357E-02 0.12499757E+03</pdfrwt>
<totfact> 0.60298468E+03</totfact>
</mgrwt>
</event>
<event>
 5    1  0.3266101E-002  0.1250001E+03  0.7818608E-02  0.1235069E+00
          4   -1    0    0  501    0  0.00000000000E+00  0.00000000000E+00  0.84260241924E+02  0.84269812323E+02  0.12700000000E+01 0. -1.
         -4   -1    0    0    0  501 -0.00000000000E+00 -0.00000000000E+00 -0.46338537092E+02  0.46355937267E+02  0.12700000000E+01 0. -1.
         25    2    1    2    0    0  0.00000000000E+00  0.00000000000E+00  0.37921704831E+02  0.13062574959E+03  0.12500012303E+03 0.  0.
    9000005    1    3    3    0    0 -0.12189843100E+02  0.14523464783E+02  0.81186790812E+02  0.83377564767E+02  0.10000000000E+01 0.  0.
    9000005    1    3    3    0    0  0.12189843100E+02 -0.14523464783E+02 -0.43265085981E+02  0.47248184823E+02  0.10000000000E+01 0.  0.
<mgrwt>
<rscale>  0 0.12500012E+03</rscale>
<asrwt>0</asrwt>
<pdfrwt beam="1">  1        4 0.12965189E-01 0.12500012E+03</pdfrwt>
<pdfrwt beam="2">  1       -4 0.71310804E-02 0.12500012E+03</pdfrwt>
<totfact> 0.10331091E+04</totfact>
</mgrwt>
</event>
<event>
 5    1  0.3266101E-002  0.1250055E+03  0.7818608E-02  0.1235061E+00
         -4   -1    0    0    0  501 -0.00000000000E+00  0.00000000000E+00  0.19501894091E+04  0.19501898226E+04  0.12700000000E+01 0.  1.
          4   -1    0    0  501    0  0.00000000000E+00 -0.00000000000E+00 -0.18014409551E+01  0.22041074190E+01  0.12700000000E+01 0.  1.
         25    2    1    2    0    0  0.00000000000E+00  0.00000000000E+00  0.19483879681E+04  0.19523939300E+04  0.12500553450E+03 0.  0.
    9000005    1    3    3    0    0 -0.48213098971E+02  0.39555172395E+02  0.10376005812E+04  0.10394734632E+04  0.10000000000E+01 0.  0.
    9000005    1    3    3    0    0  0.48213098971E+02 -0.39555172395E+02  0.91078738694E+03  0.91292046684E+03  0.10000000000E+01 0.  0.
<mgrwt>
<rscale>  0 0.12500553E+03</rscale>
<asrwt>0</asrwt>
<pdfrwt beam="2">  1        4 0.30815206E-03 0.12500553E+03</pdfrwt>
<pdfrwt beam="1">  1       -4 0.30005903E+00 0.12500553E+03</pdfrwt>
<totfact> 0.10494296E+03</totfact>
</mgrwt>
</event>
<event>
 5    1  0.3266101E-002  0.1249986E+03  0.7818608E-02  0.1235071E+00
          4   -1    0    0  501    0  0.00000000000E+00  0.00000000000E+00  0.50903326209E+02  0.50919166520E+02  0.12700000000E+01 0.  1.
         -4   -1    0    0    0  501 -0.00000000000E+00 -0.00000000000E+00 -0.76703841304E+02  0.76714354399E+02  0.12700000000E+01 0.  1.
         25    2    1    2    0    0  0.00000000000E+00  0.00000000000E+00 -0.25800515096E+02  0.12763352092E+03  0.12499859632E+03 0.  0.
    9000005    1    3    3    0    0  0.47775606048E+02 -0.45453639817E+01  0.27968362671E+02  0.55555361375E+02  0.10000000000E+01 0.  0.
    9000005    1    3    3    0    0 -0.47775606048E+02  0.45453639817E+01 -0.53768877766E+02  0.72078159544E+02  0.10000000000E+01 0.  0.
<mgrwt>
<rscale>  0 0.12499860E+03</rscale>
<asrwt>0</asrwt>
<pdfrwt beam="1">  1        4 0.78333081E-02 0.12499860E+03</pdfrwt>
<pdfrwt beam="2">  1       -4 0.11802618E-01 0.12499860E+03</pdfrwt>
<totfact> 0.10395739E+04</totfact>
</mgrwt>
</event>
<event>
 5    1  0.3266101E-002  0.1250034E+03  0.7818608E-02  0.1235064E+00
          4   -1    0    0  501    0  0.00000000000E+00  0.00000000000E+00  0.29839276351E+02  0.29866290582E+02  0.12700000000E+01 0. -1.
         -4   -1    0    0    0  501 -0.00000000000E+00 -0.00000000000E+00 -0.13082756495E+03  0.13083372903E+03  0.12700000000E+01 0. -1.
         25    2    1    2    0    0  0.00000000000E+00  0.00000000000E+00 -0.10098828860E+03  0.16070001961E+03  0.12500344742E+03 0.  0.
    9000005    1    3    3    0    0  0.24911969711E+02 -0.53250484058E+02 -0.77742208401E+02  0.97473438712E+02  0.10000000000E+01 0.  0.
    9000005    1    3    3    0    0 -0.24911969711E+02  0.53250484058E+02 -0.23246080201E+02  0.63226580898E+02  0.10000000000E+01 0.  0.
<mgrwt>
<rscale>  0 0.12500345E+03</rscale>
<asrwt>0</asrwt>
<pdfrwt beam="1">  1        4 0.45932102E-02 0.12500345E+03</pdfrwt>
<pdfrwt beam="2">  1       -4 0.20129870E-01 0.12500345E+03</pdfrwt>
<totfact> 0.97200465E+03</totfact>
</mgrwt>
</event>
<event>
 5    1  0.3266101E-002  0.1250001E+03  0.7818608E-02  0.1235069E+00
          4   -1    0    0  501    0  0.00000000000E+00  0.00000000000E+00  0.55545822492E+02  0.55560339239E+02  0.12700000000E+01 0. -1.
         -4   -1    0    0    0  501 -0.00000000000E+00 -0.00000000000E+00 -0.70295498100E+02  0.70306969450E+02  0.12700000000E+01 0. -1.
         25    2    1    2    0    0  0.00000000000E+00  0.00000000000E+00 -0.14749675608E+02  0.12586730869E+03  0.12500010586E+03 0.  0.
    9000005    1    3    3    0    0 -0.10064398010E+02  0.56785346247E+02 -0.31612329510E+02  0.65773908449E+02  0.10000000000E+01 0.  0.
    9000005    1    3    3    0    0  0.10064398010E+02 -0.56785346247E+02  0.16862653902E+02  0.60093400239E+02  0.10000000000E+01 0.  0.
<mgrwt>
<rscale>  0 0.12500011E+03</rscale>
<asrwt>0</asrwt>
<pdfrwt beam="1">  1        4 0.85475102E-02 0.12500011E+03</pdfrwt>
<pdfrwt beam="2">  1       -4 0.10816691E-01 0.12500011E+03</pdfrwt>
<totfact> 0.10433842E+04</totfact>
</mgrwt>
</event>
<event>
 5    1  0.3266101E-002  0.1250028E+03  0.7818608E-02  0.1235065E+00
         -4   -1    0    0    0  501 -0.00000000000E+00  0.00000000000E+00  0.32786258680E+02  0.32810846656E+02  0.12700000000E+01 0.  1.
          4   -1    0    0  501    0  0.00000000000E+00 -0.00000000000E+00 -0.11907568117E+03  0.11908245356E+03  0.12700000000E+01 0.  1.
         25    2    1    2    0    0  0.00000000000E+00  0.00000000000E+00 -0.86289422485E+02  0.15189330021E+03  0.12500284083E+03 0.  0.
    9000005    1    3    3    0    0  0.30735050476E+02 -0.53731423634E+02 -0.53577646460E+02  0.81873520834E+02  0.10000000000E+01 0.  0.
    9000005    1    3    3    0    0 -0.30735050476E+02  0.53731423634E+02 -0.32711776025E+02  0.70019779378E+02  0.10000000000E+01 0.  0.
<mgrwt>
<rscale>  0 0.12500284E+03</rscale>
<asrwt>0</asrwt>
<pdfrwt beam="2">  1        4 0.18321748E-01 0.12500284E+03</pdfrwt>
<pdfrwt beam="1">  1       -4 0.50464522E-02 0.12500284E+03</pdfrwt>
<totfact> 0.98921304E+03</totfact>
</mgrwt>
</event>
<event>
 5    1  0.3266101E-002  0.1250027E+03  0.7818608E-02  0.1235065E+00
          4   -1    0    0  501    0  0.00000000000E+00  0.00000000000E+00  0.79811246262E+01  0.80815376197E+01  0.12700000000E+01 0. -1.
         -4   -1    0    0    0  501 -0.00000000000E+00 -0.00000000000E+00 -0.48629582104E+03  0.48629747939E+03  0.12700000000E+01 0. -1.
         25    2    1    2    0    0  0.00000000000E+00  0.00000000000E+00 -0.47831469642E+03  0.49437901701E+03  0.12500265459E+03 0.  0.
    9000005    1    3    3    0    0  0.33234292166E+02  0.52306451449E+02 -0.20728800535E+03  0.21635572606E+03  0.10000000000E+01 0.  0.
    9000005    1    3    3    0    0 -0.33234292166E+02 -0.52306451449E+02 -0.27102669107E+03  0.27802329095E+03  0.10000000000E+01 0.  0.
<mgrwt>
<rscale>  0 0.12500265E+03</rscale>
<asrwt>0</asrwt>
<pdfrwt beam="1">  1        4 0.12357173E-02 0.12500265E+03</pdfrwt>
<pdfrwt beam="2">  1       -4 0.74822570E-01 0.12500265E+03</pdfrwt>
<totfact> 0.56299861E+03</totfact>
</mgrwt>
</event>
<event>
 5    1  0.3266101E-002  0.1249983E+03  0.7818608E-02  0.1235072E+00
         -4   -1    0    0    0  501 -0.00000000000E+00  0.00000000000E+00  0.14954619867E+02  0.15008449466E+02  0.12700000000E+01 0. -1.
          4   -1    0    0  501    0  0.00000000000E+00 -0.00000000000E+00 -0.26067527524E+03  0.26067836892E+03  0.12700000000E+01 0. -1.
         25    2    1    2    0    0  0.00000000000E+00  0.00000000000E+00 -0.24572065537E+03  0.27568681838E+03  0.12499832540E+03 0.  0.
    9000005    1    3    3    0    0 -0.29652240719E+02 -0.41549164280E+02 -0.20236807656E+03  0.20870895248E+03  0.10000000000E+01 0.  0.
    9000005    1    3    3    0    0  0.29652240719E+02  0.41549164280E+02 -0.43352578810E+02  0.66977865907E+02  0.10000000000E+01 0.  0.
<mgrwt>
<rscale>  0 0.12499833E+03</rscale>
<asrwt>0</asrwt>
<pdfrwt beam="2">  1        4 0.40108264E-01 0.12499833E+03</pdfrwt>
<pdfrwt beam="1">  1       -4 0.23050897E-02 0.12499833E+03</pdfrwt>
<totfact> 0.78756433E+03</totfact>
</mgrwt>
</event>
<event>
 5    1  0.3266101E-002  0.1250008E+03  0.7818608E-02  0.1235068E+00
          4   -1    0    0  501    0  0.00000000000E+00  0.00000000000E+00  0.38141154772E+02  0.38162292742E+02  0.12700000000E+01 0. -1.
         -4   -1    0    0    0  501 -0.00000000000E+00 -0.00000000000E+00 -0.10236341744E+03  0.10237129544E+03  0.12700000000E+01 0. -1.
         25    2    1    2    0    0  0.00000000000E+00  0.00000000000E+00 -0.64222262664E+02  0.14053358818E+03  0.12500076154E+03 0.  0.
    9000005    1    3    3    0    0  0.34205166294E+02 -0.47199920777E+02 -0.57437526505E+02  0.81840670656E+02  0.10000000000E+01 0.  0.
    9000005    1    3    3    0    0 -0.34205166294E+02  0.47199920777E+02 -0.67847361594E+01  0.58692917522E+02  0.10000000000E+01 0.  0.
<mgrwt>
<rscale>  0 0.12500076E+03</rscale>
<asrwt>0</asrwt>
<pdfrwt beam="1">  1        4 0.58701020E-02 0.12500076E+03</pdfrwt>
<pdfrwt beam="2">  1       -4 0.15750450E-01 0.12500076E+03</pdfrwt>
<totfact> 0.10122365E+04</totfact>
</mgrwt>
</event>
<event>
 5    1  0.3266101E-002  0.1250057E+03  0.7818608E-02  0.1235060E+00
         -4   -1    0    0    0  501 -0.00000000000E+00  0.00000000000E+00  0.20935876545E+02  0.20974361176E+02  0.12700000000E+01 0. -1.
          4   -1    0    0  501    0  0.00000000000E+00 -0.00000000000E+00 -0.18638672171E+03  0.18639104842E+03  0.12700000000E+01 0. -1.
         25    2    1    2    0    0  0.00000000000E+00  0.00000000000E+00 -0.16545084517E+03  0.20736540959E+03  0.12500572359E+03 0.  0.
    9000005    1    3    3    0    0  0.19106181154E+02 -0.59475214041E+02 -0.85720773961E+02  0.10607260877E+03  0.10000000000E+01 0.  0.
    9000005    1    3    3    0    0 -0.19106181154E+02  0.59475214041E+02 -0.79730071204E+02  0.10129280082E+03  0.10000000000E+01 0.  0.
<mgrwt>
<rscale>  0 0.12500572E+03</rscale>
<asrwt>0</asrwt>
<pdfrwt beam="2">  1        4 0.28678172E-01 0.12500572E+03</pdfrwt>
<pdfrwt beam="1">  1       -4 0.32241974E-02 0.12500572E+03</pdfrwt>
<totfact> 0.88896582E+03</totfact>
</mgrwt>
</event>
<event>
 5    1  0.3266101E-002  0.1250005E+03  0.7818608E-02  0.1235069E+00
         -4   -1    0    0    0  501 -0.00000000000E+00  0.00000000000E+00  0.82335430693E+03  0.82335528639E+03  0.12700000000E+01 0.  1.
          4   -1    0    0  501    0  0.00000000000E+00 -0.00000000000E+00 -0.46583594094E+01  0.48283757504E+01  0.12700000000E+01 0.  1.
         25    2    1    2    0    0  0.00000000000E+00  0.00000000000E+00  0.81869594752E+03  0.82818366214E+03  0.12500049505E+03 0.  0.
    9000005    1    3    3    0    0  0.60483972451E+01  0.45402345860E+02  0.69101306974E+03  0.69253015723E+03  0.10000000000E+01 0.  0.
    9000005    1    3    3    0    0 -0.60483972451E+01 -0.45402345860E+02  0.12768287777E+03  0.13565350491E+03  0.10000000000E+01 0.  0.
<mgrwt>
<rscale>  0 0.12500050E+03</rscale>
<asrwt>0</asrwt>
<pdfrwt beam="2">  1        4 0.72982426E-03 0.12500050E+03</pdfrwt>
<pdfrwt beam="1">  1       -4 0.12668304E+00 0.12500050E+03</pdfrwt>
<totfact> 0.37036666E+03</totfact>
</mgrwt>
</event>
<event>
 5    1  0.3266101E-002  0.1249872E+03  0.7818608E-02  0.1235089E+00
          4   -1    0    0  501    0  0.00000000000E+00  0.00000000000E+00  0.81271348137E+03  0.81271447367E+03  0.12700000000E+01 0. -1.
         -4   -1    0    0    0  501 -0.00000000000E+00 -0.00000000000E+00 -0.47205225470E+01  0.48883773501E+01  0.12700000000E+01 0. -1.
         25    2    1    2    0    0  0.00000000000E+00  0.00000000000E+00  0.80799295883E+03  0.81760285102E+03  0.12498720125E+03 0.  0.
    9000005    1    3    3    0    0 -0.16342834959E+02  0.59289830292E+02  0.47627268734E+03  0.48022811760E+03  0.10000000000E+01 0.  0.
    9000005    1    3    3    0    0  0.16342834959E+02 -0.59289830292E+02  0.33172027149E+03  0.33737473341E+03  0.10000000000E+01 0.  0.
<mgrwt>
<rscale>  0 0.12498720E+03</rscale>
<asrwt>0</asrwt>
<pdfrwt beam="1">  1        4 0.12504575E+00 0.12498720E+03</pdfrwt>
<pdfrwt beam="2">  1       -4 0.73922297E-03 0.12498720E+03</pdfrwt>
<totfact> 0.37501375E+03</totfact>
</mgrwt>
</event>
<event>
 5    1  0.3266101E-002  0.1249985E+03  0.7818608E-02  0.1235072E+00
         -4   -1    0    0    0  501 -0.00000000000E+00  0.00000000000E+00  0.33394787110E+02  0.33418927364E+02  0.12700000000E+01 0. -1.
          4   -1    0    0  501    0  0.00000000000E+00 -0.00000000000E+00 -0.11689919615E+03  0.11690609463E+03  0.12700000000E+01 0. -1.
         25    2    1    2    0    0  0.00000000000E+00  0.00000000000E+00 -0.83504409044E+02  0.15032502199E+03  0.12499850362E+03 0.  0.
    9000005    1    3    3    0    0 -0.53963623445E+02 -0.25143020261E+02 -0.18905301622E+02  0.62471229799E+02  0.10000000000E+01 0.  0.
    9000005    1    3    3    0    0  0.53963623445E+02  0.25143020261E+02 -0.64599107422E+02  0.87853792194E+02  0.10000000000E+01 0.  0.
<mgrwt>
<rscale>  0 0.12499850E+03</rscale>
<asrwt>0</asrwt>
<pdfrwt beam="2">  1        4 0.17986879E-01 0.12499850E+03</pdfrwt>
<pdfrwt beam="1">  1       -4 0.51400472E-02 0.12499850E+03</pdfrwt>
<totfact> 0.99242291E+03</totfact>
</mgrwt>
</event>
<event>
 5    1  0.3266101E-002  0.1250007E+03  0.7818608E-02  0.1235068E+00
          4   -1    0    0  501    0  0.00000000000E+00  0.00000000000E+00  0.15469998680E+02  0.15522041076E+02  0.12700000000E+01 0.  1.
         -4   -1    0    0    0  501 -0.00000000000E+00 -0.00000000000E+00 -0.25203010342E+03  0.25203330321E+03  0.12700000000E+01 0.  1.
         25    2    1    2    0    0  0.00000000000E+00  0.00000000000E+00 -0.23656010474E+03  0.26755534429E+03  0.12500071641E+03 0.  0.
    9000005    1    3    3    0    0  0.30377927021E+02  0.56289979438E+01 -0.23455076432E+03  0.23657887714E+03  0.10000000000E+01 0.  0.
    9000005    1    3    3    0    0 -0.30377927021E+02 -0.56289979438E+01 -0.20093404196E+01  0.30976467146E+02  0.10000000000E+01 0.  0.
<mgrwt>
<rscale>  0 0.12500072E+03</rscale>
<asrwt>0</asrwt>
<pdfrwt beam="1">  1        4 0.23842494E-02 0.12500072E+03</pdfrwt>
<pdfrwt beam="2">  1       -4 0.38778108E-01 0.12500072E+03</pdfrwt>
<totfact> 0.79856058E+03</totfact>
</mgrwt>
</event>
<event>
 5    1  0.3266101E-002  0.1250004E+03  0.7818608E-02  0.1235069E+00
         -4   -1    0    0    0  501 -0.00000000000E+00  0.00000000000E+00  0.14516749931E+03  0.14517305451E+03  0.12700000000E+01 0. -1.
          4   -1    0    0  501    0  0.00000000000E+00 -0.00000000000E+00 -0.26887705377E+02  0.26917681929E+02  0.12700000000E+01 0. -1.
         25    2    1    2    0    0  0.00000000000E+00  0.00000000000E+00  0.11827979394E+03  0.17209073644E+03  0.12500044766E+03 0.  0.
    9000005    1    3    3    0    0 -0.40802031349E+02 -0.87087730021E+01  0.12319263663E+03  0.13006949761E+03  0.10000000000E+01 0.  0.
    9000005    1    3    3    0    0  0.40802031349E+02  0.87087730021E+01 -0.49128426940E+01  0.42021238829E+02  0.10000000000E+01 0.  0.
<mgrwt>
<rscale>  0 0.12500045E+03</rscale>
<asrwt>0</asrwt>
<pdfrwt beam="2">  1        4 0.41393034E-02 0.12500045E+03</pdfrwt>
<pdfrwt beam="1">  1       -4 0.22336194E-01 0.12500045E+03</pdfrwt>
<totfact> 0.95059427E+03</totfact>
</mgrwt>
</event>
<event>
 5    1  0.3266101E-002  0.1250018E+03  0.7818608E-02  0.1235066E+00
         -4   -1    0    0    0  501 -0.00000000000E+00  0.00000000000E+00  0.37663182679E+02  0.37684588753E+02  0.12700000000E+01 0.  1.
          4   -1    0    0  501    0  0.00000000000E+00 -0.00000000000E+00 -0.10366360872E+03  0.10367138792E+03  0.12700000000E+01 0.  1.
         25    2    1    2    0    0  0.00000000000E+00  0.00000000000E+00 -0.66000426039E+02  0.14135597667E+03  0.12500182360E+03 0.  0.
    9000005    1    3    3    0    0  0.37468104222E+02  0.31800098061E+02 -0.76654679977E+02  0.91060666772E+02  0.10000000000E+01 0.  0.
    9000005    1    3    3    0    0 -0.37468104222E+02 -0.31800098061E+02  0.10654253938E+02  0.50295309897E+02  0.10000000000E+01 0.  0.
<mgrwt>
<rscale>  0 0.12500182E+03</rscale>
<asrwt>0</asrwt>
<pdfrwt beam="2">  1        4 0.15950492E-01 0.12500182E+03</pdfrwt>
<pdfrwt beam="1">  1       -4 0.57965808E-02 0.12500182E+03</pdfrwt>
<totfact> 0.10105144E+04</totfact>
</mgrwt>
</event>
<event>
 5    1  0.3266101E-002  0.1249995E+03  0.7818608E-02  0.1235070E+00
         -4   -1    0    0    0  501 -0.00000000000E+00  0.00000000000E+00  0.30206798724E+03  0.30207065700E+03  0.12700000000E+01 0. -1.
          4   -1    0    0  501    0  0.00000000000E+00 -0.00000000000E+00 -0.12897681433E+02  0.12960057343E+02  0.12700000000E+01 0. -1.
         25    2    1    2    0    0  0.00000000000E+00  0.00000000000E+00  0.28917030581E+03  0.31503071434E+03  0.12499954085E+03 0.  0.
    9000005    1    3    3    0    0  0.26283581087E+02  0.37798362931E+02  0.25108429427E+03  0.25527214047E+03  0.10000000000E+01 0.  0.
    9000005    1    3    3    0    0 -0.26283581087E+02 -0.37798362931E+02  0.38086011546E+02  0.59758573865E+02  0.10000000000E+01 0.  0.
<mgrwt>
<rscale>  0 0.12499954E+03</rscale>
<asrwt>0</asrwt>
<pdfrwt beam="2">  1        4 0.19892622E-02 0.12499954E+03</pdfrwt>
<pdfrwt beam="1">  1       -4 0.46477001E-01 0.12499954E+03</pdfrwt>
<totfact> 0.73751829E+03</totfact>
</mgrwt>
</event>
<event>
 5    1  0.3266101E-002  0.1249985E+03  0.7818608E-02  0.1235072E+00
         -4   -1    0    0    0  501 -0.00000000000E+00  0.00000000000E+00  0.71688648076E+03  0.71688760569E+03  0.12700000000E+01 0. -1.
          4   -1    0    0  501    0  0.00000000000E+00 -0.00000000000E+00 -0.53736324069E+01  0.55216687011E+01  0.12700000000E+01 0. -1.
         25    2    1    2    0    0  0.00000000000E+00  0.00000000000E+00  0.71151284835E+03  0.72240927439E+03  0.12499850543E+03 0.  0.
    9000005    1    3    3    0    0 -0.35930729217E+02 -0.47237158559E+02  0.24268343757E+03  0.24983718162E+03  0.10000000000E+01 0.  0.
    9000005    1    3    3    0    0  0.35930729217E+02  0.47237158559E+02  0.46882941078E+03  0.47257209277E+03  0.10000000000E+01 0.  0.
<mgrwt>
<rscale>  0 0.12499851E+03</rscale>
<asrwt>0</asrwt>
<pdfrwt beam="2">  1        4 0.83818699E-03 0.12499851E+03</pdfrwt>
<pdfrwt beam="1">  1       -4 0.11030165E+00 0.12499851E+03</pdfrwt>
<totfact> 0.41931194E+03</totfact>
</mgrwt>
</event>
<event>
 5    1  0.3266101E-002  0.1250000E+03  0.7818608E-02  0.1235069E+00
         -4   -1    0    0    0  501 -0.00000000000E+00  0.00000000000E+00  0.40141119307E+01  0.42102250050E+01  0.12700000000E+01 0.  1.
          4   -1    0    0  501    0  0.00000000000E+00 -0.00000000000E+00 -0.94972784161E+03  0.94972869075E+03  0.12700000000E+01 0.  1.
         25    2    1    2    0    0  0.00000000000E+00  0.00000000000E+00 -0.94571372968E+03  0.95393891575E+03  0.12499998593E+03 0.  0.
    9000005    1    3    3    0    0  0.30847904792E+02 -0.15256258479E+02 -0.74779861617E+02  0.82324810090E+02  0.10000000000E+01 0.  0.
    9000005    1    3    3    0    0 -0.30847904792E+02  0.15256258479E+02 -0.87093386806E+03  0.87161410566E+03  0.10000000000E+01 0.  0.
<mgrwt>
<rscale>  0 0.12499999E+03</rscale>
<asrwt>0</asrwt>
<pdfrwt beam="2">  1        4 0.14612695E+00 0.12499999E+03</pdfrwt>
<pdfrwt beam="1">  1       -4 0.63270738E-03 0.12499999E+03</pdfrwt>
<totfact> 0.32176582E+03</totfact>
</mgrwt>
</event>
<event>
 5    1  0.3266101E-002  0.1249921E+03  0.7818608E-02  0.1235082E+00
         -4   -1    0    0    0  501 -0.00000000000E+00  0.00000000000E+00  0.35689741731E+02  0.35712330711E+02  0.12700000000E+01 0.  1.
          4   -1    0    0  501    0  0.00000000000E+00 -0.00000000000E+00 -0.10937544586E+03  0.10938281884E+03  0.12700000000E+01 0.  1.
         25    2    1    2    0    0  0.00000000000E+00  0.00000000000E+00 -0.73685704127E+02  0.14509514955E+03  0.12499207747E+03 0.  0.
    9000005    1    3    3    0    0 -0.24412379482E+02  0.56694311897E+02 -0.48130177119E+02  0.78279775313E+02  0.10000000000E+01 0.  0.
    9000005    1    3    3    0    0  0.24412379482E+02 -0.56694311897E+02 -0.25555527008E+02  0.66815374235E+02  0.10000000000E+01 0.  0.
<mgrwt>
<rscale>  0 0.12499208E+03</rscale>
<asrwt>0</asrwt>
<pdfrwt beam="2">  1        4 0.16829296E-01 0.12499208E+03</pdfrwt>
<pdfrwt beam="1">  1       -4 0.54930343E-02 0.12499208E+03</pdfrwt>
<totfact> 0.10030845E+04</totfact>
</mgrwt>
</event>
<event>
 5    1  0.3266101E-002  0.1249996E+03  0.7818608E-02  0.1235070E+00
         -4   -1    0    0    0  501 -0.00000000000E+00  0.00000000000E+00  0.18666861894E+04  0.18666866214E+04  0.12700000000E+01 0. -1.
          4   -1    0    0  501    0  0.00000000000E+00 -0.00000000000E+00 -0.18994353288E+01  0.22848970585E+01  0.12700000000E+01 0. -1.
         25    2    1    2    0    0  0.00000000000E+00  0.00000000000E+00  0.18647867541E+04  0.18689715185E+04  0.12499959493E+03 0.  0.
    9000005    1    3    3    0    0 -0.76109898804E+01 -0.45803110128E+02  0.15577607797E+04  0.15584529184E+04  0.10000000000E+01 0.  0.
    9000005    1    3    3    0    0  0.76109898804E+01  0.45803110128E+02  0.30702597439E+03  0.31051860011E+03  0.10000000000E+01 0.  0.
<mgrwt>
<rscale>  0 0.12499959E+03</rscale>
<asrwt>0</asrwt>
<pdfrwt beam="2">  1        4 0.32190444E-03 0.12499959E+03</pdfrwt>
<pdfrwt beam="1">  1       -4 0.28721263E+00 0.12499959E+03</pdfrwt>
<totfact> 0.11670039E+03</totfact>
</mgrwt>
</event>
<event>
 5    1  0.3266101E-002  0.1250314E+03  0.7818608E-02  0.1235020E+00
          4   -1    0    0  501    0  0.00000000000E+00  0.00000000000E+00  0.14195088364E+03  0.14195656472E+03  0.12700000000E+01 0. -1.
         -4   -1    0    0    0  501 -0.00000000000E+00 -0.00000000000E+00 -0.27511249130E+02  0.27540546994E+02  0.12700000000E+01 0. -1.
         25    2    1    2    0    0  0.00000000000E+00  0.00000000000E+00  0.11443963451E+03  0.16949711172E+03  0.12503135979E+03 0.  0.
    9000005    1    3    3    0    0  0.29164867778E+02  0.43442096431E+02  0.10357793741E+03  0.11604824158E+03  0.10000000000E+01 0.  0.
    9000005    1    3    3    0    0 -0.29164867778E+02 -0.43442096431E+02  0.10861697101E+02  0.53448870136E+02  0.10000000000E+01 0.  0.
<mgrwt>
<rscale>  0 0.12503136E+03</rscale>
<asrwt>0</asrwt>
<pdfrwt beam="1">  1        4 0.21841288E-01 0.12503136E+03</pdfrwt>
<pdfrwt beam="2">  1       -4 0.42351906E-02 0.12503136E+03</pdfrwt>
<totfact> 0.95475180E+03</totfact>
</mgrwt>
</event>
<event>
 5    1  0.3266101E-002  0.1249977E+03  0.7818608E-02  0.1235073E+00
         -4   -1    0    0    0  501 -0.00000000000E+00  0.00000000000E+00  0.12924281119E+04  0.12924287359E+04  0.12700000000E+01 0. -1.
          4   -1    0    0  501    0  0.00000000000E+00 -0.00000000000E+00 -0.28882322005E+01  0.31551204801E+01  0.12700000000E+01 0. -1.
         25    2    1    2    0    0  0.00000000000E+00  0.00000000000E+00  0.12895398797E+04  0.12955838563E+04  0.12499771008E+03 0.  0.
    9000005    1    3    3    0    0 -0.43772796264E+01 -0.56264185764E+02  0.92294389896E+03  0.92466818903E+03  0.10000000000E+01 0.  0.
    9000005    1    3    3    0    0  0.43772796264E+01  0.56264185764E+02  0.36659598072E+03  0.37091566731E+03  0.10000000000E+01 0.  0.
<mgrwt>
<rscale>  0 0.12499771E+03</rscale>
<asrwt>0</asrwt>
<pdfrwt beam="2">  1        4 0.46492147E-03 0.12499771E+03</pdfrwt>
<pdfrwt beam="1">  1       -4 0.19885559E+00 0.12499771E+03</pdfrwt>
<totfact> 0.22334111E+03</totfact>
</mgrwt>
</event>
<event>
 5    1  0.3266101E-002  0.1250090E+03  0.7818608E-02  0.1235055E+00
         -4   -1    0    0    0  501 -0.00000000000E+00  0.00000000000E+00  0.55399843144E+03  0.55399988713E+03  0.12700000000E+01 0.  1.
          4   -1    0    0  501    0  0.00000000000E+00 -0.00000000000E+00 -0.69933766334E+01  0.71077575040E+01  0.12700000000E+01 0.  1.
         25    2    1    2    0    0  0.00000000000E+00  0.00000000000E+00  0.54700505481E+03  0.56110764463E+03  0.12500903520E+03 0.  0.
    9000005    1    3    3    0    0 -0.15051692393E+02  0.60633365601E+02  0.28108835650E+03  0.28794899310E+03  0.10000000000E+01 0.  0.
    9000005    1    3    3    0    0  0.15051692393E+02 -0.60633365601E+02  0.26591669830E+03  0.27315865153E+03  0.10000000000E+01 0.  0.
<mgrwt>
<rscale>  0 0.12500904E+03</rscale>
<asrwt>0</asrwt>
<pdfrwt beam="2">  1        4 0.10848145E-02 0.12500904E+03</pdfrwt>
<pdfrwt beam="1">  1       -4 0.85239448E-01 0.12500904E+03</pdfrwt>
<totfact> 0.51408189E+03</totfact>
</mgrwt>
</event>
<event>
 5    1  0.3266101E-002  0.1250008E+03  0.7818608E-02  0.1235068E+00
         -4   -1    0    0    0  501 -0.00000000000E+00  0.00000000000E+00  0.66218575243E+02  0.66230752730E+02  0.12700000000E+01 0.  1.
          4   -1    0    0  501    0  0.00000000000E+00 -0.00000000000E+00 -0.58966561504E+02  0.58980236313E+02  0.12700000000E+01 0.  1.
         25    2    1    2    0    0  0.00000000000E+00  0.00000000000E+00  0.72520137388E+01  0.12521098904E+03  0.12500080029E+03 0.  0.
    9000005    1    3    3    0    0  0.49405351413E+01 -0.20831548052E+02  0.62435355863E+02  0.66011634910E+02  0.10000000000E+01 0.  0.
    9000005    1    3    3    0    0 -0.49405351413E+01  0.20831548052E+02 -0.55183342125E+02  0.59199354133E+02  0.10000000000E+01 0.  0.
<mgrwt>
<rscale>  0 0.12500080E+03</rscale>
<asrwt>0</asrwt>
<pdfrwt beam="2">  1        4 0.90737674E-02 0.12500080E+03</pdfrwt>
<pdfrwt beam="1">  1       -4 0.10189462E-01 0.12500080E+03</pdfrwt>
<totfact> 0.10448093E+04</totfact>
</mgrwt>
</event>
<event>
 5    1  0.3266101E-002  0.1250038E+03  0.7818608E-02  0.1235063E+00
         -4   -1    0    0    0  501 -0.00000000000E+00  0.00000000000E+00  0.56519067136E+01  0.57928360498E+01  0.12700000000E+01 0. -1.
          4   -1    0    0  501    0  0.00000000000E+00 -0.00000000000E+00 -0.68252763549E+03  0.68252881705E+03  0.12700000000E+01 0. -1.
         25    2    1    2    0    0  0.00000000000E+00  0.00000000000E+00 -0.67687572878E+03  0.68832165310E+03  0.12500378364E+03 0.  0.
    9000005    1    3    3    0    0  0.46745177709E+02 -0.40518883935E+02 -0.38725422727E+03  0.39216543465E+03  0.10000000000E+01 0.  0.
    9000005    1    3    3    0    0 -0.46745177709E+02  0.40518883935E+02 -0.28962150151E+03  0.29615621845E+03  0.10000000000E+01 0.  0.
<mgrwt>
<rscale>  0 0.12500378E+03</rscale>
<asrwt>0</asrwt>
<pdfrwt beam="2">  1        4 0.10501512E+00 0.12500378E+03</pdfrwt>
<pdfrwt beam="1">  1       -4 0.88045626E-03 0.12500378E+03</pdfrwt>
<totfact> 0.43706790E+03</totfact>
</mgrwt>
</event>
<event>
 5    1  0.3266101E-002  0.1249989E+03  0.7818608E-02  0.1235071E+00
          4   -1    0    0  501    0  0.00000000000E+00  0.00000000000E+00  0.93881521575E+01  0.94736635433E+01  0.12700000000E+01 0.  1.
         -4   -1    0    0    0  501 -0.00000000000E+00 -0.00000000000E+00 -0.41410284595E+03  0.41410479341E+03  0.12700000000E+01 0.  1.
         25    2    1    2    0    0  0.00000000000E+00  0.00000000000E+00 -0.40471469380E+03  0.42357845695E+03  0.12499890328E+03 0.  0.
    9000005    1    3    3    0    0  0.42611715996E+02 -0.12631499329E+02 -0.35122196996E+03  0.35402427218E+03  0.10000000000E+01 0.  0.
    9000005    1    3    3    0    0 -0.42611715996E+02  0.12631499329E+02 -0.53492723839E+02  0.69554184770E+02  0.10000000000E+01 0.  0.
<mgrwt>
<rscale>  0 0.12499890E+03</rscale>
<asrwt>0</asrwt>
<pdfrwt beam="1">  1        4 0.14510590E-02 0.12499890E+03</pdfrwt>
<pdfrwt beam="2">  1       -4 0.63714844E-01 0.12499890E+03</pdfrwt>
<totfact> 0.62323923E+03</totfact>
</mgrwt>
</event>
<event>
 5    1  0.3266101E-002  0.1249854E+03  0.7818608E-02  0.1235092E+00
          4   -1    0    0  501    0  0.00000000000E+00  0.00000000000E+00  0.26195541733E+03  0.26195849588E+03  0.12700000000E+01 0.  1.
         -4   -1    0    0    0  501 -0.00000000000E+00 -0.00000000000E+00 -0.14878197163E+02  0.14932302261E+02  0.12700000000E+01 0.  1.
         25    2    1    2    0    0  0.00000000000E+00  0.00000000000E+00  0.24707722016E+03  0.27689079815E+03  0.12498544465E+03 0.  0.
    9000005    1    3    3    0    0 -0.40687868665E+01  0.29966167538E+02  0.24467403802E+03  0.24653784923E+03  0.10000000000E+01 0.  0.
    9000005    1    3    3    0    0  0.40687868665E+01 -0.29966167538E+02  0.24031821471E+01  0.30352948917E+02  0.10000000000E+01 0.  0.
<mgrwt>
<rscale>  0 0.12498544E+03</rscale>
<asrwt>0</asrwt>
<pdfrwt beam="1">  1        4 0.40305229E-01 0.12498544E+03</pdfrwt>
<pdfrwt beam="2">  1       -4 0.22933523E-02 0.12498544E+03</pdfrwt>
<totfact> 0.78617617E+03</totfact>
</mgrwt>
</event>
<event>
 5    1  0.3266101E-002  0.1250024E+03  0.7818608E-02  0.1235066E+00
          4   -1    0    0  501    0  0.00000000000E+00  0.00000000000E+00  0.41909335199E+02  0.41928573513E+02  0.12700000000E+01 0.  1.
         -4   -1    0    0    0  501 -0.00000000000E+00 -0.00000000000E+00 -0.93165749812E+02  0.93174405488E+02  0.12700000000E+01 0.  1.
         25    2    1    2    0    0  0.00000000000E+00  0.00000000000E+00 -0.51256414613E+02  0.13510297900E+03  0.12500237956E+03 0.  0.
    9000005    1    3    3    0    0 -0.36648409855E+02 -0.66641382001E-01  0.29081028044E+02  0.46795476043E+02  0.10000000000E+01 0.  0.
    9000005    1    3    3    0    0  0.36648409855E+02  0.66641382001E-01 -0.80337442657E+02  0.88307502958E+02  0.10000000000E+01 0.  0.
<mgrwt>
<rscale>  0 0.12500238E+03</rscale>
<asrwt>0</asrwt>
<pdfrwt beam="1">  1        4 0.64497357E-02 0.12500238E+03</pdfrwt>
<pdfrwt beam="2">  1       -4 0.14335338E-01 0.12500238E+03</pdfrwt>
<totfact> 0.10235352E+04</totfact>
</mgrwt>
</event>
<event>
 5    1  0.3266101E-002  0.1249964E+03  0.7818608E-02  0.1235075E+00
          4   -1    0    0  501    0  0.00000000000E+00  0.00000000000E+00  0.70883525181E+02  0.70894901383E+02  0.12700000000E+01 0. -1.
         -4   -1    0    0    0  501 -0.00000000000E+00 -0.00000000000E+00 -0.55081737557E+02  0.55096376580E+02  0.12700000000E+01 0. -1.
         25    2    1    2    0    0  0.00000000000E+00  0.00000000000E+00  0.15801787624E+02  0.12599127796E+03  0.12499642247E+03 0.  0.
    9000005    1    3    3    0    0 -0.31189609433E+02 -0.46572505863E+02 -0.19945722200E+02  0.59503124901E+02  0.10000000000E+01 0.  0.
    9000005    1    3    3    0    0  0.31189609433E+02  0.46572505863E+02  0.35747509823E+02  0.66488153062E+02  0.10000000000E+01 0.  0.
<mgrwt>
<rscale>  0 0.12499642E+03</rscale>
<asrwt>0</asrwt>
<pdfrwt beam="1">  1        4 0.10907159E-01 0.12499642E+03</pdfrwt>
<pdfrwt beam="2">  1       -4 0.84761146E-02 0.12499642E+03</pdfrwt>
<totfact> 0.10431990E+04</totfact>
</mgrwt>
</event>
<event>
 5    1  0.3266101E-002  0.1249967E+03  0.7818608E-02  0.1235074E+00
          4   -1    0    0  501    0  0.00000000000E+00  0.00000000000E+00  0.11387868039E+02  0.11458465799E+02  0.12700000000E+01 0.  1.
         -4   -1    0    0    0  501 -0.00000000000E+00 -0.00000000000E+00 -0.34186877936E+03  0.34187113830E+03  0.12700000000E+01 0.  1.
         25    2    1    2    0    0  0.00000000000E+00  0.00000000000E+00 -0.33048091132E+03  0.35332960410E+03  0.12499670549E+03 0.  0.
    9000005    1    3    3    0    0  0.24934711246E+02  0.56486637875E+02 -0.19243629998E+03  0.20210197830E+03  0.10000000000E+01 0.  0.
    9000005    1    3    3    0    0 -0.24934711246E+02 -0.56486637875E+02 -0.13804461134E+03  0.15122762580E+03  0.10000000000E+01 0.  0.
<mgrwt>
<rscale>  0 0.12499671E+03</rscale>
<asrwt>0</asrwt>
<pdfrwt beam="1">  1        4 0.17575920E-02 0.12499671E+03</pdfrwt>
<pdfrwt beam="2">  1       -4 0.52600801E-01 0.12499671E+03</pdfrwt>
<totfact> 0.69364865E+03</totfact>
</mgrwt>
</event>
<event>
 5    1  0.3266101E-002  0.1249990E+03  0.7818608E-02  0.1235071E+00
          4   -1    0    0  501    0  0.00000000000E+00  0.00000000000E+00  0.16602989035E+02  0.16651490771E+02  0.12700000000E+01 0. -1.
         -4   -1    0    0    0  501 -0.00000000000E+00 -0.00000000000E+00 -0.23487658578E+03  0.23488001926E+03  0.12700000000E+01 0. -1.
         25    2    1    2    0    0  0.00000000000E+00  0.00000000000E+00 -0.21827359674E+03  0.25153151003E+03  0.12499895000E+03 0.  0.
    9000005    1    3    3    0    0  0.47657748198E+02  0.21333277719E+02 -0.17822578136E+03  0.18571967813E+03  0.10000000000E+01 0.  0.
    9000005    1    3    3    0    0 -0.47657748198E+02 -0.21333277719E+02 -0.40047815380E+02  0.65811831901E+02  0.10000000000E+01 0.  0.
<mgrwt>
<rscale>  0 0.12499895E+03</rscale>
<asrwt>0</asrwt>
<pdfrwt beam="1">  1        4 0.25583012E-02 0.12499895E+03</pdfrwt>
<pdfrwt beam="2">  1       -4 0.36138852E-01 0.12499895E+03</pdfrwt>
<totfact> 0.82111301E+03</totfact>
</mgrwt>
</event>
<event>
 5    1  0.3266101E-002  0.1249952E+03  0.7818608E-02  0.1235077E+00
          4   -1    0    0  501    0  0.00000000000E+00  0.00000000000E+00  0.70300590499E+02  0.70312061017E+02  0.12700000000E+01 0.  1.
         -4   -1    0    0    0  501 -0.00000000000E+00 -0.00000000000E+00 -0.55537423278E+02  0.55551942219E+02  0.12700000000E+01 0.  1.
         25    2    1    2    0    0  0.00000000000E+00  0.00000000000E+00  0.14763167221E+02  0.12586400324E+03  0.12499518472E+03 0.  0.
    9000005    1    3    3    0    0  0.36052578695E+02 -0.23600190579E+02 -0.38189940249E+02  0.57586708207E+02  0.10000000000E+01 0.  0.
    9000005    1    3    3    0    0 -0.36052578695E+02  0.23600190579E+02  0.52953107469E+02  0.68277295030E+02  0.10000000000E+01 0.  0.
<mgrwt>
<rscale>  0 0.12499518E+03</rscale>
<asrwt>0</asrwt>
<pdfrwt beam="1">  1        4 0.10817475E-01 0.12499518E+03</pdfrwt>
<pdfrwt beam="2">  1       -4 0.85462182E-02 0.12499518E+03</pdfrwt>
<totfact> 0.10435073E+04</totfact>
</mgrwt>
</event>
<event>
 5    1  0.3266101E-002  0.1249980E+03  0.7818608E-02  0.1235072E+00
         -4   -1    0    0    0  501 -0.00000000000E+00  0.00000000000E+00  0.51507574561E+01  0.53050167174E+01  0.12700000000E+01 0. -1.
          4   -1    0    0  501    0  0.00000000000E+00 -0.00000000000E+00 -0.74701623390E+03  0.74701731346E+03  0.12700000000E+01 0. -1.
         25    2    1    2    0    0  0.00000000000E+00  0.00000000000E+00 -0.74186547644E+03  0.75232233017E+03  0.12499801337E+03 0.  0.
    9000005    1    3    3    0    0  0.17983563898E+02 -0.58766829726E+02 -0.43907332607E+03  0.44335463741E+03  0.10000000000E+01 0.  0.
    9000005    1    3    3    0    0 -0.17983563898E+02  0.58766829726E+02 -0.30279215037E+03  0.30896769276E+03  0.10000000000E+01 0.  0.
<mgrwt>
<rscale>  0 0.12499801E+03</rscale>
<asrwt>0</asrwt>
<pdfrwt beam="2">  1        4 0.11493744E+00 0.12499801E+03</pdfrwt>
<pdfrwt beam="1">  1       -4 0.80437396E-03 0.12499801E+03</pdfrwt>
<totfact> 0.40465087E+03</totfact>
</mgrwt>
</event>
<event>
 5    1  0.3266101E-002  0.1249853E+03  0.7818608E-02  0.1235092E+00
         -4   -1    0    0    0  501 -0.00000000000E+00  0.00000000000E+00  0.12602266554E+04  0.12602272953E+04  0.12700000000E+01 0. -1.
          4   -1    0    0  501    0  0.00000000000E+00 -0.00000000000E+00 -0.29681237532E+01  0.32284142569E+01  0.12700000000E+01 0. -1.
         25    2    1    2    0    0  0.00000000000E+00  0.00000000000E+00  0.12572585316E+04  0.12634557096E+04  0.12498525783E+03 0.  0.
    9000005    1    3    3    0    0 -0.54642246833E+02  0.30269567609E+02  0.61327578607E+03  0.61644968298E+03  0.10000000000E+01 0.  0.
    9000005    1    3    3    0    0  0.54642246833E+02 -0.30269567609E+02  0.64398274558E+03  0.64700602660E+03  0.10000000000E+01 0.  0.
<mgrwt>
<rscale>  0 0.12498526E+03</rscale>
<asrwt>0</asrwt>
<pdfrwt beam="2">  1        4 0.47670546E-03 0.12498526E+03</pdfrwt>
<pdfrwt beam="1">  1       -4 0.19390131E+00 0.12498526E+03</pdfrwt>
<totfact> 0.23115192E+03</totfact>
</mgrwt>
</event>
<event>
 5    1  0.3266101E-002  0.1250039E+03  0.7818608E-02  0.1235063E+00
         -4   -1    0    0    0  501 -0.00000000000E+00  0.00000000000E+00  0.97964320008E+02  0.97972551741E+02  0.12700000000E+01 0.  1.
          4   -1    0    0  501    0  0.00000000000E+00 -0.00000000000E+00 -0.39856666714E+02  0.39876895335E+02  0.12700000000E+01 0.  1.
         25    2    1    2    0    0  0.00000000000E+00  0.00000000000E+00  0.58107653294E+02  0.13784944708E+03  0.12500388269E+03 0.  0.
    9000005    1    3    3    0    0 -0.19350605901E+02 -0.31732997746E+02 -0.26348967828E+02  0.45570793281E+02  0.10000000000E+01 0.  0.
    9000005    1    3    3    0    0  0.19350605901E+02  0.31732997746E+02  0.84456621123E+02  0.92278653794E+02  0.10000000000E+01 0.  0.
<mgrwt>
<rscale>  0 0.12500388E+03</rscale>
<asrwt>0</asrwt>
<pdfrwt beam="2">  1        4 0.61339842E-02 0.12500388E+03</pdfrwt>
<pdfrwt beam="1">  1       -4 0.15073623E-01 0.12500388E+03</pdfrwt>
<totfact> 0.10177462E+04</totfact>
</mgrwt>
</event>
<event>
 5    1  0.3266101E-002  0.1249997E+03  0.7818608E-02  0.1235070E+00
         -4   -1    0    0    0  501 -0.00000000000E+00  0.00000000000E+00  0.22349615294E+02  0.22385669608E+02  0.12700000000E+01 0. -1.
          4   -1    0    0  501    0  0.00000000000E+00 -0.00000000000E+00 -0.17459917600E+03  0.17460379480E+03  0.12700000000E+01 0. -1.
         25    2    1    2    0    0  0.00000000000E+00  0.00000000000E+00 -0.15224956070E+03  0.19698946441E+03  0.12499968141E+03 0.  0.
    9000005    1    3    3    0    0  0.19764602407E+02  0.54759821092E+02 -0.40328410629E+02  0.70828371562E+02  0.10000000000E+01 0.  0.
    9000005    1    3    3    0    0 -0.19764602407E+02 -0.54759821092E+02 -0.11192115007E+03  0.12616109285E+03  0.10000000000E+01 0.  0.
<mgrwt>
<rscale>  0 0.12499968E+03</rscale>
<asrwt>0</asrwt>
<pdfrwt beam="2">  1        4 0.26864539E-01 0.12499968E+03</pdfrwt>
<pdfrwt beam="1">  1       -4 0.34415312E-02 0.12499968E+03</pdfrwt>
<totfact> 0.90645839E+03</totfact>
</mgrwt>
</event>
<event>
 5    1  0.3266101E-002  0.1250055E+03  0.7818608E-02  0.1235061E+00
         -4   -1    0    0    0  501 -0.00000000000E+00  0.00000000000E+00  0.17789879180E+03  0.17790332494E+03  0.12700000000E+01 0. -1.
          4   -1    0    0  501    0  0.00000000000E+00 -0.00000000000E+00 -0.21936466181E+02  0.21973198413E+02  0.12700000000E+01 0. -1.
         25    2    1    2    0    0  0.00000000000E+00  0.00000000000E+00  0.15596232562E+03  0.19987652335E+03  0.12500551018E+03 0.  0.
    9000005    1    3    3    0    0 -0.60526481097E+02  0.76501593574E+01  0.99647533343E+02  0.11684438691E+03  0.10000000000E+01 0.  0.
    9000005    1    3    3    0    0  0.60526481097E+02 -0.76501593574E+01  0.56314792278E+02  0.83032136438E+02  0.10000000000E+01 0.  0.
<mgrwt>
<rscale>  0 0.12500551E+03</rscale>
<asrwt>0</asrwt>
<pdfrwt beam="2">  1        4 0.33780152E-02 0.12500551E+03</pdfrwt>
<pdfrwt beam="1">  1       -4 0.27372220E-01 0.12500551E+03</pdfrwt>
<totfact> 0.90145219E+03</totfact>
</mgrwt>
</event>
<event>
 5    1  0.3266101E-002  0.1250027E+03  0.7818608E-02  0.1235065E+00
          4   -1    0    0  501    0  0.00000000000E+00  0.00000000000E+00  0.19928954037E+04  0.19928958084E+04  0.12700000000E+01 0. -1.
         -4   -1    0    0    0  501 -0.00000000000E+00 -0.00000000000E+00 -0.17540175261E+01  0.21655201412E+01  0.12700000000E+01 0. -1.
         25    2    1    2    0    0  0.00000000000E+00  0.00000000000E+00  0.19911413862E+04  0.19950613285E+04  0.12500273900E+03 0.  0.
    9000005    1    3    3    0    0  0.29386607766E+02  0.54656994510E+02  0.11133533154E+04  0.11150818645E+04  0.10000000000E+01 0.  0.
    9000005    1    3    3    0    0 -0.29386607766E+02 -0.54656994510E+02  0.87778807086E+03  0.87997946402E+03  0.10000000000E+01 0.  0.
<mgrwt>
<rscale>  0 0.12500274E+03</rscale>
<asrwt>0</asrwt>
<pdfrwt beam="1">  1        4 0.30662936E+00 0.12500274E+03</pdfrwt>
<pdfrwt beam="2">  1       -4 0.30153562E-03 0.12500274E+03</pdfrwt>
<totfact> 0.99253538E+02</totfact>
</mgrwt>
</event>
<event>
 5    1  0.3266101E-002  0.1249639E+03  0.7818608E-02  0.1235126E+00
         -4   -1    0    0    0  501 -0.00000000000E+00  0.00000000000E+00  0.41422710054E+02  0.41442174270E+02  0.12700000000E+01 0. -1.
          4   -1    0    0  501    0  0.00000000000E+00 -0.00000000000E+00 -0.94201856794E+02  0.94210417277E+02  0.12700000000E+01 0. -1.
         25    2    1    2    0    0  0.00000000000E+00  0.00000000000E+00 -0.52779146740E+02  0.13565259155E+03  0.12496394385E+03 0.  0.
    9000005    1    3    3    0    0 -0.26293503779E+01  0.60518283509E+02 -0.97975623942E+01  0.61370745076E+02  0.10000000000E+01 0.  0.
    9000005    1    3    3    0    0  0.26293503779E+01 -0.60518283509E+02 -0.42981584346E+02  0.74281846471E+02  0.10000000000E+01 0.  0.
<mgrwt>
<rscale>  0 0.12496394E+03</rscale>
<asrwt>0</asrwt>
<pdfrwt beam="2">  1        4 0.14494749E-01 0.12496394E+03</pdfrwt>
<pdfrwt beam="1">  1       -4 0.63748804E-02 0.12496394E+03</pdfrwt>
<totfact> 0.10232652E+04</totfact>
</mgrwt>
</event>
<event>
 5    1  0.3266101E-002  0.1249941E+03  0.7818608E-02  0.1235078E+00
          4   -1    0    0  501    0  0.00000000000E+00  0.00000000000E+00  0.38099428805E+02  0.38120589912E+02  0.12700000000E+01 0. -1.
         -4   -1    0    0    0  501 -0.00000000000E+00 -0.00000000000E+00 -0.10246459968E+03  0.10247246990E+03  0.12700000000E+01 0. -1.
         25    2    1    2    0    0  0.00000000000E+00  0.00000000000E+00 -0.64365170875E+02  0.14059305981E+03  0.12499413285E+03 0.  0.
    9000005    1    3    3    0    0 -0.44898343913E+02  0.42323285779E+02 -0.43303953063E+02  0.75388023957E+02  0.10000000000E+01 0.  0.
    9000005    1    3    3    0    0  0.44898343913E+02 -0.42323285779E+02 -0.21061217812E+02  0.65205035856E+02  0.10000000000E+01 0.  0.
<mgrwt>
<rscale>  0 0.12499413E+03</rscale>
<asrwt>0</asrwt>
<pdfrwt beam="1">  1        4 0.58636838E-02 0.12499413E+03</pdfrwt>
<pdfrwt beam="2">  1       -4 0.15766018E-01 0.12499413E+03</pdfrwt>
<totfact> 0.10122647E+04</totfact>
</mgrwt>
</event>
<event>
 5    1  0.3266101E-002  0.1250018E+03  0.7818608E-02  0.1235066E+00
          4   -1    0    0  501    0  0.00000000000E+00  0.00000000000E+00  0.16423639428E+03  0.16424130451E+03  0.12700000000E+01 0.  1.
         -4   -1    0    0    0  501 -0.00000000000E+00 -0.00000000000E+00 -0.23762781562E+02  0.23796694887E+02  0.12700000000E+01 0.  1.
         25    2    1    2    0    0  0.00000000000E+00  0.00000000000E+00  0.14047361272E+03  0.18803799940E+03  0.12500181337E+03 0.  0.
    9000005    1    3    3    0    0  0.19208945881E+02 -0.58097906501E+02  0.51148835090E+02  0.79759348498E+02  0.10000000000E+01 0.  0.
    9000005    1    3    3    0    0 -0.19208945881E+02  0.58097906501E+02  0.89324777631E+02  0.10827865090E+03  0.10000000000E+01 0.  0.
<mgrwt>
<rscale>  0 0.12500181E+03</rscale>
<asrwt>0</asrwt>
<pdfrwt beam="1">  1        4 0.25270123E-01 0.12500181E+03</pdfrwt>
<pdfrwt beam="2">  1       -4 0.36587991E-02 0.12500181E+03</pdfrwt>
<totfact> 0.92186076E+03</totfact>
</mgrwt>
</event>
<event>
 5    1  0.3266101E-002  0.1250009E+03  0.7818608E-02  0.1235068E+00
         -4   -1    0    0    0  501 -0.00000000000E+00  0.00000000000E+00  0.77488527078E+02  0.77498933726E+02  0.12700000000E+01 0.  1.
          4   -1    0    0  501    0  0.00000000000E+00 -0.00000000000E+00 -0.50389638567E+02  0.50405640308E+02  0.12700000000E+01 0.  1.
         25    2    1    2    0    0  0.00000000000E+00  0.00000000000E+00  0.27098888511E+02  0.12790457403E+03  0.12500092120E+03 0.  0.
    9000005    1    3    3    0    0  0.10989394867E+02 -0.44824680623E+02 -0.29563468633E+02  0.54818039641E+02  0.10000000000E+01 0.  0.
    9000005    1    3    3    0    0 -0.10989394867E+02  0.44824680623E+02  0.56662357144E+02  0.73086534393E+02  0.10000000000E+01 0.  0.
<mgrwt>
<rscale>  0 0.12500092E+03</rscale>
<asrwt>0</asrwt>
<pdfrwt beam="2">  1        4 0.77542836E-02 0.12500092E+03</pdfrwt>
<pdfrwt beam="1">  1       -4 0.11923343E-01 0.12500092E+03</pdfrwt>
<totfact> 0.10389333E+04</totfact>
</mgrwt>
</event>
<event>
 5    1  0.3266101E-002  0.1250020E+03  0.7818608E-02  0.1235066E+00
         -4   -1    0    0    0  501 -0.00000000000E+00  0.00000000000E+00  0.21127745753E+02  0.21165881522E+02  0.12700000000E+01 0.  1.
          4   -1    0    0  501    0  0.00000000000E+00 -0.00000000000E+00 -0.18468607323E+03  0.18469043978E+03  0.12700000000E+01 0.  1.
         25    2    1    2    0    0  0.00000000000E+00  0.00000000000E+00 -0.16355832748E+03  0.20585632130E+03  0.12500199411E+03 0.  0.
    9000005    1    3    3    0    0  0.27658979156E+02  0.55875694749E+02 -0.74741568186E+02  0.97336603632E+02  0.10000000000E+01 0.  0.
    9000005    1    3    3    0    0 -0.27658979156E+02 -0.55875694749E+02 -0.88816759294E+02  0.10851971767E+03  0.10000000000E+01 0.  0.
<mgrwt>
<rscale>  0 0.12500199E+03</rscale>
<asrwt>0</asrwt>
<pdfrwt beam="2">  1        4 0.28416510E-01 0.12500199E+03</pdfrwt>
<pdfrwt beam="1">  1       -4 0.32536919E-02 0.12500199E+03</pdfrwt>
<totfact> 0.89153125E+03</totfact>
</mgrwt>
</event>
<event>
 5    1  0.3266101E-002  0.1249953E+03  0.7818608E-02  0.1235077E+00
         -4   -1    0    0    0  501 -0.00000000000E+00  0.00000000000E+00  0.63100350223E+03  0.63100478027E+03  0.12700000000E+01 0.  1.
          4   -1    0    0  501    0  0.00000000000E+00 -0.00000000000E+00 -0.61236348288E+01  0.62539430375E+01  0.12700000000E+01 0.  1.
         25    2    1    2    0    0  0.00000000000E+00  0.00000000000E+00  0.62487986740E+03  0.63725872331E+03  0.12499532692E+03 0.  0.
    9000005    1    3    3    0    0 -0.34009772541E+02 -0.28561650107E+02  0.88317864361E+02  0.98860900514E+02  0.10000000000E+01 0.  0.
    9000005    1    3    3    0    0  0.34009772541E+02  0.28561650107E+02  0.53656200304E+03  0.53839782280E+03  0.10000000000E+01 0.  0.
<mgrwt>
<rscale>  0 0.12499533E+03</rscale>
<asrwt>0</asrwt>
<pdfrwt beam="2">  1        4 0.95221966E-03 0.12499533E+03</pdfrwt>
<pdfrwt beam="1">  1       -4 0.97087586E-01 0.12499533E+03</pdfrwt>
<totfact> 0.46601889E+03</totfact>
</mgrwt>
</event>
<event>
 5    1  0.3266101E-002  0.1250149E+03  0.7818608E-02  0.1235046E+00
         -4   -1    0    0    0  501 -0.00000000000E+00  0.00000000000E+00  0.12113912550E+03  0.12114578254E+03  0.12700000000E+01 0. -1.
          4   -1    0    0  501    0  0.00000000000E+00 -0.00000000000E+00 -0.32233629418E+02  0.32258638618E+02  0.12700000000E+01 0. -1.
         25    2    1    2    0    0  0.00000000000E+00  0.00000000000E+00  0.88905496083E+02  0.15340442116E+03  0.12501491590E+03 0.  0.
    9000005    1    3    3    0    0  0.52079360605E+02 -0.26388812079E+02  0.71824069137E+02  0.92565253261E+02  0.10000000000E+01 0.  0.
    9000005    1    3    3    0    0 -0.52079360605E+02  0.26388812079E+02  0.17081426946E+02  0.60839167897E+02  0.10000000000E+01 0.  0.
<mgrwt>
<rscale>  0 0.12501492E+03</rscale>
<asrwt>0</asrwt>
<pdfrwt beam="2">  1        4 0.49614558E-02 0.12501492E+03</pdfrwt>
<pdfrwt beam="1">  1       -4 0.18639224E-01 0.12501492E+03</pdfrwt>
<totfact> 0.98596266E+03</totfact>
</mgrwt>
</event>
<event>
 4    1  0.3266101E-002  0.1252291E+03  0.7818608E-02  0.1234712E+00
          4   -1    0    0  501    0  0.00000000000E+00  0.00000000000E+00  0.22152197172E+02  0.22188572274E+02  0.12700000000E+01 0. -1.
         -4   -1    0    0    0  501 -0.00000000000E+00 -0.00000000000E+00 -0.17680000035E+03  0.17680456166E+03  0.12700000000E+01 0. -1.
    9000005    1    1    2    0    0 -0.31615116201E+02  0.48594088799E+01 -0.16284357193E+03  0.16595830303E+03  0.10000000000E+01 0.  0.
    9000005    1    1    2    0    0  0.31615116201E+02 -0.48594088799E+01  0.81957687525E+01  0.33034830899E+02  0.10000000000E+01 0.  0.
<mgrwt>
<rscale>  0 0.12522909E+03</rscale>
<asrwt>0</asrwt>
<pdfrwt beam="1">  1        4 0.34111794E-02 0.12522909E+03</pdfrwt>
<pdfrwt beam="2">  1       -4 0.27203148E-01 0.12522909E+03</pdfrwt>
<totfact> 0.89844177E+03</totfact>
</mgrwt>
</event>
<event>
 5    1  0.3266101E-002  0.1250012E+03  0.7818608E-02  0.1235067E+00
          4   -1    0    0  501    0  0.00000000000E+00  0.00000000000E+00  0.67161814049E+02  0.67173820543E+02  0.12700000000E+01 0. -1.
         -4   -1    0    0    0  501 -0.00000000000E+00 -0.00000000000E+00 -0.58138712533E+02  0.58152582015E+02  0.12700000000E+01 0. -1.
         25    2    1    2    0    0  0.00000000000E+00  0.00000000000E+00  0.90231015162E+01  0.12532640256E+03  0.12500116326E+03 0.  0.
    9000005    1    3    3    0    0 -0.57154516697E+02 -0.24959131426E+02  0.53567056326E+00  0.62376950578E+02  0.10000000000E+01 0.  0.
    9000005    1    3    3    0    0  0.57154516697E+02  0.24959131426E+02  0.84874309529E+01  0.62949451980E+02  0.10000000000E+01 0.  0.
<mgrwt>
<rscale>  0 0.12500116E+03</rscale>
<asrwt>0</asrwt>
<pdfrwt beam="1">  1        4 0.10334577E-01 0.12500116E+03</pdfrwt>
<pdfrwt beam="2">  1       -4 0.89464078E-02 0.12500116E+03</pdfrwt>
<totfact> 0.10445503E+04</totfact>
</mgrwt>
</event>
<event>
 5    1  0.3266101E-002  0.1250028E+03  0.7818608E-02  0.1235065E+00
          4   -1    0    0  501    0  0.00000000000E+00  0.00000000000E+00  0.74070852167E+01  0.75151720810E+01  0.12700000000E+01 0.  1.
         -4   -1    0    0    0  501 -0.00000000000E+00 -0.00000000000E+00 -0.52346124758E+03  0.52346278819E+03  0.12700000000E+01 0.  1.
         25    2    1    2    0    0  0.00000000000E+00  0.00000000000E+00 -0.51605416236E+03  0.53097796027E+03  0.12500278317E+03 0.  0.
    9000005    1    3    3    0    0 -0.25192527273E+02 -0.53676798663E+02 -0.17418829213E+03  0.18400658483E+03  0.10000000000E+01 0.  0.
    9000005    1    3    3    0    0  0.25192527273E+02  0.53676798663E+02 -0.34186587023E+03  0.34697137544E+03  0.10000000000E+01 0.  0.
<mgrwt>
<rscale>  0 0.12500278E+03</rscale>
<asrwt>0</asrwt>
<pdfrwt beam="1">  1        4 0.11479849E-02 0.12500278E+03</pdfrwt>
<pdfrwt beam="2">  1       -4 0.80540904E-01 0.12500278E+03</pdfrwt>
<totfact> 0.53535232E+03</totfact>
</mgrwt>
</event>
<event>
 5    1  0.3266101E-002  0.1249961E+03  0.7818608E-02  0.1235075E+00
         -4   -1    0    0    0  501 -0.00000000000E+00  0.00000000000E+00  0.46275754701E+03  0.46275928971E+03  0.12700000000E+01 0.  1.
          4   -1    0    0  501    0  0.00000000000E+00 -0.00000000000E+00 -0.83911822801E+01  0.84867449624E+01  0.12700000000E+01 0.  1.
         25    2    1    2    0    0  0.00000000000E+00  0.00000000000E+00  0.45436636473E+03  0.47124603468E+03  0.12499612713E+03 0.  0.
    9000005    1    3    3    0    0 -0.36837650618E+02 -0.47949418809E+02  0.28665604246E+03  0.29296560540E+03  0.10000000000E+01 0.  0.
    9000005    1    3    3    0    0  0.36837650618E+02  0.47949418809E+02  0.16771032227E+03  0.17828042928E+03  0.10000000000E+01 0.  0.
<mgrwt>
<rscale>  0 0.12499613E+03</rscale>
<asrwt>0</asrwt>
<pdfrwt beam="2">  1        4 0.12984363E-02 0.12499613E+03</pdfrwt>
<pdfrwt beam="1">  1       -4 0.71200947E-01 0.12499613E+03</pdfrwt>
<totfact> 0.58171403E+03</totfact>
</mgrwt>
</event>
<event>
 5    1  0.3266101E-002  0.1249986E+03  0.7818608E-02  0.1235071E+00
          4   -1    0    0  501    0  0.00000000000E+00  0.00000000000E+00  0.92849105459E+03  0.92849192315E+03  0.12700000000E+01 0. -1.
         -4   -1    0    0    0  501 -0.00000000000E+00 -0.00000000000E+00 -0.41102634430E+01  0.43019955336E+01  0.12700000000E+01 0. -1.
         25    2    1    2    0    0  0.00000000000E+00  0.00000000000E+00  0.92438079114E+03  0.93279391868E+03  0.12499859075E+03 0.  0.
    9000005    1    3    3    0    0  0.47371066193E+02  0.22050187329E+02  0.71798253024E+03  0.71988203368E+03  0.10000000000E+01 0.  0.
    9000005    1    3    3    0    0 -0.47371066193E+02 -0.22050187329E+02  0.20639826090E+03  0.21291188500E+03  0.10000000000E+01 0.  0.
<mgrwt>
<rscale>  0 0.12499859E+03</rscale>
<asrwt>0</asrwt>
<pdfrwt beam="1">  1        4 0.14285973E+00 0.12499859E+03</pdfrwt>
<pdfrwt beam="2">  1       -4 0.64716301E-03 0.12499859E+03</pdfrwt>
<totfact> 0.32935820E+03</totfact>
</mgrwt>
</event>
<event>
 5    1  0.3266101E-002  0.1249998E+03  0.7818608E-02  0.1235070E+00
          4   -1    0    0  501    0  0.00000000000E+00  0.00000000000E+00  0.23569680662E+03  0.23570022815E+03  0.12700000000E+01 0. -1.
         -4   -1    0    0    0  501 -0.00000000000E+00 -0.00000000000E+00 -0.16545267256E+02  0.16593937705E+02  0.12700000000E+01 0. -1.
         25    2    1    2    0    0  0.00000000000E+00  0.00000000000E+00  0.21915153936E+03  0.25229416585E+03  0.12499979568E+03 0.  0.
    9000005    1    3    3    0    0  0.46637755474E+02 -0.13612073283E+02  0.30244636585E+02  0.57237285198E+02  0.10000000000E+01 0.  0.
    9000005    1    3    3    0    0 -0.46637755474E+02  0.13612073283E+02  0.18890690278E+03  0.19505688066E+03  0.10000000000E+01 0.  0.
<mgrwt>
<rscale>  0 0.12499980E+03</rscale>
<asrwt>0</asrwt>
<pdfrwt beam="1">  1        4 0.36265053E-01 0.12499980E+03</pdfrwt>
<pdfrwt beam="2">  1       -4 0.25494329E-02 0.12499980E+03</pdfrwt>
<totfact> 0.82000149E+03</totfact>
</mgrwt>
</event>
<event>
 5    1  0.3266101E-002  0.1250019E+03  0.7818608E-02  0.1235066E+00
         -4   -1    0    0    0  501 -0.00000000000E+00  0.00000000000E+00  0.11593116161E+04  0.11593123117E+04  0.12700000000E+01 0. -1.
          4   -1    0    0  501    0  0.00000000000E+00 -0.00000000000E+00 -0.32491688760E+01  0.34885524770E+01  0.12700000000E+01 0. -1.
         25    2    1    2    0    0  0.00000000000E+00  0.00000000000E+00  0.11560624472E+04  0.11628008642E+04  0.12500187164E+03 0.  0.
    9000005    1    3    3    0    0 -0.56403278691E+02  0.24359672842E+02  0.68435556099E+03  0.68710862123E+03  0.10000000000E+01 0.  0.
    9000005    1    3    3    0    0  0.56403278691E+02 -0.24359672842E+02  0.47170688624E+03  0.47569224299E+03  0.10000000000E+01 0.  0.
<mgrwt>
<rscale>  0 0.12500187E+03</rscale>
<asrwt>0</asrwt>
<pdfrwt beam="2">  1        4 0.51833991E-03 0.12500187E+03</pdfrwt>
<pdfrwt beam="1">  1       -4 0.17837405E+00 0.12500187E+03</pdfrwt>
<totfact> 0.25706674E+03</totfact>
</mgrwt>
</event>
<event>
 5    1  0.3266101E-002  0.1250027E+03  0.7818608E-02  0.1235065E+00
         -4   -1    0    0    0  501 -0.00000000000E+00  0.00000000000E+00  0.19909058906E+04  0.19909062957E+04  0.12700000000E+01 0.  1.
          4   -1    0    0  501    0  0.00000000000E+00 -0.00000000000E+00 -0.17561811765E+01  0.21672730157E+01  0.12700000000E+01 0.  1.
         25    2    1    2    0    0  0.00000000000E+00  0.00000000000E+00  0.19891497095E+04  0.19930735687E+04  0.12500273470E+03 0.  0.
    9000005    1    3    3    0    0 -0.23248128211E+02 -0.54396400162E+02  0.67331638495E+03  0.67591079149E+03  0.10000000000E+01 0.  0.
    9000005    1    3    3    0    0  0.23248128211E+02  0.54396400162E+02  0.13158333245E+04  0.13171627772E+04  0.10000000000E+01 0.  0.
<mgrwt>
<rscale>  0 0.12500273E+03</rscale>
<asrwt>0</asrwt>
<pdfrwt beam="2">  1        4 0.30183599E-03 0.12500273E+03</pdfrwt>
<pdfrwt beam="1">  1       -4 0.30632420E+00 0.12500273E+03</pdfrwt>
<totfact> 0.99513554E+02</totfact>
</mgrwt>
</event>
<event>
 5    1  0.3266101E-002  0.1249997E+03  0.7818608E-02  0.1235070E+00
          4   -1    0    0  501    0  0.00000000000E+00  0.00000000000E+00  0.54839458302E+02  0.54854161983E+02  0.12700000000E+01 0. -1.
         -4   -1    0    0    0  501 -0.00000000000E+00 -0.00000000000E+00 -0.71200363600E+02  0.71211689186E+02  0.12700000000E+01 0. -1.
         25    2    1    2    0    0  0.00000000000E+00  0.00000000000E+00 -0.16360905298E+02  0.12606585117E+03  0.12499967844E+03 0.  0.
    9000005    1    3    3    0    0 -0.76663421207E+01 -0.23403334719E+02 -0.66105003568E+02  0.70550410163E+02  0.10000000000E+01 0.  0.
    9000005    1    3    3    0    0  0.76663421207E+01  0.23403334719E+02  0.49744098270E+02  0.55515441007E+02  0.10000000000E+01 0.  0.
<mgrwt>
<rscale>  0 0.12499968E+03</rscale>
<asrwt>0</asrwt>
<pdfrwt beam="1">  1        4 0.84388419E-02 0.12499968E+03</pdfrwt>
<pdfrwt beam="2">  1       -4 0.10955904E-01 0.12499968E+03</pdfrwt>
<totfact> 0.10429590E+04</totfact>
</mgrwt>
</event>
<event>
 5    1  0.3266101E-002  0.1250027E+03  0.7818608E-02  0.1235065E+00
         -4   -1    0    0    0  501 -0.00000000000E+00  0.00000000000E+00  0.16423842780E+02  0.16472871991E+02  0.12700000000E+01 0. -1.
          4   -1    0    0  501    0  0.00000000000E+00 -0.00000000000E+00 -0.23744531108E+03  0.23744870742E+03  0.12700000000E+01 0. -1.
         25    2    1    2    0    0  0.00000000000E+00  0.00000000000E+00 -0.22102146830E+03  0.25392157941E+03  0.12500271613E+03 0.  0.
    9000005    1    3    3    0    0  0.30762186888E+02 -0.52612346009E+02 -0.13858782873E+03  0.15139999130E+03  0.10000000000E+01 0.  0.
    9000005    1    3    3    0    0 -0.30762186888E+02  0.52612346009E+02 -0.82433639572E+02  0.10252158811E+03  0.10000000000E+01 0.  0.
<mgrwt>
<rscale>  0 0.12500272E+03</rscale>
<asrwt>0</asrwt>
<pdfrwt beam="2">  1        4 0.36534078E-01 0.12500272E+03</pdfrwt>
<pdfrwt beam="1">  1       -4 0.25307779E-02 0.12500272E+03</pdfrwt>
<totfact> 0.81761776E+03</totfact>
</mgrwt>
</event>
<event>
 5    1  0.3266101E-002  0.1249977E+03  0.7818608E-02  0.1235073E+00
          4   -1    0    0  501    0  0.00000000000E+00  0.00000000000E+00  0.62172414956E+02  0.62185384790E+02  0.12700000000E+01 0.  1.
         -4   -1    0    0    0  501 -0.00000000000E+00 -0.00000000000E+00 -0.62801013413E+02  0.62813853453E+02  0.12700000000E+01 0.  1.
         25    2    1    2    0    0  0.00000000000E+00  0.00000000000E+00 -0.62859845654E+00  0.12499923824E+03  0.12499765768E+03 0.  0.
    9000005    1    3    3    0    0 -0.58005968968E+02 -0.22853151404E+02  0.39454073570E+01  0.62478197831E+02  0.10000000000E+01 0.  0.
    9000005    1    3    3    0    0  0.58005968968E+02  0.22853151404E+02 -0.45740058136E+01  0.62521040412E+02  0.10000000000E+01 0.  0.
<mgrwt>
<rscale>  0 0.12499766E+03</rscale>
<asrwt>0</asrwt>
<pdfrwt beam="1">  1        4 0.95669722E-02 0.12499766E+03</pdfrwt>
<pdfrwt beam="2">  1       -4 0.96636798E-02 0.12499766E+03</pdfrwt>
<totfact> 0.10453432E+04</totfact>
</mgrwt>
</event>
<event>
 5    1  0.3266101E-002  0.1250033E+03  0.7818608E-02  0.1235064E+00
         -4   -1    0    0    0  501 -0.00000000000E+00  0.00000000000E+00  0.17470717652E+03  0.17471179247E+03  0.12700000000E+01 0. -1.
          4   -1    0    0  501    0  0.00000000000E+00 -0.00000000000E+00 -0.22337067147E+02  0.22373141682E+02  0.12700000000E+01 0. -1.
         25    2    1    2    0    0  0.00000000000E+00  0.00000000000E+00  0.15237010938E+03  0.19708493415E+03  0.12500328411E+03 0.  0.
    9000005    1    3    3    0    0  0.36375222895E+02  0.42003630353E+02  0.12127782509E+03  0.13340454514E+03  0.10000000000E+01 0.  0.
    9000005    1    3    3    0    0 -0.36375222895E+02 -0.42003630353E+02  0.31092284283E+02  0.63680389017E+02  0.10000000000E+01 0.  0.
<mgrwt>
<rscale>  0 0.12500328E+03</rscale>
<asrwt>0</asrwt>
<pdfrwt beam="2">  1        4 0.34396020E-02 0.12500328E+03</pdfrwt>
<pdfrwt beam="1">  1       -4 0.26881157E-01 0.12500328E+03</pdfrwt>
<totfact> 0.90622301E+03</totfact>
</mgrwt>
</event>
<event>
 5    1  0.3266101E-002  0.1249996E+03  0.7818608E-02  0.1235070E+00
          4   -1    0    0  501    0  0.00000000000E+00  0.00000000000E+00  0.59886368562E+02  0.59899833385E+02  0.12700000000E+01 0.  1.
         -4   -1    0    0    0  501 -0.00000000000E+00 -0.00000000000E+00 -0.65200283945E+02  0.65212651583E+02  0.12700000000E+01 0.  1.
         25    2    1    2    0    0  0.00000000000E+00  0.00000000000E+00 -0.53139153822E+01  0.12511248497E+03  0.12499958479E+03 0.  0.
    9000005    1    3    3    0    0  0.41710629230E+02 -0.14866148817E+02 -0.46792647638E+02  0.64430822161E+02  0.10000000000E+01 0.  0.
    9000005    1    3    3    0    0 -0.41710629230E+02  0.14866148817E+02  0.41478732256E+02  0.60681662807E+02  0.10000000000E+01 0.  0.
<mgrwt>
<rscale>  0 0.12499958E+03</rscale>
<asrwt>0</asrwt>
<pdfrwt beam="1">  1        4 0.92152746E-02 0.12499958E+03</pdfrwt>
<pdfrwt beam="2">  1       -4 0.10032800E-01 0.12499958E+03</pdfrwt>
<totfact> 0.10450518E+04</totfact>
</mgrwt>
</event>
<event>
 5    1  0.3266101E-002  0.1249722E+03  0.7818608E-02  0.1235113E+00
         -4   -1    0    0    0  501 -0.00000000000E+00  0.00000000000E+00  0.38075338640E+02  0.38096513129E+02  0.12700000000E+01 0. -1.
          4   -1    0    0  501    0  0.00000000000E+00 -0.00000000000E+00 -0.10249334001E+03  0.10250120802E+03  0.12700000000E+01 0. -1.
         25    2    1    2    0    0  0.00000000000E+00  0.00000000000E+00 -0.64418001366E+02  0.14059772115E+03  0.12497215807E+03 0.  0.
    9000005    1    3    3    0    0  0.33714046099E+02  0.99029282608E+01 -0.90328711950E+02  0.96927710667E+02  0.10000000000E+01 0.  0.
    9000005    1    3    3    0    0 -0.33714046099E+02 -0.99029282608E+01  0.25910710585E+02  0.43670010482E+02  0.10000000000E+01 0.  0.
<mgrwt>
<rscale>  0 0.12497216E+03</rscale>
<asrwt>0</asrwt>
<pdfrwt beam="2">  1        4 0.15770440E-01 0.12497216E+03</pdfrwt>
<pdfrwt beam="1">  1       -4 0.58599785E-02 0.12497216E+03</pdfrwt>
<totfact> 0.10127564E+04</totfact>
</mgrwt>
</event>
<event>
 5    1  0.3266101E-002  0.1249479E+03  0.7818608E-02  0.1235151E+00
          4   -1    0    0  501    0  0.00000000000E+00  0.00000000000E+00  0.27647824435E+04  0.27647827352E+04  0.12700000000E+01 0. -1.
         -4   -1    0    0    0  501 -0.00000000000E+00 -0.00000000000E+00 -0.11256965396E+01  0.16970835864E+01  0.12700000000E+01 0. -1.
         25    2    1    2    0    0  0.00000000000E+00  0.00000000000E+00  0.27636567469E+04  0.27664798187E+04  0.12494787977E+03 0.  0.
    9000005    1    3    3    0    0  0.11231530243E+01 -0.61397055777E+02  0.16353733446E+04  0.16365261490E+04  0.10000000000E+01 0.  0.
    9000005    1    3    3    0    0 -0.11231530243E+01  0.61397055777E+02  0.11282834023E+04  0.11299536698E+04  0.10000000000E+01 0.  0.
<mgrwt>
<rscale>  0 0.12494788E+03</rscale>
<asrwt>0</asrwt>
<pdfrwt beam="1">  1        4 0.42539322E+00 0.12494788E+03</pdfrwt>
<pdfrwt beam="2">  1       -4 0.21716034E-03 0.12494788E+03</pdfrwt>
<totfact> 0.29012027E+02</totfact>
</mgrwt>
</event>
<event>
 5    1  0.3266101E-002  0.1249983E+03  0.7818608E-02  0.1235072E+00
         -4   -1    0    0    0  501 -0.00000000000E+00  0.00000000000E+00  0.11529358329E+03  0.11530057783E+03  0.12700000000E+01 0. -1.
          4   -1    0    0  501    0  0.00000000000E+00 -0.00000000000E+00 -0.33860030925E+02  0.33883839721E+02  0.12700000000E+01 0. -1.
         25    2    1    2    0    0  0.00000000000E+00  0.00000000000E+00  0.81433552367E+02  0.14918441755E+03  0.12499826795E+03 0.  0.
    9000005    1    3    3    0    0 -0.44659369370E+02 -0.36150743491E+02  0.11389734322E+02  0.58583799598E+02  0.10000000000E+01 0.  0.
    9000005    1    3    3    0    0  0.44659369370E+02  0.36150743491E+02  0.70043818045E+02  0.90600617955E+02  0.10000000000E+01 0.  0.
<mgrwt>
<rscale>  0 0.12499827E+03</rscale>
<asrwt>0</asrwt>
<pdfrwt beam="2">  1        4 0.52116050E-02 0.12499827E+03</pdfrwt>
<pdfrwt beam="1">  1       -4 0.17739844E-01 0.12499827E+03</pdfrwt>
<totfact> 0.99470398E+03</totfact>
</mgrwt>
</event>
<event>
 5    1  0.3266101E-002  0.1249991E+03  0.7818608E-02  0.1235071E+00
         -4   -1    0    0    0  501 -0.00000000000E+00  0.00000000000E+00  0.47261419791E+02  0.47278480313E+02  0.12700000000E+01 0. -1.
          4   -1    0    0  501    0  0.00000000000E+00 -0.00000000000E+00 -0.82613889907E+02  0.82623651006E+02  0.12700000000E+01 0. -1.
         25    2    1    2    0    0  0.00000000000E+00  0.00000000000E+00 -0.35352470116E+02  0.12990213132E+03  0.12499906631E+03 0.  0.
    9000005    1    3    3    0    0  0.51522430912E+02 -0.34778191496E+02 -0.11013178602E+02  0.63137735102E+02  0.10000000000E+01 0.  0.
    9000005    1    3    3    0    0 -0.51522430912E+02  0.34778191496E+02 -0.24339291514E+02  0.66764396217E+02  0.10000000000E+01 0.  0.
<mgrwt>
<rscale>  0 0.12499907E+03</rscale>
<asrwt>0</asrwt>
<pdfrwt beam="2">  1        4 0.12711892E-01 0.12499907E+03</pdfrwt>
<pdfrwt beam="1">  1       -4 0.72730509E-02 0.12499907E+03</pdfrwt>
<totfact> 0.10346820E+04</totfact>
</mgrwt>
</event>
<event>
 5    1  0.3266101E-002  0.1249999E+03  0.7818608E-02  0.1235069E+00
          4   -1    0    0  501    0  0.00000000000E+00  0.00000000000E+00  0.15416526192E+02  0.15468748489E+02  0.12700000000E+01 0.  1.
         -4   -1    0    0    0  501 -0.00000000000E+00 -0.00000000000E+00 -0.25289791937E+03  0.25290110819E+03  0.12700000000E+01 0.  1.
         25    2    1    2    0    0  0.00000000000E+00  0.00000000000E+00 -0.23748139318E+03  0.26836985668E+03  0.12499987146E+03 0.  0.
    9000005    1    3    3    0    0 -0.29562356984E+02  0.30138106207E+02 -0.21766420944E+03  0.22172267919E+03  0.10000000000E+01 0.  0.
    9000005    1    3    3    0    0  0.29562356984E+02 -0.30138106207E+02 -0.19817183742E+02  0.46647177489E+02  0.10000000000E+01 0.  0.
<mgrwt>
<rscale>  0 0.12499987E+03</rscale>
<asrwt>0</asrwt>
<pdfrwt beam="1">  1        4 0.23760358E-02 0.12499987E+03</pdfrwt>
<pdfrwt beam="2">  1       -4 0.38911631E-01 0.12499987E+03</pdfrwt>
<totfact> 0.79745862E+03</totfact>
</mgrwt>
</event>
<event>
 5    1  0.3266101E-002  0.1249942E+03  0.7818608E-02  0.1235078E+00
         -4   -1    0    0    0  501 -0.00000000000E+00  0.00000000000E+00  0.85111423110E+02  0.85120897809E+02  0.12700000000E+01 0. -1.
          4   -1    0    0  501    0  0.00000000000E+00 -0.00000000000E+00 -0.45870629834E+02  0.45888207433E+02  0.12700000000E+01 0. -1.
         25    2    1    2    0    0  0.00000000000E+00  0.00000000000E+00  0.39240793276E+02  0.13100910524E+03  0.12499418306E+03 0.  0.
    9000005    1    3    3    0    0  0.22366314062E+02  0.50027833235E+02  0.51096351689E+02  0.74932457979E+02  0.10000000000E+01 0.  0.
    9000005    1    3    3    0    0 -0.22366314062E+02 -0.50027833235E+02 -0.11855558414E+02  0.56076647262E+02  0.10000000000E+01 0.  0.
<mgrwt>
<rscale>  0 0.12499418E+03</rscale>
<asrwt>0</asrwt>
<pdfrwt beam="2">  1        4 0.70591009E-02 0.12499418E+03</pdfrwt>
<pdfrwt beam="1">  1       -4 0.13096146E-01 0.12499418E+03</pdfrwt>
<totfact> 0.10324249E+04</totfact>
</mgrwt>
</event>
<event>
 5    1  0.3266101E-002  0.1249973E+03  0.7818608E-02  0.1235074E+00
          4   -1    0    0  501    0  0.00000000000E+00  0.00000000000E+00  0.69677630811E+02  0.69689203866E+02  0.12700000000E+01 0.  1.
         -4   -1    0    0    0  501 -0.00000000000E+00 -0.00000000000E+00 -0.56035880531E+02  0.56050270355E+02  0.12700000000E+01 0.  1.
         25    2    1    2    0    0  0.00000000000E+00  0.00000000000E+00  0.13641750280E+02  0.12573947422E+03  0.12499727208E+03 0.  0.
    9000005    1    3    3    0    0 -0.26599733405E+02 -0.30797933475E+02 -0.40884559671E+02  0.57694070259E+02  0.10000000000E+01 0.  0.
    9000005    1    3    3    0    0  0.26599733405E+02  0.30797933475E+02  0.54526309951E+02  0.68045403962E+02  0.10000000000E+01 0.  0.
<mgrwt>
<rscale>  0 0.12499727E+03</rscale>
<asrwt>0</asrwt>
<pdfrwt beam="1">  1        4 0.10721633E-01 0.12499727E+03</pdfrwt>
<pdfrwt beam="2">  1       -4 0.86229018E-02 0.12499727E+03</pdfrwt>
<totfact> 0.10437318E+04</totfact>
</mgrwt>
</event>
<event>
 4    1  0.3266101E-002  0.1251535E+03  0.7818608E-02  0.1234830E+00
          4   -1    0    0  501    0  0.00000000000E+00  0.00000000000E+00  0.23263299402E+02  0.23297939803E+02  0.12700000000E+01 0. -1.
         -4   -1    0    0    0  501 -0.00000000000E+00 -0.00000000000E+00 -0.16816518027E+03  0.16816997579E+03  0.12700000000E+01 0. -1.
    9000005    1    1    2    0    0  0.39830197594E+01  0.62419534945E+02 -0.69895968320E+02  0.93800368744E+02  0.10000000000E+01 0.  0.
    9000005    1    1    2    0    0 -0.39830197594E+01 -0.62419534945E+02 -0.75005912552E+02  0.97667546846E+02  0.10000000000E+01 0.  0.
<mgrwt>
<rscale>  0 0.12515354E+03</rscale>
<asrwt>0</asrwt>
<pdfrwt beam="1">  1        4 0.35820028E-02 0.12515354E+03</pdfrwt>
<pdfrwt beam="2">  1       -4 0.25874599E-01 0.12515354E+03</pdfrwt>
<totfact> 0.91278280E+03</totfact>
</mgrwt>
</event>
<event>
 5    1  0.3266101E-002  0.1250059E+03  0.7818608E-02  0.1235060E+00
          4   -1    0    0  501    0  0.00000000000E+00  0.00000000000E+00  0.42142070389E+03  0.42142261753E+03  0.12700000000E+01 0.  1.
         -4   -1    0    0    0  501 -0.00000000000E+00 -0.00000000000E+00 -0.92246673506E+01  0.93116801776E+01  0.12700000000E+01 0.  1.
         25    2    1    2    0    0  0.00000000000E+00  0.00000000000E+00  0.41219603654E+03  0.43073429770E+03  0.12500585060E+03 0.  0.
    9000005    1    3    3    0    0  0.19785139499E+02  0.57309501787E+02  0.25833040691E+03  0.26535152134E+03  0.10000000000E+01 0.  0.
    9000005    1    3    3    0    0 -0.19785139499E+02 -0.57309501787E+02  0.15386562962E+03  0.16538277637E+03  0.10000000000E+01 0.  0.
<mgrwt>
<rscale>  0 0.12500585E+03</rscale>
<asrwt>0</asrwt>
<pdfrwt beam="1">  1        4 0.64840792E-01 0.12500585E+03</pdfrwt>
<pdfrwt beam="2">  1       -4 0.14260202E-02 0.12500585E+03</pdfrwt>
<totfact> 0.61661534E+03</totfact>
</mgrwt>
</event>
<event>
 5    1  0.3266101E-002  0.1249975E+03  0.7818608E-02  0.1235073E+00
         -4   -1    0    0    0  501 -0.00000000000E+00  0.00000000000E+00  0.47543059833E+01  0.49210085737E+01  0.12700000000E+01 0. -1.
          4   -1    0    0  501    0  0.00000000000E+00 -0.00000000000E+00 -0.80726837838E+03  0.80726937736E+03  0.12700000000E+01 0. -1.
         25    2    1    2    0    0  0.00000000000E+00  0.00000000000E+00 -0.80251407239E+03  0.81219038594E+03  0.12499754645E+03 0.  0.
    9000005    1    3    3    0    0  0.11519344725E+02 -0.28111167735E+02 -0.46425600526E+02  0.55491165409E+02  0.10000000000E+01 0.  0.
    9000005    1    3    3    0    0 -0.11519344725E+02  0.28111167735E+02 -0.75608847187E+03  0.75669922053E+03  0.10000000000E+01 0.  0.
<mgrwt>
<rscale>  0 0.12499755E+03</rscale>
<asrwt>0</asrwt>
<pdfrwt beam="2">  1        4 0.12420793E+00 0.12499755E+03</pdfrwt>
<pdfrwt beam="1">  1       -4 0.74433245E-03 0.12499755E+03</pdfrwt>
<totfact> 0.37728328E+03</totfact>
</mgrwt>
</event>
<event>
 5    1  0.3266101E-002  0.1249977E+03  0.7818608E-02  0.1235073E+00
          4   -1    0    0  501    0  0.00000000000E+00  0.00000000000E+00  0.26384477191E+03  0.26384782843E+03  0.12700000000E+01 0.  1.
         -4   -1    0    0    0  501 -0.00000000000E+00 -0.00000000000E+00 -0.14774180857E+02  0.14828665483E+02  0.12700000000E+01 0.  1.
         25    2    1    2    0    0  0.00000000000E+00  0.00000000000E+00  0.24907059106E+03  0.27867649391E+03  0.12499771570E+03 0.  0.
    9000005    1    3    3    0    0  0.50075306279E+02  0.15234425779E+01  0.20781214485E+03  0.21376796936E+03  0.10000000000E+01 0.  0.
    9000005    1    3    3    0    0 -0.50075306279E+02 -0.15234425779E+01  0.41258446205E+02  0.64908524551E+02  0.10000000000E+01 0.  0.
<mgrwt>
<rscale>  0 0.12499772E+03</rscale>
<asrwt>0</asrwt>
<pdfrwt beam="1">  1        4 0.40595928E-01 0.12499772E+03</pdfrwt>
<pdfrwt beam="2">  1       -4 0.22773772E-02 0.12499772E+03</pdfrwt>
<totfact> 0.78357899E+03</totfact>
</mgrwt>
</event>
<event>
 5    1  0.3266101E-002  0.1250057E+03  0.7818608E-02  0.1235060E+00
         -4   -1    0    0    0  501 -0.00000000000E+00  0.00000000000E+00  0.17208696455E+03  0.17209165078E+03  0.12700000000E+01 0.  1.
          4   -1    0    0  501    0  0.00000000000E+00 -0.00000000000E+00 -0.22678586126E+02  0.22714118267E+02  0.12700000000E+01 0.  1.
         25    2    1    2    0    0  0.00000000000E+00  0.00000000000E+00  0.14940837842E+03  0.19480576904E+03  0.12500569631E+03 0.  0.
    9000005    1    3    3    0    0  0.37768200371E+02  0.31645299988E+02  0.14798010020E+02  0.51457196495E+02  0.10000000000E+01 0.  0.
    9000005    1    3    3    0    0 -0.37768200371E+02 -0.31645299988E+02  0.13461036840E+03  0.14334857255E+03  0.10000000000E+01 0.  0.
<mgrwt>
<rscale>  0 0.12500570E+03</rscale>
<asrwt>0</asrwt>
<pdfrwt beam="2">  1        4 0.34921069E-02 0.12500570E+03</pdfrwt>
<pdfrwt beam="1">  1       -4 0.26478012E-01 0.12500570E+03</pdfrwt>
<totfact> 0.91006177E+03</totfact>
</mgrwt>
</event>
<event>
 5    1  0.3266101E-002  0.1249974E+03  0.7818608E-02  0.1235073E+00
         -4   -1    0    0    0  501 -0.00000000000E+00  0.00000000000E+00  0.22918131301E+02  0.22953292625E+02  0.12700000000E+01 0.  1.
          4   -1    0    0  501    0  0.00000000000E+00 -0.00000000000E+00 -0.17026833555E+03  0.17027307184E+03  0.12700000000E+01 0.  1.
         25    2    1    2    0    0  0.00000000000E+00  0.00000000000E+00 -0.14735020425E+03  0.19322636446E+03  0.12499738089E+03 0.  0.
    9000005    1    3    3    0    0  0.22992611148E+02  0.15418754014E+02 -0.16027942180E+03  0.16265574443E+03  0.10000000000E+01 0.  0.
    9000005    1    3    3    0    0 -0.22992611148E+02 -0.15418754014E+02  0.12929217548E+02  0.30570620032E+02  0.10000000000E+01 0.  0.
<mgrwt>
<rscale>  0 0.12499738E+03</rscale>
<asrwt>0</asrwt>
<pdfrwt beam="2">  1        4 0.26198197E-01 0.12499738E+03</pdfrwt>
<pdfrwt beam="1">  1       -4 0.35289355E-02 0.12499738E+03</pdfrwt>
<totfact> 0.91294304E+03</totfact>
</mgrwt>
</event>
<event>
 5    1  0.3266101E-002  0.1250089E+03  0.7818608E-02  0.1235055E+00
          4   -1    0    0  501    0  0.00000000000E+00  0.00000000000E+00  0.35919743597E+02  0.35942188026E+02  0.12700000000E+01 0. -1.
         -4   -1    0    0    0  501 -0.00000000000E+00 -0.00000000000E+00 -0.10870482910E+03  0.10871224756E+03  0.12700000000E+01 0. -1.
         25    2    1    2    0    0  0.00000000000E+00  0.00000000000E+00 -0.72785085507E+02  0.14465443559E+03  0.12500894794E+03 0.  0.
    9000005    1    3    3    0    0 -0.14137820535E+02 -0.15468576878E+02  0.31738640332E+02  0.38045973903E+02  0.10000000000E+01 0.  0.
    9000005    1    3    3    0    0  0.14137820535E+02  0.15468576878E+02 -0.10452372584E+03  0.10660846169E+03  0.10000000000E+01 0.  0.
<mgrwt>
<rscale>  0 0.12500895E+03</rscale>
<asrwt>0</asrwt>
<pdfrwt beam="1">  1        4 0.55284116E-02 0.12500895E+03</pdfrwt>
<pdfrwt beam="2">  1       -4 0.16726117E-01 0.12500895E+03</pdfrwt>
<totfact> 0.10035992E+04</totfact>
</mgrwt>
</event>
<event>
 5    1  0.3266101E-002  0.1249939E+03  0.7818608E-02  0.1235079E+00
          4   -1    0    0  501    0  0.00000000000E+00  0.00000000000E+00  0.83016580995E+03  0.83016678138E+03  0.12700000000E+01 0. -1.
         -4   -1    0    0    0  501 -0.00000000000E+00 -0.00000000000E+00 -0.46182289489E+01  0.47896699912E+01  0.12700000000E+01 0. -1.
         25    2    1    2    0    0  0.00000000000E+00  0.00000000000E+00  0.82554758100E+03  0.83495645137E+03  0.12499386862E+03 0.  0.
    9000005    1    3    3    0    0 -0.41814928241E+02 -0.22137938754E+02  0.68545200421E+03  0.68708371152E+03  0.10000000000E+01 0.  0.
    9000005    1    3    3    0    0  0.41814928241E+02  0.22137938754E+02  0.14009557679E+03  0.14787273985E+03  0.10000000000E+01 0.  0.
<mgrwt>
<rscale>  0 0.12499387E+03</rscale>
<asrwt>0</asrwt>
<pdfrwt beam="1">  1        4 0.12773105E+00 0.12499387E+03</pdfrwt>
<pdfrwt beam="2">  1       -4 0.72375942E-03 0.12499387E+03</pdfrwt>
<totfact> 0.36755879E+03</totfact>
</mgrwt>
</event>
<event>
 5    1  0.3266101E-002  0.1250000E+03  0.7818608E-02  0.1235069E+00
          4   -1    0    0  501    0  0.00000000000E+00  0.00000000000E+00  0.13741394244E+03  0.13741981108E+03  0.12700000000E+01 0. -1.
         -4   -1    0    0    0  501 -0.00000000000E+00 -0.00000000000E+00 -0.28406224629E+02  0.28434600361E+02  0.12700000000E+01 0. -1.
         25    2    1    2    0    0  0.00000000000E+00  0.00000000000E+00  0.10900771781E+03  0.16585441144E+03  0.12500001301E+03 0.  0.
    9000005    1    3    3    0    0  0.47741958973E+02  0.29586778014E+01  0.11459063180E+01  0.47857721657E+02  0.10000000000E+01 0.  0.
    9000005    1    3    3    0    0 -0.47741958973E+02 -0.29586778014E+01  0.10786181150E+03  0.11799668978E+03  0.10000000000E+01 0.  0.
<mgrwt>
<rscale>  0 0.12500001E+03</rscale>
<asrwt>0</asrwt>
<pdfrwt beam="1">  1        4 0.21143241E-01 0.12500001E+03</pdfrwt>
<pdfrwt beam="2">  1       -4 0.43728226E-02 0.12500001E+03</pdfrwt>
<totfact> 0.96225797E+03</totfact>
</mgrwt>
</event>
<event>
 5    1  0.3266101E-002  0.1249967E+03  0.7818608E-02  0.1235074E+00
          4   -1    0    0  501    0  0.00000000000E+00  0.00000000000E+00  0.35229197183E+01  0.37448449022E+01  0.12700000000E+01 0. -1.
         -4   -1    0    0    0  501 -0.00000000000E+00 -0.00000000000E+00 -0.10746732056E+04  0.10746739560E+04  0.12700000000E+01 0. -1.
         25    2    1    2    0    0  0.00000000000E+00  0.00000000000E+00 -0.10711502859E+04  0.10784188009E+04  0.12499670086E+03 0.  0.
    9000005    1    3    3    0    0 -0.13300181401E+02  0.55754356865E+02 -0.75033091238E+03  0.75251772153E+03  0.10000000000E+01 0.  0.
    9000005    1    3    3    0    0  0.13300181401E+02 -0.55754356865E+02 -0.32081937348E+03  0.32590107937E+03  0.10000000000E+01 0.  0.
<mgrwt>
<rscale>  0 0.12499670E+03</rscale>
<asrwt>0</asrwt>
<pdfrwt beam="1">  1        4 0.55911740E-03 0.12499670E+03</pdfrwt>
<pdfrwt beam="2">  1       -4 0.16535121E+00 0.12499670E+03</pdfrwt>
<totfact> 0.28125823E+03</totfact>
</mgrwt>
</event>
<event>
 5    1  0.3266101E-002  0.1249984E+03  0.7818608E-02  0.1235072E+00
          4   -1    0    0  501    0  0.00000000000E+00  0.00000000000E+00  0.20375599003E+02  0.20415139842E+02  0.12700000000E+01 0. -1.
         -4   -1    0    0    0  501 -0.00000000000E+00 -0.00000000000E+00 -0.19147969729E+03  0.19148390892E+03  0.12700000000E+01 0. -1.
         25    2    1    2    0    0  0.00000000000E+00  0.00000000000E+00 -0.17110409829E+03  0.21189904876E+03  0.12499837765E+03 0.  0.
    9000005    1    3    3    0    0 -0.28423652583E+02 -0.55651442578E+02 -0.84870757429E+02  0.10539939541E+03  0.10000000000E+01 0.  0.
    9000005    1    3    3    0    0  0.28423652583E+02  0.55651442578E+02 -0.86233340861E+02  0.10649965335E+03  0.10000000000E+01 0.  0.
<mgrwt>
<rscale>  0 0.12499838E+03</rscale>
<asrwt>0</asrwt>
<pdfrwt beam="1">  1        4 0.31380732E-02 0.12499838E+03</pdfrwt>
<pdfrwt beam="2">  1       -4 0.29461779E-01 0.12499838E+03</pdfrwt>
<totfact> 0.88169875E+03</totfact>
</mgrwt>
</event>
<event>
 5    1  0.3266101E-002  0.1249992E+03  0.7818608E-02  0.1235071E+00
         -4   -1    0    0    0  501 -0.00000000000E+00  0.00000000000E+00  0.81755039699E+01  0.82735581924E+01  0.12700000000E+01 0. -1.
          4   -1    0    0  501    0  0.00000000000E+00 -0.00000000000E+00 -0.47484624840E+03  0.47484794674E+03  0.12700000000E+01 0. -1.
         25    2    1    2    0    0  0.00000000000E+00  0.00000000000E+00 -0.46667074444E+03  0.48312150493E+03  0.12499921927E+03 0.  0.
    9000005    1    3    3    0    0  0.56207855849E+02 -0.26521416915E+02 -0.20814087646E+03  0.21722415397E+03  0.10000000000E+01 0.  0.
    9000005    1    3    3    0    0 -0.56207855849E+02  0.26521416915E+02 -0.25852986798E+03  0.26589735096E+03  0.10000000000E+01 0.  0.
<mgrwt>
<rscale>  0 0.12499922E+03</rscale>
<asrwt>0</asrwt>
<pdfrwt beam="2">  1        4 0.73060921E-01 0.12499922E+03</pdfrwt>
<pdfrwt beam="1">  1       -4 0.12654435E-02 0.12499922E+03</pdfrwt>
<totfact> 0.57199122E+03</totfact>
</mgrwt>
</event>
<event>
 5    1  0.3266101E-002  0.1249894E+03  0.7818608E-02  0.1235086E+00
         -4   -1    0    0    0  501 -0.00000000000E+00  0.00000000000E+00  0.25891646113E+01  0.28838643145E+01  0.12700000000E+01 0. -1.
          4   -1    0    0  501    0  0.00000000000E+00 -0.00000000000E+00 -0.14269169263E+04  0.14269174915E+04  0.12700000000E+01 0. -1.
         25    2    1    2    0    0  0.00000000000E+00  0.00000000000E+00 -0.14243277617E+04  0.14298013558E+04  0.12498937669E+03 0.  0.
    9000005    1    3    3    0    0  0.27817787297E+01 -0.51895810886E+02 -0.11090416637E+04  0.11102591253E+04  0.10000000000E+01 0.  0.
    9000005    1    3    3    0    0 -0.27817787297E+01  0.51895810886E+02 -0.31528609800E+03  0.31954223050E+03  0.10000000000E+01 0.  0.
<mgrwt>
<rscale>  0 0.12498938E+03</rscale>
<asrwt>0</asrwt>
<pdfrwt beam="2">  1        4 0.21954780E+00 0.12498938E+03</pdfrwt>
<pdfrwt beam="1">  1       -4 0.42104684E-03 0.12498938E+03</pdfrwt>
<totfact> 0.19354872E+03</totfact>
</mgrwt>
</event>
<event>
 5    1  0.3266101E-002  0.1249881E+03  0.7818608E-02  0.1235088E+00
          4   -1    0    0  501    0  0.00000000000E+00  0.00000000000E+00  0.85655401756E+02  0.85664816290E+02  0.12700000000E+01 0. -1.
         -4   -1    0    0    0  501 -0.00000000000E+00 -0.00000000000E+00 -0.45574767929E+02  0.45592459594E+02  0.12700000000E+01 0. -1.
         25    2    1    2    0    0  0.00000000000E+00  0.00000000000E+00  0.40080633827E+02  0.13125727588E+03  0.12498806049E+03 0.  0.
    9000005    1    3    3    0    0  0.45354506537E+02 -0.41532700530E+02  0.84168438881E+01  0.62079302006E+02  0.10000000000E+01 0.  0.
    9000005    1    3    3    0    0 -0.45354506537E+02  0.41532700530E+02  0.31663789939E+02  0.69177973878E+02  0.10000000000E+01 0.  0.
<mgrwt>
<rscale>  0 0.12498806E+03</rscale>
<asrwt>0</asrwt>
<pdfrwt beam="1">  1        4 0.13179839E-01 0.12498806E+03</pdfrwt>
<pdfrwt beam="2">  1       -4 0.70135879E-02 0.12498806E+03</pdfrwt>
<totfact> 0.10320357E+04</totfact>
</mgrwt>
</event>
<event>
 5    1  0.3266101E-002  0.1249948E+03  0.7818608E-02  0.1235077E+00
          4   -1    0    0  501    0  0.00000000000E+00  0.00000000000E+00  0.72637495345E+03  0.72637606369E+03  0.12700000000E+01 0. -1.
         -4   -1    0    0    0  501 -0.00000000000E+00 -0.00000000000E+00 -0.53011701183E+01  0.54511746095E+01  0.12700000000E+01 0. -1.
         25    2    1    2    0    0  0.00000000000E+00  0.00000000000E+00  0.72107378334E+03  0.73182723830E+03  0.12499482272E+03 0.  0.
    9000005    1    3    3    0    0 -0.27525918745E+01  0.50295286162E+02  0.14400725697E+03  0.15256566663E+03  0.10000000000E+01 0.  0.
    9000005    1    3    3    0    0  0.27525918745E+01 -0.50295286162E+02  0.57706652636E+03  0.57926157168E+03  0.10000000000E+01 0.  0.
<mgrwt>
<rscale>  0 0.12499482E+03</rscale>
<asrwt>0</asrwt>
<pdfrwt beam="1">  1        4 0.11176151E+00 0.12499482E+03</pdfrwt>
<pdfrwt beam="2">  1       -4 0.82718965E-03 0.12499482E+03</pdfrwt>
<totfact> 0.41463516E+03</totfact>
</mgrwt>
</event>
<event>
 5    1  0.3266101E-002  0.1250065E+03  0.7818608E-02  0.1235059E+00
          4   -1    0    0  501    0  0.00000000000E+00  0.00000000000E+00  0.24650361466E+02  0.24683055330E+02  0.12700000000E+01 0. -1.
         -4   -1    0    0    0  501 -0.00000000000E+00 -0.00000000000E+00 -0.15834246181E+03  0.15834755481E+03  0.12700000000E+01 0. -1.
         25    2    1    2    0    0  0.00000000000E+00  0.00000000000E+00 -0.13369210035E+03  0.18303061014E+03  0.12500650604E+03 0.  0.
    9000005    1    3    3    0    0 -0.61791390273E+00 -0.13776784202E+01 -0.15832293155E+03  0.15833328920E+03  0.10000000000E+01 0.  0.
    9000005    1    3    3    0    0  0.61791390273E+00  0.13776784202E+01  0.24630831204E+02  0.24697320932E+02  0.10000000000E+01 0.  0.
<mgrwt>
<rscale>  0 0.12500651E+03</rscale>
<asrwt>0</asrwt>
<pdfrwt beam="1">  1        4 0.37952701E-02 0.12500651E+03</pdfrwt>
<pdfrwt beam="2">  1       -4 0.24363285E-01 0.12500651E+03</pdfrwt>
<totfact> 0.93060739E+03</totfact>
</mgrwt>
</event>
<event>
 5    1  0.3266101E-002  0.1249991E+03  0.7818608E-02  0.1235071E+00
         -4   -1    0    0    0  501 -0.00000000000E+00  0.00000000000E+00  0.30168481721E+02  0.30195201429E+02  0.12700000000E+01 0. -1.
          4   -1    0    0  501    0  0.00000000000E+00 -0.00000000000E+00 -0.12939215777E+03  0.12939839023E+03  0.12700000000E+01 0. -1.
         25    2    1    2    0    0  0.00000000000E+00  0.00000000000E+00 -0.99223676053E+02  0.15959359166E+03  0.12499910643E+03 0.  0.
    9000005    1    3    3    0    0  0.29023378195E+02  0.15442067121E+02 -0.11746500488E+03  0.12198295491E+03  0.10000000000E+01 0.  0.
    9000005    1    3    3    0    0 -0.29023378195E+02 -0.15442067121E+02  0.18241328825E+02  0.37610636742E+02  0.10000000000E+01 0.  0.
<mgrwt>
<rscale>  0 0.12499911E+03</rscale>
<asrwt>0</asrwt>
<pdfrwt beam="2">  1        4 0.19909020E-01 0.12499911E+03</pdfrwt>
<pdfrwt beam="1">  1       -4 0.46438397E-02 0.12499911E+03</pdfrwt>
<totfact> 0.97423151E+03</totfact>
</mgrwt>
</event>
<event>
 5    1  0.3266101E-002  0.1250042E+03  0.7818608E-02  0.1235063E+00
          4   -1    0    0  501    0  0.00000000000E+00  0.00000000000E+00  0.61033016111E+03  0.61033148244E+03  0.12700000000E+01 0. -1.
         -4   -1    0    0    0  501 -0.00000000000E+00 -0.00000000000E+00 -0.63363161225E+01  0.64623371936E+01  0.12700000000E+01 0. -1.
         25    2    1    2    0    0  0.00000000000E+00  0.00000000000E+00  0.60399384499E+03  0.61679381964E+03  0.12500420456E+03 0.  0.
    9000005    1    3    3    0    0 -0.12143088130E+02 -0.80008861768E+01  0.21038555305E+01  0.14727354719E+02  0.10000000000E+01 0.  0.
    9000005    1    3    3    0    0  0.12143088130E+02  0.80008861768E+01  0.60188998946E+03  0.60206646492E+03  0.10000000000E+01 0.  0.
<mgrwt>
<rscale>  0 0.12500420E+03</rscale>
<asrwt>0</asrwt>
<pdfrwt beam="1">  1        4 0.93906764E-01 0.12500420E+03</pdfrwt>
<pdfrwt beam="2">  1       -4 0.98461322E-03 0.12500420E+03</pdfrwt>
<totfact> 0.47819994E+03</totfact>
</mgrwt>
</event>
<event>
 5    1  0.3266101E-002  0.1250464E+03  0.7818608E-02  0.1234997E+00
          4   -1    0    0  501    0  0.00000000000E+00  0.00000000000E+00  0.16272294318E+03  0.16272789908E+03  0.12700000000E+01 0.  1.
         -4   -1    0    0    0  501 -0.00000000000E+00 -0.00000000000E+00 -0.24001244225E+02  0.24034821080E+02  0.12700000000E+01 0.  1.
         25    2    1    2    0    0  0.00000000000E+00  0.00000000000E+00  0.13872169896E+03  0.18676272016E+03  0.12504640690E+03 0.  0.
    9000005    1    3    3    0    0  0.35618155142E+02 -0.51035344914E+02  0.78183095999E+02  0.99934257921E+02  0.10000000000E+01 0.  0.
    9000005    1    3    3    0    0 -0.35618155142E+02  0.51035344914E+02  0.60538602961E+02  0.86828462238E+02  0.10000000000E+01 0.  0.
<mgrwt>
<rscale>  0 0.12504641E+03</rscale>
<asrwt>0</asrwt>
<pdfrwt beam="1">  1        4 0.25037262E-01 0.12504641E+03</pdfrwt>
<pdfrwt beam="2">  1       -4 0.36954633E-02 0.12504641E+03</pdfrwt>
<totfact> 0.92317633E+03</totfact>
</mgrwt>
</event>
<event>
 5    1  0.3266101E-002  0.1249990E+03  0.7818608E-02  0.1235071E+00
          4   -1    0    0  501    0  0.00000000000E+00  0.00000000000E+00  0.30926148989E+02  0.30952214643E+02  0.12700000000E+01 0. -1.
         -4   -1    0    0    0  501 -0.00000000000E+00 -0.00000000000E+00 -0.12622443134E+03  0.12623082020E+03  0.12700000000E+01 0. -1.
         25    2    1    2    0    0  0.00000000000E+00  0.00000000000E+00 -0.95298282353E+02  0.15718303484E+03  0.12499897528E+03 0.  0.
    9000005    1    3    3    0    0 -0.31334744018E+02  0.34006130528E+02 -0.10050651159E+03  0.11063833860E+03  0.10000000000E+01 0.  0.
    9000005    1    3    3    0    0  0.31334744018E+02 -0.34006130528E+02  0.52082292391E+01  0.46544696239E+02  0.10000000000E+01 0.  0.
<mgrwt>
<rscale>  0 0.12499898E+03</rscale>
<asrwt>0</asrwt>
<pdfrwt beam="1">  1        4 0.47603656E-02 0.12499898E+03</pdfrwt>
<pdfrwt beam="2">  1       -4 0.19421640E-01 0.12499898E+03</pdfrwt>
<totfact> 0.97890894E+03</totfact>
</mgrwt>
</event>
<event>
 5    1  0.3266101E-002  0.1250017E+03  0.7818608E-02  0.1235067E+00
          4   -1    0    0  501    0  0.00000000000E+00  0.00000000000E+00  0.15734188943E+03  0.15734701481E+03  0.12700000000E+01 0. -1.
         -4   -1    0    0    0  501 -0.00000000000E+00 -0.00000000000E+00 -0.24805421595E+02  0.24837911355E+02  0.12700000000E+01 0. -1.
         25    2    1    2    0    0  0.00000000000E+00  0.00000000000E+00  0.13253646783E+03  0.18218492616E+03  0.12500172805E+03 0.  0.
    9000005    1    3    3    0    0 -0.27417065627E+02 -0.45787135604E+02  0.11365697278E+03  0.12556697311E+03  0.10000000000E+01 0.  0.
    9000005    1    3    3    0    0  0.27417065627E+02  0.45787135604E+02  0.18879495054E+02  0.56617953053E+02  0.10000000000E+01 0.  0.
<mgrwt>
<rscale>  0 0.12500173E+03</rscale>
<asrwt>0</asrwt>
<pdfrwt beam="1">  1        4 0.24209338E-01 0.12500173E+03</pdfrwt>
<pdfrwt beam="2">  1       -4 0.38191121E-02 0.12500173E+03</pdfrwt>
<totfact> 0.93221569E+03</totfact>
</mgrwt>
</event>
<event>
 5    1  0.3266101E-002  0.1250015E+03  0.7818608E-02  0.1235067E+00
          4   -1    0    0  501    0  0.00000000000E+00  0.00000000000E+00  0.71160049701E+01  0.72284456652E+01  0.12700000000E+01 0. -1.
         -4   -1    0    0    0  501 -0.00000000000E+00 -0.00000000000E+00 -0.54453539150E+03  0.54453687249E+03  0.12700000000E+01 0. -1.
         25    2    1    2    0    0  0.00000000000E+00  0.00000000000E+00 -0.53741938653E+03  0.55176531815E+03  0.12500147717E+03 0.  0.
    9000005    1    3    3    0    0  0.14490661965E+02  0.48661826116E+02 -0.42952910844E+03  0.43252075974E+03  0.10000000000E+01 0.  0.
    9000005    1    3    3    0    0 -0.14490661965E+02 -0.48661826116E+02 -0.10789027809E+03  0.11924455841E+03  0.10000000000E+01 0.  0.
<mgrwt>
<rscale>  0 0.12500148E+03</rscale>
<asrwt>0</asrwt>
<pdfrwt beam="1">  1        4 0.11035336E-02 0.12500148E+03</pdfrwt>
<pdfrwt beam="2">  1       -4 0.83783406E-01 0.12500148E+03</pdfrwt>
<totfact> 0.52059433E+03</totfact>
</mgrwt>
</event>
<event>
 5    1  0.3266101E-002  0.1249999E+03  0.7818608E-02  0.1235069E+00
         -4   -1    0    0    0  501 -0.00000000000E+00  0.00000000000E+00  0.27282964641E+02  0.27312507384E+02  0.12700000000E+01 0. -1.
          4   -1    0    0  501    0  0.00000000000E+00 -0.00000000000E+00 -0.14306534188E+03  0.14307097870E+03  0.12700000000E+01 0. -1.
         25    2    1    2    0    0  0.00000000000E+00  0.00000000000E+00 -0.11578237723E+03  0.17038348608E+03  0.12499989381E+03 0.  0.
    9000005    1    3    3    0    0  0.17111501349E+02 -0.35425372292E+01 -0.13967408550E+03  0.14076648468E+03  0.10000000000E+01 0.  0.
    9000005    1    3    3    0    0 -0.17111501349E+02  0.35425372292E+01  0.23891708265E+02  0.29617001406E+02  0.10000000000E+01 0.  0.
<mgrwt>
<rscale>  0 0.12499989E+03</rscale>
<asrwt>0</asrwt>
<pdfrwt beam="2">  1        4 0.22012758E-01 0.12499989E+03</pdfrwt>
<pdfrwt beam="1">  1       -4 0.42000854E-02 0.12499989E+03</pdfrwt>
<totfact> 0.95377436E+03</totfact>
</mgrwt>
</event>
<event>
 5    1  0.3266101E-002  0.1250007E+03  0.7818608E-02  0.1235068E+00
         -4   -1    0    0    0  501 -0.00000000000E+00  0.00000000000E+00  0.67336854248E+01  0.68524024547E+01  0.12700000000E+01 0. -1.
          4   -1    0    0  501    0  0.00000000000E+00 -0.00000000000E+00 -0.57492412794E+03  0.57492553065E+03  0.12700000000E+01 0. -1.
         25    2    1    2    0    0  0.00000000000E+00  0.00000000000E+00 -0.56819044252E+03  0.58177793310E+03  0.12500073790E+03 0.  0.
    9000005    1    3    3    0    0  0.45116092123E+02 -0.82083047321E+01 -0.48169081446E+03  0.48386969193E+03  0.10000000000E+01 0.  0.
    9000005    1    3    3    0    0 -0.45116092123E+02  0.82083047321E+01 -0.86499628058E+02  0.97908241171E+02  0.10000000000E+01 0.  0.
<mgrwt>
<rscale>  0 0.12500074E+03</rscale>
<asrwt>0</asrwt>
<pdfrwt beam="2">  1        4 0.88459067E-01 0.12500074E+03</pdfrwt>
<pdfrwt beam="1">  1       -4 0.10451920E-02 0.12500074E+03</pdfrwt>
<totfact> 0.50037624E+03</totfact>
</mgrwt>
</event>
<event>
 5    1  0.3266101E-002  0.1250006E+03  0.7818608E-02  0.1235068E+00
         -4   -1    0    0    0  501 -0.00000000000E+00  0.00000000000E+00  0.41304587317E+03  0.41304782562E+03  0.12700000000E+01 0.  1.
          4   -1    0    0  501    0  0.00000000000E+00 -0.00000000000E+00 -0.94126523349E+01  0.94979431446E+01  0.12700000000E+01 0.  1.
         25    2    1    2    0    0  0.00000000000E+00  0.00000000000E+00  0.40363322084E+03  0.42254576876E+03  0.12500059893E+03 0.  0.
    9000005    1    3    3    0    0  0.50439577753E+02 -0.36720738365E+02  0.21387446752E+03  0.22279104894E+03  0.10000000000E+01 0.  0.
    9000005    1    3    3    0    0 -0.50439577753E+02  0.36720738365E+02  0.18975875332E+03  0.19975471982E+03  0.10000000000E+01 0.  0.
<mgrwt>
<rscale>  0 0.12500060E+03</rscale>
<asrwt>0</asrwt>
<pdfrwt beam="2">  1        4 0.14548118E-02 0.12500060E+03</pdfrwt>
<pdfrwt beam="1">  1       -4 0.63552212E-01 0.12500060E+03</pdfrwt>
<totfact> 0.62416717E+03</totfact>
</mgrwt>
</event>
<event>
 5    1  0.3266101E-002  0.1250038E+03  0.7818608E-02  0.1235063E+00
          4   -1    0    0  501    0  0.00000000000E+00  0.00000000000E+00  0.69090523418E+03  0.69090640142E+03  0.12700000000E+01 0.  1.
         -4   -1    0    0    0  501 -0.00000000000E+00 -0.00000000000E+00 -0.55816555137E+01  0.57243146554E+01  0.12700000000E+01 0.  1.
         25    2    1    2    0    0  0.00000000000E+00  0.00000000000E+00  0.68532357867E+03  0.69663071607E+03  0.12500378833E+03 0.  0.
    9000005    1    3    3    0    0 -0.43147043394E+01 -0.57805321784E+02  0.21251216058E+03  0.22027821112E+03  0.10000000000E+01 0.  0.
    9000005    1    3    3    0    0  0.43147043394E+01  0.57805321784E+02  0.47281141809E+03  0.47635250495E+03  0.10000000000E+01 0.  0.
<mgrwt>
<rscale>  0 0.12500379E+03</rscale>
<asrwt>0</asrwt>
<pdfrwt beam="1">  1        4 0.10630419E+00 0.12500379E+03</pdfrwt>
<pdfrwt beam="2">  1       -4 0.86977973E-03 0.12500379E+03</pdfrwt>
<totfact> 0.43261556E+03</totfact>
</mgrwt>
</event>
<event>
 5    1  0.3266101E-002  0.1250012E+03  0.7818608E-02  0.1235067E+00
          4   -1    0    0  501    0  0.00000000000E+00  0.00000000000E+00  0.63229067627E+03  0.63229195171E+03  0.12700000000E+01 0.  1.
         -4   -1    0    0    0  501 -0.00000000000E+00 -0.00000000000E+00 -0.61114928983E+01  0.62420545854E+01  0.12700000000E+01 0.  1.
         25    2    1    2    0    0  0.00000000000E+00  0.00000000000E+00  0.62617918337E+03  0.63853400629E+03  0.12500123003E+03 0.  0.
    9000005    1    3    3    0    0  0.55497319743E+02 -0.21548074201E+02  0.41015318221E+03  0.41445253634E+03  0.10000000000E+01 0.  0.
    9000005    1    3    3    0    0 -0.55497319743E+02  0.21548074201E+02  0.21602600116E+03  0.22408146996E+03  0.10000000000E+01 0.  0.
<mgrwt>
<rscale>  0 0.12500123E+03</rscale>
<asrwt>0</asrwt>
<pdfrwt beam="1">  1        4 0.97285570E-01 0.12500123E+03</pdfrwt>
<pdfrwt beam="2">  1       -4 0.95037158E-03 0.12500123E+03</pdfrwt>
<totfact> 0.46520933E+03</totfact>
</mgrwt>
</event>
<event>
 5    1  0.3266101E-002  0.1250010E+03  0.7818608E-02  0.1235068E+00
          4   -1    0    0  501    0  0.00000000000E+00  0.00000000000E+00  0.24010264668E+03  0.24010600543E+03  0.12700000000E+01 0. -1.
         -4   -1    0    0    0  501 -0.00000000000E+00 -0.00000000000E+00 -0.16241077698E+02  0.16290656978E+02  0.12700000000E+01 0. -1.
         25    2    1    2    0    0  0.00000000000E+00  0.00000000000E+00  0.22386156898E+03  0.25639666240E+03  0.12500098570E+03 0.  0.
    9000005    1    3    3    0    0  0.12170155507E+02  0.47314698300E+02  0.19186062331E+03  0.19798558568E+03  0.10000000000E+01 0.  0.
    9000005    1    3    3    0    0 -0.12170155507E+02 -0.47314698300E+02  0.32000945671E+02  0.58411076724E+02  0.10000000000E+01 0.  0.
<mgrwt>
<rscale>  0 0.12500099E+03</rscale>
<asrwt>0</asrwt>
<pdfrwt beam="1">  1        4 0.36942936E-01 0.12500099E+03</pdfrwt>
<pdfrwt beam="2">  1       -4 0.25026998E-02 0.12500099E+03</pdfrwt>
<totfact> 0.81412629E+03</totfact>
</mgrwt>
</event>
<event>
 5    1  0.3266101E-002  0.1250035E+03  0.7818608E-02  0.1235064E+00
          4   -1    0    0  501    0  0.00000000000E+00  0.00000000000E+00  0.94746870428E+02  0.94755381673E+02  0.12700000000E+01 0. -1.
         -4   -1    0    0    0  501 -0.00000000000E+00 -0.00000000000E+00 -0.41210462200E+02  0.41230026616E+02  0.12700000000E+01 0. -1.
         25    2    1    2    0    0  0.00000000000E+00  0.00000000000E+00  0.53536408228E+02  0.13598540829E+03  0.12500353700E+03 0.  0.
    9000005    1    3    3    0    0  0.31530096913E+02 -0.46937304379E+01  0.85242607146E+02  0.91013626396E+02  0.10000000000E+01 0.  0.
    9000005    1    3    3    0    0 -0.31530096913E+02  0.46937304379E+01 -0.31706198918E+02  0.44971781893E+02  0.10000000000E+01 0.  0.
<mgrwt>
<rscale>  0 0.12500354E+03</rscale>
<asrwt>0</asrwt>
<pdfrwt beam="1">  1        4 0.14578601E-01 0.12500354E+03</pdfrwt>
<pdfrwt beam="2">  1       -4 0.63422309E-02 0.12500354E+03</pdfrwt>
<totfact> 0.10216528E+04</totfact>
</mgrwt>
</event>
<event>
 5    1  0.3266101E-002  0.1250083E+03  0.7818608E-02  0.1235056E+00
          4   -1    0    0  501    0  0.00000000000E+00  0.00000000000E+00  0.29575432563E+03  0.29575705237E+03  0.12700000000E+01 0. -1.
         -4   -1    0    0    0  501 -0.00000000000E+00 -0.00000000000E+00 -0.13176186826E+02  0.13237250443E+02  0.12700000000E+01 0. -1.
         25    2    1    2    0    0  0.00000000000E+00  0.00000000000E+00  0.28257813880E+03  0.30899430282E+03  0.12500829830E+03 0.  0.
    9000005    1    3    3    0    0 -0.54541397525E+02 -0.82457116722E+01  0.21390305277E+03  0.22090330869E+03  0.10000000000E+01 0.  0.
    9000005    1    3    3    0    0  0.54541397525E+02  0.82457116722E+01  0.68675086037E+02  0.88090994132E+02  0.10000000000E+01 0.  0.
<mgrwt>
<rscale>  0 0.12500830E+03</rscale>
<asrwt>0</asrwt>
<pdfrwt beam="1">  1        4 0.45505569E-01 0.12500830E+03</pdfrwt>
<pdfrwt beam="2">  1       -4 0.20320128E-02 0.12500830E+03</pdfrwt>
<totfact> 0.74470575E+03</totfact>
</mgrwt>
</event>
<event>
 5    1  0.3266101E-002  0.1249987E+03  0.7818608E-02  0.1235071E+00
          4   -1    0    0  501    0  0.00000000000E+00  0.00000000000E+00  0.21297283740E+02  0.21335116467E+02  0.12700000000E+01 0. -1.
         -4   -1    0    0    0  501 -0.00000000000E+00 -0.00000000000E+00 -0.18320878745E+03  0.18321318920E+03  0.12700000000E+01 0. -1.
         25    2    1    2    0    0  0.00000000000E+00  0.00000000000E+00 -0.16191150371E+03  0.20454830567E+03  0.12499869727E+03 0.  0.
    9000005    1    3    3    0    0  0.46106571663E+02  0.41329216726E+02 -0.94768439271E+02  0.11320767283E+03  0.10000000000E+01 0.  0.
    9000005    1    3    3    0    0 -0.46106571663E+02 -0.41329216726E+02 -0.67143064436E+02  0.91340632839E+02  0.10000000000E+01 0.  0.
<mgrwt>
<rscale>  0 0.12499870E+03</rscale>
<asrwt>0</asrwt>
<pdfrwt beam="1">  1        4 0.32797541E-02 0.12499870E+03</pdfrwt>
<pdfrwt beam="2">  1       -4 0.28189215E-01 0.12499870E+03</pdfrwt>
<totfact> 0.89376631E+03</totfact>
</mgrwt>
</event>
<event>
 5    1  0.3266101E-002  0.1249986E+03  0.7818608E-02  0.1235072E+00
         -4   -1    0    0    0  501 -0.00000000000E+00  0.00000000000E+00  0.14500963224E+02  0.14556470535E+02  0.12700000000E+01 0.  1.
          4   -1    0    0  501    0  0.00000000000E+00 -0.00000000000E+00 -0.26880093761E+03  0.26880393777E+03  0.12700000000E+01 0.  1.
         25    2    1    2    0    0  0.00000000000E+00  0.00000000000E+00 -0.25429997439E+03  0.28336040831E+03  0.12499857608E+03 0.  0.
    9000005    1    3    3    0    0  0.52792992088E+02  0.11593870924E+02 -0.19824725140E+03  0.20548598625E+03  0.10000000000E+01 0.  0.
    9000005    1    3    3    0    0 -0.52792992088E+02 -0.11593870924E+02 -0.56052722990E+02  0.77874422060E+02  0.10000000000E+01 0.  0.
<mgrwt>
<rscale>  0 0.12499858E+03</rscale>
<asrwt>0</asrwt>
<pdfrwt beam="2">  1        4 0.41358487E-01 0.12499858E+03</pdfrwt>
<pdfrwt beam="1">  1       -4 0.22354182E-02 0.12499858E+03</pdfrwt>
<totfact> 0.77737101E+03</totfact>
</mgrwt>
</event>
<event>
 5    1  0.3266101E-002  0.1250355E+03  0.7818608E-02  0.1235014E+00
         -4   -1    0    0    0  501 -0.00000000000E+00  0.00000000000E+00  0.14298893861E+02  0.14355182536E+02  0.12700000000E+01 0. -1.
          4   -1    0    0  501    0  0.00000000000E+00 -0.00000000000E+00 -0.27274606345E+03  0.27274902021E+03  0.12700000000E+01 0. -1.
         25    2    1    2    0    0  0.00000000000E+00  0.00000000000E+00 -0.25844716959E+03  0.28710420275E+03  0.12503553002E+03 0.  0.
    9000005    1    3    3    0    0  0.43655188794E+02  0.33953989770E+02 -0.19612178397E+03  0.20377292037E+03  0.10000000000E+01 0.  0.
    9000005    1    3    3    0    0 -0.43655188794E+02 -0.33953989770E+02 -0.62325385617E+02  0.83331282375E+02  0.10000000000E+01 0.  0.
<mgrwt>
<rscale>  0 0.12503553E+03</rscale>
<asrwt>0</asrwt>
<pdfrwt beam="2">  1        4 0.41965486E-01 0.12503553E+03</pdfrwt>
<pdfrwt beam="1">  1       -4 0.22043874E-02 0.12503553E+03</pdfrwt>
<totfact> 0.77184528E+03</totfact>
</mgrwt>
</event>
<event>
 5    1  0.3266101E-002  0.1249961E+03  0.7818608E-02  0.1235075E+00
         -4   -1    0    0    0  501 -0.00000000000E+00  0.00000000000E+00  0.20254720077E+03  0.20255118228E+03  0.12700000000E+01 0.  1.
          4   -1    0    0  501    0  0.00000000000E+00 -0.00000000000E+00 -0.19259343036E+02  0.19301170798E+02  0.12700000000E+01 0.  1.
         25    2    1    2    0    0  0.00000000000E+00  0.00000000000E+00  0.18328785774E+03  0.22185235307E+03  0.12499611102E+03 0.  0.
    9000005    1    3    3    0    0 -0.91568390282E+01  0.60923046783E+02  0.11022013846E+03  0.12627329192E+03  0.10000000000E+01 0.  0.
    9000005    1    3    3    0    0  0.91568390282E+01 -0.60923046783E+02  0.73067719277E+02  0.95579061152E+02  0.10000000000E+01 0.  0.
<mgrwt>
<rscale>  0 0.12499611E+03</rscale>
<asrwt>0</asrwt>
<pdfrwt beam="2">  1        4 0.29664997E-02 0.12499611E+03</pdfrwt>
<pdfrwt beam="1">  1       -4 0.31164631E-01 0.12499611E+03</pdfrwt>
<totfact> 0.86583605E+03</totfact>
</mgrwt>
</event>
<event>
 5    1  0.3266101E-002  0.1249889E+03  0.7818608E-02  0.1235087E+00
          4   -1    0    0  501    0  0.00000000000E+00  0.00000000000E+00  0.17712839407E+03  0.17713294693E+03  0.12700000000E+01 0.  1.
         -4   -1    0    0    0  501 -0.00000000000E+00 -0.00000000000E+00 -0.22026164955E+02  0.22062747849E+02  0.12700000000E+01 0.  1.
         25    2    1    2    0    0  0.00000000000E+00  0.00000000000E+00  0.15510222912E+03  0.19919569477E+03  0.12498889286E+03 0.  0.
    9000005    1    3    3    0    0  0.23876272883E+02 -0.56930483936E+02  0.92953239159E+02  0.11159059583E+03  0.10000000000E+01 0.  0.
    9000005    1    3    3    0    0 -0.23876272883E+02  0.56930483936E+02  0.62148989958E+02  0.87605098942E+02  0.10000000000E+01 0.  0.
<mgrwt>
<rscale>  0 0.12498889E+03</rscale>
<asrwt>0</asrwt>
<pdfrwt beam="1">  1        4 0.27253686E-01 0.12498889E+03</pdfrwt>
<pdfrwt beam="2">  1       -4 0.33918051E-02 0.12498889E+03</pdfrwt>
<totfact> 0.90293779E+03</totfact>
</mgrwt>
</event>
<event>
 5    1  0.3266101E-002  0.1250083E+03  0.7818608E-02  0.1235056E+00
         -4   -1    0    0    0  501 -0.00000000000E+00  0.00000000000E+00  0.72166633562E+02  0.72177807529E+02  0.12700000000E+01 0. -1.
          4   -1    0    0  501    0  0.00000000000E+00 -0.00000000000E+00 -0.54112576938E+02  0.54127478076E+02  0.12700000000E+01 0. -1.
         25    2    1    2    0    0  0.00000000000E+00  0.00000000000E+00  0.18054056624E+02  0.12630528560E+03  0.12500830457E+03 0.  0.
    9000005    1    3    3    0    0 -0.18007051842E+02  0.28940981680E+02  0.61953086185E+02  0.70717884757E+02  0.10000000000E+01 0.  0.
    9000005    1    3    3    0    0  0.18007051842E+02 -0.28940981680E+02 -0.43899029561E+02  0.55587400848E+02  0.10000000000E+01 0.  0.
<mgrwt>
<rscale>  0 0.12500830E+03</rscale>
<asrwt>0</asrwt>
<pdfrwt beam="2">  1        4 0.83270176E-02 0.12500830E+03</pdfrwt>
<pdfrwt beam="1">  1       -4 0.11104565E-01 0.12500830E+03</pdfrwt>
<totfact> 0.10422324E+04</totfact>
</mgrwt>
</event>
<event>
 5    1  0.3266101E-002  0.1249948E+03  0.7818608E-02  0.1235077E+00
         -4   -1    0    0    0  501 -0.00000000000E+00  0.00000000000E+00  0.90092145471E+03  0.90092234985E+03  0.12700000000E+01 0.  1.
          4   -1    0    0  501    0  0.00000000000E+00 -0.00000000000E+00 -0.42415545315E+01  0.44276048654E+01  0.12700000000E+01 0.  1.
         25    2    1    2    0    0  0.00000000000E+00  0.00000000000E+00  0.89667990018E+03  0.90534995471E+03  0.12499478836E+03 0.  0.
    9000005    1    3    3    0    0 -0.10126472321E+00 -0.45844401556E+02  0.14076772496E+03  0.14804820768E+03  0.10000000000E+01 0.  0.
    9000005    1    3    3    0    0  0.10126472321E+00  0.45844401556E+02  0.75591217522E+03  0.75730174703E+03  0.10000000000E+01 0.  0.
<mgrwt>
<rscale>  0 0.12499479E+03</rscale>
<asrwt>0</asrwt>
<pdfrwt beam="2">  1        4 0.66692673E-03 0.12499479E+03</pdfrwt>
<pdfrwt beam="1">  1       -4 0.13861779E+00 0.12499479E+03</pdfrwt>
<totfact> 0.33959723E+03</totfact>
</mgrwt>
</event>
<event>
 5    1  0.3266101E-002  0.1250007E+03  0.7818608E-02  0.1235068E+00
          4   -1    0    0  501    0  0.00000000000E+00  0.00000000000E+00  0.28564637833E+03  0.28564920156E+03  0.12700000000E+01 0. -1.
         -4   -1    0    0    0  501 -0.00000000000E+00 -0.00000000000E+00 -0.13642895585E+02  0.13701879431E+02  0.12700000000E+01 0. -1.
         25    2    1    2    0    0  0.00000000000E+00  0.00000000000E+00  0.27200348275E+03  0.29935108099E+03  0.12500070026E+03 0.  0.
    9000005    1    3    3    0    0 -0.12061529405E+02 -0.57305540093E+02  0.18824387687E+03  0.19714502934E+03  0.10000000000E+01 0.  0.
    9000005    1    3    3    0    0  0.12061529405E+02  0.57305540093E+02  0.83759605878E+02  0.10220605165E+03  0.10000000000E+01 0.  0.
<mgrwt>
<rscale>  0 0.12500070E+03</rscale>
<asrwt>0</asrwt>
<pdfrwt beam="1">  1        4 0.43950352E-01 0.12500070E+03</pdfrwt>
<pdfrwt beam="2">  1       -4 0.21036614E-02 0.12500070E+03</pdfrwt>
<totfact> 0.75679131E+03</totfact>
</mgrwt>
</event>
<event>
 5    1  0.3266101E-002  0.1250040E+03  0.7818608E-02  0.1235063E+00
         -4   -1    0    0    0  501 -0.00000000000E+00  0.00000000000E+00  0.40017530259E+02  0.40037677606E+02  0.12700000000E+01 0. -1.
          4   -1    0    0  501    0  0.00000000000E+00 -0.00000000000E+00 -0.97570919077E+02  0.97579183997E+02  0.12700000000E+01 0. -1.
         25    2    1    2    0    0  0.00000000000E+00  0.00000000000E+00 -0.57553388817E+02  0.13761686160E+03  0.12500403207E+03 0.  0.
    9000005    1    3    3    0    0 -0.51554363904E+02 -0.14088540351E+02  0.68822947956E+01  0.53895318799E+02  0.10000000000E+01 0.  0.
    9000005    1    3    3    0    0  0.51554363904E+02  0.14088540351E+02 -0.64435683613E+02  0.83721542804E+02  0.10000000000E+01 0.  0.
<mgrwt>
<rscale>  0 0.12500403E+03</rscale>
<asrwt>0</asrwt>
<pdfrwt beam="2">  1        4 0.15013096E-01 0.12500403E+03</pdfrwt>
<pdfrwt beam="1">  1       -4 0.61587287E-02 0.12500403E+03</pdfrwt>
<totfact> 0.10182278E+04</totfact>
</mgrwt>
</event>
<event>
 5    1  0.3266101E-002  0.1250016E+03  0.7818608E-02  0.1235067E+00
          4   -1    0    0  501    0  0.00000000000E+00  0.00000000000E+00  0.65633325882E+02  0.65645611935E+02  0.12700000000E+01 0. -1.
         -4   -1    0    0    0  501 -0.00000000000E+00 -0.00000000000E+00 -0.59493138115E+02  0.59506691916E+02  0.12700000000E+01 0. -1.
         25    2    1    2    0    0  0.00000000000E+00  0.00000000000E+00  0.61401877667E+01  0.12515230385E+03  0.12500158900E+03 0.  0.
    9000005    1    3    3    0    0  0.71520609416E+01  0.62062851362E+02  0.15190913727E+01  0.62500057068E+02  0.10000000000E+01 0.  0.
    9000005    1    3    3    0    0 -0.71520609416E+01 -0.62062851362E+02  0.46210963941E+01  0.62652246782E+02  0.10000000000E+01 0.  0.
<mgrwt>
<rscale>  0 0.12500159E+03</rscale>
<asrwt>0</asrwt>
<pdfrwt beam="1">  1        4 0.10099422E-01 0.12500159E+03</pdfrwt>
<pdfrwt beam="2">  1       -4 0.91547781E-02 0.12500159E+03</pdfrwt>
<totfact> 0.10449180E+04</totfact>
</mgrwt>
</event>
<event>
 5    1  0.3266101E-002  0.1250011E+03  0.7818608E-02  0.1235068E+00
         -4   -1    0    0    0  501 -0.00000000000E+00  0.00000000000E+00  0.19034636579E+02  0.19076957034E+02  0.12700000000E+01 0.  1.
          4   -1    0    0  501    0  0.00000000000E+00 -0.00000000000E+00 -0.20494944601E+03  0.20495338084E+03  0.12700000000E+01 0.  1.
         25    2    1    2    0    0  0.00000000000E+00  0.00000000000E+00 -0.18591480943E+03  0.22403033788E+03  0.12500110369E+03 0.  0.
    9000005    1    3    3    0    0 -0.31769604974E+02 -0.67969322371E+01  0.27181876396E+01  0.32617397690E+02  0.10000000000E+01 0.  0.
    9000005    1    3    3    0    0  0.31769604974E+02  0.67969322371E+01 -0.18863299707E+03  0.19141294019E+03  0.10000000000E+01 0.  0.
<mgrwt>
<rscale>  0 0.12500110E+03</rscale>
<asrwt>0</asrwt>
<pdfrwt beam="2">  1        4 0.31534241E-01 0.12500110E+03</pdfrwt>
<pdfrwt beam="1">  1       -4 0.29319639E-02 0.12500110E+03</pdfrwt>
<totfact> 0.86232467E+03</totfact>
</mgrwt>
</event>
<event>
 5    1  0.3266101E-002  0.1250014E+03  0.7818608E-02  0.1235067E+00
          4   -1    0    0  501    0  0.00000000000E+00  0.00000000000E+00  0.89637595201E+02  0.89646591532E+02  0.12700000000E+01 0. -1.
         -4   -1    0    0    0  501 -0.00000000000E+00 -0.00000000000E+00 -0.43558765305E+02  0.43577275441E+02  0.12700000000E+01 0. -1.
         25    2    1    2    0    0  0.00000000000E+00  0.00000000000E+00  0.46078829896E+02  0.13322386697E+03  0.12500136066E+03 0.  0.
    9000005    1    3    3    0    0  0.16329888401E+02  0.49765063109E+02 -0.13292692744E+02  0.54045558946E+02  0.10000000000E+01 0.  0.
    9000005    1    3    3    0    0 -0.16329888401E+02 -0.49765063109E+02  0.59371522640E+02  0.79178308027E+02  0.10000000000E+01 0.  0.
<mgrwt>
<rscale>  0 0.12500136E+03</rscale>
<asrwt>0</asrwt>
<pdfrwt beam="1">  1        4 0.13792515E-01 0.12500136E+03</pdfrwt>
<pdfrwt beam="2">  1       -4 0.67034644E-02 0.12500136E+03</pdfrwt>
<totfact> 0.10275329E+04</totfact>
</mgrwt>
</event>
<event>
 5    1  0.3266101E-002  0.1250072E+03  0.7818608E-02  0.1235058E+00
          4   -1    0    0  501    0  0.00000000000E+00  0.00000000000E+00  0.54423485165E+02  0.54438301200E+02  0.12700000000E+01 0.  1.
         -4   -1    0    0    0  501 -0.00000000000E+00 -0.00000000000E+00 -0.71753122028E+02  0.71764360380E+02  0.12700000000E+01 0.  1.
         25    2    1    2    0    0  0.00000000000E+00  0.00000000000E+00 -0.17329636862E+02  0.12620266158E+03  0.12500718170E+03 0.  0.
    9000005    1    3    3    0    0 -0.54519233691E+02 -0.52435034924E+01  0.21720482348E+02  0.58928944710E+02  0.10000000000E+01 0.  0.
    9000005    1    3    3    0    0  0.54519233691E+02  0.52435034924E+01 -0.39050119211E+02  0.67273716870E+02  0.10000000000E+01 0.  0.
<mgrwt>
<rscale>  0 0.12500718E+03</rscale>
<asrwt>0</asrwt>
<pdfrwt beam="1">  1        4 0.83748480E-02 0.12500718E+03</pdfrwt>
<pdfrwt beam="2">  1       -4 0.11040946E-01 0.12500718E+03</pdfrwt>
<totfact> 0.10424831E+04</totfact>
</mgrwt>
</event>
<event>
 5    1  0.3266101E-002  0.1250011E+03  0.7818608E-02  0.1235068E+00
         -4   -1    0    0    0  501 -0.00000000000E+00  0.00000000000E+00  0.32641831653E+03  0.32642078713E+03  0.12700000000E+01 0.  1.
          4   -1    0    0  501    0  0.00000000000E+00 -0.00000000000E+00 -0.11930993868E+02  0.11998396338E+02  0.12700000000E+01 0.  1.
         25    2    1    2    0    0  0.00000000000E+00  0.00000000000E+00  0.31448732266E+03  0.33841918346E+03  0.12500107047E+03 0.  0.
    9000005    1    3    3    0    0  0.38356978144E+02 -0.28605428326E+01  0.29058830595E+03  0.29312455379E+03  0.10000000000E+01 0.  0.
    9000005    1    3    3    0    0 -0.38356978144E+02  0.28605428326E+01  0.23899016713E+02  0.45294629676E+02  0.10000000000E+01 0.  0.
<mgrwt>
<rscale>  0 0.12500107E+03</rscale>
<asrwt>0</asrwt>
<pdfrwt beam="2">  1        4 0.18409125E-02 0.12500107E+03</pdfrwt>
<pdfrwt beam="1">  1       -4 0.50223575E-01 0.12500107E+03</pdfrwt>
<totfact> 0.71015980E+03</totfact>
</mgrwt>
</event>
<event>
 5    1  0.3266101E-002  0.1250003E+03  0.7818608E-02  0.1235069E+00
          4   -1    0    0  501    0  0.00000000000E+00  0.00000000000E+00  0.20727116459E+03  0.20727505535E+03  0.12700000000E+01 0.  1.
         -4   -1    0    0    0  501 -0.00000000000E+00 -0.00000000000E+00 -0.18820716124E+02  0.18863516518E+02  0.12700000000E+01 0.  1.
         25    2    1    2    0    0  0.00000000000E+00  0.00000000000E+00  0.18845044847E+03  0.22613857187E+03  0.12500032864E+03 0.  0.
    9000005    1    3    3    0    0  0.11670192199E+02  0.38968651672E+02  0.18004849429E+03  0.18458929952E+03  0.10000000000E+01 0.  0.
    9000005    1    3    3    0    0 -0.11670192199E+02 -0.38968651672E+02  0.84019541747E+01  0.41549272353E+02  0.10000000000E+01 0.  0.
<mgrwt>
<rscale>  0 0.12500033E+03</rscale>
<asrwt>0</asrwt>
<pdfrwt beam="1">  1        4 0.31891465E-01 0.12500033E+03</pdfrwt>
<pdfrwt beam="2">  1       -4 0.28990863E-02 0.12500033E+03</pdfrwt>
<totfact> 0.85905439E+03</totfact>
</mgrwt>
</event>
<event>
 5    1  0.3266101E-002  0.1250009E+03  0.7818608E-02  0.1235068E+00
         -4   -1    0    0    0  501 -0.00000000000E+00  0.00000000000E+00  0.25426214028E+03  0.25426531199E+03  0.12700000000E+01 0. -1.
          4   -1    0    0  501    0  0.00000000000E+00 -0.00000000000E+00 -0.15333772336E+02  0.15386275509E+02  0.12700000000E+01 0. -1.
         25    2    1    2    0    0  0.00000000000E+00  0.00000000000E+00  0.23892836795E+03  0.26965158750E+03  0.12500085452E+03 0.  0.
    9000005    1    3    3    0    0 -0.90586807683E+01  0.21888356128E+02 -0.52834901290E+01  0.24291461446E+02  0.10000000000E+01 0.  0.
    9000005    1    3    3    0    0  0.90586807683E+01 -0.21888356128E+02  0.24421185808E+03  0.24536012605E+03  0.10000000000E+01 0.  0.
<mgrwt>
<rscale>  0 0.12500085E+03</rscale>
<asrwt>0</asrwt>
<pdfrwt beam="2">  1        4 0.23633246E-02 0.12500085E+03</pdfrwt>
<pdfrwt beam="1">  1       -4 0.39121534E-01 0.12500085E+03</pdfrwt>
<totfact> 0.79568878E+03</totfact>
</mgrwt>
</event>
<event>
 5    1  0.3266101E-002  0.1249974E+03  0.7818608E-02  0.1235073E+00
         -4   -1    0    0    0  501 -0.00000000000E+00  0.00000000000E+00  0.84550934867E+02  0.84560472367E+02  0.12700000000E+01 0.  1.
          4   -1    0    0  501    0  0.00000000000E+00 -0.00000000000E+00 -0.46177184301E+02  0.46194645252E+02  0.12700000000E+01 0.  1.
         25    2    1    2    0    0  0.00000000000E+00  0.00000000000E+00  0.38373750566E+02  0.13075511762E+03  0.12499742418E+03 0.  0.
    9000005    1    3    3    0    0  0.40448143622E+02 -0.27996329735E+02  0.59500910788E+02  0.77208841370E+02  0.10000000000E+01 0.  0.
    9000005    1    3    3    0    0 -0.40448143622E+02  0.27996329735E+02 -0.21127160222E+02  0.53546276248E+02  0.10000000000E+01 0.  0.
<mgrwt>
<rscale>  0 0.12499742E+03</rscale>
<asrwt>0</asrwt>
<pdfrwt beam="2">  1        4 0.71062591E-02 0.12499742E+03</pdfrwt>
<pdfrwt beam="1">  1       -4 0.13009913E-01 0.12499742E+03</pdfrwt>
<totfact> 0.10328942E+04</totfact>
</mgrwt>
</event>
<event>
 5    1  0.3266101E-002  0.1250012E+03  0.7818608E-02  0.1235067E+00
         -4   -1    0    0    0  501 -0.00000000000E+00  0.00000000000E+00  0.16481414782E+02  0.16530273234E+02  0.12700000000E+01 0. -1.
          4   -1    0    0  501    0  0.00000000000E+00 -0.00000000000E+00 -0.23661260206E+03  0.23661601035E+03  0.12700000000E+01 0. -1.
         25    2    1    2    0    0  0.00000000000E+00  0.00000000000E+00 -0.22013118727E+03  0.25314628358E+03  0.12500120511E+03 0.  0.
    9000005    1    3    3    0    0 -0.38676472631E+01  0.57969168647E+02 -0.15668551875E+03  0.16711294084E+03  0.10000000000E+01 0.  0.
    9000005    1    3    3    0    0  0.38676472631E+01 -0.57969168647E+02 -0.63445668522E+02  0.86033342741E+02  0.10000000000E+01 0.  0.
<mgrwt>
<rscale>  0 0.12500121E+03</rscale>
<asrwt>0</asrwt>
<pdfrwt beam="2">  1        4 0.36405957E-01 0.12500121E+03</pdfrwt>
<pdfrwt beam="1">  1       -4 0.25396230E-02 0.12500121E+03</pdfrwt>
<totfact> 0.81875412E+03</totfact>
</mgrwt>
</event>
<event>
 5    1  0.3266101E-002  0.1250029E+03  0.7818608E-02  0.1235065E+00
          4   -1    0    0  501    0  0.00000000000E+00  0.00000000000E+00  0.67617949412E+02  0.67629874927E+02  0.12700000000E+01 0. -1.
         -4   -1    0    0    0  501 -0.00000000000E+00 -0.00000000000E+00 -0.57748116043E+02  0.57762079312E+02  0.12700000000E+01 0. -1.
         25    2    1    2    0    0  0.00000000000E+00  0.00000000000E+00  0.98698333694E+01  0.12539195424E+03  0.12500291428E+03 0.  0.
    9000005    1    3    3    0    0  0.51119621802E+00  0.58071026415E+02  0.28091969069E+02  0.64518711678E+02  0.10000000000E+01 0.  0.
    9000005    1    3    3    0    0 -0.51119621802E+00 -0.58071026415E+02 -0.18222135699E+02  0.60873242561E+02  0.10000000000E+01 0.  0.
<mgrwt>
<rscale>  0 0.12500291E+03</rscale>
<asrwt>0</asrwt>
<pdfrwt beam="1">  1        4 0.10404753E-01 0.12500291E+03</pdfrwt>
<pdfrwt beam="2">  1       -4 0.88863170E-02 0.12500291E+03</pdfrwt>
<totfact> 0.10443659E+04</totfact>
</mgrwt>
</event>
<event>
 5    1  0.3266101E-002  0.1249952E+03  0.7818608E-02  0.1235077E+00
          4   -1    0    0  501    0  0.00000000000E+00  0.00000000000E+00  0.88419387535E+02  0.88428507802E+02  0.12700000000E+01 0. -1.
         -4   -1    0    0    0  501 -0.00000000000E+00 -0.00000000000E+00 -0.44154760532E+02  0.44173020924E+02  0.12700000000E+01 0. -1.
         25    2    1    2    0    0  0.00000000000E+00  0.00000000000E+00  0.44264627003E+02  0.13260152873E+03  0.12499523278E+03 0.  0.
    9000005    1    3    3    0    0  0.53022109972E+02  0.20756959607E+02 -0.51783399240E+01  0.57184007575E+02  0.10000000000E+01 0.  0.
    9000005    1    3    3    0    0 -0.53022109972E+02 -0.20756959607E+02  0.49442966927E+02  0.75417521151E+02  0.10000000000E+01 0.  0.
<mgrwt>
<rscale>  0 0.12499523E+03</rscale>
<asrwt>0</asrwt>
<pdfrwt beam="1">  1        4 0.13605089E-01 0.12499523E+03</pdfrwt>
<pdfrwt beam="2">  1       -4 0.67951464E-02 0.12499523E+03</pdfrwt>
<totfact> 0.10289982E+04</totfact>
</mgrwt>
</event>
<event>
 5    1  0.3266101E-002  0.1249979E+03  0.7818608E-02  0.1235073E+00
         -4   -1    0    0    0  501 -0.00000000000E+00  0.00000000000E+00  0.16411064564E+03  0.16411555963E+03  0.12700000000E+01 0. -1.
          4   -1    0    0  501    0  0.00000000000E+00 -0.00000000000E+00 -0.23779527097E+02  0.23813416575E+02  0.12700000000E+01 0. -1.
         25    2    1    2    0    0  0.00000000000E+00  0.00000000000E+00  0.14033111854E+03  0.18792897620E+03  0.12499790904E+03 0.  0.
    9000005    1    3    3    0    0 -0.33741476854E+02 -0.38886326007E+01 -0.86980400163E+01  0.35075128281E+02  0.10000000000E+01 0.  0.
    9000005    1    3    3    0    0  0.33741476854E+02  0.38886326007E+01  0.14902915856E+03  0.15285384792E+03  0.10000000000E+01 0.  0.
<mgrwt>
<rscale>  0 0.12499791E+03</rscale>
<asrwt>0</asrwt>
<pdfrwt beam="2">  1        4 0.36613736E-02 0.12499791E+03</pdfrwt>
<pdfrwt beam="1">  1       -4 0.25250777E-01 0.12499791E+03</pdfrwt>
<totfact> 0.92213238E+03</totfact>
</mgrwt>
</event>
<event>
 5    1  0.3266101E-002  0.1250524E+03  0.7818608E-02  0.1234987E+00
         -4   -1    0    0    0  501 -0.00000000000E+00  0.00000000000E+00  0.15311290770E+04  0.15311296037E+04  0.12700000000E+01 0. -1.
          4   -1    0    0  501    0  0.00000000000E+00 -0.00000000000E+00 -0.23948821252E+01  0.27107859365E+01  0.12700000000E+01 0. -1.
         25    2    1    2    0    0  0.00000000000E+00  0.00000000000E+00  0.15287341949E+04  0.15338403896E+04  0.12505239825E+03 0.  0.
    9000005    1    3    3    0    0  0.14975447132E+02 -0.45524126726E+02  0.27193562578E+03  0.27612804040E+03  0.10000000000E+01 0.  0.
    9000005    1    3    3    0    0 -0.14975447132E+02  0.45524126726E+02  0.12567985691E+04  0.12577123492E+04  0.10000000000E+01 0.  0.
<mgrwt>
<rscale>  0 0.12505240E+03</rscale>
<asrwt>0</asrwt>
<pdfrwt beam="2">  1        4 0.39278243E-03 0.12505240E+03</pdfrwt>
<pdfrwt beam="1">  1       -4 0.23558373E+00 0.12505240E+03</pdfrwt>
<totfact> 0.17254789E+03</totfact>
</mgrwt>
</event>
<event>
 5    1  0.3266101E-002  0.1250253E+03  0.7818608E-02  0.1235030E+00
         -4   -1    0    0    0  501 -0.00000000000E+00  0.00000000000E+00  0.72366308612E+02  0.72377451752E+02  0.12700000000E+01 0. -1.
          4   -1    0    0  501    0  0.00000000000E+00 -0.00000000000E+00 -0.53977933046E+02  0.53992871343E+02  0.12700000000E+01 0. -1.
         25    2    1    2    0    0  0.00000000000E+00  0.00000000000E+00  0.18388375566E+02  0.12637032310E+03  0.12502530225E+03 0.  0.
    9000005    1    3    3    0    0 -0.63293565741E+01  0.15834310288E+02  0.69974667125E+02  0.72029439649E+02  0.10000000000E+01 0.  0.
    9000005    1    3    3    0    0  0.63293565741E+01 -0.15834310288E+02 -0.51586291559E+02  0.54340883446E+02  0.10000000000E+01 0.  0.
<mgrwt>
<rscale>  0 0.12502530E+03</rscale>
<asrwt>0</asrwt>
<pdfrwt beam="2">  1        4 0.83063036E-02 0.12502530E+03</pdfrwt>
<pdfrwt beam="1">  1       -4 0.11135285E-01 0.12502530E+03</pdfrwt>
<totfact> 0.10416907E+04</totfact>
</mgrwt>
</event>
<event>
 5    1  0.3266101E-002  0.1249959E+03  0.7818608E-02  0.1235076E+00
         -4   -1    0    0    0  501 -0.00000000000E+00  0.00000000000E+00  0.78801674131E+02  0.78811907386E+02  0.12700000000E+01 0. -1.
          4   -1    0    0  501    0  0.00000000000E+00 -0.00000000000E+00 -0.49545844022E+02  0.49562118193E+02  0.12700000000E+01 0. -1.
         25    2    1    2    0    0  0.00000000000E+00  0.00000000000E+00  0.29255830109E+02  0.12837402558E+03  0.12499594733E+03 0.  0.
    9000005    1    3    3    0    0  0.73544861269E+01 -0.59102022734E+02 -0.48004964543E+01  0.59759370174E+02  0.10000000000E+01 0.  0.
    9000005    1    3    3    0    0 -0.73544861269E+01  0.59102022734E+02  0.34056326563E+02  0.68614655405E+02  0.10000000000E+01 0.  0.
<mgrwt>
<rscale>  0 0.12499595E+03</rscale>
<asrwt>0</asrwt>
<pdfrwt beam="2">  1        4 0.76244766E-02 0.12499595E+03</pdfrwt>
<pdfrwt beam="1">  1       -4 0.12125373E-01 0.12499595E+03</pdfrwt>
<totfact> 0.10380368E+04</totfact>
</mgrwt>
</event>
<event>
 5    1  0.3266101E-002  0.1249954E+03  0.7818608E-02  0.1235076E+00
         -4   -1    0    0    0  501 -0.00000000000E+00  0.00000000000E+00  0.14101484720E+03  0.14102056598E+03  0.12700000000E+01 0.  1.
          4   -1    0    0  501    0  0.00000000000E+00 -0.00000000000E+00 -0.27678109096E+02  0.27707230521E+02  0.12700000000E+01 0.  1.
         25    2    1    2    0    0  0.00000000000E+00  0.00000000000E+00  0.11333673810E+03  0.16872779650E+03  0.12499541235E+03 0.  0.
    9000005    1    3    3    0    0  0.34034963255E+02  0.19560679446E+02 -0.89632359374E+01  0.40278263401E+02  0.10000000000E+01 0.  0.
    9000005    1    3    3    0    0 -0.34034963255E+02 -0.19560679446E+02  0.12229997404E+03  0.12844953310E+03  0.10000000000E+01 0.  0.
<mgrwt>
<rscale>  0 0.12499541E+03</rscale>
<asrwt>0</asrwt>
<pdfrwt beam="2">  1        4 0.42608506E-02 0.12499541E+03</pdfrwt>
<pdfrwt beam="1">  1       -4 0.21697272E-01 0.12499541E+03</pdfrwt>
<totfact> 0.95695885E+03</totfact>
</mgrwt>
</event>
<event>
 5    1  0.3266101E-002  0.1250173E+03  0.7818608E-02  0.1235042E+00
         -4   -1    0    0    0  501 -0.00000000000E+00  0.00000000000E+00  0.85097103342E+02  0.85106579635E+02  0.12700000000E+01 0. -1.
          4   -1    0    0  501    0  0.00000000000E+00 -0.00000000000E+00 -0.45895310232E+02  0.45912878382E+02  0.12700000000E+01 0. -1.
         25    2    1    2    0    0  0.00000000000E+00  0.00000000000E+00  0.39201793110E+02  0.13101945802E+03  0.12501726999E+03 0.  0.
    9000005    1    3    3    0    0  0.28155872203E+01  0.26532437620E+02  0.78833741078E+02  0.83232544775E+02  0.10000000000E+01 0.  0.
    9000005    1    3    3    0    0 -0.28155872203E+01 -0.26532437620E+02 -0.39631947968E+02  0.47786913242E+02  0.10000000000E+01 0.  0.
<mgrwt>
<rscale>  0 0.12501727E+03</rscale>
<asrwt>0</asrwt>
<pdfrwt beam="2">  1        4 0.70628973E-02 0.12501727E+03</pdfrwt>
<pdfrwt beam="1">  1       -4 0.13093942E-01 0.12501727E+03</pdfrwt>
<totfact> 0.10318651E+04</totfact>
</mgrwt>
</event>
<event>
 5    1  0.3266101E-002  0.1249971E+03  0.7818608E-02  0.1235074E+00
          4   -1    0    0  501    0  0.00000000000E+00  0.00000000000E+00  0.63161654693E+02  0.63174421435E+02  0.12700000000E+01 0.  1.
         -4   -1    0    0    0  501 -0.00000000000E+00 -0.00000000000E+00 -0.61816887364E+02  0.61829931776E+02  0.12700000000E+01 0.  1.
         25    2    1    2    0    0  0.00000000000E+00  0.00000000000E+00  0.13447673290E+01  0.12500435321E+03  0.12499711966E+03 0.  0.
    9000005    1    3    3    0    0  0.61235157786E+02  0.11196847787E+02 -0.48011433885E+01  0.62443293693E+02  0.10000000000E+01 0.  0.
    9000005    1    3    3    0    0 -0.61235157786E+02 -0.11196847787E+02  0.61459107175E+01  0.62561059517E+02  0.10000000000E+01 0.  0.
<mgrwt>
<rscale>  0 0.12499712E+03</rscale>
<asrwt>0</asrwt>
<pdfrwt beam="1">  1        4 0.97191631E-02 0.12499712E+03</pdfrwt>
<pdfrwt beam="2">  1       -4 0.95122758E-02 0.12499712E+03</pdfrwt>
<totfact> 0.10453448E+04</totfact>
</mgrwt>
</event>
<event>
 5    1  0.3266101E-002  0.1250003E+03  0.7818608E-02  0.1235069E+00
          4   -1    0    0  501    0  0.00000000000E+00  0.00000000000E+00  0.11115209982E+03  0.11115935496E+03  0.12700000000E+01 0. -1.
         -4   -1    0    0    0  501 -0.00000000000E+00 -0.00000000000E+00 -0.35123594857E+02  0.35146547707E+02  0.12700000000E+01 0. -1.
         25    2    1    2    0    0  0.00000000000E+00  0.00000000000E+00  0.76028504965E+02  0.14630590267E+03  0.12500033435E+03 0.  0.
    9000005    1    3    3    0    0 -0.30494103960E+00 -0.41830870702E+02 -0.16324566645E+02  0.44915545291E+02  0.10000000000E+01 0.  0.
    9000005    1    3    3    0    0  0.30494103960E+00  0.41830870702E+02  0.92353071610E+02  0.10139035737E+03  0.10000000000E+01 0.  0.
<mgrwt>
<rscale>  0 0.12500033E+03</rscale>
<asrwt>0</asrwt>
<pdfrwt beam="1">  1        4 0.17102647E-01 0.12500033E+03</pdfrwt>
<pdfrwt beam="2">  1       -4 0.54059537E-02 0.12500033E+03</pdfrwt>
<totfact> 0.10004447E+04</totfact>
</mgrwt>
</event>
<event>
 5    1  0.3266101E-002  0.1249896E+03  0.7818608E-02  0.1235086E+00
         -4   -1    0    0    0  501 -0.00000000000E+00  0.00000000000E+00  0.29392270638E+02  0.29419695330E+02  0.12700000000E+01 0. -1.
          4   -1    0    0  501    0  0.00000000000E+00 -0.00000000000E+00 -0.13278594211E+03  0.13279201528E+03  0.12700000000E+01 0. -1.
         25    2    1    2    0    0  0.00000000000E+00  0.00000000000E+00 -0.10339367147E+03  0.16221171061E+03  0.12498955060E+03 0.  0.
    9000005    1    3    3    0    0  0.23109503566E+02 -0.53294575733E+02 -0.21812535188E+02  0.62057615560E+02  0.10000000000E+01 0.  0.
    9000005    1    3    3    0    0 -0.23109503566E+02  0.53294575733E+02 -0.81581136282E+02  0.10015409505E+03  0.10000000000E+01 0.  0.
<mgrwt>
<rscale>  0 0.12498955E+03</rscale>
<asrwt>0</asrwt>
<pdfrwt beam="2">  1        4 0.20431183E-01 0.12498955E+03</pdfrwt>
<pdfrwt beam="1">  1       -4 0.45244646E-02 0.12498955E+03</pdfrwt>
<totfact> 0.96940833E+03</totfact>
</mgrwt>
</event>
<event>
 5    1  0.3266101E-002  0.1249872E+03  0.7818608E-02  0.1235089E+00
          4   -1    0    0  501    0  0.00000000000E+00  0.00000000000E+00  0.43503745892E+02  0.43522279428E+02  0.12700000000E+01 0.  1.
         -4   -1    0    0    0  501 -0.00000000000E+00 -0.00000000000E+00 -0.89730548195E+02  0.89739535208E+02  0.12700000000E+01 0.  1.
         25    2    1    2    0    0  0.00000000000E+00  0.00000000000E+00 -0.46226802303E+02  0.13326181464E+03  0.12498717530E+03 0.  0.
    9000005    1    3    3    0    0 -0.27878016122E+02  0.52772487793E+02 -0.42840456895E+02  0.73473968163E+02  0.10000000000E+01 0.  0.
    9000005    1    3    3    0    0  0.27878016122E+02 -0.52772487793E+02 -0.33863454083E+01  0.59787846473E+02  0.10000000000E+01 0.  0.
<mgrwt>
<rscale>  0 0.12498718E+03</rscale>
<asrwt>0</asrwt>
<pdfrwt beam="1">  1        4 0.66950010E-02 0.12498718E+03</pdfrwt>
<pdfrwt beam="2">  1       -4 0.13806817E-01 0.12498718E+03</pdfrwt>
<totfact> 0.10277812E+04</totfact>
</mgrwt>
</event>
<event>
 5    1  0.3266101E-002  0.1249965E+03  0.7818608E-02  0.1235075E+00
         -4   -1    0    0    0  501 -0.00000000000E+00  0.00000000000E+00  0.10298362281E+02  0.10376375363E+02  0.12700000000E+01 0. -1.
          4   -1    0    0  501    0  0.00000000000E+00 -0.00000000000E+00 -0.37777653569E+03  0.37777867041E+03  0.12700000000E+01 0. -1.
         25    2    1    2    0    0  0.00000000000E+00  0.00000000000E+00 -0.36747817341E+03  0.38815504577E+03  0.12499652646E+03 0.  0.
    9000005    1    3    3    0    0 -0.48953705173E+02 -0.37991499406E+02 -0.15866203486E+03  0.17033631610E+03  0.10000000000E+01 0.  0.
    9000005    1    3    3    0    0  0.48953705173E+02  0.37991499406E+02 -0.20881613855E+03  0.21781872967E+03  0.10000000000E+01 0.  0.
<mgrwt>
<rscale>  0 0.12499653E+03</rscale>
<asrwt>0</asrwt>
<pdfrwt beam="2">  1        4 0.58125622E-01 0.12499653E+03</pdfrwt>
<pdfrwt beam="1">  1       -4 0.15905289E-02 0.12499653E+03</pdfrwt>
<totfact> 0.65726400E+03</totfact>
</mgrwt>
</event>
<event>
 5    1  0.3266101E-002  0.1249986E+03  0.7818608E-02  0.1235071E+00
         -4   -1    0    0    0  501 -0.00000000000E+00  0.00000000000E+00  0.16741294867E+03  0.16741776573E+03  0.12700000000E+01 0.  1.
          4   -1    0    0  501    0  0.00000000000E+00 -0.00000000000E+00 -0.23310078111E+02  0.23344649098E+02  0.12700000000E+01 0.  1.
         25    2    1    2    0    0  0.00000000000E+00  0.00000000000E+00  0.14410287056E+03  0.19076241483E+03  0.12499864643E+03 0.  0.
    9000005    1    3    3    0    0 -0.51055234672E+02  0.29407461999E+02  0.10383459196E+03  0.11939036099E+03  0.10000000000E+01 0.  0.
    9000005    1    3    3    0    0  0.51055234672E+02 -0.29407461999E+02  0.40268278597E+02  0.71372053843E+02  0.10000000000E+01 0.  0.
<mgrwt>
<rscale>  0 0.12499865E+03</rscale>
<asrwt>0</asrwt>
<pdfrwt beam="2">  1        4 0.35891957E-02 0.12499865E+03</pdfrwt>
<pdfrwt beam="1">  1       -4 0.25758868E-01 0.12499865E+03</pdfrwt>
<totfact> 0.91717606E+03</totfact>
</mgrwt>
</event>
<event>
 5    1  0.3266101E-002  0.1249847E+03  0.7818608E-02  0.1235093E+00
          4   -1    0    0  501    0  0.00000000000E+00  0.00000000000E+00  0.53510222712E+02  0.53525291543E+02  0.12700000000E+01 0.  1.
         -4   -1    0    0    0  501 -0.00000000000E+00 -0.00000000000E+00 -0.72951328464E+02  0.72962382257E+02  0.12700000000E+01 0.  1.
         25    2    1    2    0    0  0.00000000000E+00  0.00000000000E+00 -0.19441105751E+02  0.12648767380E+03  0.12498469919E+03 0.  0.
    9000005    1    3    3    0    0  0.65485331645E+01 -0.47471356537E+02  0.30860029771E+02  0.57006617296E+02  0.10000000000E+01 0.  0.
    9000005    1    3    3    0    0 -0.65485331645E+01  0.47471356537E+02 -0.50301135523E+02  0.69481056504E+02  0.10000000000E+01 0.  0.
<mgrwt>
<rscale>  0 0.12498470E+03</rscale>
<asrwt>0</asrwt>
<pdfrwt beam="1">  1        4 0.82343514E-02 0.12498470E+03</pdfrwt>
<pdfrwt beam="2">  1       -4 0.11225291E-01 0.12498470E+03</pdfrwt>
<totfact> 0.10423896E+04</totfact>
</mgrwt>
</event>
<event>
 5    1  0.3266101E-002  0.1249923E+03  0.7818608E-02  0.1235081E+00
         -4   -1    0    0    0  501 -0.00000000000E+00  0.00000000000E+00  0.37502629776E+02  0.37524127440E+02  0.12700000000E+01 0. -1.
          4   -1    0    0  501    0  0.00000000000E+00 -0.00000000000E+00 -0.10409129897E+03  0.10409904621E+03  0.12700000000E+01 0. -1.
         25    2    1    2    0    0  0.00000000000E+00  0.00000000000E+00 -0.66588669196E+02  0.14162317365E+03  0.12499228956E+03 0.  0.
    9000005    1    3    3    0    0 -0.43760928696E+02  0.14443695402E+02 -0.81113145624E+02  0.93295131761E+02  0.10000000000E+01 0.  0.
    9000005    1    3    3    0    0  0.43760928696E+02 -0.14443695402E+02  0.14524476429E+02  0.48328041888E+02  0.10000000000E+01 0.  0.
<mgrwt>
<rscale>  0 0.12499229E+03</rscale>
<asrwt>0</asrwt>
<pdfrwt beam="2">  1        4 0.16016296E-01 0.12499229E+03</pdfrwt>
<pdfrwt beam="1">  1       -4 0.57718850E-02 0.12499229E+03</pdfrwt>
<totfact> 0.10101809E+04</totfact>
</mgrwt>
</event>
<event>
 5    1  0.3266101E-002  0.1250016E+03  0.7818608E-02  0.1235067E+00
         -4   -1    0    0    0  501 -0.00000000000E+00  0.00000000000E+00  0.18705022086E+02  0.18748086602E+02  0.12700000000E+01 0. -1.
          4   -1    0    0  501    0  0.00000000000E+00 -0.00000000000E+00 -0.20855455708E+03  0.20855842389E+03  0.12700000000E+01 0. -1.
         25    2    1    2    0    0  0.00000000000E+00  0.00000000000E+00 -0.18984953499E+03  0.22730651050E+03  0.12500161510E+03 0.  0.
    9000005    1    3    3    0    0  0.30716950179E+02 -0.15538826566E+02 -0.18976875894E+03  0.19286826600E+03  0.10000000000E+01 0.  0.
    9000005    1    3    3    0    0 -0.30716950179E+02  0.15538826566E+02 -0.80776049431E-01  0.34438244498E+02  0.10000000000E+01 0.  0.
<mgrwt>
<rscale>  0 0.12500162E+03</rscale>
<asrwt>0</asrwt>
<pdfrwt beam="2">  1        4 0.32088925E-01 0.12500162E+03</pdfrwt>
<pdfrwt beam="1">  1       -4 0.28813059E-02 0.12500162E+03</pdfrwt>
<totfact> 0.85721819E+03</totfact>
</mgrwt>
</event>
<event>
 5    1  0.3266101E-002  0.1249990E+03  0.7818608E-02  0.1235071E+00
         -4   -1    0    0    0  501 -0.00000000000E+00  0.00000000000E+00  0.22600376592E+03  0.22600733420E+03  0.12700000000E+01 0. -1.
          4   -1    0    0  501    0  0.00000000000E+00 -0.00000000000E+00 -0.17256675460E+02  0.17303344992E+02  0.12700000000E+01 0. -1.
         25    2    1    2    0    0  0.00000000000E+00  0.00000000000E+00  0.20874709046E+03  0.24331067919E+03  0.12499895532E+03 0.  0.
    9000005    1    3    3    0    0  0.29403698828E+02  0.36315786414E+02  0.23604962113E+02  0.52360367492E+02  0.10000000000E+01 0.  0.
    9000005    1    3    3    0    0 -0.29403698828E+02 -0.36315786414E+02  0.18514212835E+03  0.19095031170E+03  0.10000000000E+01 0.  0.
<mgrwt>
<rscale>  0 0.12499896E+03</rscale>
<asrwt>0</asrwt>
<pdfrwt beam="2">  1        4 0.26587377E-02 0.12499896E+03</pdfrwt>
<pdfrwt beam="1">  1       -4 0.34773673E-01 0.12499896E+03</pdfrwt>
<totfact> 0.83308699E+03</totfact>
</mgrwt>
</event>
<event>
 5    1  0.3266101E-002  0.1249987E+03  0.7818608E-02  0.1235071E+00
         -4   -1    0    0    0  501 -0.00000000000E+00  0.00000000000E+00  0.20228200726E+02  0.20268029125E+02  0.12700000000E+01 0. -1.
          4   -1    0    0  501    0  0.00000000000E+00 -0.00000000000E+00 -0.19287327758E+03  0.19287745877E+03  0.12700000000E+01 0. -1.
         25    2    1    2    0    0  0.00000000000E+00  0.00000000000E+00 -0.17264507685E+03  0.21314548790E+03  0.12499870580E+03 0.  0.
    9000005    1    3    3    0    0  0.13748221936E+02 -0.27519995596E+02 -0.17907572193E+03  0.18170161791E+03  0.10000000000E+01 0.  0.
    9000005    1    3    3    0    0 -0.13748221936E+02  0.27519995596E+02  0.64306450814E+01  0.31443869993E+02  0.10000000000E+01 0.  0.
<mgrwt>
<rscale>  0 0.12499871E+03</rscale>
<asrwt>0</asrwt>
<pdfrwt beam="2">  1        4 0.29676196E-01 0.12499871E+03</pdfrwt>
<pdfrwt beam="1">  1       -4 0.31154164E-02 0.12499871E+03</pdfrwt>
<totfact> 0.87967289E+03</totfact>
</mgrwt>
</event>
<event>
 5    1  0.3266101E-002  0.1250009E+03  0.7818608E-02  0.1235068E+00
          4   -1    0    0  501    0  0.00000000000E+00  0.00000000000E+00  0.17201760325E+02  0.17248578442E+02  0.12700000000E+01 0. -1.
         -4   -1    0    0    0  501 -0.00000000000E+00 -0.00000000000E+00 -0.22673043000E+03  0.22673398684E+03  0.12700000000E+01 0. -1.
         25    2    1    2    0    0  0.00000000000E+00  0.00000000000E+00 -0.20952866967E+03  0.24398256528E+03  0.12500091498E+03 0.  0.
    9000005    1    3    3    0    0 -0.48671614872E+01 -0.21561915525E+02  0.93260735568E+01  0.24012103407E+02  0.10000000000E+01 0.  0.
    9000005    1    3    3    0    0  0.48671614872E+01  0.21561915525E+02 -0.21885474323E+03  0.21997046187E+03  0.10000000000E+01 0.  0.
<mgrwt>
<rscale>  0 0.12500091E+03</rscale>
<asrwt>0</asrwt>
<pdfrwt beam="1">  1        4 0.26502998E-02 0.12500091E+03</pdfrwt>
<pdfrwt beam="2">  1       -4 0.34885478E-01 0.12500091E+03</pdfrwt>
<totfact> 0.83206092E+03</totfact>
</mgrwt>
</event>
<event>
 5    1  0.3266101E-002  0.1249836E+03  0.7818608E-02  0.1235095E+00
          4   -1    0    0  501    0  0.00000000000E+00  0.00000000000E+00  0.19513235930E+02  0.19554520614E+02  0.12700000000E+01 0.  1.
         -4   -1    0    0    0  501 -0.00000000000E+00 -0.00000000000E+00 -0.19987741997E+03  0.19988145465E+03  0.12700000000E+01 0.  1.
         25    2    1    2    0    0  0.00000000000E+00  0.00000000000E+00 -0.18036418404E+03  0.21943597527E+03  0.12498363235E+03 0.  0.
    9000005    1    3    3    0    0 -0.23917309007E+02 -0.16451921991E+02  0.69635892982E+01  0.29869633129E+02  0.10000000000E+01 0.  0.
    9000005    1    3    3    0    0  0.23917309007E+02  0.16451921991E+02 -0.18732777334E+03  0.18956634214E+03  0.10000000000E+01 0.  0.
<mgrwt>
<rscale>  0 0.12498363E+03</rscale>
<asrwt>0</asrwt>
<pdfrwt beam="1">  1        4 0.30055225E-02 0.12498363E+03</pdfrwt>
<pdfrwt beam="2">  1       -4 0.30753857E-01 0.12498363E+03</pdfrwt>
<totfact> 0.86989479E+03</totfact>
</mgrwt>
</event>
<event>
 5    1  0.3266101E-002  0.1249964E+03  0.7818608E-02  0.1235075E+00
         -4   -1    0    0    0  501 -0.00000000000E+00  0.00000000000E+00  0.27451163495E+02  0.27480525418E+02  0.12700000000E+01 0.  1.
          4   -1    0    0  501    0  0.00000000000E+00 -0.00000000000E+00 -0.14218181467E+03  0.14218748652E+03  0.12700000000E+01 0.  1.
         25    2    1    2    0    0  0.00000000000E+00  0.00000000000E+00 -0.11473065117E+03  0.16966801193E+03  0.12499644777E+03 0.  0.
    9000005    1    3    3    0    0 -0.53900231661E+02 -0.14322144484E+02 -0.95629776749E+02  0.11070868528E+03  0.10000000000E+01 0.  0.
    9000005    1    3    3    0    0  0.53900231661E+02  0.14322144484E+02 -0.19100874423E+02  0.58959326653E+02  0.10000000000E+01 0.  0.
<mgrwt>
<rscale>  0 0.12499645E+03</rscale>
<asrwt>0</asrwt>
<pdfrwt beam="2">  1        4 0.21876820E-01 0.12499645E+03</pdfrwt>
<pdfrwt beam="1">  1       -4 0.42259509E-02 0.12499645E+03</pdfrwt>
<totfact> 0.95518167E+03</totfact>
</mgrwt>
</event>
<event>
 5    1  0.3266101E-002  0.1249940E+03  0.7818608E-02  0.1235079E+00
         -4   -1    0    0    0  501 -0.00000000000E+00  0.00000000000E+00  0.56864436670E+03  0.56864578490E+03  0.12700000000E+01 0.  1.
          4   -1    0    0  501    0  0.00000000000E+00 -0.00000000000E+00 -0.68086026926E+01  0.69260357078E+01  0.12700000000E+01 0.  1.
         25    2    1    2    0    0  0.00000000000E+00  0.00000000000E+00  0.56183576401E+03  0.57557182060E+03  0.12499397968E+03 0.  0.
    9000005    1    3    3    0    0  0.39304954353E+01  0.57559534661E+02  0.17037160409E+03  0.17987782605E+03  0.10000000000E+01 0.  0.
    9000005    1    3    3    0    0 -0.39304954353E+01 -0.57559534661E+02  0.39146415992E+03  0.39569399455E+03  0.10000000000E+01 0.  0.
<mgrwt>
<rscale>  0 0.12499398E+03</rscale>
<asrwt>0</asrwt>
<pdfrwt beam="2">  1        4 0.10566199E-02 0.12499398E+03</pdfrwt>
<pdfrwt beam="1">  1       -4 0.87492881E-01 0.12499398E+03</pdfrwt>
<totfact> 0.50453476E+03</totfact>
</mgrwt>
</event>
<event>
 5    1  0.3266101E-002  0.1250054E+03  0.7818608E-02  0.1235061E+00
          4   -1    0    0  501    0  0.00000000000E+00  0.00000000000E+00  0.66740397920E+02  0.66752480213E+02  0.12700000000E+01 0.  1.
         -4   -1    0    0    0  501 -0.00000000000E+00 -0.00000000000E+00 -0.58509839034E+02  0.58523620563E+02  0.12700000000E+01 0.  1.
         25    2    1    2    0    0  0.00000000000E+00  0.00000000000E+00  0.82305588862E+01  0.12527610078E+03  0.12500543719E+03 0.  0.
    9000005    1    3    3    0    0 -0.58568550034E+02  0.21795983381E+02  0.46162486756E+01  0.62670963743E+02  0.10000000000E+01 0.  0.
    9000005    1    3    3    0    0  0.58568550034E+02 -0.21795983381E+02  0.36143102106E+01  0.62605137033E+02  0.10000000000E+01 0.  0.
<mgrwt>
<rscale>  0 0.12500544E+03</rscale>
<asrwt>0</asrwt>
<pdfrwt beam="1">  1        4 0.10269743E-01 0.12500544E+03</pdfrwt>
<pdfrwt beam="2">  1       -4 0.90035033E-02 0.12500544E+03</pdfrwt>
<totfact> 0.10445585E+04</totfact>
</mgrwt>
</event>
<event>
 5    1  0.3266101E-002  0.1249994E+03  0.7818608E-02  0.1235070E+00
         -4   -1    0    0    0  501 -0.00000000000E+00  0.00000000000E+00  0.82910766611E+02  0.82920492762E+02  0.12700000000E+01 0. -1.
          4   -1    0    0  501    0  0.00000000000E+00 -0.00000000000E+00 -0.47092407088E+02  0.47109528817E+02  0.12700000000E+01 0. -1.
         25    2    1    2    0    0  0.00000000000E+00  0.00000000000E+00  0.35818359523E+02  0.13003002158E+03  0.12499940653E+03 0.  0.
    9000005    1    3    3    0    0  0.15200970847E+01  0.18218075960E+02  0.80072019686E+02  0.82138525208E+02  0.10000000000E+01 0.  0.
    9000005    1    3    3    0    0 -0.15200970847E+01 -0.18218075960E+02 -0.44253660163E+02  0.47891496371E+02  0.10000000000E+01 0.  0.
<mgrwt>
<rscale>  0 0.12499941E+03</rscale>
<asrwt>0</asrwt>
<pdfrwt beam="2">  1        4 0.72470510E-02 0.12499941E+03</pdfrwt>
<pdfrwt beam="1">  1       -4 0.12757568E-01 0.12499941E+03</pdfrwt>
<totfact> 0.10344004E+04</totfact>
</mgrwt>
</event>
<event>
 5    1  0.3266101E-002  0.1249634E+03  0.7818608E-02  0.1235126E+00
         -4   -1    0    0    0  501 -0.00000000000E+00  0.00000000000E+00  0.97177167903E+03  0.97177250891E+03  0.12700000000E+01 0.  1.
          4   -1    0    0  501    0  0.00000000000E+00 -0.00000000000E+00 -0.39161457905E+01  0.41169282059E+01  0.12700000000E+01 0.  1.
         25    2    1    2    0    0  0.00000000000E+00  0.00000000000E+00  0.96785553324E+03  0.97588943712E+03  0.12496343563E+03 0.  0.
    9000005    1    3    3    0    0 -0.88201990062E+01 -0.73082570972E+01  0.43162521884E+01  0.12281553862E+02  0.10000000000E+01 0.  0.
    9000005    1    3    3    0    0  0.88201990062E+01  0.73082570972E+01  0.96353928106E+03  0.96360788325E+03  0.10000000000E+01 0.  0.
<mgrwt>
<rscale>  0 0.12496344E+03</rscale>
<asrwt>0</asrwt>
<pdfrwt beam="2">  1        4 0.61799303E-03 0.12496344E+03</pdfrwt>
<pdfrwt beam="1">  1       -4 0.14951874E+00 0.12496344E+03</pdfrwt>
<totfact> 0.31439352E+03</totfact>
</mgrwt>
</event>
<event>
 5    1  0.3266101E-002  0.1250038E+03  0.7818608E-02  0.1235063E+00
         -4   -1    0    0    0  501 -0.00000000000E+00  0.00000000000E+00  0.83313443939E+03  0.83313540736E+03  0.12700000000E+01 0. -1.
          4   -1    0    0  501    0  0.00000000000E+00 -0.00000000000E+00 -0.46019168272E+01  0.47739437035E+01  0.12700000000E+01 0. -1.
         25    2    1    2    0    0  0.00000000000E+00  0.00000000000E+00  0.82853252256E+03  0.83790935106E+03  0.12500375857E+03 0.  0.
    9000005    1    3    3    0    0 -0.24775824936E+01 -0.53949027773E+02  0.20348163437E+03  0.21052888528E+03  0.10000000000E+01 0.  0.
    9000005    1    3    3    0    0  0.24775824936E+01  0.53949027773E+02  0.62505088820E+03  0.62738046578E+03  0.10000000000E+01 0.  0.
<mgrwt>
<rscale>  0 0.12500376E+03</rscale>
<asrwt>0</asrwt>
<pdfrwt beam="2">  1        4 0.72129490E-03 0.12500376E+03</pdfrwt>
<pdfrwt beam="1">  1       -4 0.12818777E+00 0.12500376E+03</pdfrwt>
<totfact> 0.36624269E+03</totfact>
</mgrwt>
</event>
<event>
 5    1  0.3266101E-002  0.1250085E+03  0.7818608E-02  0.1235056E+00
         -4   -1    0    0    0  501 -0.00000000000E+00  0.00000000000E+00  0.17630116815E+02  0.17675800375E+02  0.12700000000E+01 0. -1.
          4   -1    0    0  501    0  0.00000000000E+00 -0.00000000000E+00 -0.22126259911E+03  0.22126624385E+03  0.12700000000E+01 0. -1.
         25    2    1    2    0    0  0.00000000000E+00  0.00000000000E+00 -0.20363248230E+03  0.23894204422E+03  0.12500845032E+03 0.  0.
    9000005    1    3    3    0    0  0.19406098471E+02 -0.53153803184E+02 -0.51106112235E+02  0.76254561559E+02  0.10000000000E+01 0.  0.
    9000005    1    3    3    0    0 -0.19406098471E+02  0.53153803184E+02 -0.15252637006E+03  0.16268748267E+03  0.10000000000E+01 0.  0.
<mgrwt>
<rscale>  0 0.12500845E+03</rscale>
<asrwt>0</asrwt>
<pdfrwt beam="2">  1        4 0.34044192E-01 0.12500845E+03</pdfrwt>
<pdfrwt beam="1">  1       -4 0.27161203E-02 0.12500845E+03</pdfrwt>
<totfact> 0.83939369E+03</totfact>
</mgrwt>
</event>
<event>
 5    1  0.3266101E-002  0.1249946E+03  0.7818608E-02  0.1235078E+00
         -4   -1    0    0    0  501 -0.00000000000E+00  0.00000000000E+00  0.20553955329E+01  0.24161023978E+01  0.12700000000E+01 0.  1.
          4   -1    0    0  501    0  0.00000000000E+00 -0.00000000000E+00 -0.17466656176E+04  0.17466660793E+04  0.12700000000E+01 0.  1.
         25    2    1    2    0    0  0.00000000000E+00  0.00000000000E+00 -0.17446102221E+04  0.17490821817E+04  0.12499460557E+03 0.  0.
    9000005    1    3    3    0    0  0.28764246985E+02 -0.95446779599E+01 -0.16370122072E+04  0.16372930249E+04  0.10000000000E+01 0.  0.
    9000005    1    3    3    0    0 -0.28764246985E+02  0.95446779599E+01 -0.10759801490E+03  0.11178915686E+03  0.10000000000E+01 0.  0.
<mgrwt>
<rscale>  0 0.12499461E+03</rscale>
<asrwt>0</asrwt>
<pdfrwt beam="2">  1        4 0.26874448E+00 0.12499461E+03</pdfrwt>
<pdfrwt beam="1">  1       -4 0.34399829E-03 0.12499461E+03</pdfrwt>
<totfact> 0.13506219E+03</totfact>
</mgrwt>
</event>
<event>
 5    1  0.3266101E-002  0.1249996E+03  0.7818608E-02  0.1235070E+00
          4   -1    0    0  501    0  0.00000000000E+00  0.00000000000E+00  0.72942793856E+02  0.72953848943E+02  0.12700000000E+01 0.  1.
         -4   -1    0    0    0  501 -0.00000000000E+00 -0.00000000000E+00 -0.53529242997E+02  0.53544306474E+02  0.12700000000E+01 0.  1.
         25    2    1    2    0    0  0.00000000000E+00  0.00000000000E+00  0.19413550860E+02  0.12649815542E+03  0.12499958947E+03 0.  0.
    9000005    1    3    3    0    0 -0.44513325796E+02  0.41068861765E+01  0.53898610014E+02  0.70031156273E+02  0.10000000000E+01 0.  0.
    9000005    1    3    3    0    0  0.44513325796E+02 -0.41068861765E+01 -0.34485059154E+02  0.56466999144E+02  0.10000000000E+01 0.  0.
<mgrwt>
<rscale>  0 0.12499959E+03</rscale>
<asrwt>0</asrwt>
<pdfrwt beam="1">  1        4 0.11223977E-01 0.12499959E+03</pdfrwt>
<pdfrwt beam="2">  1       -4 0.82372773E-02 0.12499959E+03</pdfrwt>
<totfact> 0.10420165E+04</totfact>
</mgrwt>
</event>
<event>
 5    1  0.3266101E-002  0.1249933E+03  0.7818608E-02  0.1235080E+00
          4   -1    0    0  501    0  0.00000000000E+00  0.00000000000E+00  0.35342699285E+03  0.35342927465E+03  0.12700000000E+01 0. -1.
         -4   -1    0    0    0  501 -0.00000000000E+00 -0.00000000000E+00 -0.11012496591E+02  0.11085485157E+02  0.12700000000E+01 0. -1.
         25    2    1    2    0    0  0.00000000000E+00  0.00000000000E+00  0.34241449626E+03  0.36451475980E+03  0.12499329128E+03 0.  0.
    9000005    1    3    3    0    0  0.20646785883E+02  0.37529586001E+01  0.34285809685E+03  0.34350116309E+03  0.10000000000E+01 0.  0.
    9000005    1    3    3    0    0 -0.20646785883E+02 -0.37529586001E+01 -0.44360058834E+00  0.21013596718E+02  0.10000000000E+01 0.  0.
<mgrwt>
<rscale>  0 0.12499329E+03</rscale>
<asrwt>0</asrwt>
<pdfrwt beam="1">  1        4 0.54379176E-01 0.12499329E+03</pdfrwt>
<pdfrwt beam="2">  1       -4 0.17000202E-02 0.12499329E+03</pdfrwt>
<totfact> 0.68166836E+03</totfact>
</mgrwt>
</event>
<event>
 5    1  0.3266101E-002  0.1249968E+03  0.7818608E-02  0.1235074E+00
          4   -1    0    0  501    0  0.00000000000E+00  0.00000000000E+00  0.24872318284E+03  0.24872642518E+03  0.12700000000E+01 0.  1.
         -4   -1    0    0    0  501 -0.00000000000E+00 -0.00000000000E+00 -0.15675372084E+02  0.15726734879E+02  0.12700000000E+01 0.  1.
         25    2    1    2    0    0  0.00000000000E+00  0.00000000000E+00  0.23304781076E+03  0.26445316006E+03  0.12499676702E+03 0.  0.
    9000005    1    3    3    0    0  0.15065923112E+02  0.18997183329E+02  0.23837629116E+03  0.23960828700E+03  0.10000000000E+01 0.  0.
    9000005    1    3    3    0    0 -0.15065923112E+02 -0.18997183329E+02 -0.53284804034E+01  0.24844873054E+02  0.10000000000E+01 0.  0.
<mgrwt>
<rscale>  0 0.12499677E+03</rscale>
<asrwt>0</asrwt>
<pdfrwt beam="1">  1        4 0.38269301E-01 0.12499677E+03</pdfrwt>
<pdfrwt beam="2">  1       -4 0.24157964E-02 0.12499677E+03</pdfrwt>
<totfact> 0.80290935E+03</totfact>
</mgrwt>
</event>
<event>
 5    1  0.3266101E-002  0.1249872E+03  0.7818608E-02  0.1235089E+00
          4   -1    0    0  501    0  0.00000000000E+00  0.00000000000E+00  0.79081401348E+02  0.79091598411E+02  0.12700000000E+01 0.  1.
         -4   -1    0    0    0  501 -0.00000000000E+00 -0.00000000000E+00 -0.49363675818E+02  0.49380010027E+02  0.12700000000E+01 0.  1.
         25    2    1    2    0    0  0.00000000000E+00  0.00000000000E+00  0.29717725531E+02  0.12847160844E+03  0.12498724320E+03 0.  0.
    9000005    1    3    3    0    0 -0.55240047214E+02  0.27328005377E+02  0.42677284229E+01  0.61785889975E+02  0.10000000000E+01 0.  0.
    9000005    1    3    3    0    0  0.55240047214E+02 -0.27328005377E+02  0.25449997108E+02  0.66685718463E+02  0.10000000000E+01 0.  0.
<mgrwt>
<rscale>  0 0.12498724E+03</rscale>
<asrwt>0</asrwt>
<pdfrwt beam="1">  1        4 0.12168410E-01 0.12498724E+03</pdfrwt>
<pdfrwt beam="2">  1       -4 0.75964525E-02 0.12498724E+03</pdfrwt>
<totfact> 0.10380304E+04</totfact>
</mgrwt>
</event>
<event>
 5    1  0.3266101E-002  0.1250006E+03  0.7818608E-02  0.1235068E+00
          4   -1    0    0  501    0  0.00000000000E+00  0.00000000000E+00  0.15540446318E+02  0.15592253582E+02  0.12700000000E+01 0.  1.
         -4   -1    0    0    0  501 -0.00000000000E+00 -0.00000000000E+00 -0.25089098967E+03  0.25089420399E+03  0.12700000000E+01 0.  1.
         25    2    1    2    0    0  0.00000000000E+00  0.00000000000E+00 -0.23535054335E+03  0.26648645758E+03  0.12500061526E+03 0.  0.
    9000005    1    3    3    0    0  0.59526868948E+02 -0.50874587036E+01 -0.15675086180E+03  0.16775328026E+03  0.10000000000E+01 0.  0.
    9000005    1    3    3    0    0 -0.59526868948E+02  0.50874587036E+01 -0.78599681555E+02  0.98733177319E+02  0.10000000000E+01 0.  0.
<mgrwt>
<rscale>  0 0.12500062E+03</rscale>
<asrwt>0</asrwt>
<pdfrwt beam="1">  1        4 0.23950705E-02 0.12500062E+03</pdfrwt>
<pdfrwt beam="2">  1       -4 0.38602843E-01 0.12500062E+03</pdfrwt>
<totfact> 0.80003215E+03</totfact>
</mgrwt>
</event>
<event>
 5    1  0.3266101E-002  0.1250014E+03  0.7818608E-02  0.1235067E+00
          4   -1    0    0  501    0  0.00000000000E+00  0.00000000000E+00  0.20547081307E+01  0.24155176469E+01  0.12700000000E+01 0.  1.
         -4   -1    0    0    0  501 -0.00000000000E+00 -0.00000000000E+00 -0.17473521539E+04  0.17473526155E+04  0.12700000000E+01 0.  1.
         25    2    1    2    0    0  0.00000000000E+00  0.00000000000E+00 -0.17452974458E+04  0.17497681331E+04  0.12500138124E+03 0.  0.
    9000005    1    3    3    0    0  0.38380934661E+02 -0.49230345247E+02 -0.91373059335E+03  0.91586097212E+03  0.10000000000E+01 0.  0.
    9000005    1    3    3    0    0 -0.38380934661E+02  0.49230345247E+02 -0.83156685246E+03  0.83390716099E+03  0.10000000000E+01 0.  0.
<mgrwt>
<rscale>  0 0.12500138E+03</rscale>
<asrwt>0</asrwt>
<pdfrwt beam="1">  1        4 0.34390042E-03 0.12500138E+03</pdfrwt>
<pdfrwt beam="2">  1       -4 0.26885011E+00 0.12500138E+03</pdfrwt>
<totfact> 0.13493199E+03</totfact>
</mgrwt>
</event>
<event>
 5    1  0.3266101E-002  0.1250043E+03  0.7818608E-02  0.1235063E+00
         -4   -1    0    0    0  501 -0.00000000000E+00  0.00000000000E+00  0.48131176388E+01  0.49778510831E+01  0.12700000000E+01 0. -1.
          4   -1    0    0  501    0  0.00000000000E+00 -0.00000000000E+00 -0.79781892896E+03  0.79781993978E+03  0.12700000000E+01 0. -1.
         25    2    1    2    0    0  0.00000000000E+00  0.00000000000E+00 -0.79300581133E+03  0.80279779087E+03  0.12500430481E+03 0.  0.
    9000005    1    3    3    0    0 -0.54521590571E+01 -0.53493873541E+02 -0.60102615493E+03  0.60342750969E+03  0.10000000000E+01 0.  0.
    9000005    1    3    3    0    0  0.54521590571E+01  0.53493873541E+02 -0.19197965640E+03  0.19937028117E+03  0.10000000000E+01 0.  0.
<mgrwt>
<rscale>  0 0.12500430E+03</rscale>
<asrwt>0</asrwt>
<pdfrwt beam="2">  1        4 0.12275402E+00 0.12500430E+03</pdfrwt>
<pdfrwt beam="1">  1       -4 0.75322983E-03 0.12500430E+03</pdfrwt>
<totfact> 0.38136570E+03</totfact>
</mgrwt>
</event>
<event>
 5    1  0.3266101E-002  0.1250069E+03  0.7818608E-02  0.1235058E+00
          4   -1    0    0  501    0  0.00000000000E+00  0.00000000000E+00  0.13359608547E+04  0.13359614584E+04  0.12700000000E+01 0.  1.
         -4   -1    0    0    0  501 -0.00000000000E+00 -0.00000000000E+00 -0.27857257549E+01  0.30615629965E+01  0.12700000000E+01 0.  1.
         25    2    1    2    0    0  0.00000000000E+00  0.00000000000E+00  0.13331751290E+04  0.13390230214E+04  0.12500690882E+03 0.  0.
    9000005    1    3    3    0    0  0.25046025486E+02 -0.14055568254E+02  0.12611358751E+04  0.12614632606E+04  0.10000000000E+01 0.  0.
    9000005    1    3    3    0    0 -0.25046025486E+02  0.14055568254E+02  0.72039253861E+02  0.77559760755E+02  0.10000000000E+01 0.  0.
<mgrwt>
<rscale>  0 0.12500691E+03</rscale>
<asrwt>0</asrwt>
<pdfrwt beam="1">  1        4 0.20555331E+00 0.12500691E+03</pdfrwt>
<pdfrwt beam="2">  1       -4 0.44983874E-03 0.12500691E+03</pdfrwt>
<totfact> 0.21322649E+03</totfact>
</mgrwt>
</event>
<event>
 5    1  0.3266101E-002  0.1249996E+03  0.7818608E-02  0.1235070E+00
         -4   -1    0    0    0  501 -0.00000000000E+00  0.00000000000E+00  0.29645527946E+04  0.29645530666E+04  0.12700000000E+01 0.  1.
          4   -1    0    0  501    0  0.00000000000E+00 -0.00000000000E+00 -0.10112896789E+01  0.16234552087E+01  0.12700000000E+01 0.  1.
         25    2    1    2    0    0  0.00000000000E+00  0.00000000000E+00  0.29635415049E+04  0.29661765218E+04  0.12499962929E+03 0.  0.
    9000005    1    3    3    0    0 -0.18151442965E+02  0.41800507520E+02  0.24964578325E+04  0.24968739389E+04  0.10000000000E+01 0.  0.
    9000005    1    3    3    0    0  0.18151442965E+02 -0.41800507520E+02  0.46708367240E+03  0.46930258291E+03  0.10000000000E+01 0.  0.
<mgrwt>
<rscale>  0 0.12499963E+03</rscale>
<asrwt>0</asrwt>
<pdfrwt beam="2">  1        4 0.20269349E-03 0.12499963E+03</pdfrwt>
<pdfrwt beam="1">  1       -4 0.45613242E+00 0.12499963E+03</pdfrwt>
<totfact> 0.19502246E+02</totfact>
</mgrwt>
</event>
<event>
 5    1  0.3266101E-002  0.1250002E+03  0.7818608E-02  0.1235069E+00
         -4   -1    0    0    0  501 -0.00000000000E+00  0.00000000000E+00  0.17355060380E+03  0.17355525051E+03  0.12700000000E+01 0.  1.
          4   -1    0    0  501    0  0.00000000000E+00 -0.00000000000E+00 -0.22485055076E+02  0.22520892562E+02  0.12700000000E+01 0.  1.
         25    2    1    2    0    0  0.00000000000E+00  0.00000000000E+00  0.15106554872E+03  0.19607614307E+03  0.12500021548E+03 0.  0.
    9000005    1    3    3    0    0  0.40416004792E+02  0.64777691177E+01  0.14611829357E+01  0.40970110955E+02  0.10000000000E+01 0.  0.
    9000005    1    3    3    0    0 -0.40416004792E+02 -0.64777691177E+01  0.14960436579E+03  0.15510603212E+03  0.10000000000E+01 0.  0.
<mgrwt>
<rscale>  0 0.12500022E+03</rscale>
<asrwt>0</asrwt>
<pdfrwt beam="2">  1        4 0.34623534E-02 0.12500022E+03</pdfrwt>
<pdfrwt beam="1">  1       -4 0.26703207E-01 0.12500022E+03</pdfrwt>
<totfact> 0.90800264E+03</totfact>
</mgrwt>
</event>
<event>
 5    1  0.3266101E-002  0.1249987E+03  0.7818608E-02  0.1235071E+00
          4   -1    0    0  501    0  0.00000000000E+00  0.00000000000E+00  0.39452849652E+02  0.39473285215E+02  0.12700000000E+01 0. -1.
         -4   -1    0    0    0  501 -0.00000000000E+00 -0.00000000000E+00 -0.98958411831E+02  0.98966560878E+02  0.12700000000E+01 0. -1.
         25    2    1    2    0    0  0.00000000000E+00  0.00000000000E+00 -0.59505562178E+02  0.13843984609E+03  0.12499871622E+03 0.  0.
    9000005    1    3    3    0    0 -0.71087555965E+01  0.33274417242E+02 -0.87805202147E+02  0.94172579730E+02  0.10000000000E+01 0.  0.
    9000005    1    3    3    0    0  0.71087555965E+01 -0.33274417242E+02  0.28299639969E+02  0.44267266363E+02  0.10000000000E+01 0.  0.
<mgrwt>
<rscale>  0 0.12499872E+03</rscale>
<asrwt>0</asrwt>
<pdfrwt beam="1">  1        4 0.60718680E-02 0.12499872E+03</pdfrwt>
<pdfrwt beam="2">  1       -4 0.15226570E-01 0.12499872E+03</pdfrwt>
<totfact> 0.10166318E+04</totfact>
</mgrwt>
</event>
<event>
 5    1  0.3266101E-002  0.1249995E+03  0.7818608E-02  0.1235070E+00
          4   -1    0    0  501    0  0.00000000000E+00  0.00000000000E+00  0.23419422125E+03  0.23419766474E+03  0.12700000000E+01 0.  1.
         -4   -1    0    0    0  501 -0.00000000000E+00 -0.00000000000E+00 -0.16651657348E+02  0.16700017738E+02  0.12700000000E+01 0.  1.
         25    2    1    2    0    0  0.00000000000E+00  0.00000000000E+00  0.21754256391E+03  0.25089768248E+03  0.12499951984E+03 0.  0.
    9000005    1    3    3    0    0  0.18969615183E+02 -0.59542977455E+02  0.10894540813E+03  0.12559981854E+03  0.10000000000E+01 0.  0.
    9000005    1    3    3    0    0 -0.18969615183E+02  0.59542977455E+02  0.10859715578E+03  0.12529786394E+03  0.10000000000E+01 0.  0.
<mgrwt>
<rscale>  0 0.12499952E+03</rscale>
<asrwt>0</asrwt>
<pdfrwt beam="1">  1        4 0.36033863E-01 0.12499952E+03</pdfrwt>
<pdfrwt beam="2">  1       -4 0.25657785E-02 0.12499952E+03</pdfrwt>
<totfact> 0.82201538E+03</totfact>
</mgrwt>
</event>
<event>
 5    1  0.3266101E-002  0.1249975E+03  0.7818608E-02  0.1235073E+00
         -4   -1    0    0    0  501 -0.00000000000E+00  0.00000000000E+00  0.66736240590E+02  0.66748323635E+02  0.12700000000E+01 0. -1.
          4   -1    0    0  501    0  0.00000000000E+00 -0.00000000000E+00 -0.58506045861E+02  0.58519828283E+02  0.12700000000E+01 0. -1.
         25    2    1    2    0    0  0.00000000000E+00  0.00000000000E+00  0.82301947291E+01  0.12526815192E+03  0.12499749509E+03 0.  0.
    9000005    1    3    3    0    0 -0.50062327441E+02  0.33713918794E+02  0.20343631826E+02  0.63700300668E+02  0.10000000000E+01 0.  0.
    9000005    1    3    3    0    0  0.50062327441E+02 -0.33713918794E+02 -0.12113437097E+02  0.61567851251E+02  0.10000000000E+01 0.  0.
<mgrwt>
<rscale>  0 0.12499750E+03</rscale>
<asrwt>0</asrwt>
<pdfrwt beam="2">  1        4 0.90029198E-02 0.12499750E+03</pdfrwt>
<pdfrwt beam="1">  1       -4 0.10269104E-01 0.12499750E+03</pdfrwt>
<totfact> 0.10447633E+04</totfact>
</mgrwt>
</event>
<event>
 5    1  0.3266101E-002  0.1250000E+03  0.7818608E-02  0.1235069E+00
         -4   -1    0    0    0  501 -0.00000000000E+00  0.00000000000E+00  0.16067976203E+03  0.16068478094E+03  0.12700000000E+01 0.  1.
          4   -1    0    0  501    0  0.00000000000E+00 -0.00000000000E+00 -0.24288804582E+02  0.24321984459E+02  0.12700000000E+01 0.  1.
         25    2    1    2    0    0  0.00000000000E+00  0.00000000000E+00  0.13639095745E+03  0.18500676540E+03  0.12500003988E+03 0.  0.
    9000005    1    3    3    0    0  0.38852562733E+02  0.17935791964E+02  0.79145278410E+00  0.42811688378E+02  0.10000000000E+01 0.  0.
    9000005    1    3    3    0    0 -0.38852562733E+02 -0.17935791964E+02  0.13559950466E+03  0.14219507702E+03  0.10000000000E+01 0.  0.
<mgrwt>
<rscale>  0 0.12500004E+03</rscale>
<asrwt>0</asrwt>
<pdfrwt beam="2">  1        4 0.37396777E-02 0.12500004E+03</pdfrwt>
<pdfrwt beam="1">  1       -4 0.24722901E-01 0.12500004E+03</pdfrwt>
<totfact> 0.92723371E+03</totfact>
</mgrwt>
</event>
<event>
 5    1  0.3266101E-002  0.1250053E+03  0.7818608E-02  0.1235061E+00
         -4   -1    0    0    0  501 -0.00000000000E+00  0.00000000000E+00  0.71238096732E+02  0.71249416320E+02  0.12700000000E+01 0.  1.
          4   -1    0    0  501    0  0.00000000000E+00 -0.00000000000E+00 -0.54815325390E+02  0.54830035542E+02  0.12700000000E+01 0.  1.
         25    2    1    2    0    0  0.00000000000E+00  0.00000000000E+00  0.16422771342E+02  0.12607945186E+03  0.12500528294E+03 0.  0.
    9000005    1    3    3    0    0 -0.24109267792E+02 -0.54715165291E+02 -0.10126545848E+02  0.60651076141E+02  0.10000000000E+01 0.  0.
    9000005    1    3    3    0    0  0.24109267792E+02  0.54715165291E+02  0.26549317191E+02  0.65428375722E+02  0.10000000000E+01 0.  0.
<mgrwt>
<rscale>  0 0.12500528E+03</rscale>
<asrwt>0</asrwt>
<pdfrwt beam="2">  1        4 0.84351293E-02 0.12500528E+03</pdfrwt>
<pdfrwt beam="1">  1       -4 0.10961709E-01 0.12500528E+03</pdfrwt>
<totfact> 0.10427973E+04</totfact>
</mgrwt>
</event>
<event>
 5    1  0.3266101E-002  0.1249970E+03  0.7818608E-02  0.1235074E+00
          4   -1    0    0  501    0  0.00000000000E+00  0.00000000000E+00  0.11811637602E+02  0.11879717288E+02  0.12700000000E+01 0. -1.
         -4   -1    0    0    0  501 -0.00000000000E+00 -0.00000000000E+00 -0.32967640582E+03  0.32967885200E+03  0.12700000000E+01 0. -1.
         25    2    1    2    0    0  0.00000000000E+00  0.00000000000E+00 -0.31786476822E+03  0.34155856929E+03  0.12499698148E+03 0.  0.
    9000005    1    3    3    0    0 -0.16683813987E+02 -0.57265975217E+02 -0.10800745682E+03  0.12338700214E+03  0.10000000000E+01 0.  0.
    9000005    1    3    3    0    0  0.16683813987E+02  0.57265975217E+02 -0.20985731140E+03  0.21817156715E+03  0.10000000000E+01 0.  0.
<mgrwt>
<rscale>  0 0.12499698E+03</rscale>
<asrwt>0</asrwt>
<pdfrwt beam="1">  1        4 0.18226003E-02 0.12499698E+03</pdfrwt>
<pdfrwt beam="2">  1       -4 0.50724865E-01 0.12499698E+03</pdfrwt>
<totfact> 0.70668035E+03</totfact>
</mgrwt>
</event>
<event>
 5    1  0.3266101E-002  0.1250032E+03  0.7818608E-02  0.1235064E+00
         -4   -1    0    0    0  501 -0.00000000000E+00  0.00000000000E+00  0.47414043941E+03  0.47414214027E+03  0.12700000000E+01 0. -1.
          4   -1    0    0  501    0  0.00000000000E+00 -0.00000000000E+00 -0.81883413414E+01  0.82862436558E+01  0.12700000000E+01 0. -1.
         25    2    1    2    0    0  0.00000000000E+00  0.00000000000E+00  0.46595209806E+03  0.48242838393E+03  0.12500315167E+03 0.  0.
    9000005    1    3    3    0    0  0.22378313755E+02  0.58330397610E+02  0.23872990703E+03  0.24677153953E+03  0.10000000000E+01 0.  0.
    9000005    1    3    3    0    0 -0.22378313755E+02 -0.58330397610E+02  0.22722219103E+03  0.23565684439E+03  0.10000000000E+01 0.  0.
<mgrwt>
<rscale>  0 0.12500315E+03</rscale>
<asrwt>0</asrwt>
<pdfrwt beam="2">  1        4 0.12674063E-02 0.12500315E+03</pdfrwt>
<pdfrwt beam="1">  1       -4 0.72952364E-01 0.12500315E+03</pdfrwt>
<totfact> 0.57249974E+03</totfact>
</mgrwt>
</event>
<event>
 5    1  0.3266101E-002  0.1249991E+03  0.7818608E-02  0.1235071E+00
         -4   -1    0    0    0  501 -0.00000000000E+00  0.00000000000E+00  0.72307420518E+01  0.73414256531E+01  0.12700000000E+01 0.  1.
          4   -1    0    0  501    0  0.00000000000E+00 -0.00000000000E+00 -0.53600541632E+03  0.53600692088E+03  0.12700000000E+01 0.  1.
         25    2    1    2    0    0  0.00000000000E+00  0.00000000000E+00 -0.52877467427E+03  0.54334834653E+03  0.12499907810E+03 0.  0.
    9000005    1    3    3    0    0  0.56818061205E+01  0.40625777943E+02 -0.46930910278E+03  0.47109953376E+03  0.10000000000E+01 0.  0.
    9000005    1    3    3    0    0 -0.56818061205E+01 -0.40625777943E+02 -0.59465571491E+02  0.72248812772E+02  0.10000000000E+01 0.  0.
<mgrwt>
<rscale>  0 0.12499908E+03</rscale>
<asrwt>0</asrwt>
<pdfrwt beam="2">  1        4 0.82470971E-01 0.12499908E+03</pdfrwt>
<pdfrwt beam="1">  1       -4 0.11210521E-02 0.12499908E+03</pdfrwt>
<totfact> 0.52652320E+03</totfact>
</mgrwt>
</event>
<event>
 5    1  0.3266101E-002  0.1249994E+03  0.7818608E-02  0.1235070E+00
          4   -1    0    0  501    0  0.00000000000E+00  0.00000000000E+00  0.34749350584E+02  0.34772550467E+02  0.12700000000E+01 0.  1.
         -4   -1    0    0    0  501 -0.00000000000E+00 -0.00000000000E+00 -0.11234674353E+03  0.11235392152E+03  0.12700000000E+01 0.  1.
         25    2    1    2    0    0  0.00000000000E+00  0.00000000000E+00 -0.77597392946E+02  0.14712647199E+03  0.12499937347E+03 0.  0.
    9000005    1    3    3    0    0  0.17045295006E+02  0.45616027578E+02  0.72984428950E+01  0.49250698701E+02  0.10000000000E+01 0.  0.
    9000005    1    3    3    0    0 -0.17045295006E+02 -0.45616027578E+02 -0.84895835841E+02  0.97875773289E+02  0.10000000000E+01 0.  0.
<mgrwt>
<rscale>  0 0.12499937E+03</rscale>
<asrwt>0</asrwt>
<pdfrwt beam="1">  1        4 0.53483908E-02 0.12499937E+03</pdfrwt>
<pdfrwt beam="2">  1       -4 0.17286451E-01 0.12499937E+03</pdfrwt>
<totfact> 0.99881017E+03</totfact>
</mgrwt>
</event>
<event>
 5    1  0.3266101E-002  0.1249963E+03  0.7818608E-02  0.1235075E+00
          4   -1    0    0  501    0  0.00000000000E+00  0.00000000000E+00  0.19670120796E+03  0.19670530779E+03  0.12700000000E+01 0.  1.
         -4   -1    0    0    0  501 -0.00000000000E+00 -0.00000000000E+00 -0.19833019790E+02  0.19873640179E+02  0.12700000000E+01 0.  1.
         25    2    1    2    0    0  0.00000000000E+00  0.00000000000E+00  0.17686818817E+03  0.21657894797E+03  0.12499633881E+03 0.  0.
    9000005    1    3    3    0    0 -0.32036874064E+02 -0.10353691734E+02  0.17965057826E+03  0.18278099053E+03  0.10000000000E+01 0.  0.
    9000005    1    3    3    0    0  0.32036874064E+02  0.10353691734E+02 -0.27823900865E+01  0.33797957437E+02  0.10000000000E+01 0.  0.
<mgrwt>
<rscale>  0 0.12499634E+03</rscale>
<asrwt>0</asrwt>
<pdfrwt beam="1">  1        4 0.30265162E-01 0.12499634E+03</pdfrwt>
<pdfrwt beam="2">  1       -4 0.30546740E-02 0.12499634E+03</pdfrwt>
<totfact> 0.87419750E+03</totfact>
</mgrwt>
</event>
<event>
 5    1  0.3266101E-002  0.1249984E+03  0.7818608E-02  0.1235072E+00
         -4   -1    0    0    0  501 -0.00000000000E+00  0.00000000000E+00  0.40697392279E+01  0.42632941938E+01  0.12700000000E+01 0.  1.
          4   -1    0    0  501    0  0.00000000000E+00 -0.00000000000E+00 -0.93731591988E+03  0.93731678027E+03  0.12700000000E+01 0.  1.
         25    2    1    2    0    0  0.00000000000E+00  0.00000000000E+00 -0.93324618066E+03  0.94158007446E+03  0.12499841163E+03 0.  0.
    9000005    1    3    3    0    0  0.41611664343E+02 -0.22539772379E+02 -0.15920079946E+03  0.16608873080E+03  0.10000000000E+01 0.  0.
    9000005    1    3    3    0    0 -0.41611664343E+02  0.22539772379E+02 -0.77404538119E+03  0.77549134366E+03  0.10000000000E+01 0.  0.
<mgrwt>
<rscale>  0 0.12499841E+03</rscale>
<asrwt>0</asrwt>
<pdfrwt beam="2">  1        4 0.14421724E+00 0.12499841E+03</pdfrwt>
<pdfrwt beam="1">  1       -4 0.64106950E-03 0.12499841E+03</pdfrwt>
<totfact> 0.32617980E+03</totfact>
</mgrwt>
</event>
<event>
 5    1  0.3266101E-002  0.1250016E+03  0.7818608E-02  0.1235067E+00
         -4   -1    0    0    0  501 -0.00000000000E+00  0.00000000000E+00  0.40508500185E+02  0.40528403463E+02  0.12700000000E+01 0. -1.
          4   -1    0    0  501    0  0.00000000000E+00 -0.00000000000E+00 -0.96385058169E+02  0.96393424767E+02  0.12700000000E+01 0. -1.
         25    2    1    2    0    0  0.00000000000E+00  0.00000000000E+00 -0.55876557983E+02  0.13692182823E+03  0.12500158924E+03 0.  0.
    9000005    1    3    3    0    0 -0.47959979269E+02  0.34226353799E+02 -0.50750895915E+02  0.77770536465E+02  0.10000000000E+01 0.  0.
    9000005    1    3    3    0    0  0.47959979269E+02 -0.34226353799E+02 -0.51256620685E+01  0.59151291765E+02  0.10000000000E+01 0.  0.
<mgrwt>
<rscale>  0 0.12500159E+03</rscale>
<asrwt>0</asrwt>
<pdfrwt beam="2">  1        4 0.14830645E-01 0.12500159E+03</pdfrwt>
<pdfrwt beam="1">  1       -4 0.62342516E-02 0.12500159E+03</pdfrwt>
<totfact> 0.10197355E+04</totfact>
</mgrwt>
</event>
<event>
 5    1  0.3266101E-002  0.1249980E+03  0.7818608E-02  0.1235072E+00
         -4   -1    0    0    0  501 -0.00000000000E+00  0.00000000000E+00  0.33191586571E+02  0.33215874505E+02  0.12700000000E+01 0.  1.
          4   -1    0    0  501    0  0.00000000000E+00 -0.00000000000E+00 -0.11761335374E+03  0.11762021033E+03  0.12700000000E+01 0.  1.
         25    2    1    2    0    0  0.00000000000E+00  0.00000000000E+00 -0.84421767167E+02  0.15083608483E+03  0.12499795885E+03 0.  0.
    9000005    1    3    3    0    0 -0.31133821635E+02 -0.16630171573E+02 -0.10443826177E+03  0.11024621525E+03  0.10000000000E+01 0.  0.
    9000005    1    3    3    0    0  0.31133821635E+02  0.16630171573E+02  0.20016494604E+02  0.40589869578E+02  0.10000000000E+01 0.  0.
<mgrwt>
<rscale>  0 0.12499796E+03</rscale>
<asrwt>0</asrwt>
<pdfrwt beam="2">  1        4 0.18096758E-01 0.12499796E+03</pdfrwt>
<pdfrwt beam="1">  1       -4 0.51087937E-02 0.12499796E+03</pdfrwt>
<totfact> 0.99141852E+03</totfact>
</mgrwt>
</event>
<event>
 5    1  0.3266101E-002  0.1249982E+03  0.7818608E-02  0.1235072E+00
         -4   -1    0    0    0  501 -0.00000000000E+00  0.00000000000E+00  0.43890508277E+02  0.43908878565E+02  0.12700000000E+01 0.  1.
          4   -1    0    0  501    0  0.00000000000E+00 -0.00000000000E+00 -0.88955841701E+02  0.88964906973E+02  0.12700000000E+01 0.  1.
         25    2    1    2    0    0  0.00000000000E+00  0.00000000000E+00 -0.45065333424E+02  0.13287378554E+03  0.12499823441E+03 0.  0.
    9000005    1    3    3    0    0 -0.45783697906E+02  0.28582770130E+02 -0.56013417312E+02  0.77792188947E+02  0.10000000000E+01 0.  0.
    9000005    1    3    3    0    0  0.45783697906E+02 -0.28582770130E+02  0.10948083888E+02  0.55081596591E+02  0.10000000000E+01 0.  0.
<mgrwt>
<rscale>  0 0.12499823E+03</rscale>
<asrwt>0</asrwt>
<pdfrwt beam="2">  1        4 0.13687624E-01 0.12499823E+03</pdfrwt>
<pdfrwt beam="1">  1       -4 0.67544963E-02 0.12499823E+03</pdfrwt>
<totfact> 0.10283493E+04</totfact>
</mgrwt>
</event>
<event>
 5    1  0.3266101E-002  0.1250008E+03  0.7818608E-02  0.1235068E+00
          4   -1    0    0  501    0  0.00000000000E+00  0.00000000000E+00  0.17195345567E+02  0.17242181103E+02  0.12700000000E+01 0.  1.
         -4   -1    0    0    0  501 -0.00000000000E+00 -0.00000000000E+00 -0.22681431617E+03  0.22681787170E+03  0.12700000000E+01 0.  1.
         25    2    1    2    0    0  0.00000000000E+00  0.00000000000E+00 -0.20961897061E+03  0.24406005280E+03  0.12500078614E+03 0.  0.
    9000005    1    3    3    0    0  0.22188677680E+01  0.42437805206E+02 -0.15348757529E+02  0.45193750038E+02  0.10000000000E+01 0.  0.
    9000005    1    3    3    0    0 -0.22188677680E+01 -0.42437805206E+02 -0.19427021308E+03  0.19886630276E+03  0.10000000000E+01 0.  0.
<mgrwt>
<rscale>  0 0.12500079E+03</rscale>
<asrwt>0</asrwt>
<pdfrwt beam="1">  1        4 0.26493142E-02 0.12500079E+03</pdfrwt>
<pdfrwt beam="2">  1       -4 0.34898384E-01 0.12500079E+03</pdfrwt>
<totfact> 0.83194929E+03</totfact>
</mgrwt>
</event>
<event>
 5    1  0.3266101E-002  0.1250072E+03  0.7818608E-02  0.1235058E+00
          4   -1    0    0  501    0  0.00000000000E+00  0.00000000000E+00  0.18853916769E+02  0.18896641964E+02  0.12700000000E+01 0. -1.
         -4   -1    0    0    0  501 -0.00000000000E+00 -0.00000000000E+00 -0.20692964202E+03  0.20693353920E+03  0.12700000000E+01 0. -1.
         25    2    1    2    0    0  0.00000000000E+00  0.00000000000E+00 -0.18807572525E+03  0.22583018117E+03  0.12500716898E+03 0.  0.
    9000005    1    3    3    0    0 -0.46349674155E+02  0.41241055906E+02 -0.10762671276E+03  0.12423214675E+03  0.10000000000E+01 0.  0.
    9000005    1    3    3    0    0  0.46349674155E+02 -0.41241055906E+02 -0.80449012493E+02  0.10159803442E+03  0.10000000000E+01 0.  0.
<mgrwt>
<rscale>  0 0.12500717E+03</rscale>
<asrwt>0</asrwt>
<pdfrwt beam="1">  1        4 0.29041891E-02 0.12500717E+03</pdfrwt>
<pdfrwt beam="2">  1       -4 0.31838914E-01 0.12500717E+03</pdfrwt>
<totfact> 0.85940265E+03</totfact>
</mgrwt>
</event>
<event>
 5    1  0.3266101E-002  0.1250026E+03  0.7818608E-02  0.1235065E+00
          4   -1    0    0  501    0  0.00000000000E+00  0.00000000000E+00  0.17962734184E+03  0.17963183136E+03  0.12700000000E+01 0.  1.
         -4   -1    0    0    0  501 -0.00000000000E+00 -0.00000000000E+00 -0.21723993759E+02  0.21761084643E+02  0.12700000000E+01 0.  1.
         25    2    1    2    0    0  0.00000000000E+00  0.00000000000E+00  0.15790334808E+03  0.20139291600E+03  0.12500255709E+03 0.  0.
    9000005    1    3    3    0    0 -0.29146770204E+02  0.26046954506E+02  0.39568086105E+00  0.39104150876E+02  0.10000000000E+01 0.  0.
    9000005    1    3    3    0    0  0.29146770204E+02 -0.26046954506E+02  0.15750766722E+03  0.16228876513E+03  0.10000000000E+01 0.  0.
<mgrwt>
<rscale>  0 0.12500256E+03</rscale>
<asrwt>0</asrwt>
<pdfrwt beam="1">  1        4 0.27638173E-01 0.12500256E+03</pdfrwt>
<pdfrwt beam="2">  1       -4 0.33453515E-02 0.12500256E+03</pdfrwt>
<totfact> 0.89895967E+03</totfact>
</mgrwt>
</event>
<event>
 5    1  0.3266101E-002  0.1250000E+03  0.7818608E-02  0.1235069E+00
         -4   -1    0    0    0  501 -0.00000000000E+00  0.00000000000E+00  0.19928980552E+03  0.19929385210E+03  0.12700000000E+01 0.  1.
          4   -1    0    0  501    0  0.00000000000E+00 -0.00000000000E+00 -0.19576018220E+02  0.19617170779E+02  0.12700000000E+01 0.  1.
         25    2    1    2    0    0  0.00000000000E+00  0.00000000000E+00  0.17971378730E+03  0.21891102288E+03  0.12499996237E+03 0.  0.
    9000005    1    3    3    0    0 -0.48742005902E+02 -0.35496086997E+02  0.61107350904E+02  0.85853734141E+02  0.10000000000E+01 0.  0.
    9000005    1    3    3    0    0  0.48742005902E+02  0.35496086997E+02  0.11860643640E+03  0.13305728874E+03  0.10000000000E+01 0.  0.
<mgrwt>
<rscale>  0 0.12499996E+03</rscale>
<asrwt>0</asrwt>
<pdfrwt beam="2">  1        4 0.30151719E-02 0.12499996E+03</pdfrwt>
<pdfrwt beam="1">  1       -4 0.30663447E-01 0.12499996E+03</pdfrwt>
<totfact> 0.87041032E+03</totfact>
</mgrwt>
</event>
<event>
 5    1  0.3266101E-002  0.1249993E+03  0.7818608E-02  0.1235070E+00
         -4   -1    0    0    0  501 -0.00000000000E+00  0.00000000000E+00  0.29577782486E+02  0.29605035328E+02  0.12700000000E+01 0. -1.
          4   -1    0    0  501    0  0.00000000000E+00 -0.00000000000E+00 -0.13197444723E+03  0.13198055774E+03  0.12700000000E+01 0. -1.
         25    2    1    2    0    0  0.00000000000E+00  0.00000000000E+00 -0.10239666474E+03  0.16158559307E+03  0.12499930774E+03 0.  0.
    9000005    1    3    3    0    0 -0.31392792039E+02  0.12640405066E+02  0.16713154065E+02  0.37757340360E+02  0.10000000000E+01 0.  0.
    9000005    1    3    3    0    0  0.31392792039E+02 -0.12640405066E+02 -0.11910981881E+03  0.12382825271E+03  0.10000000000E+01 0.  0.
<mgrwt>
<rscale>  0 0.12499931E+03</rscale>
<asrwt>0</asrwt>
<pdfrwt beam="2">  1        4 0.20306327E-01 0.12499931E+03</pdfrwt>
<pdfrwt beam="1">  1       -4 0.45529946E-02 0.12499931E+03</pdfrwt>
<totfact> 0.97039473E+03</totfact>
</mgrwt>
</event>
<event>
 5    1  0.3266101E-002  0.1250010E+03  0.7818608E-02  0.1235068E+00
         -4   -1    0    0    0  501 -0.00000000000E+00  0.00000000000E+00  0.14469260317E+02  0.14524888782E+02  0.12700000000E+01 0. -1.
          4   -1    0    0  501    0  0.00000000000E+00 -0.00000000000E+00 -0.26939797441E+03  0.26940096792E+03  0.12700000000E+01 0. -1.
         25    2    1    2    0    0  0.00000000000E+00  0.00000000000E+00 -0.25492871410E+03  0.28392585671E+03  0.12500097134E+03 0.  0.
    9000005    1    3    3    0    0 -0.49450044023E+02 -0.37797238507E+02 -0.11474201917E+03  0.13053991365E+03  0.10000000000E+01 0.  0.
    9000005    1    3    3    0    0  0.49450044023E+02  0.37797238507E+02 -0.14018669493E+03  0.15338594306E+03  0.10000000000E+01 0.  0.
<mgrwt>
<rscale>  0 0.12500097E+03</rscale>
<asrwt>0</asrwt>
<pdfrwt beam="2">  1        4 0.41450348E-01 0.12500097E+03</pdfrwt>
<pdfrwt beam="1">  1       -4 0.22305496E-02 0.12500097E+03</pdfrwt>
<totfact> 0.77658754E+03</totfact>
</mgrwt>
</event>
<event>
 5    1  0.3266101E-002  0.1250007E+03  0.7818608E-02  0.1235068E+00
         -4   -1    0    0    0  501 -0.00000000000E+00  0.00000000000E+00  0.91827659400E+02  0.91836441192E+02  0.12700000000E+01 0.  1.
          4   -1    0    0  501    0  0.00000000000E+00 -0.00000000000E+00 -0.42519107752E+02  0.42538070290E+02  0.12700000000E+01 0.  1.
         25    2    1    2    0    0  0.00000000000E+00  0.00000000000E+00  0.49308551648E+02  0.13437451148E+03  0.12500070428E+03 0.  0.
    9000005    1    3    3    0    0  0.44493463667E+02 -0.30625972556E+02 -0.91297641198E+01  0.54790246367E+02  0.10000000000E+01 0.  0.
    9000005    1    3    3    0    0 -0.44493463667E+02  0.30625972556E+02  0.58438315768E+02  0.79584265115E+02  0.10000000000E+01 0.  0.
<mgrwt>
<rscale>  0 0.12500070E+03</rscale>
<asrwt>0</asrwt>
<pdfrwt beam="2">  1        4 0.65435354E-02 0.12500070E+03</pdfrwt>
<pdfrwt beam="1">  1       -4 0.14129466E-01 0.12500070E+03</pdfrwt>
<totfact> 0.10251109E+04</totfact>
</mgrwt>
</event>
<event>
 5    1  0.3266101E-002  0.1249974E+03  0.7818608E-02  0.1235073E+00
          4   -1    0    0  501    0  0.00000000000E+00  0.00000000000E+00  0.15623808319E+02  0.15675340073E+02  0.12700000000E+01 0.  1.
         -4   -1    0    0    0  501 -0.00000000000E+00 -0.00000000000E+00 -0.24954383725E+03  0.24954706892E+03  0.12700000000E+01 0.  1.
         25    2    1    2    0    0  0.00000000000E+00  0.00000000000E+00 -0.23392002893E+03  0.26522240899E+03  0.12499738517E+03 0.  0.
    9000005    1    3    3    0    0  0.43501742923E+02  0.33574062266E+02 -0.18009870147E+03  0.18829806575E+03  0.10000000000E+01 0.  0.
    9000005    1    3    3    0    0 -0.43501742923E+02 -0.33574062266E+02 -0.53821327460E+02  0.76924343246E+02  0.10000000000E+01 0.  0.
<mgrwt>
<rscale>  0 0.12499739E+03</rscale>
<asrwt>0</asrwt>
<pdfrwt beam="1">  1        4 0.24078756E-02 0.12499739E+03</pdfrwt>
<pdfrwt beam="2">  1       -4 0.38395569E-01 0.12499739E+03</pdfrwt>
<totfact> 0.80183377E+03</totfact>
</mgrwt>
</event>
<event>
 5    1  0.3266101E-002  0.1249989E+03  0.7818608E-02  0.1235071E+00
          4   -1    0    0  501    0  0.00000000000E+00  0.00000000000E+00  0.64702283509E+02  0.64714746320E+02  0.12700000000E+01 0. -1.
         -4   -1    0    0    0  501 -0.00000000000E+00 -0.00000000000E+00 -0.60346661839E+02  0.60360023982E+02  0.12700000000E+01 0. -1.
         25    2    1    2    0    0  0.00000000000E+00  0.00000000000E+00  0.43556216693E+01  0.12507477030E+03  0.12499890690E+03 0.  0.
    9000005    1    3    3    0    0  0.16953686333E+02 -0.58011785130E+02 -0.13718523141E+02  0.61983808946E+02  0.10000000000E+01 0.  0.
    9000005    1    3    3    0    0 -0.16953686333E+02  0.58011785130E+02  0.18074144810E+02  0.63090961356E+02  0.10000000000E+01 0.  0.
<mgrwt>
<rscale>  0 0.12499891E+03</rscale>
<asrwt>0</asrwt>
<pdfrwt beam="1">  1        4 0.99561840E-02 0.12499891E+03</pdfrwt>
<pdfrwt beam="2">  1       -4 0.92860884E-02 0.12499891E+03</pdfrwt>
<totfact> 0.10451497E+04</totfact>
</mgrwt>
</event>
<event>
 5    1  0.3266101E-002  0.1249961E+03  0.7818608E-02  0.1235075E+00
          4   -1    0    0  501    0  0.00000000000E+00  0.00000000000E+00  0.66255322463E+02  0.66267493198E+02  0.12700000000E+01 0.  1.
         -4   -1    0    0    0  501 -0.00000000000E+00 -0.00000000000E+00 -0.58929443389E+02  0.58943126810E+02  0.12700000000E+01 0.  1.
         25    2    1    2    0    0  0.00000000000E+00  0.00000000000E+00  0.73258790742E+01  0.12521062001E+03  0.12499612337E+03 0.  0.
    9000005    1    3    3    0    0 -0.27937867977E+02 -0.16838966866E+02  0.57054802566E+02  0.65729185056E+02  0.10000000000E+01 0.  0.
    9000005    1    3    3    0    0  0.27937867977E+02  0.16838966866E+02 -0.49728923492E+02  0.59481434952E+02  0.10000000000E+01 0.  0.
<mgrwt>
<rscale>  0 0.12499612E+03</rscale>
<asrwt>0</asrwt>
<pdfrwt beam="1">  1        4 0.10195115E-01 0.12499612E+03</pdfrwt>
<pdfrwt beam="2">  1       -4 0.90680570E-02 0.12499612E+03</pdfrwt>
<totfact> 0.10449205E+04</totfact>
</mgrwt>
</event>
<event>
 5    1  0.3266101E-002  0.1250058E+03  0.7818608E-02  0.1235060E+00
         -4   -1    0    0    0  501 -0.00000000000E+00  0.00000000000E+00  0.50937066766E+02  0.50952896588E+02  0.12700000000E+01 0. -1.
          4   -1    0    0  501    0  0.00000000000E+00 -0.00000000000E+00 -0.76661891078E+02  0.76672409925E+02  0.12700000000E+01 0. -1.
         25    2    1    2    0    0  0.00000000000E+00  0.00000000000E+00 -0.25724824313E+02  0.12762530651E+03  0.12500580897E+03 0.  0.
    9000005    1    3    3    0    0  0.38916540737E+02  0.39058609561E+02 -0.42898987317E+02  0.69866982449E+02  0.10000000000E+01 0.  0.
    9000005    1    3    3    0    0 -0.38916540737E+02 -0.39058609561E+02  0.17174163004E+02  0.57758324064E+02  0.10000000000E+01 0.  0.
<mgrwt>
<rscale>  0 0.12500581E+03</rscale>
<asrwt>0</asrwt>
<pdfrwt beam="2">  1        4 0.11796164E-01 0.12500581E+03</pdfrwt>
<pdfrwt beam="1">  1       -4 0.78384987E-02 0.12500581E+03</pdfrwt>
<totfact> 0.10394225E+04</totfact>
</mgrwt>
</event>
<event>
 5    1  0.3266101E-002  0.1249976E+03  0.7818608E-02  0.1235073E+00
          4   -1    0    0  501    0  0.00000000000E+00  0.00000000000E+00  0.32261417282E+02  0.32286404957E+02  0.12700000000E+01 0. -1.
         -4   -1    0    0    0  501 -0.00000000000E+00 -0.00000000000E+00 -0.12100123721E+03  0.12100790183E+03  0.12700000000E+01 0. -1.
         25    2    1    2    0    0  0.00000000000E+00  0.00000000000E+00 -0.88739819924E+02  0.15329430679E+03  0.12499755539E+03 0.  0.
    9000005    1    3    3    0    0  0.40516255930E+02  0.31070062020E+02 -0.18314483573E+00  0.51068084853E+02  0.10000000000E+01 0.  0.
    9000005    1    3    3    0    0 -0.40516255930E+02 -0.31070062020E+02 -0.88556675088E+02  0.10222622194E+03  0.10000000000E+01 0.  0.
<mgrwt>
<rscale>  0 0.12499756E+03</rscale>
<asrwt>0</asrwt>
<pdfrwt beam="1">  1        4 0.49657298E-02 0.12499756E+03</pdfrwt>
<pdfrwt beam="2">  1       -4 0.18618010E-01 0.12499756E+03</pdfrwt>
<totfact> 0.98656460E+03</totfact>
</mgrwt>
</event>
<event>
 5    1  0.3266101E-002  0.1250141E+03  0.7818608E-02  0.1235047E+00
         -4   -1    0    0    0  501 -0.00000000000E+00  0.00000000000E+00  0.38732315104E+03  0.38732523314E+03  0.12700000000E+01 0.  1.
          4   -1    0    0  501    0  0.00000000000E+00 -0.00000000000E+00 -0.10045439196E+02  0.10125401159E+02  0.12700000000E+01 0.  1.
         25    2    1    2    0    0  0.00000000000E+00  0.00000000000E+00  0.37727771184E+03  0.39745063430E+03  0.12501413862E+03 0.  0.
    9000005    1    3    3    0    0 -0.18438732171E+02  0.29794420291E+01 -0.98041131805E+00  0.18730326351E+02  0.10000000000E+01 0.  0.
    9000005    1    3    3    0    0  0.18438732171E+02 -0.29794420291E+01  0.37825812316E+03  0.37872030795E+03  0.10000000000E+01 0.  0.
<mgrwt>
<rscale>  0 0.12501414E+03</rscale>
<asrwt>0</asrwt>
<pdfrwt beam="2">  1        4 0.15517635E-02 0.12501414E+03</pdfrwt>
<pdfrwt beam="1">  1       -4 0.59594479E-01 0.12501414E+03</pdfrwt>
<totfact> 0.64781274E+03</totfact>
</mgrwt>
</event>
<event>
 5    1  0.3266101E-002  0.1249964E+03  0.7818608E-02  0.1235075E+00
          4   -1    0    0  501    0  0.00000000000E+00  0.00000000000E+00  0.66539763249E+00  0.14337552125E+01  0.12700000000E+01 0.  1.
         -4   -1    0    0    0  501 -0.00000000000E+00 -0.00000000000E+00 -0.37207558690E+04  0.37207560858E+04  0.12700000000E+01 0.  1.
         25    2    1    2    0    0  0.00000000000E+00  0.00000000000E+00 -0.37200904714E+04  0.37221898410E+04  0.12499638778E+03 0.  0.
    9000005    1    3    3    0    0 -0.80166338965E+01  0.55821845713E+02 -0.10584151591E+04  0.10599169750E+04  0.10000000000E+01 0.  0.
    9000005    1    3    3    0    0  0.80166338965E+01 -0.55821845713E+02 -0.26616753123E+04  0.26622728660E+04  0.10000000000E+01 0.  0.
<mgrwt>
<rscale>  0 0.12499639E+03</rscale>
<asrwt>0</asrwt>
<pdfrwt beam="1">  1        4 0.16149295E-03 0.12499639E+03</pdfrwt>
<pdfrwt beam="2">  1       -4 0.57247254E+00 0.12499639E+03</pdfrwt>
<totfact> 0.32744390E+01</totfact>
</mgrwt>
</event>
<event>
 5    1  0.3266101E-002  0.1249983E+03  0.7818608E-02  0.1235072E+00
         -4   -1    0    0    0  501 -0.00000000000E+00  0.00000000000E+00  0.28100856768E+03  0.28101143750E+03  0.12700000000E+01 0. -1.
          4   -1    0    0  501    0  0.00000000000E+00 -0.00000000000E+00 -0.13868496960E+02  0.13926525336E+02  0.12700000000E+01 0. -1.
         25    2    1    2    0    0  0.00000000000E+00  0.00000000000E+00  0.26714007072E+03  0.29493796284E+03  0.12499833815E+03 0.  0.
    9000005    1    3    3    0    0 -0.39154291538E+02  0.21478764660E+02  0.23671033780E+03  0.24088831416E+03  0.10000000000E+01 0.  0.
    9000005    1    3    3    0    0  0.39154291538E+02 -0.21478764660E+02  0.30429732919E+02  0.54049648682E+02  0.10000000000E+01 0.  0.
<mgrwt>
<rscale>  0 0.12499834E+03</rscale>
<asrwt>0</asrwt>
<pdfrwt beam="2">  1        4 0.21382995E-02 0.12499834E+03</pdfrwt>
<pdfrwt beam="1">  1       -4 0.43236769E-01 0.12499834E+03</pdfrwt>
<totfact> 0.76241044E+03</totfact>
</mgrwt>
</event>
<event>
 5    1  0.3266101E-002  0.1250015E+03  0.7818608E-02  0.1235067E+00
          4   -1    0    0  501    0  0.00000000000E+00  0.00000000000E+00  0.22717064368E+02  0.22752536419E+02  0.12700000000E+01 0.  1.
         -4   -1    0    0    0  501 -0.00000000000E+00 -0.00000000000E+00 -0.17178440015E+03  0.17178909463E+03  0.12700000000E+01 0.  1.
         25    2    1    2    0    0  0.00000000000E+00  0.00000000000E+00 -0.14906733578E+03  0.19454163105E+03  0.12500150245E+03 0.  0.
    9000005    1    3    3    0    0  0.20248630114E+02  0.46055580648E+02 -0.16840350590E+02  0.53063367197E+02  0.10000000000E+01 0.  0.
    9000005    1    3    3    0    0 -0.20248630114E+02 -0.46055580648E+02 -0.13222698519E+03  0.14147826386E+03  0.10000000000E+01 0.  0.
<mgrwt>
<rscale>  0 0.12500150E+03</rscale>
<asrwt>0</asrwt>
<pdfrwt beam="1">  1        4 0.34980228E-02 0.12500150E+03</pdfrwt>
<pdfrwt beam="2">  1       -4 0.26431458E-01 0.12500150E+03</pdfrwt>
<totfact> 0.91059973E+03</totfact>
</mgrwt>
</event>
<event>
 5    1  0.3266101E-002  0.1249996E+03  0.7818608E-02  0.1235070E+00
          4   -1    0    0  501    0  0.00000000000E+00  0.00000000000E+00  0.10111521034E+04  0.10111529010E+04  0.12700000000E+01 0. -1.
         -4   -1    0    0    0  501 -0.00000000000E+00 -0.00000000000E+00 -0.37579457363E+01  0.39667437725E+01  0.12700000000E+01 0. -1.
         25    2    1    2    0    0  0.00000000000E+00  0.00000000000E+00  0.10073941577E+04  0.10151196447E+04  0.12499961687E+03 0.  0.
    9000005    1    3    3    0    0  0.32205829667E+02  0.51866023629E+02  0.39537213284E+03  0.40005927473E+03  0.10000000000E+01 0.  0.
    9000005    1    3    3    0    0 -0.32205829667E+02 -0.51866023629E+02  0.61202202482E+03  0.61506037000E+03  0.10000000000E+01 0.  0.
<mgrwt>
<rscale>  0 0.12499962E+03</rscale>
<asrwt>0</asrwt>
<pdfrwt beam="1">  1        4 0.15557821E+00 0.12499962E+03</pdfrwt>
<pdfrwt beam="2">  1       -4 0.59426738E-03 0.12499962E+03</pdfrwt>
<totfact> 0.30109519E+03</totfact>
</mgrwt>
</event>
<event>
 5    1  0.3266101E-002  0.1250004E+03  0.7818608E-02  0.1235069E+00
          4   -1    0    0  501    0  0.00000000000E+00  0.00000000000E+00  0.36923343721E+02  0.36945178461E+02  0.12700000000E+01 0.  1.
         -4   -1    0    0    0  501 -0.00000000000E+00 -0.00000000000E+00 -0.10573717982E+03  0.10574480647E+03  0.12700000000E+01 0.  1.
         25    2    1    2    0    0  0.00000000000E+00  0.00000000000E+00 -0.68813836096E+02  0.14268998493E+03  0.12500035105E+03 0.  0.
    9000005    1    3    3    0    0  0.58158616955E+02  0.93493182885E+01 -0.10586731719E+02  0.59857442035E+02  0.10000000000E+01 0.  0.
    9000005    1    3    3    0    0 -0.58158616955E+02 -0.93493182885E+01 -0.58227104377E+02  0.82832542896E+02  0.10000000000E+01 0.  0.
<mgrwt>
<rscale>  0 0.12500035E+03</rscale>
<asrwt>0</asrwt>
<pdfrwt beam="1">  1        4 0.56827807E-02 0.12500035E+03</pdfrwt>
<pdfrwt beam="2">  1       -4 0.16269525E-01 0.12500035E+03</pdfrwt>
<totfact> 0.10078056E+04</totfact>
</mgrwt>
</event>
<event>
 5    1  0.3266101E-002  0.1249995E+03  0.7818608E-02  0.1235070E+00
         -4   -1    0    0    0  501 -0.00000000000E+00  0.00000000000E+00  0.24282250278E+02  0.24315439099E+02  0.12700000000E+01 0. -1.
          4   -1    0    0  501    0  0.00000000000E+00 -0.00000000000E+00 -0.16072180005E+03  0.16072681764E+03  0.12700000000E+01 0. -1.
         25    2    1    2    0    0  0.00000000000E+00  0.00000000000E+00 -0.13643954977E+03  0.18504225674E+03  0.12499954416E+03 0.  0.
    9000005    1    3    3    0    0  0.15547534135E+02 -0.49062276790E+02 -0.15748152077E+02  0.53831562446E+02  0.10000000000E+01 0.  0.
    9000005    1    3    3    0    0 -0.15547534135E+02  0.49062276790E+02 -0.12069139769E+03  0.13121069430E+03  0.10000000000E+01 0.  0.
<mgrwt>
<rscale>  0 0.12499954E+03</rscale>
<asrwt>0</asrwt>
<pdfrwt beam="2">  1        4 0.24729369E-01 0.12499954E+03</pdfrwt>
<pdfrwt beam="1">  1       -4 0.37386699E-02 0.12499954E+03</pdfrwt>
<totfact> 0.92718121E+03</totfact>
</mgrwt>
</event>
<event>
 5    1  0.3266101E-002  0.1249945E+03  0.7818608E-02  0.1235078E+00
          4   -1    0    0  501    0  0.00000000000E+00  0.00000000000E+00  0.47817735148E+02  0.47834597257E+02  0.12700000000E+01 0. -1.
         -4   -1    0    0    0  501 -0.00000000000E+00 -0.00000000000E+00 -0.81646956411E+02  0.81656833096E+02  0.12700000000E+01 0. -1.
         25    2    1    2    0    0  0.00000000000E+00  0.00000000000E+00 -0.33829221263E+02  0.12949143035E+03  0.12499445717E+03 0.  0.
    9000005    1    3    3    0    0 -0.37710896552E+02 -0.30326132031E+02 -0.57873304292E+02  0.75446042655E+02  0.10000000000E+01 0.  0.
    9000005    1    3    3    0    0  0.37710896552E+02  0.30326132031E+02  0.24044083029E+02  0.54045387697E+02  0.10000000000E+01 0.  0.
<mgrwt>
<rscale>  0 0.12499446E+03</rscale>
<asrwt>0</asrwt>
<pdfrwt beam="1">  1        4 0.73586315E-02 0.12499446E+03</pdfrwt>
<pdfrwt beam="2">  1       -4 0.12563127E-01 0.12499446E+03</pdfrwt>
<totfact> 0.10356695E+04</totfact>
</mgrwt>
</event>
<event>
 5    1  0.3266101E-002  0.1249994E+03  0.7818608E-02  0.1235070E+00
         -4   -1    0    0    0  501 -0.00000000000E+00  0.00000000000E+00  0.96105091520E+01  0.96940593231E+01  0.12700000000E+01 0.  1.
          4   -1    0    0  501    0  0.00000000000E+00 -0.00000000000E+00 -0.40460858499E+03  0.40461057815E+03  0.12700000000E+01 0.  1.
         25    2    1    2    0    0  0.00000000000E+00  0.00000000000E+00 -0.39499807584E+03  0.41430463747E+03  0.12499941085E+03 0.  0.
    9000005    1    3    3    0    0 -0.20319688324E+02  0.48787100073E+02 -0.30803205137E+03  0.31253450295E+03  0.10000000000E+01 0.  0.
    9000005    1    3    3    0    0  0.20319688324E+02 -0.48787100073E+02 -0.86966024474E+02  0.10177013452E+03  0.10000000000E+01 0.  0.
<mgrwt>
<rscale>  0 0.12499941E+03</rscale>
<asrwt>0</asrwt>
<pdfrwt beam="2">  1        4 0.62254042E-01 0.12499941E+03</pdfrwt>
<pdfrwt beam="1">  1       -4 0.14851204E-02 0.12499941E+03</pdfrwt>
<totfact> 0.63185743E+03</totfact>
</mgrwt>
</event>
<event>
 5    1  0.3266101E-002  0.1249976E+03  0.7818608E-02  0.1235073E+00
          4   -1    0    0  501    0  0.00000000000E+00  0.00000000000E+00  0.54380187153E+02  0.54395014981E+02  0.12700000000E+01 0.  1.
         -4   -1    0    0    0  501 -0.00000000000E+00 -0.00000000000E+00 -0.71799252918E+02  0.71810484051E+02  0.12700000000E+01 0.  1.
         25    2    1    2    0    0  0.00000000000E+00  0.00000000000E+00 -0.17419065765E+02  0.12620549903E+03  0.12499761651E+03 0.  0.
    9000005    1    3    3    0    0 -0.18945458439E+02 -0.55832755098E+02  0.12199861517E+02  0.60216804617E+02  0.10000000000E+01 0.  0.
    9000005    1    3    3    0    0  0.18945458439E+02  0.55832755098E+02 -0.29618927281E+02  0.65988694415E+02  0.10000000000E+01 0.  0.
<mgrwt>
<rscale>  0 0.12499762E+03</rscale>
<asrwt>0</asrwt>
<pdfrwt beam="1">  1        4 0.83681871E-02 0.12499762E+03</pdfrwt>
<pdfrwt beam="2">  1       -4 0.11048043E-01 0.12499762E+03</pdfrwt>
<totfact> 0.10427019E+04</totfact>
</mgrwt>
</event>
<event>
 5    1  0.3266101E-002  0.1249997E+03  0.7818608E-02  0.1235070E+00
         -4   -1    0    0    0  501 -0.00000000000E+00  0.00000000000E+00  0.12824638648E+03  0.12825267461E+03  0.12700000000E+01 0. -1.
          4   -1    0    0  501    0  0.00000000000E+00 -0.00000000000E+00 -0.30438507634E+02  0.30464990513E+02  0.12700000000E+01 0. -1.
         25    2    1    2    0    0  0.00000000000E+00  0.00000000000E+00  0.97807878843E+02  0.15871766512E+03  0.12499966423E+03 0.  0.
    9000005    1    3    3    0    0  0.38300023240E+02 -0.38265262607E+02  0.88533543365E+02  0.10378010601E+03  0.10000000000E+01 0.  0.
    9000005    1    3    3    0    0 -0.38300023240E+02  0.38265262607E+02  0.92743354780E+01  0.54937559112E+02  0.10000000000E+01 0.  0.
<mgrwt>
<rscale>  0 0.12499966E+03</rscale>
<asrwt>0</asrwt>
<pdfrwt beam="2">  1        4 0.46853681E-02 0.12499966E+03</pdfrwt>
<pdfrwt beam="1">  1       -4 0.19732734E-01 0.12499966E+03</pdfrwt>
<totfact> 0.97591316E+03</totfact>
</mgrwt>
</event>
<event>
 5    1  0.3266101E-002  0.1249952E+03  0.7818608E-02  0.1235077E+00
          4   -1    0    0  501    0  0.00000000000E+00  0.00000000000E+00  0.11618023995E+02  0.11687231561E+02  0.12700000000E+01 0.  1.
         -4   -1    0    0    0  501 -0.00000000000E+00 -0.00000000000E+00 -0.33512872442E+03  0.33513113080E+03  0.12700000000E+01 0.  1.
         25    2    1    2    0    0  0.00000000000E+00  0.00000000000E+00 -0.32351070042E+03  0.34681836236E+03  0.12499521263E+03 0.  0.
    9000005    1    3    3    0    0 -0.53259644571E+02  0.88746557423E+01 -0.74470497187E+02  0.91990239731E+02  0.10000000000E+01 0.  0.
    9000005    1    3    3    0    0  0.53259644571E+02 -0.88746557423E+01 -0.24904020323E+03  0.25482812263E+03  0.10000000000E+01 0.  0.
<mgrwt>
<rscale>  0 0.12499521E+03</rscale>
<asrwt>0</asrwt>
<pdfrwt beam="1">  1        4 0.17928973E-02 0.12499521E+03</pdfrwt>
<pdfrwt beam="2">  1       -4 0.51563767E-01 0.12499521E+03</pdfrwt>
<totfact> 0.70083428E+03</totfact>
</mgrwt>
</event>
<event>
 5    1  0.3266101E-002  0.1249984E+03  0.7818608E-02  0.1235072E+00
         -4   -1    0    0    0  501 -0.00000000000E+00  0.00000000000E+00  0.22773182524E+02  0.22808567300E+02  0.12700000000E+01 0. -1.
          4   -1    0    0  501    0  0.00000000000E+00 -0.00000000000E+00 -0.17135324932E+03  0.17135795562E+03  0.12700000000E+01 0. -1.
         25    2    1    2    0    0  0.00000000000E+00  0.00000000000E+00 -0.14858006680E+03  0.19416652292E+03  0.12499840948E+03 0.  0.
    9000005    1    3    3    0    0  0.19000972479E+02 -0.57111532432E+02 -0.10039311811E+03  0.11705785858E+03  0.10000000000E+01 0.  0.
    9000005    1    3    3    0    0 -0.19000972479E+02  0.57111532432E+02 -0.48186948695E+02  0.77108664341E+02  0.10000000000E+01 0.  0.
<mgrwt>
<rscale>  0 0.12499841E+03</rscale>
<asrwt>0</asrwt>
<pdfrwt beam="2">  1        4 0.26365121E-01 0.12499841E+03</pdfrwt>
<pdfrwt beam="1">  1       -4 0.35066506E-02 0.12499841E+03</pdfrwt>
<totfact> 0.91130611E+03</totfact>
</mgrwt>
</event>
<event>
 5    1  0.3266101E-002  0.1250135E+03  0.7818608E-02  0.1235048E+00
         -4   -1    0    0    0  501 -0.00000000000E+00  0.00000000000E+00  0.47557851917E+02  0.47574806137E+02  0.12700000000E+01 0.  1.
          4   -1    0    0  501    0  0.00000000000E+00 -0.00000000000E+00 -0.82118091705E+02  0.82127911731E+02  0.12700000000E+01 0.  1.
         25    2    1    2    0    0  0.00000000000E+00  0.00000000000E+00 -0.34560239788E+02  0.12970271787E+03  0.12501353866E+03 0.  0.
    9000005    1    3    3    0    0 -0.44212220529E+02 -0.22969443340E+02  0.21868237037E+02  0.54419992305E+02  0.10000000000E+01 0.  0.
    9000005    1    3    3    0    0  0.44212220529E+02  0.22969443340E+02 -0.56428476825E+02  0.75282725563E+02  0.10000000000E+01 0.  0.
<mgrwt>
<rscale>  0 0.12501354E+03</rscale>
<asrwt>0</asrwt>
<pdfrwt beam="2">  1        4 0.12635612E-01 0.12501354E+03</pdfrwt>
<pdfrwt beam="1">  1       -4 0.73186521E-02 0.12501354E+03</pdfrwt>
<totfact> 0.10347708E+04</totfact>
</mgrwt>
</event>
<event>
 5    1  0.3266101E-002  0.1250005E+03  0.7818608E-02  0.1235069E+00
          4   -1    0    0  501    0  0.00000000000E+00  0.00000000000E+00  0.94406013283E+02  0.94414555255E+02  0.12700000000E+01 0. -1.
         -4   -1    0    0    0  501 -0.00000000000E+00 -0.00000000000E+00 -0.41357281123E+02  0.41376776118E+02  0.12700000000E+01 0. -1.
         25    2    1    2    0    0  0.00000000000E+00  0.00000000000E+00  0.53048732160E+02  0.13579133137E+03  0.12500047077E+03 0.  0.
    9000005    1    3    3    0    0  0.32401086100E+02 -0.46988771451E+02  0.54167148781E+02  0.78694695056E+02  0.10000000000E+01 0.  0.
    9000005    1    3    3    0    0 -0.32401086100E+02  0.46988771451E+02 -0.11184166204E+01  0.57096636317E+02  0.10000000000E+01 0.  0.
<mgrwt>
<rscale>  0 0.12500047E+03</rscale>
<asrwt>0</asrwt>
<pdfrwt beam="1">  1        4 0.14526159E-01 0.12500047E+03</pdfrwt>
<pdfrwt beam="2">  1       -4 0.63648153E-02 0.12500047E+03</pdfrwt>
<totfact> 0.10221310E+04</totfact>
</mgrwt>
</event>
<event>
 5    1  0.3266101E-002  0.1249955E+03  0.7818608E-02  0.1235076E+00
          4   -1    0    0  501    0  0.00000000000E+00  0.00000000000E+00  0.34979595228E+03  0.34979825776E+03  0.12700000000E+01 0.  1.
         -4   -1    0    0    0  501 -0.00000000000E+00 -0.00000000000E+00 -0.11127964857E+02  0.11200200974E+02  0.12700000000E+01 0.  1.
         25    2    1    2    0    0  0.00000000000E+00  0.00000000000E+00  0.33866798742E+03  0.36099845873E+03  0.12499552593E+03 0.  0.
    9000005    1    3    3    0    0  0.50976387315E+02 -0.74252482550E+01  0.67173758653E+02  0.84658373638E+02  0.10000000000E+01 0.  0.
    9000005    1    3    3    0    0 -0.50976387315E+02  0.74252482550E+01  0.27149422877E+03  0.27634008509E+03  0.10000000000E+01 0.  0.
<mgrwt>
<rscale>  0 0.12499553E+03</rscale>
<asrwt>0</asrwt>
<pdfrwt beam="1">  1        4 0.53820505E-01 0.12499553E+03</pdfrwt>
<pdfrwt beam="2">  1       -4 0.17177283E-02 0.12499553E+03</pdfrwt>
<totfact> 0.68538075E+03</totfact>
</mgrwt>
</event>
<event>
 5    1  0.3266101E-002  0.1249966E+03  0.7818608E-02  0.1235075E+00
          4   -1    0    0  501    0  0.00000000000E+00  0.00000000000E+00  0.68763294234E+03  0.68763411513E+03  0.12700000000E+01 0. -1.
         -4   -1    0    0    0  501 -0.00000000000E+00 -0.00000000000E+00 -0.56082330934E+01  0.57502329022E+01  0.12700000000E+01 0. -1.
         25    2    1    2    0    0  0.00000000000E+00  0.00000000000E+00  0.68202470925E+03  0.69338434803E+03  0.12499660025E+03 0.  0.
    9000005    1    3    3    0    0 -0.63086050645E+00  0.62048966661E+02  0.38198877214E+03  0.38699727943E+03  0.10000000000E+01 0.  0.
    9000005    1    3    3    0    0  0.63086050645E+00 -0.62048966661E+02  0.30003593711E+03  0.30638706860E+03  0.10000000000E+01 0.  0.
<mgrwt>
<rscale>  0 0.12499660E+03</rscale>
<asrwt>0</asrwt>
<pdfrwt beam="1">  1        4 0.10580071E+00 0.12499660E+03</pdfrwt>
<pdfrwt beam="2">  1       -4 0.87381822E-03 0.12499660E+03</pdfrwt>
<totfact> 0.43441452E+03</totfact>
</mgrwt>
</event>
<event>
 5    1  0.3266101E-002  0.1249980E+03  0.7818608E-02  0.1235072E+00
          4   -1    0    0  501    0  0.00000000000E+00  0.00000000000E+00  0.89359053598E+01  0.90257024436E+01  0.12700000000E+01 0. -1.
         -4   -1    0    0    0  501 -0.00000000000E+00 -0.00000000000E+00 -0.43485053456E+03  0.43485238910E+03  0.12700000000E+01 0. -1.
         25    2    1    2    0    0  0.00000000000E+00  0.00000000000E+00 -0.42591462920E+03  0.44387809154E+03  0.12499795513E+03 0.  0.
    9000005    1    3    3    0    0 -0.39141229578E+02 -0.48695755124E+02 -0.20818011594E+03  0.21735517729E+03  0.10000000000E+01 0.  0.
    9000005    1    3    3    0    0  0.39141229578E+02  0.48695755124E+02 -0.21773451326E+03  0.22652291426E+03  0.10000000000E+01 0.  0.
<mgrwt>
<rscale>  0 0.12499796E+03</rscale>
<asrwt>0</asrwt>
<pdfrwt beam="1">  1        4 0.13818051E-02 0.12499796E+03</pdfrwt>
<pdfrwt beam="2">  1       -4 0.66907116E-01 0.12499796E+03</pdfrwt>
<totfact> 0.60500562E+03</totfact>
</mgrwt>
</event>
<event>
 5    1  0.3266101E-002  0.1250021E+03  0.7818608E-02  0.1235066E+00
          4   -1    0    0  501    0  0.00000000000E+00  0.00000000000E+00  0.54877705412E+03  0.54877852366E+03  0.12700000000E+01 0. -1.
         -4   -1    0    0    0  501 -0.00000000000E+00 -0.00000000000E+00 -0.70602040352E+01  0.71735194304E+01  0.12700000000E+01 0. -1.
         25    2    1    2    0    0  0.00000000000E+00  0.00000000000E+00  0.54171685009E+03  0.55595204309E+03  0.12500211418E+03 0.  0.
    9000005    1    3    3    0    0 -0.44907269966E+02 -0.38356790885E+02  0.17998526242E+03  0.18942967294E+03  0.10000000000E+01 0.  0.
    9000005    1    3    3    0    0  0.44907269966E+02  0.38356790885E+02  0.36173158767E+03  0.36652237015E+03  0.10000000000E+01 0.  0.
<mgrwt>
<rscale>  0 0.12500211E+03</rscale>
<asrwt>0</asrwt>
<pdfrwt beam="1">  1        4 0.84436071E-01 0.12500211E+03</pdfrwt>
<pdfrwt beam="2">  1       -4 0.10950148E-02 0.12500211E+03</pdfrwt>
<totfact> 0.51769168E+03</totfact>
</mgrwt>
</event>
<event>
 5    1  0.3266101E-002  0.1250156E+03  0.7818608E-02  0.1235045E+00
          4   -1    0    0  501    0  0.00000000000E+00  0.00000000000E+00  0.24581301537E+02  0.24614087130E+02  0.12700000000E+01 0. -1.
         -4   -1    0    0    0  501 -0.00000000000E+00 -0.00000000000E+00 -0.15880972552E+03  0.15881480353E+03  0.12700000000E+01 0. -1.
         25    2    1    2    0    0  0.00000000000E+00  0.00000000000E+00 -0.13422842399E+03  0.18342889066E+03  0.12501555153E+03 0.  0.
    9000005    1    3    3    0    0  0.38045250649E+02  0.29964423323E+02 -0.12508286697E+03  0.13413437803E+03  0.10000000000E+01 0.  0.
    9000005    1    3    3    0    0 -0.38045250649E+02 -0.29964423323E+02 -0.91455570197E+01  0.49294512628E+02  0.10000000000E+01 0.  0.
<mgrwt>
<rscale>  0 0.12501555E+03</rscale>
<asrwt>0</asrwt>
<pdfrwt beam="1">  1        4 0.37846514E-02 0.12501555E+03</pdfrwt>
<pdfrwt beam="2">  1       -4 0.24435177E-01 0.12501555E+03</pdfrwt>
<totfact> 0.92970997E+03</totfact>
</mgrwt>
</event>
<event>
 5    1  0.3266101E-002  0.1249977E+03  0.7818608E-02  0.1235073E+00
         -4   -1    0    0    0  501 -0.00000000000E+00  0.00000000000E+00  0.85488521464E+02  0.85497954373E+02  0.12700000000E+01 0.  1.
          4   -1    0    0  501    0  0.00000000000E+00 -0.00000000000E+00 -0.45670786187E+02  0.45688440671E+02  0.12700000000E+01 0.  1.
         25    2    1    2    0    0  0.00000000000E+00  0.00000000000E+00  0.39817735276E+02  0.13118639504E+03  0.12499767279E+03 0.  0.
    9000005    1    3    3    0    0  0.56972130531E+02 -0.15705821672E+02 -0.14095871950E+01  0.59122613505E+02  0.10000000000E+01 0.  0.
    9000005    1    3    3    0    0 -0.56972130531E+02  0.15705821672E+02  0.41227322471E+02  0.72063781539E+02  0.10000000000E+01 0.  0.
<mgrwt>
<rscale>  0 0.12499767E+03</rscale>
<asrwt>0</asrwt>
<pdfrwt beam="2">  1        4 0.70283585E-02 0.12499767E+03</pdfrwt>
<pdfrwt beam="1">  1       -4 0.13154164E-01 0.12499767E+03</pdfrwt>
<totfact> 0.10319637E+04</totfact>
</mgrwt>
</event>
<event>
 5    1  0.3266101E-002  0.1250003E+03  0.7818608E-02  0.1235069E+00
         -4   -1    0    0    0  501 -0.00000000000E+00  0.00000000000E+00  0.89903984226E+02  0.89912953904E+02  0.12700000000E+01 0. -1.
          4   -1    0    0  501    0  0.00000000000E+00 -0.00000000000E+00 -0.43428941619E+02  0.43447507065E+02  0.12700000000E+01 0. -1.
         25    2    1    2    0    0  0.00000000000E+00  0.00000000000E+00  0.46475042607E+02  0.13336046097E+03  0.12500033186E+03 0.  0.
    9000005    1    3    3    0    0  0.35541534887E+02  0.69639065352E+01  0.77570716764E+02  0.85614909891E+02  0.10000000000E+01 0.  0.
    9000005    1    3    3    0    0 -0.35541534887E+02 -0.69639065352E+01 -0.31095674157E+02  0.47745551077E+02  0.10000000000E+01 0.  0.
<mgrwt>
<rscale>  0 0.12500033E+03</rscale>
<asrwt>0</asrwt>
<pdfrwt beam="2">  1        4 0.66834938E-02 0.12500033E+03</pdfrwt>
<pdfrwt beam="1">  1       -4 0.13833500E-01 0.12500033E+03</pdfrwt>
<totfact> 0.10272668E+04</totfact>
</mgrwt>
</event>
<event>
 5    1  0.3266101E-002  0.1249985E+03  0.7818608E-02  0.1235072E+00
          4   -1    0    0  501    0  0.00000000000E+00  0.00000000000E+00  0.26150472902E+02  0.26181293570E+02  0.12700000000E+01 0. -1.
         -4   -1    0    0    0  501 -0.00000000000E+00 -0.00000000000E+00 -0.14925075334E+03  0.14925615656E+03  0.12700000000E+01 0. -1.
         25    2    1    2    0    0  0.00000000000E+00  0.00000000000E+00 -0.12310028043E+03  0.17543745013E+03  0.12499847945E+03 0.  0.
    9000005    1    3    3    0    0  0.48724397903E+00  0.62245635917E+02 -0.69288389525E+02  0.93148470306E+02  0.10000000000E+01 0.  0.
    9000005    1    3    3    0    0 -0.48724397903E+00 -0.62245635917E+02 -0.53811890909E+02  0.82288979825E+02  0.10000000000E+01 0.  0.
<mgrwt>
<rscale>  0 0.12499848E+03</rscale>
<asrwt>0</asrwt>
<pdfrwt beam="1">  1        4 0.40259362E-02 0.12499848E+03</pdfrwt>
<pdfrwt beam="2">  1       -4 0.22964440E-01 0.12499848E+03</pdfrwt>
<totfact> 0.94448005E+03</totfact>
</mgrwt>
</event>
<event>
 5    1  0.3266101E-002  0.1249991E+03  0.7818608E-02  0.1235071E+00
          4   -1    0    0  501    0  0.00000000000E+00  0.00000000000E+00  0.77246350165E+02  0.77256789435E+02  0.12700000000E+01 0. -1.
         -4   -1    0    0    0  501 -0.00000000000E+00 -0.00000000000E+00 -0.50546172395E+02  0.50562124597E+02  0.12700000000E+01 0. -1.
         25    2    1    2    0    0  0.00000000000E+00  0.00000000000E+00  0.26700177770E+02  0.12781891403E+03  0.12499910116E+03 0.  0.
    9000005    1    3    3    0    0  0.36081978583E+02 -0.42718390088E+02 -0.15179550628E+02  0.57949881686E+02  0.10000000000E+01 0.  0.
    9000005    1    3    3    0    0 -0.36081978583E+02  0.42718390088E+02  0.41879728399E+02  0.69869032345E+02  0.10000000000E+01 0.  0.
<mgrwt>
<rscale>  0 0.12499910E+03</rscale>
<asrwt>0</asrwt>
<pdfrwt beam="1">  1        4 0.11886084E-01 0.12499910E+03</pdfrwt>
<pdfrwt beam="2">  1       -4 0.77783643E-02 0.12499910E+03</pdfrwt>
<totfact> 0.10391611E+04</totfact>
</mgrwt>
</event>
<event>
 5    1  0.3266101E-002  0.1249999E+03  0.7818608E-02  0.1235069E+00
         -4   -1    0    0    0  501 -0.00000000000E+00  0.00000000000E+00  0.18963620782E+03  0.18964046039E+03  0.12700000000E+01 0.  1.
          4   -1    0    0  501    0  0.00000000000E+00 -0.00000000000E+00 -0.20574545663E+02  0.20613704889E+02  0.12700000000E+01 0.  1.
         25    2    1    2    0    0  0.00000000000E+00  0.00000000000E+00  0.16906166216E+03  0.21025416527E+03  0.12499987362E+03 0.  0.
    9000005    1    3    3    0    0  0.48960926607E+02  0.39429322480E+01  0.14951320279E+03  0.15737826044E+03  0.10000000000E+01 0.  0.
    9000005    1    3    3    0    0 -0.48960926607E+02 -0.39429322480E+01  0.19548459362E+02  0.52875904837E+02  0.10000000000E+01 0.  0.
<mgrwt>
<rscale>  0 0.12499987E+03</rscale>
<asrwt>0</asrwt>
<pdfrwt beam="2">  1        4 0.31686542E-02 0.12499987E+03</pdfrwt>
<pdfrwt beam="1">  1       -4 0.29178139E-01 0.12499987E+03</pdfrwt>
<totfact> 0.88434640E+03</totfact>
</mgrwt>
</event>
<event>
 5    1  0.3266101E-002  0.1250003E+03  0.7818608E-02  0.1235069E+00
          4   -1    0    0  501    0  0.00000000000E+00  0.00000000000E+00  0.26851705907E+02  0.26881722603E+02  0.12700000000E+01 0.  1.
         -4   -1    0    0    0  501 -0.00000000000E+00 -0.00000000000E+00 -0.14536151622E+03  0.14536706401E+03  0.12700000000E+01 0.  1.
         25    2    1    2    0    0  0.00000000000E+00  0.00000000000E+00 -0.11850981031E+03  0.17224878661E+03  0.12500027739E+03 0.  0.
    9000005    1    3    3    0    0  0.12341879393E+02 -0.14339515690E+02  0.22817205248E+02  0.29657521011E+02  0.10000000000E+01 0.  0.
    9000005    1    3    3    0    0 -0.12341879393E+02  0.14339515690E+02 -0.14132701556E+03  0.14259126560E+03  0.10000000000E+01 0.  0.
<mgrwt>
<rscale>  0 0.12500028E+03</rscale>
<asrwt>0</asrwt>
<pdfrwt beam="1">  1        4 0.41337675E-02 0.12500028E+03</pdfrwt>
<pdfrwt beam="2">  1       -4 0.22366045E-01 0.12500028E+03</pdfrwt>
<totfact> 0.95030556E+03</totfact>
</mgrwt>
</event>
<event>
 5    1  0.3266101E-002  0.1250051E+03  0.7818608E-02  0.1235061E+00
         -4   -1    0    0    0  501 -0.00000000000E+00  0.00000000000E+00  0.15227960753E+02  0.15280827487E+02  0.12700000000E+01 0.  1.
          4   -1    0    0  501    0  0.00000000000E+00 -0.00000000000E+00 -0.25604038845E+03  0.25604353813E+03  0.12700000000E+01 0.  1.
         25    2    1    2    0    0  0.00000000000E+00  0.00000000000E+00 -0.24081242769E+03  0.27132436561E+03  0.12500514407E+03 0.  0.
    9000005    1    3    3    0    0 -0.25503955492E+01 -0.34704548541E+02 -0.77349919436E+01  0.35661468103E+02  0.10000000000E+01 0.  0.
    9000005    1    3    3    0    0  0.25503955492E+01  0.34704548541E+02 -0.23307743575E+03  0.23566289751E+03  0.10000000000E+01 0.  0.
<mgrwt>
<rscale>  0 0.12500514E+03</rscale>
<asrwt>0</asrwt>
<pdfrwt beam="2">  1        4 0.39395135E-01 0.12500514E+03</pdfrwt>
<pdfrwt beam="1">  1       -4 0.23470723E-02 0.12500514E+03</pdfrwt>
<totfact> 0.79333577E+03</totfact>
</mgrwt>
</event>
<event>
 5    1  0.3266101E-002  0.1250010E+03  0.7818608E-02  0.1235068E+00
          4   -1    0    0  501    0  0.00000000000E+00  0.00000000000E+00  0.53605134488E+02  0.53620176645E+02  0.12700000000E+01 0.  1.
         -4   -1    0    0    0  501 -0.00000000000E+00 -0.00000000000E+00 -0.72841127690E+02  0.72852198204E+02  0.12700000000E+01 0.  1.
         25    2    1    2    0    0  0.00000000000E+00  0.00000000000E+00 -0.19235993202E+02  0.12647237485E+03  0.12500095266E+03 0.  0.
    9000005    1    3    3    0    0 -0.81221893730E+01 -0.59335925017E+02 -0.27677124496E+02  0.65982915806E+02  0.10000000000E+01 0.  0.
    9000005    1    3    3    0    0  0.81221893730E+01  0.59335925017E+02  0.84411312935E+01  0.60489459043E+02  0.10000000000E+01 0.  0.
<mgrwt>
<rscale>  0 0.12500095E+03</rscale>
<asrwt>0</asrwt>
<pdfrwt beam="1">  1        4 0.82489524E-02 0.12500095E+03</pdfrwt>
<pdfrwt beam="2">  1       -4 0.11208336E-01 0.12500095E+03</pdfrwt>
<totfact> 0.10420406E+04</totfact>
</mgrwt>
</event>
<event>
 5    1  0.3266101E-002  0.1249975E+03  0.7818608E-02  0.1235073E+00
         -4   -1    0    0    0  501 -0.00000000000E+00  0.00000000000E+00  0.28268143944E+02  0.28296658143E+02  0.12700000000E+01 0. -1.
          4   -1    0    0  501    0  0.00000000000E+00 -0.00000000000E+00 -0.13807886765E+03  0.13808470803E+03  0.12700000000E+01 0. -1.
         25    2    1    2    0    0  0.00000000000E+00  0.00000000000E+00 -0.10981072370E+03  0.16638136617E+03  0.12499745585E+03 0.  0.
    9000005    1    3    3    0    0 -0.36884737603E+02 -0.50415384308E+02 -0.57170600551E+02  0.84685727311E+02  0.10000000000E+01 0.  0.
    9000005    1    3    3    0    0  0.36884737603E+02  0.50415384308E+02 -0.52640123154E+02  0.81695638859E+02  0.10000000000E+01 0.  0.
<mgrwt>
<rscale>  0 0.12499746E+03</rscale>
<asrwt>0</asrwt>
<pdfrwt beam="2">  1        4 0.21245545E-01 0.12499746E+03</pdfrwt>
<pdfrwt beam="1">  1       -4 0.43515880E-02 0.12499746E+03</pdfrwt>
<totfact> 0.96131915E+03</totfact>
</mgrwt>
</event>
<event>
 5    1  0.3266101E-002  0.1249963E+03  0.7818608E-02  0.1235075E+00
          4   -1    0    0  501    0  0.00000000000E+00  0.00000000000E+00  0.10334996224E+03  0.10335776504E+03  0.12700000000E+01 0.  1.
         -4   -1    0    0    0  501 -0.00000000000E+00 -0.00000000000E+00 -0.37774183910E+02  0.37795527118E+02  0.12700000000E+01 0.  1.
         25    2    1    2    0    0  0.00000000000E+00  0.00000000000E+00  0.65575778328E+02  0.14115329216E+03  0.12499627668E+03 0.  0.
    9000005    1    3    3    0    0 -0.40757371944E+01 -0.35119945946E+01  0.10309347446E+03  0.10323860816E+03  0.10000000000E+01 0.  0.
    9000005    1    3    3    0    0  0.40757371944E+01  0.35119945946E+01 -0.37517696130E+02  0.37914683997E+02  0.10000000000E+01 0.  0.
<mgrwt>
<rscale>  0 0.12499628E+03</rscale>
<asrwt>0</asrwt>
<pdfrwt beam="1">  1        4 0.15902236E-01 0.12499628E+03</pdfrwt>
<pdfrwt beam="2">  1       -4 0.58136550E-02 0.12499628E+03</pdfrwt>
<totfact> 0.10110587E+04</totfact>
</mgrwt>
</event>
<event>
 5    1  0.3266101E-002  0.1250038E+03  0.7818608E-02  0.1235063E+00
          4   -1    0    0  501    0  0.00000000000E+00  0.00000000000E+00  0.48930934843E+02  0.48947413462E+02  0.12700000000E+01 0.  1.
         -4   -1    0    0    0  501 -0.00000000000E+00 -0.00000000000E+00 -0.79801804398E+02  0.79811909419E+02  0.12700000000E+01 0.  1.
         25    2    1    2    0    0  0.00000000000E+00  0.00000000000E+00 -0.30870869555E+02  0.12875932288E+03  0.12500381051E+03 0.  0.
    9000005    1    3    3    0    0 -0.65567382951E+01  0.56326824624E+02 -0.42488262943E+02  0.70865749676E+02  0.10000000000E+01 0.  0.
    9000005    1    3    3    0    0  0.65567382951E+01 -0.56326824624E+02  0.11617393388E+02  0.57893573205E+02  0.10000000000E+01 0.  0.
<mgrwt>
<rscale>  0 0.12500381E+03</rscale>
<asrwt>0</asrwt>
<pdfrwt beam="1">  1        4 0.75298810E-02 0.12500381E+03</pdfrwt>
<pdfrwt beam="2">  1       -4 0.12279246E-01 0.12500381E+03</pdfrwt>
<totfact> 0.10370229E+04</totfact>
</mgrwt>
</event>
<event>
 5    1  0.3266101E-002  0.1250076E+03  0.7818608E-02  0.1235057E+00
         -4   -1    0    0    0  501 -0.00000000000E+00  0.00000000000E+00  0.85766048805E+02  0.85775451195E+02  0.12700000000E+01 0.  1.
          4   -1    0    0  501    0  0.00000000000E+00 -0.00000000000E+00 -0.45530165764E+02  0.45547874753E+02  0.12700000000E+01 0.  1.
         25    2    1    2    0    0  0.00000000000E+00  0.00000000000E+00  0.40235883041E+02  0.13132332595E+03  0.12500755839E+03 0.  0.
    9000005    1    3    3    0    0 -0.19138902619E+02 -0.57132781655E+02  0.26884344272E+01  0.60321472236E+02  0.10000000000E+01 0.  0.
    9000005    1    3    3    0    0  0.19138902619E+02  0.57132781655E+02  0.37547448613E+02  0.71001853711E+02  0.10000000000E+01 0.  0.
<mgrwt>
<rscale>  0 0.12500756E+03</rscale>
<asrwt>0</asrwt>
<pdfrwt beam="2">  1        4 0.70067265E-02 0.12500756E+03</pdfrwt>
<pdfrwt beam="1">  1       -4 0.13196862E-01 0.12500756E+03</pdfrwt>
<totfact> 0.10314404E+04</totfact>
</mgrwt>
</event>
<event>
 5    1  0.3266101E-002  0.1250003E+03  0.7818608E-02  0.1235069E+00
         -4   -1    0    0    0  501 -0.00000000000E+00  0.00000000000E+00  0.83571805680E+02  0.83581454909E+02  0.12700000000E+01 0. -1.
          4   -1    0    0  501    0  0.00000000000E+00 -0.00000000000E+00 -0.46720522312E+02  0.46737780276E+02  0.12700000000E+01 0. -1.
         25    2    1    2    0    0  0.00000000000E+00  0.00000000000E+00  0.36851283368E+02  0.13031923518E+03  0.12500034389E+03 0.  0.
    9000005    1    3    3    0    0 -0.29626532765E+02 -0.51408159371E+02  0.38875093108E+02  0.70942252275E+02  0.10000000000E+01 0.  0.
    9000005    1    3    3    0    0  0.29626532765E+02  0.51408159371E+02 -0.20238097397E+01  0.59376982910E+02  0.10000000000E+01 0.  0.
<mgrwt>
<rscale>  0 0.12500034E+03</rscale>
<asrwt>0</asrwt>
<pdfrwt beam="2">  1        4 0.71898425E-02 0.12500034E+03</pdfrwt>
<pdfrwt beam="1">  1       -4 0.12859271E-01 0.12500034E+03</pdfrwt>
<totfact> 0.10337603E+04</totfact>
</mgrwt>
</event>
<event>
 5    1  0.3266101E-002  0.1249984E+03  0.7818608E-02  0.1235072E+00
         -4   -1    0    0    0  501 -0.00000000000E+00  0.00000000000E+00  0.20849218563E+02  0.20887862856E+02  0.12700000000E+01 0. -1.
          4   -1    0    0  501    0  0.00000000000E+00 -0.00000000000E+00 -0.18713793133E+03  0.18714224067E+03  0.12700000000E+01 0. -1.
         25    2    1    2    0    0  0.00000000000E+00  0.00000000000E+00 -0.16628871277E+03  0.20803010353E+03  0.12499835191E+03 0.  0.
    9000005    1    3    3    0    0  0.59994873184E+02  0.18680636504E+01 -0.54209506405E+02  0.80886000364E+02  0.10000000000E+01 0.  0.
    9000005    1    3    3    0    0 -0.59994873184E+02 -0.18680636504E+01 -0.11207920637E+03  0.12714410317E+03  0.10000000000E+01 0.  0.
<mgrwt>
<rscale>  0 0.12499835E+03</rscale>
<asrwt>0</asrwt>
<pdfrwt beam="2">  1        4 0.28793754E-01 0.12499835E+03</pdfrwt>
<pdfrwt beam="1">  1       -4 0.32108763E-02 0.12499835E+03</pdfrwt>
<totfact> 0.88801878E+03</totfact>
</mgrwt>
</event>
<event>
 5    1  0.3266101E-002  0.1249968E+03  0.7818608E-02  0.1235074E+00
          4   -1    0    0  501    0  0.00000000000E+00  0.00000000000E+00  0.33760472882E+03  0.33760711755E+03  0.12700000000E+01 0. -1.
         -4   -1    0    0    0  501 -0.00000000000E+00 -0.00000000000E+00 -0.11532607391E+02  0.11602324475E+02  0.12700000000E+01 0. -1.
         25    2    1    2    0    0  0.00000000000E+00  0.00000000000E+00  0.32607212142E+03  0.34920944202E+03  0.12499682407E+03 0.  0.
    9000005    1    3    3    0    0 -0.44066183943E+00  0.27804080343E+02  0.66912949115E+01  0.28618778698E+02  0.10000000000E+01 0.  0.
    9000005    1    3    3    0    0  0.44066183943E+00 -0.27804080343E+02  0.31938082651E+03  0.32059066332E+03  0.10000000000E+01 0.  0.
<mgrwt>
<rscale>  0 0.12499682E+03</rscale>
<asrwt>0</asrwt>
<pdfrwt beam="1">  1        4 0.51944727E-01 0.12499682E+03</pdfrwt>
<pdfrwt beam="2">  1       -4 0.17797942E-02 0.12499682E+03</pdfrwt>
<totfact> 0.69816526E+03</totfact>
</mgrwt>
</event>
<event>
 4    1  0.3266101E-002  0.1238822E+03  0.7818608E-02  0.1236827E+00
          4   -1    0    0  501    0  0.00000000000E+00  0.00000000000E+00  0.57598848397E+03  0.57598988408E+03  0.12700000000E+01 0.  1.
         -4   -1    0    0    0  501 -0.00000000000E+00 -0.00000000000E+00 -0.65991159074E+01  0.67202106187E+01  0.12700000000E+01 0.  1.
    9000005    1    1    2    0    0 -0.30175803872E+02 -0.23333752041E+02  0.51419962771E+03  0.51561351831E+03  0.10000000000E+01 0.  0.
    9000005    1    1    2    0    0  0.30175803872E+02  0.23333752041E+02  0.55189740346E+02  0.67096576389E+02  0.10000000000E+01 0.  0.
<mgrwt>
<rscale>  0 0.12388221E+03</rscale>
<asrwt>0</asrwt>
<pdfrwt beam="1">  1        4 0.88623085E-01 0.12388221E+03</pdfrwt>
<pdfrwt beam="2">  1       -4 0.10246707E-02 0.12388221E+03</pdfrwt>
<totfact> 0.51223124E+03</totfact>
</mgrwt>
</event>
<event>
 5    1  0.3266101E-002  0.1249948E+03  0.7818608E-02  0.1235077E+00
          4   -1    0    0  501    0  0.00000000000E+00  0.00000000000E+00  0.11567038010E+03  0.11567735186E+03  0.12700000000E+01 0.  1.
         -4   -1    0    0    0  501 -0.00000000000E+00 -0.00000000000E+00 -0.33747771793E+02  0.33771659731E+02  0.12700000000E+01 0.  1.
         25    2    1    2    0    0  0.00000000000E+00  0.00000000000E+00  0.81922608307E+02  0.14944901159E+03  0.12499477314E+03 0.  0.
    9000005    1    3    3    0    0 -0.44017819588E+02 -0.34407904695E+02  0.74950496946E+01  0.56379500855E+02  0.10000000000E+01 0.  0.
    9000005    1    3    3    0    0  0.44017819588E+02  0.34407904695E+02  0.74427558612E+02  0.93069510731E+02  0.10000000000E+01 0.  0.
<mgrwt>
<rscale>  0 0.12499477E+03</rscale>
<asrwt>0</asrwt>
<pdfrwt beam="1">  1        4 0.17797817E-01 0.12499477E+03</pdfrwt>
<pdfrwt beam="2">  1       -4 0.51943387E-02 0.12499477E+03</pdfrwt>
<totfact> 0.99425338E+03</totfact>
</mgrwt>
</event>
<event>
 5    1  0.3266101E-002  0.1249890E+03  0.7818608E-02  0.1235086E+00
         -4   -1    0    0    0  501 -0.00000000000E+00  0.00000000000E+00  0.10459746986E+03  0.10460517961E+03  0.12700000000E+01 0. -1.
          4   -1    0    0  501    0  0.00000000000E+00 -0.00000000000E+00 -0.37319113142E+02  0.37340716459E+02  0.12700000000E+01 0. -1.
         25    2    1    2    0    0  0.00000000000E+00  0.00000000000E+00  0.67278356718E+02  0.14194589607E+03  0.12498904003E+03 0.  0.
    9000005    1    3    3    0    0 -0.18190724138E+02  0.14833465563E+02  0.99406255125E+02  0.10214469004E+03  0.10000000000E+01 0.  0.
    9000005    1    3    3    0    0  0.18190724138E+02 -0.14833465563E+02 -0.32127898407E+02  0.39801206029E+02  0.10000000000E+01 0.  0.
<mgrwt>
<rscale>  0 0.12498904E+03</rscale>
<asrwt>0</asrwt>
<pdfrwt beam="2">  1        4 0.57436569E-02 0.12498904E+03</pdfrwt>
<pdfrwt beam="1">  1       -4 0.16094173E-01 0.12498904E+03</pdfrwt>
<totfact> 0.10095906E+04</totfact>
</mgrwt>
</event>
<event>
 5    1  0.3266101E-002  0.1249988E+03  0.7818608E-02  0.1235071E+00
         -4   -1    0    0    0  501 -0.00000000000E+00  0.00000000000E+00  0.82689475627E+01  0.83659066332E+01  0.12700000000E+01 0. -1.
          4   -1    0    0  501    0  0.00000000000E+00 -0.00000000000E+00 -0.46953923759E+03  0.46954095513E+03  0.12700000000E+01 0. -1.
         25    2    1    2    0    0  0.00000000000E+00  0.00000000000E+00 -0.46127029003E+03  0.47790686176E+03  0.12499875220E+03 0.  0.
    9000005    1    3    3    0    0 -0.31889754757E+02 -0.53530456548E+02 -0.24885335747E+03  0.25653744319E+03  0.10000000000E+01 0.  0.
    9000005    1    3    3    0    0  0.31889754757E+02  0.53530456548E+02 -0.21241693256E+03  0.22136941857E+03  0.10000000000E+01 0.  0.
<mgrwt>
<rscale>  0 0.12499875E+03</rscale>
<asrwt>0</asrwt>
<pdfrwt beam="2">  1        4 0.72244375E-01 0.12499875E+03</pdfrwt>
<pdfrwt beam="1">  1       -4 0.12797367E-02 0.12499875E+03</pdfrwt>
<totfact> 0.57621806E+03</totfact>
</mgrwt>
</event>
<event>
 5    1  0.3266101E-002  0.1249972E+03  0.7818608E-02  0.1235074E+00
          4   -1    0    0  501    0  0.00000000000E+00  0.00000000000E+00  0.51271668958E+01  0.52821151424E+01  0.12700000000E+01 0. -1.
         -4   -1    0    0    0  501 -0.00000000000E+00 -0.00000000000E+00 -0.75034351610E+03  0.75034459088E+03  0.12700000000E+01 0. -1.
         25    2    1    2    0    0  0.00000000000E+00  0.00000000000E+00 -0.74521634921E+03  0.75562670602E+03  0.12499724686E+03 0.  0.
    9000005    1    3    3    0    0  0.20453122575E+02  0.59048483579E+02 -0.37166592880E+03  0.37688408864E+03  0.10000000000E+01 0.  0.
    9000005    1    3    3    0    0 -0.20453122575E+02 -0.59048483579E+02 -0.37355042040E+03  0.37874261738E+03  0.10000000000E+01 0.  0.
<mgrwt>
<rscale>  0 0.12499725E+03</rscale>
<asrwt>0</asrwt>
<pdfrwt beam="1">  1        4 0.80079727E-03 0.12499725E+03</pdfrwt>
<pdfrwt beam="2">  1       -4 0.11544938E+00 0.12499725E+03</pdfrwt>
<totfact> 0.40308898E+03</totfact>
</mgrwt>
</event>
<event>
 5    1  0.3266101E-002  0.1250201E+03  0.7818608E-02  0.1235038E+00
          4   -1    0    0  501    0  0.00000000000E+00  0.00000000000E+00  0.12324079948E+02  0.12389344073E+02  0.12700000000E+01 0. -1.
         -4   -1    0    0    0  501 -0.00000000000E+00 -0.00000000000E+00 -0.31615895019E+03  0.31616150096E+03  0.12700000000E+01 0. -1.
         25    2    1    2    0    0  0.00000000000E+00  0.00000000000E+00 -0.30383487025E+03  0.32855084503E+03  0.12502011595E+03 0.  0.
    9000005    1    3    3    0    0 -0.58668042410E+02 -0.15996442046E+02 -0.18988084167E+03  0.19938294660E+03  0.10000000000E+01 0.  0.
    9000005    1    3    3    0    0  0.58668042410E+02  0.15996442046E+02 -0.11395402857E+03  0.12916789844E+03  0.10000000000E+01 0.  0.
<mgrwt>
<rscale>  0 0.12502012E+03</rscale>
<asrwt>0</asrwt>
<pdfrwt beam="1">  1        4 0.19012291E-02 0.12502012E+03</pdfrwt>
<pdfrwt beam="2">  1       -4 0.48645049E-01 0.12502012E+03</pdfrwt>
<totfact> 0.72118381E+03</totfact>
</mgrwt>
</event>
<event>
 5    1  0.3266101E-002  0.1250002E+03  0.7818608E-02  0.1235069E+00
          4   -1    0    0  501    0  0.00000000000E+00  0.00000000000E+00  0.16123702141E+03  0.16124202298E+03  0.12700000000E+01 0.  1.
         -4   -1    0    0    0  501 -0.00000000000E+00 -0.00000000000E+00 -0.24204813124E+02  0.24238107978E+02  0.12700000000E+01 0.  1.
         25    2    1    2    0    0  0.00000000000E+00  0.00000000000E+00  0.13703220829E+03  0.18548013095E+03  0.12500021148E+03 0.  0.
    9000005    1    3    3    0    0 -0.51917765304E+02 -0.18695921329E+02  0.11203765731E+03  0.12489366871E+03  0.10000000000E+01 0.  0.
    9000005    1    3    3    0    0  0.51917765304E+02  0.18695921329E+02  0.24994550974E+02  0.60586462241E+02  0.10000000000E+01 0.  0.
<mgrwt>
<rscale>  0 0.12500021E+03</rscale>
<asrwt>0</asrwt>
<pdfrwt beam="1">  1        4 0.24808643E-01 0.12500021E+03</pdfrwt>
<pdfrwt beam="2">  1       -4 0.37267631E-02 0.12500021E+03</pdfrwt>
<totfact> 0.92639318E+03</totfact>
</mgrwt>
</event>
<event>
 5    1  0.3266101E-002  0.1249997E+03  0.7818608E-02  0.1235070E+00
          4   -1    0    0  501    0  0.00000000000E+00  0.00000000000E+00  0.95158659344E+01  0.96002398138E+01  0.12700000000E+01 0.  1.
         -4   -1    0    0    0  501 -0.00000000000E+00 -0.00000000000E+00 -0.40859934317E+03  0.40860131686E+03  0.12700000000E+01 0.  1.
         25    2    1    2    0    0  0.00000000000E+00  0.00000000000E+00 -0.39908347723E+03  0.41820155667E+03  0.12499968080E+03 0.  0.
    9000005    1    3    3    0    0  0.18799040556E+02 -0.95245099416E+00 -0.17756284614E+00  0.18850533607E+02  0.10000000000E+01 0.  0.
    9000005    1    3    3    0    0 -0.18799040556E+02  0.95245099416E+00 -0.39890591439E+03  0.39935102306E+03  0.10000000000E+01 0.  0.
<mgrwt>
<rscale>  0 0.12499968E+03</rscale>
<asrwt>0</asrwt>
<pdfrwt beam="1">  1        4 0.14706218E-02 0.12499968E+03</pdfrwt>
<pdfrwt beam="2">  1       -4 0.62868066E-01 0.12499968E+03</pdfrwt>
<totfact> 0.62820654E+03</totfact>
</mgrwt>
</event>
<event>
 5    1  0.3266101E-002  0.1249977E+03  0.7818608E-02  0.1235073E+00
          4   -1    0    0  501    0  0.00000000000E+00  0.00000000000E+00  0.30001914006E+02  0.30028781928E+02  0.12700000000E+01 0. -1.
         -4   -1    0    0    0  501 -0.00000000000E+00 -0.00000000000E+00 -0.13010691256E+03  0.13011311078E+03  0.12700000000E+01 0. -1.
         25    2    1    2    0    0  0.00000000000E+00  0.00000000000E+00 -0.10010499856E+03  0.16014189271E+03  0.12499766023E+03 0.  0.
    9000005    1    3    3    0    0 -0.98952050972E+01 -0.48769065423E+02 -0.16259225802E+01  0.49799402109E+02  0.10000000000E+01 0.  0.
    9000005    1    3    3    0    0  0.98952050972E+01  0.48769065423E+02 -0.98479075976E+02  0.11034249060E+03  0.10000000000E+01 0.  0.
<mgrwt>
<rscale>  0 0.12499766E+03</rscale>
<asrwt>0</asrwt>
<pdfrwt beam="1">  1        4 0.46182227E-02 0.12499766E+03</pdfrwt>
<pdfrwt beam="2">  1       -4 0.20018991E-01 0.12499766E+03</pdfrwt>
<totfact> 0.97320554E+03</totfact>
</mgrwt>
</event>
<event>
 5    1  0.3266101E-002  0.1249702E+03  0.7818608E-02  0.1235116E+00
         -4   -1    0    0    0  501 -0.00000000000E+00  0.00000000000E+00  0.48922529846E+03  0.48922694688E+03  0.12700000000E+01 0.  1.
          4   -1    0    0  501    0  0.00000000000E+00 -0.00000000000E+00 -0.79285585011E+01  0.80296288772E+01  0.12700000000E+01 0.  1.
         25    2    1    2    0    0  0.00000000000E+00  0.00000000000E+00  0.48129673996E+03  0.49725657576E+03  0.12497019740E+03 0.  0.
    9000005    1    3    3    0    0  0.49789366562E+02  0.28685971341E+02  0.33823710472E+03  0.34308483643E+03  0.10000000000E+01 0.  0.
    9000005    1    3    3    0    0 -0.49789366562E+02 -0.28685971341E+02  0.14305963524E+03  0.15417173934E+03  0.10000000000E+01 0.  0.
<mgrwt>
<rscale>  0 0.12497020E+03</rscale>
<asrwt>0</asrwt>
<pdfrwt beam="2">  1        4 0.12276791E-02 0.12497020E+03</pdfrwt>
<pdfrwt beam="1">  1       -4 0.75273369E-01 0.12497020E+03</pdfrwt>
<totfact> 0.56114600E+03</totfact>
</mgrwt>
</event>
<event>
 5    1  0.3266101E-002  0.1249425E+03  0.7818608E-02  0.1235159E+00
         -4   -1    0    0    0  501 -0.00000000000E+00  0.00000000000E+00  0.14376482087E+02  0.14432468160E+02  0.12700000000E+01 0.  1.
          4   -1    0    0  501    0  0.00000000000E+00 -0.00000000000E+00 -0.27087606091E+03  0.27087903809E+03  0.12700000000E+01 0.  1.
         25    2    1    2    0    0  0.00000000000E+00  0.00000000000E+00 -0.25649957883E+03  0.28531150625E+03  0.12494247340E+03 0.  0.
    9000005    1    3    3    0    0 -0.11592606580E+01 -0.26771980486E+02 -0.25709449156E+03  0.25848918820E+03  0.10000000000E+01 0.  0.
    9000005    1    3    3    0    0  0.11592606580E+01  0.26771980486E+02  0.59491273443E+00  0.26822318050E+02  0.10000000000E+01 0.  0.
<mgrwt>
<rscale>  0 0.12494247E+03</rscale>
<asrwt>0</asrwt>
<pdfrwt beam="2">  1        4 0.41677772E-01 0.12494247E+03</pdfrwt>
<pdfrwt beam="1">  1       -4 0.22163023E-02 0.12494247E+03</pdfrwt>
<totfact> 0.77578193E+03</totfact>
</mgrwt>
</event>
<event>
 5    1  0.3266101E-002  0.1250001E+03  0.7818608E-02  0.1235069E+00
         -4   -1    0    0    0  501 -0.00000000000E+00  0.00000000000E+00  0.19482506153E+03  0.19482920084E+03  0.12700000000E+01 0.  1.
          4   -1    0    0  501    0  0.00000000000E+00 -0.00000000000E+00 -0.20025611609E+02  0.20065842128E+02  0.12700000000E+01 0.  1.
         25    2    1    2    0    0  0.00000000000E+00  0.00000000000E+00  0.17479944992E+03  0.21489504296E+03  0.12500012720E+03 0.  0.
    9000005    1    3    3    0    0  0.44823043294E+01 -0.15421494652E+02  0.19122529625E+03  0.19190108774E+03  0.10000000000E+01 0.  0.
    9000005    1    3    3    0    0 -0.44823043294E+01  0.15421494652E+02 -0.16425846330E+02  0.22993955228E+02  0.10000000000E+01 0.  0.
<mgrwt>
<rscale>  0 0.12500013E+03</rscale>
<asrwt>0</asrwt>
<pdfrwt beam="2">  1        4 0.30842765E-02 0.12500013E+03</pdfrwt>
<pdfrwt beam="1">  1       -4 0.29976499E-01 0.12500013E+03</pdfrwt>
<totfact> 0.87682395E+03</totfact>
</mgrwt>
</event>
<event>
 5    1  0.3266101E-002  0.1250016E+03  0.7818608E-02  0.1235067E+00
         -4   -1    0    0    0  501 -0.00000000000E+00  0.00000000000E+00  0.58202630861E+02  0.58216485115E+02  0.12700000000E+01 0.  1.
          4   -1    0    0  501    0  0.00000000000E+00 -0.00000000000E+00 -0.67088548877E+02  0.67100568481E+02  0.12700000000E+01 0.  1.
         25    2    1    2    0    0  0.00000000000E+00  0.00000000000E+00 -0.88859180157E+01  0.12531705360E+03  0.12500161752E+03 0.  0.
    9000005    1    3    3    0    0  0.17503728213E+01 -0.12910340345E+02 -0.65716831802E+02  0.67003303463E+02  0.10000000000E+01 0.  0.
    9000005    1    3    3    0    0 -0.17503728213E+01  0.12910340345E+02  0.56830913786E+02  0.58313750133E+02  0.10000000000E+01 0.  0.
<mgrwt>
<rscale>  0 0.12500162E+03</rscale>
<asrwt>0</asrwt>
<pdfrwt beam="2">  1        4 0.10323305E-01 0.12500162E+03</pdfrwt>
<pdfrwt beam="1">  1       -4 0.89562413E-02 0.12500162E+03</pdfrwt>
<totfact> 0.10445598E+04</totfact>
</mgrwt>
</event>
<event>
 5    1  0.3266101E-002  0.1249932E+03  0.7818608E-02  0.1235080E+00
          4   -1    0    0  501    0  0.00000000000E+00  0.00000000000E+00  0.19092511477E+02  0.19134703930E+02  0.12700000000E+01 0.  1.
         -4   -1    0    0    0  501 -0.00000000000E+00 -0.00000000000E+00 -0.20430370374E+03  0.20430765102E+03  0.12700000000E+01 0.  1.
         25    2    1    2    0    0  0.00000000000E+00  0.00000000000E+00 -0.18521119227E+03  0.22344235495E+03  0.12499320079E+03 0.  0.
    9000005    1    3    3    0    0  0.43072787571E+02  0.33459069144E+02 -0.14712265623E+03  0.15691032571E+03  0.10000000000E+01 0.  0.
    9000005    1    3    3    0    0 -0.43072787571E+02 -0.33459069144E+02 -0.38088536033E+02  0.66532029236E+02  0.10000000000E+01 0.  0.
<mgrwt>
<rscale>  0 0.12499320E+03</rscale>
<asrwt>0</asrwt>
<pdfrwt beam="1">  1        4 0.29408588E-02 0.12499320E+03</pdfrwt>
<pdfrwt beam="2">  1       -4 0.31434887E-01 0.12499320E+03</pdfrwt>
<totfact> 0.86339664E+03</totfact>
</mgrwt>
</event>
<event>
 5    1  0.3266101E-002  0.1250056E+03  0.7818608E-02  0.1235061E+00
         -4   -1    0    0    0  501 -0.00000000000E+00  0.00000000000E+00  0.30273389324E+02  0.30300016521E+02  0.12700000000E+01 0.  1.
          4   -1    0    0  501    0  0.00000000000E+00 -0.00000000000E+00 -0.12895754346E+03  0.12896379692E+03  0.12700000000E+01 0.  1.
         25    2    1    2    0    0  0.00000000000E+00  0.00000000000E+00 -0.98684154138E+02  0.15926381344E+03  0.12500559985E+03 0.  0.
    9000005    1    3    3    0    0  0.42128518730E+02  0.13571180133E+01  0.94433907863E+01  0.43206845398E+02  0.10000000000E+01 0.  0.
    9000005    1    3    3    0    0 -0.42128518730E+02 -0.13571180133E+01 -0.10812754492E+03  0.11605696804E+03  0.10000000000E+01 0.  0.
<mgrwt>
<rscale>  0 0.12500560E+03</rscale>
<asrwt>0</asrwt>
<pdfrwt beam="2">  1        4 0.19842151E-01 0.12500560E+03</pdfrwt>
<pdfrwt beam="1">  1       -4 0.46599739E-02 0.12500560E+03</pdfrwt>
<totfact> 0.97472633E+03</totfact>
</mgrwt>
</event>
<event>
 5    1  0.3266101E-002  0.1249926E+03  0.7818608E-02  0.1235081E+00
          4   -1    0    0  501    0  0.00000000000E+00  0.00000000000E+00  0.55870962204E+02  0.55885394492E+02  0.12700000000E+01 0.  1.
         -4   -1    0    0    0  501 -0.00000000000E+00 -0.00000000000E+00 -0.69878042414E+02  0.69889582282E+02  0.12700000000E+01 0.  1.
         25    2    1    2    0    0  0.00000000000E+00  0.00000000000E+00 -0.14007080210E+02  0.12577497677E+03  0.12499258573E+03 0.  0.
    9000005    1    3    3    0    0  0.59598797947E+02  0.13603926416E+02 -0.20034623589E+02  0.64338710532E+02  0.10000000000E+01 0.  0.
    9000005    1    3    3    0    0 -0.59598797947E+02 -0.13603926416E+02  0.60275433789E+01  0.61436266242E+02  0.10000000000E+01 0.  0.
<mgrwt>
<rscale>  0 0.12499259E+03</rscale>
<asrwt>0</asrwt>
<pdfrwt beam="1">  1        4 0.85975305E-02 0.12499259E+03</pdfrwt>
<pdfrwt beam="2">  1       -4 0.10752466E-01 0.12499259E+03</pdfrwt>
<totfact> 0.10437641E+04</totfact>
</mgrwt>
</event>
<event>
 5    1  0.3266101E-002  0.1250024E+03  0.7818608E-02  0.1235066E+00
          4   -1    0    0  501    0  0.00000000000E+00  0.00000000000E+00  0.75334541877E+02  0.75345246033E+02  0.12700000000E+01 0.  1.
         -4   -1    0    0    0  501 -0.00000000000E+00 -0.00000000000E+00 -0.51831872781E+02  0.51847429406E+02  0.12700000000E+01 0.  1.
         25    2    1    2    0    0  0.00000000000E+00  0.00000000000E+00  0.23502669096E+02  0.12719267544E+03  0.12500240490E+03 0.  0.
    9000005    1    3    3    0    0  0.53056263257E+02 -0.28615531678E+02  0.28519914700E+02  0.66694836821E+02  0.10000000000E+01 0.  0.
    9000005    1    3    3    0    0 -0.53056263257E+02  0.28615531678E+02 -0.50172456043E+01  0.60497838618E+02  0.10000000000E+01 0.  0.
<mgrwt>
<rscale>  0 0.12500240E+03</rscale>
<asrwt>0</asrwt>
<pdfrwt beam="1">  1        4 0.11591950E-01 0.12500240E+03</pdfrwt>
<pdfrwt beam="2">  1       -4 0.79761544E-02 0.12500240E+03</pdfrwt>
<totfact> 0.10404398E+04</totfact>
</mgrwt>
</event>
<event>
 5    1  0.3266101E-002  0.1249930E+03  0.7818608E-02  0.1235080E+00
          4   -1    0    0  501    0  0.00000000000E+00  0.00000000000E+00  0.38341742800E+02  0.38362770246E+02  0.12700000000E+01 0.  1.
         -4   -1    0    0    0  501 -0.00000000000E+00 -0.00000000000E+00 -0.10181542775E+03  0.10182334814E+03  0.12700000000E+01 0.  1.
         25    2    1    2    0    0  0.00000000000E+00  0.00000000000E+00 -0.63473684946E+02  0.14018611839E+03  0.12499295624E+03 0.  0.
    9000005    1    3    3    0    0 -0.54699601535E+02  0.26321301247E+02 -0.15103332904E+02  0.62561713310E+02  0.10000000000E+01 0.  0.
    9000005    1    3    3    0    0  0.54699601535E+02 -0.26321301247E+02 -0.48370352042E+02  0.77624405080E+02  0.10000000000E+01 0.  0.
<mgrwt>
<rscale>  0 0.12499296E+03</rscale>
<asrwt>0</asrwt>
<pdfrwt beam="1">  1        4 0.59009564E-02 0.12499296E+03</pdfrwt>
<pdfrwt beam="2">  1       -4 0.15666139E-01 0.12499296E+03</pdfrwt>
<totfact> 0.10131337E+04</totfact>
</mgrwt>
</event>
<event>
 5    1  0.3266101E-002  0.1249995E+03  0.7818608E-02  0.1235070E+00
          4   -1    0    0  501    0  0.00000000000E+00  0.00000000000E+00  0.29441846871E+03  0.29442120783E+03  0.12700000000E+01 0. -1.
         -4   -1    0    0    0  501 -0.00000000000E+00 -0.00000000000E+00 -0.13234379733E+02  0.13295176077E+02  0.12700000000E+01 0. -1.
         25    2    1    2    0    0  0.00000000000E+00  0.00000000000E+00  0.28118408898E+03  0.30771638390E+03  0.12499952411E+03 0.  0.
    9000005    1    3    3    0    0 -0.25708977036E+02 -0.55857069382E+02  0.11315091909E+03  0.12878312851E+03  0.10000000000E+01 0.  0.
    9000005    1    3    3    0    0  0.25708977036E+02  0.55857069382E+02  0.16803316989E+03  0.17893325539E+03  0.10000000000E+01 0.  0.
<mgrwt>
<rscale>  0 0.12499952E+03</rscale>
<asrwt>0</asrwt>
<pdfrwt beam="1">  1        4 0.45300033E-01 0.12499952E+03</pdfrwt>
<pdfrwt beam="2">  1       -4 0.20409459E-02 0.12499952E+03</pdfrwt>
<totfact> 0.74641782E+03</totfact>
</mgrwt>
</event>
<event>
 5    1  0.3266101E-002  0.1250046E+03  0.7818608E-02  0.1235062E+00
         -4   -1    0    0    0  501 -0.00000000000E+00  0.00000000000E+00  0.11498704600E+03  0.11499405918E+03  0.12700000000E+01 0.  1.
          4   -1    0    0  501    0  0.00000000000E+00 -0.00000000000E+00 -0.33953801361E+02  0.33977544450E+02  0.12700000000E+01 0.  1.
         25    2    1    2    0    0  0.00000000000E+00  0.00000000000E+00  0.81033244636E+02  0.14897160363E+03  0.12500460772E+03 0.  0.
    9000005    1    3    3    0    0 -0.15646077831E+02  0.56470223541E+02  0.66403544172E+02  0.88567017432E+02  0.10000000000E+01 0.  0.
    9000005    1    3    3    0    0  0.15646077831E+02 -0.56470223541E+02  0.14629700464E+02  0.60404586199E+02  0.10000000000E+01 0.  0.
<mgrwt>
<rscale>  0 0.12500461E+03</rscale>
<asrwt>0</asrwt>
<pdfrwt beam="2">  1        4 0.52260276E-02 0.12500461E+03</pdfrwt>
<pdfrwt beam="1">  1       -4 0.17692681E-01 0.12500461E+03</pdfrwt>
<totfact> 0.99498770E+03</totfact>
</mgrwt>
</event>
<event>
 5    1  0.3266101E-002  0.1250031E+03  0.7818608E-02  0.1235064E+00
          4   -1    0    0  501    0  0.00000000000E+00  0.00000000000E+00  0.78832854066E+01  0.79849288539E+01  0.12700000000E+01 0. -1.
         -4   -1    0    0    0  501 -0.00000000000E+00 -0.00000000000E+00 -0.49225866039E+03  0.49226029865E+03  0.12700000000E+01 0. -1.
         25    2    1    2    0    0  0.00000000000E+00  0.00000000000E+00 -0.48437537498E+03  0.50024522751E+03  0.12500313497E+03 0.  0.
    9000005    1    3    3    0    0 -0.42070913164E+02  0.65738833252E+01 -0.42523810877E+03  0.42736591678E+03  0.10000000000E+01 0.  0.
    9000005    1    3    3    0    0  0.42070913164E+02 -0.65738833252E+01 -0.59137266212E+02  0.72879310722E+02  0.10000000000E+01 0.  0.
<mgrwt>
<rscale>  0 0.12500313E+03</rscale>
<asrwt>0</asrwt>
<pdfrwt beam="1">  1        4 0.12207583E-02 0.12500313E+03</pdfrwt>
<pdfrwt beam="2">  1       -4 0.75740023E-01 0.12500313E+03</pdfrwt>
<totfact> 0.55841506E+03</totfact>
</mgrwt>
</event>
<event>
 5    1  0.3266101E-002  0.1250001E+03  0.7818608E-02  0.1235069E+00
         -4   -1    0    0    0  501 -0.00000000000E+00  0.00000000000E+00  0.33909848461E+02  0.33933622304E+02  0.12700000000E+01 0.  1.
          4   -1    0    0  501    0  0.00000000000E+00 -0.00000000000E+00 -0.11512763351E+03  0.11513463813E+03  0.12700000000E+01 0.  1.
         25    2    1    2    0    0  0.00000000000E+00  0.00000000000E+00 -0.81217785053E+02  0.14906826044E+03  0.12500007065E+03 0.  0.
    9000005    1    3    3    0    0 -0.47335216845E+02 -0.38251042251E+02 -0.57536713499E+02  0.83757019929E+02  0.10000000000E+01 0.  0.
    9000005    1    3    3    0    0  0.47335216845E+02  0.38251042251E+02 -0.23681071554E+02  0.65311240510E+02  0.10000000000E+01 0.  0.
<mgrwt>
<rscale>  0 0.12500007E+03</rscale>
<asrwt>0</asrwt>
<pdfrwt beam="2">  1        4 0.17714311E-01 0.12500007E+03</pdfrwt>
<pdfrwt beam="1">  1       -4 0.52192674E-02 0.12500007E+03</pdfrwt>
<totfact> 0.99489593E+03</totfact>
</mgrwt>
</event>
<event>
 5    1  0.3266101E-002  0.1250045E+03  0.7818608E-02  0.1235062E+00
          4   -1    0    0  501    0  0.00000000000E+00  0.00000000000E+00  0.65478853001E+01  0.66699101871E+01  0.12700000000E+01 0.  1.
         -4   -1    0    0    0  501 -0.00000000000E+00 -0.00000000000E+00 -0.59097866594E+03  0.59098003054E+03  0.12700000000E+01 0.  1.
         25    2    1    2    0    0  0.00000000000E+00  0.00000000000E+00 -0.58443078064E+03  0.59764994073E+03  0.12500445708E+03 0.  0.
    9000005    1    3    3    0    0  0.43623856290E+02 -0.41296741977E+02 -0.37461942358E+03  0.37940634452E+03  0.10000000000E+01 0.  0.
    9000005    1    3    3    0    0 -0.43623856290E+02  0.41296741977E+02 -0.20981135706E+03  0.21824359621E+03  0.10000000000E+01 0.  0.
<mgrwt>
<rscale>  0 0.12500446E+03</rscale>
<asrwt>0</asrwt>
<pdfrwt beam="1">  1        4 0.10168589E-02 0.12500446E+03</pdfrwt>
<pdfrwt beam="2">  1       -4 0.90929245E-01 0.12500446E+03</pdfrwt>
<totfact> 0.49011516E+03</totfact>
</mgrwt>
</event>
<event>
 5    1  0.3266101E-002  0.1249966E+03  0.7818608E-02  0.1235075E+00
         -4   -1    0    0    0  501 -0.00000000000E+00  0.00000000000E+00  0.21776859961E+02  0.21813860955E+02  0.12700000000E+01 0. -1.
          4   -1    0    0  501    0  0.00000000000E+00 -0.00000000000E+00 -0.17917484076E+03  0.17917934162E+03  0.12700000000E+01 0. -1.
         25    2    1    2    0    0  0.00000000000E+00  0.00000000000E+00 -0.15739798080E+03  0.20099320257E+03  0.12499657243E+03 0.  0.
    9000005    1    3    3    0    0 -0.43749096975E+02 -0.37509365924E+02 -0.39836844270E+02  0.70063615233E+02  0.10000000000E+01 0.  0.
    9000005    1    3    3    0    0  0.43749096975E+02  0.37509365924E+02 -0.11756113653E+03  0.13092958734E+03  0.10000000000E+01 0.  0.
<mgrwt>
<rscale>  0 0.12499657E+03</rscale>
<asrwt>0</asrwt>
<pdfrwt beam="2">  1        4 0.27568552E-01 0.12499657E+03</pdfrwt>
<pdfrwt beam="1">  1       -4 0.33534787E-02 0.12499657E+03</pdfrwt>
<totfact> 0.89975165E+03</totfact>
</mgrwt>
</event>
<event>
 5    1  0.3266101E-002  0.1250006E+03  0.7818608E-02  0.1235068E+00
          4   -1    0    0  501    0  0.00000000000E+00  0.00000000000E+00  0.26645645497E+03  0.26645948152E+03  0.12700000000E+01 0. -1.
         -4   -1    0    0    0  501 -0.00000000000E+00 -0.00000000000E+00 -0.14629505996E+02  0.14684527425E+02  0.12700000000E+01 0. -1.
         25    2    1    2    0    0  0.00000000000E+00  0.00000000000E+00  0.25182694897E+03  0.28114400895E+03  0.12500056616E+03 0.  0.
    9000005    1    3    3    0    0  0.17835895057E+02 -0.57547746255E+02  0.88586992418E+02  0.10713784335E+03  0.10000000000E+01 0.  0.
    9000005    1    3    3    0    0 -0.17835895057E+02  0.57547746255E+02  0.16323995655E+03  0.17400616560E+03  0.10000000000E+01 0.  0.
<mgrwt>
<rscale>  0 0.12500057E+03</rscale>
<asrwt>0</asrwt>
<pdfrwt beam="1">  1        4 0.40997761E-01 0.12500057E+03</pdfrwt>
<pdfrwt beam="2">  1       -4 0.22551587E-02 0.12500057E+03</pdfrwt>
<totfact> 0.78025683E+03</totfact>
</mgrwt>
</event>
<event>
 5    1  0.3266101E-002  0.1250042E+03  0.7818608E-02  0.1235063E+00
         -4   -1    0    0    0  501 -0.00000000000E+00  0.00000000000E+00  0.12320766309E+02  0.12386047895E+02  0.12700000000E+01 0. -1.
          4   -1    0    0  501    0  0.00000000000E+00 -0.00000000000E+00 -0.31616286004E+03  0.31616541078E+03  0.12700000000E+01 0. -1.
         25    2    1    2    0    0  0.00000000000E+00  0.00000000000E+00 -0.30384209373E+03  0.32855145867E+03  0.12500417221E+03 0.  0.
    9000005    1    3    3    0    0  0.21106461435E+02 -0.23494026124E+02 -0.29365714804E+03  0.29535228554E+03  0.10000000000E+01 0.  0.
    9000005    1    3    3    0    0 -0.21106461435E+02  0.23494026124E+02 -0.10184945693E+02  0.33199173131E+02  0.10000000000E+01 0.  0.
<mgrwt>
<rscale>  0 0.12500417E+03</rscale>
<asrwt>0</asrwt>
<pdfrwt beam="2">  1        4 0.48645652E-01 0.12500417E+03</pdfrwt>
<pdfrwt beam="1">  1       -4 0.19007206E-02 0.12500417E+03</pdfrwt>
<totfact> 0.72143788E+03</totfact>
</mgrwt>
</event>
<event>
 5    1  0.3266101E-002  0.1250055E+03  0.7818608E-02  0.1235061E+00
          4   -1    0    0  501    0  0.00000000000E+00  0.00000000000E+00  0.78016429361E+02  0.78026765601E+02  0.12700000000E+01 0. -1.
         -4   -1    0    0    0  501 -0.00000000000E+00 -0.00000000000E+00 -0.50052289118E+02  0.50068398676E+02  0.12700000000E+01 0. -1.
         25    2    1    2    0    0  0.00000000000E+00  0.00000000000E+00  0.27964140243E+02  0.12809516428E+03  0.12500551176E+03 0.  0.
    9000005    1    3    3    0    0  0.18679473838E+02  0.59342585892E+02  0.20055555770E+02  0.65373469852E+02  0.10000000000E+01 0.  0.
    9000005    1    3    3    0    0 -0.18679473838E+02 -0.59342585892E+02  0.79085844721E+01  0.62721694425E+02  0.10000000000E+01 0.  0.
<mgrwt>
<rscale>  0 0.12500551E+03</rscale>
<asrwt>0</asrwt>
<pdfrwt beam="1">  1        4 0.12004562E-01 0.12500551E+03</pdfrwt>
<pdfrwt beam="2">  1       -4 0.77023865E-02 0.12500551E+03</pdfrwt>
<totfact> 0.10384141E+04</totfact>
</mgrwt>
</event>
<event>
 5    1  0.3266101E-002  0.1250028E+03  0.7818608E-02  0.1235065E+00
         -4   -1    0    0    0  501 -0.00000000000E+00  0.00000000000E+00  0.21821338764E+02  0.21858264466E+02  0.12700000000E+01 0.  1.
          4   -1    0    0  501    0  0.00000000000E+00 -0.00000000000E+00 -0.17882816001E+03  0.17883266959E+03  0.12700000000E+01 0.  1.
         25    2    1    2    0    0  0.00000000000E+00  0.00000000000E+00 -0.15700682124E+03  0.20069093405E+03  0.12500283634E+03 0.  0.
    9000005    1    3    3    0    0  0.21547501485E+02  0.38086317861E+02 -0.68732290886E+01  0.44306926169E+02  0.10000000000E+01 0.  0.
    9000005    1    3    3    0    0 -0.21547501485E+02 -0.38086317861E+02 -0.15013359215E+03  0.15638400788E+03  0.10000000000E+01 0.  0.
<mgrwt>
<rscale>  0 0.12500284E+03</rscale>
<asrwt>0</asrwt>
<pdfrwt beam="2">  1        4 0.27515211E-01 0.12500284E+03</pdfrwt>
<pdfrwt beam="1">  1       -4 0.33603165E-02 0.12500284E+03</pdfrwt>
<totfact> 0.90013393E+03</totfact>
</mgrwt>
</event>
<event>
 5    1  0.3266101E-002  0.1250010E+03  0.7818608E-02  0.1235068E+00
          4   -1    0    0  501    0  0.00000000000E+00  0.00000000000E+00  0.67190710039E+02  0.67202711371E+02  0.12700000000E+01 0.  1.
         -4   -1    0    0    0  501 -0.00000000000E+00 -0.00000000000E+00 -0.58113581098E+02  0.58127456576E+02  0.12700000000E+01 0.  1.
         25    2    1    2    0    0  0.00000000000E+00  0.00000000000E+00  0.90771289416E+01  0.12533016795E+03  0.12500102691E+03 0.  0.
    9000005    1    3    3    0    0  0.19898431424E+02 -0.40501458163E+01 -0.54718349331E+02  0.58373358716E+02  0.10000000000E+01 0.  0.
    9000005    1    3    3    0    0 -0.19898431424E+02  0.40501458163E+01  0.63795478273E+02  0.66956809231E+02  0.10000000000E+01 0.  0.
<mgrwt>
<rscale>  0 0.12500103E+03</rscale>
<asrwt>0</asrwt>
<pdfrwt beam="1">  1        4 0.10339023E-01 0.12500103E+03</pdfrwt>
<pdfrwt beam="2">  1       -4 0.89425415E-02 0.12500103E+03</pdfrwt>
<totfact> 0.10445453E+04</totfact>
</mgrwt>
</event>
<event>
 5    1  0.3266101E-002  0.1249985E+03  0.7818608E-02  0.1235072E+00
         -4   -1    0    0    0  501 -0.00000000000E+00  0.00000000000E+00  0.36175780029E+02  0.36198065704E+02  0.12700000000E+01 0. -1.
          4   -1    0    0  501    0  0.00000000000E+00 -0.00000000000E+00 -0.10791780966E+03  0.10792528222E+03  0.12700000000E+01 0. -1.
         25    2    1    2    0    0  0.00000000000E+00  0.00000000000E+00 -0.71742029636E+02  0.14412334793E+03  0.12499848240E+03 0.  0.
    9000005    1    3    3    0    0 -0.14192610954E+02 -0.66660162166E+01  0.33876376219E+02  0.37342667870E+02  0.10000000000E+01 0.  0.
    9000005    1    3    3    0    0  0.14192610954E+02  0.66660162166E+01 -0.10561840586E+03  0.10678068006E+03  0.10000000000E+01 0.  0.
<mgrwt>
<rscale>  0 0.12499848E+03</rscale>
<asrwt>0</asrwt>
<pdfrwt beam="2">  1        4 0.16605029E-01 0.12499848E+03</pdfrwt>
<pdfrwt beam="1">  1       -4 0.55677938E-02 0.12499848E+03</pdfrwt>
<totfact> 0.10049174E+04</totfact>
</mgrwt>
</event>
<event>
 5    1  0.3266101E-002  0.1250030E+03  0.7818608E-02  0.1235065E+00
          4   -1    0    0  501    0  0.00000000000E+00  0.00000000000E+00  0.18037449535E+01  0.22059909014E+01  0.12700000000E+01 0.  1.
         -4   -1    0    0    0  501 -0.00000000000E+00 -0.00000000000E+00 -0.19480748289E+04  0.19480752428E+04  0.12700000000E+01 0.  1.
         25    2    1    2    0    0  0.00000000000E+00  0.00000000000E+00 -0.19462710839E+04  0.19502812337E+04  0.12500303438E+03 0.  0.
    9000005    1    3    3    0    0 -0.19710510665E+02  0.37230440926E+02 -0.16933321242E+04  0.16938563377E+04  0.10000000000E+01 0.  0.
    9000005    1    3    3    0    0  0.19710510665E+02 -0.37230440926E+02 -0.25293895972E+03  0.25642489603E+03  0.10000000000E+01 0.  0.
<mgrwt>
<rscale>  0 0.12500303E+03</rscale>
<asrwt>0</asrwt>
<pdfrwt beam="1">  1        4 0.30847462E-03 0.12500303E+03</pdfrwt>
<pdfrwt beam="2">  1       -4 0.29973328E+00 0.12500303E+03</pdfrwt>
<totfact> 0.10523640E+03</totfact>
</mgrwt>
</event>
<event>
 5    1  0.3266101E-002  0.1250004E+03  0.7818608E-02  0.1235069E+00
         -4   -1    0    0    0  501 -0.00000000000E+00  0.00000000000E+00  0.14247348346E+02  0.14303839865E+02  0.12700000000E+01 0.  1.
          4   -1    0    0  501    0  0.00000000000E+00 -0.00000000000E+00 -0.27357530982E+03  0.27357825762E+03  0.12700000000E+01 0.  1.
         25    2    1    2    0    0  0.00000000000E+00  0.00000000000E+00 -0.25932796147E+03  0.28788209749E+03  0.12500044180E+03 0.  0.
    9000005    1    3    3    0    0  0.33281205381E+02  0.52793580946E+02 -0.12220950212E+03  0.13722595683E+03  0.10000000000E+01 0.  0.
    9000005    1    3    3    0    0 -0.33281205381E+02 -0.52793580946E+02 -0.13711845935E+03  0.15065614065E+03  0.10000000000E+01 0.  0.
<mgrwt>
<rscale>  0 0.12500044E+03</rscale>
<asrwt>0</asrwt>
<pdfrwt beam="2">  1        4 0.42093078E-01 0.12500044E+03</pdfrwt>
<pdfrwt beam="1">  1       -4 0.21964722E-02 0.12500044E+03</pdfrwt>
<totfact> 0.77143715E+03</totfact>
</mgrwt>
</event>
<event>
 5    1  0.3266101E-002  0.1250007E+03  0.7818608E-02  0.1235068E+00
          4   -1    0    0  501    0  0.00000000000E+00  0.00000000000E+00  0.91046378841E+03  0.91046467417E+03  0.12700000000E+01 0. -1.
         -4   -1    0    0    0  501 -0.00000000000E+00 -0.00000000000E+00 -0.41955529867E+01  0.43835561893E+01  0.12700000000E+01 0. -1.
         25    2    1    2    0    0  0.00000000000E+00  0.00000000000E+00  0.90626823543E+03  0.91484823036E+03  0.12500068019E+03 0.  0.
    9000005    1    3    3    0    0  0.51635640244E+02  0.35190317282E+02  0.45923436326E+03  0.46346714897E+03  0.10000000000E+01 0.  0.
    9000005    1    3    3    0    0 -0.51635640244E+02 -0.35190317282E+02  0.44703387216E+03  0.45138108139E+03  0.10000000000E+01 0.  0.
<mgrwt>
<rscale>  0 0.12500068E+03</rscale>
<asrwt>0</asrwt>
<pdfrwt beam="1">  1        4 0.14008591E+00 0.12500068E+03</pdfrwt>
<pdfrwt beam="2">  1       -4 0.65999947E-03 0.12500068E+03</pdfrwt>
<totfact> 0.33597205E+03</totfact>
</mgrwt>
</event>
<event>
 5    1  0.3266101E-002  0.1250011E+03  0.7818608E-02  0.1235068E+00
         -4   -1    0    0    0  501 -0.00000000000E+00  0.00000000000E+00  0.95599630123E+02  0.95608065453E+02  0.12700000000E+01 0.  1.
          4   -1    0    0  501    0  0.00000000000E+00 -0.00000000000E+00 -0.40841122867E+02  0.40860864125E+02  0.12700000000E+01 0.  1.
         25    2    1    2    0    0  0.00000000000E+00  0.00000000000E+00  0.54758507256E+02  0.13646892958E+03  0.12500109849E+03 0.  0.
    9000005    1    3    3    0    0 -0.15993067306E+02 -0.46411413948E+02  0.69599059230E+02  0.85175269839E+02  0.10000000000E+01 0.  0.
    9000005    1    3    3    0    0  0.15993067306E+02  0.46411413948E+02 -0.14840551973E+02  0.51293659739E+02  0.10000000000E+01 0.  0.
<mgrwt>
<rscale>  0 0.12500110E+03</rscale>
<asrwt>0</asrwt>
<pdfrwt beam="2">  1        4 0.62854172E-02 0.12500110E+03</pdfrwt>
<pdfrwt beam="1">  1       -4 0.14709803E-01 0.12500110E+03</pdfrwt>
<totfact> 0.10206949E+04</totfact>
</mgrwt>
</event>
<event>
 5    1  0.3266101E-002  0.1250001E+03  0.7818608E-02  0.1235069E+00
         -4   -1    0    0    0  501 -0.00000000000E+00  0.00000000000E+00  0.41540217085E+02  0.41559626267E+02  0.12700000000E+01 0. -1.
          4   -1    0    0  501    0  0.00000000000E+00 -0.00000000000E+00 -0.93989874962E+02  0.93998454749E+02  0.12700000000E+01 0. -1.
         25    2    1    2    0    0  0.00000000000E+00  0.00000000000E+00 -0.52449657877E+02  0.13555808102E+03  0.12500010687E+03 0.  0.
    9000005    1    3    3    0    0 -0.11892784880E+02  0.16631984769E+02  0.37815443582E+02  0.43000802583E+02  0.10000000000E+01 0.  0.
    9000005    1    3    3    0    0  0.11892784880E+02 -0.16631984769E+02 -0.90265101459E+02  0.92557278433E+02  0.10000000000E+01 0.  0.
<mgrwt>
<rscale>  0 0.12500011E+03</rscale>
<asrwt>0</asrwt>
<pdfrwt beam="2">  1        4 0.14462134E-01 0.12500011E+03</pdfrwt>
<pdfrwt beam="1">  1       -4 0.63929557E-02 0.12500011E+03</pdfrwt>
<totfact> 0.10226297E+04</totfact>
</mgrwt>
</event>
<event>
 5    1  0.3266101E-002  0.1250002E+03  0.7818608E-02  0.1235069E+00
         -4   -1    0    0    0  501 -0.00000000000E+00  0.00000000000E+00  0.21701120839E+02  0.21738250750E+02  0.12700000000E+01 0. -1.
          4   -1    0    0  501    0  0.00000000000E+00 -0.00000000000E+00 -0.17980970319E+03  0.17981418815E+03  0.12700000000E+01 0. -1.
         25    2    1    2    0    0  0.00000000000E+00  0.00000000000E+00 -0.15810858235E+03  0.20155243890E+03  0.12500024726E+03 0.  0.
    9000005    1    3    3    0    0 -0.26081346024E+02  0.52780757502E+01  0.12117419126E+02  0.29256222250E+02  0.10000000000E+01 0.  0.
    9000005    1    3    3    0    0  0.26081346024E+02 -0.52780757502E+01 -0.17022600147E+03  0.17229621665E+03  0.10000000000E+01 0.  0.
<mgrwt>
<rscale>  0 0.12500025E+03</rscale>
<asrwt>0</asrwt>
<pdfrwt beam="2">  1        4 0.27666231E-01 0.12500025E+03</pdfrwt>
<pdfrwt beam="1">  1       -4 0.33418352E-02 0.12500025E+03</pdfrwt>
<totfact> 0.89873837E+03</totfact>
</mgrwt>
</event>
<event>
 5    1  0.3266101E-002  0.1250031E+03  0.7818608E-02  0.1235064E+00
          4   -1    0    0  501    0  0.00000000000E+00  0.00000000000E+00  0.17046474662E+02  0.17093718098E+02  0.12700000000E+01 0.  1.
         -4   -1    0    0    0  501 -0.00000000000E+00 -0.00000000000E+00 -0.22879835695E+03  0.22880188164E+03  0.12700000000E+01 0.  1.
         25    2    1    2    0    0  0.00000000000E+00  0.00000000000E+00 -0.21175188229E+03  0.24589559974E+03  0.12500314524E+03 0.  0.
    9000005    1    3    3    0    0 -0.56837363797E+01  0.82392900465E+01  0.15469019759E+02  0.18452136245E+02  0.10000000000E+01 0.  0.
    9000005    1    3    3    0    0  0.56837363797E+01 -0.82392900465E+01 -0.22722090205E+03  0.22744346349E+03  0.10000000000E+01 0.  0.
<mgrwt>
<rscale>  0 0.12500315E+03</rscale>
<asrwt>0</asrwt>
<pdfrwt beam="1">  1        4 0.26264400E-02 0.12500315E+03</pdfrwt>
<pdfrwt beam="2">  1       -4 0.35203650E-01 0.12500315E+03</pdfrwt>
<totfact> 0.82921273E+03</totfact>
</mgrwt>
</event>
<event>
 5    1  0.3266101E-002  0.1250019E+03  0.7818608E-02  0.1235066E+00
          4   -1    0    0  501    0  0.00000000000E+00  0.00000000000E+00  0.44959335188E+02  0.44977268932E+02  0.12700000000E+01 0. -1.
         -4   -1    0    0    0  501 -0.00000000000E+00 -0.00000000000E+00 -0.86846843732E+02  0.86856129123E+02  0.12700000000E+01 0. -1.
         25    2    1    2    0    0  0.00000000000E+00  0.00000000000E+00 -0.41887508543E+02  0.13183339805E+03  0.12500192587E+03 0.  0.
    9000005    1    3    3    0    0 -0.21497656361E+02 -0.19524433571E+02  0.37415883256E+02  0.47374054662E+02  0.10000000000E+01 0.  0.
    9000005    1    3    3    0    0  0.21497656361E+02  0.19524433571E+02 -0.79303391800E+02  0.84459343392E+02  0.10000000000E+01 0.  0.
<mgrwt>
<rscale>  0 0.12500193E+03</rscale>
<asrwt>0</asrwt>
<pdfrwt beam="1">  1        4 0.69189146E-02 0.12500193E+03</pdfrwt>
<pdfrwt beam="2">  1       -4 0.13363147E-01 0.12500193E+03</pdfrwt>
<totfact> 0.10304808E+04</totfact>
</mgrwt>
</event>
<event>
 5    1  0.3266101E-002  0.1250012E+03  0.7818608E-02  0.1235067E+00
          4   -1    0    0  501    0  0.00000000000E+00  0.00000000000E+00  0.86694345123E+02  0.86703646845E+02  0.12700000000E+01 0. -1.
         -4   -1    0    0    0  501 -0.00000000000E+00 -0.00000000000E+00 -0.45037907995E+02  0.45055810464E+02  0.12700000000E+01 0. -1.
         25    2    1    2    0    0  0.00000000000E+00  0.00000000000E+00  0.41656437128E+02  0.13175945731E+03  0.12500118334E+03 0.  0.
    9000005    1    3    3    0    0  0.47801509631E+02 -0.21511975424E+02 -0.15034413286E+02  0.54541571232E+02  0.10000000000E+01 0.  0.
    9000005    1    3    3    0    0 -0.47801509631E+02  0.21511975424E+02  0.56690850413E+02  0.77217886077E+02  0.10000000000E+01 0.  0.
<mgrwt>
<rscale>  0 0.12500118E+03</rscale>
<asrwt>0</asrwt>
<pdfrwt beam="1">  1        4 0.13339684E-01 0.12500118E+03</pdfrwt>
<pdfrwt beam="2">  1       -4 0.69310015E-02 0.12500118E+03</pdfrwt>
<totfact> 0.10306560E+04</totfact>
</mgrwt>
</event>
<event>
 5    1  0.3266101E-002  0.1249823E+03  0.7818608E-02  0.1235097E+00
         -4   -1    0    0    0  501 -0.00000000000E+00  0.00000000000E+00  0.26743977267E+02  0.26774114739E+02  0.12700000000E+01 0. -1.
          4   -1    0    0  501    0  0.00000000000E+00 -0.00000000000E+00 -0.14590436337E+03  0.14590989052E+03  0.12700000000E+01 0. -1.
         25    2    1    2    0    0  0.00000000000E+00  0.00000000000E+00 -0.11916038610E+03  0.17268400525E+03  0.12498227096E+03 0.  0.
    9000005    1    3    3    0    0  0.32839309075E+02 -0.50337478768E+02 -0.83184486695E+02  0.10263011652E+03  0.10000000000E+01 0.  0.
    9000005    1    3    3    0    0 -0.32839309075E+02  0.50337478768E+02 -0.35975899407E+02  0.70053888739E+02  0.10000000000E+01 0.  0.
<mgrwt>
<rscale>  0 0.12498227E+03</rscale>
<asrwt>0</asrwt>
<pdfrwt beam="2">  1        4 0.22449568E-01 0.12498227E+03</pdfrwt>
<pdfrwt beam="1">  1       -4 0.41172016E-02 0.12498227E+03</pdfrwt>
<totfact> 0.94988512E+03</totfact>
</mgrwt>
</event>
<event>
 5    1  0.3266101E-002  0.1249997E+03  0.7818608E-02  0.1235070E+00
         -4   -1    0    0    0  501 -0.00000000000E+00  0.00000000000E+00  0.82952027545E+03  0.82952124764E+03  0.12700000000E+01 0. -1.
          4   -1    0    0  501    0  0.00000000000E+00 -0.00000000000E+00 -0.46224034337E+01  0.47936951826E+01  0.12700000000E+01 0. -1.
         25    2    1    2    0    0  0.00000000000E+00  0.00000000000E+00  0.82489787201E+03  0.83431494282E+03  0.12499969823E+03 0.  0.
    9000005    1    3    3    0    0  0.29143460865E+02  0.14176926680E+02  0.76907810037E+03  0.76976129483E+03  0.10000000000E+01 0.  0.
    9000005    1    3    3    0    0 -0.29143460865E+02 -0.14176926680E+02  0.55819771649E+02  0.64553647986E+02  0.10000000000E+01 0.  0.
<mgrwt>
<rscale>  0 0.12499970E+03</rscale>
<asrwt>0</asrwt>
<pdfrwt beam="2">  1        4 0.72439060E-03 0.12499970E+03</pdfrwt>
<pdfrwt beam="1">  1       -4 0.12763166E+00 0.12499970E+03</pdfrwt>
<totfact> 0.36778174E+03</totfact>
</mgrwt>
</event>
<event>
 5    1  0.3266101E-002  0.1249987E+03  0.7818608E-02  0.1235071E+00
         -4   -1    0    0    0  501 -0.00000000000E+00  0.00000000000E+00  0.23859790744E+02  0.23893566379E+02  0.12700000000E+01 0. -1.
          4   -1    0    0  501    0  0.00000000000E+00 -0.00000000000E+00 -0.16356136609E+03  0.16356629658E+03  0.12700000000E+01 0. -1.
         25    2    1    2    0    0  0.00000000000E+00  0.00000000000E+00 -0.13970157534E+03  0.18745986296E+03  0.12499868026E+03 0.  0.
    9000005    1    3    3    0    0  0.55760089023E+02 -0.26513986902E+02 -0.84312424764E+02  0.10450724376E+03  0.10000000000E+01 0.  0.
    9000005    1    3    3    0    0 -0.55760089023E+02  0.26513986902E+02 -0.55389150578E+02  0.82952619193E+02  0.10000000000E+01 0.  0.
<mgrwt>
<rscale>  0 0.12499868E+03</rscale>
<asrwt>0</asrwt>
<pdfrwt beam="2">  1        4 0.25166264E-01 0.12499868E+03</pdfrwt>
<pdfrwt beam="1">  1       -4 0.36737145E-02 0.12499868E+03</pdfrwt>
<totfact> 0.92293907E+03</totfact>
</mgrwt>
</event>
<event>
 5    1  0.3266101E-002  0.1249984E+03  0.7818608E-02  0.1235072E+00
          4   -1    0    0  501    0  0.00000000000E+00  0.00000000000E+00  0.47451989980E+03  0.47452159931E+03  0.12700000000E+01 0.  1.
         -4   -1    0    0    0  501 -0.00000000000E+00 -0.00000000000E+00 -0.81810820056E+01  0.82790701641E+01  0.12700000000E+01 0.  1.
         25    2    1    2    0    0  0.00000000000E+00  0.00000000000E+00  0.46633881780E+03  0.48280066947E+03  0.12499837382E+03 0.  0.
    9000005    1    3    3    0    0  0.39425025112E+02 -0.41273584702E+02  0.13489993282E+03  0.14648151171E+03  0.10000000000E+01 0.  0.
    9000005    1    3    3    0    0 -0.39425025112E+02  0.41273584702E+02  0.33143888498E+03  0.33631915776E+03  0.10000000000E+01 0.  0.
<mgrwt>
<rscale>  0 0.12499837E+03</rscale>
<asrwt>0</asrwt>
<pdfrwt beam="1">  1        4 0.73010720E-01 0.12499837E+03</pdfrwt>
<pdfrwt beam="2">  1       -4 0.12662964E-02 0.12499837E+03</pdfrwt>
<totfact> 0.57226011E+03</totfact>
</mgrwt>
</event>
<event>
 5    1  0.3266101E-002  0.1250022E+03  0.7818608E-02  0.1235066E+00
          4   -1    0    0  501    0  0.00000000000E+00  0.00000000000E+00  0.81580338609E+02  0.81590223358E+02  0.12700000000E+01 0.  1.
         -4   -1    0    0    0  501 -0.00000000000E+00 -0.00000000000E+00 -0.47862716235E+02  0.47879562502E+02  0.12700000000E+01 0.  1.
         25    2    1    2    0    0  0.00000000000E+00  0.00000000000E+00  0.33717622374E+02  0.12946978586E+03  0.12500218955E+03 0.  0.
    9000005    1    3    3    0    0 -0.17886755895E+02  0.54725268247E+02  0.42029551929E+02  0.71290071234E+02  0.10000000000E+01 0.  0.
    9000005    1    3    3    0    0  0.17886755895E+02 -0.54725268247E+02 -0.83119295551E+01  0.58179714627E+02  0.10000000000E+01 0.  0.
<mgrwt>
<rscale>  0 0.12500219E+03</rscale>
<asrwt>0</asrwt>
<pdfrwt beam="1">  1        4 0.12552878E-01 0.12500219E+03</pdfrwt>
<pdfrwt beam="2">  1       -4 0.73655511E-02 0.12500219E+03</pdfrwt>
<totfact> 0.10355351E+04</totfact>
</mgrwt>
</event>
<event>
 5    1  0.3266101E-002  0.1250061E+03  0.7818608E-02  0.1235060E+00
          4   -1    0    0  501    0  0.00000000000E+00  0.00000000000E+00  0.52258781540E+02  0.52274211118E+02  0.12700000000E+01 0.  1.
         -4   -1    0    0    0  501 -0.00000000000E+00 -0.00000000000E+00 -0.74723666954E+02  0.74734458605E+02  0.12700000000E+01 0.  1.
         25    2    1    2    0    0  0.00000000000E+00  0.00000000000E+00 -0.22464885414E+02  0.12700866972E+03  0.12500612428E+03 0.  0.
    9000005    1    3    3    0    0 -0.15653955443E+02 -0.28499497398E+01 -0.72636216529E+02  0.74365237081E+02  0.10000000000E+01 0.  0.
    9000005    1    3    3    0    0  0.15653955443E+02  0.28499497398E+01  0.50171331115E+02  0.52643432642E+02  0.10000000000E+01 0.  0.
<mgrwt>
<rscale>  0 0.12500612E+03</rscale>
<asrwt>0</asrwt>
<pdfrwt beam="1">  1        4 0.80418296E-02 0.12500612E+03</pdfrwt>
<pdfrwt beam="2">  1       -4 0.11497966E-01 0.12500612E+03</pdfrwt>
<totfact> 0.10407518E+04</totfact>
</mgrwt>
</event>
<event>
 5    1  0.3266101E-002  0.1249973E+03  0.7818608E-02  0.1235074E+00
          4   -1    0    0  501    0  0.00000000000E+00  0.00000000000E+00  0.13170683111E+03  0.13171295404E+03  0.12700000000E+01 0. -1.
         -4   -1    0    0    0  501 -0.00000000000E+00 -0.00000000000E+00 -0.29636958100E+02  0.29664156577E+02  0.12700000000E+01 0. -1.
         25    2    1    2    0    0  0.00000000000E+00  0.00000000000E+00  0.10206987301E+03  0.16137711062E+03  0.12499725139E+03 0.  0.
    9000005    1    3    3    0    0  0.61908048170E+02 -0.84309632444E+01  0.49512463915E+02  0.79725602239E+02  0.10000000000E+01 0.  0.
    9000005    1    3    3    0    0 -0.61908048170E+02  0.84309632444E+01  0.52557409099E+02  0.81651508379E+02  0.10000000000E+01 0.  0.
<mgrwt>
<rscale>  0 0.12499725E+03</rscale>
<asrwt>0</asrwt>
<pdfrwt beam="1">  1        4 0.20265152E-01 0.12499725E+03</pdfrwt>
<pdfrwt beam="2">  1       -4 0.45620952E-02 0.12499725E+03</pdfrwt>
<totfact> 0.97083941E+03</totfact>
</mgrwt>
</event>
<event>
 5    1  0.3266101E-002  0.1250008E+03  0.7818608E-02  0.1235068E+00
          4   -1    0    0  501    0  0.00000000000E+00  0.00000000000E+00  0.11010336930E+04  0.11010344254E+04  0.12700000000E+01 0. -1.
         -4   -1    0    0    0  501 -0.00000000000E+00 -0.00000000000E+00 -0.34334368220E+01  0.36607906811E+01  0.12700000000E+01 0. -1.
         25    2    1    2    0    0  0.00000000000E+00  0.00000000000E+00  0.10976002561E+04  0.11046952161E+04  0.12500079270E+03 0.  0.
    9000005    1    3    3    0    0 -0.21444752369E+02 -0.32799930491E+02  0.11860448472E+03  0.12491491761E+03  0.10000000000E+01 0.  0.
    9000005    1    3    3    0    0  0.21444752369E+02  0.32799930491E+02  0.97899577141E+03  0.97978029848E+03  0.10000000000E+01 0.  0.
<mgrwt>
<rscale>  0 0.12500079E+03</rscale>
<asrwt>0</asrwt>
<pdfrwt beam="1">  1        4 0.16940750E+00 0.12500079E+03</pdfrwt>
<pdfrwt beam="2">  1       -4 0.54576564E-03 0.12500079E+03</pdfrwt>
<totfact> 0.27345878E+03</totfact>
</mgrwt>
</event>
<event>
 5    1  0.3266101E-002  0.1250032E+03  0.7818608E-02  0.1235064E+00
          4   -1    0    0  501    0  0.00000000000E+00  0.00000000000E+00  0.36772629696E+02  0.36794553873E+02  0.12700000000E+01 0.  1.
         -4   -1    0    0    0  501 -0.00000000000E+00 -0.00000000000E+00 -0.10617514374E+03  0.10618273894E+03  0.12700000000E+01 0.  1.
         25    2    1    2    0    0  0.00000000000E+00  0.00000000000E+00 -0.69402514046E+02  0.14297729281E+03  0.12500318918E+03 0.  0.
    9000005    1    3    3    0    0  0.60540750535E+02 -0.14611230708E+02 -0.40620162899E+02  0.74361738630E+02  0.10000000000E+01 0.  0.
    9000005    1    3    3    0    0 -0.60540750535E+02  0.14611230708E+02 -0.28782351147E+02  0.68615554182E+02  0.10000000000E+01 0.  0.
<mgrwt>
<rscale>  0 0.12500319E+03</rscale>
<asrwt>0</asrwt>
<pdfrwt beam="1">  1        4 0.56595984E-02 0.12500319E+03</pdfrwt>
<pdfrwt beam="2">  1       -4 0.16336908E-01 0.12500319E+03</pdfrwt>
<totfact> 0.10071525E+04</totfact>
</mgrwt>
</event>
<event>
 5    1  0.3266101E-002  0.1250013E+03  0.7818608E-02  0.1235067E+00
          4   -1    0    0  501    0  0.00000000000E+00  0.00000000000E+00  0.52291315660E+01  0.53811445748E+01  0.12700000000E+01 0. -1.
         -4   -1    0    0    0  501 -0.00000000000E+00 -0.00000000000E+00 -0.73617684450E+03  0.73617793995E+03  0.12700000000E+01 0. -1.
         25    2    1    2    0    0  0.00000000000E+00  0.00000000000E+00 -0.73094771293E+03  0.74155908453E+03  0.12500126722E+03 0.  0.
    9000005    1    3    3    0    0  0.59445947586E+02  0.68424597876E+01 -0.25857690833E+03  0.26541224060E+03  0.10000000000E+01 0.  0.
    9000005    1    3    3    0    0 -0.59445947586E+02 -0.68424597876E+01 -0.47237080460E+03  0.47614684392E+03  0.10000000000E+01 0.  0.
<mgrwt>
<rscale>  0 0.12500127E+03</rscale>
<asrwt>0</asrwt>
<pdfrwt beam="1">  1        4 0.81625994E-03 0.12500127E+03</pdfrwt>
<pdfrwt beam="2">  1       -4 0.11326967E+00 0.12500127E+03</pdfrwt>
<totfact> 0.40980045E+03</totfact>
</mgrwt>
</event>
<event>
 5    1  0.3266101E-002  0.1250002E+03  0.7818608E-02  0.1235069E+00
         -4   -1    0    0    0  501 -0.00000000000E+00  0.00000000000E+00  0.69387123401E+02  0.69398744902E+02  0.12700000000E+01 0.  1.
          4   -1    0    0  501    0  0.00000000000E+00 -0.00000000000E+00 -0.56273123893E+02  0.56287453066E+02  0.12700000000E+01 0.  1.
         25    2    1    2    0    0  0.00000000000E+00  0.00000000000E+00  0.13113999509E+02  0.12568619797E+03  0.12500017351E+03 0.  0.
    9000005    1    3    3    0    0 -0.14861345233E+02 -0.45798217573E+02 -0.33497850241E+02  0.58663807290E+02  0.10000000000E+01 0.  0.
    9000005    1    3    3    0    0  0.14861345233E+02  0.45798217573E+02  0.46611849750E+02  0.67022390677E+02  0.10000000000E+01 0.  0.
<mgrwt>
<rscale>  0 0.12500017E+03</rscale>
<asrwt>0</asrwt>
<pdfrwt beam="2">  1        4 0.86593998E-02 0.12500017E+03</pdfrwt>
<pdfrwt beam="1">  1       -4 0.10676938E-01 0.12500017E+03</pdfrwt>
<totfact> 0.10437807E+04</totfact>
</mgrwt>
</event>
<event>
 5    1  0.3266101E-002  0.1249995E+03  0.7818608E-02  0.1235070E+00
          4   -1    0    0  501    0  0.00000000000E+00  0.00000000000E+00  0.73658116200E+01  0.74744953556E+01  0.12700000000E+01 0. -1.
         -4   -1    0    0    0  501 -0.00000000000E+00 -0.00000000000E+00 -0.52632426330E+03  0.52632579553E+03  0.12700000000E+01 0. -1.
         25    2    1    2    0    0  0.00000000000E+00  0.00000000000E+00 -0.51895845168E+03  0.53380029088E+03  0.12499950391E+03 0.  0.
    9000005    1    3    3    0    0 -0.19744931599E+02 -0.84284309809E+00 -0.63097579632E+01  0.20769827970E+02  0.10000000000E+01 0.  0.
    9000005    1    3    3    0    0  0.19744931599E+02  0.84284309809E+00 -0.51264869372E+03  0.51303046291E+03  0.10000000000E+01 0.  0.
<mgrwt>
<rscale>  0 0.12499950E+03</rscale>
<asrwt>0</asrwt>
<pdfrwt beam="1">  1        4 0.11416803E-02 0.12499950E+03</pdfrwt>
<pdfrwt beam="2">  1       -4 0.80981413E-01 0.12499950E+03</pdfrwt>
<totfact> 0.53334640E+03</totfact>
</mgrwt>
</event>
<event>
 5    1  0.3266101E-002  0.1249981E+03  0.7818608E-02  0.1235072E+00
         -4   -1    0    0    0  501 -0.00000000000E+00  0.00000000000E+00  0.25062544522E+03  0.25062866295E+03  0.12700000000E+01 0. -1.
          4   -1    0    0  501    0  0.00000000000E+00 -0.00000000000E+00 -0.15556345789E+02  0.15608100278E+02  0.12700000000E+01 0. -1.
         25    2    1    2    0    0  0.00000000000E+00  0.00000000000E+00  0.23506909943E+03  0.26623676323E+03  0.12499813033E+03 0.  0.
    9000005    1    3    3    0    0  0.30515238606E+02 -0.34155134421E+02  0.26984381382E+02  0.53168692226E+02  0.10000000000E+01 0.  0.
    9000005    1    3    3    0    0 -0.30515238606E+02  0.34155134421E+02  0.20808471805E+03  0.21306807100E+03  0.10000000000E+01 0.  0.
<mgrwt>
<rscale>  0 0.12499813E+03</rscale>
<asrwt>0</asrwt>
<pdfrwt beam="2">  1        4 0.23975127E-02 0.12499813E+03</pdfrwt>
<pdfrwt beam="1">  1       -4 0.38561988E-01 0.12499813E+03</pdfrwt>
<totfact> 0.80042039E+03</totfact>
</mgrwt>
</event>
<event>
 5    1  0.3266101E-002  0.1250227E+03  0.7818608E-02  0.1235034E+00
          4   -1    0    0  501    0  0.00000000000E+00  0.00000000000E+00  0.11065645824E+03  0.11066374587E+03  0.12700000000E+01 0. -1.
         -4   -1    0    0    0  501 -0.00000000000E+00 -0.00000000000E+00 -0.35293646137E+02  0.35316488467E+02  0.12700000000E+01 0. -1.
         25    2    1    2    0    0  0.00000000000E+00  0.00000000000E+00  0.75362812105E+02  0.14598023434E+03  0.12502269942E+03 0.  0.
    9000005    1    3    3    0    0  0.36970305770E+02 -0.49463788082E+02  0.48953661348E+02  0.78809458821E+02  0.10000000000E+01 0.  0.
    9000005    1    3    3    0    0 -0.36970305770E+02  0.49463788082E+02  0.26409150757E+02  0.67170775519E+02  0.10000000000E+01 0.  0.
<mgrwt>
<rscale>  0 0.12502270E+03</rscale>
<asrwt>0</asrwt>
<pdfrwt beam="1">  1        4 0.17026388E-01 0.12502270E+03</pdfrwt>
<pdfrwt beam="2">  1       -4 0.54321093E-02 0.12502270E+03</pdfrwt>
<totfact> 0.10005995E+04</totfact>
</mgrwt>
</event>
<event>
 5    1  0.3266101E-002  0.1250021E+03  0.7818608E-02  0.1235066E+00
         -4   -1    0    0    0  501 -0.00000000000E+00  0.00000000000E+00  0.82099968877E+01  0.83076440040E+01  0.12700000000E+01 0. -1.
          4   -1    0    0  501    0  0.00000000000E+00 -0.00000000000E+00 -0.47289672241E+03  0.47289842775E+03  0.12700000000E+01 0. -1.
         25    2    1    2    0    0  0.00000000000E+00  0.00000000000E+00 -0.46468672552E+03  0.48120607175E+03  0.12500212244E+03 0.  0.
    9000005    1    3    3    0    0  0.32123085373E+01  0.60779623924E+02 -0.28690718774E+03  0.29329373670E+03  0.10000000000E+01 0.  0.
    9000005    1    3    3    0    0 -0.32123085373E+01 -0.60779623924E+02 -0.17777953778E+03  0.18791233505E+03  0.10000000000E+01 0.  0.
<mgrwt>
<rscale>  0 0.12500212E+03</rscale>
<asrwt>0</asrwt>
<pdfrwt beam="2">  1        4 0.72760963E-01 0.12500212E+03</pdfrwt>
<pdfrwt beam="1">  1       -4 0.12707193E-02 0.12500212E+03</pdfrwt>
<totfact> 0.57349940E+03</totfact>
</mgrwt>
</event>
<event>
 5    1  0.3266101E-002  0.1249994E+03  0.7818608E-02  0.1235070E+00
          4   -1    0    0  501    0  0.00000000000E+00  0.00000000000E+00  0.68353236673E+02  0.68365033926E+02  0.12700000000E+01 0. -1.
         -4   -1    0    0    0  501 -0.00000000000E+00 -0.00000000000E+00 -0.57123670211E+02  0.57137786082E+02  0.12700000000E+01 0. -1.
         25    2    1    2    0    0  0.00000000000E+00  0.00000000000E+00  0.11229566462E+02  0.12550282001E+03  0.12499941867E+03 0.  0.
    9000005    1    3    3    0    0  0.98716337064E+01  0.61157261498E+02 -0.26374338256E+01  0.62013029624E+02  0.10000000000E+01 0.  0.
    9000005    1    3    3    0    0 -0.98716337064E+01 -0.61157261498E+02  0.13867000288E+02  0.63489790384E+02  0.10000000000E+01 0.  0.
<mgrwt>
<rscale>  0 0.12499942E+03</rscale>
<asrwt>0</asrwt>
<pdfrwt beam="1">  1        4 0.10517876E-01 0.12499942E+03</pdfrwt>
<pdfrwt beam="2">  1       -4 0.87902503E-02 0.12499942E+03</pdfrwt>
<totfact> 0.10442029E+04</totfact>
</mgrwt>
</event>
<event>
 5    1  0.3266101E-002  0.1250016E+03  0.7818608E-02  0.1235067E+00
         -4   -1    0    0    0  501 -0.00000000000E+00  0.00000000000E+00  0.13330393547E+03  0.13330998504E+03  0.12700000000E+01 0.  1.
          4   -1    0    0  501    0  0.00000000000E+00 -0.00000000000E+00 -0.29283596194E+02  0.29311122565E+02  0.12700000000E+01 0.  1.
         25    2    1    2    0    0  0.00000000000E+00  0.00000000000E+00  0.10402033928E+03  0.16262110761E+03  0.12500157462E+03 0.  0.
    9000005    1    3    3    0    0  0.43301776568E+02  0.42528338725E+02  0.32641920347E+02  0.68921683182E+02  0.10000000000E+01 0.  0.
    9000005    1    3    3    0    0 -0.43301776568E+02 -0.42528338725E+02  0.71378418931E+02  0.93699424426E+02  0.10000000000E+01 0.  0.
<mgrwt>
<rscale>  0 0.12500157E+03</rscale>
<asrwt>0</asrwt>
<pdfrwt beam="2">  1        4 0.45077513E-02 0.12500157E+03</pdfrwt>
<pdfrwt beam="1">  1       -4 0.20510881E-01 0.12500157E+03</pdfrwt>
<totfact> 0.96836396E+03</totfact>
</mgrwt>
</event>
<event>
 5    1  0.3266101E-002  0.1249993E+03  0.7818608E-02  0.1235070E+00
          4   -1    0    0  501    0  0.00000000000E+00  0.00000000000E+00  0.11901089358E+03  0.11901766966E+03  0.12700000000E+01 0. -1.
         -4   -1    0    0    0  501 -0.00000000000E+00 -0.00000000000E+00 -0.32802254510E+02  0.32826830504E+02  0.12700000000E+01 0. -1.
         25    2    1    2    0    0  0.00000000000E+00  0.00000000000E+00  0.86208639068E+02  0.15184450016E+03  0.12499929111E+03 0.  0.
    9000005    1    3    3    0    0 -0.29162172498E+02 -0.42366753863E+02  0.86221242264E+02  0.10040157745E+03  0.10000000000E+01 0.  0.
    9000005    1    3    3    0    0  0.29162172498E+02  0.42366753863E+02 -0.12603196488E-01  0.51442922706E+02  0.10000000000E+01 0.  0.
<mgrwt>
<rscale>  0 0.12499929E+03</rscale>
<asrwt>0</asrwt>
<pdfrwt beam="1">  1        4 0.18311780E-01 0.12499929E+03</pdfrwt>
<pdfrwt beam="2">  1       -4 0.50489124E-02 0.12499929E+03</pdfrwt>
<totfact> 0.98938866E+03</totfact>
</mgrwt>
</event>
<event>
 5    1  0.3266101E-002  0.1249991E+03  0.7818608E-02  0.1235071E+00
          4   -1    0    0  501    0  0.00000000000E+00  0.00000000000E+00  0.49230977648E+01  0.50842690331E+01  0.12700000000E+01 0.  1.
         -4   -1    0    0    0  501 -0.00000000000E+00 -0.00000000000E+00 -0.78050239836E+03  0.78050343161E+03  0.12700000000E+01 0.  1.
         25    2    1    2    0    0  0.00000000000E+00  0.00000000000E+00 -0.77557930060E+03  0.78558770064E+03  0.12499913552E+03 0.  0.
    9000005    1    3    3    0    0  0.49854856155E+02  0.49374311654E+01 -0.62254915496E+03  0.62456251509E+03  0.10000000000E+01 0.  0.
    9000005    1    3    3    0    0 -0.49854856155E+02 -0.49374311654E+01 -0.15303014563E+03  0.16102518555E+03  0.10000000000E+01 0.  0.
<mgrwt>
<rscale>  0 0.12499914E+03</rscale>
<asrwt>0</asrwt>
<pdfrwt beam="1">  1        4 0.76987754E-03 0.12499914E+03</pdfrwt>
<pdfrwt beam="2">  1       -4 0.12008967E+00 0.12499914E+03</pdfrwt>
<totfact> 0.38917048E+03</totfact>
</mgrwt>
</event>
<event>
 5    1  0.3266101E-002  0.1249975E+03  0.7818608E-02  0.1235073E+00
         -4   -1    0    0    0  501 -0.00000000000E+00  0.00000000000E+00  0.32304539765E+02  0.32329494110E+02  0.12700000000E+01 0. -1.
          4   -1    0    0  501    0  0.00000000000E+00 -0.00000000000E+00 -0.12083979231E+03  0.12084646584E+03  0.12700000000E+01 0. -1.
         25    2    1    2    0    0  0.00000000000E+00  0.00000000000E+00 -0.88535252544E+02  0.15317595995E+03  0.12499753503E+03 0.  0.
    9000005    1    3    3    0    0  0.45425554637E+02  0.26239775082E+02 -0.26554335587E+01  0.52536255460E+02  0.10000000000E+01 0.  0.
    9000005    1    3    3    0    0 -0.45425554637E+02 -0.26239775082E+02 -0.85879818985E+02  0.10063970449E+03  0.10000000000E+01 0.  0.
<mgrwt>
<rscale>  0 0.12499754E+03</rscale>
<asrwt>0</asrwt>
<pdfrwt beam="2">  1        4 0.18593170E-01 0.12499754E+03</pdfrwt>
<pdfrwt beam="1">  1       -4 0.49723622E-02 0.12499754E+03</pdfrwt>
<totfact> 0.98679816E+03</totfact>
</mgrwt>
</event>
<event>
 4    1  0.3266101E-002  0.1248956E+03  0.7818608E-02  0.1235233E+00
         -4   -1    0    0    0  501 -0.00000000000E+00  0.00000000000E+00  0.17497062674E+02  0.17543092721E+02  0.12700000000E+01 0. -1.
          4   -1    0    0  501    0  0.00000000000E+00 -0.00000000000E+00 -0.22253821745E+03  0.22254184129E+03  0.12700000000E+01 0. -1.
    9000005    1    1    2    0    0 -0.32671588809E+02  0.20026103055E+02 -0.19728453174E+03  0.20097428687E+03  0.10000000000E+01 0.  0.
    9000005    1    1    2    0    0  0.32671588809E+02 -0.20026103055E+02 -0.77566230320E+01  0.39110647140E+02  0.10000000000E+01 0.  0.
<mgrwt>
<rscale>  0 0.12489556E+03</rscale>
<asrwt>0</asrwt>
<pdfrwt beam="2">  1        4 0.34240466E-01 0.12489556E+03</pdfrwt>
<pdfrwt beam="1">  1       -4 0.26956755E-02 0.12489556E+03</pdfrwt>
<totfact> 0.83980102E+03</totfact>
</mgrwt>
</event>
<event>
 5    1  0.3266101E-002  0.1250012E+03  0.7818608E-02  0.1235067E+00
         -4   -1    0    0    0  501 -0.00000000000E+00  0.00000000000E+00  0.28989769526E+02  0.29017574626E+02  0.12700000000E+01 0.  1.
          4   -1    0    0  501    0  0.00000000000E+00 -0.00000000000E+00 -0.13465304206E+03  0.13465903102E+03  0.12700000000E+01 0.  1.
         25    2    1    2    0    0  0.00000000000E+00  0.00000000000E+00 -0.10566327253E+03  0.16367660565E+03  0.12500121629E+03 0.  0.
    9000005    1    3    3    0    0  0.22002018262E+02 -0.19734267321E+02 -0.12492949260E+03  0.12838188437E+03  0.10000000000E+01 0.  0.
    9000005    1    3    3    0    0 -0.22002018262E+02  0.19734267321E+02  0.19266220066E+02  0.35294721275E+02  0.10000000000E+01 0.  0.
<mgrwt>
<rscale>  0 0.12500122E+03</rscale>
<asrwt>0</asrwt>
<pdfrwt beam="2">  1        4 0.20718452E-01 0.12500122E+03</pdfrwt>
<pdfrwt beam="1">  1       -4 0.44625642E-02 0.12500122E+03</pdfrwt>
<totfact> 0.96635970E+03</totfact>
</mgrwt>
</event>
<event>
 5    1  0.3266101E-002  0.1249932E+03  0.7818608E-02  0.1235080E+00
          4   -1    0    0  501    0  0.00000000000E+00  0.00000000000E+00  0.49019129080E+01  0.50637585011E+01  0.12700000000E+01 0.  1.
         -4   -1    0    0    0  501 -0.00000000000E+00 -0.00000000000E+00 -0.78369299992E+03  0.78369402896E+03  0.12700000000E+01 0.  1.
         25    2    1    2    0    0  0.00000000000E+00  0.00000000000E+00 -0.77879108701E+03  0.78875778746E+03  0.12499316008E+03 0.  0.
    9000005    1    3    3    0    0  0.58539850914E+02  0.14100996634E+02 -0.49481340332E+03  0.49846469921E+03  0.10000000000E+01 0.  0.
    9000005    1    3    3    0    0 -0.58539850914E+02 -0.14100996634E+02 -0.28397768369E+03  0.29029308825E+03  0.10000000000E+01 0.  0.
<mgrwt>
<rscale>  0 0.12499316E+03</rscale>
<asrwt>0</asrwt>
<pdfrwt beam="1">  1        4 0.76666989E-03 0.12499316E+03</pdfrwt>
<pdfrwt beam="2">  1       -4 0.12058059E+00 0.12499316E+03</pdfrwt>
<totfact> 0.38777387E+03</totfact>
</mgrwt>
</event>
<event>
 4    1  0.3266101E-002  0.1249068E+03  0.7818608E-02  0.1235215E+00
          4   -1    0    0  501    0  0.00000000000E+00  0.00000000000E+00  0.42936700040E+02  0.42955478234E+02  0.12700000000E+01 0. -1.
         -4   -1    0    0    0  501 -0.00000000000E+00 -0.00000000000E+00 -0.90798321219E+02  0.90807202557E+02  0.12700000000E+01 0. -1.
    9000005    1    1    2    0    0 -0.11005126550E+02  0.50529683733E+02  0.13551716757E+02  0.53469718304E+02  0.10000000000E+01 0.  0.
    9000005    1    1    2    0    0  0.11005126550E+02 -0.50529683733E+02 -0.61413337936E+02  0.80292962487E+02  0.10000000000E+01 0.  0.
<mgrwt>
<rscale>  0 0.12490685E+03</rscale>
<asrwt>0</asrwt>
<pdfrwt beam="1">  1        4 0.66077738E-02 0.12490685E+03</pdfrwt>
<pdfrwt beam="2">  1       -4 0.13971100E-01 0.12490685E+03</pdfrwt>
<totfact> 0.10285813E+04</totfact>
</mgrwt>
</event>
<event>
 5    1  0.3266101E-002  0.1249936E+03  0.7818608E-02  0.1235079E+00
          4   -1    0    0  501    0  0.00000000000E+00  0.00000000000E+00  0.32699063427E+02  0.32723716919E+02  0.12700000000E+01 0. -1.
         -4   -1    0    0    0  501 -0.00000000000E+00 -0.00000000000E+00 -0.11937530784E+03  0.11938206323E+03  0.12700000000E+01 0. -1.
         25    2    1    2    0    0  0.00000000000E+00  0.00000000000E+00 -0.86676244408E+02  0.15210578015E+03  0.12499358787E+03 0.  0.
    9000005    1    3    3    0    0  0.49549678115E+02 -0.12902428013E+02 -0.86930059956E+02  0.10089340203E+03  0.10000000000E+01 0.  0.
    9000005    1    3    3    0    0 -0.49549678115E+02  0.12902428013E+02  0.25381554722E+00  0.51212378115E+02  0.10000000000E+01 0.  0.
<mgrwt>
<rscale>  0 0.12499359E+03</rscale>
<asrwt>0</asrwt>
<pdfrwt beam="1">  1        4 0.50330413E-02 0.12499359E+03</pdfrwt>
<pdfrwt beam="2">  1       -4 0.18367848E-01 0.12499359E+03</pdfrwt>
<totfact> 0.98899855E+03</totfact>
</mgrwt>
</event>
<event>
 5    1  0.3266101E-002  0.1250302E+03  0.7818608E-02  0.1235022E+00
         -4   -1    0    0    0  501 -0.00000000000E+00  0.00000000000E+00  0.97454119849E+02  0.97462394673E+02  0.12700000000E+01 0.  1.
          4   -1    0    0  501    0  0.00000000000E+00 -0.00000000000E+00 -0.40082292625E+02  0.40102407435E+02  0.12700000000E+01 0.  1.
         25    2    1    2    0    0  0.00000000000E+00  0.00000000000E+00  0.57371827223E+02  0.13756480211E+03  0.12503018924E+03 0.  0.
    9000005    1    3    3    0    0 -0.24155173491E+02  0.61158444914E+01 -0.34387084021E+02  0.42477611841E+02  0.10000000000E+01 0.  0.
    9000005    1    3    3    0    0  0.24155173491E+02 -0.61158444914E+01  0.91758911244E+02  0.95087190268E+02  0.10000000000E+01 0.  0.
<mgrwt>
<rscale>  0 0.12503019E+03</rscale>
<asrwt>0</asrwt>
<pdfrwt beam="2">  1        4 0.61686904E-02 0.12503019E+03</pdfrwt>
<pdfrwt beam="1">  1       -4 0.14995125E-01 0.12503019E+03</pdfrwt>
<totfact> 0.10177361E+04</totfact>
</mgrwt>
</event>
<event>
 5    1  0.3266101E-002  0.1249999E+03  0.7818608E-02  0.1235069E+00
         -4   -1    0    0    0  501 -0.00000000000E+00  0.00000000000E+00  0.30792140867E+02  0.30818319863E+02  0.12700000000E+01 0. -1.
          4   -1    0    0  501    0  0.00000000000E+00 -0.00000000000E+00 -0.12677516263E+03  0.12678152373E+03  0.12700000000E+01 0. -1.
         25    2    1    2    0    0  0.00000000000E+00  0.00000000000E+00 -0.95983021763E+02  0.15759984359E+03  0.12499988094E+03 0.  0.
    9000005    1    3    3    0    0  0.93594677796E+01  0.46237159876E+02  0.36823403420E+01  0.47328999787E+02  0.10000000000E+01 0.  0.
    9000005    1    3    3    0    0 -0.93594677796E+01 -0.46237159876E+02 -0.99665362105E+02  0.11027084381E+03  0.10000000000E+01 0.  0.
<mgrwt>
<rscale>  0 0.12499988E+03</rscale>
<asrwt>0</asrwt>
<pdfrwt beam="2">  1        4 0.19506374E-01 0.12499988E+03</pdfrwt>
<pdfrwt beam="1">  1       -4 0.47397556E-02 0.12499988E+03</pdfrwt>
<totfact> 0.97807784E+03</totfact>
</mgrwt>
</event>
<event>
 5    1  0.3266101E-002  0.1249991E+03  0.7818608E-02  0.1235071E+00
         -4   -1    0    0    0  501 -0.00000000000E+00  0.00000000000E+00  0.32117014243E+02  0.32142114179E+02  0.12700000000E+01 0. -1.
          4   -1    0    0  501    0  0.00000000000E+00 -0.00000000000E+00 -0.12154785491E+03  0.12155448956E+03  0.12700000000E+01 0. -1.
         25    2    1    2    0    0  0.00000000000E+00  0.00000000000E+00 -0.89430840664E+02  0.15369660374E+03  0.12499908295E+03 0.  0.
    9000005    1    3    3    0    0  0.10818665253E+02 -0.58407720829E+02 -0.20851162004E+02  0.62962499372E+02  0.10000000000E+01 0.  0.
    9000005    1    3    3    0    0 -0.10818665253E+02  0.58407720829E+02 -0.68579678660E+02  0.90734104367E+02  0.10000000000E+01 0.  0.
<mgrwt>
<rscale>  0 0.12499908E+03</rscale>
<asrwt>0</asrwt>
<pdfrwt beam="2">  1        4 0.18702111E-01 0.12499908E+03</pdfrwt>
<pdfrwt beam="1">  1       -4 0.49435203E-02 0.12499908E+03</pdfrwt>
<totfact> 0.98573907E+03</totfact>
</mgrwt>
</event>
<event>
 5    1  0.3266101E-002  0.1249980E+03  0.7818608E-02  0.1235072E+00
         -4   -1    0    0    0  501 -0.00000000000E+00  0.00000000000E+00  0.84548217351E+03  0.84548312734E+03  0.12700000000E+01 0. -1.
          4   -1    0    0  501    0  0.00000000000E+00 -0.00000000000E+00 -0.45317422958E+01  0.47063349048E+01  0.12700000000E+01 0. -1.
         25    2    1    2    0    0  0.00000000000E+00  0.00000000000E+00  0.84095043121E+03  0.85018946225E+03  0.12499797582E+03 0.  0.
    9000005    1    3    3    0    0  0.62293985027E+02  0.29307097643E+01  0.44767649786E+03  0.45200041634E+03  0.10000000000E+01 0.  0.
    9000005    1    3    3    0    0 -0.62293985027E+02 -0.29307097643E+01  0.39327393335E+03  0.39818904591E+03  0.10000000000E+01 0.  0.
<mgrwt>
<rscale>  0 0.12499798E+03</rscale>
<asrwt>0</asrwt>
<pdfrwt beam="2">  1        4 0.71069534E-03 0.12499798E+03</pdfrwt>
<pdfrwt beam="1">  1       -4 0.13008757E+00 0.12499798E+03</pdfrwt>
<totfact> 0.36121197E+03</totfact>
</mgrwt>
</event>
<event>
 5    1  0.3266101E-002  0.1250004E+03  0.7818608E-02  0.1235069E+00
          4   -1    0    0  501    0  0.00000000000E+00  0.00000000000E+00  0.18628948490E+02  0.18672188459E+02  0.12700000000E+01 0. -1.
         -4   -1    0    0    0  501 -0.00000000000E+00 -0.00000000000E+00 -0.20940008073E+03  0.20940393194E+03  0.12700000000E+01 0. -1.
         25    2    1    2    0    0  0.00000000000E+00  0.00000000000E+00 -0.19077113224E+03  0.22807612040E+03  0.12500036719E+03 0.  0.
    9000005    1    3    3    0    0  0.45724109010E+02 -0.42397893846E+02 -0.87863107581E+02  0.10774600327E+03  0.10000000000E+01 0.  0.
    9000005    1    3    3    0    0 -0.45724109010E+02  0.42397893846E+02 -0.10290802466E+03  0.12033011713E+03  0.10000000000E+01 0.  0.
<mgrwt>
<rscale>  0 0.12500037E+03</rscale>
<asrwt>0</asrwt>
<pdfrwt beam="1">  1        4 0.28696146E-02 0.12500037E+03</pdfrwt>
<pdfrwt beam="2">  1       -4 0.32219018E-01 0.12500037E+03</pdfrwt>
<totfact> 0.85605188E+03</totfact>
</mgrwt>
</event>
<event>
 5    1  0.3266101E-002  0.1250092E+03  0.7818608E-02  0.1235055E+00
          4   -1    0    0  501    0  0.00000000000E+00  0.00000000000E+00  0.37062317740E+02  0.37084070653E+02  0.12700000000E+01 0.  1.
         -4   -1    0    0    0  501 -0.00000000000E+00 -0.00000000000E+00 -0.10535584653E+03  0.10536350079E+03  0.12700000000E+01 0.  1.
         25    2    1    2    0    0  0.00000000000E+00  0.00000000000E+00 -0.68293528791E+02  0.14244757144E+03  0.12500921780E+03 0.  0.
    9000005    1    3    3    0    0 -0.29349936794E+01 -0.54761571867E+02  0.73932857800E-02  0.54849284370E+02  0.10000000000E+01 0.  0.
    9000005    1    3    3    0    0  0.29349936794E+01  0.54761571867E+02 -0.68300922077E+02  0.87598287071E+02  0.10000000000E+01 0.  0.
<mgrwt>
<rscale>  0 0.12500922E+03</rscale>
<asrwt>0</asrwt>
<pdfrwt beam="1">  1        4 0.57041572E-02 0.12500922E+03</pdfrwt>
<pdfrwt beam="2">  1       -4 0.16210854E-01 0.12500922E+03</pdfrwt>
<totfact> 0.10081015E+04</totfact>
</mgrwt>
</event>
<event>
 5    1  0.3266101E-002  0.1250005E+03  0.7818608E-02  0.1235069E+00
         -4   -1    0    0    0  501 -0.00000000000E+00  0.00000000000E+00  0.48861041898E+01  0.50484566110E+01  0.12700000000E+01 0. -1.
          4   -1    0    0  501    0  0.00000000000E+00 -0.00000000000E+00 -0.78623947581E+03  0.78624050152E+03  0.12700000000E+01 0. -1.
         25    2    1    2    0    0  0.00000000000E+00  0.00000000000E+00 -0.78135337162E+03  0.79128895813E+03  0.12500049564E+03 0.  0.
    9000005    1    3    3    0    0  0.44505817727E+02 -0.43712829114E+02 -0.36724458760E+03  0.37250659908E+03  0.10000000000E+01 0.  0.
    9000005    1    3    3    0    0 -0.44505817727E+02  0.43712829114E+02 -0.41410878402E+03  0.41878235904E+03  0.10000000000E+01 0.  0.
<mgrwt>
<rscale>  0 0.12500050E+03</rscale>
<asrwt>0</asrwt>
<pdfrwt beam="2">  1        4 0.12097239E+00 0.12500050E+03</pdfrwt>
<pdfrwt beam="1">  1       -4 0.76427651E-03 0.12500050E+03</pdfrwt>
<totfact> 0.38656191E+03</totfact>
</mgrwt>
</event>
<event>
 5    1  0.3266101E-002  0.1249989E+03  0.7818608E-02  0.1235071E+00
         -4   -1    0    0    0  501 -0.00000000000E+00  0.00000000000E+00  0.74384962910E+01  0.75461332529E+01  0.12700000000E+01 0. -1.
          4   -1    0    0  501    0  0.00000000000E+00 -0.00000000000E+00 -0.52125001401E+03  0.52125156115E+03  0.12700000000E+01 0. -1.
         25    2    1    2    0    0  0.00000000000E+00  0.00000000000E+00 -0.51381151772E+03  0.52879769441E+03  0.12499890347E+03 0.  0.
    9000005    1    3    3    0    0  0.58863842632E+02  0.20832166014E+02 -0.24632941009E+03  0.25412223315E+03  0.10000000000E+01 0.  0.
    9000005    1    3    3    0    0 -0.58863842632E+02 -0.20832166014E+02 -0.26748210763E+03  0.27467546125E+03  0.10000000000E+01 0.  0.
<mgrwt>
<rscale>  0 0.12499890E+03</rscale>
<asrwt>0</asrwt>
<pdfrwt beam="2">  1        4 0.80200680E-01 0.12499890E+03</pdfrwt>
<pdfrwt beam="1">  1       -4 0.11527832E-02 0.12499890E+03</pdfrwt>
<totfact> 0.53698562E+03</totfact>
</mgrwt>
</event>
<event>
 5    1  0.3266101E-002  0.1249983E+03  0.7818608E-02  0.1235072E+00
         -4   -1    0    0    0  501 -0.00000000000E+00  0.00000000000E+00  0.31012136357E+02  0.31038129799E+02  0.12700000000E+01 0.  1.
          4   -1    0    0  501    0  0.00000000000E+00 -0.00000000000E+00 -0.12587330186E+03  0.12587970854E+03  0.12700000000E+01 0.  1.
         25    2    1    2    0    0  0.00000000000E+00  0.00000000000E+00 -0.94861165507E+02  0.15691783834E+03  0.12499826906E+03 0.  0.
    9000005    1    3    3    0    0  0.61774989734E+02  0.89302909876E+01 -0.43614130533E+02  0.76151768436E+02  0.10000000000E+01 0.  0.
    9000005    1    3    3    0    0 -0.61774989734E+02 -0.89302909876E+01 -0.51247034974E+02  0.80766069902E+02  0.10000000000E+01 0.  0.
<mgrwt>
<rscale>  0 0.12499827E+03</rscale>
<asrwt>0</asrwt>
<pdfrwt beam="2">  1        4 0.19367615E-01 0.12499827E+03</pdfrwt>
<pdfrwt beam="1">  1       -4 0.47735903E-02 0.12499827E+03</pdfrwt>
<totfact> 0.97944126E+03</totfact>
</mgrwt>
</event>
<event>
 5    1  0.3266101E-002  0.1250004E+03  0.7818608E-02  0.1235069E+00
         -4   -1    0    0    0  501 -0.00000000000E+00  0.00000000000E+00  0.34429234595E+03  0.34429468828E+03  0.12700000000E+01 0. -1.
          4   -1    0    0  501    0  0.00000000000E+00 -0.00000000000E+00 -0.11307874509E+02  0.11378968579E+02  0.12700000000E+01 0. -1.
         25    2    1    2    0    0  0.00000000000E+00  0.00000000000E+00  0.33298447144E+03  0.35567365686E+03  0.12500036786E+03 0.  0.
    9000005    1    3    3    0    0 -0.52516792383E+02 -0.78114329653E+01  0.72713686579E+02  0.90040614076E+02  0.10000000000E+01 0.  0.
    9000005    1    3    3    0    0  0.52516792383E+02  0.78114329653E+01  0.26027078486E+03  0.26563304278E+03  0.10000000000E+01 0.  0.
<mgrwt>
<rscale>  0 0.12500037E+03</rscale>
<asrwt>0</asrwt>
<pdfrwt beam="2">  1        4 0.17453223E-02 0.12500037E+03</pdfrwt>
<pdfrwt beam="1">  1       -4 0.52973691E-01 0.12500037E+03</pdfrwt>
<totfact> 0.69104305E+03</totfact>
</mgrwt>
</event>
<event>
 5    1  0.3266101E-002  0.1249995E+03  0.7818608E-02  0.1235070E+00
         -4   -1    0    0    0  501 -0.00000000000E+00  0.00000000000E+00  0.33292462987E+02  0.33316677382E+02  0.12700000000E+01 0.  1.
          4   -1    0    0  501    0  0.00000000000E+00 -0.00000000000E+00 -0.11726013255E+03  0.11726700979E+03  0.12700000000E+01 0.  1.
         25    2    1    2    0    0  0.00000000000E+00  0.00000000000E+00 -0.83967669558E+02  0.15058368717E+03  0.12499950924E+03 0.  0.
    9000005    1    3    3    0    0 -0.10808322115E+02 -0.23750568211E+02 -0.11038886118E+03  0.11343548823E+03  0.10000000000E+01 0.  0.
    9000005    1    3    3    0    0  0.10808322115E+02  0.23750568211E+02  0.26421191626E+02  0.37148198936E+02  0.10000000000E+01 0.  0.
<mgrwt>
<rscale>  0 0.12499951E+03</rscale>
<asrwt>0</asrwt>
<pdfrwt beam="2">  1        4 0.18042412E-01 0.12499951E+03</pdfrwt>
<pdfrwt beam="1">  1       -4 0.51243091E-02 0.12499951E+03</pdfrwt>
<totfact> 0.99188572E+03</totfact>
</mgrwt>
</event>
<event>
 5    1  0.3266101E-002  0.1249983E+03  0.7818608E-02  0.1235072E+00
          4   -1    0    0  501    0  0.00000000000E+00  0.00000000000E+00  0.12956620661E+03  0.12957243069E+03  0.12700000000E+01 0. -1.
         -4   -1    0    0    0  501 -0.00000000000E+00 -0.00000000000E+00 -0.30127539380E+02  0.30154295367E+02  0.12700000000E+01 0. -1.
         25    2    1    2    0    0  0.00000000000E+00  0.00000000000E+00  0.99438667231E+02  0.15972672606E+03  0.12499831390E+03 0.  0.
    9000005    1    3    3    0    0 -0.94774557054E+01 -0.22855372240E+02 -0.23608067735E+02  0.34213024845E+02  0.10000000000E+01 0.  0.
    9000005    1    3    3    0    0  0.94774557054E+01  0.22855372240E+02  0.12304673497E+03  0.12551370121E+03  0.10000000000E+01 0.  0.
<mgrwt>
<rscale>  0 0.12499831E+03</rscale>
<asrwt>0</asrwt>
<pdfrwt beam="1">  1        4 0.19935800E-01 0.12499831E+03</pdfrwt>
<pdfrwt beam="2">  1       -4 0.46375430E-02 0.12499831E+03</pdfrwt>
<totfact> 0.97399187E+03</totfact>
</mgrwt>
</event>
<event>
 5    1  0.3266101E-002  0.1250014E+03  0.7818608E-02  0.1235067E+00
          4   -1    0    0  501    0  0.00000000000E+00  0.00000000000E+00  0.84299249467E+01  0.85250533492E+01  0.12700000000E+01 0.  1.
         -4   -1    0    0    0  501 -0.00000000000E+00 -0.00000000000E+00 -0.46069340476E+03  0.46069515527E+03  0.12700000000E+01 0.  1.
         25    2    1    2    0    0  0.00000000000E+00  0.00000000000E+00 -0.45226347982E+03  0.46922020862E+03  0.12500139601E+03 0.  0.
    9000005    1    3    3    0    0 -0.46657751509E+01 -0.62124645240E+02 -0.24455797247E+03  0.25237044776E+03  0.10000000000E+01 0.  0.
    9000005    1    3    3    0    0  0.46657751509E+01  0.62124645240E+02 -0.20770550735E+03  0.21684976086E+03  0.10000000000E+01 0.  0.
<mgrwt>
<rscale>  0 0.12500140E+03</rscale>
<asrwt>0</asrwt>
<pdfrwt beam="1">  1        4 0.13043641E-02 0.12500140E+03</pdfrwt>
<pdfrwt beam="2">  1       -4 0.70883341E-01 0.12500140E+03</pdfrwt>
<totfact> 0.58332389E+03</totfact>
</mgrwt>
</event>
<event>
 5    1  0.3266101E-002  0.1250009E+03  0.7818608E-02  0.1235068E+00
          4   -1    0    0  501    0  0.00000000000E+00  0.00000000000E+00  0.37182983734E+03  0.37183200620E+03  0.12700000000E+01 0.  1.
         -4   -1    0    0    0  501 -0.00000000000E+00 -0.00000000000E+00 -0.10465032296E+02  0.10541812034E+02  0.12700000000E+01 0.  1.
         25    2    1    2    0    0  0.00000000000E+00  0.00000000000E+00  0.36136480504E+03  0.38237381824E+03  0.12500085819E+03 0.  0.
    9000005    1    3    3    0    0  0.55583119307E+02  0.10921048428E+02  0.99949294657E+02  0.11488957286E+03  0.10000000000E+01 0.  0.
    9000005    1    3    3    0    0 -0.55583119307E+02 -0.10921048428E+02  0.26141551039E+03  0.26748424537E+03  0.10000000000E+01 0.  0.
<mgrwt>
<rscale>  0 0.12500086E+03</rscale>
<asrwt>0</asrwt>
<pdfrwt beam="1">  1        4 0.57210669E-01 0.12500086E+03</pdfrwt>
<pdfrwt beam="2">  1       -4 0.16160778E-02 0.12500086E+03</pdfrwt>
<totfact> 0.66302706E+03</totfact>
</mgrwt>
</event>
<event>
 5    1  0.3266101E-002  0.1249992E+03  0.7818608E-02  0.1235071E+00
          4   -1    0    0  501    0  0.00000000000E+00  0.00000000000E+00  0.22492711945E+03  0.22493070481E+03  0.12700000000E+01 0.  1.
         -4   -1    0    0    0  501 -0.00000000000E+00 -0.00000000000E+00 -0.17339569548E+02  0.17386016568E+02  0.12700000000E+01 0.  1.
         25    2    1    2    0    0  0.00000000000E+00  0.00000000000E+00  0.20758754990E+03  0.24231672138E+03  0.12499921033E+03 0.  0.
    9000005    1    3    3    0    0 -0.39487095936E+02 -0.41814928620E+02  0.15117850368E+03  0.16175184381E+03  0.10000000000E+01 0.  0.
    9000005    1    3    3    0    0  0.39487095936E+02  0.41814928620E+02  0.56409046220E+02  0.80564877562E+02  0.10000000000E+01 0.  0.
<mgrwt>
<rscale>  0 0.12499921E+03</rscale>
<asrwt>0</asrwt>
<pdfrwt beam="1">  1        4 0.34608022E-01 0.12499921E+03</pdfrwt>
<pdfrwt beam="2">  1       -4 0.26714746E-02 0.12499921E+03</pdfrwt>
<totfact> 0.83455005E+03</totfact>
</mgrwt>
</event>
<event>
 4    1  0.3266101E-002  0.1248203E+03  0.7818608E-02  0.1235350E+00
         -4   -1    0    0    0  501 -0.00000000000E+00  0.00000000000E+00  0.13351677367E+02  0.13411942011E+02  0.12700000000E+01 0. -1.
          4   -1    0    0  501    0  0.00000000000E+00 -0.00000000000E+00 -0.29100713675E+03  0.29100990798E+03  0.12700000000E+01 0. -1.
    9000005    1    1    2    0    0  0.43626444597E+02 -0.18671741613E+02 -0.23765888953E+03  0.24235232282E+03  0.10000000000E+01 0.  0.
    9000005    1    1    2    0    0 -0.43626444597E+02  0.18671741613E+02 -0.39996569860E+02  0.62069527174E+02  0.10000000000E+01 0.  0.
<mgrwt>
<rscale>  0 0.12482031E+03</rscale>
<asrwt>0</asrwt>
<pdfrwt beam="2">  1        4 0.44775173E-01 0.12482031E+03</pdfrwt>
<pdfrwt beam="1">  1       -4 0.20589534E-02 0.12482031E+03</pdfrwt>
<totfact> 0.75347573E+03</totfact>
</mgrwt>
</event>
<event>
 5    1  0.3266101E-002  0.1250009E+03  0.7818608E-02  0.1235068E+00
         -4   -1    0    0    0  501 -0.00000000000E+00  0.00000000000E+00  0.15595149475E+03  0.15595666582E+03  0.12700000000E+01 0.  1.
          4   -1    0    0  501    0  0.00000000000E+00 -0.00000000000E+00 -0.25026515799E+02  0.25058718903E+02  0.12700000000E+01 0.  1.
         25    2    1    2    0    0  0.00000000000E+00  0.00000000000E+00  0.13092497895E+03  0.18101538472E+03  0.12500087757E+03 0.  0.
    9000005    1    3    3    0    0  0.13930933083E+02  0.60354829586E+02  0.53474729716E+02  0.81837174128E+02  0.10000000000E+01 0.  0.
    9000005    1    3    3    0    0 -0.13930933083E+02 -0.60354829586E+02  0.77450249233E+02  0.99178210597E+02  0.10000000000E+01 0.  0.
<mgrwt>
<rscale>  0 0.12500088E+03</rscale>
<asrwt>0</asrwt>
<pdfrwt beam="2">  1        4 0.38531083E-02 0.12500088E+03</pdfrwt>
<pdfrwt beam="1">  1       -4 0.23995412E-01 0.12500088E+03</pdfrwt>
<totfact> 0.93432712E+03</totfact>
</mgrwt>
</event>
<event>
 5    1  0.3266101E-002  0.1250014E+03  0.7818608E-02  0.1235067E+00
         -4   -1    0    0    0  501 -0.00000000000E+00  0.00000000000E+00  0.36802974868E+03  0.36803193993E+03  0.12700000000E+01 0. -1.
          4   -1    0    0  501    0  0.00000000000E+00 -0.00000000000E+00 -0.10573964071E+02  0.10649958506E+02  0.12700000000E+01 0. -1.
         25    2    1    2    0    0  0.00000000000E+00  0.00000000000E+00  0.35745578460E+03  0.37868189844E+03  0.12500136902E+03 0.  0.
    9000005    1    3    3    0    0 -0.48136946839E+02  0.70472367703E+01  0.29755333069E+03  0.30150591006E+03  0.10000000000E+01 0.  0.
    9000005    1    3    3    0    0  0.48136946839E+02 -0.70472367703E+01  0.59902453917E+02  0.77175988379E+02  0.10000000000E+01 0.  0.
<mgrwt>
<rscale>  0 0.12500137E+03</rscale>
<asrwt>0</asrwt>
<pdfrwt beam="2">  1        4 0.16327783E-02 0.12500137E+03</pdfrwt>
<pdfrwt beam="1">  1       -4 0.56625966E-01 0.12500137E+03</pdfrwt>
<totfact> 0.66678311E+03</totfact>
</mgrwt>
</event>
<event>
 5    1  0.3266101E-002  0.1250009E+03  0.7818608E-02  0.1235068E+00
          4   -1    0    0  501    0  0.00000000000E+00  0.00000000000E+00  0.17159845999E+03  0.17160315956E+03  0.12700000000E+01 0.  1.
         -4   -1    0    0    0  501 -0.00000000000E+00 -0.00000000000E+00 -0.22741493094E+02  0.22776927101E+02  0.12700000000E+01 0.  1.
         25    2    1    2    0    0  0.00000000000E+00  0.00000000000E+00  0.14885696690E+03  0.19438008667E+03  0.12500088599E+03 0.  0.
    9000005    1    3    3    0    0 -0.33092109265E+02 -0.41868916999E+02  0.12498994425E+03  0.13591019119E+03  0.10000000000E+01 0.  0.
    9000005    1    3    3    0    0  0.33092109265E+02  0.41868916999E+02  0.23867022648E+02  0.58469895471E+02  0.10000000000E+01 0.  0.
<mgrwt>
<rscale>  0 0.12500089E+03</rscale>
<asrwt>0</asrwt>
<pdfrwt beam="1">  1        4 0.26402851E-01 0.12500089E+03</pdfrwt>
<pdfrwt beam="2">  1       -4 0.35017783E-02 0.12500089E+03</pdfrwt>
<totfact> 0.91088922E+03</totfact>
</mgrwt>
</event>
<event>
 5    1  0.3266101E-002  0.1249998E+03  0.7818608E-02  0.1235070E+00
          4   -1    0    0  501    0  0.00000000000E+00  0.00000000000E+00  0.32693752171E+01  0.35073799780E+01  0.12700000000E+01 0.  1.
         -4   -1    0    0    0  501 -0.00000000000E+00 -0.00000000000E+00 -0.11525955346E+04  0.11525962343E+04  0.12700000000E+01 0.  1.
         25    2    1    2    0    0  0.00000000000E+00  0.00000000000E+00 -0.11493261594E+04  0.11561036143E+04  0.12499978505E+03 0.  0.
    9000005    1    3    3    0    0  0.54958973035E+02  0.24099212080E+02 -0.41341037194E+03  0.41774441513E+03  0.10000000000E+01 0.  0.
    9000005    1    3    3    0    0 -0.54958973035E+02 -0.24099212080E+02 -0.73591578745E+03  0.73835919914E+03  0.10000000000E+01 0.  0.
<mgrwt>
<rscale>  0 0.12499979E+03</rscale>
<asrwt>0</asrwt>
<pdfrwt beam="1">  1        4 0.52134360E-03 0.12499979E+03</pdfrwt>
<pdfrwt beam="2">  1       -4 0.17734044E+00 0.12499979E+03</pdfrwt>
<totfact> 0.25891662E+03</totfact>
</mgrwt>
</event>
<event>
 4    1  0.3266101E-002  0.1251967E+03  0.7818608E-02  0.1234762E+00
          4   -1    0    0  501    0  0.00000000000E+00  0.00000000000E+00  0.92969733129E+00  0.15739241175E+01  0.12700000000E+01 0. -1.
         -4   -1    0    0    0  501 -0.00000000000E+00 -0.00000000000E+00 -0.31296634772E+04  0.31296637349E+04  0.12700000000E+01 0. -1.
    9000005    1    1    2    0    0  0.39801312696E+02  0.47250785455E+02 -0.13132982025E+04  0.13147509080E+04  0.10000000000E+01 0.  0.
    9000005    1    1    2    0    0 -0.39801312696E+02 -0.47250785455E+02 -0.18154355773E+04  0.18164867510E+04  0.10000000000E+01 0.  0.
<mgrwt>
<rscale>  0 0.12519669E+03</rscale>
<asrwt>0</asrwt>
<pdfrwt beam="1">  1        4 0.19260859E-03 0.12519669E+03</pdfrwt>
<pdfrwt beam="2">  1       -4 0.48153000E+00 0.12519669E+03</pdfrwt>
<totfact> 0.13653376E+02</totfact>
</mgrwt>
</event>
<event>
 5    1  0.3266101E-002  0.1249998E+03  0.7818608E-02  0.1235070E+00
          4   -1    0    0  501    0  0.00000000000E+00  0.00000000000E+00  0.14946928921E+03  0.14947468453E+03  0.12700000000E+01 0. -1.
         -4   -1    0    0    0  501 -0.00000000000E+00 -0.00000000000E+00 -0.26112738313E+02  0.26143603466E+02  0.12700000000E+01 0. -1.
         25    2    1    2    0    0  0.00000000000E+00  0.00000000000E+00  0.12335655090E+03  0.17561828800E+03  0.12499977772E+03 0.  0.
    9000005    1    3    3    0    0  0.11199355793E+02 -0.15833603816E+02  0.14514107423E+03  0.14643449050E+03  0.10000000000E+01 0.  0.
    9000005    1    3    3    0    0 -0.11199355793E+02  0.15833603816E+02 -0.21784523330E+02  0.29183797503E+02  0.10000000000E+01 0.  0.
<mgrwt>
<rscale>  0 0.12499978E+03</rscale>
<asrwt>0</asrwt>
<pdfrwt beam="1">  1        4 0.22998065E-01 0.12499978E+03</pdfrwt>
<pdfrwt beam="2">  1       -4 0.40201336E-02 0.12499978E+03</pdfrwt>
<totfact> 0.94412195E+03</totfact>
</mgrwt>
</event>
<event>
 5    1  0.3266101E-002  0.1250023E+03  0.7818608E-02  0.1235066E+00
         -4   -1    0    0    0  501 -0.00000000000E+00  0.00000000000E+00  0.86773275438E+02  0.86782568701E+02  0.12700000000E+01 0.  1.
          4   -1    0    0  501    0  0.00000000000E+00 -0.00000000000E+00 -0.44997722757E+02  0.45015641207E+02  0.12700000000E+01 0.  1.
         25    2    1    2    0    0  0.00000000000E+00  0.00000000000E+00  0.41775552682E+02  0.13179820991E+03  0.12500228531E+03 0.  0.
    9000005    1    3    3    0    0  0.28065969406E+02 -0.24941302210E+02  0.73559954492E+02  0.82594395085E+02  0.10000000000E+01 0.  0.
    9000005    1    3    3    0    0 -0.28065969406E+02  0.24941302210E+02 -0.31784401811E+02  0.49203814822E+02  0.10000000000E+01 0.  0.
<mgrwt>
<rscale>  0 0.12500229E+03</rscale>
<asrwt>0</asrwt>
<pdfrwt beam="2">  1        4 0.69248199E-02 0.12500229E+03</pdfrwt>
<pdfrwt beam="1">  1       -4 0.13351828E-01 0.12500229E+03</pdfrwt>
<totfact> 0.10305476E+04</totfact>
</mgrwt>
</event>
<event>
 5    1  0.3266101E-002  0.1249984E+03  0.7818608E-02  0.1235072E+00
         -4   -1    0    0    0  501 -0.00000000000E+00  0.00000000000E+00  0.70712351680E+02  0.70723755415E+02  0.12700000000E+01 0. -1.
          4   -1    0    0  501    0  0.00000000000E+00 -0.00000000000E+00 -0.55216837115E+02  0.55231440331E+02  0.12700000000E+01 0. -1.
         25    2    1    2    0    0  0.00000000000E+00  0.00000000000E+00  0.15495514564E+02  0.12595519575E+03  0.12499840145E+03 0.  0.
    9000005    1    3    3    0    0 -0.38197205224E+02  0.11848347998E+02 -0.40637919380E+02  0.57024997403E+02  0.10000000000E+01 0.  0.
    9000005    1    3    3    0    0  0.38197205224E+02 -0.11848347998E+02  0.56133433944E+02  0.68930198343E+02  0.10000000000E+01 0.  0.
<mgrwt>
<rscale>  0 0.12499840E+03</rscale>
<asrwt>0</asrwt>
<pdfrwt beam="2">  1        4 0.84968986E-02 0.12499840E+03</pdfrwt>
<pdfrwt beam="1">  1       -4 0.10880824E-01 0.12499840E+03</pdfrwt>
<totfact> 0.10432315E+04</totfact>
</mgrwt>
</event>
<event>
 5    1  0.3266101E-002  0.1250009E+03  0.7818608E-02  0.1235068E+00
          4   -1    0    0  501    0  0.00000000000E+00  0.00000000000E+00  0.72837193283E+01  0.73936098933E+01  0.12700000000E+01 0. -1.
         -4   -1    0    0    0  501 -0.00000000000E+00 -0.00000000000E+00 -0.53218044219E+03  0.53218195756E+03  0.12700000000E+01 0. -1.
         25    2    1    2    0    0  0.00000000000E+00  0.00000000000E+00 -0.52489672286E+03  0.53957556745E+03  0.12500089327E+03 0.  0.
    9000005    1    3    3    0    0 -0.41556151621E+02  0.44229061994E+02 -0.32679024329E+03  0.33237928150E+03  0.10000000000E+01 0.  0.
    9000005    1    3    3    0    0  0.41556151621E+02 -0.44229061994E+02 -0.19810647957E+03  0.20719628595E+03  0.10000000000E+01 0.  0.
<mgrwt>
<rscale>  0 0.12500089E+03</rscale>
<asrwt>0</asrwt>
<pdfrwt beam="1">  1        4 0.11291423E-02 0.12500089E+03</pdfrwt>
<pdfrwt beam="2">  1       -4 0.81882453E-01 0.12500089E+03</pdfrwt>
<totfact> 0.52918399E+03</totfact>
</mgrwt>
</event>
<event>
 5    1  0.3266101E-002  0.1249988E+03  0.7818608E-02  0.1235071E+00
         -4   -1    0    0    0  501 -0.00000000000E+00  0.00000000000E+00  0.91934643403E+01  0.92807697189E+01  0.12700000000E+01 0. -1.
          4   -1    0    0  501    0  0.00000000000E+00 -0.00000000000E+00 -0.42278971760E+03  0.42279162504E+03  0.12700000000E+01 0. -1.
         25    2    1    2    0    0  0.00000000000E+00  0.00000000000E+00 -0.41359625326E+03  0.43207239476E+03  0.12499877442E+03 0.  0.
    9000005    1    3    3    0    0  0.45833055437E+02 -0.40771724469E+02 -0.16558304693E+03  0.17658354373E+03  0.10000000000E+01 0.  0.
    9000005    1    3    3    0    0 -0.45833055437E+02  0.40771724469E+02 -0.24801320633E+03  0.25548885103E+03  0.10000000000E+01 0.  0.
<mgrwt>
<rscale>  0 0.12499877E+03</rscale>
<asrwt>0</asrwt>
<pdfrwt beam="2">  1        4 0.65051419E-01 0.12499877E+03</pdfrwt>
<pdfrwt beam="1">  1       -4 0.14212420E-02 0.12499877E+03</pdfrwt>
<totfact> 0.61550260E+03</totfact>
</mgrwt>
</event>
<event>
 5    1  0.3266101E-002  0.1250024E+03  0.7818608E-02  0.1235065E+00
         -4   -1    0    0    0  501 -0.00000000000E+00  0.00000000000E+00  0.73090000986E+02  0.73101033810E+02  0.12700000000E+01 0.  1.
          4   -1    0    0  501    0  0.00000000000E+00 -0.00000000000E+00 -0.53423856988E+02  0.53438950172E+02  0.12700000000E+01 0.  1.
         25    2    1    2    0    0  0.00000000000E+00  0.00000000000E+00  0.19666143998E+02  0.12653998398E+03  0.12500244128E+03 0.  0.
    9000005    1    3    3    0    0  0.19527467975E+02 -0.45295833891E+02 -0.29010348525E+02  0.57233162545E+02  0.10000000000E+01 0.  0.
    9000005    1    3    3    0    0 -0.19527467975E+02  0.45295833891E+02  0.48676492523E+02  0.69306821437E+02  0.10000000000E+01 0.  0.
<mgrwt>
<rscale>  0 0.12500244E+03</rscale>
<asrwt>0</asrwt>
<pdfrwt beam="2">  1        4 0.82210646E-02 0.12500244E+03</pdfrwt>
<pdfrwt beam="1">  1       -4 0.11246625E-01 0.12500244E+03</pdfrwt>
<totfact> 0.10418582E+04</totfact>
</mgrwt>
</event>
<event>
 5    1  0.3266101E-002  0.1250041E+03  0.7818608E-02  0.1235063E+00
          4   -1    0    0  501    0  0.00000000000E+00  0.00000000000E+00  0.18910394177E+03  0.18910820631E+03  0.12700000000E+01 0.  1.
         -4   -1    0    0    0  501 -0.00000000000E+00 -0.00000000000E+00 -0.20633970884E+02  0.20673017545E+02  0.12700000000E+01 0.  1.
         25    2    1    2    0    0  0.00000000000E+00  0.00000000000E+00  0.16846997089E+03  0.20978122386E+03  0.12500412310E+03 0.  0.
    9000005    1    3    3    0    0  0.17621358260E+02  0.46874201042E+02  0.14697802098E+03  0.15527794964E+03  0.10000000000E+01 0.  0.
    9000005    1    3    3    0    0 -0.17621358260E+02 -0.46874201042E+02  0.21491949906E+02  0.54503274223E+02  0.10000000000E+01 0.  0.
<mgrwt>
<rscale>  0 0.12500412E+03</rscale>
<asrwt>0</asrwt>
<pdfrwt beam="1">  1        4 0.29096247E-01 0.12500412E+03</pdfrwt>
<pdfrwt beam="2">  1       -4 0.31777886E-02 0.12500412E+03</pdfrwt>
<totfact> 0.88503462E+03</totfact>
</mgrwt>
</event>
<event>
 5    1  0.3266101E-002  0.1249920E+03  0.7818608E-02  0.1235082E+00
          4   -1    0    0  501    0  0.00000000000E+00  0.00000000000E+00  0.16976193396E+03  0.16976668437E+03  0.12700000000E+01 0.  1.
         -4   -1    0    0    0  501 -0.00000000000E+00 -0.00000000000E+00 -0.22984619879E+02  0.23019679646E+02  0.12700000000E+01 0.  1.
         25    2    1    2    0    0  0.00000000000E+00  0.00000000000E+00  0.14677731409E+03  0.19278636402E+03  0.12499200863E+03 0.  0.
    9000005    1    3    3    0    0 -0.53486779068E+02 -0.24739992931E+01  0.12307645106E+03  0.13422283342E+03  0.10000000000E+01 0.  0.
    9000005    1    3    3    0    0  0.53486779068E+02  0.24739992931E+01  0.23700863029E+02  0.58563530596E+02  0.10000000000E+01 0.  0.
<mgrwt>
<rscale>  0 0.12499201E+03</rscale>
<asrwt>0</asrwt>
<pdfrwt beam="1">  1        4 0.26120282E-01 0.12499201E+03</pdfrwt>
<pdfrwt beam="2">  1       -4 0.35391578E-02 0.12499201E+03</pdfrwt>
<totfact> 0.91381097E+03</totfact>
</mgrwt>
</event>
<event>
 5    1  0.3266101E-002  0.1250003E+03  0.7818608E-02  0.1235069E+00
         -4   -1    0    0    0  501 -0.00000000000E+00  0.00000000000E+00  0.81442960761E+02  0.81452862182E+02  0.12700000000E+01 0.  1.
          4   -1    0    0  501    0  0.00000000000E+00 -0.00000000000E+00 -0.47942018344E+02  0.47958836755E+02  0.12700000000E+01 0.  1.
         25    2    1    2    0    0  0.00000000000E+00  0.00000000000E+00  0.33500942417E+02  0.12941169894E+03  0.12500029871E+03 0.  0.
    9000005    1    3    3    0    0  0.51487664447E+02 -0.17150185166E+02 -0.15329527654E+02  0.56401266471E+02  0.10000000000E+01 0.  0.
    9000005    1    3    3    0    0 -0.51487664447E+02  0.17150185166E+02  0.48830470072E+02  0.73010432466E+02  0.10000000000E+01 0.  0.
<mgrwt>
<rscale>  0 0.12500030E+03</rscale>
<asrwt>0</asrwt>
<pdfrwt beam="2">  1        4 0.73777507E-02 0.12500030E+03</pdfrwt>
<pdfrwt beam="1">  1       -4 0.12531741E-01 0.12500030E+03</pdfrwt>
<totfact> 0.10357039E+04</totfact>
</mgrwt>
</event>
<event>
 5    1  0.3266101E-002  0.1249884E+03  0.7818608E-02  0.1235087E+00
         -4   -1    0    0    0  501 -0.00000000000E+00  0.00000000000E+00  0.31632861095E+02  0.31658344888E+02  0.12700000000E+01 0. -1.
          4   -1    0    0  501    0  0.00000000000E+00 -0.00000000000E+00 -0.12338570424E+03  0.12339224008E+03  0.12700000000E+01 0. -1.
         25    2    1    2    0    0  0.00000000000E+00  0.00000000000E+00 -0.91752843149E+02  0.15505058497E+03  0.12498839815E+03 0.  0.
    9000005    1    3    3    0    0 -0.32892651197E+02  0.52916606708E+02 -0.40001129286E+02  0.74048525389E+02  0.10000000000E+01 0.  0.
    9000005    1    3    3    0    0  0.32892651197E+02 -0.52916606708E+02 -0.51751713864E+02  0.81002059579E+02  0.10000000000E+01 0.  0.
<mgrwt>
<rscale>  0 0.12498840E+03</rscale>
<asrwt>0</asrwt>
<pdfrwt beam="2">  1        4 0.18984879E-01 0.12498840E+03</pdfrwt>
<pdfrwt beam="1">  1       -4 0.48690572E-02 0.12498840E+03</pdfrwt>
<totfact> 0.98331224E+03</totfact>
</mgrwt>
</event>
<event>
 5    1  0.3266101E-002  0.1250041E+03  0.7818608E-02  0.1235063E+00
          4   -1    0    0  501    0  0.00000000000E+00  0.00000000000E+00  0.48786938114E+03  0.48787103414E+03  0.12700000000E+01 0.  1.
         -4   -1    0    0    0  501 -0.00000000000E+00 -0.00000000000E+00 -0.79552469445E+01  0.80559824942E+01  0.12700000000E+01 0.  1.
         25    2    1    2    0    0  0.00000000000E+00  0.00000000000E+00  0.47991413419E+03  0.49592701663E+03  0.12500411844E+03 0.  0.
    9000005    1    3    3    0    0 -0.31282323782E+02 -0.50979485082E+02  0.31180938446E+03  0.31749580142E+03  0.10000000000E+01 0.  0.
    9000005    1    3    3    0    0  0.31282323782E+02  0.50979485082E+02  0.16810474973E+03  0.17843121522E+03  0.10000000000E+01 0.  0.
<mgrwt>
<rscale>  0 0.12500412E+03</rscale>
<asrwt>0</asrwt>
<pdfrwt beam="1">  1        4 0.75064719E-01 0.12500412E+03</pdfrwt>
<pdfrwt beam="2">  1       -4 0.12317599E-02 0.12500412E+03</pdfrwt>
<totfact> 0.56176673E+03</totfact>
</mgrwt>
</event>
<event>
 5    1  0.3266101E-002  0.1249973E+03  0.7818608E-02  0.1235073E+00
         -4   -1    0    0    0  501 -0.00000000000E+00  0.00000000000E+00  0.22486588496E+02  0.22522423542E+02  0.12700000000E+01 0. -1.
          4   -1    0    0  501    0  0.00000000000E+00 -0.00000000000E+00 -0.17353074722E+03  0.17353539446E+03  0.12700000000E+01 0. -1.
         25    2    1    2    0    0  0.00000000000E+00  0.00000000000E+00 -0.15104415872E+03  0.19605781800E+03  0.12499732043E+03 0.  0.
    9000005    1    3    3    0    0 -0.54916792731E+02  0.24718052202E+02 -0.49358439592E+02  0.77872278684E+02  0.10000000000E+01 0.  0.
    9000005    1    3    3    0    0  0.54916792731E+02 -0.24718052202E+02 -0.10168571913E+03  0.11818553932E+03  0.10000000000E+01 0.  0.
<mgrwt>
<rscale>  0 0.12499732E+03</rscale>
<asrwt>0</asrwt>
<pdfrwt beam="2">  1        4 0.26700151E-01 0.12499732E+03</pdfrwt>
<pdfrwt beam="1">  1       -4 0.34625893E-02 0.12499732E+03</pdfrwt>
<totfact> 0.90809275E+03</totfact>
</mgrwt>
</event>
<event>
 5    1  0.3266101E-002  0.1250078E+03  0.7818608E-02  0.1235057E+00
          4   -1    0    0  501    0  0.00000000000E+00  0.00000000000E+00  0.44981987734E+02  0.44999912450E+02  0.12700000000E+01 0. -1.
         -4   -1    0    0    0  501 -0.00000000000E+00 -0.00000000000E+00 -0.86811233903E+02  0.86820523102E+02  0.12700000000E+01 0. -1.
         25    2    1    2    0    0  0.00000000000E+00  0.00000000000E+00 -0.41829246169E+02  0.13182043555E+03  0.12500776534E+03 0.  0.
    9000005    1    3    3    0    0  0.95417409467E+01 -0.61429248713E+02 -0.14151193509E+02  0.63764047044E+02  0.10000000000E+01 0.  0.
    9000005    1    3    3    0    0 -0.95417409467E+01  0.61429248713E+02 -0.27678052660E+02  0.68056388508E+02  0.10000000000E+01 0.  0.
<mgrwt>
<rscale>  0 0.12500777E+03</rscale>
<asrwt>0</asrwt>
<pdfrwt beam="1">  1        4 0.69223992E-02 0.12500777E+03</pdfrwt>
<pdfrwt beam="2">  1       -4 0.13357668E-01 0.12500777E+03</pdfrwt>
<totfact> 0.10303727E+04</totfact>
</mgrwt>
</event>
<event>
 5    1  0.3266101E-002  0.1249913E+03  0.7818608E-02  0.1235083E+00
         -4   -1    0    0    0  501 -0.00000000000E+00  0.00000000000E+00  0.50477264094E+02  0.50493238066E+02  0.12700000000E+01 0. -1.
          4   -1    0    0  501    0  0.00000000000E+00 -0.00000000000E+00 -0.77342062915E+02  0.77352489268E+02  0.12700000000E+01 0. -1.
         25    2    1    2    0    0  0.00000000000E+00  0.00000000000E+00 -0.26864798821E+02  0.12784572733E+03  0.12499125002E+03 0.  0.
    9000005    1    3    3    0    0  0.36188358709E+02  0.15514523073E+01 -0.65513798591E+02  0.74866962781E+02  0.10000000000E+01 0.  0.
    9000005    1    3    3    0    0 -0.36188358709E+02 -0.15514523073E+01  0.38648999770E+02  0.52978764552E+02  0.10000000000E+01 0.  0.
<mgrwt>
<rscale>  0 0.12499125E+03</rscale>
<asrwt>0</asrwt>
<pdfrwt beam="2">  1        4 0.11900810E-01 0.12499125E+03</pdfrwt>
<pdfrwt beam="1">  1       -4 0.77677637E-02 0.12499125E+03</pdfrwt>
<totfact> 0.10392873E+04</totfact>
</mgrwt>
</event>
<event>
 5    1  0.3266101E-002  0.1249996E+03  0.7818608E-02  0.1235070E+00
          4   -1    0    0  501    0  0.00000000000E+00  0.00000000000E+00  0.26969568793E+02  0.26999454455E+02  0.12700000000E+01 0.  1.
         -4   -1    0    0    0  501 -0.00000000000E+00 -0.00000000000E+00 -0.14472542256E+03  0.14473099473E+03  0.12700000000E+01 0.  1.
         25    2    1    2    0    0  0.00000000000E+00  0.00000000000E+00 -0.11775585377E+03  0.17173044919E+03  0.12499962432E+03 0.  0.
    9000005    1    3    3    0    0 -0.10433517806E+02  0.25702652053E+02 -0.13581023334E+03  0.13861783470E+03  0.10000000000E+01 0.  0.
    9000005    1    3    3    0    0  0.10433517806E+02 -0.25702652053E+02  0.18054379573E+02  0.33112614487E+02  0.10000000000E+01 0.  0.
<mgrwt>
<rscale>  0 0.12499962E+03</rscale>
<asrwt>0</asrwt>
<pdfrwt beam="1">  1        4 0.41518920E-02 0.12499962E+03</pdfrwt>
<pdfrwt beam="2">  1       -4 0.22268177E-01 0.12499962E+03</pdfrwt>
<totfact> 0.95127887E+03</totfact>
</mgrwt>
</event>
<event>
 5    1  0.3266101E-002  0.1249986E+03  0.7818608E-02  0.1235071E+00
          4   -1    0    0  501    0  0.00000000000E+00  0.00000000000E+00  0.60969121896E+02  0.60982347649E+02  0.12700000000E+01 0. -1.
         -4   -1    0    0    0  501 -0.00000000000E+00 -0.00000000000E+00 -0.64041414505E+02  0.64054005900E+02  0.12700000000E+01 0. -1.
         25    2    1    2    0    0  0.00000000000E+00  0.00000000000E+00 -0.30722926089E+01  0.12503635355E+03  0.12499860290E+03 0.  0.
    9000005    1    3    3    0    0 -0.50478012416E+02  0.31360659448E+02 -0.20871805163E+02  0.62993277016E+02  0.10000000000E+01 0.  0.
    9000005    1    3    3    0    0  0.50478012416E+02 -0.31360659448E+02  0.17799512554E+02  0.62043076533E+02  0.10000000000E+01 0.  0.
<mgrwt>
<rscale>  0 0.12499860E+03</rscale>
<asrwt>0</asrwt>
<pdfrwt beam="1">  1        4 0.93818508E-02 0.12499860E+03</pdfrwt>
<pdfrwt beam="2">  1       -4 0.98545113E-02 0.12499860E+03</pdfrwt>
<totfact> 0.10452403E+04</totfact>
</mgrwt>
</event>
<event>
 5    1  0.3266101E-002  0.1250012E+03  0.7818608E-02  0.1235067E+00
          4   -1    0    0  501    0  0.00000000000E+00  0.00000000000E+00  0.29401702547E+01  0.32027333837E+01  0.12700000000E+01 0.  1.
         -4   -1    0    0    0  501 -0.00000000000E+00 -0.00000000000E+00 -0.12715540249E+04  0.12715546592E+04  0.12700000000E+01 0.  1.
         25    2    1    2    0    0  0.00000000000E+00  0.00000000000E+00 -0.12686138547E+04  0.12747573925E+04  0.12500119021E+03 0.  0.
    9000005    1    3    3    0    0 -0.45812268064E+02  0.42208106825E+02 -0.58328021203E+03  0.58659789799E+03  0.10000000000E+01 0.  0.
    9000005    1    3    3    0    0  0.45812268064E+02 -0.42208106825E+02 -0.68533364265E+03  0.68815949455E+03  0.10000000000E+01 0.  0.
<mgrwt>
<rscale>  0 0.12500119E+03</rscale>
<asrwt>0</asrwt>
<pdfrwt beam="1">  1        4 0.47258085E-03 0.12500119E+03</pdfrwt>
<pdfrwt beam="2">  1       -4 0.19564352E+00 0.12500119E+03</pdfrwt>
<totfact> 0.22831711E+03</totfact>
</mgrwt>
</event>
<event>
 5    1  0.3266101E-002  0.1250011E+03  0.7818608E-02  0.1235068E+00
         -4   -1    0    0    0  501 -0.00000000000E+00  0.00000000000E+00  0.20249623896E+02  0.20289410241E+02  0.12700000000E+01 0. -1.
          4   -1    0    0  501    0  0.00000000000E+00 -0.00000000000E+00 -0.19267700290E+03  0.19268118836E+03  0.12700000000E+01 0. -1.
         25    2    1    2    0    0  0.00000000000E+00  0.00000000000E+00 -0.17242737901E+03  0.21297059860E+03  0.12500109934E+03 0.  0.
    9000005    1    3    3    0    0 -0.43517368110E+02 -0.40991764682E+02 -0.11722159006E+03  0.13159022485E+03  0.10000000000E+01 0.  0.
    9000005    1    3    3    0    0  0.43517368110E+02  0.40991764682E+02 -0.55205788943E+02  0.81380373750E+02  0.10000000000E+01 0.  0.
<mgrwt>
<rscale>  0 0.12500110E+03</rscale>
<asrwt>0</asrwt>
<pdfrwt beam="2">  1        4 0.29645997E-01 0.12500110E+03</pdfrwt>
<pdfrwt beam="1">  1       -4 0.31187093E-02 0.12500110E+03</pdfrwt>
<totfact> 0.87990868E+03</totfact>
</mgrwt>
</event>
<event>
 5    1  0.3266101E-002  0.1249963E+03  0.7818608E-02  0.1235075E+00
         -4   -1    0    0    0  501 -0.00000000000E+00  0.00000000000E+00  0.17466718317E+03  0.17467180017E+03  0.12700000000E+01 0.  1.
          4   -1    0    0  501    0  0.00000000000E+00 -0.00000000000E+00 -0.22339703006E+02  0.22375773292E+02  0.12700000000E+01 0.  1.
         25    2    1    2    0    0  0.00000000000E+00  0.00000000000E+00  0.15232748016E+03  0.19704757346E+03  0.12499633993E+03 0.  0.
    9000005    1    3    3    0    0  0.17385905917E+02  0.59424142588E+02  0.89495763105E+02  0.10883009722E+03  0.10000000000E+01 0.  0.
    9000005    1    3    3    0    0 -0.17385905917E+02 -0.59424142588E+02  0.62831717054E+02  0.88217476244E+02  0.10000000000E+01 0.  0.
<mgrwt>
<rscale>  0 0.12499634E+03</rscale>
<asrwt>0</asrwt>
<pdfrwt beam="2">  1        4 0.34400073E-02 0.12499634E+03</pdfrwt>
<pdfrwt beam="1">  1       -4 0.26875003E-01 0.12499634E+03</pdfrwt>
<totfact> 0.90642740E+03</totfact>
</mgrwt>
</event>
<event>
 5    1  0.3266101E-002  0.1250250E+03  0.7818608E-02  0.1235030E+00
         -4   -1    0    0    0  501 -0.00000000000E+00  0.00000000000E+00  0.31573321145E+02  0.31598852955E+02  0.12700000000E+01 0. -1.
          4   -1    0    0  501    0  0.00000000000E+00 -0.00000000000E+00 -0.12369072355E+03  0.12369724327E+03  0.12700000000E+01 0. -1.
         25    2    1    2    0    0  0.00000000000E+00  0.00000000000E+00 -0.92117402403E+02  0.15529609622E+03  0.12502504420E+03 0.  0.
    9000005    1    3    3    0    0  0.85454390836E+01  0.15561409903E+02 -0.12049924267E+03  0.12180414399E+03  0.10000000000E+01 0.  0.
    9000005    1    3    3    0    0 -0.85454390836E+01 -0.15561409903E+02  0.28381840271E+02  0.33491952235E+02  0.10000000000E+01 0.  0.
<mgrwt>
<rscale>  0 0.12502504E+03</rscale>
<asrwt>0</asrwt>
<pdfrwt beam="2">  1        4 0.19031807E-01 0.12502504E+03</pdfrwt>
<pdfrwt beam="1">  1       -4 0.48598996E-02 0.12502504E+03</pdfrwt>
<totfact> 0.98202083E+03</totfact>
</mgrwt>
</event>
<event>
 5    1  0.3266101E-002  0.1249978E+03  0.7818608E-02  0.1235073E+00
         -4   -1    0    0    0  501 -0.00000000000E+00  0.00000000000E+00  0.11245327743E+03  0.11246044862E+03  0.12700000000E+01 0.  1.
          4   -1    0    0  501    0  0.00000000000E+00 -0.00000000000E+00 -0.34715532198E+02  0.34738754667E+02  0.12700000000E+01 0.  1.
         25    2    1    2    0    0  0.00000000000E+00  0.00000000000E+00  0.77737745232E+02  0.14719920329E+03  0.12499779364E+03 0.  0.
    9000005    1    3    3    0    0  0.19541328671E+02  0.59219411592E+02  0.34113020506E+02  0.71087976505E+02  0.10000000000E+01 0.  0.
    9000005    1    3    3    0    0 -0.19541328671E+02 -0.59219411592E+02  0.43624724726E+02  0.76111226787E+02  0.10000000000E+01 0.  0.
<mgrwt>
<rscale>  0 0.12499779E+03</rscale>
<asrwt>0</asrwt>
<pdfrwt beam="2">  1        4 0.53431890E-02 0.12499779E+03</pdfrwt>
<pdfrwt beam="1">  1       -4 0.17302842E-01 0.12499779E+03</pdfrwt>
<totfact> 0.99869914E+03</totfact>
</mgrwt>
</event>
<event>
 5    1  0.3266101E-002  0.1250019E+03  0.7818608E-02  0.1235066E+00
          4   -1    0    0  501    0  0.00000000000E+00  0.00000000000E+00  0.11950225155E+04  0.11950231903E+04  0.12700000000E+01 0.  1.
         -4   -1    0    0    0  501 -0.00000000000E+00 -0.00000000000E+00 -0.31448114820E+01  0.33915688490E+01  0.12700000000E+01 0.  1.
         25    2    1    2    0    0  0.00000000000E+00  0.00000000000E+00  0.11918777040E+04  0.11984147592E+04  0.12500189482E+03 0.  0.
    9000005    1    3    3    0    0  0.42676141935E+02  0.37228661472E+02  0.84925476192E+03  0.85114151407E+03  0.10000000000E+01 0.  0.
    9000005    1    3    3    0    0 -0.42676141935E+02 -0.37228661472E+02  0.34262294206E+03  0.34727324509E+03  0.10000000000E+01 0.  0.
<mgrwt>
<rscale>  0 0.12500189E+03</rscale>
<asrwt>0</asrwt>
<pdfrwt beam="1">  1        4 0.18386877E+00 0.12500189E+03</pdfrwt>
<pdfrwt beam="2">  1       -4 0.50285006E-03 0.12500189E+03</pdfrwt>
<totfact> 0.24753234E+03</totfact>
</mgrwt>
</event>
<event>
 5    1  0.3266101E-002  0.1250076E+03  0.7818608E-02  0.1235057E+00
          4   -1    0    0  501    0  0.00000000000E+00  0.00000000000E+00  0.23783899301E+02  0.23817782558E+02  0.12700000000E+01 0.  1.
         -4   -1    0    0    0  501 -0.00000000000E+00 -0.00000000000E+00 -0.16410591852E+03  0.16411083265E+03  0.12700000000E+01 0.  1.
         25    2    1    2    0    0  0.00000000000E+00  0.00000000000E+00 -0.14032201921E+03  0.18792861520E+03  0.12500758111E+03 0.  0.
    9000005    1    3    3    0    0  0.37408799286E+02  0.45076651819E+02 -0.37417187372E+02  0.69515240876E+02  0.10000000000E+01 0.  0.
    9000005    1    3    3    0    0 -0.37408799286E+02 -0.45076651819E+02 -0.10290483184E+03  0.11841337433E+03  0.10000000000E+01 0.  0.
<mgrwt>
<rscale>  0 0.12500758E+03</rscale>
<asrwt>0</asrwt>
<pdfrwt beam="1">  1        4 0.36620459E-02 0.12500758E+03</pdfrwt>
<pdfrwt beam="2">  1       -4 0.25250048E-01 0.12500758E+03</pdfrwt>
<totfact> 0.92193323E+03</totfact>
</mgrwt>
</event>
<event>
 5    1  0.3266101E-002  0.1249998E+03  0.7818608E-02  0.1235070E+00
         -4   -1    0    0    0  501 -0.00000000000E+00  0.00000000000E+00  0.27319509427E+03  0.27319804618E+03  0.12700000000E+01 0. -1.
          4   -1    0    0  501    0  0.00000000000E+00 -0.00000000000E+00 -0.14267098379E+02  0.14323512005E+02  0.12700000000E+01 0. -1.
         25    2    1    2    0    0  0.00000000000E+00  0.00000000000E+00  0.25892799589E+03  0.28752155818E+03  0.12499975744E+03 0.  0.
    9000005    1    3    3    0    0 -0.19421687318E+02 -0.58460420383E+02  0.10529438600E+03  0.12199479666E+03  0.10000000000E+01 0.  0.
    9000005    1    3    3    0    0  0.19421687318E+02  0.58460420383E+02  0.15363360989E+03  0.16552676152E+03  0.10000000000E+01 0.  0.
<mgrwt>
<rscale>  0 0.12499976E+03</rscale>
<asrwt>0</asrwt>
<pdfrwt beam="2">  1        4 0.21995050E-02 0.12499976E+03</pdfrwt>
<pdfrwt beam="1">  1       -4 0.42034577E-01 0.12499976E+03</pdfrwt>
<totfact> 0.77191673E+03</totfact>
</mgrwt>
</event>
<event>
 5    1  0.3266101E-002  0.1249991E+03  0.7818608E-02  0.1235071E+00
          4   -1    0    0  501    0  0.00000000000E+00  0.00000000000E+00  0.11790501066E+02  0.11858702095E+02  0.12700000000E+01 0. -1.
         -4   -1    0    0    0  501 -0.00000000000E+00 -0.00000000000E+00 -0.33027502304E+03  0.33027746478E+03  0.12700000000E+01 0. -1.
         25    2    1    2    0    0  0.00000000000E+00  0.00000000000E+00 -0.31848452197E+03  0.34213616688E+03  0.12499906380E+03 0.  0.
    9000005    1    3    3    0    0 -0.58236953667E+02 -0.18423868530E+02 -0.19536897786E+03  0.20469738448E+03  0.10000000000E+01 0.  0.
    9000005    1    3    3    0    0  0.58236953667E+02  0.18423868530E+02 -0.12311554411E+03  0.13743878239E+03  0.10000000000E+01 0.  0.
<mgrwt>
<rscale>  0 0.12499906E+03</rscale>
<asrwt>0</asrwt>
<pdfrwt beam="1">  1        4 0.18193576E-02 0.12499906E+03</pdfrwt>
<pdfrwt beam="2">  1       -4 0.50816969E-01 0.12499906E+03</pdfrwt>
<totfact> 0.70599893E+03</totfact>
</mgrwt>
</event>
<event>
 5    1  0.3266101E-002  0.1249988E+03  0.7818608E-02  0.1235071E+00
         -4   -1    0    0    0  501 -0.00000000000E+00  0.00000000000E+00  0.51701359810E+03  0.51701515792E+03  0.12700000000E+01 0.  1.
          4   -1    0    0  501    0  0.00000000000E+00 -0.00000000000E+00 -0.75003164402E+01  0.76070787234E+01  0.12700000000E+01 0.  1.
         25    2    1    2    0    0  0.00000000000E+00  0.00000000000E+00  0.50951328166E+03  0.52462223665E+03  0.12499882797E+03 0.  0.
    9000005    1    3    3    0    0 -0.50837526846E+02  0.36244612141E+02  0.26590104824E+03  0.27313457031E+03  0.10000000000E+01 0.  0.
    9000005    1    3    3    0    0  0.50837526846E+02 -0.36244612141E+02  0.24361223342E+03  0.25148766633E+03  0.10000000000E+01 0.  0.
<mgrwt>
<rscale>  0 0.12499883E+03</rscale>
<asrwt>0</asrwt>
<pdfrwt beam="2">  1        4 0.11622268E-02 0.12499883E+03</pdfrwt>
<pdfrwt beam="1">  1       -4 0.79548919E-01 0.12499883E+03</pdfrwt>
<totfact> 0.54004716E+03</totfact>
</mgrwt>
</event>
<event>
 5    1  0.3266101E-002  0.1250077E+03  0.7818608E-02  0.1235057E+00
         -4   -1    0    0    0  501 -0.00000000000E+00  0.00000000000E+00  0.29780265332E+01  0.32375209702E+01  0.12700000000E+01 0.  1.
          4   -1    0    0  501    0  0.00000000000E+00 -0.00000000000E+00 -0.12568229594E+04  0.12568236010E+04  0.12700000000E+01 0.  1.
         25    2    1    2    0    0  0.00000000000E+00  0.00000000000E+00 -0.12538449328E+04  0.12600611220E+04  0.12500766204E+03 0.  0.
    9000005    1    3    3    0    0 -0.18681944175E+02  0.57110874848E+02 -0.45377685286E+03  0.45773911703E+03  0.10000000000E+01 0.  0.
    9000005    1    3    3    0    0  0.18681944175E+02 -0.57110874848E+02 -0.80006807996E+03  0.80232200495E+03  0.10000000000E+01 0.  0.
<mgrwt>
<rscale>  0 0.12500766E+03</rscale>
<asrwt>0</asrwt>
<pdfrwt beam="2">  1        4 0.19337698E+00 0.12500766E+03</pdfrwt>
<pdfrwt beam="1">  1       -4 0.47816940E-03 0.12500766E+03</pdfrwt>
<totfact> 0.23187391E+03</totfact>
</mgrwt>
</event>
<event>
 5    1  0.3266101E-002  0.1250008E+03  0.7818608E-02  0.1235068E+00
         -4   -1    0    0    0  501 -0.00000000000E+00  0.00000000000E+00  0.50093502821E+02  0.50109599129E+02  0.12700000000E+01 0.  1.
          4   -1    0    0  501    0  0.00000000000E+00 -0.00000000000E+00 -0.77946352031E+02  0.77956697563E+02  0.12700000000E+01 0.  1.
         25    2    1    2    0    0  0.00000000000E+00  0.00000000000E+00 -0.27852849210E+02  0.12806629669E+03  0.12500078056E+03 0.  0.
    9000005    1    3    3    0    0  0.22524096050E+02 -0.58281038787E+02 -0.15087531612E+02  0.64285674883E+02  0.10000000000E+01 0.  0.
    9000005    1    3    3    0    0 -0.22524096050E+02  0.58281038787E+02 -0.12765317598E+02  0.63780621809E+02  0.10000000000E+01 0.  0.
<mgrwt>
<rscale>  0 0.12500078E+03</rscale>
<asrwt>0</asrwt>
<pdfrwt beam="2">  1        4 0.11993780E-01 0.12500078E+03</pdfrwt>
<pdfrwt beam="1">  1       -4 0.77087267E-02 0.12500078E+03</pdfrwt>
<totfact> 0.10385873E+04</totfact>
</mgrwt>
</event>
<event>
 5    1  0.3266101E-002  0.1249997E+03  0.7818608E-02  0.1235070E+00
          4   -1    0    0  501    0  0.00000000000E+00  0.00000000000E+00  0.79223566227E+03  0.79223668021E+03  0.12700000000E+01 0. -1.
         -4   -1    0    0    0  501 -0.00000000000E+00 -0.00000000000E+00 -0.48478231369E+01  0.50114158844E+01  0.12700000000E+01 0. -1.
         25    2    1    2    0    0  0.00000000000E+00  0.00000000000E+00  0.78738783913E+03  0.79724809609E+03  0.12499967005E+03 0.  0.
    9000005    1    3    3    0    0  0.30862948239E+02  0.46466026927E+02  0.57336983721E+03  0.57607775816E+03  0.10000000000E+01 0.  0.
    9000005    1    3    3    0    0 -0.30862948239E+02 -0.46466026927E+02  0.21401800192E+03  0.22117033793E+03  0.10000000000E+01 0.  0.
<mgrwt>
<rscale>  0 0.12499967E+03</rscale>
<asrwt>0</asrwt>
<pdfrwt beam="1">  1        4 0.12189503E+00 0.12499967E+03</pdfrwt>
<pdfrwt beam="2">  1       -4 0.75848154E-03 0.12499967E+03</pdfrwt>
<totfact> 0.38388159E+03</totfact>
</mgrwt>
</event>
<event>
 5    1  0.3266101E-002  0.1250004E+03  0.7818608E-02  0.1235069E+00
          4   -1    0    0  501    0  0.00000000000E+00  0.00000000000E+00  0.20236635147E+03  0.20237033653E+03  0.12700000000E+01 0.  1.
         -4   -1    0    0    0  501 -0.00000000000E+00 -0.00000000000E+00 -0.19277924639E+02  0.19319712172E+02  0.12700000000E+01 0.  1.
         25    2    1    2    0    0  0.00000000000E+00  0.00000000000E+00  0.18308842684E+03  0.22169004871E+03  0.12500042262E+03 0.  0.
    9000005    1    3    3    0    0  0.59896536934E+01 -0.11301721461E+02  0.20002867768E+03  0.20043970852E+03  0.10000000000E+01 0.  0.
    9000005    1    3    3    0    0 -0.59896536934E+01  0.11301721461E+02 -0.16940250842E+02  0.21250340184E+02  0.10000000000E+01 0.  0.
<mgrwt>
<rscale>  0 0.12500042E+03</rscale>
<asrwt>0</asrwt>
<pdfrwt beam="1">  1        4 0.31136807E-01 0.12500042E+03</pdfrwt>
<pdfrwt beam="2">  1       -4 0.29693554E-02 0.12500042E+03</pdfrwt>
<totfact> 0.86600807E+03</totfact>
</mgrwt>
</event>
<event>
 5    1  0.3266101E-002  0.1250009E+03  0.7818608E-02  0.1235068E+00
          4   -1    0    0  501    0  0.00000000000E+00  0.00000000000E+00  0.15505311697E+03  0.15505831800E+03  0.12700000000E+01 0.  1.
         -4   -1    0    0    0  501 -0.00000000000E+00 -0.00000000000E+00 -0.25171725784E+02  0.25203743351E+02  0.12700000000E+01 0.  1.
         25    2    1    2    0    0  0.00000000000E+00  0.00000000000E+00  0.12988139118E+03  0.18026206135E+03  0.12500093995E+03 0.  0.
    9000005    1    3    3    0    0  0.77640517382E+01 -0.33776610796E+02 -0.10050098776E+02  0.36099091701E+02  0.10000000000E+01 0.  0.
    9000005    1    3    3    0    0 -0.77640517382E+01  0.33776610796E+02  0.13993148996E+03  0.14416296965E+03  0.10000000000E+01 0.  0.
<mgrwt>
<rscale>  0 0.12500094E+03</rscale>
<asrwt>0</asrwt>
<pdfrwt beam="1">  1        4 0.23857188E-01 0.12500094E+03</pdfrwt>
<pdfrwt beam="2">  1       -4 0.38754362E-02 0.12500094E+03</pdfrwt>
<totfact> 0.93567881E+03</totfact>
</mgrwt>
</event>
<event>
 5    1  0.3266101E-002  0.1250007E+03  0.7818608E-02  0.1235068E+00
          4   -1    0    0  501    0  0.00000000000E+00  0.00000000000E+00  0.21013680775E+03  0.21014064545E+03  0.12700000000E+01 0.  1.
         -4   -1    0    0    0  501 -0.00000000000E+00 -0.00000000000E+00 -0.18563571030E+02  0.18606962927E+02  0.12700000000E+01 0.  1.
         25    2    1    2    0    0  0.00000000000E+00  0.00000000000E+00  0.19157323672E+03  0.22874760838E+03  0.12500065325E+03 0.  0.
    9000005    1    3    3    0    0  0.10823813785E+02  0.34518826455E+02  0.18903593915E+03  0.19246893415E+03  0.10000000000E+01 0.  0.
    9000005    1    3    3    0    0 -0.10823813785E+02 -0.34518826455E+02  0.25372975718E+01  0.36278674226E+02  0.10000000000E+01 0.  0.
<mgrwt>
<rscale>  0 0.12500065E+03</rscale>
<asrwt>0</asrwt>
<pdfrwt beam="1">  1        4 0.32332371E-01 0.12500065E+03</pdfrwt>
<pdfrwt beam="2">  1       -4 0.28595672E-02 0.12500065E+03</pdfrwt>
<totfact> 0.85501029E+03</totfact>
</mgrwt>
</event>
<event>
 5    1  0.3266101E-002  0.1250011E+03  0.7818608E-02  0.1235068E+00
          4   -1    0    0  501    0  0.00000000000E+00  0.00000000000E+00  0.71626554704E+02  0.71637812912E+02  0.12700000000E+01 0.  1.
         -4   -1    0    0    0  501 -0.00000000000E+00 -0.00000000000E+00 -0.54514331462E+02  0.54529122813E+02  0.12700000000E+01 0.  1.
         25    2    1    2    0    0  0.00000000000E+00  0.00000000000E+00  0.17112223242E+02  0.12616693573E+03  0.12500106994E+03 0.  0.
    9000005    1    3    3    0    0  0.21447269808E+02  0.39919596696E+02 -0.34877291253E+02  0.57192525978E+02  0.10000000000E+01 0.  0.
    9000005    1    3    3    0    0 -0.21447269808E+02 -0.39919596696E+02  0.51989514495E+02  0.68974409747E+02  0.10000000000E+01 0.  0.
<mgrwt>
<rscale>  0 0.12500107E+03</rscale>
<asrwt>0</asrwt>
<pdfrwt beam="1">  1        4 0.11021474E-01 0.12500107E+03</pdfrwt>
<pdfrwt beam="2">  1       -4 0.83888240E-02 0.12500107E+03</pdfrwt>
<totfact> 0.10427050E+04</totfact>
</mgrwt>
</event>
<event>
 5    1  0.3266101E-002  0.1249976E+03  0.7818608E-02  0.1235073E+00
         -4   -1    0    0    0  501 -0.00000000000E+00  0.00000000000E+00  0.15467571286E+02  0.15519621822E+02  0.12700000000E+01 0. -1.
          4   -1    0    0  501    0  0.00000000000E+00 -0.00000000000E+00 -0.25205698178E+03  0.25206018124E+03  0.12700000000E+01 0. -1.
         25    2    1    2    0    0  0.00000000000E+00  0.00000000000E+00 -0.23658941050E+03  0.26757980306E+03  0.12499760736E+03 0.  0.
    9000005    1    3    3    0    0 -0.47487203027E+02  0.26091582882E+02 -0.51647846294E+02  0.74861907372E+02  0.10000000000E+01 0.  0.
    9000005    1    3    3    0    0  0.47487203027E+02 -0.26091582882E+02 -0.18494156420E+03  0.19271789569E+03  0.10000000000E+01 0.  0.
<mgrwt>
<rscale>  0 0.12499761E+03</rscale>
<asrwt>0</asrwt>
<pdfrwt beam="2">  1        4 0.38782244E-01 0.12499761E+03</pdfrwt>
<pdfrwt beam="1">  1       -4 0.23838765E-02 0.12499761E+03</pdfrwt>
<totfact> 0.79858224E+03</totfact>
</mgrwt>
</event>
<event>
 5    1  0.3266101E-002  0.1249989E+03  0.7818608E-02  0.1235071E+00
         -4   -1    0    0    0  501 -0.00000000000E+00  0.00000000000E+00  0.19259810875E+02  0.19301637623E+02  0.12700000000E+01 0.  1.
          4   -1    0    0  501    0  0.00000000000E+00 -0.00000000000E+00 -0.20255125035E+03  0.20255523177E+03  0.12700000000E+01 0.  1.
         25    2    1    2    0    0  0.00000000000E+00  0.00000000000E+00 -0.18329143947E+03  0.22185686939E+03  0.12499887485E+03 0.  0.
    9000005    1    3    3    0    0  0.46888059642E+02 -0.27117982546E+02 -0.14696092028E+03  0.15662818139E+03  0.10000000000E+01 0.  0.
    9000005    1    3    3    0    0 -0.46888059642E+02  0.27117982546E+02 -0.36330519190E+02  0.65228688006E+02  0.10000000000E+01 0.  0.
<mgrwt>
<rscale>  0 0.12499887E+03</rscale>
<asrwt>0</asrwt>
<pdfrwt beam="2">  1        4 0.31165253E-01 0.12499887E+03</pdfrwt>
<pdfrwt beam="1">  1       -4 0.29665717E-02 0.12499887E+03</pdfrwt>
<totfact> 0.86577551E+03</totfact>
</mgrwt>
</event>
<event>
 5    1  0.3266101E-002  0.1250004E+03  0.7818608E-02  0.1235069E+00
          4   -1    0    0  501    0  0.00000000000E+00  0.00000000000E+00  0.49299716672E+02  0.49316072065E+02  0.12700000000E+01 0. -1.
         -4   -1    0    0    0  501 -0.00000000000E+00 -0.00000000000E+00 -0.79200705983E+02  0.79210887687E+02  0.12700000000E+01 0. -1.
         25    2    1    2    0    0  0.00000000000E+00  0.00000000000E+00 -0.29900989311E+02  0.12852695975E+03  0.12500044088E+03 0.  0.
    9000005    1    3    3    0    0 -0.18715598233E+02 -0.58992882248E+02 -0.23845793703E+02  0.66332915287E+02  0.10000000000E+01 0.  0.
    9000005    1    3    3    0    0  0.18715598233E+02  0.58992882248E+02 -0.60551956079E+01  0.62194044465E+02  0.10000000000E+01 0.  0.
<mgrwt>
<rscale>  0 0.12500044E+03</rscale>
<asrwt>0</asrwt>
<pdfrwt beam="1">  1        4 0.75866131E-02 0.12500044E+03</pdfrwt>
<pdfrwt beam="2">  1       -4 0.12186765E-01 0.12500044E+03</pdfrwt>
<totfact> 0.10376020E+04</totfact>
</mgrwt>
</event>
<event>
 5    1  0.3266101E-002  0.1249886E+03  0.7818608E-02  0.1235087E+00
          4   -1    0    0  501    0  0.00000000000E+00  0.00000000000E+00  0.21290467985E+02  0.21328312803E+02  0.12700000000E+01 0. -1.
         -4   -1    0    0    0  501 -0.00000000000E+00 -0.00000000000E+00 -0.18323782571E+03  0.18324222677E+03  0.12700000000E+01 0. -1.
         25    2    1    2    0    0  0.00000000000E+00  0.00000000000E+00 -0.16194735772E+03  0.20457053957E+03  0.12498863543E+03 0.  0.
    9000005    1    3    3    0    0 -0.14460249280E+02 -0.34050391177E+02  0.14492795872E+01  0.37035501345E+02  0.10000000000E+01 0.  0.
    9000005    1    3    3    0    0  0.14460249280E+02  0.34050391177E+02 -0.16339663731E+03  0.16753503822E+03  0.10000000000E+01 0.  0.
<mgrwt>
<rscale>  0 0.12498864E+03</rscale>
<asrwt>0</asrwt>
<pdfrwt beam="1">  1        4 0.32787064E-02 0.12498864E+03</pdfrwt>
<pdfrwt beam="2">  1       -4 0.28193683E-01 0.12498864E+03</pdfrwt>
<totfact> 0.89393053E+03</totfact>
</mgrwt>
</event>
<event>
 5    1  0.3266101E-002  0.1250019E+03  0.7818608E-02  0.1235066E+00
         -4   -1    0    0    0  501 -0.00000000000E+00  0.00000000000E+00  0.73808331777E+03  0.73808441040E+03  0.12700000000E+01 0.  1.
          4   -1    0    0  501    0  0.00000000000E+00 -0.00000000000E+00 -0.52152869693E+01  0.53676920713E+01  0.12700000000E+01 0.  1.
         25    2    1    2    0    0  0.00000000000E+00  0.00000000000E+00  0.73286803080E+03  0.74345210247E+03  0.12500191236E+03 0.  0.
    9000005    1    3    3    0    0 -0.10886373770E+02 -0.56930934793E+02  0.50537273195E+03  0.50868678248E+03  0.10000000000E+01 0.  0.
    9000005    1    3    3    0    0  0.10886373770E+02  0.56930934793E+02  0.22749529885E+03  0.23476531999E+03  0.10000000000E+01 0.  0.
<mgrwt>
<rscale>  0 0.12500191E+03</rscale>
<asrwt>0</asrwt>
<pdfrwt beam="2">  1        4 0.81415997E-03 0.12500191E+03</pdfrwt>
<pdfrwt beam="1">  1       -4 0.11356300E+00 0.12500191E+03</pdfrwt>
<totfact> 0.40887613E+03</totfact>
</mgrwt>
</event>
<event>
 5    1  0.3266101E-002  0.1249934E+03  0.7818608E-02  0.1235080E+00
          4   -1    0    0  501    0  0.00000000000E+00  0.00000000000E+00  0.18166336917E+03  0.18166780837E+03  0.12700000000E+01 0.  1.
         -4   -1    0    0    0  501 -0.00000000000E+00 -0.00000000000E+00 -0.21476948998E+02  0.21514465790E+02  0.12700000000E+01 0.  1.
         25    2    1    2    0    0  0.00000000000E+00  0.00000000000E+00  0.16018642017E+03  0.20318227416E+03  0.12499338913E+03 0.  0.
    9000005    1    3    3    0    0 -0.54291328412E+02  0.59859654207E+01  0.12943742473E+03  0.14049351246E+03  0.10000000000E+01 0.  0.
    9000005    1    3    3    0    0  0.54291328412E+02 -0.59859654207E+01  0.30748995440E+02  0.62688761699E+02  0.10000000000E+01 0.  0.
<mgrwt>
<rscale>  0 0.12499339E+03</rscale>
<asrwt>0</asrwt>
<pdfrwt beam="1">  1        4 0.27951438E-01 0.12499339E+03</pdfrwt>
<pdfrwt beam="2">  1       -4 0.33073734E-02 0.12499339E+03</pdfrwt>
<totfact> 0.89614804E+03</totfact>
</mgrwt>
</event>
<event>
 5    1  0.3266101E-002  0.1249978E+03  0.7818608E-02  0.1235073E+00
         -4   -1    0    0    0  501 -0.00000000000E+00  0.00000000000E+00  0.44369647940E+03  0.44369829696E+03  0.12700000000E+01 0.  1.
          4   -1    0    0  501    0  0.00000000000E+00 -0.00000000000E+00 -0.87559276953E+01  0.88475516277E+01  0.12700000000E+01 0.  1.
         25    2    1    2    0    0  0.00000000000E+00  0.00000000000E+00  0.43494055170E+03  0.45254584859E+03  0.12499784624E+03 0.  0.
    9000005    1    3    3    0    0 -0.58167677624E+02 -0.21266088668E+02  0.24762872105E+03  0.25525812178E+03  0.10000000000E+01 0.  0.
    9000005    1    3    3    0    0  0.58167677624E+02  0.21266088668E+02  0.18731183065E+03  0.19728772681E+03  0.10000000000E+01 0.  0.
<mgrwt>
<rscale>  0 0.12499785E+03</rscale>
<asrwt>0</asrwt>
<pdfrwt beam="2">  1        4 0.13542536E-02 0.12499785E+03</pdfrwt>
<pdfrwt beam="1">  1       -4 0.68268184E-01 0.12499785E+03</pdfrwt>
<totfact> 0.59746714E+03</totfact>
</mgrwt>
</event>
<event>
 5    1  0.3266101E-002  0.1249967E+03  0.7818608E-02  0.1235074E+00
         -4   -1    0    0    0  501 -0.00000000000E+00  0.00000000000E+00  0.48389558097E+02  0.48406221013E+02  0.12700000000E+01 0.  1.
          4   -1    0    0  501    0  0.00000000000E+00 -0.00000000000E+00 -0.80685225907E+02  0.80695220303E+02  0.12700000000E+01 0.  1.
         25    2    1    2    0    0  0.00000000000E+00  0.00000000000E+00 -0.32295667811E+02  0.12910144132E+03  0.12499668792E+03 0.  0.
    9000005    1    3    3    0    0 -0.52569058326E+02  0.16325997680E+02 -0.46699601371E+02  0.72193468276E+02  0.10000000000E+01 0.  0.
    9000005    1    3    3    0    0  0.52569058326E+02 -0.16325997680E+02  0.14403933560E+02  0.56907973040E+02  0.10000000000E+01 0.  0.
<mgrwt>
<rscale>  0 0.12499669E+03</rscale>
<asrwt>0</asrwt>
<pdfrwt beam="2">  1        4 0.12415162E-01 0.12499669E+03</pdfrwt>
<pdfrwt beam="1">  1       -4 0.74465980E-02 0.12499669E+03</pdfrwt>
<totfact> 0.10364542E+04</totfact>
</mgrwt>
</event>
<event>
 5    1  0.3266101E-002  0.1249993E+03  0.7818608E-02  0.1235070E+00
         -4   -1    0    0    0  501 -0.00000000000E+00  0.00000000000E+00  0.58606504485E+02  0.58620263288E+02  0.12700000000E+01 0. -1.
          4   -1    0    0  501    0  0.00000000000E+00 -0.00000000000E+00 -0.66623814530E+02  0.66635917961E+02  0.12700000000E+01 0. -1.
         25    2    1    2    0    0  0.00000000000E+00  0.00000000000E+00 -0.80173100450E+01  0.12525618125E+03  0.12499933472E+03 0.  0.
    9000005    1    3    3    0    0 -0.19066515261E+02  0.25252097608E+02  0.49990923280E+02  0.59171723384E+02  0.10000000000E+01 0.  0.
    9000005    1    3    3    0    0  0.19066515261E+02 -0.25252097608E+02 -0.58008233325E+02  0.66084457865E+02  0.10000000000E+01 0.  0.
<mgrwt>
<rscale>  0 0.12499933E+03</rscale>
<asrwt>0</asrwt>
<pdfrwt beam="2">  1        4 0.10251807E-01 0.12499933E+03</pdfrwt>
<pdfrwt beam="1">  1       -4 0.90183747E-02 0.12499933E+03</pdfrwt>
<totfact> 0.10447458E+04</totfact>
</mgrwt>
</event>
<event>
 5    1  0.3266101E-002  0.1249992E+03  0.7818608E-02  0.1235070E+00
         -4   -1    0    0    0  501 -0.00000000000E+00  0.00000000000E+00  0.28502640825E+03  0.28502923762E+03  0.12700000000E+01 0.  1.
          4   -1    0    0  501    0  0.00000000000E+00 -0.00000000000E+00 -0.13672377456E+02  0.13731234661E+02  0.12700000000E+01 0.  1.
         25    2    1    2    0    0  0.00000000000E+00  0.00000000000E+00  0.27135403079E+03  0.29876047228E+03  0.12499923908E+03 0.  0.
    9000005    1    3    3    0    0  0.57269153540E+02 -0.19793272503E+02  0.99141107454E+02  0.11619590686E+03  0.10000000000E+01 0.  0.
    9000005    1    3    3    0    0 -0.57269153540E+02  0.19793272503E+02  0.17221292334E+03  0.18256456542E+03  0.10000000000E+01 0.  0.
<mgrwt>
<rscale>  0 0.12499924E+03</rscale>
<asrwt>0</asrwt>
<pdfrwt beam="2">  1        4 0.21081879E-02 0.12499924E+03</pdfrwt>
<pdfrwt beam="1">  1       -4 0.43854961E-01 0.12499924E+03</pdfrwt>
<totfact> 0.75755865E+03</totfact>
</mgrwt>
</event>
<event>
 5    1  0.3266101E-002  0.1250040E+03  0.7818608E-02  0.1235063E+00
         -4   -1    0    0    0  501 -0.00000000000E+00  0.00000000000E+00  0.49654728708E+03  0.49654891120E+03  0.12700000000E+01 0. -1.
          4   -1    0    0  501    0  0.00000000000E+00 -0.00000000000E+00 -0.78144259913E+01  0.79169535538E+01  0.12700000000E+01 0. -1.
         25    2    1    2    0    0  0.00000000000E+00  0.00000000000E+00  0.48873286109E+03  0.50446586475E+03  0.12500399668E+03 0.  0.
    9000005    1    3    3    0    0 -0.62457508844E+02 -0.17884776956E+01  0.23965888674E+03  0.24767220485E+03  0.10000000000E+01 0.  0.
    9000005    1    3    3    0    0  0.62457508844E+02  0.17884776956E+01  0.24907397435E+03  0.25679365989E+03  0.10000000000E+01 0.  0.
<mgrwt>
<rscale>  0 0.12500400E+03</rscale>
<asrwt>0</asrwt>
<pdfrwt beam="2">  1        4 0.12102307E-02 0.12500400E+03</pdfrwt>
<pdfrwt beam="1">  1       -4 0.76399925E-01 0.12500400E+03</pdfrwt>
<totfact> 0.55514637E+03</totfact>
</mgrwt>
</event>
<event>
 5    1  0.3266101E-002  0.1250010E+03  0.7818608E-02  0.1235068E+00
         -4   -1    0    0    0  501 -0.00000000000E+00  0.00000000000E+00  0.16290241014E+04  0.16290245964E+04  0.12700000000E+01 0.  1.
          4   -1    0    0  501    0  0.00000000000E+00 -0.00000000000E+00 -0.22292633139E+01  0.25656412304E+01  0.12700000000E+01 0.  1.
         25    2    1    2    0    0  0.00000000000E+00  0.00000000000E+00  0.16267948381E+04  0.16315902377E+04  0.12500103389E+03 0.  0.
    9000005    1    3    3    0    0 -0.22431612557E+02  0.57649059795E+02  0.92920822566E+03  0.93126554643E+03  0.10000000000E+01 0.  0.
    9000005    1    3    3    0    0  0.22431612557E+02 -0.57649059795E+02  0.69758661241E+03  0.70032469123E+03  0.10000000000E+01 0.  0.
<mgrwt>
<rscale>  0 0.12500103E+03</rscale>
<asrwt>0</asrwt>
<pdfrwt beam="2">  1        4 0.36887640E-03 0.12500103E+03</pdfrwt>
<pdfrwt beam="1">  1       -4 0.25064534E+00 0.12500103E+03</pdfrwt>
<totfact> 0.15481423E+03</totfact>
</mgrwt>
</event>
<event>
 5    1  0.3266101E-002  0.1250000E+03  0.7818608E-02  0.1235069E+00
         -4   -1    0    0    0  501 -0.00000000000E+00  0.00000000000E+00  0.12841454709E+03  0.12842082699E+03  0.12700000000E+01 0.  1.
          4   -1    0    0  501    0  0.00000000000E+00 -0.00000000000E+00 -0.30398756162E+02  0.30425273643E+02  0.12700000000E+01 0.  1.
         25    2    1    2    0    0  0.00000000000E+00  0.00000000000E+00  0.98015790930E+02  0.15884610063E+03  0.12499995366E+03 0.  0.
    9000005    1    3    3    0    0  0.34307736385E+02  0.46125985835E+02  0.17864460333E+02  0.60206031991E+02  0.10000000000E+01 0.  0.
    9000005    1    3    3    0    0 -0.34307736385E+02 -0.46125985835E+02  0.80151330598E+02  0.98640068642E+02  0.10000000000E+01 0.  0.
<mgrwt>
<rscale>  0 0.12499995E+03</rscale>
<asrwt>0</asrwt>
<pdfrwt beam="2">  1        4 0.46792546E-02 0.12499995E+03</pdfrwt>
<pdfrwt beam="1">  1       -4 0.19758607E-01 0.12499995E+03</pdfrwt>
<totfact> 0.97565811E+03</totfact>
</mgrwt>
</event>
<event>
 5    1  0.3266101E-002  0.1250020E+03  0.7818608E-02  0.1235066E+00
          4   -1    0    0  501    0  0.00000000000E+00  0.00000000000E+00  0.10328075823E+03  0.10328856627E+03  0.12700000000E+01 0. -1.
         -4   -1    0    0    0  501 -0.00000000000E+00 -0.00000000000E+00 -0.37802980888E+02  0.37824307846E+02  0.12700000000E+01 0. -1.
         25    2    1    2    0    0  0.00000000000E+00  0.00000000000E+00  0.65477777346E+02  0.14111287411E+03  0.12500201564E+03 0.  0.
    9000005    1    3    3    0    0 -0.58201914905E+02 -0.25674582514E+01  0.58265698169E+02  0.82401130597E+02  0.10000000000E+01 0.  0.
    9000005    1    3    3    0    0  0.58201914905E+02  0.25674582514E+01  0.72120791763E+01  0.58711743515E+02  0.10000000000E+01 0.  0.
<mgrwt>
<rscale>  0 0.12500202E+03</rscale>
<asrwt>0</asrwt>
<pdfrwt beam="1">  1        4 0.15891589E-01 0.12500202E+03</pdfrwt>
<pdfrwt beam="2">  1       -4 0.58180844E-02 0.12500202E+03</pdfrwt>
<totfact> 0.10110114E+04</totfact>
</mgrwt>
</event>
<event>
 5    1  0.3266101E-002  0.1250015E+03  0.7818608E-02  0.1235067E+00
          4   -1    0    0  501    0  0.00000000000E+00  0.00000000000E+00  0.10772726662E+04  0.10772734148E+04  0.12700000000E+01 0. -1.
         -4   -1    0    0    0  501 -0.00000000000E+00 -0.00000000000E+00 -0.35141703865E+01  0.37366152472E+01  0.12700000000E+01 0. -1.
         25    2    1    2    0    0  0.00000000000E+00  0.00000000000E+00  0.10737584958E+04  0.10810100300E+04  0.12500151094E+03 0.  0.
    9000005    1    3    3    0    0  0.54946175626E+02 -0.26348314386E+02  0.65671802243E+03  0.65953989787E+03  0.10000000000E+01 0.  0.
    9000005    1    3    3    0    0 -0.54946175626E+02  0.26348314386E+02  0.41704047334E+03  0.42147013214E+03  0.10000000000E+01 0.  0.
<mgrwt>
<rscale>  0 0.12500151E+03</rscale>
<asrwt>0</asrwt>
<pdfrwt beam="1">  1        4 0.16575140E+00 0.12500151E+03</pdfrwt>
<pdfrwt beam="2">  1       -4 0.55781042E-03 0.12500151E+03</pdfrwt>
<totfact> 0.28045004E+03</totfact>
</mgrwt>
</event>
<event>
 5    1  0.3266101E-002  0.1249993E+03  0.7818608E-02  0.1235070E+00
          4   -1    0    0  501    0  0.00000000000E+00  0.00000000000E+00  0.93995918541E+02  0.94004497777E+02  0.12700000000E+01 0. -1.
         -4   -1    0    0    0  501 -0.00000000000E+00 -0.00000000000E+00 -0.41536979182E+02  0.41556389877E+02  0.12700000000E+01 0. -1.
         25    2    1    2    0    0  0.00000000000E+00  0.00000000000E+00  0.52458939359E+02  0.13556088765E+03  0.12499925577E+03 0.  0.
    9000005    1    3    3    0    0 -0.65129549895E+00  0.35452890278E+02  0.82034771284E+02  0.89375809448E+02  0.10000000000E+01 0.  0.
    9000005    1    3    3    0    0  0.65129549895E+00 -0.35452890278E+02 -0.29575831925E+02  0.46185078206E+02  0.10000000000E+01 0.  0.
<mgrwt>
<rscale>  0 0.12499926E+03</rscale>
<asrwt>0</asrwt>
<pdfrwt beam="1">  1        4 0.14463063E-01 0.12499926E+03</pdfrwt>
<pdfrwt beam="2">  1       -4 0.63924577E-02 0.12499926E+03</pdfrwt>
<totfact> 0.10226434E+04</totfact>
</mgrwt>
</event>
<event>
 5    1  0.3266101E-002  0.1250140E+03  0.7818608E-02  0.1235047E+00
          4   -1    0    0  501    0  0.00000000000E+00  0.00000000000E+00  0.88343467422E+03  0.88343558708E+03  0.12700000000E+01 0. -1.
         -4   -1    0    0    0  501 -0.00000000000E+00 -0.00000000000E+00 -0.43305452672E+01  0.45129283521E+01  0.12700000000E+01 0. -1.
         25    2    1    2    0    0  0.00000000000E+00  0.00000000000E+00  0.87910412896E+03  0.88794851543E+03  0.12501398526E+03 0.  0.
    9000005    1    3    3    0    0  0.31018790842E+02  0.26723598292E+02  0.10415216847E+03  0.11191510304E+03  0.10000000000E+01 0.  0.
    9000005    1    3    3    0    0 -0.31018790842E+02 -0.26723598292E+02  0.77495196049E+03  0.77603341240E+03  0.10000000000E+01 0.  0.
<mgrwt>
<rscale>  0 0.12501399E+03</rscale>
<asrwt>0</asrwt>
<pdfrwt beam="1">  1        4 0.13592705E+00 0.12501399E+03</pdfrwt>
<pdfrwt beam="2">  1       -4 0.68033783E-03 0.12501399E+03</pdfrwt>
<totfact> 0.34612135E+03</totfact>
</mgrwt>
</event>
<event>
 5    1  0.3266101E-002  0.1249978E+03  0.7818608E-02  0.1235073E+00
          4   -1    0    0  501    0  0.00000000000E+00  0.00000000000E+00  0.14673073190E+02  0.14727931859E+02  0.12700000000E+01 0.  1.
         -4   -1    0    0    0  501 -0.00000000000E+00 -0.00000000000E+00 -0.26565627638E+03  0.26565931205E+03  0.12700000000E+01 0.  1.
         25    2    1    2    0    0  0.00000000000E+00  0.00000000000E+00 -0.25098320319E+03  0.28038724391E+03  0.12499775304E+03 0.  0.
    9000005    1    3    3    0    0 -0.32670421009E+01 -0.55350779473E+02 -0.19014409288E+03  0.19806604557E+03  0.10000000000E+01 0.  0.
    9000005    1    3    3    0    0  0.32670421009E+01  0.55350779473E+02 -0.60839110313E+02  0.82321198339E+02  0.10000000000E+01 0.  0.
<mgrwt>
<rscale>  0 0.12499775E+03</rscale>
<asrwt>0</asrwt>
<pdfrwt beam="1">  1        4 0.22618495E-02 0.12499775E+03</pdfrwt>
<pdfrwt beam="2">  1       -4 0.40874646E-01 0.12499775E+03</pdfrwt>
<totfact> 0.78130691E+03</totfact>
</mgrwt>
</event>
<event>
 5    1  0.3266101E-002  0.1250013E+03  0.7818608E-02  0.1235067E+00
         -4   -1    0    0    0  501 -0.00000000000E+00  0.00000000000E+00  0.92937743939E+02  0.92946420848E+02  0.12700000000E+01 0. -1.
          4   -1    0    0  501    0  0.00000000000E+00 -0.00000000000E+00 -0.42011495228E+02  0.42030686781E+02  0.12700000000E+01 0. -1.
         25    2    1    2    0    0  0.00000000000E+00  0.00000000000E+00  0.50926248711E+02  0.13497710763E+03  0.12500134710E+03 0.  0.
    9000005    1    3    3    0    0  0.35090819032E+02 -0.18365678386E+02 -0.26733709381E+02  0.47794925883E+02  0.10000000000E+01 0.  0.
    9000005    1    3    3    0    0 -0.35090819032E+02  0.18365678386E+02  0.77659958092E+02  0.87182181745E+02  0.10000000000E+01 0.  0.
<mgrwt>
<rscale>  0 0.12500135E+03</rscale>
<asrwt>0</asrwt>
<pdfrwt beam="2">  1        4 0.64654508E-02 0.12500135E+03</pdfrwt>
<pdfrwt beam="1">  1       -4 0.14300258E-01 0.12500135E+03</pdfrwt>
<totfact> 0.10238242E+04</totfact>
</mgrwt>
</event>
<event>
 5    1  0.3266101E-002  0.1249932E+03  0.7818608E-02  0.1235080E+00
         -4   -1    0    0    0  501 -0.00000000000E+00  0.00000000000E+00  0.92850877745E+01  0.93715396270E+01  0.12700000000E+01 0. -1.
          4   -1    0    0  501    0  0.00000000000E+00 -0.00000000000E+00 -0.41861928882E+03  0.41862121527E+03  0.12700000000E+01 0. -1.
         25    2    1    2    0    0  0.00000000000E+00  0.00000000000E+00 -0.40933420104E+03  0.42799275489E+03  0.12499324020E+03 0.  0.
    9000005    1    3    3    0    0 -0.11852252904E+02 -0.13466012816E+02  0.29539177136E+00  0.17969325428E+02  0.10000000000E+01 0.  0.
    9000005    1    3    3    0    0  0.11852252904E+02  0.13466012816E+02 -0.40962959282E+03  0.41002342947E+03  0.10000000000E+01 0.  0.
<mgrwt>
<rscale>  0 0.12499324E+03</rscale>
<asrwt>0</asrwt>
<pdfrwt beam="2">  1        4 0.64409751E-01 0.12499324E+03</pdfrwt>
<pdfrwt beam="1">  1       -4 0.14352737E-02 0.12499324E+03</pdfrwt>
<totfact> 0.61927595E+03</totfact>
</mgrwt>
</event>
<event>
 5    1  0.3266101E-002  0.1249986E+03  0.7818608E-02  0.1235071E+00
         -4   -1    0    0    0  501 -0.00000000000E+00  0.00000000000E+00  0.88801949818E+02  0.88811030799E+02  0.12700000000E+01 0.  1.
          4   -1    0    0  501    0  0.00000000000E+00 -0.00000000000E+00 -0.43966864080E+02  0.43985202478E+02  0.12700000000E+01 0.  1.
         25    2    1    2    0    0  0.00000000000E+00  0.00000000000E+00  0.44835085739E+02  0.13279623328E+03  0.12499861863E+03 0.  0.
    9000005    1    3    3    0    0 -0.53845807943E+02 -0.82228768514E+01  0.54957945120E+02  0.77384510520E+02  0.10000000000E+01 0.  0.
    9000005    1    3    3    0    0  0.53845807943E+02  0.82228768514E+01 -0.10122859381E+02  0.55411722756E+02  0.10000000000E+01 0.  0.
<mgrwt>
<rscale>  0 0.12499862E+03</rscale>
<asrwt>0</asrwt>
<pdfrwt beam="2">  1        4 0.67662421E-02 0.12499862E+03</pdfrwt>
<pdfrwt beam="1">  1       -4 0.13663948E-01 0.12499862E+03</pdfrwt>
<totfact> 0.10285053E+04</totfact>
</mgrwt>
</event>
<event>
 5    1  0.3266101E-002  0.1249992E+03  0.7818608E-02  0.1235070E+00
         -4   -1    0    0    0  501 -0.00000000000E+00  0.00000000000E+00  0.24637260966E+02  0.24669972191E+02  0.12700000000E+01 0.  1.
          4   -1    0    0  501    0  0.00000000000E+00 -0.00000000000E+00 -0.15840814934E+03  0.15841324023E+03  0.12700000000E+01 0.  1.
         25    2    1    2    0    0  0.00000000000E+00  0.00000000000E+00 -0.13377088838E+03  0.18308321242E+03  0.12499924836E+03 0.  0.
    9000005    1    3    3    0    0  0.29225039378E+02 -0.55055717186E+02 -0.73430442021E+02  0.96323749600E+02  0.10000000000E+01 0.  0.
    9000005    1    3    3    0    0 -0.29225039378E+02  0.55055717186E+02 -0.60340446357E+02  0.86759462816E+02  0.10000000000E+01 0.  0.
<mgrwt>
<rscale>  0 0.12499925E+03</rscale>
<asrwt>0</asrwt>
<pdfrwt beam="2">  1        4 0.24373392E-01 0.12499925E+03</pdfrwt>
<pdfrwt beam="1">  1       -4 0.37932558E-02 0.12499925E+03</pdfrwt>
<totfact> 0.93066509E+03</totfact>
</mgrwt>
</event>
<event>
 5    1  0.3266101E-002  0.1249849E+03  0.7818608E-02  0.1235093E+00
         -4   -1    0    0    0  501 -0.00000000000E+00  0.00000000000E+00  0.78316703666E+03  0.78316806639E+03  0.12700000000E+01 0.  1.
          4   -1    0    0  501    0  0.00000000000E+00 -0.00000000000E+00 -0.49046423766E+01  0.50664007779E+01  0.12700000000E+01 0.  1.
         25    2    1    2    0    0  0.00000000000E+00  0.00000000000E+00  0.77826239429E+03  0.78823446717E+03  0.12498488258E+03 0.  0.
    9000005    1    3    3    0    0 -0.39019861911E+02  0.31284616465E+02  0.62535908170E+03  0.62735656362E+03  0.10000000000E+01 0.  0.
    9000005    1    3    3    0    0  0.39019861911E+02 -0.31284616465E+02  0.15290331258E+03  0.16087790355E+03  0.10000000000E+01 0.  0.
<mgrwt>
<rscale>  0 0.12498488E+03</rscale>
<asrwt>0</asrwt>
<pdfrwt beam="2">  1        4 0.76708197E-03 0.12498488E+03</pdfrwt>
<pdfrwt beam="1">  1       -4 0.12049985E+00 0.12498488E+03</pdfrwt>
<totfact> 0.38808190E+03</totfact>
</mgrwt>
</event>
<event>
 5    1  0.3266101E-002  0.1250229E+03  0.7818608E-02  0.1235033E+00
         -4   -1    0    0    0  501 -0.00000000000E+00  0.00000000000E+00  0.42372591279E+02  0.42391619357E+02  0.12700000000E+01 0.  1.
          4   -1    0    0  501    0  0.00000000000E+00 -0.00000000000E+00 -0.92177876449E+02  0.92186624880E+02  0.12700000000E+01 0.  1.
         25    2    1    2    0    0  0.00000000000E+00  0.00000000000E+00 -0.49805285171E+02  0.13457824424E+03  0.12502294746E+03 0.  0.
    9000005    1    3    3    0    0 -0.46098811434E+02  0.42076902014E+02 -0.21313395776E+02  0.65960798496E+02  0.10000000000E+01 0.  0.
    9000005    1    3    3    0    0  0.46098811434E+02 -0.42076902014E+02 -0.28491889394E+02  0.68617445740E+02  0.10000000000E+01 0.  0.
<mgrwt>
<rscale>  0 0.12502295E+03</rscale>
<asrwt>0</asrwt>
<pdfrwt beam="2">  1        4 0.14183348E-01 0.12502295E+03</pdfrwt>
<pdfrwt beam="1">  1       -4 0.65209969E-02 0.12502295E+03</pdfrwt>
<totfact> 0.10241667E+04</totfact>
</mgrwt>
</event>
<event>
 5    1  0.3266101E-002  0.1250101E+03  0.7818608E-02  0.1235054E+00
         -4   -1    0    0    0  501 -0.00000000000E+00  0.00000000000E+00  0.87528308216E+01  0.88444868359E+01  0.12700000000E+01 0. -1.
          4   -1    0    0  501    0  0.00000000000E+00 -0.00000000000E+00 -0.44393880388E+03  0.44394062046E+03  0.12700000000E+01 0. -1.
         25    2    1    2    0    0  0.00000000000E+00  0.00000000000E+00 -0.43518597306E+03  0.45278510730E+03  0.12501008855E+03 0.  0.
    9000005    1    3    3    0    0  0.39227831576E+01  0.46603117788E+02 -0.67438003509E+02  0.82073888250E+02  0.10000000000E+01 0.  0.
    9000005    1    3    3    0    0 -0.39227831576E+01 -0.46603117788E+02 -0.36774796955E+03  0.37071121905E+03  0.10000000000E+01 0.  0.
<mgrwt>
<rscale>  0 0.12501009E+03</rscale>
<asrwt>0</asrwt>
<pdfrwt beam="2">  1        4 0.68305450E-01 0.12501009E+03</pdfrwt>
<pdfrwt beam="1">  1       -4 0.13537799E-02 0.12501009E+03</pdfrwt>
<totfact> 0.59710018E+03</totfact>
</mgrwt>
</event>
<event>
 5    1  0.3266101E-002  0.1250234E+03  0.7818608E-02  0.1235033E+00
          4   -1    0    0  501    0  0.00000000000E+00  0.00000000000E+00  0.24610745507E+03  0.24611073187E+03  0.12700000000E+01 0. -1.
         -4   -1    0    0    0  501 -0.00000000000E+00 -0.00000000000E+00 -0.15849283031E+02  0.15900084044E+02  0.12700000000E+01 0. -1.
         25    2    1    2    0    0  0.00000000000E+00  0.00000000000E+00  0.23025817204E+03  0.26201081592E+03  0.12502336528E+03 0.  0.
    9000005    1    3    3    0    0  0.44456562685E+02 -0.49982850265E+01  0.20660662348E+03  0.21139693869E+03  0.10000000000E+01 0.  0.
    9000005    1    3    3    0    0 -0.44456562685E+02  0.49982850265E+01  0.23651548560E+02  0.50613877230E+02  0.10000000000E+01 0.  0.
<mgrwt>
<rscale>  0 0.12502337E+03</rscale>
<asrwt>0</asrwt>
<pdfrwt beam="1">  1        4 0.37866845E-01 0.12502337E+03</pdfrwt>
<pdfrwt beam="2">  1       -4 0.24425111E-02 0.12502337E+03</pdfrwt>
<totfact> 0.80582783E+03</totfact>
</mgrwt>
</event>
<event>
 5    1  0.3266101E-002  0.1250042E+03  0.7818608E-02  0.1235063E+00
         -4   -1    0    0    0  501 -0.00000000000E+00  0.00000000000E+00  0.17553631123E+03  0.17554090537E+03  0.12700000000E+01 0. -1.
          4   -1    0    0  501    0  0.00000000000E+00 -0.00000000000E+00 -0.22231731184E+02  0.22267976366E+02  0.12700000000E+01 0. -1.
         25    2    1    2    0    0  0.00000000000E+00  0.00000000000E+00  0.15330458004E+03  0.19780888174E+03  0.12500423766E+03 0.  0.
    9000005    1    3    3    0    0 -0.26603663074E+02 -0.56302107133E+02  0.85000603212E+02  0.10537449740E+03  0.10000000000E+01 0.  0.
    9000005    1    3    3    0    0  0.26603663074E+02  0.56302107133E+02  0.68303976831E+02  0.92434384336E+02  0.10000000000E+01 0.  0.
<mgrwt>
<rscale>  0 0.12500424E+03</rscale>
<asrwt>0</asrwt>
<pdfrwt beam="2">  1        4 0.34234079E-02 0.12500424E+03</pdfrwt>
<pdfrwt beam="1">  1       -4 0.27008727E-01 0.12500424E+03</pdfrwt>
<totfact> 0.90497483E+03</totfact>
</mgrwt>
</event>
<event>
 5    1  0.3266101E-002  0.1249992E+03  0.7818608E-02  0.1235071E+00
         -4   -1    0    0    0  501 -0.00000000000E+00  0.00000000000E+00  0.53253009123E+02  0.53268150716E+02  0.12700000000E+01 0. -1.
          4   -1    0    0  501    0  0.00000000000E+00 -0.00000000000E+00 -0.73320636222E+02  0.73331634347E+02  0.12700000000E+01 0. -1.
         25    2    1    2    0    0  0.00000000000E+00  0.00000000000E+00 -0.20067627099E+02  0.12659978506E+03  0.12499918368E+03 0.  0.
    9000005    1    3    3    0    0 -0.14737472611E+02 -0.56732690400E+02 -0.31977061271E+02  0.66778167888E+02  0.10000000000E+01 0.  0.
    9000005    1    3    3    0    0  0.14737472611E+02  0.56732690400E+02  0.11909434172E+02  0.59821617174E+02  0.10000000000E+01 0.  0.
<mgrwt>
<rscale>  0 0.12499918E+03</rscale>
<asrwt>0</asrwt>
<pdfrwt beam="2">  1        4 0.11282109E-01 0.12499918E+03</pdfrwt>
<pdfrwt beam="1">  1       -4 0.81947813E-02 0.12499918E+03</pdfrwt>
<totfact> 0.10418045E+04</totfact>
</mgrwt>
</event>
<event>
 5    1  0.3266101E-002  0.1250004E+03  0.7818608E-02  0.1235069E+00
         -4   -1    0    0    0  501 -0.00000000000E+00  0.00000000000E+00  0.36643587995E+02  0.36665589333E+02  0.12700000000E+01 0. -1.
          4   -1    0    0  501    0  0.00000000000E+00 -0.00000000000E+00 -0.10654412285E+03  0.10655169174E+03  0.12700000000E+01 0. -1.
         25    2    1    2    0    0  0.00000000000E+00  0.00000000000E+00 -0.69900534851E+02  0.14321728108E+03  0.12500041930E+03 0.  0.
    9000005    1    3    3    0    0  0.29102757976E+02 -0.54576785308E+02 -0.45177523631E+02  0.76600291499E+02  0.10000000000E+01 0.  0.
    9000005    1    3    3    0    0 -0.29102757976E+02  0.54576785308E+02 -0.24723011220E+02  0.66616989576E+02  0.10000000000E+01 0.  0.
<mgrwt>
<rscale>  0 0.12500042E+03</rscale>
<asrwt>0</asrwt>
<pdfrwt beam="2">  1        4 0.16393678E-01 0.12500042E+03</pdfrwt>
<pdfrwt beam="1">  1       -4 0.56397498E-02 0.12500042E+03</pdfrwt>
<totfact> 0.10067241E+04</totfact>
</mgrwt>
</event>
<event>
 5    1  0.3266101E-002  0.1250015E+03  0.7818608E-02  0.1235067E+00
         -4   -1    0    0    0  501 -0.00000000000E+00  0.00000000000E+00  0.18112842744E+03  0.18113287975E+03  0.12700000000E+01 0. -1.
          4   -1    0    0  501    0  0.00000000000E+00 -0.00000000000E+00 -0.21543294861E+02  0.21580696316E+02  0.12700000000E+01 0. -1.
         25    2    1    2    0    0  0.00000000000E+00  0.00000000000E+00  0.15958513258E+03  0.20271357606E+03  0.12500151752E+03 0.  0.
    9000005    1    3    3    0    0  0.10401034984E+02 -0.61019007390E+02  0.65856977761E+02  0.90386073659E+02  0.10000000000E+01 0.  0.
    9000005    1    3    3    0    0 -0.10401034984E+02  0.61019007390E+02  0.93728154815E+02  0.11232750241E+03  0.10000000000E+01 0.  0.
<mgrwt>
<rscale>  0 0.12500152E+03</rscale>
<asrwt>0</asrwt>
<pdfrwt beam="2">  1        4 0.33175727E-02 0.12500152E+03</pdfrwt>
<pdfrwt beam="1">  1       -4 0.27869130E-01 0.12500152E+03</pdfrwt>
<totfact> 0.89676806E+03</totfact>
</mgrwt>
</event>
<event>
 5    1  0.3266101E-002  0.1249987E+03  0.7818608E-02  0.1235071E+00
          4   -1    0    0  501    0  0.00000000000E+00  0.00000000000E+00  0.29408550363E+04  0.29408553105E+04  0.12700000000E+01 0.  1.
         -4   -1    0    0    0  501 -0.00000000000E+00 -0.00000000000E+00 -0.10243283617E+01  0.16316092034E+01  0.12700000000E+01 0.  1.
         25    2    1    2    0    0  0.00000000000E+00  0.00000000000E+00  0.29398307079E+04  0.29424869197E+04  0.12499872569E+03 0.  0.
    9000005    1    3    3    0    0  0.26491368343E+02  0.56037292594E+02  0.12827755745E+04  0.12842726133E+04  0.10000000000E+01 0.  0.
    9000005    1    3    3    0    0 -0.26491368343E+02 -0.56037292594E+02  0.16570551334E+04  0.16582143064E+04  0.10000000000E+01 0.  0.
<mgrwt>
<rscale>  0 0.12499873E+03</rscale>
<asrwt>0</asrwt>
<pdfrwt beam="1">  1        4 0.45248451E+00 0.12499873E+03</pdfrwt>
<pdfrwt beam="2">  1       -4 0.20432464E-03 0.12499873E+03</pdfrwt>
<totfact> 0.20476836E+02</totfact>
</mgrwt>
</event>
<event>
 5    1  0.3266101E-002  0.1249998E+03  0.7818608E-02  0.1235070E+00
          4   -1    0    0  501    0  0.00000000000E+00  0.00000000000E+00  0.21119325144E+03  0.21119706995E+03  0.12700000000E+01 0. -1.
         -4   -1    0    0    0  501 -0.00000000000E+00 -0.00000000000E+00 -0.18470229940E+02  0.18513840608E+02  0.12700000000E+01 0. -1.
         25    2    1    2    0    0  0.00000000000E+00  0.00000000000E+00  0.19272302150E+03  0.22971091056E+03  0.12499975765E+03 0.  0.
    9000005    1    3    3    0    0 -0.39620760902E+02 -0.47900704132E+02  0.10812168438E+03  0.12472201403E+03  0.10000000000E+01 0.  0.
    9000005    1    3    3    0    0  0.39620760902E+02  0.47900704132E+02  0.84601337122E+02  0.10498889653E+03  0.10000000000E+01 0.  0.
<mgrwt>
<rscale>  0 0.12499976E+03</rscale>
<asrwt>0</asrwt>
<pdfrwt beam="1">  1        4 0.32494919E-01 0.12499976E+03</pdfrwt>
<pdfrwt beam="2">  1       -4 0.28452221E-02 0.12499976E+03</pdfrwt>
<totfact> 0.85354466E+03</totfact>
</mgrwt>
</event>
<event>
 5    1  0.3266101E-002  0.1250239E+03  0.7818608E-02  0.1235032E+00
          4   -1    0    0  501    0  0.00000000000E+00  0.00000000000E+00  0.44146296371E+02  0.44164560264E+02  0.12700000000E+01 0. -1.
         -4   -1    0    0    0  501 -0.00000000000E+00 -0.00000000000E+00 -0.88476851807E+02  0.88485966151E+02  0.12700000000E+01 0. -1.
         25    2    1    2    0    0  0.00000000000E+00  0.00000000000E+00 -0.44330555436E+02  0.13265052641E+03  0.12502385378E+03 0.  0.
    9000005    1    3    3    0    0  0.39691927994E+02  0.14780588673E+02 -0.70934740089E+02  0.82623557784E+02  0.10000000000E+01 0.  0.
    9000005    1    3    3    0    0 -0.39691927994E+02 -0.14780588673E+02  0.26604184653E+02  0.50026968631E+02  0.10000000000E+01 0.  0.
<mgrwt>
<rscale>  0 0.12502385E+03</rscale>
<asrwt>0</asrwt>
<pdfrwt beam="1">  1        4 0.67938439E-02 0.12502385E+03</pdfrwt>
<pdfrwt beam="2">  1       -4 0.13613929E-01 0.12502385E+03</pdfrwt>
<totfact> 0.10282299E+04</totfact>
</mgrwt>
</event>
<event>
 5    1  0.3266101E-002  0.1249998E+03  0.7818608E-02  0.1235070E+00
         -4   -1    0    0    0  501 -0.00000000000E+00  0.00000000000E+00  0.11443929220E+04  0.11443936267E+04  0.12700000000E+01 0. -1.
          4   -1    0    0  501    0  0.00000000000E+00 -0.00000000000E+00 -0.32945090558E+01  0.35308200065E+01  0.12700000000E+01 0. -1.
         25    2    1    2    0    0  0.00000000000E+00  0.00000000000E+00  0.11410984129E+04  0.11479244467E+04  0.12499978926E+03 0.  0.
    9000005    1    3    3    0    0 -0.23270516379E+02 -0.12779068605E+02  0.51023318670E+02  0.57525651453E+02  0.10000000000E+01 0.  0.
    9000005    1    3    3    0    0  0.23270516379E+02  0.12779068605E+02  0.10900750943E+04  0.10903987952E+04  0.10000000000E+01 0.  0.
<mgrwt>
<rscale>  0 0.12499979E+03</rscale>
<asrwt>0</asrwt>
<pdfrwt beam="2">  1        4 0.52507966E-03 0.12499979E+03</pdfrwt>
<pdfrwt beam="1">  1       -4 0.17607863E+00 0.12499979E+03</pdfrwt>
<totfact> 0.26118019E+03</totfact>
</mgrwt>
</event>
<event>
 5    1  0.3266101E-002  0.1250022E+03  0.7818608E-02  0.1235066E+00
          4   -1    0    0  501    0  0.00000000000E+00  0.00000000000E+00  0.90244067185E+01  0.91133318068E+01  0.12700000000E+01 0.  1.
         -4   -1    0    0    0  501 -0.00000000000E+00 -0.00000000000E+00 -0.43065722715E+03  0.43065909975E+03  0.12700000000E+01 0.  1.
         25    2    1    2    0    0  0.00000000000E+00  0.00000000000E+00 -0.42163282043E+03  0.43977243155E+03  0.12500222515E+03 0.  0.
    9000005    1    3    3    0    0 -0.82347084821E+00  0.53262924525E+02 -0.95855686685E+02  0.10966736024E+03  0.10000000000E+01 0.  0.
    9000005    1    3    3    0    0  0.82347084821E+00 -0.53262924525E+02 -0.32577713374E+03  0.33010507131E+03  0.10000000000E+01 0.  0.
<mgrwt>
<rscale>  0 0.12500223E+03</rscale>
<asrwt>0</asrwt>
<pdfrwt beam="1">  1        4 0.13953550E-02 0.12500223E+03</pdfrwt>
<pdfrwt beam="2">  1       -4 0.66261926E-01 0.12500223E+03</pdfrwt>
<totfact> 0.60857083E+03</totfact>
</mgrwt>
</event>
<event>
 5    1  0.3266101E-002  0.1249942E+03  0.7818608E-02  0.1235078E+00
         -4   -1    0    0    0  501 -0.00000000000E+00  0.00000000000E+00  0.14040696075E+02  0.14098015686E+02  0.12700000000E+01 0.  1.
          4   -1    0    0  501    0  0.00000000000E+00 -0.00000000000E+00 -0.27755803352E+03  0.27756093902E+03  0.12700000000E+01 0.  1.
         25    2    1    2    0    0  0.00000000000E+00  0.00000000000E+00 -0.26351733745E+03  0.29165895471E+03  0.12499423478E+03 0.  0.
    9000005    1    3    3    0    0  0.60226176695E+02 -0.13136050077E+02 -0.15568479773E+03  0.16744701972E+03  0.10000000000E+01 0.  0.
    9000005    1    3    3    0    0 -0.60226176695E+02  0.13136050077E+02 -0.10783253972E+03  0.12421193499E+03  0.10000000000E+01 0.  0.
<mgrwt>
<rscale>  0 0.12499423E+03</rscale>
<asrwt>0</asrwt>
<pdfrwt beam="2">  1        4 0.42705865E-01 0.12499423E+03</pdfrwt>
<pdfrwt beam="1">  1       -4 0.21647400E-02 0.12499423E+03</pdfrwt>
<totfact> 0.76666998E+03</totfact>
</mgrwt>
</event>
<event>
 5    1  0.3266101E-002  0.1249995E+03  0.7818608E-02  0.1235070E+00
         -4   -1    0    0    0  501 -0.00000000000E+00  0.00000000000E+00  0.48613712263E+02  0.48630298374E+02  0.12700000000E+01 0. -1.
          4   -1    0    0  501    0  0.00000000000E+00 -0.00000000000E+00 -0.80316893045E+02  0.80326933269E+02  0.12700000000E+01 0. -1.
         25    2    1    2    0    0  0.00000000000E+00  0.00000000000E+00 -0.31703180782E+02  0.12895723164E+03  0.12499950368E+03 0.  0.
    9000005    1    3    3    0    0 -0.40899397662E+02  0.65266426204E+01 -0.64129194157E+02  0.76347307328E+02  0.10000000000E+01 0.  0.
    9000005    1    3    3    0    0  0.40899397662E+02 -0.65266426204E+01  0.32426013375E+02  0.52609924315E+02  0.10000000000E+01 0.  0.
<mgrwt>
<rscale>  0 0.12499950E+03</rscale>
<asrwt>0</asrwt>
<pdfrwt beam="2">  1        4 0.12358493E-01 0.12499950E+03</pdfrwt>
<pdfrwt beam="1">  1       -4 0.74810809E-02 0.12499950E+03</pdfrwt>
<totfact> 0.10366982E+04</totfact>
</mgrwt>
</event>
<event>
 5    1  0.3266101E-002  0.1250016E+03  0.7818608E-02  0.1235067E+00
         -4   -1    0    0    0  501 -0.00000000000E+00  0.00000000000E+00  0.14034847245E+02  0.14092190645E+02  0.12700000000E+01 0.  1.
          4   -1    0    0  501    0  0.00000000000E+00 -0.00000000000E+00 -0.27770617386E+03  0.27770907782E+03  0.12700000000E+01 0.  1.
         25    2    1    2    0    0  0.00000000000E+00  0.00000000000E+00 -0.26367132662E+03  0.29180126846E+03  0.12500164717E+03 0.  0.
    9000005    1    3    3    0    0 -0.32238670520E+02  0.53251422294E+02 -0.11898446577E+03  0.13428830533E+03  0.10000000000E+01 0.  0.
    9000005    1    3    3    0    0  0.32238670520E+02 -0.53251422294E+02 -0.14468686085E+03  0.15751296313E+03  0.10000000000E+01 0.  0.
<mgrwt>
<rscale>  0 0.12500165E+03</rscale>
<asrwt>0</asrwt>
<pdfrwt beam="2">  1        4 0.42728657E-01 0.12500165E+03</pdfrwt>
<pdfrwt beam="1">  1       -4 0.21638419E-02 0.12500165E+03</pdfrwt>
<totfact> 0.76636115E+03</totfact>
</mgrwt>
</event>
<event>
 5    1  0.3266101E-002  0.1250010E+03  0.7818608E-02  0.1235068E+00
         -4   -1    0    0    0  501 -0.00000000000E+00  0.00000000000E+00  0.23615258107E+02  0.23649382983E+02  0.12700000000E+01 0.  1.
          4   -1    0    0  501    0  0.00000000000E+00 -0.00000000000E+00 -0.16525868066E+03  0.16526356051E+03  0.12700000000E+01 0.  1.
         25    2    1    2    0    0  0.00000000000E+00  0.00000000000E+00 -0.14164342255E+03  0.18891294349E+03  0.12500096427E+03 0.  0.
    9000005    1    3    3    0    0  0.25998309992E+02  0.12858395638E+02  0.12834264767E+02  0.31732771908E+02  0.10000000000E+01 0.  0.
    9000005    1    3    3    0    0 -0.25998309992E+02 -0.12858395638E+02 -0.15447768732E+03  0.15718017158E+03  0.10000000000E+01 0.  0.
<mgrwt>
<rscale>  0 0.12500096E+03</rscale>
<asrwt>0</asrwt>
<pdfrwt beam="2">  1        4 0.25427412E-01 0.12500096E+03</pdfrwt>
<pdfrwt beam="1">  1       -4 0.36361171E-02 0.12500096E+03</pdfrwt>
<totfact> 0.92034815E+03</totfact>
</mgrwt>
</event>
<event>
 5    1  0.3266101E-002  0.1250069E+03  0.7818608E-02  0.1235059E+00
         -4   -1    0    0    0  501 -0.00000000000E+00  0.00000000000E+00  0.14275200548E+02  0.14331582281E+02  0.12700000000E+01 0. -1.
          4   -1    0    0  501    0  0.00000000000E+00 -0.00000000000E+00 -0.27307184505E+03  0.27307479828E+03  0.12700000000E+01 0. -1.
         25    2    1    2    0    0  0.00000000000E+00  0.00000000000E+00 -0.25879664450E+03  0.28740638056E+03  0.12500689735E+03 0.  0.
    9000005    1    3    3    0    0  0.10996370169E+02 -0.21124744928E+02  0.34446291161E+01  0.24084029457E+02  0.10000000000E+01 0.  0.
    9000005    1    3    3    0    0 -0.10996370169E+02  0.21124744928E+02 -0.26224127362E+03  0.26332235111E+03  0.10000000000E+01 0.  0.
<mgrwt>
<rscale>  0 0.12500690E+03</rscale>
<asrwt>0</asrwt>
<pdfrwt beam="2">  1        4 0.42015613E-01 0.12500690E+03</pdfrwt>
<pdfrwt beam="1">  1       -4 0.22007491E-02 0.12500690E+03</pdfrwt>
<totfact> 0.77194383E+03</totfact>
</mgrwt>
</event>
<event>
 5    1  0.3266101E-002  0.1249925E+03  0.7818608E-02  0.1235081E+00
          4   -1    0    0  501    0  0.00000000000E+00  0.00000000000E+00  0.23511562777E+03  0.23511905776E+03  0.12700000000E+01 0.  1.
         -4   -1    0    0    0  501 -0.00000000000E+00 -0.00000000000E+00 -0.16584330317E+02  0.16632886462E+02  0.12700000000E+01 0.  1.
         25    2    1    2    0    0  0.00000000000E+00  0.00000000000E+00  0.21853129745E+03  0.25175194422E+03  0.12499245358E+03 0.  0.
    9000005    1    3    3    0    0 -0.28048361687E+02  0.44246044502E+02  0.40656103918E+02  0.66319995727E+02  0.10000000000E+01 0.  0.
    9000005    1    3    3    0    0  0.28048361687E+02 -0.44246044502E+02  0.17787519353E+03  0.18543194849E+03  0.10000000000E+01 0.  0.
<mgrwt>
<rscale>  0 0.12499245E+03</rscale>
<asrwt>0</asrwt>
<pdfrwt beam="1">  1        4 0.36175633E-01 0.12499245E+03</pdfrwt>
<pdfrwt beam="2">  1       -4 0.25554344E-02 0.12499245E+03</pdfrwt>
<totfact> 0.82091472E+03</totfact>
</mgrwt>
</event>
<event>
 5    1  0.3266101E-002  0.1249991E+03  0.7818608E-02  0.1235071E+00
          4   -1    0    0  501    0  0.00000000000E+00  0.00000000000E+00  0.17935399615E+03  0.17935849250E+03  0.12700000000E+01 0.  1.
         -4   -1    0    0    0  501 -0.00000000000E+00 -0.00000000000E+00 -0.21755938565E+02  0.21792975080E+02  0.12700000000E+01 0.  1.
         25    2    1    2    0    0  0.00000000000E+00  0.00000000000E+00  0.15759805758E+03  0.20115146758E+03  0.12499906063E+03 0.  0.
    9000005    1    3    3    0    0 -0.24971905824E+02  0.26159201701E+02 -0.32128559955E+01  0.36321100724E+02  0.10000000000E+01 0.  0.
    9000005    1    3    3    0    0  0.24971905824E+02 -0.26159201701E+02  0.16081091358E+03  0.16483036686E+03  0.10000000000E+01 0.  0.
<mgrwt>
<rscale>  0 0.12499906E+03</rscale>
<asrwt>0</asrwt>
<pdfrwt beam="1">  1        4 0.27596119E-01 0.12499906E+03</pdfrwt>
<pdfrwt beam="2">  1       -4 0.33502621E-02 0.12499906E+03</pdfrwt>
<totfact> 0.89943553E+03</totfact>
</mgrwt>
</event>
<event>
 5    1  0.3266101E-002  0.1249970E+03  0.7818608E-02  0.1235074E+00
         -4   -1    0    0    0  501 -0.00000000000E+00  0.00000000000E+00  0.42856962265E+03  0.42857150437E+03  0.12700000000E+01 0.  1.
          4   -1    0    0  501    0  0.00000000000E+00 -0.00000000000E+00 -0.90680346358E+01  0.91565360347E+01  0.12700000000E+01 0.  1.
         25    2    1    2    0    0  0.00000000000E+00  0.00000000000E+00  0.41950158801E+03  0.43772804040E+03  0.12499702001E+03 0.  0.
    9000005    1    3    3    0    0 -0.11865912823E+02 -0.47669182716E+02  0.74488595825E+02  0.89233972095E+02  0.10000000000E+01 0.  0.
    9000005    1    3    3    0    0  0.11865912823E+02  0.47669182716E+02  0.34501299219E+03  0.34849406831E+03  0.10000000000E+01 0.  0.
<mgrwt>
<rscale>  0 0.12499702E+03</rscale>
<asrwt>0</asrwt>
<pdfrwt beam="2">  1        4 0.14020349E-02 0.12499702E+03</pdfrwt>
<pdfrwt beam="1">  1       -4 0.65940735E-01 0.12499702E+03</pdfrwt>
<totfact> 0.61045696E+03</totfact>
</mgrwt>
</event>
<event>
 5    1  0.3266101E-002  0.1249950E+03  0.7818608E-02  0.1235077E+00
         -4   -1    0    0    0  501 -0.00000000000E+00  0.00000000000E+00  0.99809568800E+01  0.10061431322E+02  0.12700000000E+01 0. -1.
          4   -1    0    0  501    0  0.00000000000E+00 -0.00000000000E+00 -0.38968639848E+03  0.38968846796E+03  0.12700000000E+01 0. -1.
         25    2    1    2    0    0  0.00000000000E+00  0.00000000000E+00 -0.37970544160E+03  0.39974989928E+03  0.12499503828E+03 0.  0.
    9000005    1    3    3    0    0  0.57671801309E+00 -0.27756285779E+02 -0.36889626154E+03  0.36994080038E+03  0.10000000000E+01 0.  0.
    9000005    1    3    3    0    0 -0.57671801309E+00  0.27756285779E+02 -0.10809180057E+02  0.29809098903E+02  0.10000000000E+01 0.  0.
<mgrwt>
<rscale>  0 0.12499504E+03</rscale>
<asrwt>0</asrwt>
<pdfrwt beam="2">  1        4 0.59958092E-01 0.12499504E+03</pdfrwt>
<pdfrwt beam="1">  1       -4 0.15418817E-02 0.12499504E+03</pdfrwt>
<totfact> 0.64584200E+03</totfact>
</mgrwt>
</event>
<event>
 5    1  0.3266101E-002  0.1250016E+03  0.7818608E-02  0.1235067E+00
         -4   -1    0    0    0  501 -0.00000000000E+00  0.00000000000E+00  0.38468104086E+02  0.38489062498E+02  0.12700000000E+01 0.  1.
          4   -1    0    0  501    0  0.00000000000E+00 -0.00000000000E+00 -0.10149518310E+03  0.10150312848E+03  0.12700000000E+01 0.  1.
         25    2    1    2    0    0  0.00000000000E+00  0.00000000000E+00 -0.63027079009E+02  0.13999219098E+03  0.12500160338E+03 0.  0.
    9000005    1    3    3    0    0 -0.33371918163E+01  0.59473500336E+02 -0.10349773346E+02  0.60467775714E+02  0.10000000000E+01 0.  0.
    9000005    1    3    3    0    0  0.33371918163E+01 -0.59473500336E+02 -0.52677305663E+02  0.79524415266E+02  0.10000000000E+01 0.  0.
<mgrwt>
<rscale>  0 0.12500160E+03</rscale>
<asrwt>0</asrwt>
<pdfrwt beam="2">  1        4 0.15616867E-01 0.12500160E+03</pdfrwt>
<pdfrwt beam="1">  1       -4 0.59203933E-02 0.12500160E+03</pdfrwt>
<totfact> 0.10133382E+04</totfact>
</mgrwt>
</event>
<event>
 5    1  0.3266101E-002  0.1250028E+03  0.7818608E-02  0.1235065E+00
         -4   -1    0    0    0  501 -0.00000000000E+00  0.00000000000E+00  0.35029949939E+03  0.35030180156E+03  0.12700000000E+01 0.  1.
          4   -1    0    0  501    0  0.00000000000E+00 -0.00000000000E+00 -0.11113173603E+02  0.11185505242E+02  0.12700000000E+01 0.  1.
         25    2    1    2    0    0  0.00000000000E+00  0.00000000000E+00  0.33918632579E+03  0.36148730680E+03  0.12500283747E+03 0.  0.
    9000005    1    3    3    0    0  0.10210386158E+02  0.57450743769E+02  0.10489184344E+03  0.12003390673E+03  0.10000000000E+01 0.  0.
    9000005    1    3    3    0    0 -0.10210386158E+02 -0.57450743769E+02  0.23429448234E+03  0.24145340006E+03  0.10000000000E+01 0.  0.
<mgrwt>
<rscale>  0 0.12500284E+03</rscale>
<asrwt>0</asrwt>
<pdfrwt beam="2">  1        4 0.17154603E-02 0.12500284E+03</pdfrwt>
<pdfrwt beam="1">  1       -4 0.53897964E-01 0.12500284E+03</pdfrwt>
<totfact> 0.68474734E+03</totfact>
</mgrwt>
</event>
<event>
 5    1  0.3266101E-002  0.1249967E+03  0.7818608E-02  0.1235074E+00
          4   -1    0    0  501    0  0.00000000000E+00  0.00000000000E+00  0.24904348691E+01  0.27955618107E+01  0.12700000000E+01 0. -1.
         -4   -1    0    0    0  501 -0.00000000000E+00 -0.00000000000E+00 -0.14775775877E+04  0.14775781335E+04  0.12700000000E+01 0. -1.
         25    2    1    2    0    0  0.00000000000E+00  0.00000000000E+00 -0.14750871528E+04  0.14803736953E+04  0.12499667714E+03 0.  0.
    9000005    1    3    3    0    0 -0.12608614807E+02  0.34840595389E+02 -0.14157724114E+03  0.14634875969E+03  0.10000000000E+01 0.  0.
    9000005    1    3    3    0    0  0.12608614807E+02 -0.34840595389E+02 -0.13335099117E+04  0.13340249356E+04  0.10000000000E+01 0.  0.
<mgrwt>
<rscale>  0 0.12499668E+03</rscale>
<asrwt>0</asrwt>
<pdfrwt beam="1">  1        4 0.40665829E-03 0.12499668E+03</pdfrwt>
<pdfrwt beam="2">  1       -4 0.22734248E+00 0.12499668E+03</pdfrwt>
<totfact> 0.18320494E+03</totfact>
</mgrwt>
</event>
<event>
 5    1  0.3266101E-002  0.1249985E+03  0.7818608E-02  0.1235072E+00
          4   -1    0    0  501    0  0.00000000000E+00  0.00000000000E+00  0.41840910373E+02  0.41860180134E+02  0.12700000000E+01 0. -1.
         -4   -1    0    0    0  501 -0.00000000000E+00 -0.00000000000E+00 -0.93312329907E+02  0.93320971987E+02  0.12700000000E+01 0. -1.
         25    2    1    2    0    0  0.00000000000E+00  0.00000000000E+00 -0.51471419534E+02  0.13518115212E+03  0.12499854743E+03 0.  0.
    9000005    1    3    3    0    0  0.57393286052E+02  0.21445986328E+02 -0.39035473920E+02  0.72654578917E+02  0.10000000000E+01 0.  0.
    9000005    1    3    3    0    0 -0.57393286052E+02 -0.21445986328E+02 -0.12435945614E+02  0.62526573205E+02  0.10000000000E+01 0.  0.
<mgrwt>
<rscale>  0 0.12499855E+03</rscale>
<asrwt>0</asrwt>
<pdfrwt beam="1">  1        4 0.64392102E-02 0.12499855E+03</pdfrwt>
<pdfrwt beam="2">  1       -4 0.14357890E-01 0.12499855E+03</pdfrwt>
<totfact> 0.10234589E+04</totfact>
</mgrwt>
</event>
<event>
 5    1  0.3266101E-002  0.1249991E+03  0.7818608E-02  0.1235071E+00
         -4   -1    0    0    0  501 -0.00000000000E+00  0.00000000000E+00  0.37021509764E+03  0.37021727596E+03  0.12700000000E+01 0.  1.
          4   -1    0    0  501    0  0.00000000000E+00 -0.00000000000E+00 -0.10510705684E+02  0.10587154196E+02  0.12700000000E+01 0.  1.
         25    2    1    2    0    0  0.00000000000E+00  0.00000000000E+00  0.35970439195E+03  0.38080443015E+03  0.12499905774E+03 0.  0.
    9000005    1    3    3    0    0  0.19403357061E+02  0.41786021342E+01  0.36037227648E+03  0.36091983685E+03  0.10000000000E+01 0.  0.
    9000005    1    3    3    0    0 -0.19403357061E+02 -0.41786021342E+01 -0.66788452357E+00  0.19884593302E+02  0.10000000000E+01 0.  0.
<mgrwt>
<rscale>  0 0.12499906E+03</rscale>
<asrwt>0</asrwt>
<pdfrwt beam="2">  1        4 0.16230801E-02 0.12499906E+03</pdfrwt>
<pdfrwt beam="1">  1       -4 0.56962210E-01 0.12499906E+03</pdfrwt>
<totfact> 0.66464924E+03</totfact>
</mgrwt>
</event>
<event>
 5    1  0.3266101E-002  0.1249984E+03  0.7818608E-02  0.1235072E+00
          4   -1    0    0  501    0  0.00000000000E+00  0.00000000000E+00  0.27507510506E+02  0.27536812347E+02  0.12700000000E+01 0. -1.
         -4   -1    0    0    0  501 -0.00000000000E+00 -0.00000000000E+00 -0.14189530815E+03  0.14190099145E+03  0.12700000000E+01 0. -1.
         25    2    1    2    0    0  0.00000000000E+00  0.00000000000E+00 -0.11438779764E+03  0.16943780380E+03  0.12499840441E+03 0.  0.
    9000005    1    3    3    0    0  0.35502958686E+01 -0.78127339931E+01  0.26711643382E+02  0.28074103821E+02  0.10000000000E+01 0.  0.
    9000005    1    3    3    0    0 -0.35502958686E+01  0.78127339931E+01 -0.14109944103E+03  0.14136369998E+03  0.10000000000E+01 0.  0.
<mgrwt>
<rscale>  0 0.12499840E+03</rscale>
<asrwt>0</asrwt>
<pdfrwt beam="1">  1        4 0.42346159E-02 0.12499840E+03</pdfrwt>
<pdfrwt beam="2">  1       -4 0.21832738E-01 0.12499840E+03</pdfrwt>
<totfact> 0.95556904E+03</totfact>
</mgrwt>
</event>
<event>
 5    1  0.3266101E-002  0.1250033E+03  0.7818608E-02  0.1235064E+00
          4   -1    0    0  501    0  0.00000000000E+00  0.00000000000E+00  0.62045098418E+02  0.62058094861E+02  0.12700000000E+01 0.  1.
         -4   -1    0    0    0  501 -0.00000000000E+00 -0.00000000000E+00 -0.62935545707E+02  0.62948358306E+02  0.12700000000E+01 0.  1.
         25    2    1    2    0    0  0.00000000000E+00  0.00000000000E+00 -0.89044728847E+00  0.12500645317E+03  0.12500328170E+03 0.  0.
    9000005    1    3    3    0    0 -0.27175974079E+02 -0.50705920820E+02 -0.24855495458E+02  0.62677106089E+02  0.10000000000E+01 0.  0.
    9000005    1    3    3    0    0  0.27175974079E+02  0.50705920820E+02  0.23965048169E+02  0.62329347077E+02  0.10000000000E+01 0.  0.
<mgrwt>
<rscale>  0 0.12500328E+03</rscale>
<asrwt>0</asrwt>
<pdfrwt beam="1">  1        4 0.95473850E-02 0.12500328E+03</pdfrwt>
<pdfrwt beam="2">  1       -4 0.96843770E-02 0.12500328E+03</pdfrwt>
<totfact> 0.10451947E+04</totfact>
</mgrwt>
</event>
<event>
 5    1  0.3266101E-002  0.1249989E+03  0.7818608E-02  0.1235071E+00
          4   -1    0    0  501    0  0.00000000000E+00  0.00000000000E+00  0.23372539159E+03  0.23372884199E+03  0.12700000000E+01 0. -1.
         -4   -1    0    0    0  501 -0.00000000000E+00 -0.00000000000E+00 -0.16684986881E+02  0.16733250946E+02  0.12700000000E+01 0. -1.
         25    2    1    2    0    0  0.00000000000E+00  0.00000000000E+00  0.21704040471E+03  0.25046209293E+03  0.12499889087E+03 0.  0.
    9000005    1    3    3    0    0  0.61060436985E+02 -0.12322671543E+02  0.98510554109E+02  0.11655708674E+03  0.10000000000E+01 0.  0.
    9000005    1    3    3    0    0 -0.61060436985E+02  0.12322671543E+02  0.11852985060E+03  0.13390500619E+03  0.10000000000E+01 0.  0.
<mgrwt>
<rscale>  0 0.12499889E+03</rscale>
<asrwt>0</asrwt>
<pdfrwt beam="1">  1        4 0.35961727E-01 0.12499889E+03</pdfrwt>
<pdfrwt beam="2">  1       -4 0.25708993E-02 0.12499889E+03</pdfrwt>
<totfact> 0.82265521E+03</totfact>
</mgrwt>
</event>
<event>
 5    1  0.3266101E-002  0.1250020E+03  0.7818608E-02  0.1235066E+00
          4   -1    0    0  501    0  0.00000000000E+00  0.00000000000E+00  0.60372425598E+01  0.61693757971E+01  0.12700000000E+01 0. -1.
         -4   -1    0    0    0  501 -0.00000000000E+00 -0.00000000000E+00 -0.63990958653E+03  0.63991084679E+03  0.12700000000E+01 0. -1.
         25    2    1    2    0    0  0.00000000000E+00  0.00000000000E+00 -0.63387234397E+03  0.64608022258E+03  0.12500202223E+03 0.  0.
    9000005    1    3    3    0    0  0.61505481569E+02 -0.12565438095E+00 -0.25974558233E+03  0.26693015489E+03  0.10000000000E+01 0.  0.
    9000005    1    3    3    0    0 -0.61505481569E+02  0.12565438095E+00 -0.37412676164E+03  0.37915006769E+03  0.10000000000E+01 0.  0.
<mgrwt>
<rscale>  0 0.12500202E+03</rscale>
<asrwt>0</asrwt>
<pdfrwt beam="1">  1        4 0.93906809E-03 0.12500202E+03</pdfrwt>
<pdfrwt beam="2">  1       -4 0.98457837E-01 0.12500202E+03</pdfrwt>
<totfact> 0.46080201E+03</totfact>
</mgrwt>
</event>
<event>
 5    1  0.3266101E-002  0.1250002E+03  0.7818608E-02  0.1235069E+00
         -4   -1    0    0    0  501 -0.00000000000E+00  0.00000000000E+00  0.16151305706E+03  0.16151805008E+03  0.12700000000E+01 0. -1.
          4   -1    0    0  501    0  0.00000000000E+00 -0.00000000000E+00 -0.24163384466E+02  0.24196736327E+02  0.12700000000E+01 0. -1.
         25    2    1    2    0    0  0.00000000000E+00  0.00000000000E+00  0.13734967260E+03  0.18571478641E+03  0.12500019731E+03 0.  0.
    9000005    1    3    3    0    0 -0.60280682507E+02 -0.44351185698E+01  0.45097719217E+02  0.75420390074E+02  0.10000000000E+01 0.  0.
    9000005    1    3    3    0    0  0.60280682507E+02  0.44351185698E+01  0.92251953379E+02  0.11029439633E+03  0.10000000000E+01 0.  0.
<mgrwt>
<rscale>  0 0.12500020E+03</rscale>
<asrwt>0</asrwt>
<pdfrwt beam="2">  1        4 0.37203933E-02 0.12500020E+03</pdfrwt>
<pdfrwt beam="1">  1       -4 0.24851113E-01 0.12500020E+03</pdfrwt>
<totfact> 0.92597910E+03</totfact>
</mgrwt>
</event>
<event>
 5    1  0.3266101E-002  0.1250021E+03  0.7818608E-02  0.1235066E+00
          4   -1    0    0  501    0  0.00000000000E+00  0.00000000000E+00  0.37272069436E+02  0.37293700004E+02  0.12700000000E+01 0. -1.
         -4   -1    0    0    0  501 -0.00000000000E+00 -0.00000000000E+00 -0.10475128454E+03  0.10475898297E+03  0.12700000000E+01 0. -1.
         25    2    1    2    0    0  0.00000000000E+00  0.00000000000E+00 -0.67479215106E+02  0.14205268298E+03  0.12500208106E+03 0.  0.
    9000005    1    3    3    0    0 -0.18851115466E+02 -0.59517090200E+02 -0.36899437532E+02  0.72527353946E+02  0.10000000000E+01 0.  0.
    9000005    1    3    3    0    0  0.18851115466E+02  0.59517090200E+02 -0.30579777574E+02  0.69525329029E+02  0.10000000000E+01 0.  0.
<mgrwt>
<rscale>  0 0.12500208E+03</rscale>
<asrwt>0</asrwt>
<pdfrwt beam="1">  1        4 0.57364206E-02 0.12500208E+03</pdfrwt>
<pdfrwt beam="2">  1       -4 0.16117838E-01 0.12500208E+03</pdfrwt>
<totfact> 0.10090746E+04</totfact>
</mgrwt>
</event>
<event>
 5    1  0.3266101E-002  0.1249895E+03  0.7818608E-02  0.1235086E+00
         -4   -1    0    0    0  501 -0.00000000000E+00  0.00000000000E+00  0.45548062853E+02  0.45565764887E+02  0.12700000000E+01 0. -1.
          4   -1    0    0  501    0  0.00000000000E+00 -0.00000000000E+00 -0.85707572508E+02  0.85716981312E+02  0.12700000000E+01 0. -1.
         25    2    1    2    0    0  0.00000000000E+00  0.00000000000E+00 -0.40159509654E+02  0.13128274620E+03  0.12498949249E+03 0.  0.
    9000005    1    3    3    0    0 -0.34784432645E+02 -0.51374527521E+02 -0.27890186212E+02  0.68030591056E+02  0.10000000000E+01 0.  0.
    9000005    1    3    3    0    0  0.34784432645E+02  0.51374527521E+02 -0.12269323442E+02  0.63252155143E+02  0.10000000000E+01 0.  0.
<mgrwt>
<rscale>  0 0.12498949E+03</rscale>
<asrwt>0</asrwt>
<pdfrwt beam="2">  1        4 0.13187866E-01 0.12498949E+03</pdfrwt>
<pdfrwt beam="1">  1       -4 0.70094798E-02 0.12498949E+03</pdfrwt>
<totfact> 0.10319478E+04</totfact>
</mgrwt>
</event>
<event>
 5    1  0.3266101E-002  0.1250006E+03  0.7818608E-02  0.1235068E+00
          4   -1    0    0  501    0  0.00000000000E+00  0.00000000000E+00  0.43693581543E+01  0.45501857853E+01  0.12700000000E+01 0.  1.
         -4   -1    0    0    0  501 -0.00000000000E+00 -0.00000000000E+00 -0.87571306668E+03  0.87571398759E+03  0.12700000000E+01 0.  1.
         25    2    1    2    0    0  0.00000000000E+00  0.00000000000E+00 -0.87134370853E+03  0.88026417337E+03  0.12500062613E+03 0.  0.
    9000005    1    3    3    0    0 -0.22805599060E+02  0.56703188590E+02 -0.34387000246E+03  0.34926054106E+03  0.10000000000E+01 0.  0.
    9000005    1    3    3    0    0  0.22805599060E+02 -0.56703188590E+02 -0.52747370606E+03  0.53100363232E+03  0.10000000000E+01 0.  0.
<mgrwt>
<rscale>  0 0.12500063E+03</rscale>
<asrwt>0</asrwt>
<pdfrwt beam="1">  1        4 0.68619030E-03 0.12500063E+03</pdfrwt>
<pdfrwt beam="2">  1       -4 0.13473893E+00 0.12500063E+03</pdfrwt>
<totfact> 0.34919416E+03</totfact>
</mgrwt>
</event>
<event>
 5    1  0.3266101E-002  0.1250058E+03  0.7818608E-02  0.1235060E+00
         -4   -1    0    0    0  501 -0.00000000000E+00  0.00000000000E+00  0.13664921373E+03  0.13665511521E+03  0.12700000000E+01 0. -1.
          4   -1    0    0  501    0  0.00000000000E+00 -0.00000000000E+00 -0.28567990176E+02  0.28596205390E+02  0.12700000000E+01 0. -1.
         25    2    1    2    0    0  0.00000000000E+00  0.00000000000E+00  0.10808122356E+03  0.16525132060E+03  0.12500579217E+03 0.  0.
    9000005    1    3    3    0    0 -0.44450308336E+02 -0.25181000579E+02  0.10162526594E+03  0.11374799945E+03  0.10000000000E+01 0.  0.
    9000005    1    3    3    0    0  0.44450308336E+02  0.25181000579E+02  0.64559576197E+01  0.51503321156E+02  0.10000000000E+01 0.  0.
<mgrwt>
<rscale>  0 0.12500579E+03</rscale>
<asrwt>0</asrwt>
<pdfrwt beam="2">  1        4 0.43976997E-02 0.12500579E+03</pdfrwt>
<pdfrwt beam="1">  1       -4 0.21025581E-01 0.12500579E+03</pdfrwt>
<totfact> 0.96327283E+03</totfact>
</mgrwt>
</event>
<event>
 5    1  0.3266101E-002  0.1249920E+03  0.7818608E-02  0.1235082E+00
          4   -1    0    0  501    0  0.00000000000E+00  0.00000000000E+00  0.10903410926E+02  0.10977124843E+02  0.12700000000E+01 0. -1.
         -4   -1    0    0    0  501 -0.00000000000E+00 -0.00000000000E+00 -0.35693171238E+03  0.35693397177E+03  0.12700000000E+01 0. -1.
         25    2    1    2    0    0  0.00000000000E+00  0.00000000000E+00 -0.34602830146E+03  0.36791109662E+03  0.12499195815E+03 0.  0.
    9000005    1    3    3    0    0  0.98114672392E+01  0.58992657494E+02 -0.22635115017E+03  0.23412014375E+03  0.10000000000E+01 0.  0.
    9000005    1    3    3    0    0 -0.98114672392E+01 -0.58992657494E+02 -0.11967715129E+03  0.13379095287E+03  0.10000000000E+01 0.  0.
<mgrwt>
<rscale>  0 0.12499196E+03</rscale>
<asrwt>0</asrwt>
<pdfrwt beam="1">  1        4 0.16832922E-02 0.12499196E+03</pdfrwt>
<pdfrwt beam="2">  1       -4 0.54918406E-01 0.12499196E+03</pdfrwt>
<totfact> 0.67810103E+03</totfact>
</mgrwt>
</event>
<event>
 5    1  0.3266101E-002  0.1250021E+03  0.7818608E-02  0.1235066E+00
          4   -1    0    0  501    0  0.00000000000E+00  0.00000000000E+00  0.84371033809E+02  0.84380591643E+02  0.12700000000E+01 0. -1.
         -4   -1    0    0    0  501 -0.00000000000E+00 -0.00000000000E+00 -0.46279158728E+02  0.46296581219E+02  0.12700000000E+01 0. -1.
         25    2    1    2    0    0  0.00000000000E+00  0.00000000000E+00  0.38091875081E+02  0.13067717286E+03  0.12500213022E+03 0.  0.
    9000005    1    3    3    0    0 -0.36626697378E+02  0.19478511035E+02  0.67905991877E+02  0.79581097540E+02  0.10000000000E+01 0.  0.
    9000005    1    3    3    0    0  0.36626697378E+02 -0.19478511035E+02 -0.29814116795E+02  0.51096075321E+02  0.10000000000E+01 0.  0.
<mgrwt>
<rscale>  0 0.12500213E+03</rscale>
<asrwt>0</asrwt>
<pdfrwt beam="1">  1        4 0.12982234E-01 0.12500213E+03</pdfrwt>
<pdfrwt beam="2">  1       -4 0.71219460E-02 0.12500213E+03</pdfrwt>
<totfact> 0.10329519E+04</totfact>
</mgrwt>
</event>
<event>
 5    1  0.3266101E-002  0.1249999E+03  0.7818608E-02  0.1235069E+00
         -4   -1    0    0    0  501 -0.00000000000E+00  0.00000000000E+00  0.64481928039E+03  0.64482053105E+03  0.12700000000E+01 0. -1.
          4   -1    0    0  501    0  0.00000000000E+00 -0.00000000000E+00 -0.59900573272E+01  0.61232088632E+01  0.12700000000E+01 0. -1.
         25    2    1    2    0    0  0.00000000000E+00  0.00000000000E+00  0.63882922306E+03  0.65094373991E+03  0.12499990517E+03 0.  0.
    9000005    1    3    3    0    0  0.17654727903E+02 -0.48518067586E+02  0.50275836021E+03  0.50540346364E+03  0.10000000000E+01 0.  0.
    9000005    1    3    3    0    0 -0.17654727903E+02  0.48518067586E+02  0.13607086285E+03  0.14554027627E+03  0.10000000000E+01 0.  0.
<mgrwt>
<rscale>  0 0.12499991E+03</rscale>
<asrwt>0</asrwt>
<pdfrwt beam="2">  1        4 0.93188618E-03 0.12499991E+03</pdfrwt>
<pdfrwt beam="1">  1       -4 0.99213276E-01 0.12499991E+03</pdfrwt>
<totfact> 0.45802004E+03</totfact>
</mgrwt>
</event>
<event>
 5    1  0.3266101E-002  0.1249653E+03  0.7818608E-02  0.1235123E+00
          4   -1    0    0  501    0  0.00000000000E+00  0.00000000000E+00  0.15600245957E+04  0.15600251127E+04  0.12700000000E+01 0. -1.
         -4   -1    0    0    0  501 -0.00000000000E+00 -0.00000000000E+00 -0.23409036334E+01  0.26632179447E+01  0.12700000000E+01 0. -1.
         25    2    1    2    0    0  0.00000000000E+00  0.00000000000E+00  0.15576836921E+04  0.15626883306E+04  0.12496533134E+03 0.  0.
    9000005    1    3    3    0    0 -0.18392707676E+01  0.40233579723E+02  0.18161183117E+03  0.18602682891E+03  0.10000000000E+01 0.  0.
    9000005    1    3    3    0    0  0.18392707676E+01 -0.40233579723E+02  0.13760718609E+04  0.13766615017E+04  0.10000000000E+01 0.  0.
<mgrwt>
<rscale>  0 0.12496533E+03</rscale>
<asrwt>0</asrwt>
<pdfrwt beam="1">  1        4 0.24002819E+00 0.12496533E+03</pdfrwt>
<pdfrwt beam="2">  1       -4 0.38497287E-03 0.12496533E+03</pdfrwt>
<totfact> 0.16743286E+03</totfact>
</mgrwt>
</event>
<event>
 5    1  0.3266101E-002  0.1249973E+03  0.7818608E-02  0.1235073E+00
         -4   -1    0    0    0  501 -0.00000000000E+00  0.00000000000E+00  0.37765363134E+03  0.37765576676E+03  0.12700000000E+01 0.  1.
          4   -1    0    0  501    0  0.00000000000E+00 -0.00000000000E+00 -0.10301872903E+02  0.10379859599E+02  0.12700000000E+01 0.  1.
         25    2    1    2    0    0  0.00000000000E+00  0.00000000000E+00  0.36735175844E+03  0.38803562636E+03  0.12499733155E+03 0.  0.
    9000005    1    3    3    0    0 -0.45466331230E+02  0.74927135365E+01  0.52638597416E+02  0.69965348349E+02  0.10000000000E+01 0.  0.
    9000005    1    3    3    0    0  0.45466331230E+02 -0.74927135365E+01  0.31471316102E+03  0.31807027801E+03  0.10000000000E+01 0.  0.
<mgrwt>
<rscale>  0 0.12499733E+03</rscale>
<asrwt>0</asrwt>
<pdfrwt beam="2">  1        4 0.15910667E-02 0.12499733E+03</pdfrwt>
<pdfrwt beam="1">  1       -4 0.58106726E-01 0.12499733E+03</pdfrwt>
<totfact> 0.65737175E+03</totfact>
</mgrwt>
</event>
<event>
 5    1  0.3266101E-002  0.1249989E+03  0.7818608E-02  0.1235071E+00
         -4   -1    0    0    0  501 -0.00000000000E+00  0.00000000000E+00  0.32914301106E+02  0.32938793501E+02  0.12700000000E+01 0.  1.
          4   -1    0    0  501    0  0.00000000000E+00 -0.00000000000E+00 -0.11860522544E+03  0.11861202470E+03  0.12700000000E+01 0.  1.
         25    2    1    2    0    0  0.00000000000E+00  0.00000000000E+00 -0.85690924338E+02  0.15155081820E+03  0.12499886392E+03 0.  0.
    9000005    1    3    3    0    0 -0.41860487670E+02  0.40432076527E+02 -0.15247957846E+02  0.60171035048E+02  0.10000000000E+01 0.  0.
    9000005    1    3    3    0    0  0.41860487670E+02 -0.40432076527E+02 -0.70442966492E+02  0.91379783150E+02  0.10000000000E+01 0.  0.
<mgrwt>
<rscale>  0 0.12499886E+03</rscale>
<asrwt>0</asrwt>
<pdfrwt beam="2">  1        4 0.18249365E-01 0.12499886E+03</pdfrwt>
<pdfrwt beam="1">  1       -4 0.50661457E-02 0.12499886E+03</pdfrwt>
<totfact> 0.98997991E+03</totfact>
</mgrwt>
</event>
<event>
 5    1  0.3266101E-002  0.1250025E+03  0.7818608E-02  0.1235065E+00
          4   -1    0    0  501    0  0.00000000000E+00  0.00000000000E+00  0.26903994281E+03  0.26904294030E+03  0.12700000000E+01 0. -1.
         -4   -1    0    0    0  501 -0.00000000000E+00 -0.00000000000E+00 -0.14488942684E+02  0.14544495869E+02  0.12700000000E+01 0. -1.
         25    2    1    2    0    0  0.00000000000E+00  0.00000000000E+00  0.25455100012E+03  0.28358743617E+03  0.12500248913E+03 0.  0.
    9000005    1    3    3    0    0 -0.20354974586E+02 -0.57427919004E+02  0.15880201705E+03  0.17009224407E+03  0.10000000000E+01 0.  0.
    9000005    1    3    3    0    0  0.20354974586E+02  0.57427919004E+02  0.95748983068E+02  0.11349519210E+03  0.10000000000E+01 0.  0.
<mgrwt>
<rscale>  0 0.12500249E+03</rscale>
<asrwt>0</asrwt>
<pdfrwt beam="1">  1        4 0.41395262E-01 0.12500249E+03</pdfrwt>
<pdfrwt beam="2">  1       -4 0.22335721E-02 0.12500249E+03</pdfrwt>
<totfact> 0.77700532E+03</totfact>
</mgrwt>
</event>
<event>
 4    1  0.3266101E-002  0.1249138E+03  0.7818608E-02  0.1235204E+00
          4   -1    0    0  501    0  0.00000000000E+00  0.00000000000E+00  0.15588231454E+03  0.15588748791E+03  0.12700000000E+01 0.  1.
         -4   -1    0    0    0  501 -0.00000000000E+00 -0.00000000000E+00 -0.25002723893E+02  0.25034957601E+02  0.12700000000E+01 0.  1.
    9000005    1    1    2    0    0 -0.29631279552E+02  0.33787461308E+02  0.26352643964E+01  0.45028323175E+02  0.10000000000E+01 0.  0.
    9000005    1    1    2    0    0  0.29631279552E+02 -0.33787461308E+02  0.12824432625E+03  0.13589412234E+03  0.10000000000E+01 0.  0.
<mgrwt>
<rscale>  0 0.12491383E+03</rscale>
<asrwt>0</asrwt>
<pdfrwt beam="1">  1        4 0.23984772E-01 0.12491383E+03</pdfrwt>
<pdfrwt beam="2">  1       -4 0.38494504E-02 0.12491383E+03</pdfrwt>
<totfact> 0.93632000E+03</totfact>
</mgrwt>
</event>
<event>
 5    1  0.3266101E-002  0.1249921E+03  0.7818608E-02  0.1235082E+00
          4   -1    0    0  501    0  0.00000000000E+00  0.00000000000E+00  0.37489294770E+03  0.37489509884E+03  0.12700000000E+01 0. -1.
         -4   -1    0    0    0  501 -0.00000000000E+00 -0.00000000000E+00 -0.10377435507E+02  0.10454858569E+02  0.12700000000E+01 0. -1.
         25    2    1    2    0    0  0.00000000000E+00  0.00000000000E+00  0.36451551220E+03  0.38534995741E+03  0.12499212394E+03 0.  0.
    9000005    1    3    3    0    0 -0.41124172117E+02  0.75569449518E+01  0.39090847584E+02  0.57248574778E+02  0.10000000000E+01 0.  0.
    9000005    1    3    3    0    0  0.41124172117E+02 -0.75569449518E+01  0.32542466461E+03  0.32810138264E+03  0.10000000000E+01 0.  0.
<mgrwt>
<rscale>  0 0.12499212E+03</rscale>
<asrwt>0</asrwt>
<pdfrwt beam="1">  1        4 0.57681971E-01 0.12499212E+03</pdfrwt>
<pdfrwt beam="2">  1       -4 0.16026493E-02 0.12499212E+03</pdfrwt>
<totfact> 0.66014494E+03</totfact>
</mgrwt>
</event>
<event>
 5    1  0.3266101E-002  0.1250153E+03  0.7818608E-02  0.1235045E+00
         -4   -1    0    0    0  501 -0.00000000000E+00  0.00000000000E+00  0.27372374935E+01  0.30175104135E+01  0.12700000000E+01 0.  1.
          4   -1    0    0  501    0  0.00000000000E+00 -0.00000000000E+00 -0.13576255173E+04  0.13576261113E+04  0.12700000000E+01 0.  1.
         25    2    1    2    0    0  0.00000000000E+00  0.00000000000E+00 -0.13548882798E+04  0.13606436217E+04  0.12501525744E+03 0.  0.
    9000005    1    3    3    0    0 -0.12172460305E+02  0.49842088578E+01 -0.12444264192E+02  0.18134796362E+02  0.10000000000E+01 0.  0.
    9000005    1    3    3    0    0  0.12172460305E+02 -0.49842088578E+01 -0.13424440156E+04  0.13425088254E+04  0.10000000000E+01 0.  0.
<mgrwt>
<rscale>  0 0.12501526E+03</rscale>
<asrwt>0</asrwt>
<pdfrwt beam="2">  1        4 0.20888656E+00 0.12501526E+03</pdfrwt>
<pdfrwt beam="1">  1       -4 0.44271969E-03 0.12501526E+03</pdfrwt>
<totfact> 0.20833906E+03</totfact>
</mgrwt>
</event>
<event>
 5    1  0.3266101E-002  0.1250086E+03  0.7818608E-02  0.1235056E+00
         -4   -1    0    0    0  501 -0.00000000000E+00  0.00000000000E+00  0.24825344478E+03  0.24825669326E+03  0.12700000000E+01 0.  1.
          4   -1    0    0  501    0  0.00000000000E+00 -0.00000000000E+00 -0.15708109790E+02  0.15759365888E+02  0.12700000000E+01 0.  1.
         25    2    1    2    0    0  0.00000000000E+00  0.00000000000E+00  0.23254533499E+03  0.26401605914E+03  0.12500858634E+03 0.  0.
    9000005    1    3    3    0    0 -0.43284315915E+02 -0.44951915438E+02  0.10908572761E+03  0.12567777319E+03  0.10000000000E+01 0.  0.
    9000005    1    3    3    0    0  0.43284315915E+02  0.44951915438E+02  0.12345960738E+03  0.13833828595E+03  0.10000000000E+01 0.  0.
<mgrwt>
<rscale>  0 0.12500859E+03</rscale>
<asrwt>0</asrwt>
<pdfrwt beam="2">  1        4 0.24208252E-02 0.12500859E+03</pdfrwt>
<pdfrwt beam="1">  1       -4 0.38197026E-01 0.12500859E+03</pdfrwt>
<totfact> 0.80330399E+03</totfact>
</mgrwt>
</event>
<event>
 5    1  0.3266101E-002  0.1250014E+03  0.7818608E-02  0.1235067E+00
          4   -1    0    0  501    0  0.00000000000E+00  0.00000000000E+00  0.15887516828E+03  0.15888024420E+03  0.12700000000E+01 0. -1.
         -4   -1    0    0    0  501 -0.00000000000E+00 -0.00000000000E+00 -0.24565595011E+02  0.24598401538E+02  0.12700000000E+01 0. -1.
         25    2    1    2    0    0  0.00000000000E+00  0.00000000000E+00  0.13430957327E+03  0.18347864573E+03  0.12500140787E+03 0.  0.
    9000005    1    3    3    0    0  0.25558608859E+02  0.43399331952E+02  0.12853782994E+02  0.51990039796E+02  0.10000000000E+01 0.  0.
    9000005    1    3    3    0    0 -0.25558608859E+02 -0.43399331952E+02  0.12145579027E+03  0.13148860594E+03  0.10000000000E+01 0.  0.
<mgrwt>
<rscale>  0 0.12500141E+03</rscale>
<asrwt>0</asrwt>
<pdfrwt beam="1">  1        4 0.24445248E-01 0.12500141E+03</pdfrwt>
<pdfrwt beam="2">  1       -4 0.37822363E-02 0.12500141E+03</pdfrwt>
<totfact> 0.92991622E+03</totfact>
</mgrwt>
</event>
<event>
 5    1  0.3266101E-002  0.1249812E+03  0.7818608E-02  0.1235099E+00
         -4   -1    0    0    0  501 -0.00000000000E+00  0.00000000000E+00  0.39325314806E+02  0.39345816609E+02  0.12700000000E+01 0. -1.
          4   -1    0    0  501    0  0.00000000000E+00 -0.00000000000E+00 -0.99251337287E+02  0.99259462286E+02  0.12700000000E+01 0. -1.
         25    2    1    2    0    0  0.00000000000E+00  0.00000000000E+00 -0.59926022481E+02  0.13860527889E+03  0.12498117925E+03 0.  0.
    9000005    1    3    3    0    0 -0.43697713463E+02  0.41408251738E+01  0.19352836444E+02  0.47980921973E+02  0.10000000000E+01 0.  0.
    9000005    1    3    3    0    0  0.43697713463E+02 -0.41408251738E+01 -0.79278858925E+02  0.90624356921E+02  0.10000000000E+01 0.  0.
<mgrwt>
<rscale>  0 0.12498118E+03</rscale>
<asrwt>0</asrwt>
<pdfrwt beam="2">  1        4 0.15271638E-01 0.12498118E+03</pdfrwt>
<pdfrwt beam="1">  1       -4 0.60522505E-02 0.12498118E+03</pdfrwt>
<totfact> 0.10166885E+04</totfact>
</mgrwt>
</event>
<event>
 5    1  0.3266101E-002  0.1250034E+03  0.7818608E-02  0.1235064E+00
          4   -1    0    0  501    0  0.00000000000E+00  0.00000000000E+00  0.93561419819E+02  0.93570038894E+02  0.12700000000E+01 0.  1.
         -4   -1    0    0    0  501 -0.00000000000E+00 -0.00000000000E+00 -0.41732727267E+02  0.41752046957E+02  0.12700000000E+01 0.  1.
         25    2    1    2    0    0  0.00000000000E+00  0.00000000000E+00  0.51828692552E+02  0.13532208585E+03  0.12500341414E+03 0.  0.
    9000005    1    3    3    0    0  0.46069315064E+02 -0.39923718364E+01 -0.19593114382E+02  0.50231573283E+02  0.10000000000E+01 0.  0.
    9000005    1    3    3    0    0 -0.46069315064E+02  0.39923718364E+01  0.71421806934E+02  0.85090512568E+02  0.10000000000E+01 0.  0.
<mgrwt>
<rscale>  0 0.12500341E+03</rscale>
<asrwt>0</asrwt>
<pdfrwt beam="1">  1        4 0.14396214E-01 0.12500341E+03</pdfrwt>
<pdfrwt beam="2">  1       -4 0.64225688E-02 0.12500341E+03</pdfrwt>
<totfact> 0.10230499E+04</totfact>
</mgrwt>
</event>
<event>
 5    1  0.3266101E-002  0.1249971E+03  0.7818608E-02  0.1235074E+00
          4   -1    0    0  501    0  0.00000000000E+00  0.00000000000E+00  0.19130190475E+04  0.19130194690E+04  0.12700000000E+01 0.  1.
         -4   -1    0    0    0  501 -0.00000000000E+00 -0.00000000000E+00 -0.18438889678E+01  0.22389342388E+01  0.12700000000E+01 0.  1.
         25    2    1    2    0    0  0.00000000000E+00  0.00000000000E+00  0.19111751585E+04  0.19152584033E+04  0.12499705921E+03 0.  0.
    9000005    1    3    3    0    0 -0.50244330918E+02 -0.34439403661E+02  0.11692796346E+04  0.11708656751E+04  0.10000000000E+01 0.  0.
    9000005    1    3    3    0    0  0.50244330918E+02  0.34439403661E+02  0.74189552393E+03  0.74439272817E+03  0.10000000000E+01 0.  0.
<mgrwt>
<rscale>  0 0.12499706E+03</rscale>
<asrwt>0</asrwt>
<pdfrwt beam="1">  1        4 0.29434078E+00 0.12499706E+03</pdfrwt>
<pdfrwt beam="2">  1       -4 0.31409603E-03 0.12499706E+03</pdfrwt>
<totfact> 0.11008860E+03</totfact>
</mgrwt>
</event>
<event>
 5    1  0.3266101E-002  0.1249984E+03  0.7818608E-02  0.1235072E+00
          4   -1    0    0  501    0  0.00000000000E+00  0.00000000000E+00  0.47755737192E+02  0.47772621184E+02  0.12700000000E+01 0.  1.
         -4   -1    0    0    0  501 -0.00000000000E+00 -0.00000000000E+00 -0.81758071613E+02  0.81767934876E+02  0.12700000000E+01 0.  1.
         25    2    1    2    0    0  0.00000000000E+00  0.00000000000E+00 -0.34002334421E+02  0.12954055606E+03  0.12499838766E+03 0.  0.
    9000005    1    3    3    0    0  0.53458679411E+02  0.22787407017E+02  0.68132558503E+01  0.58519370966E+02  0.10000000000E+01 0.  0.
    9000005    1    3    3    0    0 -0.53458679411E+02 -0.22787407017E+02 -0.40815590271E+02  0.71021185094E+02  0.10000000000E+01 0.  0.
<mgrwt>
<rscale>  0 0.12499839E+03</rscale>
<asrwt>0</asrwt>
<pdfrwt beam="1">  1        4 0.73490940E-02 0.12499839E+03</pdfrwt>
<pdfrwt beam="2">  1       -4 0.12580222E-01 0.12499839E+03</pdfrwt>
<totfact> 0.10354723E+04</totfact>
</mgrwt>
</event>
<event>
 5    1  0.3266101E-002  0.1249965E+03  0.7818608E-02  0.1235075E+00
          4   -1    0    0  501    0  0.00000000000E+00  0.00000000000E+00  0.12882038456E+03  0.12882664467E+03  0.12700000000E+01 0.  1.
         -4   -1    0    0    0  501 -0.00000000000E+00 -0.00000000000E+00 -0.30301230478E+02  0.30327833230E+02  0.12700000000E+01 0.  1.
         25    2    1    2    0    0  0.00000000000E+00  0.00000000000E+00  0.98519154082E+02  0.15915447790E+03  0.12499649642E+03 0.  0.
    9000005    1    3    3    0    0 -0.14140690538E+02 -0.54428311163E+02  0.83957822395E+02  0.10105600490E+03  0.10000000000E+01 0.  0.
    9000005    1    3    3    0    0  0.14140690538E+02  0.54428311163E+02  0.14561331686E+02  0.58098473005E+02  0.10000000000E+01 0.  0.
<mgrwt>
<rscale>  0 0.12499650E+03</rscale>
<asrwt>0</asrwt>
<pdfrwt beam="1">  1        4 0.19821048E-01 0.12499650E+03</pdfrwt>
<pdfrwt beam="2">  1       -4 0.46642557E-02 0.12499650E+03</pdfrwt>
<totfact> 0.97513723E+03</totfact>
</mgrwt>
</event>
<event>
 5    1  0.3266101E-002  0.1250111E+03  0.7818608E-02  0.1235052E+00
         -4   -1    0    0    0  501 -0.00000000000E+00  0.00000000000E+00  0.66059177044E+03  0.66059299124E+03  0.12700000000E+01 0. -1.
          4   -1    0    0  501    0  0.00000000000E+00 -0.00000000000E+00 -0.58448860456E+01  0.59812701733E+01  0.12700000000E+01 0. -1.
         25    2    1    2    0    0  0.00000000000E+00  0.00000000000E+00  0.65474688439E+03  0.66657426141E+03  0.12501105292E+03 0.  0.
    9000005    1    3    3    0    0  0.55479693720E+02 -0.28724231959E+02  0.33639548372E+03  0.34214908941E+03  0.10000000000E+01 0.  0.
    9000005    1    3    3    0    0 -0.55479693720E+02  0.28724231959E+02  0.31835140068E+03  0.32442517201E+03  0.10000000000E+01 0.  0.
<mgrwt>
<rscale>  0 0.12501105E+03</rscale>
<asrwt>0</asrwt>
<pdfrwt beam="2">  1        4 0.90979778E-03 0.12501105E+03</pdfrwt>
<pdfrwt beam="1">  1       -4 0.10164014E+00 0.12501105E+03</pdfrwt>
<totfact> 0.44899968E+03</totfact>
</mgrwt>
</event>
<event>
 5    1  0.3266101E-002  0.1250023E+03  0.7818608E-02  0.1235066E+00
          4   -1    0    0  501    0  0.00000000000E+00  0.00000000000E+00  0.59278515785E+02  0.59292118648E+02  0.12700000000E+01 0.  1.
         -4   -1    0    0    0  501 -0.00000000000E+00 -0.00000000000E+00 -0.65871713170E+02  0.65883954769E+02  0.12700000000E+01 0.  1.
         25    2    1    2    0    0  0.00000000000E+00  0.00000000000E+00 -0.65931973847E+01  0.12517607342E+03  0.12500231640E+03 0.  0.
    9000005    1    3    3    0    0 -0.21741656350E+02 -0.58502490217E+02 -0.10566757811E+00  0.62419965941E+02  0.10000000000E+01 0.  0.
    9000005    1    3    3    0    0  0.21741656350E+02  0.58502490217E+02 -0.64875298066E+01  0.62756107475E+02  0.10000000000E+01 0.  0.
<mgrwt>
<rscale>  0 0.12500232E+03</rscale>
<asrwt>0</asrwt>
<pdfrwt beam="1">  1        4 0.91217597E-02 0.12500232E+03</pdfrwt>
<pdfrwt beam="2">  1       -4 0.10136098E-01 0.12500232E+03</pdfrwt>
<totfact> 0.10448493E+04</totfact>
</mgrwt>
</event>
<event>
 5    1  0.3266101E-002  0.1249980E+03  0.7818608E-02  0.1235072E+00
         -4   -1    0    0    0  501 -0.00000000000E+00  0.00000000000E+00  0.27264101298E+02  0.27293664458E+02  0.12700000000E+01 0.  1.
          4   -1    0    0  501    0  0.00000000000E+00 -0.00000000000E+00 -0.14315978024E+03  0.14316541335E+03  0.12700000000E+01 0.  1.
         25    2    1    2    0    0  0.00000000000E+00  0.00000000000E+00 -0.11589567894E+03  0.17045907780E+03  0.12499795522E+03 0.  0.
    9000005    1    3    3    0    0 -0.11643805413E+02 -0.54693651943E+02 -0.19907143846E+02  0.59365546771E+02  0.10000000000E+01 0.  0.
    9000005    1    3    3    0    0  0.11643805413E+02  0.54693651943E+02 -0.95988535097E+02  0.11109353103E+03  0.10000000000E+01 0.  0.
<mgrwt>
<rscale>  0 0.12499796E+03</rscale>
<asrwt>0</asrwt>
<pdfrwt beam="2">  1        4 0.22027289E-01 0.12499796E+03</pdfrwt>
<pdfrwt beam="1">  1       -4 0.41971846E-02 0.12499796E+03</pdfrwt>
<totfact> 0.95367516E+03</totfact>
</mgrwt>
</event>
<event>
 5    1  0.3266101E-002  0.1249836E+03  0.7818608E-02  0.1235095E+00
          4   -1    0    0  501    0  0.00000000000E+00  0.00000000000E+00  0.49022071813E+01  0.50640433696E+01  0.12700000000E+01 0.  1.
         -4   -1    0    0    0  501 -0.00000000000E+00 -0.00000000000E+00 -0.78352755635E+03  0.78352858560E+03  0.12700000000E+01 0.  1.
         25    2    1    2    0    0  0.00000000000E+00  0.00000000000E+00 -0.77862534917E+03  0.78859262897E+03  0.12498359934E+03 0.  0.
    9000005    1    3    3    0    0  0.24370097285E+02  0.89395136428E+01 -0.74792763790E+03  0.74837862615E+03  0.10000000000E+01 0.  0.
    9000005    1    3    3    0    0 -0.24370097285E+02 -0.89395136428E+01 -0.30697711267E+02  0.40214002821E+02  0.10000000000E+01 0.  0.
<mgrwt>
<rscale>  0 0.12498360E+03</rscale>
<asrwt>0</asrwt>
<pdfrwt beam="1">  1        4 0.76671445E-03 0.12498360E+03</pdfrwt>
<pdfrwt beam="2">  1       -4 0.12055513E+00 0.12498360E+03</pdfrwt>
<totfact> 0.38793012E+03</totfact>
</mgrwt>
</event>
<event>
 5    1  0.3266101E-002  0.1250029E+03  0.7818608E-02  0.1235065E+00
          4   -1    0    0  501    0  0.00000000000E+00  0.00000000000E+00  0.29386905112E+04  0.29386907856E+04  0.12700000000E+01 0.  1.
         -4   -1    0    0    0  501 -0.00000000000E+00 -0.00000000000E+00 -0.10256383375E+01  0.16324319279E+01  0.12700000000E+01 0.  1.
         25    2    1    2    0    0  0.00000000000E+00  0.00000000000E+00  0.29376648728E+04  0.29403232175E+04  0.12500287369E+03 0.  0.
    9000005    1    3    3    0    0 -0.38604664973E+02 -0.36899811334E+02  0.22323079321E+04  0.22329468466E+04  0.10000000000E+01 0.  0.
    9000005    1    3    3    0    0  0.38604664973E+02  0.36899811334E+02  0.70535694078E+03  0.70737637093E+03  0.10000000000E+01 0.  0.
<mgrwt>
<rscale>  0 0.12500287E+03</rscale>
<asrwt>0</asrwt>
<pdfrwt beam="1">  1        4 0.45215513E+00 0.12500287E+03</pdfrwt>
<pdfrwt beam="2">  1       -4 0.20448706E-03 0.12500287E+03</pdfrwt>
<totfact> 0.20564783E+02</totfact>
</mgrwt>
</event>
<event>
 5    1  0.3266101E-002  0.1249995E+03  0.7818608E-02  0.1235070E+00
          4   -1    0    0  501    0  0.00000000000E+00  0.00000000000E+00  0.44382918099E+03  0.44383099801E+03  0.12700000000E+01 0. -1.
         -4   -1    0    0    0  501 -0.00000000000E+00 -0.00000000000E+00 -0.87535124318E+01  0.88451613832E+01  0.12700000000E+01 0. -1.
         25    2    1    2    0    0  0.00000000000E+00  0.00000000000E+00  0.43507566856E+03  0.45267615940E+03  0.12499947166E+03 0.  0.
    9000005    1    3    3    0    0  0.19385872593E+02  0.58850719053E+02  0.24695793398E+03  0.25461429721E+03  0.10000000000E+01 0.  0.
    9000005    1    3    3    0    0 -0.19385872593E+02 -0.58850719053E+02  0.18811773457E+03  0.19806186218E+03  0.10000000000E+01 0.  0.
<mgrwt>
<rscale>  0 0.12499947E+03</rscale>
<asrwt>0</asrwt>
<pdfrwt beam="1">  1        4 0.68288588E-01 0.12499947E+03</pdfrwt>
<pdfrwt beam="2">  1       -4 0.13538842E-02 0.12499947E+03</pdfrwt>
<totfact> 0.59733359E+03</totfact>
</mgrwt>
</event>
<event>
 5    1  0.3266101E-002  0.1250003E+03  0.7818608E-02  0.1235069E+00
          4   -1    0    0  501    0  0.00000000000E+00  0.00000000000E+00  0.97711057458E+03  0.97711139992E+03  0.12700000000E+01 0. -1.
         -4   -1    0    0    0  501 -0.00000000000E+00 -0.00000000000E+00 -0.38960628619E+01  0.40978294040E+01  0.12700000000E+01 0. -1.
         25    2    1    2    0    0  0.00000000000E+00  0.00000000000E+00  0.97321451172E+03  0.98120922932E+03  0.12500026358E+03 0.  0.
    9000005    1    3    3    0    0 -0.57386114684E+02 -0.71536730814E+00  0.68073176654E+03  0.68314743350E+03  0.10000000000E+01 0.  0.
    9000005    1    3    3    0    0  0.57386114684E+02  0.71536730814E+00  0.29248274517E+03  0.29806179583E+03  0.10000000000E+01 0.  0.
<mgrwt>
<rscale>  0 0.12500026E+03</rscale>
<asrwt>0</asrwt>
<pdfrwt beam="1">  1        4 0.15034037E+00 0.12500026E+03</pdfrwt>
<pdfrwt beam="2">  1       -4 0.61497796E-03 0.12500026E+03</pdfrwt>
<totfact> 0.31232984E+03</totfact>
</mgrwt>
</event>
<event>
 5    1  0.3266101E-002  0.1249979E+03  0.7818608E-02  0.1235073E+00
         -4   -1    0    0    0  501 -0.00000000000E+00  0.00000000000E+00  0.67131418673E+01  0.68322158726E+01  0.12700000000E+01 0.  1.
          4   -1    0    0  501    0  0.00000000000E+00 -0.00000000000E+00 -0.57662666326E+03  0.57662806183E+03  0.12700000000E+01 0.  1.
         25    2    1    2    0    0  0.00000000000E+00  0.00000000000E+00 -0.56991352139E+03  0.58346027770E+03  0.12499789511E+03 0.  0.
    9000005    1    3    3    0    0 -0.85549435524E+01  0.60308787713E+02 -0.35010196644E+03  0.35536280593E+03  0.10000000000E+01 0.  0.
    9000005    1    3    3    0    0  0.85549435524E+01 -0.60308787713E+02 -0.21981155496E+03  0.22809747177E+03  0.10000000000E+01 0.  0.
<mgrwt>
<rscale>  0 0.12499790E+03</rscale>
<asrwt>0</asrwt>
<pdfrwt beam="2">  1        4 0.88721023E-01 0.12499790E+03</pdfrwt>
<pdfrwt beam="1">  1       -4 0.10420586E-02 0.12499790E+03</pdfrwt>
<totfact> 0.49930892E+03</totfact>
</mgrwt>
</event>
<event>
 5    1  0.3266101E-002  0.1250010E+03  0.7818608E-02  0.1235068E+00
         -4   -1    0    0    0  501 -0.00000000000E+00  0.00000000000E+00  0.37016121973E+02  0.37037902018E+02  0.12700000000E+01 0.  1.
          4   -1    0    0  501    0  0.00000000000E+00 -0.00000000000E+00 -0.10547345572E+03  0.10548110144E+03  0.12700000000E+01 0.  1.
         25    2    1    2    0    0  0.00000000000E+00  0.00000000000E+00 -0.68457333749E+02  0.14251900346E+03  0.12500103921E+03 0.  0.
    9000005    1    3    3    0    0  0.41727544488E+02  0.25352204741E+02  0.10242632294E+02  0.49898234143E+02  0.10000000000E+01 0.  0.
    9000005    1    3    3    0    0 -0.41727544488E+02 -0.25352204741E+02 -0.78699966044E+02  0.92620769320E+02  0.10000000000E+01 0.  0.
<mgrwt>
<rscale>  0 0.12500104E+03</rscale>
<asrwt>0</asrwt>
<pdfrwt beam="2">  1        4 0.16228949E-01 0.12500104E+03</pdfrwt>
<pdfrwt beam="1">  1       -4 0.56970515E-02 0.12500104E+03</pdfrwt>
<totfact> 0.10081406E+04</totfact>
</mgrwt>
</event>
<event>
 5    1  0.3266101E-002  0.1250024E+03  0.7818608E-02  0.1235065E+00
         -4   -1    0    0    0  501 -0.00000000000E+00  0.00000000000E+00  0.28157598803E+03  0.28157885207E+03  0.12700000000E+01 0. -1.
          4   -1    0    0  501    0  0.00000000000E+00 -0.00000000000E+00 -0.13841342389E+02  0.13899484132E+02  0.12700000000E+01 0. -1.
         25    2    1    2    0    0  0.00000000000E+00  0.00000000000E+00  0.26773464564E+03  0.29547833621E+03  0.12500242674E+03 0.  0.
    9000005    1    3    3    0    0 -0.18915809452E+01  0.62018255748E+02  0.15148653771E+03  0.16370404159E+03  0.10000000000E+01 0.  0.
    9000005    1    3    3    0    0  0.18915809452E+01 -0.62018255748E+02  0.11624810793E+03  0.13177429461E+03  0.10000000000E+01 0.  0.
<mgrwt>
<rscale>  0 0.12500243E+03</rscale>
<asrwt>0</asrwt>
<pdfrwt beam="2">  1        4 0.21341302E-02 0.12500243E+03</pdfrwt>
<pdfrwt beam="1">  1       -4 0.43324073E-01 0.12500243E+03</pdfrwt>
<totfact> 0.76165447E+03</totfact>
</mgrwt>
</event>
<event>
 5    1  0.3266101E-002  0.1249986E+03  0.7818608E-02  0.1235072E+00
          4   -1    0    0  501    0  0.00000000000E+00  0.00000000000E+00  0.13344160632E+02  0.13404459070E+02  0.12700000000E+01 0. -1.
         -4   -1    0    0    0  501 -0.00000000000E+00 -0.00000000000E+00 -0.29200273726E+03  0.29200549903E+03  0.12700000000E+01 0. -1.
         25    2    1    2    0    0  0.00000000000E+00  0.00000000000E+00 -0.27865857663E+03  0.30540995810E+03  0.12499856072E+03 0.  0.
    9000005    1    3    3    0    0 -0.62994903851E+01 -0.50287759166E+02 -0.50002485044E+02  0.71202463522E+02  0.10000000000E+01 0.  0.
    9000005    1    3    3    0    0  0.62994903851E+01  0.50287759166E+02 -0.22865609158E+03  0.23420749458E+03  0.10000000000E+01 0.  0.
<mgrwt>
<rscale>  0 0.12499856E+03</rscale>
<asrwt>0</asrwt>
<pdfrwt beam="1">  1        4 0.20577988E-02 0.12499856E+03</pdfrwt>
<pdfrwt beam="2">  1       -4 0.44928344E-01 0.12499856E+03</pdfrwt>
<totfact> 0.74927591E+03</totfact>
</mgrwt>
</event>
<event>
 5    1  0.3266101E-002  0.1249995E+03  0.7818608E-02  0.1235070E+00
         -4   -1    0    0    0  501 -0.00000000000E+00  0.00000000000E+00  0.94260883146E+02  0.94269438269E+02  0.12700000000E+01 0.  1.
          4   -1    0    0  501    0  0.00000000000E+00 -0.00000000000E+00 -0.41420309225E+02  0.41439774569E+02  0.12700000000E+01 0.  1.
         25    2    1    2    0    0  0.00000000000E+00  0.00000000000E+00  0.52840573921E+02  0.13570921284E+03  0.12499945679E+03 0.  0.
    9000005    1    3    3    0    0 -0.58058521475E+01  0.13645437840E+02 -0.39487727416E+02  0.42192256511E+02  0.10000000000E+01 0.  0.
    9000005    1    3    3    0    0  0.58058521475E+01 -0.13645437840E+02  0.92328301337E+02  0.93516956327E+02  0.10000000000E+01 0.  0.
<mgrwt>
<rscale>  0 0.12499946E+03</rscale>
<asrwt>0</asrwt>
<pdfrwt beam="2">  1        4 0.63745108E-02 0.12499946E+03</pdfrwt>
<pdfrwt beam="1">  1       -4 0.14503830E-01 0.12499946E+03</pdfrwt>
<totfact> 0.10223269E+04</totfact>
</mgrwt>
</event>
<event>
 5    1  0.3266101E-002  0.1250006E+03  0.7818608E-02  0.1235068E+00
         -4   -1    0    0    0  501 -0.00000000000E+00  0.00000000000E+00  0.61668625491E+01  0.62962761772E+01  0.12700000000E+01 0.  1.
          4   -1    0    0  501    0  0.00000000000E+00 -0.00000000000E+00 -0.62672423308E+03  0.62672551984E+03  0.12700000000E+01 0.  1.
         25    2    1    2    0    0  0.00000000000E+00  0.00000000000E+00 -0.62055737053E+03  0.63302179602E+03  0.12500057649E+03 0.  0.
    9000005    1    3    3    0    0  0.62419680631E+02 -0.90466943296E-01 -0.32552280317E+03  0.33145485379E+03  0.10000000000E+01 0.  0.
    9000005    1    3    3    0    0 -0.62419680631E+02  0.90466943296E-01 -0.29503456735E+03  0.30156694223E+03  0.10000000000E+01 0.  0.
<mgrwt>
<rscale>  0 0.12500058E+03</rscale>
<asrwt>0</asrwt>
<pdfrwt beam="2">  1        4 0.96429117E-01 0.12500058E+03</pdfrwt>
<pdfrwt beam="1">  1       -4 0.95880245E-03 0.12500058E+03</pdfrwt>
<totfact> 0.46846816E+03</totfact>
</mgrwt>
</event>
<event>
 5    1  0.3266101E-002  0.1250004E+03  0.7818608E-02  0.1235069E+00
          4   -1    0    0  501    0  0.00000000000E+00  0.00000000000E+00  0.35898243141E+01  0.38078522300E+01  0.12700000000E+01 0. -1.
         -4   -1    0    0    0  501 -0.00000000000E+00 -0.00000000000E+00 -0.10558633334E+04  0.10558640972E+04  0.12700000000E+01 0. -1.
         25    2    1    2    0    0  0.00000000000E+00  0.00000000000E+00 -0.10522735091E+04  0.10596719495E+04  0.12500040979E+03 0.  0.
    9000005    1    3    3    0    0 -0.21254014616E+02 -0.58282954023E+02 -0.58993674982E+03  0.59319052981E+03  0.10000000000E+01 0.  0.
    9000005    1    3    3    0    0  0.21254014616E+02  0.58282954023E+02 -0.46233675931E+03  0.46648141965E+03  0.10000000000E+01 0.  0.
<mgrwt>
<rscale>  0 0.12500041E+03</rscale>
<asrwt>0</asrwt>
<pdfrwt beam="1">  1        4 0.56911164E-03 0.12500041E+03</pdfrwt>
<pdfrwt beam="2">  1       -4 0.16245710E+00 0.12500041E+03</pdfrwt>
<totfact> 0.28694476E+03</totfact>
</mgrwt>
</event>
<event>
 5    1  0.3266101E-002  0.1250004E+03  0.7818608E-02  0.1235069E+00
         -4   -1    0    0    0  501 -0.00000000000E+00  0.00000000000E+00  0.22034585343E+02  0.22071154280E+02  0.12700000000E+01 0. -1.
          4   -1    0    0  501    0  0.00000000000E+00 -0.00000000000E+00 -0.17709336465E+03  0.17709791841E+03  0.12700000000E+01 0. -1.
         25    2    1    2    0    0  0.00000000000E+00  0.00000000000E+00 -0.15505877931E+03  0.19916907269E+03  0.12500037790E+03 0.  0.
    9000005    1    3    3    0    0 -0.38220108157E+01  0.33480515303E+02  0.63255369484E+01  0.34301094578E+02  0.10000000000E+01 0.  0.
    9000005    1    3    3    0    0  0.38220108157E+01 -0.33480515303E+02 -0.16138431626E+03  0.16486797811E+03  0.10000000000E+01 0.  0.
<mgrwt>
<rscale>  0 0.12500038E+03</rscale>
<asrwt>0</asrwt>
<pdfrwt beam="2">  1        4 0.27248295E-01 0.12500038E+03</pdfrwt>
<pdfrwt beam="1">  1       -4 0.33930996E-02 0.12500038E+03</pdfrwt>
<totfact> 0.90275075E+03</totfact>
</mgrwt>
</event>
<event>
 5    1  0.3266101E-002  0.1250062E+03  0.7818608E-02  0.1235060E+00
         -4   -1    0    0    0  501 -0.00000000000E+00  0.00000000000E+00  0.32258584524E+03  0.32258834519E+03  0.12700000000E+01 0.  1.
          4   -1    0    0  501    0  0.00000000000E+00 -0.00000000000E+00 -0.12074538485E+02  0.12141144082E+02  0.12700000000E+01 0.  1.
         25    2    1    2    0    0  0.00000000000E+00  0.00000000000E+00  0.31051130676E+03  0.33472948927E+03  0.12500623730E+03 0.  0.
    9000005    1    3    3    0    0 -0.49926491983E+02  0.85158142686E+01  0.25329269941E+03  0.25830866278E+03  0.10000000000E+01 0.  0.
    9000005    1    3    3    0    0  0.49926491983E+02 -0.85158142686E+01  0.57218607353E+02  0.76420826493E+02  0.10000000000E+01 0.  0.
<mgrwt>
<rscale>  0 0.12500624E+03</rscale>
<asrwt>0</asrwt>
<pdfrwt beam="2">  1        4 0.18629368E-02 0.12500624E+03</pdfrwt>
<pdfrwt beam="1">  1       -4 0.49633915E-01 0.12500624E+03</pdfrwt>
<totfact> 0.71427953E+03</totfact>
</mgrwt>
</event>
<event>
 5    1  0.3266101E-002  0.1249976E+03  0.7818608E-02  0.1235073E+00
          4   -1    0    0  501    0  0.00000000000E+00  0.00000000000E+00  0.10490969877E+03  0.10491738558E+03  0.12700000000E+01 0.  1.
         -4   -1    0    0    0  501 -0.00000000000E+00 -0.00000000000E+00 -0.37213063797E+02  0.37234728643E+02  0.12700000000E+01 0.  1.
         25    2    1    2    0    0  0.00000000000E+00  0.00000000000E+00  0.67696634978E+02  0.14215211422E+03  0.12499755674E+03 0.  0.
    9000005    1    3    3    0    0  0.15582959522E+02 -0.50370819066E+02  0.71993312964E+02  0.89241723159E+02  0.10000000000E+01 0.  0.
    9000005    1    3    3    0    0 -0.15582959522E+02  0.50370819066E+02 -0.42966779862E+01  0.52910391064E+02  0.10000000000E+01 0.  0.
<mgrwt>
<rscale>  0 0.12499756E+03</rscale>
<asrwt>0</asrwt>
<pdfrwt beam="1">  1        4 0.16142211E-01 0.12499756E+03</pdfrwt>
<pdfrwt beam="2">  1       -4 0.57273446E-02 0.12499756E+03</pdfrwt>
<totfact> 0.10089731E+04</totfact>
</mgrwt>
</event>
<event>
 5    1  0.3266101E-002  0.1250025E+03  0.7818608E-02  0.1235065E+00
         -4   -1    0    0    0  501 -0.00000000000E+00  0.00000000000E+00  0.26333857816E+03  0.26334164055E+03  0.12700000000E+01 0. -1.
          4   -1    0    0  501    0  0.00000000000E+00 -0.00000000000E+00 -0.14803810820E+02  0.14858186794E+02  0.12700000000E+01 0. -1.
         25    2    1    2    0    0  0.00000000000E+00  0.00000000000E+00  0.24853476734E+03  0.27819982734E+03  0.12500245341E+03 0.  0.
    9000005    1    3    3    0    0 -0.44163277516E+02 -0.25763989018E+02  0.44295135728E+02  0.67655282574E+02  0.10000000000E+01 0.  0.
    9000005    1    3    3    0    0  0.44163277516E+02  0.25763989018E+02  0.20423963161E+03  0.21054454477E+03  0.10000000000E+01 0.  0.
<mgrwt>
<rscale>  0 0.12500245E+03</rscale>
<asrwt>0</asrwt>
<pdfrwt beam="2">  1        4 0.22819279E-02 0.12500245E+03</pdfrwt>
<pdfrwt beam="1">  1       -4 0.40518042E-01 0.12500245E+03</pdfrwt>
<totfact> 0.78413127E+03</totfact>
</mgrwt>
</event>
<event>
 5    1  0.3266101E-002  0.1249933E+03  0.7818608E-02  0.1235080E+00
         -4   -1    0    0    0  501 -0.00000000000E+00  0.00000000000E+00  0.13928882463E+02  0.13986660312E+02  0.12700000000E+01 0. -1.
          4   -1    0    0  501    0  0.00000000000E+00 -0.00000000000E+00 -0.27977267302E+03  0.27977555552E+03  0.12700000000E+01 0. -1.
         25    2    1    2    0    0  0.00000000000E+00  0.00000000000E+00 -0.26584379055E+03  0.29376221583E+03  0.12499327372E+03 0.  0.
    9000005    1    3    3    0    0 -0.44600908184E+00 -0.13006303866E+02 -0.27656399016E+03  0.27687181785E+03  0.10000000000E+01 0.  0.
    9000005    1    3    3    0    0  0.44600908184E+00  0.13006303866E+02  0.10720199609E+02  0.16890397983E+02  0.10000000000E+01 0.  0.
<mgrwt>
<rscale>  0 0.12499327E+03</rscale>
<asrwt>0</asrwt>
<pdfrwt beam="2">  1        4 0.43046612E-01 0.12499327E+03</pdfrwt>
<pdfrwt beam="1">  1       -4 0.21475714E-02 0.12499327E+03</pdfrwt>
<totfact> 0.76399430E+03</totfact>
</mgrwt>
</event>
<event>
 5    1  0.3266101E-002  0.1250033E+03  0.7818608E-02  0.1235064E+00
         -4   -1    0    0    0  501 -0.00000000000E+00  0.00000000000E+00  0.28022314474E+03  0.28022602261E+03  0.12700000000E+01 0. -1.
          4   -1    0    0  501    0  0.00000000000E+00 -0.00000000000E+00 -0.13908641364E+02  0.13966502948E+02  0.12700000000E+01 0. -1.
         25    2    1    2    0    0  0.00000000000E+00  0.00000000000E+00  0.26631450337E+03  0.29419252555E+03  0.12500330950E+03 0.  0.
    9000005    1    3    3    0    0  0.50102367941E+02  0.17588279961E+02  0.21071004361E+03  0.21730006291E+03  0.10000000000E+01 0.  0.
    9000005    1    3    3    0    0 -0.50102367941E+02 -0.17588279961E+02  0.55604459766E+02  0.76892462642E+02  0.10000000000E+01 0.  0.
<mgrwt>
<rscale>  0 0.12500331E+03</rscale>
<asrwt>0</asrwt>
<pdfrwt beam="2">  1        4 0.21444633E-02 0.12500331E+03</pdfrwt>
<pdfrwt beam="1">  1       -4 0.43115925E-01 0.12500331E+03</pdfrwt>
<totfact> 0.76327529E+03</totfact>
</mgrwt>
</event>
<event>
 4    1  0.3266101E-002  0.1245567E+03  0.7818608E-02  0.1235764E+00
         -4   -1    0    0    0  501 -0.00000000000E+00  0.00000000000E+00  0.41309952840E+02  0.41329470159E+02  0.12700000000E+01 0.  1.
          4   -1    0    0  501    0  0.00000000000E+00 -0.00000000000E+00 -0.93844033529E+02  0.93852626650E+02  0.12700000000E+01 0.  1.
    9000005    1    1    2    0    0  0.57341600422E+02  0.14961410510E-01 -0.52618591867E+02  0.77831713157E+02  0.10000000000E+01 0.  0.
    9000005    1    1    2    0    0 -0.57341600422E+02 -0.14961410510E-01  0.84511178056E-01  0.57350383652E+02  0.10000000000E+01 0.  0.
<mgrwt>
<rscale>  0 0.12455669E+03</rscale>
<asrwt>0</asrwt>
<pdfrwt beam="2">  1        4 0.14439706E-01 0.12455669E+03</pdfrwt>
<pdfrwt beam="1">  1       -4 0.63575397E-02 0.12455669E+03</pdfrwt>
<totfact> 0.10337226E+04</totfact>
</mgrwt>
</event>
<event>
 5    1  0.3266101E-002  0.1250021E+03  0.7818608E-02  0.1235066E+00
          4   -1    0    0  501    0  0.00000000000E+00  0.00000000000E+00  0.65279645908E+01  0.66503550055E+01  0.12700000000E+01 0.  1.
         -4   -1    0    0    0  501 -0.00000000000E+00 -0.00000000000E+00 -0.59272640224E+03  0.59272776282E+03  0.12700000000E+01 0.  1.
         25    2    1    2    0    0  0.00000000000E+00  0.00000000000E+00 -0.58619843765E+03  0.59937811782E+03  0.12500207926E+03 0.  0.
    9000005    1    3    3    0    0 -0.25933262787E+02  0.31462703613E+02 -0.52018653271E+03  0.52178296700E+03  0.10000000000E+01 0.  0.
    9000005    1    3    3    0    0  0.25933262787E+02 -0.31462703613E+02 -0.66011904939E+02  0.77595150822E+02  0.10000000000E+01 0.  0.
<mgrwt>
<rscale>  0 0.12500208E+03</rscale>
<asrwt>0</asrwt>
<pdfrwt beam="1">  1        4 0.10138220E-02 0.12500208E+03</pdfrwt>
<pdfrwt beam="2">  1       -4 0.91198155E-01 0.12500208E+03</pdfrwt>
<totfact> 0.48904676E+03</totfact>
</mgrwt>
</event>
<event>
 5    1  0.3266101E-002  0.1249984E+03  0.7818608E-02  0.1235072E+00
          4   -1    0    0  501    0  0.00000000000E+00  0.00000000000E+00  0.25339039657E+03  0.25339357919E+03  0.12700000000E+01 0. -1.
         -4   -1    0    0    0  501 -0.00000000000E+00 -0.00000000000E+00 -0.15386107156E+02  0.15438432349E+02  0.12700000000E+01 0. -1.
         25    2    1    2    0    0  0.00000000000E+00  0.00000000000E+00  0.23800428941E+03  0.26883201154E+03  0.12499843458E+03 0.  0.
    9000005    1    3    3    0    0 -0.32269684528E+01 -0.27548984642E+02  0.23943640538E+03  0.24103973138E+03  0.10000000000E+01 0.  0.
    9000005    1    3    3    0    0  0.32269684528E+01  0.27548984642E+02 -0.14321159711E+01  0.27792280157E+02  0.10000000000E+01 0.  0.
<mgrwt>
<rscale>  0 0.12499843E+03</rscale>
<asrwt>0</asrwt>
<pdfrwt beam="1">  1        4 0.38987405E-01 0.12499843E+03</pdfrwt>
<pdfrwt beam="2">  1       -4 0.23713634E-02 0.12499843E+03</pdfrwt>
<totfact> 0.79685147E+03</totfact>
</mgrwt>
</event>
<event>
 5    1  0.3266101E-002  0.1250017E+03  0.7818608E-02  0.1235067E+00
         -4   -1    0    0    0  501 -0.00000000000E+00  0.00000000000E+00  0.44131594215E+03  0.44131776952E+03  0.12700000000E+01 0.  1.
          4   -1    0    0  501    0  0.00000000000E+00 -0.00000000000E+00 -0.88042002652E+01  0.88953269929E+01  0.12700000000E+01 0.  1.
         25    2    1    2    0    0  0.00000000000E+00  0.00000000000E+00  0.43251174189E+03  0.45021309652E+03  0.12500170161E+03 0.  0.
    9000005    1    3    3    0    0 -0.82008019929E+01  0.31283230206E+02  0.23661132783E+02  0.40084197011E+02  0.10000000000E+01 0.  0.
    9000005    1    3    3    0    0  0.82008019929E+01 -0.31283230206E+02  0.40885060910E+03  0.41012889951E+03  0.10000000000E+01 0.  0.
<mgrwt>
<rscale>  0 0.12500170E+03</rscale>
<asrwt>0</asrwt>
<pdfrwt beam="2">  1        4 0.13616428E-02 0.12500170E+03</pdfrwt>
<pdfrwt beam="1">  1       -4 0.67901902E-01 0.12500170E+03</pdfrwt>
<totfact> 0.59943095E+03</totfact>
</mgrwt>
</event>
<event>
 5    1  0.3266101E-002  0.1249975E+03  0.7818608E-02  0.1235073E+00
          4   -1    0    0  501    0  0.00000000000E+00  0.00000000000E+00  0.36431422240E+02  0.36453551630E+02  0.12700000000E+01 0.  1.
         -4   -1    0    0    0  501 -0.00000000000E+00 -0.00000000000E+00 -0.10715929407E+03  0.10716681952E+03  0.12700000000E+01 0.  1.
         25    2    1    2    0    0  0.00000000000E+00  0.00000000000E+00 -0.70727871828E+02  0.14362037114E+03  0.12499751659E+03 0.  0.
    9000005    1    3    3    0    0  0.14325437315E+02 -0.43714116354E+02  0.13233581588E+02  0.47877654542E+02  0.10000000000E+01 0.  0.
    9000005    1    3    3    0    0 -0.14325437315E+02  0.43714116354E+02 -0.83961453415E+02  0.95742716603E+02  0.10000000000E+01 0.  0.
<mgrwt>
<rscale>  0 0.12499752E+03</rscale>
<asrwt>0</asrwt>
<pdfrwt beam="1">  1        4 0.56071153E-02 0.12499752E+03</pdfrwt>
<pdfrwt beam="2">  1       -4 0.16488326E-01 0.12499752E+03</pdfrwt>
<totfact> 0.10059658E+04</totfact>
</mgrwt>
</event>
<event>
 5    1  0.3266101E-002  0.1249886E+03  0.7818608E-02  0.1235087E+00
         -4   -1    0    0    0  501 -0.00000000000E+00  0.00000000000E+00  0.60717987592E+02  0.60731268036E+02  0.12700000000E+01 0. -1.
          4   -1    0    0  501    0  0.00000000000E+00 -0.00000000000E+00 -0.64296028317E+02  0.64308569860E+02  0.12700000000E+01 0. -1.
         25    2    1    2    0    0  0.00000000000E+00  0.00000000000E+00 -0.35780407250E+01  0.12503983790E+03  0.12498863423E+03 0.  0.
    9000005    1    3    3    0    0  0.58061530393E+02  0.86056504837E+01  0.19652005034E+02  0.61906379588E+02  0.10000000000E+01 0.  0.
    9000005    1    3    3    0    0 -0.58061530393E+02 -0.86056504837E+01 -0.23230045759E+02  0.63133458307E+02  0.10000000000E+01 0.  0.
<mgrwt>
<rscale>  0 0.12498863E+03</rscale>
<asrwt>0</asrwt>
<pdfrwt beam="2">  1        4 0.98936831E-02 0.12498863E+03</pdfrwt>
<pdfrwt beam="1">  1       -4 0.93432151E-02 0.12498863E+03</pdfrwt>
<totfact> 0.10454683E+04</totfact>
</mgrwt>
</event>
<event>
 5    1  0.3266101E-002  0.1250013E+03  0.7818608E-02  0.1235067E+00
         -4   -1    0    0    0  501 -0.00000000000E+00  0.00000000000E+00  0.58314844230E+03  0.58314982522E+03  0.12700000000E+01 0.  1.
          4   -1    0    0  501    0  0.00000000000E+00 -0.00000000000E+00 -0.66370960619E+01  0.67575102023E+01  0.12700000000E+01 0.  1.
         25    2    1    2    0    0  0.00000000000E+00  0.00000000000E+00  0.57651134624E+03  0.58990733542E+03  0.12500132818E+03 0.  0.
    9000005    1    3    3    0    0  0.56121472657E+02 -0.22962169810E+02  0.21692657652E+03  0.22524435739E+03  0.10000000000E+01 0.  0.
    9000005    1    3    3    0    0 -0.56121472657E+02  0.22962169810E+02  0.35958476972E+03  0.36466297803E+03  0.10000000000E+01 0.  0.
<mgrwt>
<rscale>  0 0.12500133E+03</rscale>
<asrwt>0</asrwt>
<pdfrwt beam="2">  1        4 0.10304603E-02 0.12500133E+03</pdfrwt>
<pdfrwt beam="1">  1       -4 0.89724545E-01 0.12500133E+03</pdfrwt>
<totfact> 0.49509494E+03</totfact>
</mgrwt>
</event>
<event>
 5    1  0.3266101E-002  0.1250016E+03  0.7818608E-02  0.1235067E+00
         -4   -1    0    0    0  501 -0.00000000000E+00  0.00000000000E+00  0.42871430047E+02  0.42890236817E+02  0.12700000000E+01 0.  1.
          4   -1    0    0  501    0  0.00000000000E+00 -0.00000000000E+00 -0.91074589113E+02  0.91083443513E+02  0.12700000000E+01 0.  1.
         25    2    1    2    0    0  0.00000000000E+00  0.00000000000E+00 -0.48203159067E+02  0.13397368033E+03  0.12500160990E+03 0.  0.
    9000005    1    3    3    0    0 -0.21997227910E+02  0.52147904213E+02 -0.52499966839E+02  0.77204458858E+02  0.10000000000E+01 0.  0.
    9000005    1    3    3    0    0  0.21997227910E+02 -0.52147904213E+02  0.42968077722E+01  0.56769221472E+02  0.10000000000E+01 0.  0.
<mgrwt>
<rscale>  0 0.12500161E+03</rscale>
<asrwt>0</asrwt>
<pdfrwt beam="2">  1        4 0.14013603E-01 0.12500161E+03</pdfrwt>
<pdfrwt beam="1">  1       -4 0.65977324E-02 0.12500161E+03</pdfrwt>
<totfact> 0.10259376E+04</totfact>
</mgrwt>
</event>
<event>
 5    1  0.3266101E-002  0.1249987E+03  0.7818608E-02  0.1235071E+00
         -4   -1    0    0    0  501 -0.00000000000E+00  0.00000000000E+00  0.12847132393E+03  0.12847760105E+03  0.12700000000E+01 0. -1.
          4   -1    0    0  501    0  0.00000000000E+00 -0.00000000000E+00 -0.30384679727E+02  0.30411209481E+02  0.12700000000E+01 0. -1.
         25    2    1    2    0    0  0.00000000000E+00  0.00000000000E+00  0.98086644204E+02  0.15888881053E+03  0.12499865736E+03 0.  0.
    9000005    1    3    3    0    0  0.13555334643E+01 -0.14081137206E+01  0.12843869457E+03  0.12845745801E+03  0.10000000000E+01 0.  0.
    9000005    1    3    3    0    0 -0.13555334643E+01  0.14081137206E+01 -0.30352050365E+02  0.30431352527E+02  0.10000000000E+01 0.  0.
<mgrwt>
<rscale>  0 0.12499866E+03</rscale>
<asrwt>0</asrwt>
<pdfrwt beam="2">  1        4 0.46770897E-02 0.12499866E+03</pdfrwt>
<pdfrwt beam="1">  1       -4 0.19767343E-01 0.12499866E+03</pdfrwt>
<totfact> 0.97560386E+03</totfact>
</mgrwt>
</event>
<event>
 5    1  0.3266101E-002  0.1250016E+03  0.7818608E-02  0.1235067E+00
         -4   -1    0    0    0  501 -0.00000000000E+00  0.00000000000E+00  0.10133746395E+02  0.10213016988E+02  0.12700000000E+01 0.  1.
          4   -1    0    0  501    0  0.00000000000E+00 -0.00000000000E+00 -0.38389716451E+03  0.38389926520E+03  0.12700000000E+01 0.  1.
         25    2    1    2    0    0  0.00000000000E+00  0.00000000000E+00 -0.37376341812E+03  0.39411228219E+03  0.12500159298E+03 0.  0.
    9000005    1    3    3    0    0 -0.21523673867E+02 -0.44569421319E+02 -0.30717255041E+03  0.31113610780E+03  0.10000000000E+01 0.  0.
    9000005    1    3    3    0    0  0.21523673867E+02  0.44569421319E+02 -0.66590867706E+02  0.82976174383E+02  0.10000000000E+01 0.  0.
<mgrwt>
<rscale>  0 0.12500159E+03</rscale>
<asrwt>0</asrwt>
<pdfrwt beam="2">  1        4 0.59067350E-01 0.12500159E+03</pdfrwt>
<pdfrwt beam="1">  1       -4 0.15652975E-02 0.12500159E+03</pdfrwt>
<totfact> 0.65127192E+03</totfact>
</mgrwt>
</event>
<event>
 5    1  0.3266101E-002  0.1249999E+03  0.7818608E-02  0.1235069E+00
         -4   -1    0    0    0  501 -0.00000000000E+00  0.00000000000E+00  0.50823020907E+02  0.50838886240E+02  0.12700000000E+01 0.  1.
          4   -1    0    0  501    0  0.00000000000E+00 -0.00000000000E+00 -0.76826681154E+02  0.76837177442E+02  0.12700000000E+01 0.  1.
         25    2    1    2    0    0  0.00000000000E+00  0.00000000000E+00 -0.26003660247E+02  0.12767606368E+03  0.12499994756E+03 0.  0.
    9000005    1    3    3    0    0  0.50171740432E+02  0.35286368834E+02 -0.79117102341E+00  0.61351098727E+02  0.10000000000E+01 0.  0.
    9000005    1    3    3    0    0 -0.50171740432E+02 -0.35286368834E+02 -0.25212489224E+02  0.66324964955E+02  0.10000000000E+01 0.  0.
<mgrwt>
<rscale>  0 0.12499995E+03</rscale>
<asrwt>0</asrwt>
<pdfrwt beam="2">  1        4 0.11821517E-01 0.12499995E+03</pdfrwt>
<pdfrwt beam="1">  1       -4 0.78209541E-02 0.12499995E+03</pdfrwt>
<totfact> 0.10394502E+04</totfact>
</mgrwt>
</event>
<event>
 5    1  0.3266101E-002  0.1250020E+03  0.7818608E-02  0.1235066E+00
          4   -1    0    0  501    0  0.00000000000E+00  0.00000000000E+00  0.71524724335E+02  0.71535998568E+02  0.12700000000E+01 0. -1.
         -4   -1    0    0    0  501 -0.00000000000E+00 -0.00000000000E+00 -0.54592773802E+02  0.54607543905E+02  0.12700000000E+01 0. -1.
         25    2    1    2    0    0  0.00000000000E+00  0.00000000000E+00  0.16931950533E+02  0.12614354247E+03  0.12500200942E+03 0.  0.
    9000005    1    3    3    0    0 -0.34244094593E+02 -0.42970243879E+02  0.38508225115E+02  0.67104271660E+02  0.10000000000E+01 0.  0.
    9000005    1    3    3    0    0  0.34244094593E+02  0.42970243879E+02 -0.21576274582E+02  0.59039270814E+02  0.10000000000E+01 0.  0.
<mgrwt>
<rscale>  0 0.12500201E+03</rscale>
<asrwt>0</asrwt>
<pdfrwt beam="1">  1        4 0.11005807E-01 0.12500201E+03</pdfrwt>
<pdfrwt beam="2">  1       -4 0.84008917E-02 0.12500201E+03</pdfrwt>
<totfact> 0.10427341E+04</totfact>
</mgrwt>
</event>
<event>
 5    1  0.3266101E-002  0.1249981E+03  0.7818608E-02  0.1235072E+00
          4   -1    0    0  501    0  0.00000000000E+00  0.00000000000E+00  0.17914069642E+02  0.17959030908E+02  0.12700000000E+01 0.  1.
         -4   -1    0    0    0  501 -0.00000000000E+00 -0.00000000000E+00 -0.21772825708E+03  0.21773196098E+03  0.12700000000E+01 0.  1.
         25    2    1    2    0    0  0.00000000000E+00  0.00000000000E+00 -0.19981418744E+03  0.23569099188E+03  0.12499813660E+03 0.  0.
    9000005    1    3    3    0    0  0.28871775626E+02 -0.15848216213E+01 -0.20436489810E+03  0.20640276806E+03  0.10000000000E+01 0.  0.
    9000005    1    3    3    0    0 -0.28871775626E+02  0.15848216213E+01  0.45507106616E+01  0.29288223826E+02  0.10000000000E+01 0.  0.
<mgrwt>
<rscale>  0 0.12499814E+03</rscale>
<asrwt>0</asrwt>
<pdfrwt beam="1">  1        4 0.27597543E-02 0.12499814E+03</pdfrwt>
<pdfrwt beam="2">  1       -4 0.33500397E-01 0.12499814E+03</pdfrwt>
<totfact> 0.84446842E+03</totfact>
</mgrwt>
</event>
<event>
 5    1  0.3266101E-002  0.1250012E+03  0.7818608E-02  0.1235067E+00
          4   -1    0    0  501    0  0.00000000000E+00  0.00000000000E+00  0.81599939585E+02  0.81609821960E+02  0.12700000000E+01 0. -1.
         -4   -1    0    0    0  501 -0.00000000000E+00 -0.00000000000E+00 -0.47850462066E+02  0.47867312646E+02  0.12700000000E+01 0. -1.
         25    2    1    2    0    0  0.00000000000E+00  0.00000000000E+00  0.33749477519E+02  0.12947713461E+03  0.12500120461E+03 0.  0.
    9000005    1    3    3    0    0  0.24394006837E+02 -0.24474774492E+02 -0.37059321237E+02  0.50680128715E+02  0.10000000000E+01 0.  0.
    9000005    1    3    3    0    0 -0.24394006837E+02  0.24474774492E+02  0.70808798757E+02  0.78797005891E+02  0.10000000000E+01 0.  0.
<mgrwt>
<rscale>  0 0.12500120E+03</rscale>
<asrwt>0</asrwt>
<pdfrwt beam="1">  1        4 0.12555893E-01 0.12500120E+03</pdfrwt>
<pdfrwt beam="2">  1       -4 0.73636660E-02 0.12500120E+03</pdfrwt>
<totfact> 0.10355424E+04</totfact>
</mgrwt>
</event>
<event>
 5    1  0.3266101E-002  0.1249912E+03  0.7818608E-02  0.1235083E+00
         -4   -1    0    0    0  501 -0.00000000000E+00  0.00000000000E+00  0.20758904482E+04  0.20758908367E+04  0.12700000000E+01 0.  1.
          4   -1    0    0  501    0  0.00000000000E+00 -0.00000000000E+00 -0.16667082810E+01  0.20954275206E+01  0.12700000000E+01 0.  1.
         25    2    1    2    0    0  0.00000000000E+00  0.00000000000E+00  0.20742237399E+04  0.20779862642E+04  0.12499116360E+03 0.  0.
    9000005    1    3    3    0    0  0.52532358020E+02 -0.56119601917E+01  0.48233391013E+03  0.48521968591E+03  0.10000000000E+01 0.  0.
    9000005    1    3    3    0    0 -0.52532358020E+02  0.56119601917E+01  0.15918898298E+04  0.15927665783E+04  0.10000000000E+01 0.  0.
<mgrwt>
<rscale>  0 0.12499116E+03</rscale>
<asrwt>0</asrwt>
<pdfrwt beam="2">  1        4 0.28942390E-03 0.12499116E+03</pdfrwt>
<pdfrwt beam="1">  1       -4 0.31940192E+00 0.12499116E+03</pdfrwt>
<totfact> 0.88791130E+02</totfact>
</mgrwt>
</event>
<event>
 5    1  0.3266101E-002  0.1250016E+03  0.7818608E-02  0.1235067E+00
          4   -1    0    0  501    0  0.00000000000E+00  0.00000000000E+00  0.30455543136E+02  0.30482011215E+02  0.12700000000E+01 0. -1.
         -4   -1    0    0    0  501 -0.00000000000E+00 -0.00000000000E+00 -0.12817876294E+03  0.12818505439E+03  0.12700000000E+01 0. -1.
         25    2    1    2    0    0  0.00000000000E+00  0.00000000000E+00 -0.97723219807E+02  0.15866706561E+03  0.12500164006E+03 0.  0.
    9000005    1    3    3    0    0  0.89305047828E+01  0.60972517825E+02 -0.35673464464E+02  0.71210939556E+02  0.10000000000E+01 0.  0.
    9000005    1    3    3    0    0 -0.89305047828E+01 -0.60972517825E+02 -0.62049755343E+02  0.87456126050E+02  0.10000000000E+01 0.  0.
<mgrwt>
<rscale>  0 0.12500164E+03</rscale>
<asrwt>0</asrwt>
<pdfrwt beam="1">  1        4 0.46879882E-02 0.12500164E+03</pdfrwt>
<pdfrwt beam="2">  1       -4 0.19722329E-01 0.12500164E+03</pdfrwt>
<totfact> 0.97596783E+03</totfact>
</mgrwt>
</event>
<event>
 5    1  0.3266101E-002  0.1250054E+03  0.7818608E-02  0.1235061E+00
         -4   -1    0    0    0  501 -0.00000000000E+00  0.00000000000E+00  0.86625365055E+03  0.86625458151E+03  0.12700000000E+01 0. -1.
          4   -1    0    0  501    0  0.00000000000E+00 -0.00000000000E+00 -0.44193899757E+01  0.45982505105E+01  0.12700000000E+01 0. -1.
         25    2    1    2    0    0  0.00000000000E+00  0.00000000000E+00  0.86183426058E+03  0.87085283202E+03  0.12500544925E+03 0.  0.
    9000005    1    3    3    0    0 -0.52679276319E+02 -0.29587198957E+02  0.31965283883E+03  0.32531438005E+03  0.10000000000E+01 0.  0.
    9000005    1    3    3    0    0  0.52679276319E+02  0.29587198957E+02  0.54218142175E+03  0.54553845198E+03  0.10000000000E+01 0.  0.
<mgrwt>
<rscale>  0 0.12500545E+03</rscale>
<asrwt>0</asrwt>
<pdfrwt beam="2">  1        4 0.69373670E-03 0.12500545E+03</pdfrwt>
<pdfrwt beam="1">  1       -4 0.13328354E+00 0.12500545E+03</pdfrwt>
<totfact> 0.35284695E+03</totfact>
</mgrwt>
</event>
<event>
 5    1  0.3266101E-002  0.1250001E+03  0.7818608E-02  0.1235069E+00
         -4   -1    0    0    0  501 -0.00000000000E+00  0.00000000000E+00  0.15440491914E+02  0.15492633428E+02  0.12700000000E+01 0. -1.
          4   -1    0    0  501    0  0.00000000000E+00 -0.00000000000E+00 -0.25250748340E+03  0.25251067715E+03  0.12700000000E+01 0. -1.
         25    2    1    2    0    0  0.00000000000E+00  0.00000000000E+00 -0.23706699149E+03  0.26800331058E+03  0.12500006411E+03 0.  0.
    9000005    1    3    3    0    0  0.55076715381E+02  0.28413103861E+02 -0.13575323111E+03  0.14923367182E+03  0.10000000000E+01 0.  0.
    9000005    1    3    3    0    0 -0.55076715381E+02 -0.28413103861E+02 -0.10131376038E+03  0.11876963876E+03  0.10000000000E+01 0.  0.
<mgrwt>
<rscale>  0 0.12500006E+03</rscale>
<asrwt>0</asrwt>
<pdfrwt beam="2">  1        4 0.38851559E-01 0.12500006E+03</pdfrwt>
<pdfrwt beam="1">  1       -4 0.23797170E-02 0.12500006E+03</pdfrwt>
<totfact> 0.79795753E+03</totfact>
</mgrwt>
</event>
<event>
 5    1  0.3266101E-002  0.1249990E+03  0.7818608E-02  0.1235071E+00
         -4   -1    0    0    0  501 -0.00000000000E+00  0.00000000000E+00  0.66049337229E+01  0.67259236900E+01  0.12700000000E+01 0.  1.
          4   -1    0    0  501    0  0.00000000000E+00 -0.00000000000E+00 -0.58591489045E+03  0.58591626685E+03  0.12700000000E+01 0.  1.
         25    2    1    2    0    0  0.00000000000E+00  0.00000000000E+00 -0.57930995673E+03  0.59264219054E+03  0.12499896014E+03 0.  0.
    9000005    1    3    3    0    0  0.10210598204E+02 -0.60005387065E+02 -0.22255732057E+03  0.23073288394E+03  0.10000000000E+01 0.  0.
    9000005    1    3    3    0    0 -0.10210598204E+02  0.60005387065E+02 -0.35675263617E+03  0.36190930660E+03  0.10000000000E+01 0.  0.
<mgrwt>
<rscale>  0 0.12499896E+03</rscale>
<asrwt>0</asrwt>
<pdfrwt beam="2">  1        4 0.90150124E-01 0.12499896E+03</pdfrwt>
<pdfrwt beam="1">  1       -4 0.10255569E-02 0.12499896E+03</pdfrwt>
<totfact> 0.49336516E+03</totfact>
</mgrwt>
</event>
<event>
 5    1  0.3266101E-002  0.1249968E+03  0.7818608E-02  0.1235074E+00
          4   -1    0    0  501    0  0.00000000000E+00  0.00000000000E+00  0.46108830964E+02  0.46126317790E+02  0.12700000000E+01 0. -1.
         -4   -1    0    0    0  501 -0.00000000000E+00 -0.00000000000E+00 -0.84675405044E+02  0.84684928526E+02  0.12700000000E+01 0. -1.
         25    2    1    2    0    0  0.00000000000E+00  0.00000000000E+00 -0.38566574080E+02  0.13081124632E+03  0.12499680606E+03 0.  0.
    9000005    1    3    3    0    0  0.53813404579E+02  0.16297805028E+02 -0.47819812098E+02  0.73818936528E+02  0.10000000000E+01 0.  0.
    9000005    1    3    3    0    0 -0.53813404579E+02 -0.16297805028E+02  0.92532380179E+01  0.56992309787E+02  0.10000000000E+01 0.  0.
<mgrwt>
<rscale>  0 0.12499681E+03</rscale>
<asrwt>0</asrwt>
<pdfrwt beam="1">  1        4 0.70957441E-02 0.12499681E+03</pdfrwt>
<pdfrwt beam="2">  1       -4 0.13029063E-01 0.12499681E+03</pdfrwt>
<totfact> 0.10327882E+04</totfact>
</mgrwt>
</event>
<event>
 5    1  0.3266101E-002  0.1250018E+03  0.7818608E-02  0.1235066E+00
         -4   -1    0    0    0  501 -0.00000000000E+00  0.00000000000E+00  0.46693300756E+03  0.46693473468E+03  0.12700000000E+01 0.  1.
          4   -1    0    0  501    0  0.00000000000E+00 -0.00000000000E+00 -0.83160565643E+01  0.84124726912E+01  0.12700000000E+01 0.  1.
         25    2    1    2    0    0  0.00000000000E+00  0.00000000000E+00  0.45861695100E+03  0.47534720737E+03  0.12500183924E+03 0.  0.
    9000005    1    3    3    0    0 -0.38969353311E+02 -0.44840127604E+02  0.15555945384E+03  0.16652024267E+03  0.10000000000E+01 0.  0.
    9000005    1    3    3    0    0  0.38969353311E+02  0.44840127604E+02  0.30305749716E+03  0.30882696470E+03  0.10000000000E+01 0.  0.
<mgrwt>
<rscale>  0 0.12500184E+03</rscale>
<asrwt>0</asrwt>
<pdfrwt beam="2">  1        4 0.12869428E-02 0.12500184E+03</pdfrwt>
<pdfrwt beam="1">  1       -4 0.71843396E-01 0.12500184E+03</pdfrwt>
<totfact> 0.57826832E+03</totfact>
</mgrwt>
</event>
<event>
 5    1  0.3266101E-002  0.1250022E+03  0.7818608E-02  0.1235066E+00
          4   -1    0    0  501    0  0.00000000000E+00  0.00000000000E+00  0.16075163107E+02  0.16125252522E+02  0.12700000000E+01 0. -1.
         -4   -1    0    0    0  501 -0.00000000000E+00 -0.00000000000E+00 -0.24257776592E+03  0.24258109040E+03  0.12700000000E+01 0. -1.
         25    2    1    2    0    0  0.00000000000E+00  0.00000000000E+00 -0.22650260281E+03  0.25870634292E+03  0.12500217113E+03 0.  0.
    9000005    1    3    3    0    0 -0.25114823143E+01 -0.54441091179E+02 -0.49958780905E+02  0.73939297682E+02  0.10000000000E+01 0.  0.
    9000005    1    3    3    0    0  0.25114823143E+01  0.54441091179E+02 -0.17654382191E+03  0.18476704524E+03  0.10000000000E+01 0.  0.
<mgrwt>
<rscale>  0 0.12500217E+03</rscale>
<asrwt>0</asrwt>
<pdfrwt beam="1">  1        4 0.24772110E-02 0.12500217E+03</pdfrwt>
<pdfrwt beam="2">  1       -4 0.37323762E-01 0.12500217E+03</pdfrwt>
<totfact> 0.81084032E+03</totfact>
</mgrwt>
</event>
<event>
 5    1  0.3266101E-002  0.1249953E+03  0.7818608E-02  0.1235077E+00
          4   -1    0    0  501    0  0.00000000000E+00  0.00000000000E+00  0.84920772651E+01  0.85865171214E+01  0.12700000000E+01 0.  1.
         -4   -1    0    0    0  501 -0.00000000000E+00 -0.00000000000E+00 -0.45731408650E+03  0.45731584995E+03  0.12700000000E+01 0.  1.
         25    2    1    2    0    0  0.00000000000E+00  0.00000000000E+00 -0.44882200924E+03  0.46590236707E+03  0.12499527857E+03 0.  0.
    9000005    1    3    3    0    0  0.34254800438E+02  0.20075401651E+02 -0.40427462401E+03  0.40622085707E+03  0.10000000000E+01 0.  0.
    9000005    1    3    3    0    0 -0.34254800438E+02 -0.20075401651E+02 -0.44547385225E+02  0.59681509992E+02  0.10000000000E+01 0.  0.
<mgrwt>
<rscale>  0 0.12499528E+03</rscale>
<asrwt>0</asrwt>
<pdfrwt beam="1">  1        4 0.13138740E-02 0.12499528E+03</pdfrwt>
<pdfrwt beam="2">  1       -4 0.70363394E-01 0.12499528E+03</pdfrwt>
<totfact> 0.58616611E+03</totfact>
</mgrwt>
</event>
<event>
 5    1  0.3266101E-002  0.1250026E+03  0.7818608E-02  0.1235065E+00
         -4   -1    0    0    0  501 -0.00000000000E+00  0.00000000000E+00  0.64726006389E+01  0.65960184226E+01  0.12700000000E+01 0.  1.
          4   -1    0    0  501    0  0.00000000000E+00 -0.00000000000E+00 -0.59770702116E+03  0.59770837040E+03  0.12700000000E+01 0.  1.
         25    2    1    2    0    0  0.00000000000E+00  0.00000000000E+00 -0.59123442053E+03  0.60430438883E+03  0.12500261733E+03 0.  0.
    9000005    1    3    3    0    0  0.38014991675E+02  0.21907297351E+00 -0.53540338738E+03  0.53675224713E+03  0.10000000000E+01 0.  0.
    9000005    1    3    3    0    0 -0.38014991675E+02 -0.21907297351E+00 -0.55831033146E+02  0.67552141692E+02  0.10000000000E+01 0.  0.
<mgrwt>
<rscale>  0 0.12500262E+03</rscale>
<asrwt>0</asrwt>
<pdfrwt beam="2">  1        4 0.91964481E-01 0.12500262E+03</pdfrwt>
<pdfrwt beam="1">  1       -4 0.10053826E-02 0.12500262E+03</pdfrwt>
<totfact> 0.48594256E+03</totfact>
</mgrwt>
</event>
<event>
 5    1  0.3266101E-002  0.1250023E+03  0.7818608E-02  0.1235066E+00
         -4   -1    0    0    0  501 -0.00000000000E+00  0.00000000000E+00  0.10487891692E+03  0.10488660598E+03  0.12700000000E+01 0. -1.
          4   -1    0    0  501    0  0.00000000000E+00 -0.00000000000E+00 -0.37226789135E+02  0.37248445998E+02  0.12700000000E+01 0. -1.
         25    2    1    2    0    0  0.00000000000E+00  0.00000000000E+00  0.67652127785E+02  0.14213505198E+03  0.12500225041E+03 0.  0.
    9000005    1    3    3    0    0  0.92017277563E+01  0.43225097900E+02  0.84067000238E+02  0.94980742317E+02  0.10000000000E+01 0.  0.
    9000005    1    3    3    0    0 -0.92017277563E+01 -0.43225097900E+02 -0.16414872452E+02  0.47154309663E+02  0.10000000000E+01 0.  0.
<mgrwt>
<rscale>  0 0.12500225E+03</rscale>
<asrwt>0</asrwt>
<pdfrwt beam="2">  1        4 0.57294558E-02 0.12500225E+03</pdfrwt>
<pdfrwt beam="1">  1       -4 0.16137475E-01 0.12500225E+03</pdfrwt>
<totfact> 0.10089015E+04</totfact>
</mgrwt>
</event>
<event>
 5    1  0.3266101E-002  0.1249977E+03  0.7818608E-02  0.1235073E+00
         -4   -1    0    0    0  501 -0.00000000000E+00  0.00000000000E+00  0.10295300154E+03  0.10296083443E+03  0.12700000000E+01 0. -1.
          4   -1    0    0  501    0  0.00000000000E+00 -0.00000000000E+00 -0.37920773481E+02  0.37942034228E+02  0.12700000000E+01 0. -1.
         25    2    1    2    0    0  0.00000000000E+00  0.00000000000E+00  0.65032228063E+02  0.14090286866E+03  0.12499771082E+03 0.  0.
    9000005    1    3    3    0    0  0.42604077588E+01 -0.18974086925E+02 -0.34428679098E+02  0.39553773439E+02  0.10000000000E+01 0.  0.
    9000005    1    3    3    0    0 -0.42604077588E+01  0.18974086925E+02  0.99460907161E+02  0.10134909522E+03  0.10000000000E+01 0.  0.
<mgrwt>
<rscale>  0 0.12499771E+03</rscale>
<asrwt>0</asrwt>
<pdfrwt beam="2">  1        4 0.58362032E-02 0.12499771E+03</pdfrwt>
<pdfrwt beam="1">  1       -4 0.15841161E-01 0.12499771E+03</pdfrwt>
<totfact> 0.10115429E+04</totfact>
</mgrwt>
</event>
<event>
 5    1  0.3266101E-002  0.1249973E+03  0.7818608E-02  0.1235074E+00
          4   -1    0    0  501    0  0.00000000000E+00  0.00000000000E+00  0.35012935578E+02  0.35035960923E+02  0.12700000000E+01 0. -1.
         -4   -1    0    0    0  501 -0.00000000000E+00 -0.00000000000E+00 -0.11149776686E+03  0.11150499951E+03  0.12700000000E+01 0. -1.
         25    2    1    2    0    0  0.00000000000E+00  0.00000000000E+00 -0.76484831286E+02  0.14654096043E+03  0.12499729464E+03 0.  0.
    9000005    1    3    3    0    0  0.45509074557E+02 -0.49140807343E+01  0.11632311671E+02  0.47239122889E+02  0.10000000000E+01 0.  0.
    9000005    1    3    3    0    0 -0.45509074557E+02  0.49140807343E+01 -0.88117142957E+02  0.99301837543E+02  0.10000000000E+01 0.  0.
<mgrwt>
<rscale>  0 0.12499729E+03</rscale>
<asrwt>0</asrwt>
<pdfrwt beam="1">  1        4 0.53889331E-02 0.12499729E+03</pdfrwt>
<pdfrwt beam="2">  1       -4 0.17155830E-01 0.12499729E+03</pdfrwt>
<totfact> 0.10000382E+04</totfact>
</mgrwt>
</event>
<event>
 5    1  0.3266101E-002  0.1249976E+03  0.7818608E-02  0.1235073E+00
          4   -1    0    0  501    0  0.00000000000E+00  0.00000000000E+00  0.22845685221E+03  0.22846038217E+03  0.12700000000E+01 0.  1.
         -4   -1    0    0    0  501 -0.00000000000E+00 -0.00000000000E+00 -0.17070505817E+02  0.17117682929E+02  0.12700000000E+01 0.  1.
         25    2    1    2    0    0  0.00000000000E+00  0.00000000000E+00  0.21138634640E+03  0.24557806510E+03  0.12499759445E+03 0.  0.
    9000005    1    3    3    0    0 -0.16267504004E+02 -0.40438867175E+02  0.17717401923E+02  0.47062086607E+02  0.10000000000E+01 0.  0.
    9000005    1    3    3    0    0  0.16267504004E+02  0.40438867175E+02  0.19366894447E+03  0.19851597850E+03  0.10000000000E+01 0.  0.
<mgrwt>
<rscale>  0 0.12499759E+03</rscale>
<asrwt>0</asrwt>
<pdfrwt beam="1">  1        4 0.35151105E-01 0.12499759E+03</pdfrwt>
<pdfrwt beam="2">  1       -4 0.26301325E-02 0.12499759E+03</pdfrwt>
<totfact> 0.82978015E+03</totfact>
</mgrwt>
</event>
<event>
 5    1  0.3266101E-002  0.1249986E+03  0.7818608E-02  0.1235071E+00
          4   -1    0    0  501    0  0.00000000000E+00  0.00000000000E+00  0.30298677418E+02  0.30325282410E+02  0.12700000000E+01 0.  1.
         -4   -1    0    0    0  501 -0.00000000000E+00 -0.00000000000E+00 -0.12883559627E+03  0.12884185564E+03  0.12700000000E+01 0.  1.
         25    2    1    2    0    0  0.00000000000E+00  0.00000000000E+00 -0.98536918850E+02  0.15916713805E+03  0.12499861383E+03 0.  0.
    9000005    1    3    3    0    0  0.52498024008E+02  0.20865723533E+02 -0.83287257507E+02  0.10064386820E+03  0.10000000000E+01 0.  0.
    9000005    1    3    3    0    0 -0.52498024008E+02 -0.20865723533E+02 -0.15249661343E+02  0.58523269854E+02  0.10000000000E+01 0.  0.
<mgrwt>
<rscale>  0 0.12499861E+03</rscale>
<asrwt>0</asrwt>
<pdfrwt beam="1">  1        4 0.46638631E-02 0.12499861E+03</pdfrwt>
<pdfrwt beam="2">  1       -4 0.19823389E-01 0.12499861E+03</pdfrwt>
<totfact> 0.97506633E+03</totfact>
</mgrwt>
</event>
<event>
 5    1  0.3266101E-002  0.1249993E+03  0.7818608E-02  0.1235070E+00
          4   -1    0    0  501    0  0.00000000000E+00  0.00000000000E+00  0.14215857306E+03  0.14216424584E+03  0.12700000000E+01 0. -1.
         -4   -1    0    0    0  501 -0.00000000000E+00 -0.00000000000E+00 -0.27456896191E+02  0.27486251990E+02  0.12700000000E+01 0. -1.
         25    2    1    2    0    0  0.00000000000E+00  0.00000000000E+00  0.11470167687E+03  0.16965049783E+03  0.12499926695E+03 0.  0.
    9000005    1    3    3    0    0  0.58270547006E+02 -0.18226636571E+02  0.75434752015E+02  0.97051886847E+02  0.10000000000E+01 0.  0.
    9000005    1    3    3    0    0 -0.58270547006E+02  0.18226636571E+02  0.39266924859E+02  0.72598610985E+02  0.10000000000E+01 0.  0.
<mgrwt>
<rscale>  0 0.12499927E+03</rscale>
<asrwt>0</asrwt>
<pdfrwt beam="1">  1        4 0.21873244E-01 0.12499927E+03</pdfrwt>
<pdfrwt beam="2">  1       -4 0.42268324E-02 0.12499927E+03</pdfrwt>
<totfact> 0.95515390E+03</totfact>
</mgrwt>
</event>
<event>
 4    1  0.3266101E-002  0.1250724E+03  0.7818608E-02  0.1234956E+00
          4   -1    0    0  501    0  0.00000000000E+00  0.00000000000E+00  0.49038380518E+03  0.49038544970E+03  0.12700000000E+01 0.  1.
         -4   -1    0    0    0  501 -0.00000000000E+00 -0.00000000000E+00 -0.79226984738E+01  0.80238426646E+01  0.12700000000E+01 0.  1.
    9000005    1    1    2    0    0 -0.48040673481E+01 -0.45225638398E+02  0.41222872918E+03  0.41473119318E+03  0.10000000000E+01 0.  0.
    9000005    1    1    2    0    0  0.48040673481E+01  0.45225638398E+02  0.70232377519E+02  0.83678099187E+02  0.10000000000E+01 0.  0.
<mgrwt>
<rscale>  0 0.12507239E+03</rscale>
<asrwt>0</asrwt>
<pdfrwt beam="1">  1        4 0.75451578E-01 0.12507239E+03</pdfrwt>
<pdfrwt beam="2">  1       -4 0.12267834E-02 0.12507239E+03</pdfrwt>
<totfact> 0.55898960E+03</totfact>
</mgrwt>
</event>
<event>
 5    1  0.3266101E-002  0.1250000E+03  0.7818608E-02  0.1235069E+00
          4   -1    0    0  501    0  0.00000000000E+00  0.00000000000E+00  0.38338178718E+02  0.38359208118E+02  0.12700000000E+01 0.  1.
         -4   -1    0    0    0  501 -0.00000000000E+00 -0.00000000000E+00 -0.10183632377E+03  0.10184424254E+03  0.12700000000E+01 0.  1.
         25    2    1    2    0    0  0.00000000000E+00  0.00000000000E+00 -0.63498145050E+02  0.14020345066E+03  0.12499997261E+03 0.  0.
    9000005    1    3    3    0    0 -0.13864717346E+02  0.60775760916E+02 -0.36679744726E+02  0.72334826848E+02  0.10000000000E+01 0.  0.
    9000005    1    3    3    0    0  0.13864717346E+02 -0.60775760916E+02 -0.26818400325E+02  0.67868623810E+02  0.10000000000E+01 0.  0.
<mgrwt>
<rscale>  0 0.12499997E+03</rscale>
<asrwt>0</asrwt>
<pdfrwt beam="1">  1        4 0.59004082E-02 0.12499997E+03</pdfrwt>
<pdfrwt beam="2">  1       -4 0.15669353E-01 0.12499997E+03</pdfrwt>
<totfact> 0.10129377E+04</totfact>
</mgrwt>
</event>
<event>
 5    1  0.3266101E-002  0.1249989E+03  0.7818608E-02  0.1235071E+00
          4   -1    0    0  501    0  0.00000000000E+00  0.00000000000E+00  0.96018985312E+02  0.96027383805E+02  0.12700000000E+01 0.  1.
         -4   -1    0    0    0  501 -0.00000000000E+00 -0.00000000000E+00 -0.40661255159E+02  0.40681083701E+02  0.12700000000E+01 0.  1.
         25    2    1    2    0    0  0.00000000000E+00  0.00000000000E+00  0.55357730154E+02  0.13670846751E+03  0.12499890720E+03 0.  0.
    9000005    1    3    3    0    0  0.25319873441E+02 -0.15996956355E+02  0.87663681209E+02  0.92644047876E+02  0.10000000000E+01 0.  0.
    9000005    1    3    3    0    0 -0.25319873441E+02  0.15996956355E+02 -0.32305951056E+02  0.44064419630E+02  0.10000000000E+01 0.  0.
<mgrwt>
<rscale>  0 0.12499891E+03</rscale>
<asrwt>0</asrwt>
<pdfrwt beam="1">  1        4 0.14774323E-01 0.12499891E+03</pdfrwt>
<pdfrwt beam="2">  1       -4 0.62577491E-02 0.12499891E+03</pdfrwt>
<totfact> 0.10202436E+04</totfact>
</mgrwt>
</event>
<event>
 5    1  0.3266101E-002  0.1250078E+03  0.7818608E-02  0.1235057E+00
         -4   -1    0    0    0  501 -0.00000000000E+00  0.00000000000E+00  0.24442740231E+02  0.24475711430E+02  0.12700000000E+01 0. -1.
          4   -1    0    0  501    0  0.00000000000E+00 -0.00000000000E+00 -0.15968904858E+03  0.15969409863E+03  0.12700000000E+01 0. -1.
         25    2    1    2    0    0  0.00000000000E+00  0.00000000000E+00 -0.13524630835E+03  0.18416981006E+03  0.12500781981E+03 0.  0.
    9000005    1    3    3    0    0 -0.27344302225E+02  0.40237458069E+02 -0.98272554201E+01  0.49642107581E+02  0.10000000000E+01 0.  0.
    9000005    1    3    3    0    0  0.27344302225E+02 -0.40237458069E+02 -0.12541905293E+03  0.13452770248E+03  0.10000000000E+01 0.  0.
<mgrwt>
<rscale>  0 0.12500782E+03</rscale>
<asrwt>0</asrwt>
<pdfrwt beam="2">  1        4 0.24570470E-01 0.12500782E+03</pdfrwt>
<pdfrwt beam="1">  1       -4 0.37633464E-02 0.12500782E+03</pdfrwt>
<totfact> 0.92855488E+03</totfact>
</mgrwt>
</event>
<event>
 5    1  0.3266101E-002  0.1250011E+03  0.7818608E-02  0.1235068E+00
          4   -1    0    0  501    0  0.00000000000E+00  0.00000000000E+00  0.14596711507E+02  0.14651856087E+02  0.12700000000E+01 0. -1.
         -4   -1    0    0    0  501 -0.00000000000E+00 -0.00000000000E+00 -0.26705524890E+03  0.26705826867E+03  0.12700000000E+01 0. -1.
         25    2    1    2    0    0  0.00000000000E+00  0.00000000000E+00 -0.25245853740E+03  0.28171012476E+03  0.12500112515E+03 0.  0.
    9000005    1    3    3    0    0  0.16234407478E+02  0.53297073841E+02 -0.19001966189E+03  0.19802173105E+03  0.10000000000E+01 0.  0.
    9000005    1    3    3    0    0 -0.16234407478E+02 -0.53297073841E+02 -0.62438875508E+02  0.83688393705E+02  0.10000000000E+01 0.  0.
<mgrwt>
<rscale>  0 0.12500113E+03</rscale>
<asrwt>0</asrwt>
<pdfrwt beam="1">  1        4 0.22501223E-02 0.12500113E+03</pdfrwt>
<pdfrwt beam="2">  1       -4 0.41089893E-01 0.12500113E+03</pdfrwt>
<totfact> 0.77949953E+03</totfact>
</mgrwt>
</event>
<event>
 5    1  0.3266101E-002  0.1249972E+03  0.7818608E-02  0.1235074E+00
          4   -1    0    0  501    0  0.00000000000E+00  0.00000000000E+00  0.11661335931E+03  0.11662027470E+03  0.12700000000E+01 0. -1.
         -4   -1    0    0    0  501 -0.00000000000E+00 -0.00000000000E+00 -0.33475990341E+02  0.33500072079E+02  0.12700000000E+01 0. -1.
         25    2    1    2    0    0  0.00000000000E+00  0.00000000000E+00  0.83137368971E+02  0.15012034677E+03  0.12499718555E+03 0.  0.
    9000005    1    3    3    0    0 -0.24436781227E+01  0.60442479729E+02  0.22739202434E+02  0.64632315802E+02  0.10000000000E+01 0.  0.
    9000005    1    3    3    0    0  0.24436781227E+01 -0.60442479729E+02  0.60398166537E+02  0.85488030973E+02  0.10000000000E+01 0.  0.
<mgrwt>
<rscale>  0 0.12499719E+03</rscale>
<asrwt>0</asrwt>
<pdfrwt beam="1">  1        4 0.17942901E-01 0.12499719E+03</pdfrwt>
<pdfrwt beam="2">  1       -4 0.51525367E-02 0.12499719E+03</pdfrwt>
<totfact> 0.99286003E+03</totfact>
</mgrwt>
</event>
<event>
 5    1  0.3266101E-002  0.1249997E+03  0.7818608E-02  0.1235070E+00
         -4   -1    0    0    0  501 -0.00000000000E+00  0.00000000000E+00  0.99337977365E+02  0.99346095278E+02  0.12700000000E+01 0.  1.
          4   -1    0    0  501    0  0.00000000000E+00 -0.00000000000E+00 -0.39302678526E+02  0.39323192130E+02  0.12700000000E+01 0.  1.
         25    2    1    2    0    0  0.00000000000E+00  0.00000000000E+00  0.60035298840E+02  0.13866928741E+03  0.12499973665E+03 0.  0.
    9000005    1    3    3    0    0 -0.44773960480E+02 -0.30851950509E+01  0.78258818066E+02  0.90220111786E+02  0.10000000000E+01 0.  0.
    9000005    1    3    3    0    0  0.44773960480E+02  0.30851950509E+01 -0.18223519226E+02  0.48449175623E+02  0.10000000000E+01 0.  0.
<mgrwt>
<rscale>  0 0.12499974E+03</rscale>
<asrwt>0</asrwt>
<pdfrwt beam="2">  1        4 0.60487683E-02 0.12499974E+03</pdfrwt>
<pdfrwt beam="1">  1       -4 0.15284968E-01 0.12499974E+03</pdfrwt>
<totfact> 0.10161300E+04</totfact>
</mgrwt>
</event>
<event>
 5    1  0.3266101E-002  0.1249983E+03  0.7818608E-02  0.1235072E+00
         -4   -1    0    0    0  501 -0.00000000000E+00  0.00000000000E+00  0.13437967569E+03  0.13438567684E+03  0.12700000000E+01 0. -1.
          4   -1    0    0  501    0  0.00000000000E+00 -0.00000000000E+00 -0.29047439300E+02  0.29075189249E+02  0.12700000000E+01 0. -1.
         25    2    1    2    0    0  0.00000000000E+00  0.00000000000E+00  0.10533223639E+03  0.16346086609E+03  0.12499829886E+03 0.  0.
    9000005    1    3    3    0    0 -0.20356403889E+02 -0.39133786748E+02 -0.52182055900E+01  0.44430463807E+02  0.10000000000E+01 0.  0.
    9000005    1    3    3    0    0  0.20356403889E+02  0.39133786748E+02  0.11055044198E+03  0.11903040228E+03  0.10000000000E+01 0.  0.
<mgrwt>
<rscale>  0 0.12499830E+03</rscale>
<asrwt>0</asrwt>
<pdfrwt beam="2">  1        4 0.44714331E-02 0.12499830E+03</pdfrwt>
<pdfrwt beam="1">  1       -4 0.20676392E-01 0.12499830E+03</pdfrwt>
<totfact> 0.96683372E+03</totfact>
</mgrwt>
</event>
<event>
 5    1  0.3266101E-002  0.1250016E+03  0.7818608E-02  0.1235067E+00
          4   -1    0    0  501    0  0.00000000000E+00  0.00000000000E+00  0.28773847504E+03  0.28774127775E+03  0.12700000000E+01 0. -1.
         -4   -1    0    0    0  501 -0.00000000000E+00 -0.00000000000E+00 -0.13543462954E+02  0.13602877960E+02  0.12700000000E+01 0. -1.
         25    2    1    2    0    0  0.00000000000E+00  0.00000000000E+00  0.27419501209E+03  0.30134415571E+03  0.12500158209E+03 0.  0.
    9000005    1    3    3    0    0 -0.42937055177E+02 -0.13703416584E+02  0.32738698628E+02  0.55715318551E+02  0.10000000000E+01 0.  0.
    9000005    1    3    3    0    0  0.42937055177E+02  0.13703416584E+02  0.24145631346E+03  0.24562883716E+03  0.10000000000E+01 0.  0.
<mgrwt>
<rscale>  0 0.12500158E+03</rscale>
<asrwt>0</asrwt>
<pdfrwt beam="1">  1        4 0.44272240E-01 0.12500158E+03</pdfrwt>
<pdfrwt beam="2">  1       -4 0.20883959E-02 0.12500158E+03</pdfrwt>
<totfact> 0.75427892E+03</totfact>
</mgrwt>
</event>
<event>
 5    1  0.3266101E-002  0.1250039E+03  0.7818608E-02  0.1235063E+00
         -4   -1    0    0    0  501 -0.00000000000E+00  0.00000000000E+00  0.14217721854E+03  0.14218289058E+03  0.12700000000E+01 0.  1.
          4   -1    0    0  501    0  0.00000000000E+00 -0.00000000000E+00 -0.27455317146E+02  0.27484674632E+02  0.12700000000E+01 0.  1.
         25    2    1    2    0    0  0.00000000000E+00  0.00000000000E+00  0.11472190140E+03  0.16966756521E+03  0.12500387203E+03 0.  0.
    9000005    1    3    3    0    0  0.46753583805E+02  0.38483532068E+02  0.36394657523E+02  0.70657278006E+02  0.10000000000E+01 0.  0.
    9000005    1    3    3    0    0 -0.46753583805E+02 -0.38483532068E+02  0.78327243873E+02  0.99010287201E+02  0.10000000000E+01 0.  0.
<mgrwt>
<rscale>  0 0.12500387E+03</rscale>
<asrwt>0</asrwt>
<pdfrwt beam="2">  1        4 0.42265895E-02 0.12500387E+03</pdfrwt>
<pdfrwt beam="1">  1       -4 0.21876113E-01 0.12500387E+03</pdfrwt>
<totfact> 0.95502333E+03</totfact>
</mgrwt>
</event>
<event>
 5    1  0.3266101E-002  0.1249920E+03  0.7818608E-02  0.1235082E+00
          4   -1    0    0  501    0  0.00000000000E+00  0.00000000000E+00  0.32515758216E+03  0.32516006233E+03  0.12700000000E+01 0. -1.
         -4   -1    0    0    0  501 -0.00000000000E+00 -0.00000000000E+00 -0.11975761661E+02  0.12042913574E+02  0.12700000000E+01 0. -1.
         25    2    1    2    0    0  0.00000000000E+00  0.00000000000E+00  0.31318182049E+03  0.33720297590E+03  0.12499197682E+03 0.  0.
    9000005    1    3    3    0    0 -0.59351249555E+02  0.18003928531E+02  0.17714314843E+03  0.18768965689E+03  0.10000000000E+01 0.  0.
    9000005    1    3    3    0    0  0.59351249555E+02 -0.18003928531E+02  0.13603867206E+03  0.14951331901E+03  0.10000000000E+01 0.  0.
<mgrwt>
<rscale>  0 0.12499198E+03</rscale>
<asrwt>0</asrwt>
<pdfrwt beam="1">  1        4 0.50029595E-01 0.12499198E+03</pdfrwt>
<pdfrwt beam="2">  1       -4 0.18477814E-02 0.12499198E+03</pdfrwt>
<totfact> 0.71168361E+03</totfact>
</mgrwt>
</event>
<event>
 5    1  0.3266101E-002  0.1249988E+03  0.7818608E-02  0.1235071E+00
          4   -1    0    0  501    0  0.00000000000E+00  0.00000000000E+00  0.83749283993E+02  0.83758912776E+02  0.12700000000E+01 0. -1.
         -4   -1    0    0    0  501 -0.00000000000E+00 -0.00000000000E+00 -0.46620334669E+02  0.46637629707E+02  0.12700000000E+01 0. -1.
         25    2    1    2    0    0  0.00000000000E+00  0.00000000000E+00  0.37128949324E+02  0.13039654248E+03  0.12499879765E+03 0.  0.
    9000005    1    3    3    0    0 -0.29378382117E+02  0.28378643094E+02 -0.30771965661E+02  0.51150274587E+02  0.10000000000E+01 0.  0.
    9000005    1    3    3    0    0  0.29378382117E+02 -0.28378643094E+02  0.67900914984E+02  0.79246267896E+02  0.10000000000E+01 0.  0.
<mgrwt>
<rscale>  0 0.12499880E+03</rscale>
<asrwt>0</asrwt>
<pdfrwt beam="1">  1        4 0.12886576E-01 0.12499880E+03</pdfrwt>
<pdfrwt beam="2">  1       -4 0.71744303E-02 0.12499880E+03</pdfrwt>
<totfact> 0.10336312E+04</totfact>
</mgrwt>
</event>
<event>
 5    1  0.3266101E-002  0.1249984E+03  0.7818608E-02  0.1235072E+00
          4   -1    0    0  501    0  0.00000000000E+00  0.00000000000E+00  0.45691286832E+02  0.45708933398E+02  0.12700000000E+01 0. -1.
         -4   -1    0    0    0  501 -0.00000000000E+00 -0.00000000000E+00 -0.85451158285E+02  0.85460595319E+02  0.12700000000E+01 0. -1.
         25    2    1    2    0    0  0.00000000000E+00  0.00000000000E+00 -0.39759871453E+02  0.13116952872E+03  0.12499839153E+03 0.  0.
    9000005    1    3    3    0    0 -0.36392609360E+02  0.33643616885E+02  0.20062810658E+02  0.53477390967E+02  0.10000000000E+01 0.  0.
    9000005    1    3    3    0    0  0.36392609360E+02 -0.33643616885E+02 -0.59822682111E+02  0.77692137749E+02  0.10000000000E+01 0.  0.
<mgrwt>
<rscale>  0 0.12499839E+03</rscale>
<asrwt>0</asrwt>
<pdfrwt beam="1">  1        4 0.70315121E-02 0.12499839E+03</pdfrwt>
<pdfrwt beam="2">  1       -4 0.13148415E-01 0.12499839E+03</pdfrwt>
<totfact> 0.10319831E+04</totfact>
</mgrwt>
</event>
<event>
 5    1  0.3266101E-002  0.1249860E+03  0.7818608E-02  0.1235091E+00
         -4   -1    0    0    0  501 -0.00000000000E+00  0.00000000000E+00  0.32035161289E+01  0.34460724873E+01  0.12700000000E+01 0.  1.
          4   -1    0    0  501    0  0.00000000000E+00 -0.00000000000E+00 -0.11743778118E+04  0.11743784985E+04  0.12700000000E+01 0.  1.
         25    2    1    2    0    0  0.00000000000E+00  0.00000000000E+00 -0.11711742956E+04  0.11778245710E+04  0.12498595597E+03 0.  0.
    9000005    1    3    3    0    0 -0.43549727382E+02 -0.94054619798E+01 -0.99843907205E+03  0.99943315037E+03  0.10000000000E+01 0.  0.
    9000005    1    3    3    0    0  0.43549727382E+02  0.94054619798E+01 -0.17273522359E+03  0.17839142059E+03  0.10000000000E+01 0.  0.
<mgrwt>
<rscale>  0 0.12498596E+03</rscale>
<asrwt>0</asrwt>
<pdfrwt beam="2">  1        4 0.18069189E+00 0.12498596E+03</pdfrwt>
<pdfrwt beam="1">  1       -4 0.51156058E-03 0.12498596E+03</pdfrwt>
<totfact> 0.25308490E+03</totfact>
</mgrwt>
</event>
<event>
 5    1  0.3266101E-002  0.1249990E+03  0.7818608E-02  0.1235071E+00
         -4   -1    0    0    0  501 -0.00000000000E+00  0.00000000000E+00  0.74757155309E+01  0.75828241902E+01  0.12700000000E+01 0.  1.
          4   -1    0    0  501    0  0.00000000000E+00 -0.00000000000E+00 -0.51869240037E+03  0.51869395514E+03  0.12700000000E+01 0.  1.
         25    2    1    2    0    0  0.00000000000E+00  0.00000000000E+00 -0.51121668484E+03  0.52627677933E+03  0.12499899842E+03 0.  0.
    9000005    1    3    3    0    0  0.13009514864E+02 -0.19063125598E+02 -0.11104297975E+02  0.25631146445E+02  0.10000000000E+01 0.  0.
    9000005    1    3    3    0    0 -0.13009514864E+02  0.19063125598E+02 -0.50011238687E+03  0.50064563289E+03  0.10000000000E+01 0.  0.
<mgrwt>
<rscale>  0 0.12499900E+03</rscale>
<asrwt>0</asrwt>
<pdfrwt beam="2">  1        4 0.79807162E-01 0.12499900E+03</pdfrwt>
<pdfrwt beam="1">  1       -4 0.11584692E-02 0.12499900E+03</pdfrwt>
<totfact> 0.53882931E+03</totfact>
</mgrwt>
</event>
<event>
 5    1  0.3266101E-002  0.1249965E+03  0.7818608E-02  0.1235075E+00
          4   -1    0    0  501    0  0.00000000000E+00  0.00000000000E+00  0.18113536154E+04  0.18113540606E+04  0.12700000000E+01 0. -1.
         -4   -1    0    0    0  501 -0.00000000000E+00 -0.00000000000E+00 -0.19689418323E+01  0.23429963591E+01  0.12700000000E+01 0. -1.
         25    2    1    2    0    0  0.00000000000E+00  0.00000000000E+00  0.18093846736E+04  0.18136970570E+04  0.12499647016E+03 0.  0.
    9000005    1    3    3    0    0  0.17915305434E+01 -0.52677628933E+02  0.13917801070E+04  0.13927781620E+04  0.10000000000E+01 0.  0.
    9000005    1    3    3    0    0 -0.17915305434E+01  0.52677628933E+02  0.41760456659E+03  0.42091889505E+03  0.10000000000E+01 0.  0.
<mgrwt>
<rscale>  0 0.12499647E+03</rscale>
<asrwt>0</asrwt>
<pdfrwt beam="1">  1        4 0.27869717E+00 0.12499647E+03</pdfrwt>
<pdfrwt beam="2">  1       -4 0.33172350E-03 0.12499647E+03</pdfrwt>
<totfact> 0.12494760E+03</totfact>
</mgrwt>
</event>
<event>
 5    1  0.3266101E-002  0.1250016E+03  0.7818608E-02  0.1235067E+00
          4   -1    0    0  501    0  0.00000000000E+00  0.00000000000E+00  0.12263824652E+03  0.12264482218E+03  0.12700000000E+01 0.  1.
         -4   -1    0    0    0  501 -0.00000000000E+00 -0.00000000000E+00 -0.31832556626E+02  0.31857880679E+02  0.12700000000E+01 0.  1.
         25    2    1    2    0    0  0.00000000000E+00  0.00000000000E+00  0.90805689891E+02  0.15450270286E+03  0.12500164749E+03 0.  0.
    9000005    1    3    3    0    0  0.51194999603E+02 -0.24910516585E+02  0.77249863684E+02  0.95968761897E+02  0.10000000000E+01 0.  0.
    9000005    1    3    3    0    0 -0.51194999603E+02  0.24910516585E+02  0.13555826207E+02  0.58533940967E+02  0.10000000000E+01 0.  0.
<mgrwt>
<rscale>  0 0.12500165E+03</rscale>
<asrwt>0</asrwt>
<pdfrwt beam="1">  1        4 0.18869877E-01 0.12500165E+03</pdfrwt>
<pdfrwt beam="2">  1       -4 0.48997702E-02 0.12500165E+03</pdfrwt>
<totfact> 0.98409566E+03</totfact>
</mgrwt>
</event>
<event>
 5    1  0.3266101E-002  0.1250025E+03  0.7818608E-02  0.1235065E+00
          4   -1    0    0  501    0  0.00000000000E+00  0.00000000000E+00  0.51876453004E+01  0.53408392377E+01  0.12700000000E+01 0.  1.
         -4   -1    0    0    0  501 -0.00000000000E+00 -0.00000000000E+00 -0.74191020067E+03  0.74191128766E+03  0.12700000000E+01 0.  1.
         25    2    1    2    0    0  0.00000000000E+00  0.00000000000E+00 -0.73672255537E+03  0.74725212690E+03  0.12500247023E+03 0.  0.
    9000005    1    3    3    0    0  0.39690541192E+00 -0.59325345698E+02 -0.48577034898E+03  0.48938071695E+03  0.10000000000E+01 0.  0.
    9000005    1    3    3    0    0 -0.39690541192E+00  0.59325345698E+02 -0.25095220639E+03  0.25787140995E+03  0.10000000000E+01 0.  0.
<mgrwt>
<rscale>  0 0.12500247E+03</rscale>
<asrwt>0</asrwt>
<pdfrwt beam="1">  1        4 0.80996763E-03 0.12500247E+03</pdfrwt>
<pdfrwt beam="2">  1       -4 0.11415182E+00 0.12500247E+03</pdfrwt>
<totfact> 0.40703738E+03</totfact>
</mgrwt>
</event>
<event>
 5    1  0.3266101E-002  0.1250022E+03  0.7818608E-02  0.1235066E+00
          4   -1    0    0  501    0  0.00000000000E+00  0.00000000000E+00  0.35772513329E+01  0.37960014619E+01  0.12700000000E+01 0.  1.
         -4   -1    0    0    0  501 -0.00000000000E+00 -0.00000000000E+00 -0.10593910783E+04  0.10593918395E+04  0.12700000000E+01 0.  1.
         25    2    1    2    0    0  0.00000000000E+00  0.00000000000E+00 -0.10558138270E+04  0.10631878410E+04  0.12500219213E+03 0.  0.
    9000005    1    3    3    0    0  0.14185243597E+02  0.60841314164E+02 -0.51445778924E+03  0.51823807613E+03  0.10000000000E+01 0.  0.
    9000005    1    3    3    0    0 -0.14185243597E+02 -0.60841314164E+02 -0.54135603772E+03  0.54494976486E+03  0.10000000000E+01 0.  0.
<mgrwt>
<rscale>  0 0.12500219E+03</rscale>
<asrwt>0</asrwt>
<pdfrwt beam="1">  1        4 0.56723270E-03 0.12500219E+03</pdfrwt>
<pdfrwt beam="2">  1       -4 0.16299988E+00 0.12500219E+03</pdfrwt>
<totfact> 0.28585223E+03</totfact>
</mgrwt>
</event>
<event>
 5    1  0.3266101E-002  0.1249971E+03  0.7818608E-02  0.1235074E+00
          4   -1    0    0  501    0  0.00000000000E+00  0.00000000000E+00  0.12465846635E+03  0.12466493546E+03  0.12700000000E+01 0.  1.
         -4   -1    0    0    0  501 -0.00000000000E+00 -0.00000000000E+00 -0.31314014622E+02  0.31339757685E+02  0.12700000000E+01 0.  1.
         25    2    1    2    0    0  0.00000000000E+00  0.00000000000E+00  0.93344451726E+02  0.15600469314E+03  0.12499711042E+03 0.  0.
    9000005    1    3    3    0    0  0.18624098614E+01 -0.55461268266E+02  0.82534291637E+02  0.99460193768E+02  0.10000000000E+01 0.  0.
    9000005    1    3    3    0    0 -0.18624098614E+01  0.55461268266E+02  0.10810160089E+02  0.56544499373E+02  0.10000000000E+01 0.  0.
<mgrwt>
<rscale>  0 0.12499711E+03</rscale>
<asrwt>0</asrwt>
<pdfrwt beam="1">  1        4 0.19180703E-01 0.12499711E+03</pdfrwt>
<pdfrwt beam="2">  1       -4 0.48200186E-02 0.12499711E+03</pdfrwt>
<totfact> 0.98125001E+03</totfact>
</mgrwt>
</event>
<event>
 5    1  0.3266101E-002  0.1250016E+03  0.7818608E-02  0.1235067E+00
          4   -1    0    0  501    0  0.00000000000E+00  0.00000000000E+00  0.86125364046E+01  0.87056696078E+01  0.12700000000E+01 0. -1.
         -4   -1    0    0    0  501 -0.00000000000E+00 -0.00000000000E+00 -0.45103212125E+03  0.45103390926E+03  0.12700000000E+01 0. -1.
         25    2    1    2    0    0  0.00000000000E+00  0.00000000000E+00 -0.44241958485E+03  0.45973957887E+03  0.12500156527E+03 0.  0.
    9000005    1    3    3    0    0  0.35113914927E+02 -0.27845850918E+02 -0.61023037133E+02  0.75717828124E+02  0.10000000000E+01 0.  0.
    9000005    1    3    3    0    0 -0.35113914927E+02  0.27845850918E+02 -0.38139654771E+03  0.38402175074E+03  0.10000000000E+01 0.  0.
<mgrwt>
<rscale>  0 0.12500157E+03</rscale>
<asrwt>0</asrwt>
<pdfrwt beam="1">  1        4 0.13323076E-02 0.12500157E+03</pdfrwt>
<pdfrwt beam="2">  1       -4 0.69396841E-01 0.12500157E+03</pdfrwt>
<totfact> 0.59127216E+03</totfact>
</mgrwt>
</event>
<event>
 5    1  0.3266101E-002  0.1249981E+03  0.7818608E-02  0.1235072E+00
          4   -1    0    0  501    0  0.00000000000E+00  0.00000000000E+00  0.51948717983E+02  0.51964239628E+02  0.12700000000E+01 0. -1.
         -4   -1    0    0    0  501 -0.00000000000E+00 -0.00000000000E+00 -0.75159923022E+02  0.75170652044E+02  0.12700000000E+01 0. -1.
         25    2    1    2    0    0  0.00000000000E+00  0.00000000000E+00 -0.23211205039E+02  0.12713489167E+03  0.12499808255E+03 0.  0.
    9000005    1    3    3    0    0  0.23889054350E+02  0.49119785940E+02  0.19272728163E+02  0.57929943374E+02  0.10000000000E+01 0.  0.
    9000005    1    3    3    0    0 -0.23889054350E+02 -0.49119785940E+02 -0.42483933202E+02  0.69204948297E+02  0.10000000000E+01 0.  0.
<mgrwt>
<rscale>  0 0.12499808E+03</rscale>
<asrwt>0</asrwt>
<pdfrwt beam="1">  1        4 0.79941298E-02 0.12499808E+03</pdfrwt>
<pdfrwt beam="2">  1       -4 0.11565084E-01 0.12499808E+03</pdfrwt>
<totfact> 0.10406667E+04</totfact>
</mgrwt>
</event>
<event>
 5    1  0.3266101E-002  0.1249970E+03  0.7818608E-02  0.1235074E+00
          4   -1    0    0  501    0  0.00000000000E+00  0.00000000000E+00  0.49486123657E+02  0.49502417462E+02  0.12700000000E+01 0. -1.
         -4   -1    0    0    0  501 -0.00000000000E+00 -0.00000000000E+00 -0.78898126383E+02  0.78908347130E+02  0.12700000000E+01 0. -1.
         25    2    1    2    0    0  0.00000000000E+00  0.00000000000E+00 -0.29412002726E+02  0.12841076459E+03  0.12499703420E+03 0.  0.
    9000005    1    3    3    0    0  0.43438381165E+02  0.36743297529E+02  0.11847575707E+02  0.58123385325E+02  0.10000000000E+01 0.  0.
    9000005    1    3    3    0    0 -0.43438381165E+02 -0.36743297529E+02 -0.41259578434E+02  0.70287379266E+02  0.10000000000E+01 0.  0.
<mgrwt>
<rscale>  0 0.12499703E+03</rscale>
<asrwt>0</asrwt>
<pdfrwt beam="1">  1        4 0.76152894E-02 0.12499703E+03</pdfrwt>
<pdfrwt beam="2">  1       -4 0.12140213E-01 0.12499703E+03</pdfrwt>
<totfact> 0.10379321E+04</totfact>
</mgrwt>
</event>
<event>
 5    1  0.3266101E-002  0.1249989E+03  0.7818608E-02  0.1235071E+00
         -4   -1    0    0    0  501 -0.00000000000E+00  0.00000000000E+00  0.11353639066E+04  0.11353646169E+04  0.12700000000E+01 0.  1.
          4   -1    0    0  501    0  0.00000000000E+00 -0.00000000000E+00 -0.33225297548E+01  0.35569796136E+01  0.12700000000E+01 0.  1.
         25    2    1    2    0    0  0.00000000000E+00  0.00000000000E+00  0.11320413768E+04  0.11389215965E+04  0.12499889646E+03 0.  0.
    9000005    1    3    3    0    0 -0.79332071155E+01  0.84112784742E+01  0.11255778452E+04  0.11256376731E+04  0.10000000000E+01 0.  0.
    9000005    1    3    3    0    0  0.79332071155E+01 -0.84112784742E+01  0.64635316005E+01  0.13283923421E+02  0.10000000000E+01 0.  0.
<mgrwt>
<rscale>  0 0.12499890E+03</rscale>
<asrwt>0</asrwt>
<pdfrwt beam="2">  1        4 0.52924694E-03 0.12499890E+03</pdfrwt>
<pdfrwt beam="1">  1       -4 0.17468970E+00 0.12499890E+03</pdfrwt>
<totfact> 0.26370218E+03</totfact>
</mgrwt>
</event>
<event>
 5    1  0.3266101E-002  0.1250006E+03  0.7818608E-02  0.1235068E+00
         -4   -1    0    0    0  501 -0.00000000000E+00  0.00000000000E+00  0.11060102767E+04  0.11060110059E+04  0.12700000000E+01 0.  1.
          4   -1    0    0  501    0  0.00000000000E+00 -0.00000000000E+00 -0.34169507609E+01  0.36453329755E+01  0.12700000000E+01 0.  1.
         25    2    1    2    0    0  0.00000000000E+00  0.00000000000E+00  0.11025933260E+04  0.11096563389E+04  0.12500059158E+03 0.  0.
    9000005    1    3    3    0    0  0.83679163146E+01  0.12027837056E+02  0.12003780653E+02  0.18967910735E+02  0.10000000000E+01 0.  0.
    9000005    1    3    3    0    0 -0.83679163146E+01 -0.12027837056E+02  0.10905895453E+04  0.10906884281E+04  0.10000000000E+01 0.  0.
<mgrwt>
<rscale>  0 0.12500059E+03</rscale>
<asrwt>0</asrwt>
<pdfrwt beam="2">  1        4 0.54330864E-03 0.12500059E+03</pdfrwt>
<pdfrwt beam="1">  1       -4 0.17017306E+00 0.12500059E+03</pdfrwt>
<totfact> 0.27202133E+03</totfact>
</mgrwt>
</event>
<event>
 5    1  0.3266101E-002  0.1249985E+03  0.7818608E-02  0.1235072E+00
         -4   -1    0    0    0  501 -0.00000000000E+00  0.00000000000E+00  0.20265828658E+02  0.20305583252E+02  0.12700000000E+01 0.  1.
          4   -1    0    0  501    0  0.00000000000E+00 -0.00000000000E+00 -0.19251526780E+03  0.19251945677E+03  0.12700000000E+01 0.  1.
         25    2    1    2    0    0  0.00000000000E+00  0.00000000000E+00 -0.17224943914E+03  0.21282504002E+03  0.12499851350E+03 0.  0.
    9000005    1    3    3    0    0  0.45424564705E+02 -0.21857210990E+02 -0.14900718674E+03  0.15730629501E+03  0.10000000000E+01 0.  0.
    9000005    1    3    3    0    0 -0.45424564705E+02  0.21857210990E+02 -0.23242252405E+02  0.55518745012E+02  0.10000000000E+01 0.  0.
<mgrwt>
<rscale>  0 0.12499851E+03</rscale>
<asrwt>0</asrwt>
<pdfrwt beam="2">  1        4 0.29621113E-01 0.12499851E+03</pdfrwt>
<pdfrwt beam="1">  1       -4 0.31212002E-02 0.12499851E+03</pdfrwt>
<totfact> 0.88019508E+03</totfact>
</mgrwt>
</event>
<event>
 5    1  0.3266101E-002  0.1250026E+03  0.7818608E-02  0.1235065E+00
         -4   -1    0    0    0  501 -0.00000000000E+00  0.00000000000E+00  0.31981343131E+01  0.34410700493E+01  0.12700000000E+01 0.  1.
          4   -1    0    0  501    0  0.00000000000E+00 -0.00000000000E+00 -0.11765274793E+04  0.11765281647E+04  0.12700000000E+01 0.  1.
         25    2    1    2    0    0  0.00000000000E+00  0.00000000000E+00 -0.11733293450E+04  0.11799692348E+04  0.12500257303E+03 0.  0.
    9000005    1    3    3    0    0  0.24878647337E+02  0.53577525959E+02 -0.39415494291E+03  0.39855817317E+03  0.10000000000E+01 0.  0.
    9000005    1    3    3    0    0 -0.24878647337E+02 -0.53577525959E+02 -0.77917440205E+03  0.78141106160E+03  0.10000000000E+01 0.  0.
<mgrwt>
<rscale>  0 0.12500257E+03</rscale>
<asrwt>0</asrwt>
<pdfrwt beam="2">  1        4 0.18102264E+00 0.12500257E+03</pdfrwt>
<pdfrwt beam="1">  1       -4 0.51076169E-03 0.12500257E+03</pdfrwt>
<totfact> 0.25241796E+03</totfact>
</mgrwt>
</event>
<event>
 5    1  0.3266101E-002  0.1249974E+03  0.7818608E-02  0.1235073E+00
         -4   -1    0    0    0  501 -0.00000000000E+00  0.00000000000E+00  0.16617558402E+02  0.16666017738E+02  0.12700000000E+01 0. -1.
          4   -1    0    0  501    0  0.00000000000E+00 -0.00000000000E+00 -0.23466538973E+03  0.23466882630E+03  0.12700000000E+01 0. -1.
         25    2    1    2    0    0  0.00000000000E+00  0.00000000000E+00 -0.21804783133E+03  0.25133484404E+03  0.12499738830E+03 0.  0.
    9000005    1    3    3    0    0  0.27775587490E+02  0.59506153514E+01  0.28956574470E+01  0.28570577794E+02  0.10000000000E+01 0.  0.
    9000005    1    3    3    0    0 -0.27775587490E+02 -0.59506153514E+01 -0.22094348877E+03  0.22276426624E+03  0.10000000000E+01 0.  0.
<mgrwt>
<rscale>  0 0.12499739E+03</rscale>
<asrwt>0</asrwt>
<pdfrwt beam="2">  1        4 0.36106357E-01 0.12499739E+03</pdfrwt>
<pdfrwt beam="1">  1       -4 0.25605396E-02 0.12499739E+03</pdfrwt>
<totfact> 0.82142463E+03</totfact>
</mgrwt>
</event>
<event>
 5    1  0.3266101E-002  0.1250207E+03  0.7818608E-02  0.1235037E+00
         -4   -1    0    0    0  501 -0.00000000000E+00  0.00000000000E+00  0.99866112639E+02  0.99874187625E+02  0.12700000000E+01 0.  1.
          4   -1    0    0  501    0  0.00000000000E+00 -0.00000000000E+00 -0.39107857512E+02  0.39128473254E+02  0.12700000000E+01 0.  1.
         25    2    1    2    0    0  0.00000000000E+00  0.00000000000E+00  0.60758255127E+02  0.13900266088E+03  0.12502069495E+03 0.  0.
    9000005    1    3    3    0    0  0.21760566652E+02  0.51349667164E+02  0.61752505519E+02  0.83214677292E+02  0.10000000000E+01 0.  0.
    9000005    1    3    3    0    0 -0.21760566652E+02 -0.51349667164E+02 -0.99425039235E+00  0.55787983587E+02  0.10000000000E+01 0.  0.
<mgrwt>
<rscale>  0 0.12502069E+03</rscale>
<asrwt>0</asrwt>
<pdfrwt beam="2">  1        4 0.60188006E-02 0.12502069E+03</pdfrwt>
<pdfrwt beam="1">  1       -4 0.15366224E-01 0.12502069E+03</pdfrwt>
<totfact> 0.10149565E+04</totfact>
</mgrwt>
</event>
<event>
 5    1  0.3266101E-002  0.1249941E+03  0.7818608E-02  0.1235079E+00
         -4   -1    0    0    0  501 -0.00000000000E+00  0.00000000000E+00  0.13268596951E+03  0.13269204726E+03  0.12700000000E+01 0.  1.
          4   -1    0    0  501    0  0.00000000000E+00 -0.00000000000E+00 -0.29416578676E+02  0.29443980726E+02  0.12700000000E+01 0.  1.
         25    2    1    2    0    0  0.00000000000E+00  0.00000000000E+00  0.10326939084E+03  0.16213602798E+03  0.12499409781E+03 0.  0.
    9000005    1    3    3    0    0  0.19920682365E+02  0.53799589904E+02  0.83767673710E+02  0.10153448980E+03  0.10000000000E+01 0.  0.
    9000005    1    3    3    0    0 -0.19920682365E+02 -0.53799589904E+02  0.19501717127E+02  0.60601538187E+02  0.10000000000E+01 0.  0.
<mgrwt>
<rscale>  0 0.12499410E+03</rscale>
<asrwt>0</asrwt>
<pdfrwt beam="2">  1        4 0.45282028E-02 0.12499410E+03</pdfrwt>
<pdfrwt beam="1">  1       -4 0.20415802E-01 0.12499410E+03</pdfrwt>
<totfact> 0.96945407E+03</totfact>
</mgrwt>
</event>
<event>
 4    1  0.3266101E-002  0.1242242E+03  0.7818608E-02  0.1236287E+00
         -4   -1    0    0    0  501 -0.00000000000E+00  0.00000000000E+00  0.46129997959E+02  0.46147476764E+02  0.12700000000E+01 0. -1.
          4   -1    0    0  501    0  0.00000000000E+00 -0.00000000000E+00 -0.83593160436E+02  0.83602807200E+02  0.12700000000E+01 0. -1.
    9000005    1    1    2    0    0  0.94589176602E+00 -0.48667554381E+02 -0.59015217183E+02  0.76506348885E+02  0.10000000000E+01 0.  0.
    9000005    1    1    2    0    0 -0.94589176602E+00  0.48667554381E+02  0.21552054705E+02  0.53243935079E+02  0.10000000000E+01 0.  0.
<mgrwt>
<rscale>  0 0.12422418E+03</rscale>
<asrwt>0</asrwt>
<pdfrwt beam="2">  1        4 0.12862573E-01 0.12422418E+03</pdfrwt>
<pdfrwt beam="1">  1       -4 0.70990093E-02 0.12422418E+03</pdfrwt>
<totfact> 0.10533210E+04</totfact>
</mgrwt>
</event>
<event>
 5    1  0.3266101E-002  0.1249966E+03  0.7818608E-02  0.1235075E+00
         -4   -1    0    0    0  501 -0.00000000000E+00  0.00000000000E+00  0.17847877897E+02  0.17893005489E+02  0.12700000000E+01 0. -1.
          4   -1    0    0  501    0  0.00000000000E+00 -0.00000000000E+00 -0.21852820692E+03  0.21853189725E+03  0.12700000000E+01 0. -1.
         25    2    1    2    0    0  0.00000000000E+00  0.00000000000E+00 -0.20068032902E+03  0.23642490274E+03  0.12499656068E+03 0.  0.
    9000005    1    3    3    0    0  0.25642505386E+02  0.23655465678E+02 -0.22776569697E+01  0.34975803925E+02  0.10000000000E+01 0.  0.
    9000005    1    3    3    0    0 -0.25642505386E+02 -0.23655465678E+02 -0.19840267205E+03  0.20144909882E+03  0.10000000000E+01 0.  0.
<mgrwt>
<rscale>  0 0.12499656E+03</rscale>
<asrwt>0</asrwt>
<pdfrwt beam="2">  1        4 0.33623478E-01 0.12499656E+03</pdfrwt>
<pdfrwt beam="1">  1       -4 0.27495827E-02 0.12499656E+03</pdfrwt>
<totfact> 0.84339181E+03</totfact>
</mgrwt>
</event>
<event>
 5    1  0.3266101E-002  0.1249962E+03  0.7818608E-02  0.1235075E+00
         -4   -1    0    0    0  501 -0.00000000000E+00  0.00000000000E+00  0.28753718918E+03  0.28753999385E+03  0.12700000000E+01 0.  1.
          4   -1    0    0  501    0  0.00000000000E+00 -0.00000000000E+00 -0.13551808119E+02  0.13611186696E+02  0.12700000000E+01 0.  1.
         25    2    1    2    0    0  0.00000000000E+00  0.00000000000E+00  0.27398538106E+03  0.30115118055E+03  0.12499617797E+03 0.  0.
    9000005    1    3    3    0    0 -0.55243229194E+00  0.26604945822E+01  0.28740660495E+03  0.28742118916E+03  0.10000000000E+01 0.  0.
    9000005    1    3    3    0    0  0.55243229194E+00 -0.26604945822E+01 -0.13421223883E+02  0.13729991383E+02  0.10000000000E+01 0.  0.
<mgrwt>
<rscale>  0 0.12499618E+03</rscale>
<asrwt>0</asrwt>
<pdfrwt beam="2">  1        4 0.20896768E-02 0.12499618E+03</pdfrwt>
<pdfrwt beam="1">  1       -4 0.44241276E-01 0.12499618E+03</pdfrwt>
<totfact> 0.75461062E+03</totfact>
</mgrwt>
</event>
<event>
 5    1  0.3266101E-002  0.1250047E+03  0.7818608E-02  0.1235062E+00
          4   -1    0    0  501    0  0.00000000000E+00  0.00000000000E+00  0.13913901349E+03  0.13914480937E+03  0.12700000000E+01 0. -1.
         -4   -1    0    0    0  501 -0.00000000000E+00 -0.00000000000E+00 -0.28055794932E+02  0.28084524729E+02  0.12700000000E+01 0. -1.
         25    2    1    2    0    0  0.00000000000E+00  0.00000000000E+00  0.11108321856E+03  0.16722933410E+03  0.12500467487E+03 0.  0.
    9000005    1    3    3    0    0 -0.15754490727E+02 -0.59725815982E+02  0.68244585015E+02  0.92052704776E+02  0.10000000000E+01 0.  0.
    9000005    1    3    3    0    0  0.15754490727E+02  0.59725815982E+02  0.42838633545E+02  0.75176629326E+02  0.10000000000E+01 0.  0.
<mgrwt>
<rscale>  0 0.12500467E+03</rscale>
<asrwt>0</asrwt>
<pdfrwt beam="1">  1        4 0.21408658E-01 0.12500467E+03</pdfrwt>
<pdfrwt beam="2">  1       -4 0.43189320E-02 0.12500467E+03</pdfrwt>
<totfact> 0.95956775E+03</totfact>
</mgrwt>
</event>
<event>
 5    1  0.3266101E-002  0.1250019E+03  0.7818608E-02  0.1235066E+00
         -4   -1    0    0    0  501 -0.00000000000E+00  0.00000000000E+00  0.27543929760E+02  0.27573192899E+02  0.12700000000E+01 0.  1.
          4   -1    0    0  501    0  0.00000000000E+00 -0.00000000000E+00 -0.14171580351E+03  0.14172149401E+03  0.12700000000E+01 0.  1.
         25    2    1    2    0    0  0.00000000000E+00  0.00000000000E+00 -0.11417187375E+03  0.16929468691E+03  0.12500189703E+03 0.  0.
    9000005    1    3    3    0    0 -0.57514825345E+02  0.14708936870E+02 -0.30648231896E+02  0.66817827536E+02  0.10000000000E+01 0.  0.
    9000005    1    3    3    0    0  0.57514825345E+02 -0.14708936870E+02 -0.83523641854E+02  0.10247685937E+03  0.10000000000E+01 0.  0.
<mgrwt>
<rscale>  0 0.12500190E+03</rscale>
<asrwt>0</asrwt>
<pdfrwt beam="2">  1        4 0.21805120E-01 0.12500190E+03</pdfrwt>
<pdfrwt beam="1">  1       -4 0.42402165E-02 0.12500190E+03</pdfrwt>
<totfact> 0.95576101E+03</totfact>
</mgrwt>
</event>
<event>
 5    1  0.3266101E-002  0.1250009E+03  0.7818608E-02  0.1235068E+00
          4   -1    0    0  501    0  0.00000000000E+00  0.00000000000E+00  0.33111727612E+03  0.33111971165E+03  0.12700000000E+01 0.  1.
         -4   -1    0    0    0  501 -0.00000000000E+00 -0.00000000000E+00 -0.11760693144E+02  0.11829066034E+02  0.12700000000E+01 0.  1.
         25    2    1    2    0    0  0.00000000000E+00  0.00000000000E+00  0.31935658298E+03  0.34294877769E+03  0.12500094810E+03 0.  0.
    9000005    1    3    3    0    0  0.39311905690E+02 -0.25976873221E+02  0.47055339053E+02  0.66599015044E+02  0.10000000000E+01 0.  0.
    9000005    1    3    3    0    0 -0.39311905690E+02  0.25976873221E+02  0.27230124392E+03  0.27634976265E+03  0.10000000000E+01 0.  0.
<mgrwt>
<rscale>  0 0.12500095E+03</rscale>
<asrwt>0</asrwt>
<pdfrwt beam="1">  1        4 0.50946570E-01 0.12500095E+03</pdfrwt>
<pdfrwt beam="2">  1       -4 0.18147841E-02 0.12500095E+03</pdfrwt>
<totfact> 0.70505822E+03</totfact>
</mgrwt>
</event>
<event>
 5    1  0.3266101E-002  0.1250003E+03  0.7818608E-02  0.1235069E+00
          4   -1    0    0  501    0  0.00000000000E+00  0.00000000000E+00  0.12137219863E+02  0.12203483355E+02  0.12700000000E+01 0. -1.
         -4   -1    0    0    0  501 -0.00000000000E+00 -0.00000000000E+00 -0.32089845113E+03  0.32090096422E+03  0.12700000000E+01 0. -1.
         25    2    1    2    0    0  0.00000000000E+00  0.00000000000E+00 -0.30876123126E+03  0.33310444757E+03  0.12500030024E+03 0.  0.
    9000005    1    3    3    0    0 -0.48384651286E+00  0.32211253801E+02 -0.29707891603E+03  0.29882215669E+03  0.10000000000E+01 0.  0.
    9000005    1    3    3    0    0  0.48384651286E+00 -0.32211253801E+02 -0.11682315231E+02  0.34282290881E+02  0.10000000000E+01 0.  0.
<mgrwt>
<rscale>  0 0.12500030E+03</rscale>
<asrwt>0</asrwt>
<pdfrwt beam="1">  1        4 0.18725553E-02 0.12500030E+03</pdfrwt>
<pdfrwt beam="2">  1       -4 0.49374276E-01 0.12500030E+03</pdfrwt>
<totfact> 0.71623689E+03</totfact>
</mgrwt>
</event>
<event>
 5    1  0.3266101E-002  0.1249990E+03  0.7818608E-02  0.1235071E+00
         -4   -1    0    0    0  501 -0.00000000000E+00  0.00000000000E+00  0.21059050169E+02  0.21097310113E+02  0.12700000000E+01 0.  1.
          4   -1    0    0  501    0  0.00000000000E+00 -0.00000000000E+00 -0.18527847066E+03  0.18528282324E+03  0.12700000000E+01 0.  1.
         25    2    1    2    0    0  0.00000000000E+00  0.00000000000E+00 -0.16421942049E+03  0.20638013336E+03  0.12499896551E+03 0.  0.
    9000005    1    3    3    0    0  0.48572265391E+02 -0.24417555560E+02 -0.13299068904E+03  0.14367673909E+03  0.10000000000E+01 0.  0.
    9000005    1    3    3    0    0 -0.48572265391E+02  0.24417555560E+02 -0.31228731451E+02  0.62703394268E+02  0.10000000000E+01 0.  0.
<mgrwt>
<rscale>  0 0.12499897E+03</rscale>
<asrwt>0</asrwt>
<pdfrwt beam="2">  1        4 0.28507657E-01 0.12499897E+03</pdfrwt>
<pdfrwt beam="1">  1       -4 0.32431319E-02 0.12499897E+03</pdfrwt>
<totfact> 0.89072547E+03</totfact>
</mgrwt>
</event>
<event>
 5    1  0.3266101E-002  0.1250070E+03  0.7818608E-02  0.1235058E+00
          4   -1    0    0  501    0  0.00000000000E+00  0.00000000000E+00  0.40381237480E+02  0.40401203453E+02  0.12700000000E+01 0. -1.
         -4   -1    0    0    0  501 -0.00000000000E+00 -0.00000000000E+00 -0.96697091689E+02  0.96705431291E+02  0.12700000000E+01 0. -1.
         25    2    1    2    0    0  0.00000000000E+00  0.00000000000E+00 -0.56315854209E+02  0.13710663474E+03  0.12500701522E+03 0.  0.
    9000005    1    3    3    0    0 -0.29916133504E+02 -0.53284876741E+02 -0.42518582153E+02  0.74451883532E+02  0.10000000000E+01 0.  0.
    9000005    1    3    3    0    0  0.29916133504E+02  0.53284876741E+02 -0.13797272056E+02  0.62654751211E+02  0.10000000000E+01 0.  0.
<mgrwt>
<rscale>  0 0.12500702E+03</rscale>
<asrwt>0</asrwt>
<pdfrwt beam="1">  1        4 0.62146754E-02 0.12500702E+03</pdfrwt>
<pdfrwt beam="2">  1       -4 0.14878653E-01 0.12500702E+03</pdfrwt>
<totfact> 0.10192244E+04</totfact>
</mgrwt>
</event>
<event>
 5    1  0.3266101E-002  0.1249988E+03  0.7818608E-02  0.1235071E+00
         -4   -1    0    0    0  501 -0.00000000000E+00  0.00000000000E+00  0.11716543204E+02  0.11785172237E+02  0.12700000000E+01 0.  1.
          4   -1    0    0  501    0  0.00000000000E+00 -0.00000000000E+00 -0.33234622600E+03  0.33234865252E+03  0.12700000000E+01 0.  1.
         25    2    1    2    0    0  0.00000000000E+00  0.00000000000E+00 -0.32062968279E+03  0.34413382476E+03  0.12499878342E+03 0.  0.
    9000005    1    3    3    0    0  0.66044153941E+01  0.62039458652E+02 -0.15051859841E+03  0.16293974715E+03  0.10000000000E+01 0.  0.
    9000005    1    3    3    0    0 -0.66044153941E+01 -0.62039458652E+02 -0.17011108438E+03  0.18119407761E+03  0.10000000000E+01 0.  0.
<mgrwt>
<rscale>  0 0.12499878E+03</rscale>
<asrwt>0</asrwt>
<pdfrwt beam="2">  1        4 0.51135647E-01 0.12499878E+03</pdfrwt>
<pdfrwt beam="1">  1       -4 0.18080112E-02 0.12499878E+03</pdfrwt>
<totfact> 0.70376663E+03</totfact>
</mgrwt>
</event>
<event>
 5    1  0.3266101E-002  0.1250053E+03  0.7818608E-02  0.1235061E+00
         -4   -1    0    0    0  501 -0.00000000000E+00  0.00000000000E+00  0.89012258368E+03  0.89012348968E+03  0.12700000000E+01 0. -1.
          4   -1    0    0  501    0  0.00000000000E+00 -0.00000000000E+00 -0.42960089487E+01  0.44797983088E+01  0.12700000000E+01 0. -1.
         25    2    1    2    0    0  0.00000000000E+00  0.00000000000E+00  0.88582657474E+03  0.89460328799E+03  0.12500528940E+03 0.  0.
    9000005    1    3    3    0    0 -0.49825031595E+02 -0.20452022393E+02  0.66976058749E+03  0.67192340602E+03  0.10000000000E+01 0.  0.
    9000005    1    3    3    0    0  0.49825031595E+02  0.20452022393E+02  0.21606598724E+03  0.22267988198E+03  0.10000000000E+01 0.  0.
<mgrwt>
<rscale>  0 0.12500529E+03</rscale>
<asrwt>0</asrwt>
<pdfrwt beam="2">  1        4 0.67513182E-03 0.12500529E+03</pdfrwt>
<pdfrwt beam="1">  1       -4 0.13695614E+00 0.12500529E+03</pdfrwt>
<totfact> 0.34363440E+03</totfact>
</mgrwt>
</event>
<event>
 5    1  0.3266101E-002  0.1250024E+03  0.7818608E-02  0.1235065E+00
          4   -1    0    0  501    0  0.00000000000E+00  0.00000000000E+00  0.15546345115E+03  0.15546863845E+03  0.12700000000E+01 0.  1.
         -4   -1    0    0    0  501 -0.00000000000E+00 -0.00000000000E+00 -0.25105801924E+02  0.25137903458E+02  0.12700000000E+01 0.  1.
         25    2    1    2    0    0  0.00000000000E+00  0.00000000000E+00  0.13035764922E+03  0.18060654191E+03  0.12500242506E+03 0.  0.
    9000005    1    3    3    0    0 -0.49270248749E+02 -0.56735654659E+01  0.12011359855E+03  0.12995392765E+03  0.10000000000E+01 0.  0.
    9000005    1    3    3    0    0  0.49270248749E+02  0.56735654659E+01  0.10244050677E+02  0.50652614258E+02  0.10000000000E+01 0.  0.
<mgrwt>
<rscale>  0 0.12500243E+03</rscale>
<asrwt>0</asrwt>
<pdfrwt beam="1">  1        4 0.23920322E-01 0.12500243E+03</pdfrwt>
<pdfrwt beam="2">  1       -4 0.38652994E-02 0.12500243E+03</pdfrwt>
<totfact> 0.93502853E+03</totfact>
</mgrwt>
</event>
<event>
 5    1  0.3266101E-002  0.1250002E+03  0.7818608E-02  0.1235069E+00
          4   -1    0    0  501    0  0.00000000000E+00  0.00000000000E+00  0.69467847079E+03  0.69467963169E+03  0.12700000000E+01 0. -1.
         -4   -1    0    0    0  501 -0.00000000000E+00 -0.00000000000E+00 -0.55502375991E+01  0.56936839925E+01  0.12700000000E+01 0. -1.
         25    2    1    2    0    0  0.00000000000E+00  0.00000000000E+00  0.68912823319E+03  0.70037331568E+03  0.12500023813E+03 0.  0.
    9000005    1    3    3    0    0 -0.32558599714E+02 -0.47055849407E+02  0.48530363239E+03  0.48866648237E+03  0.10000000000E+01 0.  0.
    9000005    1    3    3    0    0  0.32558599714E+02  0.47055849407E+02  0.20382460080E+03  0.21170683331E+03  0.10000000000E+01 0.  0.
<mgrwt>
<rscale>  0 0.12500024E+03</rscale>
<asrwt>0</asrwt>
<pdfrwt beam="1">  1        4 0.10688468E+00 0.12500024E+03</pdfrwt>
<pdfrwt beam="2">  1       -4 0.86500682E-03 0.12500024E+03</pdfrwt>
<totfact> 0.43066785E+03</totfact>
</mgrwt>
</event>
<event>
 5    1  0.3266101E-002  0.1250021E+03  0.7818608E-02  0.1235066E+00
          4   -1    0    0  501    0  0.00000000000E+00  0.00000000000E+00  0.83886565758E+02  0.83896178785E+02  0.12700000000E+01 0.  1.
         -4   -1    0    0    0  501 -0.00000000000E+00 -0.00000000000E+00 -0.46546475753E+02  0.46563798224E+02  0.12700000000E+01 0.  1.
         25    2    1    2    0    0  0.00000000000E+00  0.00000000000E+00  0.37340090005E+02  0.13045997701E+03  0.12500209310E+03 0.  0.
    9000005    1    3    3    0    0  0.43963281630E+02 -0.40083732917E+02 -0.12938009687E+01  0.59515961701E+02  0.10000000000E+01 0.  0.
    9000005    1    3    3    0    0 -0.43963281630E+02  0.40083732917E+02  0.38633890973E+02  0.70944015308E+02  0.10000000000E+01 0.  0.
<mgrwt>
<rscale>  0 0.12500209E+03</rscale>
<asrwt>0</asrwt>
<pdfrwt beam="1">  1        4 0.12907697E-01 0.12500209E+03</pdfrwt>
<pdfrwt beam="2">  1       -4 0.71630683E-02 0.12500209E+03</pdfrwt>
<totfact> 0.10334189E+04</totfact>
</mgrwt>
</event>
<event>
 5    1  0.3266101E-002  0.1250000E+03  0.7818608E-02  0.1235069E+00
         -4   -1    0    0    0  501 -0.00000000000E+00  0.00000000000E+00  0.16246614123E+03  0.16247110496E+03  0.12700000000E+01 0.  1.
          4   -1    0    0  501    0  0.00000000000E+00 -0.00000000000E+00 -0.24021359443E+02  0.24054908221E+02  0.12700000000E+01 0.  1.
         25    2    1    2    0    0  0.00000000000E+00  0.00000000000E+00  0.13844478179E+03  0.18652601318E+03  0.12499998395E+03 0.  0.
    9000005    1    3    3    0    0 -0.46522496635E+02  0.37501373802E+02  0.96516070424E+02  0.11352113275E+03  0.10000000000E+01 0.  0.
    9000005    1    3    3    0    0  0.46522496635E+02 -0.37501373802E+02  0.41928711362E+02  0.73004880431E+02  0.10000000000E+01 0.  0.
<mgrwt>
<rscale>  0 0.12499998E+03</rscale>
<asrwt>0</asrwt>
<pdfrwt beam="2">  1        4 0.36985563E-02 0.12499998E+03</pdfrwt>
<pdfrwt beam="1">  1       -4 0.24997753E-01 0.12499998E+03</pdfrwt>
<totfact> 0.92455348E+03</totfact>
</mgrwt>
</event>
<event>
 5    1  0.3266101E-002  0.1250013E+03  0.7818608E-02  0.1235067E+00
          4   -1    0    0  501    0  0.00000000000E+00  0.00000000000E+00  0.28987030985E+04  0.28987033767E+04  0.12700000000E+01 0. -1.
         -4   -1    0    0    0  501 -0.00000000000E+00 -0.00000000000E+00 -0.10480580753E+01  0.16466103756E+01  0.12700000000E+01 0. -1.
         25    2    1    2    0    0  0.00000000000E+00  0.00000000000E+00  0.28976550404E+04  0.29003499871E+04  0.12500125716E+03 0.  0.
    9000005    1    3    3    0    0  0.58388970515E+02  0.21745409425E+02  0.15605711006E+04  0.15618147441E+04  0.10000000000E+01 0.  0.
    9000005    1    3    3    0    0 -0.58388970515E+02 -0.21745409425E+02  0.13370839398E+04  0.13385352430E+04  0.10000000000E+01 0.  0.
<mgrwt>
<rscale>  0 0.12500126E+03</rscale>
<asrwt>0</asrwt>
<pdfrwt beam="1">  1        4 0.44600482E+00 0.12500126E+03</pdfrwt>
<pdfrwt beam="2">  1       -4 0.20730153E-03 0.12500126E+03</pdfrwt>
<totfact> 0.22301584E+02</totfact>
</mgrwt>
</event>
<event>
 5    1  0.3266101E-002  0.1250013E+03  0.7818608E-02  0.1235067E+00
          4   -1    0    0  501    0  0.00000000000E+00  0.00000000000E+00  0.89565481160E+02  0.89574484735E+02  0.12700000000E+01 0.  1.
         -4   -1    0    0    0  501 -0.00000000000E+00 -0.00000000000E+00 -0.43593784324E+02  0.43612279597E+02  0.12700000000E+01 0.  1.
         25    2    1    2    0    0  0.00000000000E+00  0.00000000000E+00  0.45971696837E+02  0.13318676433E+03  0.12500126913E+03 0.  0.
    9000005    1    3    3    0    0  0.14299085396E+02  0.59499129751E+02  0.36493514183E+02  0.71255784760E+02  0.10000000000E+01 0.  0.
    9000005    1    3    3    0    0 -0.14299085396E+02 -0.59499129751E+02  0.94781826534E+01  0.61930979572E+02  0.10000000000E+01 0.  0.
<mgrwt>
<rscale>  0 0.12500127E+03</rscale>
<asrwt>0</asrwt>
<pdfrwt beam="1">  1        4 0.13781420E-01 0.12500127E+03</pdfrwt>
<pdfrwt beam="2">  1       -4 0.67088514E-02 0.12500127E+03</pdfrwt>
<totfact> 0.10276138E+04</totfact>
</mgrwt>
</event>
<event>
 5    1  0.3266101E-002  0.1249993E+03  0.7818608E-02  0.1235070E+00
          4   -1    0    0  501    0  0.00000000000E+00  0.00000000000E+00  0.14549090216E+03  0.14549644501E+03  0.12700000000E+01 0. -1.
         -4   -1    0    0    0  501 -0.00000000000E+00 -0.00000000000E+00 -0.26827371392E+02  0.26857415285E+02  0.12700000000E+01 0. -1.
         25    2    1    2    0    0  0.00000000000E+00  0.00000000000E+00  0.11866353077E+03  0.17235386030E+03  0.12499927850E+03 0.  0.
    9000005    1    3    3    0    0 -0.30774489459E+02  0.47351421177E+02  0.96226427286E+02  0.11157845490E+03  0.10000000000E+01 0.  0.
    9000005    1    3    3    0    0  0.30774489459E+02 -0.47351421177E+02  0.22437103481E+02  0.60775405400E+02  0.10000000000E+01 0.  0.
<mgrwt>
<rscale>  0 0.12499928E+03</rscale>
<asrwt>0</asrwt>
<pdfrwt beam="1">  1        4 0.22385953E-01 0.12499928E+03</pdfrwt>
<pdfrwt beam="2">  1       -4 0.41300254E-02 0.12499928E+03</pdfrwt>
<totfact> 0.95013259E+03</totfact>
</mgrwt>
</event>
<event>
 5    1  0.3266101E-002  0.1249990E+03  0.7818608E-02  0.1235071E+00
         -4   -1    0    0    0  501 -0.00000000000E+00  0.00000000000E+00  0.36640068027E+02  0.36662071478E+02  0.12700000000E+01 0.  1.
          4   -1    0    0  501    0  0.00000000000E+00 -0.00000000000E+00 -0.10655188175E+03  0.10655945010E+03  0.12700000000E+01 0.  1.
         25    2    1    2    0    0  0.00000000000E+00  0.00000000000E+00 -0.69911813726E+02  0.14322152158E+03  0.12499897017E+03 0.  0.
    9000005    1    3    3    0    0  0.42698568235E+02  0.35573976558E+02 -0.67696204903E+02  0.87592532191E+02  0.10000000000E+01 0.  0.
    9000005    1    3    3    0    0 -0.42698568235E+02 -0.35573976558E+02 -0.22156088236E+01  0.55628989385E+02  0.10000000000E+01 0.  0.
<mgrwt>
<rscale>  0 0.12499897E+03</rscale>
<asrwt>0</asrwt>
<pdfrwt beam="2">  1        4 0.16394872E-01 0.12499897E+03</pdfrwt>
<pdfrwt beam="1">  1       -4 0.56392084E-02 0.12499897E+03</pdfrwt>
<totfact> 0.10067482E+04</totfact>
</mgrwt>
</event>
<event>
 5    1  0.3266101E-002  0.1250013E+03  0.7818608E-02  0.1235067E+00
          4   -1    0    0  501    0  0.00000000000E+00  0.00000000000E+00  0.14937876951E+03  0.14938416811E+03  0.12700000000E+01 0. -1.
         -4   -1    0    0    0  501 -0.00000000000E+00 -0.00000000000E+00 -0.26129207553E+02  0.26160053275E+02  0.12700000000E+01 0. -1.
         25    2    1    2    0    0  0.00000000000E+00  0.00000000000E+00  0.12324956196E+03  0.17554422138E+03  0.12500127654E+03 0.  0.
    9000005    1    3    3    0    0 -0.85259811681E+01 -0.61903963804E+02  0.60595969584E+02  0.87049782420E+02  0.10000000000E+01 0.  0.
    9000005    1    3    3    0    0  0.85259811681E+01  0.61903963804E+02  0.62653592374E+02  0.88494438960E+02  0.10000000000E+01 0.  0.
<mgrwt>
<rscale>  0 0.12500128E+03</rscale>
<asrwt>0</asrwt>
<pdfrwt beam="1">  1        4 0.22984137E-01 0.12500128E+03</pdfrwt>
<pdfrwt beam="2">  1       -4 0.40226661E-02 0.12500128E+03</pdfrwt>
<totfact> 0.94422558E+03</totfact>
</mgrwt>
</event>
<event>
 5    1  0.3266101E-002  0.1250030E+03  0.7818608E-02  0.1235065E+00
          4   -1    0    0  501    0  0.00000000000E+00  0.00000000000E+00  0.11823749122E+03  0.11824431162E+03  0.12700000000E+01 0. -1.
         -4   -1    0    0    0  501 -0.00000000000E+00 -0.00000000000E+00 -0.33018931267E+02  0.33043346108E+02  0.12700000000E+01 0. -1.
         25    2    1    2    0    0  0.00000000000E+00  0.00000000000E+00  0.85218559952E+02  0.15128765773E+03  0.12500300964E+03 0.  0.
    9000005    1    3    3    0    0  0.44793783339E+02  0.31907820735E+02  0.78529007736E+02  0.95876989450E+02  0.10000000000E+01 0.  0.
    9000005    1    3    3    0    0 -0.44793783339E+02 -0.31907820735E+02  0.66895522158E+01  0.55410668276E+02  0.10000000000E+01 0.  0.
<mgrwt>
<rscale>  0 0.12500301E+03</rscale>
<asrwt>0</asrwt>
<pdfrwt beam="1">  1        4 0.18192786E-01 0.12500301E+03</pdfrwt>
<pdfrwt beam="2">  1       -4 0.50822383E-02 0.12500301E+03</pdfrwt>
<totfact> 0.99040932E+03</totfact>
</mgrwt>
</event>
<event>
 5    1  0.3266101E-002  0.1249961E+03  0.7818608E-02  0.1235075E+00
         -4   -1    0    0    0  501 -0.00000000000E+00  0.00000000000E+00  0.43339326673E+03  0.43339512751E+03  0.12700000000E+01 0.  1.
          4   -1    0    0  501    0  0.00000000000E+00 -0.00000000000E+00 -0.89659860117E+01  0.90554848110E+01  0.12700000000E+01 0.  1.
         25    2    1    2    0    0  0.00000000000E+00  0.00000000000E+00  0.42442728072E+03  0.44245061232E+03  0.12499611083E+03 0.  0.
    9000005    1    3    3    0    0 -0.23619480301E+02  0.28001153292E+01  0.41676159288E+03  0.41744094887E+03  0.10000000000E+01 0.  0.
    9000005    1    3    3    0    0  0.23619480301E+02 -0.28001153292E+01  0.76656878349E+01  0.25009663442E+02  0.10000000000E+01 0.  0.
<mgrwt>
<rscale>  0 0.12499611E+03</rscale>
<asrwt>0</asrwt>
<pdfrwt beam="2">  1        4 0.13864104E-02 0.12499611E+03</pdfrwt>
<pdfrwt beam="1">  1       -4 0.66682902E-01 0.12499611E+03</pdfrwt>
<totfact> 0.60628610E+03</totfact>
</mgrwt>
</event>
<event>
 5    1  0.3266101E-002  0.1250025E+03  0.7818608E-02  0.1235065E+00
         -4   -1    0    0    0  501 -0.00000000000E+00  0.00000000000E+00  0.24084389575E+02  0.24117850676E+02  0.12700000000E+01 0.  1.
          4   -1    0    0  501    0  0.00000000000E+00 -0.00000000000E+00 -0.16204805285E+03  0.16205302938E+03  0.12700000000E+01 0.  1.
         25    2    1    2    0    0  0.00000000000E+00  0.00000000000E+00 -0.13796366328E+03  0.18617088006E+03  0.12500249677E+03 0.  0.
    9000005    1    3    3    0    0 -0.10836727354E+02 -0.51362507549E+02 -0.11948473455E+03  0.13051108624E+03  0.10000000000E+01 0.  0.
    9000005    1    3    3    0    0  0.10836727354E+02  0.51362507549E+02 -0.18478928730E+02  0.55659793823E+02  0.10000000000E+01 0.  0.
<mgrwt>
<rscale>  0 0.12500250E+03</rscale>
<asrwt>0</asrwt>
<pdfrwt beam="2">  1        4 0.24933426E-01 0.12500250E+03</pdfrwt>
<pdfrwt beam="1">  1       -4 0.37082475E-02 0.12500250E+03</pdfrwt>
<totfact> 0.92512695E+03</totfact>
</mgrwt>
</event>
<event>
 5    1  0.3266101E-002  0.1249851E+03  0.7818608E-02  0.1235093E+00
          4   -1    0    0  501    0  0.00000000000E+00  0.00000000000E+00  0.83361410091E+03  0.83361506832E+03  0.12700000000E+01 0.  1.
         -4   -1    0    0    0  501 -0.00000000000E+00 -0.00000000000E+00 -0.45977456794E+01  0.47699229902E+01  0.12700000000E+01 0.  1.
         25    2    1    2    0    0  0.00000000000E+00  0.00000000000E+00  0.82901635523E+03  0.83838499131E+03  0.12498510479E+03 0.  0.
    9000005    1    3    3    0    0 -0.42015701004E+02  0.32431402836E+02  0.63568559056E+03  0.63789833443E+03  0.10000000000E+01 0.  0.
    9000005    1    3    3    0    0  0.42015701004E+02 -0.32431402836E+02  0.19333076466E+03  0.20048665688E+03  0.10000000000E+01 0.  0.
<mgrwt>
<rscale>  0 0.12498510E+03</rscale>
<asrwt>0</asrwt>
<pdfrwt beam="1">  1        4 0.12826161E+00 0.12498510E+03</pdfrwt>
<pdfrwt beam="2">  1       -4 0.72066451E-03 0.12498510E+03</pdfrwt>
<totfact> 0.36619311E+03</totfact>
</mgrwt>
</event>
<event>
 5    1  0.3266101E-002  0.1250005E+03  0.7818608E-02  0.1235069E+00
         -4   -1    0    0    0  501 -0.00000000000E+00  0.00000000000E+00  0.27832509033E+02  0.27861469076E+02  0.12700000000E+01 0. -1.
          4   -1    0    0  501    0  0.00000000000E+00 -0.00000000000E+00 -0.14024469340E+03  0.14025044359E+03  0.12700000000E+01 0. -1.
         25    2    1    2    0    0  0.00000000000E+00  0.00000000000E+00 -0.11241218437E+03  0.16811191266E+03  0.12500046394E+03 0.  0.
    9000005    1    3    3    0    0  0.61819593509E+02 -0.70381537641E+00 -0.68467590611E+02  0.92254910231E+02  0.10000000000E+01 0.  0.
    9000005    1    3    3    0    0 -0.61819593509E+02  0.70381537641E+00 -0.43944593754E+02  0.75857002432E+02  0.10000000000E+01 0.  0.
<mgrwt>
<rscale>  0 0.12500046E+03</rscale>
<asrwt>0</asrwt>
<pdfrwt beam="2">  1        4 0.21578776E-01 0.12500046E+03</pdfrwt>
<pdfrwt beam="1">  1       -4 0.42845946E-02 0.12500046E+03</pdfrwt>
<totfact> 0.95800272E+03</totfact>
</mgrwt>
</event>
<event>
 5    1  0.3266101E-002  0.1249993E+03  0.7818608E-02  0.1235070E+00
          4   -1    0    0  501    0  0.00000000000E+00  0.00000000000E+00  0.48015165236E+01  0.49666347688E+01  0.12700000000E+01 0. -1.
         -4   -1    0    0    0  501 -0.00000000000E+00 -0.00000000000E+00 -0.79961847471E+03  0.79961948325E+03  0.12700000000E+01 0. -1.
         25    2    1    2    0    0  0.00000000000E+00  0.00000000000E+00 -0.79481695819E+03  0.80458611802E+03  0.12499929717E+03 0.  0.
    9000005    1    3    3    0    0  0.54475537223E+02  0.23634891933E+02 -0.27209653261E+03  0.27850263075E+03  0.10000000000E+01 0.  0.
    9000005    1    3    3    0    0 -0.54475537223E+02 -0.23634891933E+02 -0.52272042557E+03  0.52608348727E+03  0.10000000000E+01 0.  0.
<mgrwt>
<rscale>  0 0.12499930E+03</rscale>
<asrwt>0</asrwt>
<pdfrwt beam="1">  1        4 0.75147447E-03 0.12499930E+03</pdfrwt>
<pdfrwt beam="2">  1       -4 0.12303090E+00 0.12499930E+03</pdfrwt>
<totfact> 0.38061420E+03</totfact>
</mgrwt>
</event>
<event>
 5    1  0.3266101E-002  0.1250069E+03  0.7818608E-02  0.1235059E+00
          4   -1    0    0  501    0  0.00000000000E+00  0.00000000000E+00  0.10100929521E+03  0.10101727881E+03  0.12700000000E+01 0. -1.
         -4   -1    0    0    0  501 -0.00000000000E+00 -0.00000000000E+00 -0.38656482410E+02  0.38677338744E+02  0.12700000000E+01 0. -1.
         25    2    1    2    0    0  0.00000000000E+00  0.00000000000E+00  0.62352812799E+02  0.13969461756E+03  0.12500685145E+03 0.  0.
    9000005    1    3    3    0    0 -0.61174095274E+02  0.10236829254E+02  0.39732047231E+02  0.73666126428E+02  0.10000000000E+01 0.  0.
    9000005    1    3    3    0    0  0.61174095274E+02 -0.10236829254E+02  0.22620765568E+02  0.66028491128E+02  0.10000000000E+01 0.  0.
<mgrwt>
<rscale>  0 0.12500685E+03</rscale>
<asrwt>0</asrwt>
<pdfrwt beam="1">  1        4 0.15542110E-01 0.12500685E+03</pdfrwt>
<pdfrwt beam="2">  1       -4 0.59493696E-02 0.12500685E+03</pdfrwt>
<totfact> 0.10138354E+04</totfact>
</mgrwt>
</event>
<event>
 5    1  0.3266101E-002  0.1250003E+03  0.7818608E-02  0.1235069E+00
          4   -1    0    0  501    0  0.00000000000E+00  0.00000000000E+00  0.19860065352E+03  0.19860471414E+03  0.12700000000E+01 0.  1.
         -4   -1    0    0    0  501 -0.00000000000E+00 -0.00000000000E+00 -0.19644201551E+02  0.19685211570E+02  0.12700000000E+01 0.  1.
         25    2    1    2    0    0  0.00000000000E+00  0.00000000000E+00  0.17895645197E+03  0.21828992571E+03  0.12500031986E+03 0.  0.
    9000005    1    3    3    0    0  0.40909293134E+02 -0.46213642744E+02  0.10658845460E+03  0.12317211411E+03  0.10000000000E+01 0.  0.
    9000005    1    3    3    0    0 -0.40909293134E+02  0.46213642744E+02  0.72367997372E+02  0.95117811602E+02  0.10000000000E+01 0.  0.
<mgrwt>
<rscale>  0 0.12500032E+03</rscale>
<asrwt>0</asrwt>
<pdfrwt beam="1">  1        4 0.30557413E-01 0.12500032E+03</pdfrwt>
<pdfrwt beam="2">  1       -4 0.30256519E-02 0.12500032E+03</pdfrwt>
<totfact> 0.87139049E+03</totfact>
</mgrwt>
</event>
<event>
 5    1  0.3266101E-002  0.1250011E+03  0.7818608E-02  0.1235068E+00
         -4   -1    0    0    0  501 -0.00000000000E+00  0.00000000000E+00  0.30761934954E+02  0.30788139634E+02  0.12700000000E+01 0. -1.
          4   -1    0    0  501    0  0.00000000000E+00 -0.00000000000E+00 -0.12690207659E+03  0.12690843133E+03  0.12700000000E+01 0. -1.
         25    2    1    2    0    0  0.00000000000E+00  0.00000000000E+00 -0.96140141637E+02  0.15769657097E+03  0.12500112664E+03 0.  0.
    9000005    1    3    3    0    0  0.54523294398E+02 -0.30313640327E+02 -0.43415270156E+02  0.76010473650E+02  0.10000000000E+01 0.  0.
    9000005    1    3    3    0    0 -0.54523294398E+02  0.30313640327E+02 -0.52724871481E+02  0.81686097315E+02  0.10000000000E+01 0.  0.
<mgrwt>
<rscale>  0 0.12500113E+03</rscale>
<asrwt>0</asrwt>
<pdfrwt beam="2">  1        4 0.19525901E-01 0.12500113E+03</pdfrwt>
<pdfrwt beam="1">  1       -4 0.47351100E-02 0.12500113E+03</pdfrwt>
<totfact> 0.97786238E+03</totfact>
</mgrwt>
</event>
<event>
 5    1  0.3266101E-002  0.1250018E+03  0.7818608E-02  0.1235067E+00
          4   -1    0    0  501    0  0.00000000000E+00  0.00000000000E+00  0.48561838059E+02  0.48578441882E+02  0.12700000000E+01 0.  1.
         -4   -1    0    0    0  501 -0.00000000000E+00 -0.00000000000E+00 -0.80405591725E+02  0.80415620875E+02  0.12700000000E+01 0.  1.
         25    2    1    2    0    0  0.00000000000E+00  0.00000000000E+00 -0.31843753666E+02  0.12899406276E+03  0.12500177430E+03 0.  0.
    9000005    1    3    3    0    0 -0.58667643198E+02 -0.16473265923E+02 -0.16192015645E+01  0.60966241990E+02  0.10000000000E+01 0.  0.
    9000005    1    3    3    0    0  0.58667643198E+02  0.16473265923E+02 -0.30224552101E+02  0.68027820767E+02  0.10000000000E+01 0.  0.
<mgrwt>
<rscale>  0 0.12500177E+03</rscale>
<asrwt>0</asrwt>
<pdfrwt beam="1">  1        4 0.74731007E-02 0.12500177E+03</pdfrwt>
<pdfrwt beam="2">  1       -4 0.12372140E-01 0.12500177E+03</pdfrwt>
<totfact> 0.10365659E+04</totfact>
</mgrwt>
</event>
<event>
 5    1  0.3266101E-002  0.1249874E+03  0.7818608E-02  0.1235089E+00
         -4   -1    0    0    0  501 -0.00000000000E+00  0.00000000000E+00  0.26685601435E+03  0.26685903637E+03  0.12700000000E+01 0.  1.
          4   -1    0    0  501    0  0.00000000000E+00 -0.00000000000E+00 -0.14604429899E+02  0.14659545446E+02  0.12700000000E+01 0.  1.
         25    2    1    2    0    0  0.00000000000E+00  0.00000000000E+00  0.25225158445E+03  0.28151858182E+03  0.12498739957E+03 0.  0.
    9000005    1    3    3    0    0 -0.26976554270E+02 -0.95312794494E+01  0.25124688928E+03  0.25287265400E+03  0.10000000000E+01 0.  0.
    9000005    1    3    3    0    0  0.26976554270E+02  0.95312794494E+01  0.10046951689E+01  0.28645927819E+02  0.10000000000E+01 0.  0.
<mgrwt>
<rscale>  0 0.12498740E+03</rscale>
<asrwt>0</asrwt>
<pdfrwt beam="2">  1        4 0.22513075E-02 0.12498740E+03</pdfrwt>
<pdfrwt beam="1">  1       -4 0.41059243E-01 0.12498740E+03</pdfrwt>
<totfact> 0.77999024E+03</totfact>
</mgrwt>
</event>
<event>
 5    1  0.3266101E-002  0.1249991E+03  0.7818608E-02  0.1235071E+00
         -4   -1    0    0    0  501 -0.00000000000E+00  0.00000000000E+00  0.16875313374E+02  0.16923034641E+02  0.12700000000E+01 0. -1.
          4   -1    0    0  501    0  0.00000000000E+00 -0.00000000000E+00 -0.23109746643E+03  0.23110095605E+03  0.12700000000E+01 0. -1.
         25    2    1    2    0    0  0.00000000000E+00  0.00000000000E+00 -0.21422215305E+03  0.24802399069E+03  0.12499907640E+03 0.  0.
    9000005    1    3    3    0    0  0.28330493205E+02  0.50848206340E+02 -0.61993371334E+02  0.85043136247E+02  0.10000000000E+01 0.  0.
    9000005    1    3    3    0    0 -0.28330493205E+02 -0.50848206340E+02 -0.15222878172E+03  0.16298085445E+03  0.10000000000E+01 0.  0.
<mgrwt>
<rscale>  0 0.12499908E+03</rscale>
<asrwt>0</asrwt>
<pdfrwt beam="2">  1        4 0.35557393E-01 0.12499908E+03</pdfrwt>
<pdfrwt beam="1">  1       -4 0.26001415E-02 0.12499908E+03</pdfrwt>
<totfact> 0.82618365E+03</totfact>
</mgrwt>
</event>
<event>
 5    1  0.3266101E-002  0.1249952E+03  0.7818608E-02  0.1235077E+00
          4   -1    0    0  501    0  0.00000000000E+00  0.00000000000E+00  0.83436407857E+03  0.83436504512E+03  0.12700000000E+01 0.  1.
         -4   -1    0    0    0  501 -0.00000000000E+00 -0.00000000000E+00 -0.45942263868E+01  0.47665308237E+01  0.12700000000E+01 0.  1.
         25    2    1    2    0    0  0.00000000000E+00  0.00000000000E+00  0.82976985218E+03  0.83913157594E+03  0.12499517648E+03 0.  0.
    9000005    1    3    3    0    0  0.16395825795E+02 -0.80187014072E+00  0.10106054880E+02  0.19302809237E+02  0.10000000000E+01 0.  0.
    9000005    1    3    3    0    0 -0.16395825795E+02  0.80187014072E+00  0.81966379731E+03  0.81982876670E+03  0.10000000000E+01 0.  0.
<mgrwt>
<rscale>  0 0.12499518E+03</rscale>
<asrwt>0</asrwt>
<pdfrwt beam="1">  1        4 0.12837694E+00 0.12499518E+03</pdfrwt>
<pdfrwt beam="2">  1       -4 0.72013314E-03 0.12499518E+03</pdfrwt>
<totfact> 0.36580123E+03</totfact>
</mgrwt>
</event>
<event>
 5    1  0.3266101E-002  0.1250077E+03  0.7818608E-02  0.1235057E+00
         -4   -1    0    0    0  501 -0.00000000000E+00  0.00000000000E+00  0.14554338743E+03  0.14554892829E+03  0.12700000000E+01 0. -1.
          4   -1    0    0  501    0  0.00000000000E+00 -0.00000000000E+00 -0.26821305699E+02  0.26851356379E+02  0.12700000000E+01 0. -1.
         25    2    1    2    0    0  0.00000000000E+00  0.00000000000E+00  0.11872208173E+03  0.17240028467E+03  0.12500770161E+03 0.  0.
    9000005    1    3    3    0    0  0.43519718052E+02  0.26309869670E+02  0.92636434554E+01  0.51700968961E+02  0.10000000000E+01 0.  0.
    9000005    1    3    3    0    0 -0.43519718052E+02 -0.26309869670E+02  0.10945843828E+03  0.12069931571E+03  0.10000000000E+01 0.  0.
<mgrwt>
<rscale>  0 0.12500770E+03</rscale>
<asrwt>0</asrwt>
<pdfrwt beam="2">  1        4 0.41290926E-02 0.12500770E+03</pdfrwt>
<pdfrwt beam="1">  1       -4 0.22394028E-01 0.12500770E+03</pdfrwt>
<totfact> 0.94986724E+03</totfact>
</mgrwt>
</event>
<event>
 5    1  0.3266101E-002  0.1249995E+03  0.7818608E-02  0.1235070E+00
          4   -1    0    0  501    0  0.00000000000E+00  0.00000000000E+00  0.94388034647E+02  0.94396578245E+02  0.12700000000E+01 0.  1.
         -4   -1    0    0    0  501 -0.00000000000E+00 -0.00000000000E+00 -0.41364534189E+02  0.41384025767E+02  0.12700000000E+01 0.  1.
         25    2    1    2    0    0  0.00000000000E+00  0.00000000000E+00  0.53023500458E+02  0.13578060401E+03  0.12499952330E+03 0.  0.
    9000005    1    3    3    0    0  0.56490918173E+02 -0.10299209271E+02 -0.27089970794E+00  0.57431445518E+02  0.10000000000E+01 0.  0.
    9000005    1    3    3    0    0 -0.56490918173E+02  0.10299209271E+02  0.53294400166E+02  0.78349158494E+02  0.10000000000E+01 0.  0.
<mgrwt>
<rscale>  0 0.12499952E+03</rscale>
<asrwt>0</asrwt>
<pdfrwt beam="1">  1        4 0.14523392E-01 0.12499952E+03</pdfrwt>
<pdfrwt beam="2">  1       -4 0.63659312E-02 0.12499952E+03</pdfrwt>
<totfact> 0.10221754E+04</totfact>
</mgrwt>
</event>
<event>
 5    1  0.3266101E-002  0.1250019E+03  0.7818608E-02  0.1235066E+00
         -4   -1    0    0    0  501 -0.00000000000E+00  0.00000000000E+00  0.11708940369E+02  0.11777613704E+02  0.12700000000E+01 0.  1.
          4   -1    0    0  501    0  0.00000000000E+00 -0.00000000000E+00 -0.33257733967E+03  0.33257976451E+03  0.12700000000E+01 0.  1.
         25    2    1    2    0    0  0.00000000000E+00  0.00000000000E+00 -0.32086839930E+03  0.34435737821E+03  0.12500189703E+03 0.  0.
    9000005    1    3    3    0    0  0.32662878430E+02 -0.50086833671E+02 -0.11040456259E+03  0.12556162620E+03  0.10000000000E+01 0.  0.
    9000005    1    3    3    0    0 -0.32662878430E+02  0.50086833671E+02 -0.21046383671E+03  0.21879575201E+03  0.10000000000E+01 0.  0.
<mgrwt>
<rscale>  0 0.12500190E+03</rscale>
<asrwt>0</asrwt>
<pdfrwt beam="2">  1        4 0.51171207E-01 0.12500190E+03</pdfrwt>
<pdfrwt beam="1">  1       -4 0.18068448E-02 0.12500190E+03</pdfrwt>
<totfact> 0.70346855E+03</totfact>
</mgrwt>
</event>
<event>
 5    1  0.3266101E-002  0.1249962E+03  0.7818608E-02  0.1235075E+00
         -4   -1    0    0    0  501 -0.00000000000E+00  0.00000000000E+00  0.75499609775E+02  0.75510290532E+02  0.12700000000E+01 0. -1.
          4   -1    0    0  501    0  0.00000000000E+00 -0.00000000000E+00 -0.51713378717E+02  0.51728970977E+02  0.12700000000E+01 0. -1.
         25    2    1    2    0    0  0.00000000000E+00  0.00000000000E+00  0.23786231058E+02  0.12723926151E+03  0.12499617947E+03 0.  0.
    9000005    1    3    3    0    0  0.22056373397E+01 -0.40965109141E+02 -0.36090949369E+02  0.54649443084E+02  0.10000000000E+01 0.  0.
    9000005    1    3    3    0    0 -0.22056373397E+01  0.40965109141E+02  0.59877180427E+02  0.72589818425E+02  0.10000000000E+01 0.  0.
<mgrwt>
<rscale>  0 0.12499618E+03</rscale>
<asrwt>0</asrwt>
<pdfrwt beam="2">  1        4 0.79579255E-02 0.12499618E+03</pdfrwt>
<pdfrwt beam="1">  1       -4 0.11617346E-01 0.12499618E+03</pdfrwt>
<totfact> 0.10404849E+04</totfact>
</mgrwt>
</event>
<event>
 5    1  0.3266101E-002  0.1249869E+03  0.7818608E-02  0.1235090E+00
         -4   -1    0    0    0  501 -0.00000000000E+00  0.00000000000E+00  0.17981209178E+02  0.18026002982E+02  0.12700000000E+01 0.  1.
          4   -1    0    0  501    0  0.00000000000E+00 -0.00000000000E+00 -0.21687830875E+03  0.21688202717E+03  0.12700000000E+01 0.  1.
         25    2    1    2    0    0  0.00000000000E+00  0.00000000000E+00 -0.19889709957E+03  0.23490803015E+03  0.12498690495E+03 0.  0.
    9000005    1    3    3    0    0  0.49403106790E+02  0.33532176418E+02 -0.13407135548E+03  0.14676921399E+03  0.10000000000E+01 0.  0.
    9000005    1    3    3    0    0 -0.49403106790E+02 -0.33532176418E+02 -0.64825744095E+02  0.88138816155E+02  0.10000000000E+01 0.  0.
<mgrwt>
<rscale>  0 0.12498690E+03</rscale>
<asrwt>0</asrwt>
<pdfrwt beam="2">  1        4 0.33369624E-01 0.12498690E+03</pdfrwt>
<pdfrwt beam="1">  1       -4 0.27700717E-02 0.12498690E+03</pdfrwt>
<totfact> 0.84586320E+03</totfact>
</mgrwt>
</event>
<event>
 5    1  0.3266101E-002  0.1250010E+03  0.7818608E-02  0.1235068E+00
         -4   -1    0    0    0  501 -0.00000000000E+00  0.00000000000E+00  0.85985340810E+01  0.86918173210E+01  0.12700000000E+01 0.  1.
          4   -1    0    0  501    0  0.00000000000E+00 -0.00000000000E+00 -0.45175477152E+03  0.45175655667E+03  0.12700000000E+01 0.  1.
         25    2    1    2    0    0  0.00000000000E+00  0.00000000000E+00 -0.44315623744E+03  0.46044837399E+03  0.12500101730E+03 0.  0.
    9000005    1    3    3    0    0 -0.19447726475E+02  0.56725490150E+02 -0.15679375583E+03  0.16787280055E+03  0.10000000000E+01 0.  0.
    9000005    1    3    3    0    0  0.19447726475E+02 -0.56725490150E+02 -0.28636248161E+03  0.29257557344E+03  0.10000000000E+01 0.  0.
<mgrwt>
<rscale>  0 0.12500102E+03</rscale>
<asrwt>0</asrwt>
<pdfrwt beam="2">  1        4 0.69508029E-01 0.12500102E+03</pdfrwt>
<pdfrwt beam="1">  1       -4 0.13301647E-02 0.12500102E+03</pdfrwt>
<totfact> 0.59067906E+03</totfact>
</mgrwt>
</event>
<event>
 5    1  0.3266101E-002  0.1250011E+03  0.7818608E-02  0.1235068E+00
          4   -1    0    0  501    0  0.00000000000E+00  0.00000000000E+00  0.83331739479E+02  0.83341416502E+02  0.12700000000E+01 0. -1.
         -4   -1    0    0    0  501 -0.00000000000E+00 -0.00000000000E+00 -0.46855690523E+02  0.46872898720E+02  0.12700000000E+01 0. -1.
         25    2    1    2    0    0  0.00000000000E+00  0.00000000000E+00  0.36476048956E+02  0.13021431522E+03  0.12500106296E+03 0.  0.
    9000005    1    3    3    0    0 -0.19670887533E+02  0.62872570746E+01 -0.43203564842E+02  0.47895943804E+02  0.10000000000E+01 0.  0.
    9000005    1    3    3    0    0  0.19670887533E+02 -0.62872570746E+01  0.79679613798E+02  0.82318371417E+02  0.10000000000E+01 0.  0.
<mgrwt>
<rscale>  0 0.12500106E+03</rscale>
<asrwt>0</asrwt>
<pdfrwt beam="1">  1        4 0.12822336E-01 0.12500106E+03</pdfrwt>
<pdfrwt beam="2">  1       -4 0.72106360E-02 0.12500106E+03</pdfrwt>
<totfact> 0.10339677E+04</totfact>
</mgrwt>
</event>
<event>
 5    1  0.3266101E-002  0.1249964E+03  0.7818608E-02  0.1235075E+00
         -4   -1    0    0    0  501 -0.00000000000E+00  0.00000000000E+00  0.33348693320E+02  0.33372866915E+02  0.12700000000E+01 0.  1.
          4   -1    0    0  501    0  0.00000000000E+00 -0.00000000000E+00 -0.11705681237E+03  0.11706370156E+03  0.12700000000E+01 0.  1.
         25    2    1    2    0    0  0.00000000000E+00  0.00000000000E+00 -0.83708119050E+02  0.15043656847E+03  0.12499644770E+03 0.  0.
    9000005    1    3    3    0    0  0.47460777321E+02 -0.34249880561E+02 -0.68206851334E+02  0.89881890675E+02  0.10000000000E+01 0.  0.
    9000005    1    3    3    0    0 -0.47460777321E+02  0.34249880561E+02 -0.15501267716E+02  0.60554677797E+02  0.10000000000E+01 0.  0.
<mgrwt>
<rscale>  0 0.12499645E+03</rscale>
<asrwt>0</asrwt>
<pdfrwt beam="2">  1        4 0.18011130E-01 0.12499645E+03</pdfrwt>
<pdfrwt beam="1">  1       -4 0.51329577E-02 0.12499645E+03</pdfrwt>
<totfact> 0.99224678E+03</totfact>
</mgrwt>
</event>
<event>
 5    1  0.3266101E-002  0.1250041E+03  0.7818608E-02  0.1235063E+00
         -4   -1    0    0    0  501 -0.00000000000E+00  0.00000000000E+00  0.19914225459E+03  0.19914630417E+03  0.12700000000E+01 0.  1.
          4   -1    0    0  501    0  0.00000000000E+00 -0.00000000000E+00 -0.19591840962E+02  0.19632960355E+02  0.12700000000E+01 0.  1.
         25    2    1    2    0    0  0.00000000000E+00  0.00000000000E+00  0.17955041363E+03  0.21877926452E+03  0.12500406214E+03 0.  0.
    9000005    1    3    3    0    0 -0.43599801326E+02  0.44760021637E+02  0.91612205267E+02  0.11089724238E+03  0.10000000000E+01 0.  0.
    9000005    1    3    3    0    0  0.43599801326E+02 -0.44760021637E+02  0.87938208364E+02  0.10788202215E+03  0.10000000000E+01 0.  0.
<mgrwt>
<rscale>  0 0.12500406E+03</rscale>
<asrwt>0</asrwt>
<pdfrwt beam="2">  1        4 0.30176039E-02 0.12500406E+03</pdfrwt>
<pdfrwt beam="1">  1       -4 0.30640745E-01 0.12500406E+03</pdfrwt>
<totfact> 0.87053984E+03</totfact>
</mgrwt>
</event>
<event>
 5    1  0.3266101E-002  0.1250275E+03  0.7818608E-02  0.1235026E+00
         -4   -1    0    0    0  501 -0.00000000000E+00  0.00000000000E+00  0.35115556766E+03  0.35115786421E+03  0.12700000000E+01 0. -1.
          4   -1    0    0  501    0  0.00000000000E+00 -0.00000000000E+00 -0.11090306781E+02  0.11162786592E+02  0.12700000000E+01 0. -1.
         25    2    1    2    0    0  0.00000000000E+00  0.00000000000E+00  0.34006526088E+03  0.36232065080E+03  0.12502748635E+03 0.  0.
    9000005    1    3    3    0    0 -0.19833243383E+02 -0.55202381208E+02  0.10745431634E+03  0.12242585729E+03  0.10000000000E+01 0.  0.
    9000005    1    3    3    0    0  0.19833243383E+02  0.55202381208E+02  0.23261094454E+03  0.23989479351E+03  0.10000000000E+01 0.  0.
<mgrwt>
<rscale>  0 0.12502749E+03</rscale>
<asrwt>0</asrwt>
<pdfrwt beam="2">  1        4 0.17119531E-02 0.12502749E+03</pdfrwt>
<pdfrwt beam="1">  1       -4 0.54029686E-01 0.12502749E+03</pdfrwt>
<totfact> 0.68348508E+03</totfact>
</mgrwt>
</event>
<event>
 5    1  0.3266101E-002  0.1249955E+03  0.7818608E-02  0.1235076E+00
          4   -1    0    0  501    0  0.00000000000E+00  0.00000000000E+00  0.30673771766E+02  0.30700051700E+02  0.12700000000E+01 0.  1.
         -4   -1    0    0    0  501 -0.00000000000E+00 -0.00000000000E+00 -0.12725501917E+03  0.12726135629E+03  0.12700000000E+01 0.  1.
         25    2    1    2    0    0  0.00000000000E+00  0.00000000000E+00 -0.96581247405E+02  0.15796140799E+03  0.12499547617E+03 0.  0.
    9000005    1    3    3    0    0  0.53355749240E+02 -0.49003823308E+01 -0.88929496502E+02  0.10382824795E+03  0.10000000000E+01 0.  0.
    9000005    1    3    3    0    0 -0.53355749240E+02  0.49003823308E+01 -0.76517509023E+01  0.54133160039E+02  0.10000000000E+01 0.  0.
<mgrwt>
<rscale>  0 0.12499548E+03</rscale>
<asrwt>0</asrwt>
<pdfrwt beam="1">  1        4 0.47215509E-02 0.12499548E+03</pdfrwt>
<pdfrwt beam="2">  1       -4 0.19580204E-01 0.12499548E+03</pdfrwt>
<totfact> 0.97747196E+03</totfact>
</mgrwt>
</event>
<event>
 5    1  0.3266101E-002  0.1250039E+03  0.7818608E-02  0.1235063E+00
         -4   -1    0    0    0  501 -0.00000000000E+00  0.00000000000E+00  0.22991825604E+03  0.22992176357E+03  0.12700000000E+01 0. -1.
          4   -1    0    0  501    0  0.00000000000E+00 -0.00000000000E+00 -0.16963420596E+02  0.17010894695E+02  0.12700000000E+01 0. -1.
         25    2    1    2    0    0  0.00000000000E+00  0.00000000000E+00  0.21295483545E+03  0.24693265826E+03  0.12500390304E+03 0.  0.
    9000005    1    3    3    0    0 -0.45219418419E+02  0.38401754772E+02  0.14528803121E+03  0.15693661964E+03  0.10000000000E+01 0.  0.
    9000005    1    3    3    0    0  0.45219418419E+02 -0.38401754772E+02  0.67666804241E+02  0.89996038624E+02  0.10000000000E+01 0.  0.
<mgrwt>
<rscale>  0 0.12500390E+03</rscale>
<asrwt>0</asrwt>
<pdfrwt beam="2">  1        4 0.26136786E-02 0.12500390E+03</pdfrwt>
<pdfrwt beam="1">  1       -4 0.35375962E-01 0.12500390E+03</pdfrwt>
<totfact> 0.82768385E+03</totfact>
</mgrwt>
</event>
<event>
 5    1  0.3266101E-002  0.1249987E+03  0.7818608E-02  0.1235071E+00
         -4   -1    0    0    0  501 -0.00000000000E+00  0.00000000000E+00  0.88382838400E+01  0.89290627300E+01  0.12700000000E+01 0.  1.
          4   -1    0    0  501    0  0.00000000000E+00 -0.00000000000E+00 -0.43961046222E+03  0.43961229668E+03  0.12700000000E+01 0.  1.
         25    2    1    2    0    0  0.00000000000E+00  0.00000000000E+00 -0.43077217838E+03  0.44854135941E+03  0.12499872574E+03 0.  0.
    9000005    1    3    3    0    0  0.46474613838E+02  0.38403250454E+02 -0.15637179079E+03  0.16759426103E+03  0.10000000000E+01 0.  0.
    9000005    1    3    3    0    0 -0.46474613838E+02 -0.38403250454E+02 -0.27440038759E+03  0.28094709838E+03  0.10000000000E+01 0.  0.
<mgrwt>
<rscale>  0 0.12499873E+03</rscale>
<asrwt>0</asrwt>
<pdfrwt beam="2">  1        4 0.67639486E-01 0.12499873E+03</pdfrwt>
<pdfrwt beam="1">  1       -4 0.13668604E-02 0.12499873E+03</pdfrwt>
<totfact> 0.60092059E+03</totfact>
</mgrwt>
</event>
<event>
 5    1  0.3266101E-002  0.1250014E+03  0.7818608E-02  0.1235067E+00
          4   -1    0    0  501    0  0.00000000000E+00  0.00000000000E+00  0.19947727765E+02  0.19988115043E+02  0.12700000000E+01 0. -1.
         -4   -1    0    0    0  501 -0.00000000000E+00 -0.00000000000E+00 -0.19558807659E+03  0.19559219975E+03  0.12700000000E+01 0. -1.
         25    2    1    2    0    0  0.00000000000E+00  0.00000000000E+00 -0.17564034883E+03  0.21558031480E+03  0.12500135996E+03 0.  0.
    9000005    1    3    3    0    0 -0.40011609196E+01  0.61555866178E+02 -0.70556608929E+02  0.93724964728E+02  0.10000000000E+01 0.  0.
    9000005    1    3    3    0    0  0.40011609196E+01 -0.61555866178E+02 -0.10508373990E+03  0.12185535007E+03  0.10000000000E+01 0.  0.
<mgrwt>
<rscale>  0 0.12500136E+03</rscale>
<asrwt>0</asrwt>
<pdfrwt beam="1">  1        4 0.30723052E-02 0.12500136E+03</pdfrwt>
<pdfrwt beam="2">  1       -4 0.30093896E-01 0.12500136E+03</pdfrwt>
<totfact> 0.87569914E+03</totfact>
</mgrwt>
</event>
<event>
 5    1  0.3266101E-002  0.1250008E+03  0.7818608E-02  0.1235068E+00
          4   -1    0    0  501    0  0.00000000000E+00  0.00000000000E+00  0.22678154379E+03  0.22678509982E+03  0.12700000000E+01 0.  1.
         -4   -1    0    0    0  501 -0.00000000000E+00 -0.00000000000E+00 -0.17197829649E+02  0.17244658438E+02  0.12700000000E+01 0.  1.
         25    2    1    2    0    0  0.00000000000E+00  0.00000000000E+00  0.20958371414E+03  0.24402975826E+03  0.12500075874E+03 0.  0.
    9000005    1    3    3    0    0  0.54250654198E+02 -0.15304487473E+02  0.52120207524E+02  0.76778101371E+02  0.10000000000E+01 0.  0.
    9000005    1    3    3    0    0 -0.54250654198E+02  0.15304487473E+02  0.15746350661E+03  0.16725165689E+03  0.10000000000E+01 0.  0.
<mgrwt>
<rscale>  0 0.12500076E+03</rscale>
<asrwt>0</asrwt>
<pdfrwt beam="1">  1        4 0.34893340E-01 0.12500076E+03</pdfrwt>
<pdfrwt beam="2">  1       -4 0.26496960E-02 0.12500076E+03</pdfrwt>
<totfact> 0.83199439E+03</totfact>
</mgrwt>
</event>
<event>
 5    1  0.3266101E-002  0.1250124E+03  0.7818608E-02  0.1235050E+00
          4   -1    0    0  501    0  0.00000000000E+00  0.00000000000E+00  0.37016639974E+02  0.37038419714E+02  0.12700000000E+01 0. -1.
         -4   -1    0    0    0  501 -0.00000000000E+00 -0.00000000000E+00 -0.10549115972E+03  0.10549880416E+03  0.12700000000E+01 0. -1.
         25    2    1    2    0    0  0.00000000000E+00  0.00000000000E+00 -0.68474519746E+02  0.14253722387E+03  0.12501240073E+03 0.  0.
    9000005    1    3    3    0    0  0.28691980248E+02 -0.14984907778E+02  0.26719959297E+02  0.41984918917E+02  0.10000000000E+01 0.  0.
    9000005    1    3    3    0    0 -0.28691980248E+02  0.14984907778E+02 -0.95194479044E+02  0.10055230496E+03  0.10000000000E+01 0.  0.
<mgrwt>
<rscale>  0 0.12501240E+03</rscale>
<asrwt>0</asrwt>
<pdfrwt beam="1">  1        4 0.56971311E-02 0.12501240E+03</pdfrwt>
<pdfrwt beam="2">  1       -4 0.16231672E-01 0.12501240E+03</pdfrwt>
<totfact> 0.10078453E+04</totfact>
</mgrwt>
</event>
<event>
 5    1  0.3266101E-002  0.1249996E+03  0.7818608E-02  0.1235070E+00
         -4   -1    0    0    0  501 -0.00000000000E+00  0.00000000000E+00  0.22697914106E+02  0.22733416038E+02  0.12700000000E+01 0.  1.
          4   -1    0    0  501    0  0.00000000000E+00 -0.00000000000E+00 -0.17192383933E+03  0.17192853001E+03  0.12700000000E+01 0.  1.
         25    2    1    2    0    0  0.00000000000E+00  0.00000000000E+00 -0.14922592523E+03  0.19466194605E+03  0.12499958592E+03 0.  0.
    9000005    1    3    3    0    0  0.42926935622E+02 -0.39205487694E+02 -0.11030988439E+03  0.12469588069E+03  0.10000000000E+01 0.  0.
    9000005    1    3    3    0    0 -0.42926935622E+02  0.39205487694E+02 -0.38916040841E+02  0.69966065360E+02  0.10000000000E+01 0.  0.
<mgrwt>
<rscale>  0 0.12499959E+03</rscale>
<asrwt>0</asrwt>
<pdfrwt beam="2">  1        4 0.26452912E-01 0.12499959E+03</pdfrwt>
<pdfrwt beam="1">  1       -4 0.34950786E-02 0.12499959E+03</pdfrwt>
<totfact> 0.91043264E+03</totfact>
</mgrwt>
</event>
<event>
 5    1  0.3266101E-002  0.1250002E+03  0.7818608E-02  0.1235069E+00
          4   -1    0    0  501    0  0.00000000000E+00  0.00000000000E+00  0.48916541852E+01  0.50538283179E+01  0.12700000000E+01 0.  1.
         -4   -1    0    0    0  501 -0.00000000000E+00 -0.00000000000E+00 -0.78537270468E+03  0.78537373152E+03  0.12700000000E+01 0.  1.
         25    2    1    2    0    0  0.00000000000E+00  0.00000000000E+00 -0.78048105050E+03  0.79042755984E+03  0.12500022866E+03 0.  0.
    9000005    1    3    3    0    0  0.60841283507E+02  0.12694954344E+02 -0.43143531236E+03  0.43589018387E+03  0.10000000000E+01 0.  0.
    9000005    1    3    3    0    0 -0.60841283507E+02 -0.12694954344E+02 -0.34904573814E+03  0.35453737596E+03  0.10000000000E+01 0.  0.
<mgrwt>
<rscale>  0 0.12500023E+03</rscale>
<asrwt>0</asrwt>
<pdfrwt beam="1">  1        4 0.76511673E-03 0.12500023E+03</pdfrwt>
<pdfrwt beam="2">  1       -4 0.12083903E+00 0.12500023E+03</pdfrwt>
<totfact> 0.38695490E+03</totfact>
</mgrwt>
</event>
<event>
 5    1  0.3266101E-002  0.1249999E+03  0.7818608E-02  0.1235070E+00
          4   -1    0    0  501    0  0.00000000000E+00  0.00000000000E+00  0.59921155206E+02  0.59934612214E+02  0.12700000000E+01 0.  1.
         -4   -1    0    0    0  501 -0.00000000000E+00 -0.00000000000E+00 -0.65162711797E+02  0.65175086565E+02  0.12700000000E+01 0.  1.
         25    2    1    2    0    0  0.00000000000E+00  0.00000000000E+00 -0.52415565906E+01  0.12510969878E+03  0.12499985125E+03 0.  0.
    9000005    1    3    3    0    0 -0.10271374488E+02 -0.55620765104E+02 -0.29216108077E+02  0.63669078961E+02  0.10000000000E+01 0.  0.
    9000005    1    3    3    0    0  0.10271374488E+02  0.55620765104E+02  0.23974551487E+02  0.61440619818E+02  0.10000000000E+01 0.  0.
<mgrwt>
<rscale>  0 0.12499985E+03</rscale>
<asrwt>0</asrwt>
<pdfrwt beam="1">  1        4 0.92206263E-02 0.12499985E+03</pdfrwt>
<pdfrwt beam="2">  1       -4 0.10027020E-01 0.12499985E+03</pdfrwt>
<totfact> 0.10450516E+04</totfact>
</mgrwt>
</event>
<event>
 5    1  0.3266101E-002  0.1250318E+03  0.7818608E-02  0.1235020E+00
         -4   -1    0    0    0  501 -0.00000000000E+00  0.00000000000E+00  0.25315345098E+03  0.25315663658E+03  0.12700000000E+01 0. -1.
          4   -1    0    0  501    0  0.00000000000E+00 -0.00000000000E+00 -0.15408808216E+02  0.15461056582E+02  0.12700000000E+01 0. -1.
         25    2    1    2    0    0  0.00000000000E+00  0.00000000000E+00  0.23774464277E+03  0.26861769316E+03  0.12503179562E+03 0.  0.
    9000005    1    3    3    0    0  0.27355242963E+02  0.55654529187E+02  0.10202398012E+03  0.11939693655E+03  0.10000000000E+01 0.  0.
    9000005    1    3    3    0    0 -0.27355242963E+02 -0.55654529187E+02  0.13572066264E+03  0.14922075661E+03  0.10000000000E+01 0.  0.
<mgrwt>
<rscale>  0 0.12503180E+03</rscale>
<asrwt>0</asrwt>
<pdfrwt beam="2">  1        4 0.23748500E-02 0.12503180E+03</pdfrwt>
<pdfrwt beam="1">  1       -4 0.38950950E-01 0.12503180E+03</pdfrwt>
<totfact> 0.79655339E+03</totfact>
</mgrwt>
</event>
<event>
 5    1  0.3266101E-002  0.1249994E+03  0.7818608E-02  0.1235070E+00
         -4   -1    0    0    0  501 -0.00000000000E+00  0.00000000000E+00  0.34991944323E+03  0.34992174790E+03  0.12700000000E+01 0. -1.
          4   -1    0    0  501    0  0.00000000000E+00 -0.00000000000E+00 -0.11124705554E+02  0.11196962698E+02  0.12700000000E+01 0. -1.
         25    2    1    2    0    0  0.00000000000E+00  0.00000000000E+00  0.33879473768E+03  0.36111871060E+03  0.12499939545E+03 0.  0.
    9000005    1    3    3    0    0 -0.36039095820E+02  0.44820622746E+02  0.24001510364E+03  0.24681157717E+03  0.10000000000E+01 0.  0.
    9000005    1    3    3    0    0  0.36039095820E+02 -0.44820622746E+02  0.98779634045E+02  0.11430713343E+03  0.10000000000E+01 0.  0.
<mgrwt>
<rscale>  0 0.12499940E+03</rscale>
<asrwt>0</asrwt>
<pdfrwt beam="2">  1        4 0.17172287E-02 0.12499940E+03</pdfrwt>
<pdfrwt beam="1">  1       -4 0.53839495E-01 0.12499940E+03</pdfrwt>
<totfact> 0.68519351E+03</totfact>
</mgrwt>
</event>
<event>
 4    1  0.3266101E-002  0.1249080E+03  0.7818608E-02  0.1235213E+00
          4   -1    0    0  501    0  0.00000000000E+00  0.00000000000E+00  0.66434537852E+02  0.66446675760E+02  0.12700000000E+01 0.  1.
         -4   -1    0    0    0  501 -0.00000000000E+00 -0.00000000000E+00 -0.58687613174E+02  0.58701352966E+02  0.12700000000E+01 0.  1.
    9000005    1    1    2    0    0 -0.49314876720E+02 -0.35713357286E+02  0.17760202487E+02  0.63433632617E+02  0.10000000000E+01 0.  0.
    9000005    1    1    2    0    0  0.49314876720E+02  0.35713357286E+02 -0.10013277809E+02  0.61714396109E+02  0.10000000000E+01 0.  0.
<mgrwt>
<rscale>  0 0.12490802E+03</rscale>
<asrwt>0</asrwt>
<pdfrwt beam="1">  1        4 0.10222689E-01 0.12490802E+03</pdfrwt>
<pdfrwt beam="2">  1       -4 0.90308542E-02 0.12490802E+03</pdfrwt>
<totfact> 0.10471399E+04</totfact>
</mgrwt>
</event>
<event>
 5    1  0.3266101E-002  0.1250027E+03  0.7818608E-02  0.1235065E+00
          4   -1    0    0  501    0  0.00000000000E+00  0.00000000000E+00  0.12061666441E+02  0.12128342728E+02  0.12700000000E+01 0. -1.
         -4   -1    0    0    0  501 -0.00000000000E+00 -0.00000000000E+00 -0.32290988957E+03  0.32291238701E+03  0.12700000000E+01 0. -1.
         25    2    1    2    0    0  0.00000000000E+00  0.00000000000E+00 -0.31084822313E+03  0.33504072973E+03  0.12500269100E+03 0.  0.
    9000005    1    3    3    0    0  0.23482211279E+02  0.10005463801E+02 -0.30831443048E+03  0.30937083184E+03  0.10000000000E+01 0.  0.
    9000005    1    3    3    0    0 -0.23482211279E+02 -0.10005463801E+02 -0.25337926454E+01  0.25669897888E+02  0.10000000000E+01 0.  0.
<mgrwt>
<rscale>  0 0.12500269E+03</rscale>
<asrwt>0</asrwt>
<pdfrwt beam="1">  1        4 0.18609623E-02 0.12500269E+03</pdfrwt>
<pdfrwt beam="2">  1       -4 0.49683759E-01 0.12500269E+03</pdfrwt>
<totfact> 0.71397978E+03</totfact>
</mgrwt>
</event>
<event>
 5    1  0.3266101E-002  0.1250001E+03  0.7818608E-02  0.1235069E+00
          4   -1    0    0  501    0  0.00000000000E+00  0.00000000000E+00  0.75135394891E+02  0.75146127414E+02  0.12700000000E+01 0.  1.
         -4   -1    0    0    0  501 -0.00000000000E+00 -0.00000000000E+00 -0.51967370293E+02  0.51982886368E+02  0.12700000000E+01 0.  1.
         25    2    1    2    0    0  0.00000000000E+00  0.00000000000E+00  0.23168024598E+02  0.12712901378E+03  0.12500011513E+03 0.  0.
    9000005    1    3    3    0    0 -0.58450230695E+02  0.14828127679E+02 -0.50951239602E+01  0.60524896753E+02  0.10000000000E+01 0.  0.
    9000005    1    3    3    0    0  0.58450230695E+02 -0.14828127679E+02  0.28263148558E+02  0.66604117029E+02  0.10000000000E+01 0.  0.
<mgrwt>
<rscale>  0 0.12500012E+03</rscale>
<asrwt>0</asrwt>
<pdfrwt beam="1">  1        4 0.11561311E-01 0.12500012E+03</pdfrwt>
<pdfrwt beam="2">  1       -4 0.79969992E-02 0.12500012E+03</pdfrwt>
<totfact> 0.10406317E+04</totfact>
</mgrwt>
</event>
<event>
 5    1  0.3266101E-002  0.1249990E+03  0.7818608E-02  0.1235071E+00
         -4   -1    0    0    0  501 -0.00000000000E+00  0.00000000000E+00  0.66810254044E+01  0.68006617659E+01  0.12700000000E+01 0. -1.
          4   -1    0    0  501    0  0.00000000000E+00 -0.00000000000E+00 -0.57935976937E+03  0.57936116134E+03  0.12700000000E+01 0. -1.
         25    2    1    2    0    0  0.00000000000E+00  0.00000000000E+00 -0.57267874397E+03  0.58616182310E+03  0.12499895628E+03 0.  0.
    9000005    1    3    3    0    0  0.42563380380E+02 -0.16573909824E+02 -0.86348830066E+02  0.97690615158E+02  0.10000000000E+01 0.  0.
    9000005    1    3    3    0    0 -0.42563380380E+02  0.16573909824E+02 -0.48632991390E+03  0.48847120794E+03  0.10000000000E+01 0.  0.
<mgrwt>
<rscale>  0 0.12499896E+03</rscale>
<asrwt>0</asrwt>
<pdfrwt beam="2">  1        4 0.89141543E-01 0.12499896E+03</pdfrwt>
<pdfrwt beam="1">  1       -4 0.10371604E-02 0.12499896E+03</pdfrwt>
<totfact> 0.49754086E+03</totfact>
</mgrwt>
</event>
<event>
 5    1  0.3266101E-002  0.1250009E+03  0.7818608E-02  0.1235068E+00
         -4   -1    0    0    0  501 -0.00000000000E+00  0.00000000000E+00  0.19869723305E+03  0.19870129169E+03  0.12700000000E+01 0. -1.
          4   -1    0    0  501    0  0.00000000000E+00 -0.00000000000E+00 -0.19634820448E+02  0.19675850020E+02  0.12700000000E+01 0. -1.
         25    2    1    2    0    0  0.00000000000E+00  0.00000000000E+00  0.17906241260E+03  0.21837714171E+03  0.12500091366E+03 0.  0.
    9000005    1    3    3    0    0  0.52300690119E+02 -0.38743784263E+01  0.14890196431E+03  0.15787073184E+03  0.10000000000E+01 0.  0.
    9000005    1    3    3    0    0 -0.52300690119E+02  0.38743784263E+01  0.30160448287E+02  0.60506409875E+02  0.10000000000E+01 0.  0.
<mgrwt>
<rscale>  0 0.12500091E+03</rscale>
<asrwt>0</asrwt>
<pdfrwt beam="2">  1        4 0.30242099E-02 0.12500091E+03</pdfrwt>
<pdfrwt beam="1">  1       -4 0.30572273E-01 0.12500091E+03</pdfrwt>
<totfact> 0.87124020E+03</totfact>
</mgrwt>
</event>
<event>
 5    1  0.3266101E-002  0.1250001E+03  0.7818608E-02  0.1235069E+00
          4   -1    0    0  501    0  0.00000000000E+00  0.00000000000E+00  0.10191837202E+04  0.10191845115E+04  0.12700000000E+01 0.  1.
         -4   -1    0    0    0  501 -0.00000000000E+00 -0.00000000000E+00 -0.37267125053E+01  0.39371672681E+01  0.12700000000E+01 0.  1.
         25    2    1    2    0    0  0.00000000000E+00  0.00000000000E+00  0.10154570077E+04  0.10231216788E+04  0.12500014011E+03 0.  0.
    9000005    1    3    3    0    0  0.53402433513E+02 -0.32397389060E+02  0.52378446243E+03  0.52749651544E+03  0.10000000000E+01 0.  0.
    9000005    1    3    3    0    0 -0.53402433513E+02  0.32397389060E+02  0.49167254529E+03  0.49562516332E+03  0.10000000000E+01 0.  0.
<mgrwt>
<rscale>  0 0.12500014E+03</rscale>
<asrwt>0</asrwt>
<pdfrwt beam="1">  1        4 0.15681390E+00 0.12500014E+03</pdfrwt>
<pdfrwt beam="2">  1       -4 0.58958948E-03 0.12500014E+03</pdfrwt>
<totfact> 0.29848942E+03</totfact>
</mgrwt>
</event>
<event>
 5    1  0.3266101E-002  0.1249983E+03  0.7818608E-02  0.1235072E+00
          4   -1    0    0  501    0  0.00000000000E+00  0.00000000000E+00  0.10037732872E+02  0.10117755740E+02  0.12700000000E+01 0. -1.
         -4   -1    0    0    0  501 -0.00000000000E+00 -0.00000000000E+00 -0.38751967675E+03  0.38752175780E+03  0.12700000000E+01 0. -1.
         25    2    1    2    0    0  0.00000000000E+00  0.00000000000E+00 -0.37748194388E+03  0.39763951354E+03  0.12499825909E+03 0.  0.
    9000005    1    3    3    0    0 -0.45570705962E+02  0.13098019790E+02 -0.31822998169E+03  0.32174457045E+03  0.10000000000E+01 0.  0.
    9000005    1    3    3    0    0  0.45570705962E+02 -0.13098019790E+02 -0.59251962189E+02  0.75894943096E+02  0.10000000000E+01 0.  0.
<mgrwt>
<rscale>  0 0.12499826E+03</rscale>
<asrwt>0</asrwt>
<pdfrwt beam="1">  1        4 0.15505826E-02 0.12499826E+03</pdfrwt>
<pdfrwt beam="2">  1       -4 0.59624716E-01 0.12499826E+03</pdfrwt>
<totfact> 0.64785512E+03</totfact>
</mgrwt>
</event>
<event>
 5    1  0.3266101E-002  0.1249942E+03  0.7818608E-02  0.1235078E+00
          4   -1    0    0  501    0  0.00000000000E+00  0.00000000000E+00  0.36604531420E+02  0.36626556219E+02  0.12700000000E+01 0. -1.
         -4   -1    0    0    0  501 -0.00000000000E+00 -0.00000000000E+00 -0.10664711695E+03  0.10665467853E+03  0.12700000000E+01 0. -1.
         25    2    1    2    0    0  0.00000000000E+00  0.00000000000E+00 -0.70042585525E+02  0.14328123475E+03  0.12499419364E+03 0.  0.
    9000005    1    3    3    0    0  0.52720940028E+02 -0.14798424759E+02 -0.69532370243E+02  0.88511250157E+02  0.10000000000E+01 0.  0.
    9000005    1    3    3    0    0 -0.52720940028E+02  0.14798424759E+02 -0.51021528230E+00  0.54769984594E+02  0.10000000000E+01 0.  0.
<mgrwt>
<rscale>  0 0.12499419E+03</rscale>
<asrwt>0</asrwt>
<pdfrwt beam="1">  1        4 0.56337423E-02 0.12499419E+03</pdfrwt>
<pdfrwt beam="2">  1       -4 0.16409524E-01 0.12499419E+03</pdfrwt>
<totfact> 0.10067344E+04</totfact>
</mgrwt>
</event>
<event>
 5    1  0.3266101E-002  0.1249989E+03  0.7818608E-02  0.1235071E+00
          4   -1    0    0  501    0  0.00000000000E+00  0.00000000000E+00  0.26325090658E+02  0.26355707127E+02  0.12700000000E+01 0.  1.
         -4   -1    0    0    0  501 -0.00000000000E+00 -0.00000000000E+00 -0.14826284620E+03  0.14826828542E+03  0.12700000000E+01 0.  1.
         25    2    1    2    0    0  0.00000000000E+00  0.00000000000E+00 -0.12193775554E+03  0.17462399255E+03  0.12499889019E+03 0.  0.
    9000005    1    3    3    0    0  0.25252857637E+02  0.14028778566E+02  0.16444163709E+02  0.33255435149E+02  0.10000000000E+01 0.  0.
    9000005    1    3    3    0    0 -0.25252857637E+02 -0.14028778566E+02 -0.13838191925E+03  0.14136855740E+03  0.10000000000E+01 0.  0.
<mgrwt>
<rscale>  0 0.12499889E+03</rscale>
<asrwt>0</asrwt>
<pdfrwt beam="1">  1        4 0.40527876E-02 0.12499889E+03</pdfrwt>
<pdfrwt beam="2">  1       -4 0.22812442E-01 0.12499889E+03</pdfrwt>
<totfact> 0.94596106E+03</totfact>
</mgrwt>
</event>
<event>
 5    1  0.3266101E-002  0.1249995E+03  0.7818608E-02  0.1235070E+00
         -4   -1    0    0    0  501 -0.00000000000E+00  0.00000000000E+00  0.17601385569E+02  0.17647143507E+02  0.12700000000E+01 0.  1.
          4   -1    0    0  501    0  0.00000000000E+00 -0.00000000000E+00 -0.22159117501E+03  0.22159481434E+03  0.12700000000E+01 0.  1.
         25    2    1    2    0    0  0.00000000000E+00  0.00000000000E+00 -0.20398978944E+03  0.23924195785E+03  0.12499952079E+03 0.  0.
    9000005    1    3    3    0    0  0.55353154111E+02  0.22788693802E+02 -0.67654478693E+02  0.90340603952E+02  0.10000000000E+01 0.  0.
    9000005    1    3    3    0    0 -0.55353154111E+02 -0.22788693802E+02 -0.13633531075E+03  0.14890135390E+03  0.10000000000E+01 0.  0.
<mgrwt>
<rscale>  0 0.12499952E+03</rscale>
<asrwt>0</asrwt>
<pdfrwt beam="2">  1        4 0.34094748E-01 0.12499952E+03</pdfrwt>
<pdfrwt beam="1">  1       -4 0.27117054E-02 0.12499952E+03</pdfrwt>
<totfact> 0.83911291E+03</totfact>
</mgrwt>
</event>
<event>
 5    1  0.3266101E-002  0.1250060E+03  0.7818608E-02  0.1235060E+00
         -4   -1    0    0    0  501 -0.00000000000E+00  0.00000000000E+00  0.31027318636E+02  0.31053299370E+02  0.12700000000E+01 0. -1.
          4   -1    0    0  501    0  0.00000000000E+00 -0.00000000000E+00 -0.12582739488E+03  0.12583380390E+03  0.12700000000E+01 0. -1.
         25    2    1    2    0    0  0.00000000000E+00  0.00000000000E+00 -0.94800076248E+02  0.15688710327E+03  0.12500603471E+03 0.  0.
    9000005    1    3    3    0    0  0.55554254229E+02 -0.17576939999E+02 -0.19046128044E+02  0.61310512770E+02  0.10000000000E+01 0.  0.
    9000005    1    3    3    0    0 -0.55554254229E+02  0.17576939999E+02 -0.75753948204E+02  0.95576590497E+02  0.10000000000E+01 0.  0.
<mgrwt>
<rscale>  0 0.12500603E+03</rscale>
<asrwt>0</asrwt>
<pdfrwt beam="2">  1        4 0.19360552E-01 0.12500603E+03</pdfrwt>
<pdfrwt beam="1">  1       -4 0.47759252E-02 0.12500603E+03</pdfrwt>
<totfact> 0.97933017E+03</totfact>
</mgrwt>
</event>
<event>
 5    1  0.3266101E-002  0.1249841E+03  0.7818608E-02  0.1235094E+00
          4   -1    0    0  501    0  0.00000000000E+00  0.00000000000E+00  0.75002643791E+01  0.76070273930E+01  0.12700000000E+01 0. -1.
         -4   -1    0    0    0  501 -0.00000000000E+00 -0.00000000000E+00 -0.51689542672E+03  0.51689698690E+03  0.12700000000E+01 0. -1.
         25    2    1    2    0    0  0.00000000000E+00  0.00000000000E+00 -0.50939516235E+03  0.52450401430E+03  0.12498411736E+03 0.  0.
    9000005    1    3    3    0    0  0.10530195408E+02 -0.40457976220E+02 -0.59815821950E+02  0.72984007910E+02  0.10000000000E+01 0.  0.
    9000005    1    3    3    0    0 -0.10530195408E+02  0.40457976220E+02 -0.44957934040E+03  0.45152000639E+03  0.10000000000E+01 0.  0.
<mgrwt>
<rscale>  0 0.12498412E+03</rscale>
<asrwt>0</asrwt>
<pdfrwt beam="1">  1        4 0.11622198E-02 0.12498412E+03</pdfrwt>
<pdfrwt beam="2">  1       -4 0.79530678E-01 0.12498412E+03</pdfrwt>
<totfact> 0.54030912E+03</totfact>
</mgrwt>
</event>
<event>
 5    1  0.3266101E-002  0.1250049E+03  0.7818608E-02  0.1235062E+00
          4   -1    0    0  501    0  0.00000000000E+00  0.00000000000E+00  0.89906583581E+03  0.89906673280E+03  0.12700000000E+01 0. -1.
         -4   -1    0    0    0  501 -0.00000000000E+00 -0.00000000000E+00 -0.42514104336E+01  0.44370475178E+01  0.12700000000E+01 0. -1.
         25    2    1    2    0    0  0.00000000000E+00  0.00000000000E+00  0.89481442538E+03  0.90350378031E+03  0.12500490062E+03 0.  0.
    9000005    1    3    3    0    0  0.27281842116E+02  0.34760316862E+02  0.76681947396E+03  0.76809223677E+03  0.10000000000E+01 0.  0.
    9000005    1    3    3    0    0 -0.27281842116E+02 -0.34760316862E+02  0.12799495141E+03  0.13541154354E+03  0.10000000000E+01 0.  0.
<mgrwt>
<rscale>  0 0.12500490E+03</rscale>
<asrwt>0</asrwt>
<pdfrwt beam="1">  1        4 0.13833224E+00 0.12500490E+03</pdfrwt>
<pdfrwt beam="2">  1       -4 0.66841156E-03 0.12500490E+03</pdfrwt>
<totfact> 0.34022450E+03</totfact>
</mgrwt>
</event>
<event>
 5    1  0.3266101E-002  0.1249987E+03  0.7818608E-02  0.1235071E+00
         -4   -1    0    0    0  501 -0.00000000000E+00  0.00000000000E+00  0.28864082077E+02  0.28892008136E+02  0.12700000000E+01 0.  1.
          4   -1    0    0  501    0  0.00000000000E+00 -0.00000000000E+00 -0.13523345650E+03  0.13523941976E+03  0.12700000000E+01 0.  1.
         25    2    1    2    0    0  0.00000000000E+00  0.00000000000E+00 -0.10636937443E+03  0.16413142790E+03  0.12499872723E+03 0.  0.
    9000005    1    3    3    0    0 -0.58092895756E+02  0.11407586782E+02 -0.79454282912E+02  0.99090366063E+02  0.10000000000E+01 0.  0.
    9000005    1    3    3    0    0  0.58092895756E+02 -0.11407586782E+02 -0.26915091514E+02  0.65041061835E+02  0.10000000000E+01 0.  0.
<mgrwt>
<rscale>  0 0.12499873E+03</rscale>
<asrwt>0</asrwt>
<pdfrwt beam="2">  1        4 0.20807754E-01 0.12499873E+03</pdfrwt>
<pdfrwt beam="1">  1       -4 0.44432350E-02 0.12499873E+03</pdfrwt>
<totfact> 0.96554900E+03</totfact>
</mgrwt>
</event>
<event>
 5    1  0.3266101E-002  0.1249880E+03  0.7818608E-02  0.1235088E+00
          4   -1    0    0  501    0  0.00000000000E+00  0.00000000000E+00  0.22767913397E+02  0.22803306349E+02  0.12700000000E+01 0.  1.
         -4   -1    0    0    0  501 -0.00000000000E+00 -0.00000000000E+00 -0.17136419075E+03  0.17136889675E+03  0.12700000000E+01 0.  1.
         25    2    1    2    0    0  0.00000000000E+00  0.00000000000E+00 -0.14859627736E+03  0.19417220310E+03  0.12498796267E+03 0.  0.
    9000005    1    3    3    0    0 -0.11175384582E+02 -0.50746545261E+02 -0.20383880459E+02  0.55826549769E+02  0.10000000000E+01 0.  0.
    9000005    1    3    3    0    0  0.11175384582E+02  0.50746545261E+02 -0.12821239690E+03  0.13834565333E+03  0.10000000000E+01 0.  0.
<mgrwt>
<rscale>  0 0.12498796E+03</rscale>
<asrwt>0</asrwt>
<pdfrwt beam="1">  1        4 0.35058405E-02 0.12498796E+03</pdfrwt>
<pdfrwt beam="2">  1       -4 0.26366805E-01 0.12498796E+03</pdfrwt>
<totfact> 0.91150956E+03</totfact>
</mgrwt>
</event>
<event>
 5    1  0.3266101E-002  0.1250010E+03  0.7818608E-02  0.1235068E+00
         -4   -1    0    0    0  501 -0.00000000000E+00  0.00000000000E+00  0.26597405328E+02  0.26627708692E+02  0.12700000000E+01 0. -1.
          4   -1    0    0  501    0  0.00000000000E+00 -0.00000000000E+00 -0.14675154883E+03  0.14675704407E+03  0.12700000000E+01 0. -1.
         25    2    1    2    0    0  0.00000000000E+00  0.00000000000E+00 -0.12015414350E+03  0.17338475276E+03  0.12500101715E+03 0.  0.
    9000005    1    3    3    0    0  0.54294322876E+02 -0.19184095237E+02 -0.93751971764E+02  0.11002879267E+03  0.10000000000E+01 0.  0.
    9000005    1    3    3    0    0 -0.54294322876E+02  0.19184095237E+02 -0.26402171736E+02  0.63355960091E+02  0.10000000000E+01 0.  0.
<mgrwt>
<rscale>  0 0.12500102E+03</rscale>
<asrwt>0</asrwt>
<pdfrwt beam="2">  1        4 0.22579915E-01 0.12500102E+03</pdfrwt>
<pdfrwt beam="1">  1       -4 0.40946623E-02 0.12500102E+03</pdfrwt>
<totfact> 0.94819341E+03</totfact>
</mgrwt>
</event>
<event>
 5    1  0.3266101E-002  0.1249991E+03  0.7818608E-02  0.1235071E+00
          4   -1    0    0  501    0  0.00000000000E+00  0.00000000000E+00  0.16141588107E+03  0.16142087709E+03  0.12700000000E+01 0.  1.
         -4   -1    0    0    0  501 -0.00000000000E+00 -0.00000000000E+00 -0.24177519491E+02  0.24210851880E+02  0.12700000000E+01 0.  1.
         25    2    1    2    0    0  0.00000000000E+00  0.00000000000E+00  0.13723836158E+03  0.18563172897E+03  0.12499908365E+03 0.  0.
    9000005    1    3    3    0    0 -0.45966032300E+02  0.41048256174E+02  0.53231927392E+02  0.81439999719E+02  0.10000000000E+01 0.  0.
    9000005    1    3    3    0    0  0.45966032300E+02 -0.41048256174E+02  0.84006434188E+02  0.10419172926E+03  0.10000000000E+01 0.  0.
<mgrwt>
<rscale>  0 0.12499908E+03</rscale>
<asrwt>0</asrwt>
<pdfrwt beam="1">  1        4 0.24836160E-01 0.12499908E+03</pdfrwt>
<pdfrwt beam="2">  1       -4 0.37225669E-02 0.12499908E+03</pdfrwt>
<totfact> 0.92614887E+03</totfact>
</mgrwt>
</event>
<event>
 5    1  0.3266101E-002  0.1250007E+03  0.7818608E-02  0.1235068E+00
          4   -1    0    0  501    0  0.00000000000E+00  0.00000000000E+00  0.61452849757E+03  0.61452980988E+03  0.12700000000E+01 0. -1.
         -4   -1    0    0    0  501 -0.00000000000E+00 -0.00000000000E+00 -0.62917993953E+01  0.64186945426E+01  0.12700000000E+01 0. -1.
         25    2    1    2    0    0  0.00000000000E+00  0.00000000000E+00  0.60823669818E+03  0.62094850442E+03  0.12500065653E+03 0.  0.
    9000005    1    3    3    0    0  0.59282101049E+02 -0.14544386005E+02  0.37065111587E+03  0.37564498715E+03  0.10000000000E+01 0.  0.
    9000005    1    3    3    0    0 -0.59282101049E+02  0.14544386005E+02  0.23758558230E+03  0.24530351727E+03  0.10000000000E+01 0.  0.
<mgrwt>
<rscale>  0 0.12500066E+03</rscale>
<asrwt>0</asrwt>
<pdfrwt beam="1">  1        4 0.94552724E-01 0.12500066E+03</pdfrwt>
<pdfrwt beam="2">  1       -4 0.97783108E-03 0.12500066E+03</pdfrwt>
<totfact> 0.47570737E+03</totfact>
</mgrwt>
</event>
<event>
 5    1  0.3266101E-002  0.1249913E+03  0.7818608E-02  0.1235083E+00
         -4   -1    0    0    0  501 -0.00000000000E+00  0.00000000000E+00  0.15159563908E+02  0.15212668335E+02  0.12700000000E+01 0. -1.
          4   -1    0    0  501    0  0.00000000000E+00 -0.00000000000E+00 -0.25713472372E+03  0.25713786000E+03  0.12700000000E+01 0. -1.
         25    2    1    2    0    0  0.00000000000E+00  0.00000000000E+00 -0.24197515982E+03  0.27235052833E+03  0.12499132896E+03 0.  0.
    9000005    1    3    3    0    0 -0.17931049383E+02  0.27003501234E+02 -0.45816640658E+01  0.32752148883E+02  0.10000000000E+01 0.  0.
    9000005    1    3    3    0    0  0.17931049383E+02 -0.27003501234E+02 -0.23739349575E+03  0.23959837945E+03  0.10000000000E+01 0.  0.
<mgrwt>
<rscale>  0 0.12499133E+03</rscale>
<asrwt>0</asrwt>
<pdfrwt beam="2">  1        4 0.39563511E-01 0.12499133E+03</pdfrwt>
<pdfrwt beam="1">  1       -4 0.23365670E-02 0.12499133E+03</pdfrwt>
<totfact> 0.79218703E+03</totfact>
</mgrwt>
</event>
<event>
 5    1  0.3266101E-002  0.1250028E+03  0.7818608E-02  0.1235065E+00
         -4   -1    0    0    0  501 -0.00000000000E+00  0.00000000000E+00  0.11534060891E+02  0.11603769242E+02  0.12700000000E+01 0. -1.
          4   -1    0    0  501    0  0.00000000000E+00 -0.00000000000E+00 -0.33759477931E+03  0.33759716811E+03  0.12700000000E+01 0. -1.
         25    2    1    2    0    0  0.00000000000E+00  0.00000000000E+00 -0.32606071842E+03  0.34920093735E+03  0.12500281018E+03 0.  0.
    9000005    1    3    3    0    0 -0.31308470330E+02 -0.29447921276E+01 -0.12165146068E+02  0.33732519828E+02  0.10000000000E+01 0.  0.
    9000005    1    3    3    0    0  0.31308470330E+02  0.29447921276E+01 -0.31389557235E+03  0.31546841753E+03  0.10000000000E+01 0.  0.
<mgrwt>
<rscale>  0 0.12500281E+03</rscale>
<asrwt>0</asrwt>
<pdfrwt beam="2">  1        4 0.51943197E-01 0.12500281E+03</pdfrwt>
<pdfrwt beam="1">  1       -4 0.17800171E-02 0.12500281E+03</pdfrwt>
<totfact> 0.69808214E+03</totfact>
</mgrwt>
</event>
<event>
 5    1  0.3266101E-002  0.1250012E+03  0.7818608E-02  0.1235067E+00
          4   -1    0    0  501    0  0.00000000000E+00  0.00000000000E+00  0.61701145067E+02  0.61714213943E+02  0.12700000000E+01 0. -1.
         -4   -1    0    0    0  501 -0.00000000000E+00 -0.00000000000E+00 -0.63284233759E+02  0.63296975776E+02  0.12700000000E+01 0. -1.
         25    2    1    2    0    0  0.00000000000E+00  0.00000000000E+00 -0.15830886914E+01  0.12501118972E+03  0.12500116554E+03 0.  0.
    9000005    1    3    3    0    0  0.61088182151E+02  0.41202114339E+01 -0.13305769047E+02  0.62664069694E+02  0.10000000000E+01 0.  0.
    9000005    1    3    3    0    0 -0.61088182151E+02 -0.41202114339E+01  0.11722680356E+02  0.62347120025E+02  0.10000000000E+01 0.  0.
<mgrwt>
<rscale>  0 0.12500117E+03</rscale>
<asrwt>0</asrwt>
<pdfrwt beam="1">  1        4 0.94944692E-02 0.12500117E+03</pdfrwt>
<pdfrwt beam="2">  1       -4 0.97380215E-02 0.12500117E+03</pdfrwt>
<totfact> 0.10452344E+04</totfact>
</mgrwt>
</event>
<event>
 5    1  0.3266101E-002  0.1249972E+03  0.7818608E-02  0.1235074E+00
          4   -1    0    0  501    0  0.00000000000E+00  0.00000000000E+00  0.79056038249E+01  0.80069639587E+01  0.12700000000E+01 0. -1.
         -4   -1    0    0    0  501 -0.00000000000E+00 -0.00000000000E+00 -0.49083986295E+03  0.49084150595E+03  0.12700000000E+01 0. -1.
         25    2    1    2    0    0  0.00000000000E+00  0.00000000000E+00 -0.48293425913E+03  0.49884846991E+03  0.12499718913E+03 0.  0.
    9000005    1    3    3    0    0 -0.88094813094E+01  0.58882441842E+02 -0.31722292087E+03  0.32276327307E+03  0.10000000000E+01 0.  0.
    9000005    1    3    3    0    0  0.88094813094E+01 -0.58882441842E+02 -0.16571133826E+03  0.17608519684E+03  0.10000000000E+01 0.  0.
<mgrwt>
<rscale>  0 0.12499719E+03</rscale>
<asrwt>0</asrwt>
<pdfrwt beam="1">  1        4 0.12241704E-02 0.12499719E+03</pdfrwt>
<pdfrwt beam="2">  1       -4 0.75521725E-01 0.12499719E+03</pdfrwt>
<totfact> 0.55957291E+03</totfact>
</mgrwt>
</event>
<event>
 5    1  0.3266101E-002  0.1249993E+03  0.7818608E-02  0.1235070E+00
         -4   -1    0    0    0  501 -0.00000000000E+00  0.00000000000E+00  0.20572502590E+02  0.20611665698E+02  0.12700000000E+01 0.  1.
          4   -1    0    0  501    0  0.00000000000E+00 -0.00000000000E+00 -0.18965318166E+03  0.18965743385E+03  0.12700000000E+01 0.  1.
         25    2    1    2    0    0  0.00000000000E+00  0.00000000000E+00 -0.16908067907E+03  0.21026909954E+03  0.12499927275E+03 0.  0.
    9000005    1    3    3    0    0 -0.17892687819E+02  0.59778447293E+02 -0.90267975685E+02  0.10974023179E+03  0.10000000000E+01 0.  0.
    9000005    1    3    3    0    0  0.17892687819E+02 -0.59778447293E+02 -0.78812703382E+02  0.10052886776E+03  0.10000000000E+01 0.  0.
<mgrwt>
<rscale>  0 0.12499927E+03</rscale>
<asrwt>0</asrwt>
<pdfrwt beam="2">  1        4 0.29180751E-01 0.12499927E+03</pdfrwt>
<pdfrwt beam="1">  1       -4 0.31683402E-02 0.12499927E+03</pdfrwt>
<totfact> 0.88433390E+03</totfact>
</mgrwt>
</event>
<event>
 5    1  0.3266101E-002  0.1250031E+03  0.7818608E-02  0.1235064E+00
          4   -1    0    0  501    0  0.00000000000E+00  0.00000000000E+00  0.75366001402E+02  0.75376701090E+02  0.12700000000E+01 0. -1.
         -4   -1    0    0    0  501 -0.00000000000E+00 -0.00000000000E+00 -0.51810781130E+02  0.51826344086E+02  0.12700000000E+01 0. -1.
         25    2    1    2    0    0  0.00000000000E+00  0.00000000000E+00  0.23555220271E+02  0.12720304518E+03  0.12500306516E+03 0.  0.
    9000005    1    3    3    0    0  0.40037399466E+02 -0.40714342896E+02  0.37617232451E+02  0.68386455170E+02  0.10000000000E+01 0.  0.
    9000005    1    3    3    0    0 -0.40037399466E+02  0.40714342896E+02 -0.14062012179E+02  0.58816590006E+02  0.10000000000E+01 0.  0.
<mgrwt>
<rscale>  0 0.12500307E+03</rscale>
<asrwt>0</asrwt>
<pdfrwt beam="1">  1        4 0.11596790E-01 0.12500307E+03</pdfrwt>
<pdfrwt beam="2">  1       -4 0.79729096E-02 0.12500307E+03</pdfrwt>
<totfact> 0.10404017E+04</totfact>
</mgrwt>
</event>
<event>
 5    1  0.3266101E-002  0.1249882E+03  0.7818608E-02  0.1235088E+00
         -4   -1    0    0    0  501 -0.00000000000E+00  0.00000000000E+00  0.54225422865E+02  0.54240293001E+02  0.12700000000E+01 0.  1.
          4   -1    0    0  501    0  0.00000000000E+00 -0.00000000000E+00 -0.71993347542E+02  0.72004548400E+02  0.12700000000E+01 0.  1.
         25    2    1    2    0    0  0.00000000000E+00  0.00000000000E+00 -0.17767924677E+02  0.12624484140E+03  0.12498824278E+03 0.  0.
    9000005    1    3    3    0    0 -0.53891793149E+01 -0.52673739568E+01 -0.71537642931E+02  0.71940411718E+02  0.10000000000E+01 0.  0.
    9000005    1    3    3    0    0  0.53891793149E+01  0.52673739568E+01  0.53769718254E+02  0.54304429683E+02  0.10000000000E+01 0.  0.
<mgrwt>
<rscale>  0 0.12498824E+03</rscale>
<asrwt>0</asrwt>
<pdfrwt beam="2">  1        4 0.11077905E-01 0.12498824E+03</pdfrwt>
<pdfrwt beam="1">  1       -4 0.83443782E-02 0.12498824E+03</pdfrwt>
<totfact> 0.10428365E+04</totfact>
</mgrwt>
</event>
<event>
 5    1  0.3266101E-002  0.1250002E+03  0.7818608E-02  0.1235069E+00
         -4   -1    0    0    0  501 -0.00000000000E+00  0.00000000000E+00  0.72217844009E+01  0.73326032166E+01  0.12700000000E+01 0. -1.
          4   -1    0    0  501    0  0.00000000000E+00 -0.00000000000E+00 -0.53666973446E+03  0.53667123715E+03  0.12700000000E+01 0. -1.
         25    2    1    2    0    0  0.00000000000E+00  0.00000000000E+00 -0.52944795006E+03  0.54400384037E+03  0.12500018605E+03 0.  0.
    9000005    1    3    3    0    0 -0.51116409769E+01  0.62237708596E+02 -0.27502309678E+03  0.28202546872E+03  0.10000000000E+01 0.  0.
    9000005    1    3    3    0    0  0.51116409769E+01 -0.62237708596E+02 -0.25442485328E+03  0.26197837165E+03  0.10000000000E+01 0.  0.
<mgrwt>
<rscale>  0 0.12500019E+03</rscale>
<asrwt>0</asrwt>
<pdfrwt beam="2">  1        4 0.82573183E-01 0.12500019E+03</pdfrwt>
<pdfrwt beam="1">  1       -4 0.11196843E-02 0.12500019E+03</pdfrwt>
<totfact> 0.52604658E+03</totfact>
</mgrwt>
</event>
<event>
 5    1  0.3266101E-002  0.1250036E+03  0.7818608E-02  0.1235064E+00
          4   -1    0    0  501    0  0.00000000000E+00  0.00000000000E+00  0.14687887749E+03  0.14688436797E+03  0.12700000000E+01 0. -1.
         -4   -1    0    0    0  501 -0.00000000000E+00 -0.00000000000E+00 -0.26575408602E+02  0.26605737020E+02  0.12700000000E+01 0. -1.
         25    2    1    2    0    0  0.00000000000E+00  0.00000000000E+00  0.12030346889E+03  0.17349010499E+03  0.12500356756E+03 0.  0.
    9000005    1    3    3    0    0 -0.35120930073E+02 -0.66053878125E+01  0.13130501037E+03  0.13608496106E+03  0.10000000000E+01 0.  0.
    9000005    1    3    3    0    0  0.35120930073E+02  0.66053878125E+01 -0.11001541482E+02  0.37405143929E+02  0.10000000000E+01 0.  0.
<mgrwt>
<rscale>  0 0.12500357E+03</rscale>
<asrwt>0</asrwt>
<pdfrwt beam="1">  1        4 0.22599506E-01 0.12500357E+03</pdfrwt>
<pdfrwt beam="2">  1       -4 0.40912797E-02 0.12500357E+03</pdfrwt>
<totfact> 0.94794515E+03</totfact>
</mgrwt>
</event>
<event>
 5    1  0.3266101E-002  0.1249999E+03  0.7818608E-02  0.1235069E+00
          4   -1    0    0  501    0  0.00000000000E+00  0.00000000000E+00  0.62824363880E+01  0.64095169060E+01  0.12700000000E+01 0.  1.
         -4   -1    0    0    0  501 -0.00000000000E+00 -0.00000000000E+00 -0.61541890827E+03  0.61542021868E+03  0.12700000000E+01 0.  1.
         25    2    1    2    0    0  0.00000000000E+00  0.00000000000E+00 -0.60913647188E+03  0.62182973558E+03  0.12499991471E+03 0.  0.
    9000005    1    3    3    0    0 -0.56260211601E+00  0.49131717891E+02 -0.11247992084E+03  0.12274760616E+03  0.10000000000E+01 0.  0.
    9000005    1    3    3    0    0  0.56260211601E+00 -0.49131717891E+02 -0.49665655104E+03  0.49908212942E+03  0.10000000000E+01 0.  0.
<mgrwt>
<rscale>  0 0.12499991E+03</rscale>
<asrwt>0</asrwt>
<pdfrwt beam="1">  1        4 0.97640538E-03 0.12499991E+03</pdfrwt>
<pdfrwt beam="2">  1       -4 0.94689661E-01 0.12499991E+03</pdfrwt>
<totfact> 0.47518130E+03</totfact>
</mgrwt>
</event>
<event>
 5    1  0.3266101E-002  0.1249990E+03  0.7818608E-02  0.1235071E+00
          4   -1    0    0  501    0  0.00000000000E+00  0.00000000000E+00  0.18997928965E+03  0.18998353454E+03  0.12700000000E+01 0.  1.
         -4   -1    0    0    0  501 -0.00000000000E+00 -0.00000000000E+00 -0.20537020147E+02  0.20576250789E+02  0.12700000000E+01 0.  1.
         25    2    1    2    0    0  0.00000000000E+00  0.00000000000E+00  0.16944226950E+03  0.21055978533E+03  0.12499896201E+03 0.  0.
    9000005    1    3    3    0    0 -0.43945283660E+02  0.17087623625E+02  0.15636200833E+02  0.49685668090E+02  0.10000000000E+01 0.  0.
    9000005    1    3    3    0    0  0.43945283660E+02 -0.17087623625E+02  0.15380606867E+03  0.16087411724E+03  0.10000000000E+01 0.  0.
<mgrwt>
<rscale>  0 0.12499896E+03</rscale>
<asrwt>0</asrwt>
<pdfrwt beam="1">  1        4 0.29230927E-01 0.12499896E+03</pdfrwt>
<pdfrwt beam="2">  1       -4 0.31628859E-02 0.12499896E+03</pdfrwt>
<totfact> 0.88386593E+03</totfact>
</mgrwt>
</event>
<event>
 5    1  0.3266101E-002  0.1249953E+03  0.7818608E-02  0.1235077E+00
          4   -1    0    0  501    0  0.00000000000E+00  0.00000000000E+00  0.10233373307E+02  0.10311878066E+02  0.12700000000E+01 0.  1.
         -4   -1    0    0    0  501 -0.00000000000E+00 -0.00000000000E+00 -0.38014986102E+03  0.38015198241E+03  0.12700000000E+01 0.  1.
         25    2    1    2    0    0  0.00000000000E+00  0.00000000000E+00 -0.36991648771E+03  0.39046386048E+03  0.12499527375E+03 0.  0.
    9000005    1    3    3    0    0  0.18166783086E+02 -0.44152278237E+02 -0.59013340865E+02  0.75914623632E+02  0.10000000000E+01 0.  0.
    9000005    1    3    3    0    0 -0.18166783086E+02  0.44152278237E+02 -0.31090314684E+03  0.31454923684E+03  0.10000000000E+01 0.  0.
<mgrwt>
<rscale>  0 0.12499527E+03</rscale>
<asrwt>0</asrwt>
<pdfrwt beam="1">  1        4 0.15805674E-02 0.12499527E+03</pdfrwt>
<pdfrwt beam="2">  1       -4 0.58490785E-01 0.12499527E+03</pdfrwt>
<totfact> 0.65497793E+03</totfact>
</mgrwt>
</event>
<event>
 5    1  0.3266101E-002  0.1249810E+03  0.7818608E-02  0.1235099E+00
          4   -1    0    0  501    0  0.00000000000E+00  0.00000000000E+00  0.18732068490E+01  0.22631402738E+01  0.12700000000E+01 0.  1.
         -4   -1    0    0    0  501 -0.00000000000E+00 -0.00000000000E+00 -0.18877799632E+04  0.18877803904E+04  0.12700000000E+01 0.  1.
         25    2    1    2    0    0  0.00000000000E+00  0.00000000000E+00 -0.18859067563E+04  0.18900435306E+04  0.12498101525E+03 0.  0.
    9000005    1    3    3    0    0  0.79425933973E-01 -0.44328845728E+02 -0.27703981877E+03  0.28056570364E+03  0.10000000000E+01 0.  0.
    9000005    1    3    3    0    0 -0.79425933973E-01  0.44328845728E+02 -0.16088669376E+04  0.16094778270E+04  0.10000000000E+01 0.  0.
<mgrwt>
<rscale>  0 0.12498102E+03</rscale>
<asrwt>0</asrwt>
<pdfrwt beam="1">  1        4 0.31821492E-03 0.12498102E+03</pdfrwt>
<pdfrwt beam="2">  1       -4 0.29045634E+00 0.12498102E+03</pdfrwt>
<totfact> 0.11370361E+03</totfact>
</mgrwt>
</event>
<event>
 5    1  0.3266101E-002  0.1249987E+03  0.7818608E-02  0.1235071E+00
         -4   -1    0    0    0  501 -0.00000000000E+00  0.00000000000E+00  0.30011083074E+01  0.32587652681E+01  0.12700000000E+01 0. -1.
          4   -1    0    0  501    0  0.00000000000E+00 -0.00000000000E+00 -0.12477451704E+04  0.12477458168E+04  0.12700000000E+01 0. -1.
         25    2    1    2    0    0  0.00000000000E+00  0.00000000000E+00 -0.12447440621E+04  0.12510045820E+04  0.12499873621E+03 0.  0.
    9000005    1    3    3    0    0  0.60842404432E+02  0.43649705535E+00 -0.76503006085E+03  0.76744640380E+03  0.10000000000E+01 0.  0.
    9000005    1    3    3    0    0 -0.60842404432E+02 -0.43649705535E+00 -0.47971400127E+03  0.48355817822E+03  0.10000000000E+01 0.  0.
<mgrwt>
<rscale>  0 0.12499874E+03</rscale>
<asrwt>0</asrwt>
<pdfrwt beam="2">  1        4 0.19198027E+00 0.12499874E+03</pdfrwt>
<pdfrwt beam="1">  1       -4 0.48157945E-03 0.12499874E+03</pdfrwt>
<totfact> 0.23415924E+03</totfact>
</mgrwt>
</event>
<event>
 5    1  0.3266101E-002  0.1250023E+03  0.7818608E-02  0.1235066E+00
          4   -1    0    0  501    0  0.00000000000E+00  0.00000000000E+00  0.13906440019E+03  0.13907019918E+03  0.12700000000E+01 0.  1.
         -4   -1    0    0    0  501 -0.00000000000E+00 -0.00000000000E+00 -0.28069799212E+02  0.28098514690E+02  0.12700000000E+01 0.  1.
         25    2    1    2    0    0  0.00000000000E+00  0.00000000000E+00  0.11099460097E+03  0.16716871387E+03  0.12500230978E+03 0.  0.
    9000005    1    3    3    0    0 -0.23643609031E+02 -0.37921411379E+02  0.11391775300E+03  0.12237364152E+03  0.10000000000E+01 0.  0.
    9000005    1    3    3    0    0  0.23643609031E+02  0.37921411379E+02 -0.29231520292E+01  0.44795072349E+02  0.10000000000E+01 0.  0.
<mgrwt>
<rscale>  0 0.12500231E+03</rscale>
<asrwt>0</asrwt>
<pdfrwt beam="1">  1        4 0.21397178E-01 0.12500231E+03</pdfrwt>
<pdfrwt beam="2">  1       -4 0.43210856E-02 0.12500231E+03</pdfrwt>
<totfact> 0.95973263E+03</totfact>
</mgrwt>
</event>
<event>
 5    1  0.3266101E-002  0.1250015E+03  0.7818608E-02  0.1235067E+00
          4   -1    0    0  501    0  0.00000000000E+00  0.00000000000E+00  0.17104414925E+03  0.17104886405E+03  0.12700000000E+01 0.  1.
         -4   -1    0    0    0  501 -0.00000000000E+00 -0.00000000000E+00 -0.22815545493E+02  0.22850864670E+02  0.12700000000E+01 0.  1.
         25    2    1    2    0    0  0.00000000000E+00  0.00000000000E+00  0.14822860375E+03  0.19389972872E+03  0.12500154329E+03 0.  0.
    9000005    1    3    3    0    0 -0.40457272495E+02  0.37002718975E+02  0.27595636570E+02  0.61388201366E+02  0.10000000000E+01 0.  0.
    9000005    1    3    3    0    0  0.40457272495E+02 -0.37002718975E+02  0.12063296718E+03  0.13251152735E+03  0.10000000000E+01 0.  0.
<mgrwt>
<rscale>  0 0.12500154E+03</rscale>
<asrwt>0</asrwt>
<pdfrwt beam="1">  1        4 0.26317565E-01 0.12500154E+03</pdfrwt>
<pdfrwt beam="2">  1       -4 0.35131634E-02 0.12500154E+03</pdfrwt>
<totfact> 0.91170016E+03</totfact>
</mgrwt>
</event>
<event>
 5    1  0.3266101E-002  0.1250024E+03  0.7818608E-02  0.1235066E+00
          4   -1    0    0  501    0  0.00000000000E+00  0.00000000000E+00  0.81420883195E+02  0.81430787299E+02  0.12700000000E+01 0. -1.
         -4   -1    0    0    0  501 -0.00000000000E+00 -0.00000000000E+00 -0.47956626100E+02  0.47973439390E+02  0.12700000000E+01 0. -1.
         25    2    1    2    0    0  0.00000000000E+00  0.00000000000E+00  0.33464257095E+02  0.12940422669E+03  0.12500238951E+03 0.  0.
    9000005    1    3    3    0    0  0.50073948215E+02 -0.16563320713E+02 -0.17969250213E+02  0.55728249893E+02  0.10000000000E+01 0.  0.
    9000005    1    3    3    0    0 -0.50073948215E+02  0.16563320713E+02  0.51433507308E+02  0.73675976796E+02  0.10000000000E+01 0.  0.
<mgrwt>
<rscale>  0 0.12500239E+03</rscale>
<asrwt>0</asrwt>
<pdfrwt beam="1">  1        4 0.12528345E-01 0.12500239E+03</pdfrwt>
<pdfrwt beam="2">  1       -4 0.73799977E-02 0.12500239E+03</pdfrwt>
<totfact> 0.10356710E+04</totfact>
</mgrwt>
</event>
<event>
 5    1  0.3266101E-002  0.1250051E+03  0.7818608E-02  0.1235061E+00
         -4   -1    0    0    0  501 -0.00000000000E+00  0.00000000000E+00  0.22441017038E+02  0.22476924739E+02  0.12700000000E+01 0. -1.
          4   -1    0    0  501    0  0.00000000000E+00 -0.00000000000E+00 -0.17390434642E+03  0.17390898368E+03  0.12700000000E+01 0. -1.
         25    2    1    2    0    0  0.00000000000E+00  0.00000000000E+00 -0.15146332938E+03  0.19638590842E+03  0.12500513940E+03 0.  0.
    9000005    1    3    3    0    0  0.44962954596E+02 -0.65588457198E+00 -0.75508417328E+01  0.45608252339E+02  0.10000000000E+01 0.  0.
    9000005    1    3    3    0    0 -0.44962954596E+02  0.65588457198E+00 -0.14391248765E+03  0.15077765608E+03  0.10000000000E+01 0.  0.
<mgrwt>
<rscale>  0 0.12500514E+03</rscale>
<asrwt>0</asrwt>
<pdfrwt beam="2">  1        4 0.26757633E-01 0.12500514E+03</pdfrwt>
<pdfrwt beam="1">  1       -4 0.34555831E-02 0.12500514E+03</pdfrwt>
<totfact> 0.90737467E+03</totfact>
</mgrwt>
</event>
<event>
 5    1  0.3266101E-002  0.1249995E+03  0.7818608E-02  0.1235070E+00
         -4   -1    0    0    0  501 -0.00000000000E+00  0.00000000000E+00  0.65133564244E+03  0.65133688059E+03  0.12700000000E+01 0. -1.
          4   -1    0    0  501    0  0.00000000000E+00 -0.00000000000E+00 -0.59287541292E+01  0.60632520584E+01  0.12700000000E+01 0. -1.
         25    2    1    2    0    0  0.00000000000E+00  0.00000000000E+00  0.64540688831E+03  0.65740013265E+03  0.12499953169E+03 0.  0.
    9000005    1    3    3    0    0 -0.24549373726E+02 -0.57459623102E+02  0.32780432820E+03  0.33370789266E+03  0.10000000000E+01 0.  0.
    9000005    1    3    3    0    0  0.24549373726E+02  0.57459623102E+02  0.31760256011E+03  0.32369223998E+03  0.10000000000E+01 0.  0.
<mgrwt>
<rscale>  0 0.12499953E+03</rscale>
<asrwt>0</asrwt>
<pdfrwt beam="2">  1        4 0.92255758E-03 0.12499953E+03</pdfrwt>
<pdfrwt beam="1">  1       -4 0.10021589E+00 0.12499953E+03</pdfrwt>
<totfact> 0.45433138E+03</totfact>
</mgrwt>
</event>
<event>
 5    1  0.3266101E-002  0.1249978E+03  0.7818608E-02  0.1235073E+00
         -4   -1    0    0    0  501 -0.00000000000E+00  0.00000000000E+00  0.55261956023E+03  0.55262101955E+03  0.12700000000E+01 0.  1.
          4   -1    0    0  501    0  0.00000000000E+00 -0.00000000000E+00 -0.70098251936E+01  0.71239419738E+01  0.12700000000E+01 0.  1.
         25    2    1    2    0    0  0.00000000000E+00  0.00000000000E+00  0.54560973504E+03  0.55974496153E+03  0.12499775592E+03 0.  0.
    9000005    1    3    3    0    0 -0.13260968254E+02 -0.60323581723E+02  0.23024653119E+03  0.23838886911E+03  0.10000000000E+01 0.  0.
    9000005    1    3    3    0    0  0.13260968254E+02  0.60323581723E+02  0.31536320385E+03  0.32135609242E+03  0.10000000000E+01 0.  0.
<mgrwt>
<rscale>  0 0.12499776E+03</rscale>
<asrwt>0</asrwt>
<pdfrwt beam="2">  1        4 0.10873253E-02 0.12499776E+03</pdfrwt>
<pdfrwt beam="1">  1       -4 0.85027272E-01 0.12499776E+03</pdfrwt>
<totfact> 0.51513925E+03</totfact>
</mgrwt>
</event>
<event>
 5    1  0.3266101E-002  0.1249962E+03  0.7818608E-02  0.1235075E+00
         -4   -1    0    0    0  501 -0.00000000000E+00  0.00000000000E+00  0.11524851341E+02  0.11594615062E+02  0.12700000000E+01 0.  1.
          4   -1    0    0  501    0  0.00000000000E+00 -0.00000000000E+00 -0.33782720631E+03  0.33782959346E+03  0.12700000000E+01 0.  1.
         25    2    1    2    0    0  0.00000000000E+00  0.00000000000E+00 -0.32630235497E+03  0.34942420853E+03  0.12499620254E+03 0.  0.
    9000005    1    3    3    0    0  0.48664759748E+02 -0.29111001429E+02 -0.23654531759E+03  0.24324965883E+03  0.10000000000E+01 0.  0.
    9000005    1    3    3    0    0 -0.48664759748E+02  0.29111001429E+02 -0.89757037376E+02  0.10617454970E+03  0.10000000000E+01 0.  0.
<mgrwt>
<rscale>  0 0.12499620E+03</rscale>
<asrwt>0</asrwt>
<pdfrwt beam="2">  1        4 0.51978959E-01 0.12499620E+03</pdfrwt>
<pdfrwt beam="1">  1       -4 0.17786044E-02 0.12499620E+03</pdfrwt>
<totfact> 0.69793815E+03</totfact>
</mgrwt>
</event>
<event>
 5    1  0.3266101E-002  0.1250103E+03  0.7818608E-02  0.1235053E+00
         -4   -1    0    0    0  501 -0.00000000000E+00  0.00000000000E+00  0.23628653562E+03  0.23628994861E+03  0.12700000000E+01 0.  1.
          4   -1    0    0  501    0  0.00000000000E+00 -0.00000000000E+00 -0.16506645424E+02  0.16555429416E+02  0.12700000000E+01 0.  1.
         25    2    1    2    0    0  0.00000000000E+00  0.00000000000E+00  0.21977989020E+03  0.25284537803E+03  0.12501033979E+03 0.  0.
    9000005    1    3    3    0    0 -0.22426471998E+02  0.25050923555E+02  0.21644448098E+03  0.21904270991E+03  0.10000000000E+01 0.  0.
    9000005    1    3    3    0    0  0.22426471998E+02 -0.25050923555E+02  0.33354092135E+01  0.33802668117E+02  0.10000000000E+01 0.  0.
<mgrwt>
<rscale>  0 0.12501034E+03</rscale>
<asrwt>0</asrwt>
<pdfrwt beam="2">  1        4 0.25434994E-02 0.12501034E+03</pdfrwt>
<pdfrwt beam="1">  1       -4 0.36355786E-01 0.12501034E+03</pdfrwt>
<totfact> 0.81901854E+03</totfact>
</mgrwt>
</event>
<event>
 5    1  0.3266101E-002  0.1249960E+03  0.7818608E-02  0.1235076E+00
          4   -1    0    0  501    0  0.00000000000E+00  0.00000000000E+00  0.71345540931E+02  0.71356843475E+02  0.12700000000E+01 0. -1.
         -4   -1    0    0    0  501 -0.00000000000E+00 -0.00000000000E+00 -0.54724601686E+02  0.54739336219E+02  0.12700000000E+01 0. -1.
         25    2    1    2    0    0  0.00000000000E+00  0.00000000000E+00  0.16620939244E+02  0.12609617969E+03  0.12499596358E+03 0.  0.
    9000005    1    3    3    0    0  0.23492845548E+02  0.57592546428E+02  0.22423320583E+01  0.62248238923E+02  0.10000000000E+01 0.  0.
    9000005    1    3    3    0    0 -0.23492845548E+02 -0.57592546428E+02  0.14378607186E+02  0.63847940770E+02  0.10000000000E+01 0.  0.
<mgrwt>
<rscale>  0 0.12499596E+03</rscale>
<asrwt>0</asrwt>
<pdfrwt beam="1">  1        4 0.10978240E-01 0.12499596E+03</pdfrwt>
<pdfrwt beam="2">  1       -4 0.84211723E-02 0.12499596E+03</pdfrwt>
<totfact> 0.10429800E+04</totfact>
</mgrwt>
</event>
<event>
 5    1  0.3266101E-002  0.1249961E+03  0.7818608E-02  0.1235075E+00
         -4   -1    0    0    0  501 -0.00000000000E+00  0.00000000000E+00  0.36383159254E+03  0.36383380909E+03  0.12700000000E+01 0.  1.
          4   -1    0    0  501    0  0.00000000000E+00 -0.00000000000E+00 -0.10695934556E+02  0.10771068472E+02  0.12700000000E+01 0.  1.
         25    2    1    2    0    0  0.00000000000E+00  0.00000000000E+00  0.35313565799E+03  0.37460487756E+03  0.12499608532E+03 0.  0.
    9000005    1    3    3    0    0  0.37434509438E+02  0.14585627678E+02  0.32001176594E+03  0.32252536858E+03  0.10000000000E+01 0.  0.
    9000005    1    3    3    0    0 -0.37434509438E+02 -0.14585627678E+02  0.33123892044E+02  0.52079508982E+02  0.10000000000E+01 0.  0.
<mgrwt>
<rscale>  0 0.12499609E+03</rscale>
<asrwt>0</asrwt>
<pdfrwt beam="2">  1        4 0.16514786E-02 0.12499609E+03</pdfrwt>
<pdfrwt beam="1">  1       -4 0.55980035E-01 0.12499609E+03</pdfrwt>
<totfact> 0.67105725E+03</totfact>
</mgrwt>
</event>
<event>
 5    1  0.3266101E-002  0.1249982E+03  0.7818608E-02  0.1235072E+00
          4   -1    0    0  501    0  0.00000000000E+00  0.00000000000E+00  0.49453516186E+03  0.49453679259E+03  0.12700000000E+01 0. -1.
         -4   -1    0    0    0  501 -0.00000000000E+00 -0.00000000000E+00 -0.78458990573E+01  0.79480206351E+01  0.12700000000E+01 0. -1.
         25    2    1    2    0    0  0.00000000000E+00  0.00000000000E+00  0.48668926281E+03  0.50248481322E+03  0.12499819593E+03 0.  0.
    9000005    1    3    3    0    0  0.26887079288E+02  0.26671016841E+02  0.43521876962E+02  0.57701056717E+02  0.10000000000E+01 0.  0.
    9000005    1    3    3    0    0 -0.26887079288E+02 -0.26671016841E+02  0.44316738585E+03  0.44478375650E+03  0.10000000000E+01 0.  0.
<mgrwt>
<rscale>  0 0.12499820E+03</rscale>
<asrwt>0</asrwt>
<pdfrwt beam="1">  1        4 0.76090315E-01 0.12499820E+03</pdfrwt>
<pdfrwt beam="2">  1       -4 0.12150423E-02 0.12499820E+03</pdfrwt>
<totfact> 0.55674296E+03</totfact>
</mgrwt>
</event>
<event>
 5    1  0.3266101E-002  0.1249965E+03  0.7818608E-02  0.1235075E+00
         -4   -1    0    0    0  501 -0.00000000000E+00  0.00000000000E+00  0.60964855430E+03  0.60964987711E+03  0.12700000000E+01 0.  1.
          4   -1    0    0  501    0  0.00000000000E+00 -0.00000000000E+00 -0.63427462219E+01  0.64686420240E+01  0.12700000000E+01 0.  1.
         25    2    1    2    0    0  0.00000000000E+00  0.00000000000E+00  0.60330580807E+03  0.61611851913E+03  0.12499652619E+03 0.  0.
    9000005    1    3    3    0    0  0.35625658754E+02  0.40361554502E+02  0.14525323883E+03  0.15491205903E+03  0.10000000000E+01 0.  0.
    9000005    1    3    3    0    0 -0.35625658754E+02 -0.40361554502E+02  0.45805256924E+03  0.46120646010E+03  0.10000000000E+01 0.  0.
<mgrwt>
<rscale>  0 0.12499653E+03</rscale>
<asrwt>0</asrwt>
<pdfrwt beam="2">  1        4 0.98559290E-03 0.12499653E+03</pdfrwt>
<pdfrwt beam="1">  1       -4 0.93801896E-01 0.12499653E+03</pdfrwt>
<totfact> 0.47869352E+03</totfact>
</mgrwt>
</event>
<event>
 5    1  0.3266101E-002  0.1250060E+03  0.7818608E-02  0.1235060E+00
         -4   -1    0    0    0  501 -0.00000000000E+00  0.00000000000E+00  0.19275254284E+03  0.19275672665E+03  0.12700000000E+01 0.  1.
          4   -1    0    0  501    0  0.00000000000E+00 -0.00000000000E+00 -0.20243253710E+02  0.20283052551E+02  0.12700000000E+01 0.  1.
         25    2    1    2    0    0  0.00000000000E+00  0.00000000000E+00  0.17250928913E+03  0.21303977921E+03  0.12500597061E+03 0.  0.
    9000005    1    3    3    0    0 -0.27099654551E+02 -0.74187371926E+01  0.18139005729E+03  0.18355593649E+03  0.10000000000E+01 0.  0.
    9000005    1    3    3    0    0  0.27099654551E+02  0.74187371926E+01 -0.88807681569E+01  0.29483842717E+02  0.10000000000E+01 0.  0.
<mgrwt>
<rscale>  0 0.12500597E+03</rscale>
<asrwt>0</asrwt>
<pdfrwt beam="2">  1        4 0.31177299E-02 0.12500597E+03</pdfrwt>
<pdfrwt beam="1">  1       -4 0.29657621E-01 0.12500597E+03</pdfrwt>
<totfact> 0.87970098E+03</totfact>
</mgrwt>
</event>
<event>
 5    1  0.3266101E-002  0.1250001E+03  0.7818608E-02  0.1235069E+00
          4   -1    0    0  501    0  0.00000000000E+00  0.00000000000E+00  0.37733726146E+03  0.37733939866E+03  0.12700000000E+01 0. -1.
         -4   -1    0    0    0  501 -0.00000000000E+00 -0.00000000000E+00 -0.10311042336E+02  0.10388960201E+02  0.12700000000E+01 0. -1.
         25    2    1    2    0    0  0.00000000000E+00  0.00000000000E+00  0.36702621912E+03  0.38772835886E+03  0.12500013898E+03 0.  0.
    9000005    1    3    3    0    0 -0.38053291548E+02  0.36995488017E+02  0.28585164053E+03  0.29073850713E+03  0.10000000000E+01 0.  0.
    9000005    1    3    3    0    0  0.38053291548E+02 -0.36995488017E+02  0.81174578588E+02  0.96989851738E+02  0.10000000000E+01 0.  0.
<mgrwt>
<rscale>  0 0.12500014E+03</rscale>
<asrwt>0</asrwt>
<pdfrwt beam="1">  1        4 0.58058040E-01 0.12500014E+03</pdfrwt>
<pdfrwt beam="2">  1       -4 0.15924724E-02 0.12500014E+03</pdfrwt>
<totfact> 0.65763873E+03</totfact>
</mgrwt>
</event>
<event>
 5    1  0.3266101E-002  0.1250012E+03  0.7818608E-02  0.1235067E+00
          4   -1    0    0  501    0  0.00000000000E+00  0.00000000000E+00  0.10183009563E+04  0.10183017483E+04  0.12700000000E+01 0.  1.
         -4   -1    0    0    0  501 -0.00000000000E+00 -0.00000000000E+00 -0.37301927853E+01  0.39404616755E+01  0.12700000000E+01 0.  1.
         25    2    1    2    0    0  0.00000000000E+00  0.00000000000E+00  0.10145707635E+04  0.10222422099E+04  0.12500120634E+03 0.  0.
    9000005    1    3    3    0    0  0.29569092355E+01 -0.47692203693E+02  0.83664459908E+03  0.83800863646E+03  0.10000000000E+01 0.  0.
    9000005    1    3    3    0    0 -0.29569092355E+01  0.47692203693E+02  0.17792616445E+03  0.18423357349E+03  0.10000000000E+01 0.  0.
<mgrwt>
<rscale>  0 0.12500121E+03</rscale>
<asrwt>0</asrwt>
<pdfrwt beam="1">  1        4 0.15667767E+00 0.12500121E+03</pdfrwt>
<pdfrwt beam="2">  1       -4 0.59011221E-03 0.12500121E+03</pdfrwt>
<totfact> 0.29876802E+03</totfact>
</mgrwt>
</event>
<event>
 5    1  0.3266101E-002  0.1250064E+03  0.7818608E-02  0.1235059E+00
         -4   -1    0    0    0  501 -0.00000000000E+00  0.00000000000E+00  0.25070084447E+02  0.25102231657E+02  0.12700000000E+01 0. -1.
          4   -1    0    0  501    0  0.00000000000E+00 -0.00000000000E+00 -0.15569455843E+03  0.15569973803E+03  0.12700000000E+01 0. -1.
         25    2    1    2    0    0  0.00000000000E+00  0.00000000000E+00 -0.13062447398E+03  0.18080196969E+03  0.12500639600E+03 0.  0.
    9000005    1    3    3    0    0  0.32561698796E+02 -0.28132122896E+02 -0.13086151096E+03  0.13775854100E+03  0.10000000000E+01 0.  0.
    9000005    1    3    3    0    0 -0.32561698796E+02  0.28132122896E+02  0.23703697941E+00  0.43043428693E+02  0.10000000000E+01 0.  0.
<mgrwt>
<rscale>  0 0.12500640E+03</rscale>
<asrwt>0</asrwt>
<pdfrwt beam="2">  1        4 0.23955880E-01 0.12500640E+03</pdfrwt>
<pdfrwt beam="1">  1       -4 0.38598074E-02 0.12500640E+03</pdfrwt>
<totfact> 0.93459442E+03</totfact>
</mgrwt>
</event>
<event>
 5    1  0.3266101E-002  0.1249947E+03  0.7818608E-02  0.1235078E+00
         -4   -1    0    0    0  501 -0.00000000000E+00  0.00000000000E+00  0.30498537194E+02  0.30524967993E+02  0.12700000000E+01 0. -1.
          4   -1    0    0  501    0  0.00000000000E+00 -0.00000000000E+00 -0.12798392403E+03  0.12799022506E+03  0.12700000000E+01 0. -1.
         25    2    1    2    0    0  0.00000000000E+00  0.00000000000E+00 -0.97485386835E+02  0.15851519305E+03  0.12499466301E+03 0.  0.
    9000005    1    3    3    0    0  0.29233242593E+02  0.23371765779E+02 -0.11220338261E+03  0.11828533712E+03  0.10000000000E+01 0.  0.
    9000005    1    3    3    0    0 -0.29233242593E+02 -0.23371765779E+02  0.14717995779E+02  0.40229855927E+02  0.10000000000E+01 0.  0.
<mgrwt>
<rscale>  0 0.12499466E+03</rscale>
<asrwt>0</asrwt>
<pdfrwt beam="2">  1        4 0.19692352E-01 0.12499466E+03</pdfrwt>
<pdfrwt beam="1">  1       -4 0.46946005E-02 0.12499466E+03</pdfrwt>
<totfact> 0.97641525E+03</totfact>
</mgrwt>
</event>
<event>
 5    1  0.3266101E-002  0.1250342E+03  0.7818608E-02  0.1235016E+00
          4   -1    0    0  501    0  0.00000000000E+00  0.00000000000E+00  0.62585195609E+03  0.62585324465E+03  0.12700000000E+01 0. -1.
         -4   -1    0    0    0  501 -0.00000000000E+00 -0.00000000000E+00 -0.61790294400E+01  0.63081934672E+01  0.12700000000E+01 0. -1.
         25    2    1    2    0    0  0.00000000000E+00  0.00000000000E+00  0.61967292665E+03  0.63216143812E+03  0.12503418661E+03 0.  0.
    9000005    1    3    3    0    0 -0.58576087513E+01 -0.43271476894E+02  0.83692347330E+02  0.94404138121E+02  0.10000000000E+01 0.  0.
    9000005    1    3    3    0    0  0.58576087513E+01  0.43271476894E+02  0.53598057932E+03  0.53775730000E+03  0.10000000000E+01 0.  0.
<mgrwt>
<rscale>  0 0.12503419E+03</rscale>
<asrwt>0</asrwt>
<pdfrwt beam="1">  1        4 0.96294992E-01 0.12503419E+03</pdfrwt>
<pdfrwt beam="2">  1       -4 0.96065432E-03 0.12503419E+03</pdfrwt>
<totfact> 0.46863318E+03</totfact>
</mgrwt>
</event>
<event>
 5    1  0.3266101E-002  0.1250040E+03  0.7818608E-02  0.1235063E+00
          4   -1    0    0  501    0  0.00000000000E+00  0.00000000000E+00  0.61855103723E+02  0.61868140077E+02  0.12700000000E+01 0.  1.
         -4   -1    0    0    0  501 -0.00000000000E+00 -0.00000000000E+00 -0.63129558077E+02  0.63142331308E+02  0.12700000000E+01 0.  1.
         25    2    1    2    0    0  0.00000000000E+00  0.00000000000E+00 -0.12744543541E+01  0.12501047138E+03  0.12500397482E+03 0.  0.
    9000005    1    3    3    0    0  0.61995239315E+02 -0.74441654396E+01 -0.32206023461E+01  0.62531572636E+02  0.10000000000E+01 0.  0.
    9000005    1    3    3    0    0 -0.61995239315E+02  0.74441654396E+01  0.19461479919E+01  0.62478898749E+02  0.10000000000E+01 0.  0.
<mgrwt>
<rscale>  0 0.12500397E+03</rscale>
<asrwt>0</asrwt>
<pdfrwt beam="1">  1        4 0.95181551E-02 0.12500397E+03</pdfrwt>
<pdfrwt beam="2">  1       -4 0.97142251E-02 0.12500397E+03</pdfrwt>
<totfact> 0.10451696E+04</totfact>
</mgrwt>
</event>
<event>
 5    1  0.3266101E-002  0.1249967E+03  0.7818608E-02  0.1235074E+00
         -4   -1    0    0    0  501 -0.00000000000E+00  0.00000000000E+00  0.78273373145E+02  0.78283675460E+02  0.12700000000E+01 0.  1.
          4   -1    0    0  501    0  0.00000000000E+00 -0.00000000000E+00 -0.49880889869E+02  0.49897054764E+02  0.12700000000E+01 0.  1.
         25    2    1    2    0    0  0.00000000000E+00  0.00000000000E+00  0.28392483276E+02  0.12818073022E+03  0.12499666593E+03 0.  0.
    9000005    1    3    3    0    0  0.91831109802E+01  0.52155489962E+02 -0.19822847623E+02  0.56555017004E+02  0.10000000000E+01 0.  0.
    9000005    1    3    3    0    0 -0.91831109802E+01 -0.52155489962E+02  0.48215330900E+02  0.71625713220E+02  0.10000000000E+01 0.  0.
<mgrwt>
<rscale>  0 0.12499667E+03</rscale>
<asrwt>0</asrwt>
<pdfrwt beam="2">  1        4 0.76760189E-02 0.12499667E+03</pdfrwt>
<pdfrwt beam="1">  1       -4 0.12044093E-01 0.12499667E+03</pdfrwt>
<totfact> 0.10384368E+04</totfact>
</mgrwt>
</event>
<event>
 5    1  0.3266101E-002  0.1249963E+03  0.7818608E-02  0.1235075E+00
         -4   -1    0    0    0  501 -0.00000000000E+00  0.00000000000E+00  0.97159151081E+02  0.97167451026E+02  0.12700000000E+01 0. -1.
          4   -1    0    0  501    0  0.00000000000E+00 -0.00000000000E+00 -0.40182225345E+02  0.40202290155E+02  0.12700000000E+01 0. -1.
         25    2    1    2    0    0  0.00000000000E+00  0.00000000000E+00  0.56976925736E+02  0.13736974118E+03  0.12499630285E+03 0.  0.
    9000005    1    3    3    0    0 -0.16076437987E+02 -0.17387103269E+01  0.94825476917E+02  0.96199511664E+02  0.10000000000E+01 0.  0.
    9000005    1    3    3    0    0  0.16076437987E+02  0.17387103269E+01 -0.37848551181E+02  0.41170229516E+02  0.10000000000E+01 0.  0.
<mgrwt>
<rscale>  0 0.12499630E+03</rscale>
<asrwt>0</asrwt>
<pdfrwt beam="2">  1        4 0.61840627E-02 0.12499630E+03</pdfrwt>
<pdfrwt beam="1">  1       -4 0.14949744E-01 0.12499630E+03</pdfrwt>
<totfact> 0.10189210E+04</totfact>
</mgrwt>
</event>
<event>
 5    1  0.3266101E-002  0.1249797E+03  0.7818608E-02  0.1235101E+00
          4   -1    0    0  501    0  0.00000000000E+00  0.00000000000E+00  0.48918750195E+02  0.48935232917E+02  0.12700000000E+01 0.  1.
         -4   -1    0    0    0  501 -0.00000000000E+00 -0.00000000000E+00 -0.79790858974E+02  0.79800965381E+02  0.12700000000E+01 0.  1.
         25    2    1    2    0    0  0.00000000000E+00  0.00000000000E+00 -0.30872108779E+02  0.12873619830E+03  0.12497968496E+03 0.  0.
    9000005    1    3    3    0    0 -0.91558550580E+01 -0.61142084255E+02 -0.61200863832E+01  0.62134045468E+02  0.10000000000E+01 0.  0.
    9000005    1    3    3    0    0  0.91558550580E+01  0.61142084255E+02 -0.24752022396E+02  0.66602152830E+02  0.10000000000E+01 0.  0.
<mgrwt>
<rscale>  0 0.12497968E+03</rscale>
<asrwt>0</asrwt>
<pdfrwt beam="1">  1        4 0.75280069E-02 0.12497968E+03</pdfrwt>
<pdfrwt beam="2">  1       -4 0.12277562E-01 0.12497968E+03</pdfrwt>
<totfact> 0.10376377E+04</totfact>
</mgrwt>
</event>
<event>
 5    1  0.3266101E-002  0.1250013E+03  0.7818608E-02  0.1235067E+00
          4   -1    0    0  501    0  0.00000000000E+00  0.00000000000E+00  0.12076533770E+03  0.12077201534E+03  0.12700000000E+01 0. -1.
         -4   -1    0    0    0  501 -0.00000000000E+00 -0.00000000000E+00 -0.32326403734E+02  0.32351341215E+02  0.12700000000E+01 0. -1.
         25    2    1    2    0    0  0.00000000000E+00  0.00000000000E+00  0.88438933965E+02  0.15312335656E+03  0.12500126912E+03 0.  0.
    9000005    1    3    3    0    0 -0.17258803156E+01  0.49196808627E+02 -0.29384632867E+01  0.49324833587E+02  0.10000000000E+01 0.  0.
    9000005    1    3    3    0    0  0.17258803156E+01 -0.49196808627E+02  0.91377397252E+02  0.10379852297E+03  0.10000000000E+01 0.  0.
<mgrwt>
<rscale>  0 0.12500127E+03</rscale>
<asrwt>0</asrwt>
<pdfrwt beam="1">  1        4 0.18581714E-01 0.12500127E+03</pdfrwt>
<pdfrwt beam="2">  1       -4 0.49757249E-02 0.12500127E+03</pdfrwt>
<totfact> 0.98681890E+03</totfact>
</mgrwt>
</event>
<event>
 5    1  0.3266101E-002  0.1249998E+03  0.7818608E-02  0.1235070E+00
          4   -1    0    0  501    0  0.00000000000E+00  0.00000000000E+00  0.29336902323E+02  0.29364378725E+02  0.12700000000E+01 0. -1.
         -4   -1    0    0    0  501 -0.00000000000E+00 -0.00000000000E+00 -0.13305821422E+03  0.13306427496E+03  0.12700000000E+01 0. -1.
         25    2    1    2    0    0  0.00000000000E+00  0.00000000000E+00 -0.10372131189E+03  0.16242865368E+03  0.12499982799E+03 0.  0.
    9000005    1    3    3    0    0 -0.15941443178E+02 -0.58226703018E+02 -0.72843980282E+02  0.94613550924E+02  0.10000000000E+01 0.  0.
    9000005    1    3    3    0    0  0.15941443178E+02  0.58226703018E+02 -0.30877331610E+02  0.67815102760E+02  0.10000000000E+01 0.  0.
<mgrwt>
<rscale>  0 0.12499983E+03</rscale>
<asrwt>0</asrwt>
<pdfrwt beam="1">  1        4 0.45159494E-02 0.12499983E+03</pdfrwt>
<pdfrwt beam="2">  1       -4 0.20473074E-01 0.12499983E+03</pdfrwt>
<totfact> 0.96876967E+03</totfact>
</mgrwt>
</event>
<event>
 5    1  0.3266101E-002  0.1250132E+03  0.7818608E-02  0.1235049E+00
         -4   -1    0    0    0  501 -0.00000000000E+00  0.00000000000E+00  0.19649714361E+03  0.19650124770E+03  0.12700000000E+01 0. -1.
          4   -1    0    0  501    0  0.00000000000E+00 -0.00000000000E+00 -0.19859011720E+02  0.19899579053E+02  0.12700000000E+01 0. -1.
         25    2    1    2    0    0  0.00000000000E+00  0.00000000000E+00  0.17663813189E+03  0.21640082675E+03  0.12501315203E+03 0.  0.
    9000005    1    3    3    0    0  0.49669906787E+02  0.59008108794E+01  0.15318406273E+03  0.16114675388E+03  0.10000000000E+01 0.  0.
    9000005    1    3    3    0    0 -0.49669906787E+02 -0.59008108794E+01  0.23454069155E+02  0.55254072874E+02  0.10000000000E+01 0.  0.
<mgrwt>
<rscale>  0 0.12501315E+03</rscale>
<asrwt>0</asrwt>
<pdfrwt beam="2">  1        4 0.30586690E-02 0.12501315E+03</pdfrwt>
<pdfrwt beam="1">  1       -4 0.30233764E-01 0.12501315E+03</pdfrwt>
<totfact> 0.87415405E+03</totfact>
</mgrwt>
</event>
<event>
 5    1  0.3266101E-002  0.1250000E+03  0.7818608E-02  0.1235069E+00
          4   -1    0    0  501    0  0.00000000000E+00  0.00000000000E+00  0.10378703798E+03  0.10379480793E+03  0.12700000000E+01 0.  1.
         -4   -1    0    0    0  501 -0.00000000000E+00 -0.00000000000E+00 -0.37617263547E+02  0.37638695737E+02  0.12700000000E+01 0.  1.
         25    2    1    2    0    0  0.00000000000E+00  0.00000000000E+00  0.66169774432E+02  0.14143350366E+03  0.12499998764E+03 0.  0.
    9000005    1    3    3    0    0 -0.59270311814E+02  0.19798814662E+02  0.33690305053E+02  0.70999997036E+02  0.10000000000E+01 0.  0.
    9000005    1    3    3    0    0  0.59270311814E+02 -0.19798814662E+02  0.32479469379E+02  0.70433506626E+02  0.10000000000E+01 0.  0.
<mgrwt>
<rscale>  0 0.12499999E+03</rscale>
<asrwt>0</asrwt>
<pdfrwt beam="1">  1        4 0.15969483E-01 0.12499999E+03</pdfrwt>
<pdfrwt beam="2">  1       -4 0.57895176E-02 0.12499999E+03</pdfrwt>
<totfact> 0.10103965E+04</totfact>
</mgrwt>
</event>
<event>
 5    1  0.3266101E-002  0.1249992E+03  0.7818608E-02  0.1235071E+00
         -4   -1    0    0    0  501 -0.00000000000E+00  0.00000000000E+00  0.98661374784E+02  0.98669548363E+02  0.12700000000E+01 0.  1.
          4   -1    0    0  501    0  0.00000000000E+00 -0.00000000000E+00 -0.39571980490E+02  0.39592354564E+02  0.12700000000E+01 0.  1.
         25    2    1    2    0    0  0.00000000000E+00  0.00000000000E+00  0.59089394294E+02  0.13826190293E+03  0.12499918913E+03 0.  0.
    9000005    1    3    3    0    0 -0.54156824138E+02  0.14639605173E+02 -0.90667916664E+00  0.56116857605E+02  0.10000000000E+01 0.  0.
    9000005    1    3    3    0    0  0.54156824138E+02 -0.14639605173E+02  0.59996073460E+02  0.82145045322E+02  0.10000000000E+01 0.  0.
<mgrwt>
<rscale>  0 0.12499919E+03</rscale>
<asrwt>0</asrwt>
<pdfrwt beam="2">  1        4 0.60901931E-02 0.12499919E+03</pdfrwt>
<pdfrwt beam="1">  1       -4 0.15180869E-01 0.12499919E+03</pdfrwt>
<totfact> 0.10169922E+04</totfact>
</mgrwt>
</event>
<event>
 5    1  0.3266101E-002  0.1249791E+03  0.7818608E-02  0.1235102E+00
         -4   -1    0    0    0  501 -0.00000000000E+00  0.00000000000E+00  0.10996580824E+03  0.10997314164E+03  0.12700000000E+01 0.  1.
          4   -1    0    0  501    0  0.00000000000E+00 -0.00000000000E+00 -0.35490675517E+02  0.35513391118E+02  0.12700000000E+01 0.  1.
         25    2    1    2    0    0  0.00000000000E+00  0.00000000000E+00  0.74475132720E+02  0.14548653275E+03  0.12497914154E+03 0.  0.
    9000005    1    3    3    0    0  0.28476611677E+02 -0.52314002072E+02  0.59209964573E+02  0.83991024105E+02  0.10000000000E+01 0.  0.
    9000005    1    3    3    0    0 -0.28476611677E+02  0.52314002072E+02  0.15265168147E+02  0.61495508649E+02  0.10000000000E+01 0.  0.
<mgrwt>
<rscale>  0 0.12497914E+03</rscale>
<asrwt>0</asrwt>
<pdfrwt beam="2">  1        4 0.54624155E-02 0.12497914E+03</pdfrwt>
<pdfrwt beam="1">  1       -4 0.16920128E-01 0.12497914E+03</pdfrwt>
<totfact> 0.10025821E+04</totfact>
</mgrwt>
</event>
<event>
 5    1  0.3266101E-002  0.1250002E+03  0.7818608E-02  0.1235069E+00
         -4   -1    0    0    0  501 -0.00000000000E+00  0.00000000000E+00  0.11856471548E+02  0.11924295266E+02  0.12700000000E+01 0. -1.
          4   -1    0    0  501    0  0.00000000000E+00 -0.00000000000E+00 -0.32845396950E+03  0.32845642478E+03  0.12700000000E+01 0. -1.
         25    2    1    2    0    0  0.00000000000E+00  0.00000000000E+00 -0.31659749795E+03  0.34038072005E+03  0.12500023548E+03 0.  0.
    9000005    1    3    3    0    0 -0.31226469559E+02  0.60590964266E+01 -0.11823974507E+02  0.33950131425E+02  0.10000000000E+01 0.  0.
    9000005    1    3    3    0    0  0.31226469559E+02 -0.60590964266E+01 -0.30477352344E+03  0.30643058862E+03  0.10000000000E+01 0.  0.
<mgrwt>
<rscale>  0 0.12500024E+03</rscale>
<asrwt>0</asrwt>
<pdfrwt beam="2">  1        4 0.50536779E-01 0.12500024E+03</pdfrwt>
<pdfrwt beam="1">  1       -4 0.18294789E-02 0.12500024E+03</pdfrwt>
<totfact> 0.70795555E+03</totfact>
</mgrwt>
</event>
<event>
 5    1  0.3266101E-002  0.1249426E+03  0.7818608E-02  0.1235159E+00
         -4   -1    0    0    0  501 -0.00000000000E+00  0.00000000000E+00  0.34949223143E+02  0.34972290436E+02  0.12700000000E+01 0.  1.
          4   -1    0    0  501    0  0.00000000000E+00 -0.00000000000E+00 -0.11160312593E+03  0.11161035175E+03  0.12700000000E+01 0.  1.
         25    2    1    2    0    0  0.00000000000E+00  0.00000000000E+00 -0.76653902784E+02  0.14658264218E+03  0.12494258752E+03 0.  0.
    9000005    1    3    3    0    0  0.25970769457E+02 -0.19233975289E+01 -0.10493622375E+03  0.10812396302E+03  0.10000000000E+01 0.  0.
    9000005    1    3    3    0    0 -0.25970769457E+02  0.19233975289E+01  0.28282320961E+02  0.38458679166E+02  0.10000000000E+01 0.  0.
<mgrwt>
<rscale>  0 0.12494259E+03</rscale>
<asrwt>0</asrwt>
<pdfrwt beam="2">  1        4 0.17172042E-01 0.12494259E+03</pdfrwt>
<pdfrwt beam="1">  1       -4 0.53791339E-02 0.12494259E+03</pdfrwt>
<totfact> 0.10011867E+04</totfact>
</mgrwt>
</event>
<event>
 5    1  0.3266101E-002  0.1249971E+03  0.7818608E-02  0.1235074E+00
          4   -1    0    0  501    0  0.00000000000E+00  0.00000000000E+00  0.21114090131E+02  0.21152250520E+02  0.12700000000E+01 0.  1.
         -4   -1    0    0    0  501 -0.00000000000E+00 -0.00000000000E+00 -0.18479074099E+03  0.18479510507E+03  0.12700000000E+01 0.  1.
         25    2    1    2    0    0  0.00000000000E+00  0.00000000000E+00 -0.16367665086E+03  0.20594735559E+03  0.12499706891E+03 0.  0.
    9000005    1    3    3    0    0 -0.38676003931E+02 -0.48799178821E+02 -0.73139642339E+02  0.96060399828E+02  0.10000000000E+01 0.  0.
    9000005    1    3    3    0    0  0.38676003931E+02  0.48799178821E+02 -0.90537008525E+02  0.10988695576E+03  0.10000000000E+01 0.  0.
<mgrwt>
<rscale>  0 0.12499707E+03</rscale>
<asrwt>0</asrwt>
<pdfrwt beam="1">  1        4 0.32515928E-02 0.12499707E+03</pdfrwt>
<pdfrwt beam="2">  1       -4 0.28432615E-01 0.12499707E+03</pdfrwt>
<totfact> 0.89147882E+03</totfact>
</mgrwt>
</event>
<event>
 5    1  0.3266101E-002  0.1249999E+03  0.7818608E-02  0.1235070E+00
         -4   -1    0    0    0  501 -0.00000000000E+00  0.00000000000E+00  0.23126404345E+01  0.26384097065E+01  0.12700000000E+01 0. -1.
          4   -1    0    0  501    0  0.00000000000E+00 -0.00000000000E+00 -0.15776184265E+04  0.15776189377E+04  0.12700000000E+01 0. -1.
         25    2    1    2    0    0  0.00000000000E+00  0.00000000000E+00 -0.15753057861E+04  0.15802573474E+04  0.12499985745E+03 0.  0.
    9000005    1    3    3    0    0  0.49069510723E+02  0.38693884025E+02 -0.79341228809E+03  0.79587002232E+03  0.10000000000E+01 0.  0.
    9000005    1    3    3    0    0 -0.49069510723E+02 -0.38693884025E+02 -0.78189349800E+03  0.78438732509E+03  0.10000000000E+01 0.  0.
<mgrwt>
<rscale>  0 0.12499986E+03</rscale>
<asrwt>0</asrwt>
<pdfrwt beam="2">  1        4 0.24273482E+00 0.12499986E+03</pdfrwt>
<pdfrwt beam="1">  1       -4 0.38089059E-03 0.12499986E+03</pdfrwt>
<totfact> 0.16405753E+03</totfact>
</mgrwt>
</event>
<event>
 5    1  0.3266101E-002  0.1250004E+03  0.7818608E-02  0.1235069E+00
         -4   -1    0    0    0  501 -0.00000000000E+00  0.00000000000E+00  0.12647906031E+04  0.12647912408E+04  0.12700000000E+01 0.  1.
          4   -1    0    0  501    0  0.00000000000E+00 -0.00000000000E+00 -0.29572523466E+01  0.32184221975E+01  0.12700000000E+01 0.  1.
         25    2    1    2    0    0  0.00000000000E+00  0.00000000000E+00  0.12618333508E+04  0.12680096630E+04  0.12500040067E+03 0.  0.
    9000005    1    3    3    0    0  0.61974404437E+02 -0.14087052162E+01  0.71108915397E+03  0.71378680020E+03  0.10000000000E+01 0.  0.
    9000005    1    3    3    0    0 -0.61974404437E+02  0.14087052162E+01  0.55074419683E+03  0.55422286276E+03  0.10000000000E+01 0.  0.
<mgrwt>
<rscale>  0 0.12500040E+03</rscale>
<asrwt>0</asrwt>
<pdfrwt beam="2">  1        4 0.47509994E-03 0.12500040E+03</pdfrwt>
<pdfrwt beam="1">  1       -4 0.19460372E+00 0.12500040E+03</pdfrwt>
<totfact> 0.22996096E+03</totfact>
</mgrwt>
</event>
<event>
 5    1  0.3266101E-002  0.1250008E+03  0.7818608E-02  0.1235068E+00
          4   -1    0    0  501    0  0.00000000000E+00  0.00000000000E+00  0.41420678481E+02  0.41440143651E+02  0.12700000000E+01 0. -1.
         -4   -1    0    0    0  501 -0.00000000000E+00 -0.00000000000E+00 -0.94262036338E+02  0.94270591356E+02  0.12700000000E+01 0. -1.
         25    2    1    2    0    0  0.00000000000E+00  0.00000000000E+00 -0.52841357857E+02  0.13571073501E+03  0.12500077798E+03 0.  0.
    9000005    1    3    3    0    0  0.22240765269E+02 -0.21617506519E+02 -0.85321451926E+02  0.90789417812E+02  0.10000000000E+01 0.  0.
    9000005    1    3    3    0    0 -0.22240765269E+02  0.21617506519E+02  0.32480094068E+02  0.44921317195E+02  0.10000000000E+01 0.  0.
<mgrwt>
<rscale>  0 0.12500078E+03</rscale>
<asrwt>0</asrwt>
<pdfrwt beam="1">  1        4 0.63745675E-02 0.12500078E+03</pdfrwt>
<pdfrwt beam="2">  1       -4 0.14504007E-01 0.12500078E+03</pdfrwt>
<totfact> 0.10222933E+04</totfact>
</mgrwt>
</event>
<event>
 5    1  0.3266101E-002  0.1249983E+03  0.7818608E-02  0.1235072E+00
         -4   -1    0    0    0  501 -0.00000000000E+00  0.00000000000E+00  0.15363770992E+03  0.15364295887E+03  0.12700000000E+01 0. -1.
          4   -1    0    0  501    0  0.00000000000E+00 -0.00000000000E+00 -0.25402833972E+02  0.25434560618E+02  0.12700000000E+01 0. -1.
         25    2    1    2    0    0  0.00000000000E+00  0.00000000000E+00  0.12823487595E+03  0.17907751949E+03  0.12499829829E+03 0.  0.
    9000005    1    3    3    0    0  0.13574093418E+02  0.51306868215E+02  0.11138353813E+03  0.12338534477E+03  0.10000000000E+01 0.  0.
    9000005    1    3    3    0    0 -0.13574093418E+02 -0.51306868215E+02  0.16851337820E+02  0.55692174715E+02  0.10000000000E+01 0.  0.
<mgrwt>
<rscale>  0 0.12499830E+03</rscale>
<asrwt>0</asrwt>
<pdfrwt beam="2">  1        4 0.39109726E-02 0.12499830E+03</pdfrwt>
<pdfrwt beam="1">  1       -4 0.23639415E-01 0.12499830E+03</pdfrwt>
<totfact> 0.93786895E+03</totfact>
</mgrwt>
</event>
<event>
 4    1  0.3266101E-002  0.1251041E+03  0.7818608E-02  0.1234907E+00
         -4   -1    0    0    0  501 -0.00000000000E+00  0.00000000000E+00  0.55726240409E+02  0.55740710169E+02  0.12700000000E+01 0. -1.
          4   -1    0    0  501    0  0.00000000000E+00 -0.00000000000E+00 -0.70184557089E+02  0.70196046568E+02  0.12700000000E+01 0. -1.
    9000005    1    1    2    0    0 -0.41233366402E+02 -0.28770931424E+02  0.30217893036E+02  0.58669225829E+02  0.10000000000E+01 0.  0.
    9000005    1    1    2    0    0  0.41233366402E+02  0.28770931424E+02 -0.44676209716E+02  0.67267530908E+02  0.10000000000E+01 0.  0.
<mgrwt>
<rscale>  0 0.12510405E+03</rscale>
<asrwt>0</asrwt>
<pdfrwt beam="2">  1        4 0.10799621E-01 0.12510405E+03</pdfrwt>
<pdfrwt beam="1">  1       -4 0.85752645E-02 0.12510405E+03</pdfrwt>
<totfact> 0.10407887E+04</totfact>
</mgrwt>
</event>
<event>
 5    1  0.3266101E-002  0.1250011E+03  0.7818608E-02  0.1235068E+00
          4   -1    0    0  501    0  0.00000000000E+00  0.00000000000E+00  0.14777440557E+03  0.14777986277E+03  0.12700000000E+01 0. -1.
         -4   -1    0    0    0  501 -0.00000000000E+00 -0.00000000000E+00 -0.26413130811E+02  0.26443645347E+02  0.12700000000E+01 0. -1.
         25    2    1    2    0    0  0.00000000000E+00  0.00000000000E+00  0.12136127476E+03  0.17422350812E+03  0.12500108708E+03 0.  0.
    9000005    1    3    3    0    0 -0.40713571275E+02 -0.37968545030E+02  0.10025289533E+03  0.11467714820E+03  0.10000000000E+01 0.  0.
    9000005    1    3    3    0    0  0.40713571275E+02  0.37968545030E+02  0.21108379432E+02  0.59546359921E+02  0.10000000000E+01 0.  0.
<mgrwt>
<rscale>  0 0.12500109E+03</rscale>
<asrwt>0</asrwt>
<pdfrwt beam="1">  1        4 0.22737291E-01 0.12500109E+03</pdfrwt>
<pdfrwt beam="2">  1       -4 0.40663256E-02 0.12500109E+03</pdfrwt>
<totfact> 0.94664937E+03</totfact>
</mgrwt>
</event>
<event>
 5    1  0.3266101E-002  0.1249991E+03  0.7818608E-02  0.1235071E+00
         -4   -1    0    0    0  501 -0.00000000000E+00  0.00000000000E+00  0.37054579477E+02  0.37076336931E+02  0.12700000000E+01 0.  1.
          4   -1    0    0  501    0  0.00000000000E+00 -0.00000000000E+00 -0.10536069901E+03  0.10536835291E+03  0.12700000000E+01 0.  1.
         25    2    1    2    0    0  0.00000000000E+00  0.00000000000E+00 -0.68306119533E+02  0.14244468985E+03  0.12499905479E+03 0.  0.
    9000005    1    3    3    0    0 -0.51604109056E+02 -0.31736238285E+02 -0.51622948073E+02  0.79599633540E+02  0.10000000000E+01 0.  0.
    9000005    1    3    3    0    0  0.51604109056E+02  0.31736238285E+02 -0.16683171460E+02  0.62845056305E+02  0.10000000000E+01 0.  0.
<mgrwt>
<rscale>  0 0.12499905E+03</rscale>
<asrwt>0</asrwt>
<pdfrwt beam="2">  1        4 0.16211601E-01 0.12499905E+03</pdfrwt>
<pdfrwt beam="1">  1       -4 0.57029670E-02 0.12499905E+03</pdfrwt>
<totfact> 0.10083382E+04</totfact>
</mgrwt>
</event>
<event>
 5    1  0.3266101E-002  0.1249991E+03  0.7818608E-02  0.1235071E+00
         -4   -1    0    0    0  501 -0.00000000000E+00  0.00000000000E+00  0.19290650820E+01  0.23095869957E+01  0.12700000000E+01 0.  1.
          4   -1    0    0  501    0  0.00000000000E+00 -0.00000000000E+00 -0.18427502252E+04  0.18427506628E+04  0.12700000000E+01 0.  1.
         25    2    1    2    0    0  0.00000000000E+00  0.00000000000E+00 -0.18408211601E+04  0.18450602498E+04  0.12499912785E+03 0.  0.
    9000005    1    3    3    0    0 -0.18558227384E+02 -0.58283382787E+02 -0.11093431723E+04  0.11110286380E+04  0.10000000000E+01 0.  0.
    9000005    1    3    3    0    0  0.18558227384E+02  0.58283382787E+02 -0.73147798782E+03  0.73403161184E+03  0.10000000000E+01 0.  0.
<mgrwt>
<rscale>  0 0.12499913E+03</rscale>
<asrwt>0</asrwt>
<pdfrwt beam="2">  1        4 0.28352806E+00 0.12499913E+03</pdfrwt>
<pdfrwt beam="1">  1       -4 0.32608530E-03 0.12499913E+03</pdfrwt>
<totfact> 0.12022323E+03</totfact>
</mgrwt>
</event>
<event>
 5    1  0.3266101E-002  0.1250006E+03  0.7818608E-02  0.1235068E+00
         -4   -1    0    0    0  501 -0.00000000000E+00  0.00000000000E+00  0.10017685793E+04  0.10017693843E+04  0.12700000000E+01 0. -1.
          4   -1    0    0  501    0  0.00000000000E+00 -0.00000000000E+00 -0.37951540810E+01  0.40020113067E+01  0.12700000000E+01 0. -1.
         25    2    1    2    0    0  0.00000000000E+00  0.00000000000E+00  0.99797342520E+03  0.10057713956E+04  0.12500057132E+03 0.  0.
    9000005    1    3    3    0    0  0.32517889181E+02  0.52650830169E+02  0.56902167928E+03  0.57237766774E+03  0.10000000000E+01 0.  0.
    9000005    1    3    3    0    0 -0.32517889181E+02 -0.52650830169E+02  0.42895174592E+03  0.43339372788E+03  0.10000000000E+01 0.  0.
<mgrwt>
<rscale>  0 0.12500057E+03</rscale>
<asrwt>0</asrwt>
<pdfrwt beam="2">  1        4 0.59984342E-03 0.12500057E+03</pdfrwt>
<pdfrwt beam="1">  1       -4 0.15413433E+00 0.12500057E+03</pdfrwt>
<totfact> 0.30414273E+03</totfact>
</mgrwt>
</event>
<event>
 5    1  0.3266101E-002  0.1249955E+03  0.7818608E-02  0.1235076E+00
          4   -1    0    0  501    0  0.00000000000E+00  0.00000000000E+00  0.33456436668E+03  0.33456677712E+03  0.12700000000E+01 0. -1.
         -4   -1    0    0    0  501 -0.00000000000E+00 -0.00000000000E+00 -0.11637790933E+02  0.11706881643E+02  0.12700000000E+01 0. -1.
         25    2    1    2    0    0  0.00000000000E+00  0.00000000000E+00  0.32292657575E+03  0.34627365876E+03  0.12499549363E+03 0.  0.
    9000005    1    3    3    0    0  0.50154477481E+02 -0.25413394674E+02  0.23700923616E+03  0.24358918339E+03  0.10000000000E+01 0.  0.
    9000005    1    3    3    0    0 -0.50154477481E+02  0.25413394674E+02  0.85917339587E+02  0.10268447537E+03  0.10000000000E+01 0.  0.
<mgrwt>
<rscale>  0 0.12499549E+03</rscale>
<asrwt>0</asrwt>
<pdfrwt beam="1">  1        4 0.51476942E-01 0.12499549E+03</pdfrwt>
<pdfrwt beam="2">  1       -4 0.17959294E-02 0.12499549E+03</pdfrwt>
<totfact> 0.70143447E+03</totfact>
</mgrwt>
</event>
<event>
 5    1  0.3266101E-002  0.1250010E+03  0.7818608E-02  0.1235068E+00
          4   -1    0    0  501    0  0.00000000000E+00  0.00000000000E+00  0.30082318451E+03  0.30082586531E+03  0.12700000000E+01 0. -1.
         -4   -1    0    0    0  501 -0.00000000000E+00 -0.00000000000E+00 -0.12951614469E+02  0.13013731876E+02  0.12700000000E+01 0. -1.
         25    2    1    2    0    0  0.00000000000E+00  0.00000000000E+00  0.28787157004E+03  0.31383959719E+03  0.12500100769E+03 0.  0.
    9000005    1    3    3    0    0  0.55510317618E+02  0.26466449999E+02  0.17183104080E+03  0.18250691746E+03  0.10000000000E+01 0.  0.
    9000005    1    3    3    0    0 -0.55510317618E+02 -0.26466449999E+02  0.11604052924E+03  0.13133267973E+03  0.10000000000E+01 0.  0.
<mgrwt>
<rscale>  0 0.12500101E+03</rscale>
<asrwt>0</asrwt>
<pdfrwt beam="1">  1        4 0.46285477E-01 0.12500101E+03</pdfrwt>
<pdfrwt beam="2">  1       -4 0.19975404E-02 0.12500101E+03</pdfrwt>
<totfact> 0.73893209E+03</totfact>
</mgrwt>
</event>
<event>
 5    1  0.3266101E-002  0.1249988E+03  0.7818608E-02  0.1235071E+00
          4   -1    0    0  501    0  0.00000000000E+00  0.00000000000E+00  0.11520145113E+03  0.11520845126E+03  0.12700000000E+01 0.  1.
         -4   -1    0    0    0  501 -0.00000000000E+00 -0.00000000000E+00 -0.33887415435E+02  0.33911205005E+02  0.12700000000E+01 0.  1.
         25    2    1    2    0    0  0.00000000000E+00  0.00000000000E+00  0.81314035692E+02  0.14911965627E+03  0.12499879793E+03 0.  0.
    9000005    1    3    3    0    0 -0.21540458924E+02  0.12849146736E+02  0.10893905989E+03  0.11179360766E+03  0.10000000000E+01 0.  0.
    9000005    1    3    3    0    0  0.21540458924E+02 -0.12849146736E+02 -0.27625024202E+02  0.37326048608E+02  0.10000000000E+01 0.  0.
<mgrwt>
<rscale>  0 0.12499880E+03</rscale>
<asrwt>0</asrwt>
<pdfrwt beam="1">  1        4 0.17725668E-01 0.12499880E+03</pdfrwt>
<pdfrwt beam="2">  1       -4 0.52158171E-02 0.12499880E+03</pdfrwt>
<totfact> 0.99482163E+03</totfact>
</mgrwt>
</event>
<event>
 5    1  0.3266101E-002  0.1249963E+03  0.7818608E-02  0.1235075E+00
          4   -1    0    0  501    0  0.00000000000E+00  0.00000000000E+00  0.80245041200E+02  0.80255090413E+02  0.12700000000E+01 0. -1.
         -4   -1    0    0    0  501 -0.00000000000E+00 -0.00000000000E+00 -0.48654745032E+02  0.48671317161E+02  0.12700000000E+01 0. -1.
         25    2    1    2    0    0  0.00000000000E+00  0.00000000000E+00  0.31590296168E+02  0.12892640757E+03  0.12499628698E+03 0.  0.
    9000005    1    3    3    0    0 -0.13315775550E+02 -0.51493700055E+02  0.49630638871E+02  0.72753771988E+02  0.10000000000E+01 0.  0.
    9000005    1    3    3    0    0  0.13315775550E+02  0.51493700055E+02 -0.18040342703E+02  0.56172635586E+02  0.10000000000E+01 0.  0.
<mgrwt>
<rscale>  0 0.12499629E+03</rscale>
<asrwt>0</asrwt>
<pdfrwt beam="1">  1        4 0.12347439E-01 0.12499629E+03</pdfrwt>
<pdfrwt beam="2">  1       -4 0.74873932E-02 0.12499629E+03</pdfrwt>
<totfact> 0.10368397E+04</totfact>
</mgrwt>
</event>
<event>
 5    1  0.3266101E-002  0.1249964E+03  0.7818608E-02  0.1235075E+00
          4   -1    0    0  501    0  0.00000000000E+00  0.00000000000E+00  0.26072922557E+01  0.29001504972E+01  0.12700000000E+01 0. -1.
         -4   -1    0    0    0  501 -0.00000000000E+00 -0.00000000000E+00 -0.14181605324E+04  0.14181611011E+04  0.12700000000E+01 0. -1.
         25    2    1    2    0    0  0.00000000000E+00  0.00000000000E+00 -0.14155532402E+04  0.14210612516E+04  0.12499641992E+03 0.  0.
    9000005    1    3    3    0    0 -0.69253925804E+01 -0.22302910025E+02 -0.13667410056E+04  0.13669408756E+04  0.10000000000E+01 0.  0.
    9000005    1    3    3    0    0  0.69253925804E+01  0.22302910025E+02 -0.48812234544E+02  0.54120376007E+02  0.10000000000E+01 0.  0.
<mgrwt>
<rscale>  0 0.12499642E+03</rscale>
<asrwt>0</asrwt>
<pdfrwt beam="1">  1        4 0.42369432E-03 0.12499642E+03</pdfrwt>
<pdfrwt beam="2">  1       -4 0.21820053E+00 0.12499642E+03</pdfrwt>
<totfact> 0.19535032E+03</totfact>
</mgrwt>
</event>
<event>
 5    1  0.3266101E-002  0.1249989E+03  0.7818608E-02  0.1235071E+00
          4   -1    0    0  501    0  0.00000000000E+00  0.00000000000E+00  0.52471853090E+03  0.52472006782E+03  0.12700000000E+01 0. -1.
         -4   -1    0    0    0  501 -0.00000000000E+00 -0.00000000000E+00 -0.73886139622E+01  0.74969671390E+01  0.12700000000E+01 0. -1.
         25    2    1    2    0    0  0.00000000000E+00  0.00000000000E+00  0.51732991694E+03  0.53221703495E+03  0.12499891735E+03 0.  0.
    9000005    1    3    3    0    0 -0.17858739817E+02  0.33093733594E+02  0.47117231245E+03  0.47267163847E+03  0.10000000000E+01 0.  0.
    9000005    1    3    3    0    0  0.17858739817E+02 -0.33093733594E+02  0.46157604488E+02  0.59545396489E+02  0.10000000000E+01 0.  0.
<mgrwt>
<rscale>  0 0.12499892E+03</rscale>
<asrwt>0</asrwt>
<pdfrwt beam="1">  1        4 0.80734341E-01 0.12499892E+03</pdfrwt>
<pdfrwt beam="2">  1       -4 0.11451635E-02 0.12499892E+03</pdfrwt>
<totfact> 0.53449876E+03</totfact>
</mgrwt>
</event>
<event>
 5    1  0.3266101E-002  0.1249911E+03  0.7818608E-02  0.1235083E+00
          4   -1    0    0  501    0  0.00000000000E+00  0.00000000000E+00  0.15788312111E+03  0.15788822892E+03  0.12700000000E+01 0.  1.
         -4   -1    0    0    0  501 -0.00000000000E+00 -0.00000000000E+00 -0.24716071707E+02  0.24748678765E+02  0.12700000000E+01 0.  1.
         25    2    1    2    0    0  0.00000000000E+00  0.00000000000E+00  0.13316704940E+03  0.18263690769E+03  0.12499110769E+03 0.  0.
    9000005    1    3    3    0    0 -0.22125438083E+02 -0.12841621695E+01  0.15195445791E+03  0.15356543023E+03  0.10000000000E+01 0.  0.
    9000005    1    3    3    0    0  0.22125438083E+02  0.12841621695E+01 -0.18787408509E+02  0.29071477453E+02  0.10000000000E+01 0.  0.
<mgrwt>
<rscale>  0 0.12499111E+03</rscale>
<asrwt>0</asrwt>
<pdfrwt beam="1">  1        4 0.24292612E-01 0.12499111E+03</pdfrwt>
<pdfrwt beam="2">  1       -4 0.38053737E-02 0.12499111E+03</pdfrwt>
<totfact> 0.93163062E+03</totfact>
</mgrwt>
</event>
<event>
 5    1  0.3266101E-002  0.1249983E+03  0.7818608E-02  0.1235072E+00
         -4   -1    0    0    0  501 -0.00000000000E+00  0.00000000000E+00  0.12646359379E+02  0.12709968747E+02  0.12700000000E+01 0.  1.
          4   -1    0    0  501    0  0.00000000000E+00 -0.00000000000E+00 -0.30803510361E+03  0.30803772165E+03  0.12700000000E+01 0.  1.
         25    2    1    2    0    0  0.00000000000E+00  0.00000000000E+00 -0.29538874423E+03  0.32074769039E+03  0.12499828268E+03 0.  0.
    9000005    1    3    3    0    0  0.60533838380E+02 -0.24113991030E+01 -0.10835956678E+03  0.12414892729E+03  0.10000000000E+01 0.  0.
    9000005    1    3    3    0    0 -0.60533838380E+02  0.24113991030E+01 -0.18702917745E+03  0.19659876310E+03  0.10000000000E+01 0.  0.
<mgrwt>
<rscale>  0 0.12499828E+03</rscale>
<asrwt>0</asrwt>
<pdfrwt beam="2">  1        4 0.47395105E-01 0.12499828E+03</pdfrwt>
<pdfrwt beam="1">  1       -4 0.19506884E-02 0.12499828E+03</pdfrwt>
<totfact> 0.73070069E+03</totfact>
</mgrwt>
</event>
<event>
 5    1  0.3266101E-002  0.1249948E+03  0.7818608E-02  0.1235077E+00
          4   -1    0    0  501    0  0.00000000000E+00  0.00000000000E+00  0.83117705105E+01  0.84082357852E+01  0.12700000000E+01 0. -1.
         -4   -1    0    0    0  501 -0.00000000000E+00 -0.00000000000E+00 -0.46711832665E+03  0.46712005308E+03  0.12700000000E+01 0. -1.
         25    2    1    2    0    0  0.00000000000E+00  0.00000000000E+00 -0.45880655614E+03  0.47552828887E+03  0.12499479012E+03 0.  0.
    9000005    1    3    3    0    0 -0.52346779113E+02  0.24095785512E+02 -0.32135080012E+03  0.32647837432E+03  0.10000000000E+01 0.  0.
    9000005    1    3    3    0    0  0.52346779113E+02 -0.24095785512E+02 -0.13745575602E+03  0.14904991454E+03  0.10000000000E+01 0.  0.
<mgrwt>
<rscale>  0 0.12499479E+03</rscale>
<asrwt>0</asrwt>
<pdfrwt beam="1">  1        4 0.12862875E-02 0.12499479E+03</pdfrwt>
<pdfrwt beam="2">  1       -4 0.71871891E-01 0.12499479E+03</pdfrwt>
<totfact> 0.57820990E+03</totfact>
</mgrwt>
</event>
<event>
 5    1  0.3266101E-002  0.1250050E+03  0.7818608E-02  0.1235061E+00
          4   -1    0    0  501    0  0.00000000000E+00  0.00000000000E+00  0.31410351276E+02  0.31436015449E+02  0.12700000000E+01 0.  1.
         -4   -1    0    0    0  501 -0.00000000000E+00 -0.00000000000E+00 -0.12429217229E+03  0.12429866046E+03  0.12700000000E+01 0.  1.
         25    2    1    2    0    0  0.00000000000E+00  0.00000000000E+00 -0.92881821012E+02  0.15573467591E+03  0.12500502632E+03 0.  0.
    9000005    1    3    3    0    0 -0.37268082540E+01  0.58330945725E+02 -0.73995271221E+02  0.94301052444E+02  0.10000000000E+01 0.  0.
    9000005    1    3    3    0    0  0.37268082540E+01 -0.58330945725E+02 -0.18886549791E+02  0.61433623465E+02  0.10000000000E+01 0.  0.
<mgrwt>
<rscale>  0 0.12500503E+03</rscale>
<asrwt>0</asrwt>
<pdfrwt beam="1">  1        4 0.48348351E-02 0.12500503E+03</pdfrwt>
<pdfrwt beam="2">  1       -4 0.19124346E-01 0.12500503E+03</pdfrwt>
<totfact> 0.98160370E+03</totfact>
</mgrwt>
</event>
<event>
 5    1  0.3266101E-002  0.1249487E+03  0.7818608E-02  0.1235149E+00
         -4   -1    0    0    0  501 -0.00000000000E+00  0.00000000000E+00  0.11172070069E+03  0.11172791890E+03  0.12700000000E+01 0.  1.
          4   -1    0    0  501    0  0.00000000000E+00 -0.00000000000E+00 -0.34915851244E+02  0.34938940569E+02  0.12700000000E+01 0.  1.
         25    2    1    2    0    0  0.00000000000E+00  0.00000000000E+00  0.76804849444E+02  0.14666685947E+03  0.12494872056E+03 0.  0.
    9000005    1    3    3    0    0  0.31173539114E+01 -0.55146384941E+02  0.72648989413E+02  0.91267285104E+02  0.10000000000E+01 0.  0.
    9000005    1    3    3    0    0 -0.31173539114E+01  0.55146384941E+02  0.41558600313E+01  0.55399574368E+02  0.10000000000E+01 0.  0.
<mgrwt>
<rscale>  0 0.12494872E+03</rscale>
<asrwt>0</asrwt>
<pdfrwt beam="2">  1        4 0.53740008E-02 0.12494872E+03</pdfrwt>
<pdfrwt beam="1">  1       -4 0.17190131E-01 0.12494872E+03</pdfrwt>
<totfact> 0.10008781E+04</totfact>
</mgrwt>
</event>
<event>
 5    1  0.3266101E-002  0.1250017E+03  0.7818608E-02  0.1235067E+00
         -4   -1    0    0    0  501 -0.00000000000E+00  0.00000000000E+00  0.12223309485E+02  0.12289108786E+02  0.12700000000E+01 0.  1.
          4   -1    0    0  501    0  0.00000000000E+00 -0.00000000000E+00 -0.31865735220E+03  0.31865988296E+03  0.12700000000E+01 0.  1.
         25    2    1    2    0    0  0.00000000000E+00  0.00000000000E+00 -0.30643404271E+03  0.33094899175E+03  0.12500165041E+03 0.  0.
    9000005    1    3    3    0    0 -0.62604945556E+01  0.38728449710E+02 -0.24428503031E+02  0.46225949091E+02  0.10000000000E+01 0.  0.
    9000005    1    3    3    0    0  0.62604945556E+01 -0.38728449710E+02 -0.28200553968E+03  0.28472304266E+03  0.10000000000E+01 0.  0.
<mgrwt>
<rscale>  0 0.12500165E+03</rscale>
<asrwt>0</asrwt>
<pdfrwt beam="2">  1        4 0.49029458E-01 0.12500165E+03</pdfrwt>
<pdfrwt beam="1">  1       -4 0.18857656E-02 0.12500165E+03</pdfrwt>
<totfact> 0.71869912E+03</totfact>
</mgrwt>
</event>
<event>
 5    1  0.3266101E-002  0.1249980E+03  0.7818608E-02  0.1235072E+00
         -4   -1    0    0    0  501 -0.00000000000E+00  0.00000000000E+00  0.15243660727E+02  0.15296473200E+02  0.12700000000E+01 0.  1.
          4   -1    0    0  501    0  0.00000000000E+00 -0.00000000000E+00 -0.25574850408E+03  0.25575165736E+03  0.12700000000E+01 0.  1.
         25    2    1    2    0    0  0.00000000000E+00  0.00000000000E+00 -0.24050484335E+03  0.27104813056E+03  0.12499803759E+03 0.  0.
    9000005    1    3    3    0    0  0.19269608416E+02 -0.23196262501E+02 -0.15675145672E+01  0.30213267027E+02  0.10000000000E+01 0.  0.
    9000005    1    3    3    0    0 -0.19269608416E+02  0.23196262501E+02 -0.23893732879E+03  0.24083486353E+03  0.10000000000E+01 0.  0.
<mgrwt>
<rscale>  0 0.12499804E+03</rscale>
<asrwt>0</asrwt>
<pdfrwt beam="2">  1        4 0.39350226E-01 0.12499804E+03</pdfrwt>
<pdfrwt beam="1">  1       -4 0.23494838E-02 0.12499804E+03</pdfrwt>
<totfact> 0.79383651E+03</totfact>
</mgrwt>
</event>
<event>
 5    1  0.3266101E-002  0.1250007E+03  0.7818608E-02  0.1235068E+00
          4   -1    0    0  501    0  0.00000000000E+00  0.00000000000E+00  0.39076607351E+03  0.39076813727E+03  0.12700000000E+01 0. -1.
         -4   -1    0    0    0  501 -0.00000000000E+00 -0.00000000000E+00 -0.99540638087E+01  0.10034753924E+02  0.12700000000E+01 0. -1.
         25    2    1    2    0    0  0.00000000000E+00  0.00000000000E+00  0.38081200970E+03  0.40080289119E+03  0.12500068343E+03 0.  0.
    9000005    1    3    3    0    0 -0.14677043619E+02 -0.38336225055E+02  0.34148899747E+03  0.34394885834E+03  0.10000000000E+01 0.  0.
    9000005    1    3    3    0    0  0.14677043619E+02  0.38336225055E+02  0.39323012232E+02  0.56854032855E+02  0.10000000000E+01 0.  0.
<mgrwt>
<rscale>  0 0.12500068E+03</rscale>
<asrwt>0</asrwt>
<pdfrwt beam="1">  1        4 0.60124209E-01 0.12500068E+03</pdfrwt>
<pdfrwt beam="2">  1       -4 0.15377605E-02 0.12500068E+03</pdfrwt>
<totfact> 0.64473810E+03</totfact>
</mgrwt>
</event>
<event>
 5    1  0.3266101E-002  0.1249996E+03  0.7818608E-02  0.1235070E+00
         -4   -1    0    0    0  501 -0.00000000000E+00  0.00000000000E+00  0.88722568821E+02  0.88731657925E+02  0.12700000000E+01 0.  1.
          4   -1    0    0  501    0  0.00000000000E+00 -0.00000000000E+00 -0.44006906925E+02  0.44025228644E+02  0.12700000000E+01 0.  1.
         25    2    1    2    0    0  0.00000000000E+00  0.00000000000E+00  0.44715661896E+02  0.13275688657E+03  0.12499960205E+03 0.  0.
    9000005    1    3    3    0    0  0.31800468135E+02 -0.41739077352E+02 -0.13686574474E+02  0.54237834328E+02  0.10000000000E+01 0.  0.
    9000005    1    3    3    0    0 -0.31800468135E+02  0.41739077352E+02  0.58402236370E+02  0.78519052241E+02  0.10000000000E+01 0.  0.
<mgrwt>
<rscale>  0 0.12499960E+03</rscale>
<asrwt>0</asrwt>
<pdfrwt beam="2">  1        4 0.67724019E-02 0.12499960E+03</pdfrwt>
<pdfrwt beam="1">  1       -4 0.13651734E-01 0.12499960E+03</pdfrwt>
<totfact> 0.10285662E+04</totfact>
</mgrwt>
</event>
<event>
 5    1  0.3266101E-002  0.1250061E+03  0.7818608E-02  0.1235060E+00
         -4   -1    0    0    0  501 -0.00000000000E+00  0.00000000000E+00  0.26539560091E+02  0.26569929428E+02  0.12700000000E+01 0. -1.
          4   -1    0    0  501    0  0.00000000000E+00 -0.00000000000E+00 -0.14708300166E+03  0.14708848451E+03  0.12700000000E+01 0. -1.
         25    2    1    2    0    0  0.00000000000E+00  0.00000000000E+00 -0.12054344157E+03  0.17365841394E+03  0.12500609356E+03 0.  0.
    9000005    1    3    3    0    0  0.31984697325E+02  0.53330298981E+02 -0.68890268978E+02  0.92811695449E+02  0.10000000000E+01 0.  0.
    9000005    1    3    3    0    0 -0.31984697325E+02 -0.53330298981E+02 -0.51653172588E+02  0.80846718491E+02  0.10000000000E+01 0.  0.
<mgrwt>
<rscale>  0 0.12500609E+03</rscale>
<asrwt>0</asrwt>
<pdfrwt beam="2">  1        4 0.22630912E-01 0.12500609E+03</pdfrwt>
<pdfrwt beam="1">  1       -4 0.40857672E-02 0.12500609E+03</pdfrwt>
<totfact> 0.94758169E+03</totfact>
</mgrwt>
</event>
<event>
 5    1  0.3266101E-002  0.1250014E+03  0.7818608E-02  0.1235067E+00
          4   -1    0    0  501    0  0.00000000000E+00  0.00000000000E+00  0.17715750772E+02  0.17761214074E+02  0.12700000000E+01 0.  1.
         -4   -1    0    0    0  501 -0.00000000000E+00 -0.00000000000E+00 -0.22017079051E+03  0.22017445331E+03  0.12700000000E+01 0.  1.
         25    2    1    2    0    0  0.00000000000E+00  0.00000000000E+00 -0.20245503974E+03  0.23793566739E+03  0.12500135480E+03 0.  0.
    9000005    1    3    3    0    0 -0.21233567107E+02 -0.11473588162E+01  0.10626808526E+02  0.23793063355E+02  0.10000000000E+01 0.  0.
    9000005    1    3    3    0    0  0.21233567107E+02  0.11473588162E+01 -0.21308184826E+03  0.21414260403E+03  0.10000000000E+01 0.  0.
<mgrwt>
<rscale>  0 0.12500135E+03</rscale>
<asrwt>0</asrwt>
<pdfrwt beam="1">  1        4 0.27292792E-02 0.12500135E+03</pdfrwt>
<pdfrwt beam="2">  1       -4 0.33876206E-01 0.12500135E+03</pdfrwt>
<totfact> 0.84103237E+03</totfact>
</mgrwt>
</event>
<event>
 5    1  0.3266101E-002  0.1250071E+03  0.7818608E-02  0.1235058E+00
         -4   -1    0    0    0  501 -0.00000000000E+00  0.00000000000E+00  0.14416633847E+03  0.14417193225E+03  0.12700000000E+01 0. -1.
          4   -1    0    0  501    0  0.00000000000E+00 -0.00000000000E+00 -0.27077502822E+02  0.27107269488E+02  0.12700000000E+01 0. -1.
         25    2    1    2    0    0  0.00000000000E+00  0.00000000000E+00  0.11708883565E+03  0.17127920174E+03  0.12500707785E+03 0.  0.
    9000005    1    3    3    0    0  0.24777306751E+02  0.40113425092E+02  0.23397794149E+01  0.47217331248E+02  0.10000000000E+01 0.  0.
    9000005    1    3    3    0    0 -0.24777306751E+02 -0.40113425092E+02  0.11474905624E+03  0.12406187049E+03  0.10000000000E+01 0.  0.
<mgrwt>
<rscale>  0 0.12500708E+03</rscale>
<asrwt>0</asrwt>
<pdfrwt beam="2">  1        4 0.41684897E-02 0.12500708E+03</pdfrwt>
<pdfrwt beam="1">  1       -4 0.22182157E-01 0.12500708E+03</pdfrwt>
<totfact> 0.95195625E+03</totfact>
</mgrwt>
</event>
<event>
 5    1  0.3266101E-002  0.1249908E+03  0.7818608E-02  0.1235084E+00
          4   -1    0    0  501    0  0.00000000000E+00  0.00000000000E+00  0.14916461630E+03  0.14917002264E+03  0.12700000000E+01 0.  1.
         -4   -1    0    0    0  501 -0.00000000000E+00 -0.00000000000E+00 -0.26162389711E+02  0.26193196357E+02  0.12700000000E+01 0.  1.
         25    2    1    2    0    0  0.00000000000E+00  0.00000000000E+00  0.12300222659E+03  0.17536321900E+03  0.12499084300E+03 0.  0.
    9000005    1    3    3    0    0  0.52966096030E+02 -0.31766671879E+02  0.74822229512E+02  0.97025227648E+02  0.10000000000E+01 0.  0.
    9000005    1    3    3    0    0 -0.52966096030E+02  0.31766671879E+02  0.48179997077E+02  0.78337991354E+02  0.10000000000E+01 0.  0.
<mgrwt>
<rscale>  0 0.12499084E+03</rscale>
<asrwt>0</asrwt>
<pdfrwt beam="1">  1        4 0.22951188E-01 0.12499084E+03</pdfrwt>
<pdfrwt beam="2">  1       -4 0.40277687E-02 0.12499084E+03</pdfrwt>
<totfact> 0.94477766E+03</totfact>
</mgrwt>
</event>
<event>
 5    1  0.3266101E-002  0.1250085E+03  0.7818608E-02  0.1235056E+00
          4   -1    0    0  501    0  0.00000000000E+00  0.00000000000E+00  0.19615173472E+01  0.23367606431E+01  0.12700000000E+01 0. -1.
         -4   -1    0    0    0  501 -0.00000000000E+00 -0.00000000000E+00 -0.18174603940E+04  0.18174608377E+04  0.12700000000E+01 0. -1.
         25    2    1    2    0    0  0.00000000000E+00  0.00000000000E+00 -0.18154988766E+04  0.18197975984E+04  0.12500851128E+03 0.  0.
    9000005    1    3    3    0    0 -0.48727781375E+01 -0.60054145769E+02 -0.11493922755E+04  0.11509708282E+04  0.10000000000E+01 0.  0.
    9000005    1    3    3    0    0  0.48727781375E+01  0.60054145769E+02 -0.66610660119E+03  0.66882677020E+03  0.10000000000E+01 0.  0.
<mgrwt>
<rscale>  0 0.12500851E+03</rscale>
<asrwt>0</asrwt>
<pdfrwt beam="1">  1        4 0.33067235E-03 0.12500851E+03</pdfrwt>
<pdfrwt beam="2">  1       -4 0.27963696E+00 0.12500851E+03</pdfrwt>
<totfact> 0.12398753E+03</totfact>
</mgrwt>
</event>
<event>
 5    1  0.3266101E-002  0.1249966E+03  0.7818608E-02  0.1235075E+00
          4   -1    0    0  501    0  0.00000000000E+00  0.00000000000E+00  0.79688941271E+02  0.79699060602E+02  0.12700000000E+01 0.  1.
         -4   -1    0    0    0  501 -0.00000000000E+00 -0.00000000000E+00 -0.48994589548E+02  0.49011046765E+02  0.12700000000E+01 0.  1.
         25    2    1    2    0    0  0.00000000000E+00  0.00000000000E+00  0.30694351723E+02  0.12871010737E+03  0.12499659400E+03 0.  0.
    9000005    1    3    3    0    0 -0.55346838572E+02 -0.89691557357E+01  0.43758911171E+02  0.71130588367E+02  0.10000000000E+01 0.  0.
    9000005    1    3    3    0    0  0.55346838572E+02  0.89691557357E+01 -0.13064559449E+02  0.57579518999E+02  0.10000000000E+01 0.  0.
<mgrwt>
<rscale>  0 0.12499659E+03</rscale>
<asrwt>0</asrwt>
<pdfrwt beam="1">  1        4 0.12261881E-01 0.12499659E+03</pdfrwt>
<pdfrwt beam="2">  1       -4 0.75396735E-02 0.12499659E+03</pdfrwt>
<totfact> 0.10372978E+04</totfact>
</mgrwt>
</event>
<event>
 5    1  0.3266101E-002  0.1250029E+03  0.7818608E-02  0.1235065E+00
          4   -1    0    0  501    0  0.00000000000E+00  0.00000000000E+00  0.39182620577E+02  0.39203197004E+02  0.12700000000E+01 0.  1.
         -4   -1    0    0    0  501 -0.00000000000E+00 -0.00000000000E+00 -0.99647271468E+02  0.99655364186E+02  0.12700000000E+01 0.  1.
         25    2    1    2    0    0  0.00000000000E+00  0.00000000000E+00 -0.60464650890E+02  0.13885856119E+03  0.12500290400E+03 0.  0.
    9000005    1    3    3    0    0 -0.15262940227E+02 -0.48114401733E+02  0.10695534723E+02  0.51607629877E+02  0.10000000000E+01 0.  0.
    9000005    1    3    3    0    0  0.15262940227E+02  0.48114401733E+02 -0.71160185613E+02  0.87250931313E+02  0.10000000000E+01 0.  0.
<mgrwt>
<rscale>  0 0.12500290E+03</rscale>
<asrwt>0</asrwt>
<pdfrwt beam="1">  1        4 0.60303008E-02 0.12500290E+03</pdfrwt>
<pdfrwt beam="2">  1       -4 0.15332555E-01 0.12500290E+03</pdfrwt>
<totfact> 0.10156633E+04</totfact>
</mgrwt>
</event>
<event>
 5    1  0.3266101E-002  0.1249990E+03  0.7818608E-02  0.1235071E+00
         -4   -1    0    0    0  501 -0.00000000000E+00  0.00000000000E+00  0.40304790155E+03  0.40304990242E+03  0.12700000000E+01 0. -1.
          4   -1    0    0  501    0  0.00000000000E+00 -0.00000000000E+00 -0.96479763432E+01  0.97312048339E+01  0.12700000000E+01 0. -1.
         25    2    1    2    0    0  0.00000000000E+00  0.00000000000E+00  0.39339992521E+03  0.41278110726E+03  0.12499896542E+03 0.  0.
    9000005    1    3    3    0    0  0.28384614224E+01  0.28289444436E+02  0.38046906043E+03  0.38153119856E+03  0.10000000000E+01 0.  0.
    9000005    1    3    3    0    0 -0.28384614224E+01 -0.28289444436E+02  0.12930864776E+02  0.31249908697E+02  0.10000000000E+01 0.  0.
<mgrwt>
<rscale>  0 0.12499897E+03</rscale>
<asrwt>0</asrwt>
<pdfrwt beam="2">  1        4 0.14908599E-02 0.12499897E+03</pdfrwt>
<pdfrwt beam="1">  1       -4 0.62013937E-01 0.12499897E+03</pdfrwt>
<totfact> 0.63329848E+03</totfact>
</mgrwt>
</event>
<event>
 5    1  0.3266101E-002  0.1249979E+03  0.7818608E-02  0.1235073E+00
          4   -1    0    0  501    0  0.00000000000E+00  0.00000000000E+00  0.61497251955E+02  0.61510364151E+02  0.12700000000E+01 0.  1.
         -4   -1    0    0    0  501 -0.00000000000E+00 -0.00000000000E+00 -0.63490763542E+02  0.63503464119E+02  0.12700000000E+01 0.  1.
         25    2    1    2    0    0  0.00000000000E+00  0.00000000000E+00 -0.19935115865E+01  0.12501382827E+03  0.12499793266E+03 0.  0.
    9000005    1    3    3    0    0  0.42326875367E+01 -0.16320999261E+02  0.59184230326E+02  0.61547248354E+02  0.10000000000E+01 0.  0.
    9000005    1    3    3    0    0 -0.42326875367E+01  0.16320999261E+02 -0.61177741913E+02  0.63466579916E+02  0.10000000000E+01 0.  0.
<mgrwt>
<rscale>  0 0.12499793E+03</rscale>
<asrwt>0</asrwt>
<pdfrwt beam="1">  1        4 0.94631013E-02 0.12499793E+03</pdfrwt>
<pdfrwt beam="2">  1       -4 0.97697954E-02 0.12499793E+03</pdfrwt>
<totfact> 0.10453051E+04</totfact>
</mgrwt>
</event>
<event>
 5    1  0.3266101E-002  0.1250055E+03  0.7818608E-02  0.1235061E+00
          4   -1    0    0  501    0  0.00000000000E+00  0.00000000000E+00  0.19351776355E+02  0.19393404758E+02  0.12700000000E+01 0.  1.
         -4   -1    0    0    0  501 -0.00000000000E+00 -0.00000000000E+00 -0.20161208179E+03  0.20161608175E+03  0.12700000000E+01 0.  1.
         25    2    1    2    0    0  0.00000000000E+00  0.00000000000E+00 -0.18226030543E+03  0.22100948651E+03  0.12500549665E+03 0.  0.
    9000005    1    3    3    0    0  0.44202600942E+02 -0.83820389808E+01 -0.16781858897E+03  0.17374753901E+03  0.10000000000E+01 0.  0.
    9000005    1    3    3    0    0 -0.44202600942E+02  0.83820389808E+01 -0.14441716460E+02  0.47261947503E+02  0.10000000000E+01 0.  0.
<mgrwt>
<rscale>  0 0.12500550E+03</rscale>
<asrwt>0</asrwt>
<pdfrwt beam="1">  1        4 0.29807064E-02 0.12500550E+03</pdfrwt>
<pdfrwt beam="2">  1       -4 0.31020752E-01 0.12500550E+03</pdfrwt>
<totfact> 0.86698220E+03</totfact>
</mgrwt>
</event>
<event>
 5    1  0.3266101E-002  0.1249993E+03  0.7818608E-02  0.1235070E+00
         -4   -1    0    0    0  501 -0.00000000000E+00  0.00000000000E+00  0.17340566306E+03  0.17341031365E+03  0.12700000000E+01 0. -1.
          4   -1    0    0  501    0  0.00000000000E+00 -0.00000000000E+00 -0.22503556894E+02  0.22539364962E+02  0.12700000000E+01 0. -1.
         25    2    1    2    0    0  0.00000000000E+00  0.00000000000E+00  0.15090210616E+03  0.19594967861E+03  0.12499932361E+03 0.  0.
    9000005    1    3    3    0    0  0.45260124666E+02  0.43012363956E+02  0.71403900215E+02  0.94858100887E+02  0.10000000000E+01 0.  0.
    9000005    1    3    3    0    0 -0.45260124666E+02 -0.43012363956E+02  0.79498205946E+02  0.10109157772E+03  0.10000000000E+01 0.  0.
<mgrwt>
<rscale>  0 0.12499932E+03</rscale>
<asrwt>0</asrwt>
<pdfrwt beam="2">  1        4 0.34651979E-02 0.12499932E+03</pdfrwt>
<pdfrwt beam="1">  1       -4 0.26680906E-01 0.12499932E+03</pdfrwt>
<totfact> 0.90823647E+03</totfact>
</mgrwt>
</event>
<event>
 5    1  0.3266101E-002  0.1249989E+03  0.7818608E-02  0.1235071E+00
         -4   -1    0    0    0  501 -0.00000000000E+00  0.00000000000E+00  0.39693117239E+01  0.41675335106E+01  0.12700000000E+01 0. -1.
          4   -1    0    0  501    0  0.00000000000E+00 -0.00000000000E+00 -0.95992340592E+03  0.95992424604E+03  0.12700000000E+01 0. -1.
         25    2    1    2    0    0  0.00000000000E+00  0.00000000000E+00 -0.95595409419E+03  0.96409177955E+03  0.12499891673E+03 0.  0.
    9000005    1    3    3    0    0 -0.60796130767E+02 -0.11174883129E+02 -0.40723137475E+03  0.41189736599E+03  0.10000000000E+01 0.  0.
    9000005    1    3    3    0    0  0.60796130767E+02  0.11174883129E+02 -0.54872271945E+03  0.55219441356E+03  0.10000000000E+01 0.  0.
<mgrwt>
<rscale>  0 0.12499892E+03</rscale>
<asrwt>0</asrwt>
<pdfrwt beam="2">  1        4 0.14769566E+00 0.12499892E+03</pdfrwt>
<pdfrwt beam="1">  1       -4 0.62597656E-03 0.12499892E+03</pdfrwt>
<totfact> 0.31821673E+03</totfact>
</mgrwt>
</event>
<event>
 5    1  0.3266101E-002  0.1250095E+03  0.7818608E-02  0.1235054E+00
         -4   -1    0    0    0  501 -0.00000000000E+00  0.00000000000E+00  0.66628882186E+02  0.66640984697E+02  0.12700000000E+01 0. -1.
          4   -1    0    0  501    0  0.00000000000E+00 -0.00000000000E+00 -0.58611627406E+02  0.58625385006E+02  0.12700000000E+01 0. -1.
         25    2    1    2    0    0  0.00000000000E+00  0.00000000000E+00  0.80172547804E+01  0.12526636970E+03  0.12500954765E+03 0.  0.
    9000005    1    3    3    0    0 -0.50022293501E+02  0.18879945889E+02  0.36435030173E+02  0.64708528244E+02  0.10000000000E+01 0.  0.
    9000005    1    3    3    0    0  0.50022293501E+02 -0.18879945889E+02 -0.28417775392E+02  0.60557841459E+02  0.10000000000E+01 0.  0.
<mgrwt>
<rscale>  0 0.12500955E+03</rscale>
<asrwt>0</asrwt>
<pdfrwt beam="2">  1        4 0.90191627E-02 0.12500955E+03</pdfrwt>
<pdfrwt beam="1">  1       -4 0.10252586E-01 0.12500955E+03</pdfrwt>
<totfact> 0.10444826E+04</totfact>
</mgrwt>
</event>
<event>
 5    1  0.3266101E-002  0.1249990E+03  0.7818608E-02  0.1235071E+00
          4   -1    0    0  501    0  0.00000000000E+00  0.00000000000E+00  0.17547092466E+02  0.17592991616E+02  0.12700000000E+01 0.  1.
         -4   -1    0    0    0  501 -0.00000000000E+00 -0.00000000000E+00 -0.22227328990E+03  0.22227691806E+03  0.12700000000E+01 0.  1.
         25    2    1    2    0    0  0.00000000000E+00  0.00000000000E+00 -0.20472619744E+03  0.23986990968E+03  0.12499903061E+03 0.  0.
    9000005    1    3    3    0    0 -0.44845633342E+02 -0.26762732985E+02 -0.36505238952E+02  0.63726032182E+02  0.10000000000E+01 0.  0.
    9000005    1    3    3    0    0  0.44845633342E+02  0.26762732985E+02 -0.16822095848E+03  0.17614387750E+03  0.10000000000E+01 0.  0.
<mgrwt>
<rscale>  0 0.12499903E+03</rscale>
<asrwt>0</asrwt>
<pdfrwt beam="1">  1        4 0.27033626E-02 0.12499903E+03</pdfrwt>
<pdfrwt beam="2">  1       -4 0.34199699E-01 0.12499903E+03</pdfrwt>
<totfact> 0.83818558E+03</totfact>
</mgrwt>
</event>
<event>
 5    1  0.3266101E-002  0.1250057E+03  0.7818608E-02  0.1235060E+00
         -4   -1    0    0    0  501 -0.00000000000E+00  0.00000000000E+00  0.62166276386E+02  0.62179247500E+02  0.12700000000E+01 0.  1.
          4   -1    0    0  501    0  0.00000000000E+00 -0.00000000000E+00 -0.62815325463E+02  0.62828162578E+02  0.12700000000E+01 0.  1.
         25    2    1    2    0    0  0.00000000000E+00  0.00000000000E+00 -0.64904907694E+00  0.12500741008E+03  0.12500572511E+03 0.  0.
    9000005    1    3    3    0    0 -0.11830895843E+02  0.67223542450E+00  0.61037412639E+02  0.62185108656E+02  0.10000000000E+01 0.  0.
    9000005    1    3    3    0    0  0.11830895843E+02 -0.67223542450E+00 -0.61686461716E+02  0.62822301422E+02  0.10000000000E+01 0.  0.
<mgrwt>
<rscale>  0 0.12500573E+03</rscale>
<asrwt>0</asrwt>
<pdfrwt beam="2">  1        4 0.96658815E-02 0.12500573E+03</pdfrwt>
<pdfrwt beam="1">  1       -4 0.95660278E-02 0.12500573E+03</pdfrwt>
<totfact> 0.10451349E+04</totfact>
</mgrwt>
</event>
<event>
 5    1  0.3266101E-002  0.1250028E+03  0.7818608E-02  0.1235065E+00
         -4   -1    0    0    0  501 -0.00000000000E+00  0.00000000000E+00  0.72138334751E+03  0.72138446543E+03  0.12700000000E+01 0.  1.
          4   -1    0    0  501    0  0.00000000000E+00 -0.00000000000E+00 -0.53395886175E+01  0.54885432133E+01  0.12700000000E+01 0.  1.
         25    2    1    2    0    0  0.00000000000E+00  0.00000000000E+00  0.71604375890E+03  0.72687300865E+03  0.12500282415E+03 0.  0.
    9000005    1    3    3    0    0 -0.19854848118E+02  0.12696349713E+02  0.21462233119E+02  0.31891060507E+02  0.10000000000E+01 0.  0.
    9000005    1    3    3    0    0  0.19854848118E+02 -0.12696349713E+02  0.69458152578E+03  0.69498194814E+03  0.10000000000E+01 0.  0.
<mgrwt>
<rscale>  0 0.12500282E+03</rscale>
<asrwt>0</asrwt>
<pdfrwt beam="2">  1        4 0.83301947E-03 0.12500282E+03</pdfrwt>
<pdfrwt beam="1">  1       -4 0.11099356E+00 0.12500282E+03</pdfrwt>
<totfact> 0.41702903E+03</totfact>
</mgrwt>
</event>
<event>
 5    1  0.3266101E-002  0.1250020E+03  0.7818608E-02  0.1235066E+00
         -4   -1    0    0    0  501 -0.00000000000E+00  0.00000000000E+00  0.15317436020E+02  0.15369994997E+02  0.12700000000E+01 0.  1.
          4   -1    0    0  501    0  0.00000000000E+00 -0.00000000000E+00 -0.25453699303E+03  0.25454016131E+03  0.12700000000E+01 0.  1.
         25    2    1    2    0    0  0.00000000000E+00  0.00000000000E+00 -0.23921955701E+03  0.26991015631E+03  0.12500198407E+03 0.  0.
    9000005    1    3    3    0    0  0.33761258778E+02 -0.44540383770E+02 -0.17998016259E+03  0.18846094371E+03  0.10000000000E+01 0.  0.
    9000005    1    3    3    0    0 -0.33761258778E+02  0.44540383770E+02 -0.59239394420E+02  0.81449212592E+02  0.10000000000E+01 0.  0.
<mgrwt>
<rscale>  0 0.12500198E+03</rscale>
<asrwt>0</asrwt>
<pdfrwt beam="2">  1        4 0.39163821E-01 0.12500198E+03</pdfrwt>
<pdfrwt beam="1">  1       -4 0.23608155E-02 0.12500198E+03</pdfrwt>
<totfact> 0.79531609E+03</totfact>
</mgrwt>
</event>
<event>
 5    1  0.3266101E-002  0.1249980E+03  0.7818608E-02  0.1235072E+00
         -4   -1    0    0    0  501 -0.00000000000E+00  0.00000000000E+00  0.55062583177E+02  0.55077227291E+02  0.12700000000E+01 0.  1.
          4   -1    0    0  501    0  0.00000000000E+00 -0.00000000000E+00 -0.70909934311E+02  0.70921306277E+02  0.12700000000E+01 0.  1.
         25    2    1    2    0    0  0.00000000000E+00  0.00000000000E+00 -0.15847351135E+02  0.12599853357E+03  0.12499796768E+03 0.  0.
    9000005    1    3    3    0    0  0.61938412795E+02  0.36227101271E+01 -0.40528698221E+00  0.62053648288E+02  0.10000000000E+01 0.  0.
    9000005    1    3    3    0    0 -0.61938412795E+02 -0.36227101271E+01 -0.15442064152E+02  0.63944885281E+02  0.10000000000E+01 0.  0.
<mgrwt>
<rscale>  0 0.12499797E+03</rscale>
<asrwt>0</asrwt>
<pdfrwt beam="2">  1        4 0.10911222E-01 0.12499797E+03</pdfrwt>
<pdfrwt beam="1">  1       -4 0.84731679E-02 0.12499797E+03</pdfrwt>
<totfact> 0.10431467E+04</totfact>
</mgrwt>
</event>
<event>
 5    1  0.3266101E-002  0.1249794E+03  0.7818608E-02  0.1235102E+00
         -4   -1    0    0    0  501 -0.00000000000E+00  0.00000000000E+00  0.47478104048E+02  0.47495086736E+02  0.12700000000E+01 0.  1.
          4   -1    0    0  501    0  0.00000000000E+00 -0.00000000000E+00 -0.82211038164E+02  0.82220847089E+02  0.12700000000E+01 0.  1.
         25    2    1    2    0    0  0.00000000000E+00  0.00000000000E+00 -0.34732934115E+02  0.12971593382E+03  0.12497938540E+03 0.  0.
    9000005    1    3    3    0    0  0.34398913818E+02  0.31851871339E+02 -0.60237268416E+02  0.76337117354E+02  0.10000000000E+01 0.  0.
    9000005    1    3    3    0    0 -0.34398913818E+02 -0.31851871339E+02  0.25504334301E+02  0.53378816471E+02  0.10000000000E+01 0.  0.
<mgrwt>
<rscale>  0 0.12497939E+03</rscale>
<asrwt>0</asrwt>
<pdfrwt beam="2">  1        4 0.12649913E-01 0.12497939E+03</pdfrwt>
<pdfrwt beam="1">  1       -4 0.73063846E-02 0.12497939E+03</pdfrwt>
<totfact> 0.10355406E+04</totfact>
</mgrwt>
</event>
<event>
 5    1  0.3266101E-002  0.1250002E+03  0.7818608E-02  0.1235069E+00
          4   -1    0    0  501    0  0.00000000000E+00  0.00000000000E+00  0.10499374083E+03  0.10500142148E+03  0.12700000000E+01 0. -1.
         -4   -1    0    0    0  501 -0.00000000000E+00 -0.00000000000E+00 -0.37184853542E+02  0.37206534815E+02  0.12700000000E+01 0. -1.
         25    2    1    2    0    0  0.00000000000E+00  0.00000000000E+00  0.67808887284E+02  0.14220795629E+03  0.12500023055E+03 0.  0.
    9000005    1    3    3    0    0 -0.20625559104E+02  0.57200131013E+02  0.50311863597E+02  0.78927512915E+02  0.10000000000E+01 0.  0.
    9000005    1    3    3    0    0  0.20625559104E+02 -0.57200131013E+02  0.17497023687E+02  0.63280443379E+02  0.10000000000E+01 0.  0.
<mgrwt>
<rscale>  0 0.12500023E+03</rscale>
<asrwt>0</asrwt>
<pdfrwt beam="1">  1        4 0.16155142E-01 0.12500023E+03</pdfrwt>
<pdfrwt beam="2">  1       -4 0.57230053E-02 0.12500023E+03</pdfrwt>
<totfact> 0.10087976E+04</totfact>
</mgrwt>
</event>
<event>
 5    1  0.3266101E-002  0.1250119E+03  0.7818608E-02  0.1235051E+00
          4   -1    0    0  501    0  0.00000000000E+00  0.00000000000E+00  0.73800184915E+02  0.73811111586E+02  0.12700000000E+01 0.  1.
         -4   -1    0    0    0  501 -0.00000000000E+00 -0.00000000000E+00 -0.52917670375E+02  0.52932907893E+02  0.12700000000E+01 0.  1.
         25    2    1    2    0    0  0.00000000000E+00  0.00000000000E+00  0.20882514540E+02  0.12674401948E+03  0.12501186768E+03 0.  0.
    9000005    1    3    3    0    0 -0.49376710754E+02  0.18932476673E+02 -0.23329330445E+02  0.57807922440E+02  0.10000000000E+01 0.  0.
    9000005    1    3    3    0    0  0.49376710754E+02 -0.18932476673E+02  0.44211844985E+02  0.68936097038E+02  0.10000000000E+01 0.  0.
<mgrwt>
<rscale>  0 0.12501187E+03</rscale>
<asrwt>0</asrwt>
<pdfrwt beam="1">  1        4 0.11355887E-01 0.12501187E+03</pdfrwt>
<pdfrwt beam="2">  1       -4 0.81431927E-02 0.12501187E+03</pdfrwt>
<totfact> 0.10411923E+04</totfact>
</mgrwt>
</event>
<event>
 5    1  0.3266101E-002  0.1250010E+03  0.7818608E-02  0.1235068E+00
         -4   -1    0    0    0  501 -0.00000000000E+00  0.00000000000E+00  0.85149934369E+02  0.85159404783E+02  0.12700000000E+01 0. -1.
          4   -1    0    0  501    0  0.00000000000E+00 -0.00000000000E+00 -0.45854912883E+02  0.45872496504E+02  0.12700000000E+01 0. -1.
         25    2    1    2    0    0  0.00000000000E+00  0.00000000000E+00  0.39295021486E+02  0.13103190129E+03  0.12500104176E+03 0.  0.
    9000005    1    3    3    0    0  0.28236837661E+02  0.55611763557E+02  0.15543540342E+02  0.64285215201E+02  0.10000000000E+01 0.  0.
    9000005    1    3    3    0    0 -0.28236837661E+02 -0.55611763557E+02  0.23751481144E+02  0.66746686087E+02  0.10000000000E+01 0.  0.
<mgrwt>
<rscale>  0 0.12500104E+03</rscale>
<asrwt>0</asrwt>
<pdfrwt beam="2">  1        4 0.70566831E-02 0.12500104E+03</pdfrwt>
<pdfrwt beam="1">  1       -4 0.13102071E-01 0.12500104E+03</pdfrwt>
<totfact> 0.10322163E+04</totfact>
</mgrwt>
</event>
<event>
 5    1  0.3266101E-002  0.1249922E+03  0.7818608E-02  0.1235082E+00
         -4   -1    0    0    0  501 -0.00000000000E+00  0.00000000000E+00  0.57462794045E+02  0.57476826630E+02  0.12700000000E+01 0.  1.
          4   -1    0    0  501    0  0.00000000000E+00 -0.00000000000E+00 -0.67941966455E+02  0.67953835107E+02  0.12700000000E+01 0.  1.
         25    2    1    2    0    0  0.00000000000E+00  0.00000000000E+00 -0.10479172410E+02  0.12543066174E+03  0.12499215115E+03 0.  0.
    9000005    1    3    3    0    0 -0.45826987846E+02  0.82502683877E+01  0.36578902476E+02  0.59221582635E+02  0.10000000000E+01 0.  0.
    9000005    1    3    3    0    0  0.45826987846E+02 -0.82502683877E+01 -0.47058074886E+02  0.66209079102E+02  0.10000000000E+01 0.  0.
<mgrwt>
<rscale>  0 0.12499215E+03</rscale>
<asrwt>0</asrwt>
<pdfrwt beam="2">  1        4 0.10454603E-01 0.12499215E+03</pdfrwt>
<pdfrwt beam="1">  1       -4 0.88424223E-02 0.12499215E+03</pdfrwt>
<totfact> 0.10445337E+04</totfact>
</mgrwt>
</event>
<event>
 5    1  0.3266101E-002  0.1250005E+03  0.7818608E-02  0.1235069E+00
         -4   -1    0    0    0  501 -0.00000000000E+00  0.00000000000E+00  0.27610896169E+03  0.27611188244E+03  0.12700000000E+01 0. -1.
          4   -1    0    0  501    0  0.00000000000E+00 -0.00000000000E+00 -0.14116104442E+02  0.14173119085E+02  0.12700000000E+01 0. -1.
         25    2    1    2    0    0  0.00000000000E+00  0.00000000000E+00  0.26199285725E+03  0.29028500153E+03  0.12500049945E+03 0.  0.
    9000005    1    3    3    0    0  0.54249469471E+02  0.20602775032E+02  0.77141676573E+02  0.96536612440E+02  0.10000000000E+01 0.  0.
    9000005    1    3    3    0    0 -0.54249469471E+02 -0.20602775032E+02  0.18485118067E+03  0.19374838909E+03  0.10000000000E+01 0.  0.
<mgrwt>
<rscale>  0 0.12500050E+03</rscale>
<asrwt>0</asrwt>
<pdfrwt beam="2">  1        4 0.21763190E-02 0.12500050E+03</pdfrwt>
<pdfrwt beam="1">  1       -4 0.42482909E-01 0.12500050E+03</pdfrwt>
<totfact> 0.76833006E+03</totfact>
</mgrwt>
</event>
<event>
 5    1  0.3266101E-002  0.1249995E+03  0.7818608E-02  0.1235070E+00
          4   -1    0    0  501    0  0.00000000000E+00  0.00000000000E+00  0.83451542029E+02  0.83461205162E+02  0.12700000000E+01 0.  1.
         -4   -1    0    0    0  501 -0.00000000000E+00 -0.00000000000E+00 -0.46787256797E+02  0.46804490154E+02  0.12700000000E+01 0.  1.
         25    2    1    2    0    0  0.00000000000E+00  0.00000000000E+00  0.36664285232E+02  0.13026569532E+03  0.12499952626E+03 0.  0.
    9000005    1    3    3    0    0  0.31877922988E+02  0.52145504925E+02  0.47498430266E+01  0.61310004621E+02  0.10000000000E+01 0.  0.
    9000005    1    3    3    0    0 -0.31877922988E+02 -0.52145504925E+02  0.31914442205E+02  0.68955690695E+02  0.10000000000E+01 0.  0.
<mgrwt>
<rscale>  0 0.12499953E+03</rscale>
<asrwt>0</asrwt>
<pdfrwt beam="1">  1        4 0.12840768E-01 0.12499953E+03</pdfrwt>
<pdfrwt beam="2">  1       -4 0.72001086E-02 0.12499953E+03</pdfrwt>
<totfact> 0.10338938E+04</totfact>
</mgrwt>
</event>
<event>
 5    1  0.3266101E-002  0.1249987E+03  0.7818608E-02  0.1235071E+00
         -4   -1    0    0    0  501 -0.00000000000E+00  0.00000000000E+00  0.67766221656E+03  0.67766340660E+03  0.12700000000E+01 0.  1.
          4   -1    0    0  501    0  0.00000000000E+00 -0.00000000000E+00 -0.56930193268E+01  0.58329554306E+01  0.12700000000E+01 0.  1.
         25    2    1    2    0    0  0.00000000000E+00  0.00000000000E+00  0.67196919723E+03  0.68349636203E+03  0.12499869954E+03 0.  0.
    9000005    1    3    3    0    0 -0.18013989760E+02  0.41344987756E+02  0.99448506231E+02  0.10920126937E+03  0.10000000000E+01 0.  0.
    9000005    1    3    3    0    0  0.18013989760E+02 -0.41344987756E+02  0.57252069100E+03  0.57429509267E+03  0.10000000000E+01 0.  0.
<mgrwt>
<rscale>  0 0.12499870E+03</rscale>
<asrwt>0</asrwt>
<pdfrwt beam="2">  1        4 0.88670544E-03 0.12499870E+03</pdfrwt>
<pdfrwt beam="1">  1       -4 0.10426653E+00 0.12499870E+03</pdfrwt>
<totfact> 0.43973607E+03</totfact>
</mgrwt>
</event>
<event>
 5    1  0.3266101E-002  0.1249984E+03  0.7818608E-02  0.1235072E+00
         -4   -1    0    0    0  501 -0.00000000000E+00  0.00000000000E+00  0.77501725094E+01  0.78535389427E+01  0.12700000000E+01 0.  1.
          4   -1    0    0  501    0  0.00000000000E+00 -0.00000000000E+00 -0.50056533212E+03  0.50056694319E+03  0.12700000000E+01 0.  1.
         25    2    1    2    0    0  0.00000000000E+00  0.00000000000E+00 -0.49281515961E+03  0.50842048213E+03  0.12499842045E+03 0.  0.
    9000005    1    3    3    0    0 -0.28598065652E+02  0.52798336868E+02 -0.31681470750E+03  0.32245631119E+03  0.10000000000E+01 0.  0.
    9000005    1    3    3    0    0  0.28598065652E+02 -0.52798336868E+02 -0.17600045210E+03  0.18596417095E+03  0.10000000000E+01 0.  0.
<mgrwt>
<rscale>  0 0.12499842E+03</rscale>
<asrwt>0</asrwt>
<pdfrwt beam="2">  1        4 0.77018101E-01 0.12499842E+03</pdfrwt>
<pdfrwt beam="1">  1       -4 0.12004098E-02 0.12499842E+03</pdfrwt>
<totfact> 0.55218837E+03</totfact>
</mgrwt>
</event>
<event>
 4    1  0.3266101E-002  0.1257546E+03  0.7818608E-02  0.1233895E+00
         -4   -1    0    0    0  501 -0.00000000000E+00  0.00000000000E+00  0.41496251548E+02  0.41515681285E+02  0.12700000000E+01 0.  1.
          4   -1    0    0  501    0  0.00000000000E+00 -0.00000000000E+00 -0.95229084953E+02  0.95237553102E+02  0.12700000000E+01 0.  1.
    9000005    1    1    2    0    0  0.35710486021E+02 -0.12255648221E+02  0.27800719116E+02  0.46896905106E+02  0.10000000000E+01 0.  0.
    9000005    1    1    2    0    0 -0.35710486021E+02  0.12255648221E+02 -0.81533552521E+02  0.89856329281E+02  0.10000000000E+01 0.  0.
<mgrwt>
<rscale>  0 0.12575464E+03</rscale>
<asrwt>0</asrwt>
<pdfrwt beam="2">  1        4 0.14652774E-01 0.12575464E+03</pdfrwt>
<pdfrwt beam="1">  1       -4 0.63861847E-02 0.12575464E+03</pdfrwt>
<totfact> 0.10029589E+04</totfact>
</mgrwt>
</event>
<event>
 5    1  0.3266101E-002  0.1249981E+03  0.7818608E-02  0.1235072E+00
         -4   -1    0    0    0  501 -0.00000000000E+00  0.00000000000E+00  0.84779801122E+01  0.85725752713E+01  0.12700000000E+01 0.  1.
          4   -1    0    0  501    0  0.00000000000E+00 -0.00000000000E+00 -0.45808657454E+03  0.45808833502E+03  0.12700000000E+01 0.  1.
         25    2    1    2    0    0  0.00000000000E+00  0.00000000000E+00 -0.44960859443E+03  0.46666091029E+03  0.12499806800E+03 0.  0.
    9000005    1    3    3    0    0 -0.50658528591E+02 -0.33822034103E+02 -0.17268263737E+03  0.18311337952E+03  0.10000000000E+01 0.  0.
    9000005    1    3    3    0    0  0.50658528591E+02  0.33822034103E+02 -0.27692595706E+03  0.28354753077E+03  0.10000000000E+01 0.  0.
<mgrwt>
<rscale>  0 0.12499807E+03</rscale>
<asrwt>0</asrwt>
<pdfrwt beam="2">  1        4 0.70482250E-01 0.12499807E+03</pdfrwt>
<pdfrwt beam="1">  1       -4 0.13117170E-02 0.12499807E+03</pdfrwt>
<totfact> 0.58549651E+03</totfact>
</mgrwt>
</event>
<event>
 5    1  0.3266101E-002  0.1250020E+03  0.7818608E-02  0.1235066E+00
          4   -1    0    0  501    0  0.00000000000E+00  0.00000000000E+00  0.25913407358E+03  0.25913718566E+03  0.12700000000E+01 0.  1.
         -4   -1    0    0    0  501 -0.00000000000E+00 -0.00000000000E+00 -0.15044777296E+02  0.15098285462E+02  0.12700000000E+01 0.  1.
         25    2    1    2    0    0  0.00000000000E+00  0.00000000000E+00  0.24408929628E+03  0.27423547112E+03  0.12500203622E+03 0.  0.
    9000005    1    3    3    0    0  0.97326273557E+01  0.21200429771E+01  0.25739206883E+03  0.25758667612E+03  0.10000000000E+01 0.  0.
    9000005    1    3    3    0    0 -0.97326273557E+01 -0.21200429771E+01 -0.13302772547E+02  0.16648794999E+02  0.10000000000E+01 0.  0.
<mgrwt>
<rscale>  0 0.12500204E+03</rscale>
<asrwt>0</asrwt>
<pdfrwt beam="1">  1        4 0.39871133E-01 0.12500204E+03</pdfrwt>
<pdfrwt beam="2">  1       -4 0.23189367E-02 0.12500204E+03</pdfrwt>
<totfact> 0.78945128E+03</totfact>
</mgrwt>
</event>
<event>
 5    1  0.3266101E-002  0.1249997E+03  0.7818608E-02  0.1235070E+00
         -4   -1    0    0    0  501 -0.00000000000E+00  0.00000000000E+00  0.29310425985E+03  0.29310701124E+03  0.12700000000E+01 0. -1.
          4   -1    0    0  501    0  0.00000000000E+00 -0.00000000000E+00 -0.13294020536E+02  0.13354545369E+02  0.12700000000E+01 0. -1.
         25    2    1    2    0    0  0.00000000000E+00  0.00000000000E+00  0.27981023931E+03  0.30646155661E+03  0.12499966263E+03 0.  0.
    9000005    1    3    3    0    0  0.59744087604E+02  0.12729116098E+02  0.10757962646E+03  0.12371645981E+03  0.10000000000E+01 0.  0.
    9000005    1    3    3    0    0 -0.59744087604E+02 -0.12729116098E+02  0.17223061285E+03  0.18274509680E+03  0.10000000000E+01 0.  0.
<mgrwt>
<rscale>  0 0.12499966E+03</rscale>
<asrwt>0</asrwt>
<pdfrwt beam="2">  1        4 0.20501015E-02 0.12499966E+03</pdfrwt>
<pdfrwt beam="1">  1       -4 0.45097827E-01 0.12499966E+03</pdfrwt>
<totfact> 0.74795957E+03</totfact>
</mgrwt>
</event>
<event>
 5    1  0.3266101E-002  0.1249977E+03  0.7818608E-02  0.1235073E+00
         -4   -1    0    0    0  501 -0.00000000000E+00  0.00000000000E+00  0.37108356377E+03  0.37108573699E+03  0.12700000000E+01 0.  1.
          4   -1    0    0  501    0  0.00000000000E+00 -0.00000000000E+00 -0.10485703274E+02  0.10562332752E+02  0.12700000000E+01 0.  1.
         25    2    1    2    0    0  0.00000000000E+00  0.00000000000E+00  0.36059786050E+03  0.38164806975E+03  0.12499772857E+03 0.  0.
    9000005    1    3    3    0    0 -0.45926042947E+02 -0.41061551913E+02  0.21230055221E+03  0.22106057300E+03  0.10000000000E+01 0.  0.
    9000005    1    3    3    0    0  0.45926042947E+02  0.41061551913E+02  0.14829730829E+03  0.16058749675E+03  0.10000000000E+01 0.  0.
<mgrwt>
<rscale>  0 0.12499773E+03</rscale>
<asrwt>0</asrwt>
<pdfrwt beam="2">  1        4 0.16192468E-02 0.12499773E+03</pdfrwt>
<pdfrwt beam="1">  1       -4 0.57095844E-01 0.12499773E+03</pdfrwt>
<totfact> 0.66381011E+03</totfact>
</mgrwt>
</event>
<event>
 5    1  0.3266101E-002  0.1249967E+03  0.7818608E-02  0.1235075E+00
          4   -1    0    0  501    0  0.00000000000E+00  0.00000000000E+00  0.39232580829E+01  0.41236942157E+01  0.12700000000E+01 0.  1.
         -4   -1    0    0    0  501 -0.00000000000E+00 -0.00000000000E+00 -0.97061162112E+03  0.97061245198E+03  0.12700000000E+01 0.  1.
         25    2    1    2    0    0  0.00000000000E+00  0.00000000000E+00 -0.96668836303E+03  0.97473614620E+03  0.12499665389E+03 0.  0.
    9000005    1    3    3    0    0 -0.20455076143E+02 -0.47971683381E+02 -0.75182402078E+03  0.75363124323E+03  0.10000000000E+01 0.  0.
    9000005    1    3    3    0    0  0.20455076143E+02  0.47971683381E+02 -0.21486434225E+03  0.22110490297E+03  0.10000000000E+01 0.  0.
<mgrwt>
<rscale>  0 0.12499665E+03</rscale>
<asrwt>0</asrwt>
<pdfrwt beam="1">  1        4 0.61906102E-03 0.12499665E+03</pdfrwt>
<pdfrwt beam="2">  1       -4 0.14934016E+00 0.12499665E+03</pdfrwt>
<totfact> 0.31456036E+03</totfact>
</mgrwt>
</event>
<event>
 5    1  0.3266101E-002  0.1250061E+03  0.7818608E-02  0.1235060E+00
          4   -1    0    0  501    0  0.00000000000E+00  0.00000000000E+00  0.28892713784E+02  0.28920612196E+02  0.12700000000E+01 0. -1.
         -4   -1    0    0    0  501 -0.00000000000E+00 -0.00000000000E+00 -0.13511549060E+03  0.13512145907E+03  0.12700000000E+01 0. -1.
         25    2    1    2    0    0  0.00000000000E+00  0.00000000000E+00 -0.10622277682E+03  0.16404207126E+03  0.12500609117E+03 0.  0.
    9000005    1    3    3    0    0 -0.46847626829E+02 -0.88057871120E+01 -0.10614715367E+03  0.11636348335E+03  0.10000000000E+01 0.  0.
    9000005    1    3    3    0    0  0.46847626829E+02  0.88057871120E+01 -0.75623147585E-01  0.47678587909E+02  0.10000000000E+01 0.  0.
<mgrwt>
<rscale>  0 0.12500609E+03</rscale>
<asrwt>0</asrwt>
<pdfrwt beam="1">  1        4 0.44476381E-02 0.12500609E+03</pdfrwt>
<pdfrwt beam="2">  1       -4 0.20789603E-01 0.12500609E+03</pdfrwt>
<totfact> 0.96555902E+03</totfact>
</mgrwt>
</event>
<event>
 5    1  0.3266101E-002  0.1250000E+03  0.7818608E-02  0.1235069E+00
          4   -1    0    0  501    0  0.00000000000E+00  0.00000000000E+00  0.20992492425E+02  0.21030873454E+02  0.12700000000E+01 0.  1.
         -4   -1    0    0    0  501 -0.00000000000E+00 -0.00000000000E+00 -0.18586805521E+03  0.18587239399E+03  0.12700000000E+01 0.  1.
         25    2    1    2    0    0  0.00000000000E+00  0.00000000000E+00 -0.16487556279E+03  0.20690326745E+03  0.12500004350E+03 0.  0.
    9000005    1    3    3    0    0  0.37237992385E+02  0.24934199829E+02 -0.15452794411E+03  0.16089831543E+03  0.10000000000E+01 0.  0.
    9000005    1    3    3    0    0 -0.37237992385E+02 -0.24934199829E+02 -0.10347618683E+02  0.46004952020E+02  0.10000000000E+01 0.  0.
<mgrwt>
<rscale>  0 0.12500004E+03</rscale>
<asrwt>0</asrwt>
<pdfrwt beam="1">  1        4 0.32329005E-02 0.12500004E+03</pdfrwt>
<pdfrwt beam="2">  1       -4 0.28598370E-01 0.12500004E+03</pdfrwt>
<totfact> 0.88984042E+03</totfact>
</mgrwt>
</event>
<event>
 5    1  0.3266101E-002  0.1250004E+03  0.7818608E-02  0.1235069E+00
          4   -1    0    0  501    0  0.00000000000E+00  0.00000000000E+00  0.48263081716E+03  0.48263248810E+03  0.12700000000E+01 0.  1.
         -4   -1    0    0    0  501 -0.00000000000E+00 -0.00000000000E+00 -0.80422038710E+01  0.81418636136E+01  0.12700000000E+01 0.  1.
         25    2    1    2    0    0  0.00000000000E+00  0.00000000000E+00  0.47458861329E+03  0.49077435172E+03  0.12500044976E+03 0.  0.
    9000005    1    3    3    0    0 -0.60555308355E+02 -0.27203009303E+01  0.17763021933E+03  0.18769081018E+03  0.10000000000E+01 0.  0.
    9000005    1    3    3    0    0  0.60555308355E+02  0.27203009303E+01  0.29695839396E+03  0.30308354154E+03  0.10000000000E+01 0.  0.
<mgrwt>
<rscale>  0 0.12500045E+03</rscale>
<asrwt>0</asrwt>
<pdfrwt beam="1">  1        4 0.74258700E-01 0.12500045E+03</pdfrwt>
<pdfrwt beam="2">  1       -4 0.12450566E-02 0.12500045E+03</pdfrwt>
<totfact> 0.56586769E+03</totfact>
</mgrwt>
</event>
<event>
 5    1  0.3266101E-002  0.1250012E+03  0.7818608E-02  0.1235067E+00
         -4   -1    0    0    0  501 -0.00000000000E+00  0.00000000000E+00  0.42859273524E+01  0.44701312363E+01  0.12700000000E+01 0.  1.
          4   -1    0    0  501    0  0.00000000000E+00 -0.00000000000E+00 -0.89207244910E+03  0.89207335312E+03  0.12700000000E+01 0.  1.
         25    2    1    2    0    0  0.00000000000E+00  0.00000000000E+00 -0.88778652175E+03  0.89654348436E+03  0.12500124456E+03 0.  0.
    9000005    1    3    3    0    0  0.52843914428E+02 -0.35128870766E+01 -0.68182569458E+03  0.68388017771E+03  0.10000000000E+01 0.  0.
    9000005    1    3    3    0    0 -0.52843914428E+02  0.35128870766E+01 -0.20596082717E+03  0.21266330665E+03  0.10000000000E+01 0.  0.
<mgrwt>
<rscale>  0 0.12500124E+03</rscale>
<asrwt>0</asrwt>
<pdfrwt beam="2">  1        4 0.13725601E+00 0.12500124E+03</pdfrwt>
<pdfrwt beam="1">  1       -4 0.67361322E-03 0.12500124E+03</pdfrwt>
<totfact> 0.34291719E+03</totfact>
</mgrwt>
</event>
<event>
 5    1  0.3266101E-002  0.1249971E+03  0.7818608E-02  0.1235074E+00
          4   -1    0    0  501    0  0.00000000000E+00  0.00000000000E+00  0.63018376471E+03  0.63018504441E+03  0.12700000000E+01 0. -1.
         -4   -1    0    0    0  501 -0.00000000000E+00 -0.00000000000E+00 -0.61319497203E+01  0.62620849062E+01  0.12700000000E+01 0. -1.
         25    2    1    2    0    0  0.00000000000E+00  0.00000000000E+00  0.62405181499E+03  0.63644712932E+03  0.12499712248E+03 0.  0.
    9000005    1    3    3    0    0 -0.26151308259E+02 -0.20979578508E+02  0.43512693769E+02  0.54939859456E+02  0.10000000000E+01 0.  0.
    9000005    1    3    3    0    0  0.26151308259E+02  0.20979578508E+02  0.58053912122E+03  0.58150726986E+03  0.10000000000E+01 0.  0.
<mgrwt>
<rscale>  0 0.12499712E+03</rscale>
<asrwt>0</asrwt>
<pdfrwt beam="1">  1        4 0.96961484E-01 0.12499712E+03</pdfrwt>
<pdfrwt beam="2">  1       -4 0.95348545E-03 0.12499712E+03</pdfrwt>
<totfact> 0.46647845E+03</totfact>
</mgrwt>
</event>
<event>
 5    1  0.3266101E-002  0.1250000E+03  0.7818608E-02  0.1235069E+00
         -4   -1    0    0    0  501 -0.00000000000E+00  0.00000000000E+00  0.13487007607E+03  0.13487605539E+03  0.12700000000E+01 0. -1.
          4   -1    0    0  501    0  0.00000000000E+00 -0.00000000000E+00 -0.28942500671E+02  0.28970351139E+02  0.12700000000E+01 0. -1.
         25    2    1    2    0    0  0.00000000000E+00  0.00000000000E+00  0.10592757540E+03  0.16384640653E+03  0.12499997482E+03 0.  0.
    9000005    1    3    3    0    0  0.41444567524E+01 -0.31369161446E+01 -0.28665098209E+02  0.29149693309E+02  0.10000000000E+01 0.  0.
    9000005    1    3    3    0    0 -0.41444567524E+01  0.31369161446E+01  0.13459267361E+03  0.13469671322E+03  0.10000000000E+01 0.  0.
<mgrwt>
<rscale>  0 0.12499997E+03</rscale>
<asrwt>0</asrwt>
<pdfrwt beam="2">  1        4 0.44552946E-02 0.12499997E+03</pdfrwt>
<pdfrwt beam="1">  1       -4 0.20751845E-01 0.12499997E+03</pdfrwt>
<totfact> 0.96606365E+03</totfact>
</mgrwt>
</event>
<event>
 5    1  0.3266101E-002  0.1250040E+03  0.7818608E-02  0.1235063E+00
          4   -1    0    0  501    0  0.00000000000E+00  0.00000000000E+00  0.11899436643E+04  0.11899443420E+04  0.12700000000E+01 0. -1.
         -4   -1    0    0    0  501 -0.00000000000E+00 -0.00000000000E+00 -0.31593970067E+01  0.34050975677E+01  0.12700000000E+01 0. -1.
         25    2    1    2    0    0  0.00000000000E+00  0.00000000000E+00  0.11867842673E+04  0.11933494396E+04  0.12500395142E+03 0.  0.
    9000005    1    3    3    0    0  0.22013731592E+02  0.38021194083E+02  0.10176778174E+04  0.10186262099E+04  0.10000000000E+01 0.  0.
    9000005    1    3    3    0    0 -0.22013731592E+02 -0.38021194083E+02  0.16910644987E+03  0.17472322962E+03  0.10000000000E+01 0.  0.
<mgrwt>
<rscale>  0 0.12500395E+03</rscale>
<asrwt>0</asrwt>
<pdfrwt beam="1">  1        4 0.18308743E+00 0.12500395E+03</pdfrwt>
<pdfrwt beam="2">  1       -4 0.50501263E-03 0.12500395E+03</pdfrwt>
<totfact> 0.24885307E+03</totfact>
</mgrwt>
</event>
<event>
 5    1  0.3266101E-002  0.1249998E+03  0.7818608E-02  0.1235070E+00
         -4   -1    0    0    0  501 -0.00000000000E+00  0.00000000000E+00  0.38802634866E+02  0.38823412685E+02  0.12700000000E+01 0.  1.
          4   -1    0    0  501    0  0.00000000000E+00 -0.00000000000E+00 -0.10061760721E+03  0.10062562189E+03  0.12700000000E+01 0.  1.
         25    2    1    2    0    0  0.00000000000E+00  0.00000000000E+00 -0.61814972346E+02  0.13944903458E+03  0.12499976975E+03 0.  0.
    9000005    1    3    3    0    0  0.61179161010E+02  0.98613517015E+01 -0.39908584234E+02  0.73714524314E+02  0.10000000000E+01 0.  0.
    9000005    1    3    3    0    0 -0.61179161010E+02 -0.98613517015E+01 -0.21906388111E+02  0.65734510262E+02  0.10000000000E+01 0.  0.
<mgrwt>
<rscale>  0 0.12499977E+03</rscale>
<asrwt>0</asrwt>
<pdfrwt beam="2">  1        4 0.15481847E-01 0.12499977E+03</pdfrwt>
<pdfrwt beam="1">  1       -4 0.59718510E-02 0.12499977E+03</pdfrwt>
<totfact> 0.10145070E+04</totfact>
</mgrwt>
</event>
<event>
 5    1  0.3266101E-002  0.1249997E+03  0.7818608E-02  0.1235070E+00
         -4   -1    0    0    0  501 -0.00000000000E+00  0.00000000000E+00  0.18661179461E+03  0.18661611610E+03  0.12700000000E+01 0. -1.
          4   -1    0    0  501    0  0.00000000000E+00 -0.00000000000E+00 -0.20908557323E+02  0.20947092145E+02  0.12700000000E+01 0. -1.
         25    2    1    2    0    0  0.00000000000E+00  0.00000000000E+00  0.16570323729E+03  0.20756320825E+03  0.12499969028E+03 0.  0.
    9000005    1    3    3    0    0 -0.46869178088E+02 -0.25077793078E+02  0.28291424203E+02  0.60224747768E+02  0.10000000000E+01 0.  0.
    9000005    1    3    3    0    0  0.46869178088E+02  0.25077793078E+02  0.13741181309E+03  0.14733846048E+03  0.10000000000E+01 0.  0.
<mgrwt>
<rscale>  0 0.12499969E+03</rscale>
<asrwt>0</asrwt>
<pdfrwt beam="2">  1        4 0.32199978E-02 0.12499969E+03</pdfrwt>
<pdfrwt beam="1">  1       -4 0.28712804E-01 0.12499969E+03</pdfrwt>
<totfact> 0.88876008E+03</totfact>
</mgrwt>
</event>
<event>
 5    1  0.3266101E-002  0.1249996E+03  0.7818608E-02  0.1235070E+00
         -4   -1    0    0    0  501 -0.00000000000E+00  0.00000000000E+00  0.52228835328E+01  0.53750732457E+01  0.12700000000E+01 0.  1.
          4   -1    0    0  501    0  0.00000000000E+00 -0.00000000000E+00 -0.73701261485E+03  0.73701370906E+03  0.12700000000E+01 0.  1.
         25    2    1    2    0    0  0.00000000000E+00  0.00000000000E+00 -0.73178973131E+03  0.74238878231E+03  0.12499957295E+03 0.  0.
    9000005    1    3    3    0    0 -0.34089514404E+02 -0.35931086087E+02 -0.59221278749E+03  0.59428118228E+03  0.10000000000E+01 0.  0.
    9000005    1    3    3    0    0  0.34089514404E+02  0.35931086087E+02 -0.13957694382E+03  0.14810760003E+03  0.10000000000E+01 0.  0.
<mgrwt>
<rscale>  0 0.12499957E+03</rscale>
<asrwt>0</asrwt>
<pdfrwt beam="2">  1        4 0.11339827E+00 0.12499957E+03</pdfrwt>
<pdfrwt beam="1">  1       -4 0.81531220E-03 0.12499957E+03</pdfrwt>
<totfact> 0.40941260E+03</totfact>
</mgrwt>
</event>
<event>
 5    1  0.3266101E-002  0.1250020E+03  0.7818608E-02  0.1235066E+00
         -4   -1    0    0    0  501 -0.00000000000E+00  0.00000000000E+00  0.72411962527E+02  0.72423098643E+02  0.12700000000E+01 0. -1.
          4   -1    0    0  501    0  0.00000000000E+00 -0.00000000000E+00 -0.53923769684E+02  0.53938722982E+02  0.12700000000E+01 0. -1.
         25    2    1    2    0    0  0.00000000000E+00  0.00000000000E+00  0.18488192843E+02  0.12636182162E+03  0.12500198674E+03 0.  0.
    9000005    1    3    3    0    0 -0.35706235105E+02  0.40364656633E+02  0.41228992710E+02  0.67860670276E+02  0.10000000000E+01 0.  0.
    9000005    1    3    3    0    0  0.35706235105E+02 -0.40364656633E+02 -0.22740799867E+02  0.58501151348E+02  0.10000000000E+01 0.  0.
<mgrwt>
<rscale>  0 0.12500199E+03</rscale>
<asrwt>0</asrwt>
<pdfrwt beam="2">  1        4 0.82979715E-02 0.12500199E+03</pdfrwt>
<pdfrwt beam="1">  1       -4 0.11142309E-01 0.12500199E+03</pdfrwt>
<totfact> 0.10422576E+04</totfact>
</mgrwt>
</event>
<event>
 5    1  0.3266101E-002  0.1250099E+03  0.7818608E-02  0.1235054E+00
         -4   -1    0    0    0  501 -0.00000000000E+00  0.00000000000E+00  0.27089124608E+03  0.27089422309E+03  0.12700000000E+01 0.  1.
          4   -1    0    0  501    0  0.00000000000E+00 -0.00000000000E+00 -0.14391251615E+02  0.14447180453E+02  0.12700000000E+01 0.  1.
         25    2    1    2    0    0  0.00000000000E+00  0.00000000000E+00  0.25649999446E+03  0.28534140354E+03  0.12500987727E+03 0.  0.
    9000005    1    3    3    0    0  0.29554329140E+01  0.41513024499E+02  0.23467175137E+03  0.23833568066E+03  0.10000000000E+01 0.  0.
    9000005    1    3    3    0    0 -0.29554329140E+01 -0.41513024499E+02  0.21828243098E+02  0.47005722880E+02  0.10000000000E+01 0.  0.
<mgrwt>
<rscale>  0 0.12500988E+03</rscale>
<asrwt>0</asrwt>
<pdfrwt beam="2">  1        4 0.22185699E-02 0.12500988E+03</pdfrwt>
<pdfrwt beam="1">  1       -4 0.41680107E-01 0.12500988E+03</pdfrwt>
<totfact> 0.77458160E+03</totfact>
</mgrwt>
</event>
<event>
 5    1  0.3266101E-002  0.1249986E+03  0.7818608E-02  0.1235072E+00
         -4   -1    0    0    0  501 -0.00000000000E+00  0.00000000000E+00  0.15984123583E+03  0.15984628107E+03  0.12700000000E+01 0. -1.
          4   -1    0    0  501    0  0.00000000000E+00 -0.00000000000E+00 -0.24415813597E+02  0.24448821108E+02  0.12700000000E+01 0. -1.
         25    2    1    2    0    0  0.00000000000E+00  0.00000000000E+00  0.13542542223E+03  0.18429510218E+03  0.12499855879E+03 0.  0.
    9000005    1    3    3    0    0 -0.48328682199E+02  0.30306214949E+02  0.30093484052E+02  0.64503844614E+02  0.10000000000E+01 0.  0.
    9000005    1    3    3    0    0  0.48328682199E+02 -0.30306214949E+02  0.10533193818E+03  0.11979125756E+03  0.10000000000E+01 0.  0.
<mgrwt>
<rscale>  0 0.12499856E+03</rscale>
<asrwt>0</asrwt>
<pdfrwt beam="2">  1        4 0.37592063E-02 0.12499856E+03</pdfrwt>
<pdfrwt beam="1">  1       -4 0.24593885E-01 0.12499856E+03</pdfrwt>
<totfact> 0.92852534E+03</totfact>
</mgrwt>
</event>
<event>
 5    1  0.3266101E-002  0.1250020E+03  0.7818608E-02  0.1235066E+00
          4   -1    0    0  501    0  0.00000000000E+00  0.00000000000E+00  0.15367382837E+03  0.15367907609E+03  0.12700000000E+01 0. -1.
         -4   -1    0    0    0  501 -0.00000000000E+00 -0.00000000000E+00 -0.25398380104E+02  0.25430112306E+02  0.12700000000E+01 0. -1.
         25    2    1    2    0    0  0.00000000000E+00  0.00000000000E+00  0.12827544827E+03  0.17910918839E+03  0.12500204293E+03 0.  0.
    9000005    1    3    3    0    0  0.58288994797E+01  0.59098325283E+02  0.36250855054E+02  0.69582415972E+02  0.10000000000E+01 0.  0.
    9000005    1    3    3    0    0 -0.58288994797E+01 -0.59098325283E+02  0.92024593215E+02  0.10952677242E+03  0.10000000000E+01 0.  0.
<mgrwt>
<rscale>  0 0.12500204E+03</rscale>
<asrwt>0</asrwt>
<pdfrwt beam="1">  1        4 0.23644972E-01 0.12500204E+03</pdfrwt>
<pdfrwt beam="2">  1       -4 0.39102877E-02 0.12500204E+03</pdfrwt>
<totfact> 0.93773302E+03</totfact>
</mgrwt>
</event>
<event>
 5    1  0.3266101E-002  0.1249981E+03  0.7818608E-02  0.1235072E+00
          4   -1    0    0  501    0  0.00000000000E+00  0.00000000000E+00  0.33907273064E+02  0.33931048712E+02  0.12700000000E+01 0.  1.
         -4   -1    0    0    0  501 -0.00000000000E+00 -0.00000000000E+00 -0.11513276437E+03  0.11513976868E+03  0.12700000000E+01 0.  1.
         25    2    1    2    0    0  0.00000000000E+00  0.00000000000E+00 -0.81225491307E+02  0.14907081739E+03  0.12499811262E+03 0.  0.
    9000005    1    3    3    0    0  0.14779862996E+02  0.60529272100E+02 -0.34906392626E+02  0.71426139314E+02  0.10000000000E+01 0.  0.
    9000005    1    3    3    0    0 -0.14779862996E+02 -0.60529272100E+02 -0.46319098681E+02  0.77644678078E+02  0.10000000000E+01 0.  0.
<mgrwt>
<rscale>  0 0.12499811E+03</rscale>
<asrwt>0</asrwt>
<pdfrwt beam="1">  1        4 0.52188713E-02 0.12499811E+03</pdfrwt>
<pdfrwt beam="2">  1       -4 0.17715101E-01 0.12499811E+03</pdfrwt>
<totfact> 0.99493466E+03</totfact>
</mgrwt>
</event>
<event>
 5    1  0.3266101E-002  0.1249990E+03  0.7818608E-02  0.1235071E+00
          4   -1    0    0  501    0  0.00000000000E+00  0.00000000000E+00  0.12377689105E+03  0.12378340623E+03  0.12700000000E+01 0. -1.
         -4   -1    0    0    0  501 -0.00000000000E+00 -0.00000000000E+00 -0.31538152925E+02  0.31563713183E+02  0.12700000000E+01 0. -1.
         25    2    1    2    0    0  0.00000000000E+00  0.00000000000E+00  0.92238738125E+02  0.15534711941E+03  0.12499897079E+03 0.  0.
    9000005    1    3    3    0    0 -0.20704447591E+02 -0.48620915763E+02  0.46669094080E+01  0.53060791957E+02  0.10000000000E+01 0.  0.
    9000005    1    3    3    0    0  0.20704447591E+02  0.48620915763E+02  0.87571828717E+02  0.10228632746E+03  0.10000000000E+01 0.  0.
<mgrwt>
<rscale>  0 0.12499897E+03</rscale>
<asrwt>0</asrwt>
<pdfrwt beam="1">  1        4 0.19045066E-01 0.12499897E+03</pdfrwt>
<pdfrwt beam="2">  1       -4 0.48544909E-02 0.12499897E+03</pdfrwt>
<totfact> 0.98249672E+03</totfact>
</mgrwt>
</event>
<event>
 5    1  0.3266101E-002  0.1250008E+03  0.7818608E-02  0.1235068E+00
          4   -1    0    0  501    0  0.00000000000E+00  0.00000000000E+00  0.30172745522E+02  0.30199461458E+02  0.12700000000E+01 0.  1.
         -4   -1    0    0    0  501 -0.00000000000E+00 -0.00000000000E+00 -0.12937732458E+03  0.12938355775E+03  0.12700000000E+01 0.  1.
         25    2    1    2    0    0  0.00000000000E+00  0.00000000000E+00 -0.99204579061E+02  0.15958301921E+03  0.12500076605E+03 0.  0.
    9000005    1    3    3    0    0  0.18882741363E+02  0.32396663078E+02 -0.11342484316E+03  0.11946671815E+03  0.10000000000E+01 0.  0.
    9000005    1    3    3    0    0 -0.18882741363E+02 -0.32396663078E+02  0.14220264094E+02  0.40116301061E+02  0.10000000000E+01 0.  0.
<mgrwt>
<rscale>  0 0.12500077E+03</rscale>
<asrwt>0</asrwt>
<pdfrwt beam="1">  1        4 0.46444955E-02 0.12500077E+03</pdfrwt>
<pdfrwt beam="2">  1       -4 0.19906738E-01 0.12500077E+03</pdfrwt>
<totfact> 0.97421558E+03</totfact>
</mgrwt>
</event>
<event>
 5    1  0.3266101E-002  0.1250005E+03  0.7818608E-02  0.1235068E+00
          4   -1    0    0  501    0  0.00000000000E+00  0.00000000000E+00  0.11699223145E+03  0.11699912444E+03  0.12700000000E+01 0. -1.
         -4   -1    0    0    0  501 -0.00000000000E+00 -0.00000000000E+00 -0.33369299197E+02  0.33393457876E+02  0.12700000000E+01 0. -1.
         25    2    1    2    0    0  0.00000000000E+00  0.00000000000E+00  0.83622932250E+02  0.15039258231E+03  0.12500053606E+03 0.  0.
    9000005    1    3    3    0    0 -0.57627209455E+02 -0.16217162737E+02  0.63380564063E+02  0.87189377437E+02  0.10000000000E+01 0.  0.
    9000005    1    3    3    0    0  0.57627209455E+02  0.16217162737E+02  0.20242368187E+02  0.63203204876E+02  0.10000000000E+01 0.  0.
<mgrwt>
<rscale>  0 0.12500054E+03</rscale>
<asrwt>0</asrwt>
<pdfrwt beam="1">  1        4 0.18001193E-01 0.12500054E+03</pdfrwt>
<pdfrwt beam="2">  1       -4 0.51361269E-02 0.12500054E+03</pdfrwt>
<totfact> 0.99224303E+03</totfact>
</mgrwt>
</event>
<event>
 5    1  0.3266101E-002  0.1249985E+03  0.7818608E-02  0.1235072E+00
          4   -1    0    0  501    0  0.00000000000E+00  0.00000000000E+00  0.26110276833E+02  0.26141144893E+02  0.12700000000E+01 0. -1.
         -4   -1    0    0    0  501 -0.00000000000E+00 -0.00000000000E+00 -0.14948031262E+03  0.14948570755E+03  0.12700000000E+01 0. -1.
         25    2    1    2    0    0  0.00000000000E+00  0.00000000000E+00 -0.12337003578E+03  0.17562685244E+03  0.12499850226E+03 0.  0.
    9000005    1    3    3    0    0  0.33103035684E+02 -0.52929904358E+02 -0.57768368948E+02  0.85062154909E+02  0.10000000000E+01 0.  0.
    9000005    1    3    3    0    0 -0.33103035684E+02  0.52929904358E+02 -0.65601666837E+02  0.90564697530E+02  0.10000000000E+01 0.  0.
<mgrwt>
<rscale>  0 0.12499850E+03</rscale>
<asrwt>0</asrwt>
<pdfrwt beam="1">  1        4 0.40197552E-02 0.12499850E+03</pdfrwt>
<pdfrwt beam="2">  1       -4 0.22999760E-01 0.12499850E+03</pdfrwt>
<totfact> 0.94413331E+03</totfact>
</mgrwt>
</event>
<event>
 5    1  0.3266101E-002  0.1250001E+03  0.7818608E-02  0.1235069E+00
         -4   -1    0    0    0  501 -0.00000000000E+00  0.00000000000E+00  0.22238609926E+03  0.22238972558E+03  0.12700000000E+01 0.  1.
          4   -1    0    0  501    0  0.00000000000E+00 -0.00000000000E+00 -0.17538464004E+02  0.17584385676E+02  0.12700000000E+01 0.  1.
         25    2    1    2    0    0  0.00000000000E+00  0.00000000000E+00  0.20484763525E+03  0.23997411125E+03  0.12500008161E+03 0.  0.
    9000005    1    3    3    0    0 -0.59653221184E+02 -0.11085165051E+02  0.13114812342E+03  0.14450680938E+03  0.10000000000E+01 0.  0.
    9000005    1    3    3    0    0  0.59653221184E+02  0.11085165051E+02  0.73699511835E+02  0.95467301871E+02  0.10000000000E+01 0.  0.
<mgrwt>
<rscale>  0 0.12500008E+03</rscale>
<asrwt>0</asrwt>
<pdfrwt beam="2">  1        4 0.27020367E-02 0.12500008E+03</pdfrwt>
<pdfrwt beam="1">  1       -4 0.34217056E-01 0.12500008E+03</pdfrwt>
<totfact> 0.83801071E+03</totfact>
</mgrwt>
</event>
<event>
 5    1  0.3266101E-002  0.1249983E+03  0.7818608E-02  0.1235072E+00
         -4   -1    0    0    0  501 -0.00000000000E+00  0.00000000000E+00  0.43912808818E+02  0.43931169780E+02  0.12700000000E+01 0. -1.
          4   -1    0    0  501    0  0.00000000000E+00 -0.00000000000E+00 -0.88910705162E+02  0.88919775036E+02  0.12700000000E+01 0. -1.
         25    2    1    2    0    0  0.00000000000E+00  0.00000000000E+00 -0.44997896344E+02  0.13285094482E+03  0.12499825144E+03 0.  0.
    9000005    1    3    3    0    0  0.69390279598E+01  0.27570933214E+02  0.36646277089E+02  0.46392414162E+02  0.10000000000E+01 0.  0.
    9000005    1    3    3    0    0 -0.69390279598E+01 -0.27570933214E+02 -0.81644173433E+02  0.86458530654E+02  0.10000000000E+01 0.  0.
<mgrwt>
<rscale>  0 0.12499825E+03</rscale>
<asrwt>0</asrwt>
<pdfrwt beam="2">  1        4 0.13680680E-01 0.12499825E+03</pdfrwt>
<pdfrwt beam="1">  1       -4 0.67579268E-02 0.12499825E+03</pdfrwt>
<totfact> 0.10283974E+04</totfact>
</mgrwt>
</event>
<event>
 5    1  0.3266101E-002  0.1249968E+03  0.7818608E-02  0.1235074E+00
         -4   -1    0    0    0  501 -0.00000000000E+00  0.00000000000E+00  0.63706647596E+01  0.64960195104E+01  0.12700000000E+01 0.  1.
          4   -1    0    0  501    0  0.00000000000E+00 -0.00000000000E+00 -0.60703151881E+03  0.60703284732E+03  0.12700000000E+01 0.  1.
         25    2    1    2    0    0  0.00000000000E+00  0.00000000000E+00 -0.60066085405E+03  0.61352886683E+03  0.12499683536E+03 0.  0.
    9000005    1    3    3    0    0  0.39664498514E+02  0.15110843616E+02 -0.75217065952E+02  0.86372547998E+02  0.10000000000E+01 0.  0.
    9000005    1    3    3    0    0 -0.39664498514E+02 -0.15110843616E+02 -0.52544378809E+03  0.52715631883E+03  0.10000000000E+01 0.  0.
<mgrwt>
<rscale>  0 0.12499684E+03</rscale>
<asrwt>0</asrwt>
<pdfrwt beam="2">  1        4 0.93399164E-01 0.12499684E+03</pdfrwt>
<pdfrwt beam="1">  1       -4 0.98984762E-03 0.12499684E+03</pdfrwt>
<totfact> 0.48027964E+03</totfact>
</mgrwt>
</event>
<event>
 5    1  0.3266101E-002  0.1249997E+03  0.7818608E-02  0.1235070E+00
         -4   -1    0    0    0  501 -0.00000000000E+00  0.00000000000E+00  0.73547121775E+02  0.73558086037E+02  0.12700000000E+01 0.  1.
          4   -1    0    0  501    0  0.00000000000E+00 -0.00000000000E+00 -0.53089437543E+02  0.53104625774E+02  0.12700000000E+01 0.  1.
         25    2    1    2    0    0  0.00000000000E+00  0.00000000000E+00  0.20457684233E+02  0.12666271181E+03  0.12499970288E+03 0.  0.
    9000005    1    3    3    0    0  0.48577812561E+02  0.38910622365E+02  0.45515330031E+01  0.62414396246E+02  0.10000000000E+01 0.  0.
    9000005    1    3    3    0    0 -0.48577812561E+02 -0.38910622365E+02  0.15906151230E+02  0.64248315565E+02  0.10000000000E+01 0.  0.
<mgrwt>
<rscale>  0 0.12499970E+03</rscale>
<asrwt>0</asrwt>
<pdfrwt beam="2">  1        4 0.81696175E-02 0.12499970E+03</pdfrwt>
<pdfrwt beam="1">  1       -4 0.11316954E-01 0.12499970E+03</pdfrwt>
<totfact> 0.10416552E+04</totfact>
</mgrwt>
</event>
<event>
 5    1  0.3266101E-002  0.1249987E+03  0.7818608E-02  0.1235071E+00
          4   -1    0    0  501    0  0.00000000000E+00  0.00000000000E+00  0.71555640812E+01  0.72673927457E+01  0.12700000000E+01 0.  1.
         -4   -1    0    0    0  501 -0.00000000000E+00 -0.00000000000E+00 -0.54154710806E+03  0.54154859722E+03  0.12700000000E+01 0.  1.
         25    2    1    2    0    0  0.00000000000E+00  0.00000000000E+00 -0.53439154398E+03  0.54881598997E+03  0.12499867425E+03 0.  0.
    9000005    1    3    3    0    0  0.26179838138E+02 -0.17887029825E+02 -0.30762729298E+02  0.44189085471E+02  0.10000000000E+01 0.  0.
    9000005    1    3    3    0    0 -0.26179838138E+02  0.17887029825E+02 -0.50362881468E+03  0.50462690450E+03  0.10000000000E+01 0.  0.
<mgrwt>
<rscale>  0 0.12499867E+03</rscale>
<asrwt>0</asrwt>
<pdfrwt beam="1">  1        4 0.11095732E-02 0.12499867E+03</pdfrwt>
<pdfrwt beam="2">  1       -4 0.83323624E-01 0.12499867E+03</pdfrwt>
<totfact> 0.52268090E+03</totfact>
</mgrwt>
</event>
<event>
 5    1  0.3266101E-002  0.1250009E+03  0.7818608E-02  0.1235068E+00
         -4   -1    0    0    0  501 -0.00000000000E+00  0.00000000000E+00  0.48119835987E+03  0.48120003579E+03  0.12700000000E+01 0. -1.
          4   -1    0    0  501    0  0.00000000000E+00 -0.00000000000E+00 -0.80664970041E+01  0.81658602680E+01  0.12700000000E+01 0. -1.
         25    2    1    2    0    0  0.00000000000E+00  0.00000000000E+00  0.47313186287E+03  0.48936589606E+03  0.12500088225E+03 0.  0.
    9000005    1    3    3    0    0 -0.29641046028E+02 -0.55009825370E+02  0.23967979996E+03  0.24769351829E+03  0.10000000000E+01 0.  0.
    9000005    1    3    3    0    0  0.29641046028E+02  0.55009825370E+02  0.23345206291E+03  0.24167237776E+03  0.10000000000E+01 0.  0.
<mgrwt>
<rscale>  0 0.12500088E+03</rscale>
<asrwt>0</asrwt>
<pdfrwt beam="2">  1        4 0.12487713E-02 0.12500088E+03</pdfrwt>
<pdfrwt beam="1">  1       -4 0.74038319E-01 0.12500088E+03</pdfrwt>
<totfact> 0.56697869E+03</totfact>
</mgrwt>
</event>
<event>
 5    1  0.3266101E-002  0.1249986E+03  0.7818608E-02  0.1235071E+00
         -4   -1    0    0    0  501 -0.00000000000E+00  0.00000000000E+00  0.20565390915E+02  0.20604567540E+02  0.12700000000E+01 0.  1.
          4   -1    0    0  501    0  0.00000000000E+00 -0.00000000000E+00 -0.18971667764E+03  0.18972092840E+03  0.12700000000E+01 0.  1.
         25    2    1    2    0    0  0.00000000000E+00  0.00000000000E+00 -0.16915128672E+03  0.21032549594E+03  0.12499862577E+03 0.  0.
    9000005    1    3    3    0    0 -0.85292108982E+01  0.34359322957E+01 -0.18858037469E+03  0.18880707293E+03  0.10000000000E+01 0.  0.
    9000005    1    3    3    0    0  0.85292108982E+01 -0.34359322957E+01  0.19429087974E+02  0.21518423008E+02  0.10000000000E+01 0.  0.
<mgrwt>
<rscale>  0 0.12499863E+03</rscale>
<asrwt>0</asrwt>
<pdfrwt beam="2">  1        4 0.29190521E-01 0.12499863E+03</pdfrwt>
<pdfrwt beam="1">  1       -4 0.31672470E-02 0.12499863E+03</pdfrwt>
<totfact> 0.88425468E+03</totfact>
</mgrwt>
</event>
<event>
 5    1  0.3266101E-002  0.1250025E+03  0.7818608E-02  0.1235065E+00
          4   -1    0    0  501    0  0.00000000000E+00  0.00000000000E+00  0.25089423825E+02  0.25121546287E+02  0.12700000000E+01 0.  1.
         -4   -1    0    0    0  501 -0.00000000000E+00 -0.00000000000E+00 -0.15556491196E+03  0.15557009588E+03  0.12700000000E+01 0.  1.
         25    2    1    2    0    0  0.00000000000E+00  0.00000000000E+00 -0.13047548814E+03  0.18069164217E+03  0.12500246616E+03 0.  0.
    9000005    1    3    3    0    0  0.42791818199E+02 -0.37174322995E+02 -0.27203275012E+02  0.62881540744E+02  0.10000000000E+01 0.  0.
    9000005    1    3    3    0    0 -0.42791818199E+02  0.37174322995E+02 -0.10327221312E+03  0.11781010143E+03  0.10000000000E+01 0.  0.
<mgrwt>
<rscale>  0 0.12500247E+03</rscale>
<asrwt>0</asrwt>
<pdfrwt beam="1">  1        4 0.38627812E-02 0.12500247E+03</pdfrwt>
<pdfrwt beam="2">  1       -4 0.23935933E-01 0.12500247E+03</pdfrwt>
<totfact> 0.93487484E+03</totfact>
</mgrwt>
</event>
<event>
 5    1  0.3266101E-002  0.1249990E+03  0.7818608E-02  0.1235071E+00
         -4   -1    0    0    0  501 -0.00000000000E+00  0.00000000000E+00  0.94316489760E+02  0.94325039839E+02  0.12700000000E+01 0.  1.
          4   -1    0    0  501    0  0.00000000000E+00 -0.00000000000E+00 -0.41395566321E+02  0.41415043294E+02  0.12700000000E+01 0.  1.
         25    2    1    2    0    0  0.00000000000E+00  0.00000000000E+00  0.52920923439E+02  0.13574008313E+03  0.12499898412E+03 0.  0.
    9000005    1    3    3    0    0  0.11700009382E+01 -0.61213656289E+02  0.40054368475E+02  0.73169891707E+02  0.10000000000E+01 0.  0.
    9000005    1    3    3    0    0 -0.11700009382E+01  0.61213656289E+02  0.12866554964E+02  0.62570191426E+02  0.10000000000E+01 0.  0.
<mgrwt>
<rscale>  0 0.12499898E+03</rscale>
<asrwt>0</asrwt>
<pdfrwt beam="2">  1        4 0.63707046E-02 0.12499898E+03</pdfrwt>
<pdfrwt beam="1">  1       -4 0.14512385E-01 0.12499898E+03</pdfrwt>
<totfact> 0.10222729E+04</totfact>
</mgrwt>
</event>
<event>
 5    1  0.3266101E-002  0.1250000E+03  0.7818608E-02  0.1235069E+00
         -4   -1    0    0    0  501 -0.00000000000E+00  0.00000000000E+00  0.95134448289E+01  0.95978399920E+01  0.12700000000E+01 0. -1.
          4   -1    0    0  501    0  0.00000000000E+00 -0.00000000000E+00 -0.40870446681E+03  0.40870644000E+03  0.12700000000E+01 0. -1.
         25    2    1    2    0    0  0.00000000000E+00  0.00000000000E+00 -0.39919102198E+03  0.41830427999E+03  0.12499999449E+03 0.  0.
    9000005    1    3    3    0    0  0.14533556020E+02 -0.46374019861E+02 -0.33106719044E+03  0.33461658439E+03  0.10000000000E+01 0.  0.
    9000005    1    3    3    0    0 -0.14533556020E+02  0.46374019861E+02 -0.68123831549E+02  0.83687695593E+02  0.10000000000E+01 0.  0.
<mgrwt>
<rscale>  0 0.12499999E+03</rscale>
<asrwt>0</asrwt>
<pdfrwt beam="2">  1        4 0.62884240E-01 0.12499999E+03</pdfrwt>
<pdfrwt beam="1">  1       -4 0.14702509E-02 0.12499999E+03</pdfrwt>
<totfact> 0.62810651E+03</totfact>
</mgrwt>
</event>
<event>
 5    1  0.3266101E-002  0.1249966E+03  0.7818608E-02  0.1235075E+00
         -4   -1    0    0    0  501 -0.00000000000E+00  0.00000000000E+00  0.32548247942E+03  0.32548495712E+03  0.12700000000E+01 0. -1.
          4   -1    0    0  501    0  0.00000000000E+00 -0.00000000000E+00 -0.11964640198E+02  0.12031854183E+02  0.12700000000E+01 0. -1.
         25    2    1    2    0    0  0.00000000000E+00  0.00000000000E+00  0.31351783922E+03  0.33751681130E+03  0.12499664955E+03 0.  0.
    9000005    1    3    3    0    0 -0.39769306671E+02  0.47324345956E+02  0.18148448942E+03  0.19172587559E+03  0.10000000000E+01 0.  0.
    9000005    1    3    3    0    0  0.39769306671E+02 -0.47324345956E+02  0.13203334980E+03  0.14579093570E+03  0.10000000000E+01 0.  0.
<mgrwt>
<rscale>  0 0.12499665E+03</rscale>
<asrwt>0</asrwt>
<pdfrwt beam="2">  1        4 0.18460751E-02 0.12499665E+03</pdfrwt>
<pdfrwt beam="1">  1       -4 0.50079580E-01 0.12499665E+03</pdfrwt>
<totfact> 0.71125331E+03</totfact>
</mgrwt>
</event>
<event>
 5    1  0.3266101E-002  0.1249995E+03  0.7818608E-02  0.1235070E+00
         -4   -1    0    0    0  501 -0.00000000000E+00  0.00000000000E+00  0.26999706204E+02  0.27029558545E+02  0.12700000000E+01 0. -1.
          4   -1    0    0  501    0  0.00000000000E+00 -0.00000000000E+00 -0.14456371983E+03  0.14456929823E+03  0.12700000000E+01 0. -1.
         25    2    1    2    0    0  0.00000000000E+00  0.00000000000E+00 -0.11756401363E+03  0.17159885678E+03  0.12499948139E+03 0.  0.
    9000005    1    3    3    0    0 -0.17807690893E+02 -0.28301140046E+02 -0.13125668376E+03  0.13545252089E+03  0.10000000000E+01 0.  0.
    9000005    1    3    3    0    0  0.17807690893E+02  0.28301140046E+02  0.13692670134E+02  0.36146335890E+02  0.10000000000E+01 0.  0.
<mgrwt>
<rscale>  0 0.12499948E+03</rscale>
<asrwt>0</asrwt>
<pdfrwt beam="2">  1        4 0.22243297E-01 0.12499948E+03</pdfrwt>
<pdfrwt beam="1">  1       -4 0.41565265E-02 0.12499948E+03</pdfrwt>
<totfact> 0.95152576E+03</totfact>
</mgrwt>
</event>
<event>
 5    1  0.3266101E-002  0.1250042E+03  0.7818608E-02  0.1235063E+00
          4   -1    0    0  501    0  0.00000000000E+00  0.00000000000E+00  0.17422967678E+03  0.17423430538E+03  0.12700000000E+01 0.  1.
         -4   -1    0    0    0  501 -0.00000000000E+00 -0.00000000000E+00 -0.22398713581E+02  0.22434688990E+02  0.12700000000E+01 0.  1.
         25    2    1    2    0    0  0.00000000000E+00  0.00000000000E+00  0.15183096320E+03  0.19666899437E+03  0.12500420777E+03 0.  0.
    9000005    1    3    3    0    0 -0.34287313796E+01 -0.40427972829E+02  0.11326926992E+01  0.40601233709E+02  0.10000000000E+01 0.  0.
    9000005    1    3    3    0    0  0.34287313796E+01  0.40427972829E+02  0.15069827050E+03  0.15606776066E+03  0.10000000000E+01 0.  0.
<mgrwt>
<rscale>  0 0.12500421E+03</rscale>
<asrwt>0</asrwt>
<pdfrwt beam="1">  1        4 0.26807688E-01 0.12500421E+03</pdfrwt>
<pdfrwt beam="2">  1       -4 0.34490794E-02 0.12500421E+03</pdfrwt>
<totfact> 0.90691162E+03</totfact>
</mgrwt>
</event>
<event>
 5    1  0.3266101E-002  0.1250003E+03  0.7818608E-02  0.1235069E+00
         -4   -1    0    0    0  501 -0.00000000000E+00  0.00000000000E+00  0.11606171613E+03  0.11606866438E+03  0.12700000000E+01 0.  1.
          4   -1    0    0  501    0  0.00000000000E+00 -0.00000000000E+00 -0.33636909496E+02  0.33660876110E+02  0.12700000000E+01 0.  1.
         25    2    1    2    0    0  0.00000000000E+00  0.00000000000E+00  0.82424806631E+02  0.14972954049E+03  0.12500034618E+03 0.  0.
    9000005    1    3    3    0    0 -0.50583323787E+02  0.33244028029E+02  0.59824492445E+02  0.85110563041E+02  0.10000000000E+01 0.  0.
    9000005    1    3    3    0    0  0.50583323787E+02 -0.33244028029E+02  0.22600314186E+02  0.64618977446E+02  0.10000000000E+01 0.  0.
<mgrwt>
<rscale>  0 0.12500035E+03</rscale>
<asrwt>0</asrwt>
<pdfrwt beam="2">  1        4 0.51772871E-02 0.12500035E+03</pdfrwt>
<pdfrwt beam="1">  1       -4 0.17858027E-01 0.12500035E+03</pdfrwt>
<totfact> 0.99356863E+03</totfact>
</mgrwt>
</event>
<event>
 5    1  0.3266101E-002  0.1249976E+03  0.7818608E-02  0.1235073E+00
         -4   -1    0    0    0  501 -0.00000000000E+00  0.00000000000E+00  0.58089347974E+03  0.58089486803E+03  0.12700000000E+01 0.  1.
          4   -1    0    0  501    0  0.00000000000E+00 -0.00000000000E+00 -0.66629228336E+01  0.67828784956E+01  0.12700000000E+01 0.  1.
         25    2    1    2    0    0  0.00000000000E+00  0.00000000000E+00  0.57423055690E+03  0.58767774652E+03  0.12499760509E+03 0.  0.
    9000005    1    3    3    0    0  0.39602848013E+02 -0.28771796644E+02  0.46974336214E+03  0.47228807748E+03  0.10000000000E+01 0.  0.
    9000005    1    3    3    0    0 -0.39602848013E+02  0.28771796644E+02  0.10448719476E+03  0.11538966904E+03  0.10000000000E+01 0.  0.
<mgrwt>
<rscale>  0 0.12499761E+03</rscale>
<asrwt>0</asrwt>
<pdfrwt beam="2">  1        4 0.10343992E-02 0.12499761E+03</pdfrwt>
<pdfrwt beam="1">  1       -4 0.89377563E-01 0.12499761E+03</pdfrwt>
<totfact> 0.49657388E+03</totfact>
</mgrwt>
</event>
<event>
 5    1  0.3266101E-002  0.1249996E+03  0.7818608E-02  0.1235070E+00
          4   -1    0    0  501    0  0.00000000000E+00  0.00000000000E+00  0.10132822478E+03  0.10133618326E+03  0.12700000000E+01 0.  1.
         -4   -1    0    0    0  501 -0.00000000000E+00 -0.00000000000E+00 -0.38530277916E+02  0.38551202527E+02  0.12700000000E+01 0.  1.
         25    2    1    2    0    0  0.00000000000E+00  0.00000000000E+00  0.62797946864E+02  0.13988738578E+03  0.12499959428E+03 0.  0.
    9000005    1    3    3    0    0 -0.40462532765E+02 -0.29469759170E+02 -0.10467157037E+02  0.51149238897E+02  0.10000000000E+01 0.  0.
    9000005    1    3    3    0    0  0.40462532765E+02  0.29469759170E+02  0.73265103901E+02  0.88738146887E+02  0.10000000000E+01 0.  0.
<mgrwt>
<rscale>  0 0.12499959E+03</rscale>
<asrwt>0</asrwt>
<pdfrwt beam="1">  1        4 0.15591179E-01 0.12499959E+03</pdfrwt>
<pdfrwt beam="2">  1       -4 0.59299569E-02 0.12499959E+03</pdfrwt>
<totfact> 0.10136013E+04</totfact>
</mgrwt>
</event>
<event>
 5    1  0.3266101E-002  0.1250073E+03  0.7818608E-02  0.1235058E+00
         -4   -1    0    0    0  501 -0.00000000000E+00  0.00000000000E+00  0.11346789608E+03  0.11347500316E+03  0.12700000000E+01 0. -1.
          4   -1    0    0  501    0  0.00000000000E+00 -0.00000000000E+00 -0.34410140876E+02  0.34433569305E+02  0.12700000000E+01 0. -1.
         25    2    1    2    0    0  0.00000000000E+00  0.00000000000E+00  0.79057755209E+02  0.14790857246E+03  0.12500726839E+03 0.  0.
    9000005    1    3    3    0    0 -0.34111787393E+02 -0.26769526348E+02 -0.13721458113E+02  0.45491757415E+02  0.10000000000E+01 0.  0.
    9000005    1    3    3    0    0  0.34111787393E+02  0.26769526348E+02  0.92779213322E+02  0.10241681505E+03  0.10000000000E+01 0.  0.
<mgrwt>
<rscale>  0 0.12500727E+03</rscale>
<asrwt>0</asrwt>
<pdfrwt beam="2">  1        4 0.52962167E-02 0.12500727E+03</pdfrwt>
<pdfrwt beam="1">  1       -4 0.17458948E-01 0.12500727E+03</pdfrwt>
<totfact> 0.99705923E+03</totfact>
</mgrwt>
</event>
<event>
 5    1  0.3266101E-002  0.1249990E+03  0.7818608E-02  0.1235071E+00
          4   -1    0    0  501    0  0.00000000000E+00  0.00000000000E+00  0.80428739405E+01  0.81425254819E+01  0.12700000000E+01 0.  1.
         -4   -1    0    0    0  501 -0.00000000000E+00 -0.00000000000E+00 -0.48257990322E+03  0.48258157434E+03  0.12700000000E+01 0.  1.
         25    2    1    2    0    0  0.00000000000E+00  0.00000000000E+00 -0.47453702928E+03  0.49072409982E+03  0.12499899995E+03 0.  0.
    9000005    1    3    3    0    0 -0.42110581673E+02  0.36858136984E+02 -0.12809359886E+03  0.13978838800E+03  0.10000000000E+01 0.  0.
    9000005    1    3    3    0    0  0.42110581673E+02 -0.36858136984E+02 -0.34644343042E+03  0.35093571182E+03  0.10000000000E+01 0.  0.
<mgrwt>
<rscale>  0 0.12499900E+03</rscale>
<asrwt>0</asrwt>
<pdfrwt beam="1">  1        4 0.12451596E-02 0.12499900E+03</pdfrwt>
<pdfrwt beam="2">  1       -4 0.74250834E-01 0.12499900E+03</pdfrwt>
<totfact> 0.56592568E+03</totfact>
</mgrwt>
</event>
<event>
 5    1  0.3266101E-002  0.1249983E+03  0.7818608E-02  0.1235072E+00
          4   -1    0    0  501    0  0.00000000000E+00  0.00000000000E+00  0.14733923784E+03  0.14734471116E+03  0.12700000000E+01 0.  1.
         -4   -1    0    0    0  501 -0.00000000000E+00 -0.00000000000E+00 -0.26490047411E+02  0.26520473447E+02  0.12700000000E+01 0.  1.
         25    2    1    2    0    0  0.00000000000E+00  0.00000000000E+00  0.12084919043E+03  0.17386518461E+03  0.12499830236E+03 0.  0.
    9000005    1    3    3    0    0 -0.35844635684E+02  0.40624155836E+02  0.17104361988E+02  0.56821819258E+02  0.10000000000E+01 0.  0.
    9000005    1    3    3    0    0  0.35844635684E+02 -0.40624155836E+02  0.10374482844E+03  0.11704336535E+03  0.10000000000E+01 0.  0.
<mgrwt>
<rscale>  0 0.12499830E+03</rscale>
<asrwt>0</asrwt>
<pdfrwt beam="1">  1        4 0.22670336E-01 0.12499830E+03</pdfrwt>
<pdfrwt beam="2">  1       -4 0.40781534E-02 0.12499830E+03</pdfrwt>
<totfact> 0.94736699E+03</totfact>
</mgrwt>
</event>
<event>
 5    1  0.3266101E-002  0.1249994E+03  0.7818608E-02  0.1235070E+00
         -4   -1    0    0    0  501 -0.00000000000E+00  0.00000000000E+00  0.79949823704E+03  0.79949924573E+03  0.12700000000E+01 0. -1.
          4   -1    0    0  501    0  0.00000000000E+00 -0.00000000000E+00 -0.48022703088E+01  0.49673634978E+01  0.12700000000E+01 0. -1.
         25    2    1    2    0    0  0.00000000000E+00  0.00000000000E+00  0.79469596673E+03  0.80446660923E+03  0.12499938332E+03 0.  0.
    9000005    1    3    3    0    0  0.27294122237E+02  0.50252406056E+02  0.55951623103E+03  0.56243193918E+03  0.10000000000E+01 0.  0.
    9000005    1    3    3    0    0 -0.27294122237E+02 -0.50252406056E+02  0.23517973570E+03  0.24203467005E+03  0.10000000000E+01 0.  0.
<mgrwt>
<rscale>  0 0.12499938E+03</rscale>
<asrwt>0</asrwt>
<pdfrwt beam="2">  1        4 0.75158746E-03 0.12499938E+03</pdfrwt>
<pdfrwt beam="1">  1       -4 0.12301257E+00 0.12499938E+03</pdfrwt>
<totfact> 0.38066592E+03</totfact>
</mgrwt>
</event>
<event>
 5    1  0.3266101E-002  0.1250059E+03  0.7818608E-02  0.1235060E+00
         -4   -1    0    0    0  501 -0.00000000000E+00  0.00000000000E+00  0.33427725476E+03  0.33427966727E+03  0.12700000000E+01 0. -1.
          4   -1    0    0  501    0  0.00000000000E+00 -0.00000000000E+00 -0.11649806232E+02  0.11718826104E+02  0.12700000000E+01 0. -1.
         25    2    1    2    0    0  0.00000000000E+00  0.00000000000E+00  0.32262744853E+03  0.34599849338E+03  0.12500594735E+03 0.  0.
    9000005    1    3    3    0    0 -0.24149644475E+01 -0.13406582533E+02  0.33013147434E+03  0.33041392050E+03  0.10000000000E+01 0.  0.
    9000005    1    3    3    0    0  0.24149644475E+01  0.13406582533E+02 -0.75040258092E+01  0.15584572880E+02  0.10000000000E+01 0.  0.
<mgrwt>
<rscale>  0 0.12500595E+03</rscale>
<asrwt>0</asrwt>
<pdfrwt beam="2">  1        4 0.17977729E-02 0.12500595E+03</pdfrwt>
<pdfrwt beam="1">  1       -4 0.51432757E-01 0.12500595E+03</pdfrwt>
<totfact> 0.70157792E+03</totfact>
</mgrwt>
</event>
<event>
 5    1  0.3266101E-002  0.1249976E+03  0.7818608E-02  0.1235073E+00
         -4   -1    0    0    0  501 -0.00000000000E+00  0.00000000000E+00  0.68931804276E+02  0.68943502528E+02  0.12700000000E+01 0. -1.
          4   -1    0    0  501    0  0.00000000000E+00 -0.00000000000E+00 -0.56642568104E+02  0.56656803840E+02  0.12700000000E+01 0. -1.
         25    2    1    2    0    0  0.00000000000E+00  0.00000000000E+00  0.12289236172E+02  0.12560030637E+03  0.12499764651E+03 0.  0.
    9000005    1    3    3    0    0 -0.62208351145E+02  0.42600522031E+01  0.19923937302E+01  0.62393882951E+02  0.10000000000E+01 0.  0.
    9000005    1    3    3    0    0  0.62208351145E+02 -0.42600522031E+01  0.10296842442E+02  0.63206423417E+02  0.10000000000E+01 0.  0.
<mgrwt>
<rscale>  0 0.12499765E+03</rscale>
<asrwt>0</asrwt>
<pdfrwt beam="2">  1        4 0.87162362E-02 0.12499765E+03</pdfrwt>
<pdfrwt beam="1">  1       -4 0.10606888E-01 0.12499765E+03</pdfrwt>
<totfact> 0.10440294E+04</totfact>
</mgrwt>
</event>
<event>
 5    1  0.3266101E-002  0.1250020E+03  0.7818608E-02  0.1235066E+00
         -4   -1    0    0    0  501 -0.00000000000E+00  0.00000000000E+00  0.16100255045E+02  0.16150266639E+02  0.12700000000E+01 0.  1.
          4   -1    0    0  501    0  0.00000000000E+00 -0.00000000000E+00 -0.24220027732E+03  0.24220360698E+03  0.12700000000E+01 0.  1.
         25    2    1    2    0    0  0.00000000000E+00  0.00000000000E+00 -0.22610002228E+03  0.25835387362E+03  0.12500201575E+03 0.  0.
    9000005    1    3    3    0    0 -0.47066440103E+02  0.82481687084E+01 -0.29809266113E+02  0.56328273693E+02  0.10000000000E+01 0.  0.
    9000005    1    3    3    0    0  0.47066440103E+02 -0.82481687084E+01 -0.19629075617E+03  0.20202559993E+03  0.10000000000E+01 0.  0.
<mgrwt>
<rscale>  0 0.12500202E+03</rscale>
<asrwt>0</asrwt>
<pdfrwt beam="2">  1        4 0.37265682E-01 0.12500202E+03</pdfrwt>
<pdfrwt beam="1">  1       -4 0.24810657E-02 0.12500202E+03</pdfrwt>
<totfact> 0.81133988E+03</totfact>
</mgrwt>
</event>
<event>
 5    1  0.3266101E-002  0.1249997E+03  0.7818608E-02  0.1235070E+00
          4   -1    0    0  501    0  0.00000000000E+00  0.00000000000E+00  0.30081064435E+02  0.30107861723E+02  0.12700000000E+01 0.  1.
         -4   -1    0    0    0  501 -0.00000000000E+00 -0.00000000000E+00 -0.12976919037E+03  0.12977540471E+03  0.12700000000E+01 0.  1.
         25    2    1    2    0    0  0.00000000000E+00  0.00000000000E+00 -0.99688125932E+02  0.15988326644E+03  0.12499974574E+03 0.  0.
    9000005    1    3    3    0    0 -0.44353924397E+02 -0.20975654286E+02 -0.33922117948E+00  0.49075082814E+02  0.10000000000E+01 0.  0.
    9000005    1    3    3    0    0  0.44353924397E+02  0.20975654286E+02 -0.99348904753E+02  0.11080818362E+03  0.10000000000E+01 0.  0.
<mgrwt>
<rscale>  0 0.12499975E+03</rscale>
<asrwt>0</asrwt>
<pdfrwt beam="1">  1        4 0.46303955E-02 0.12499975E+03</pdfrwt>
<pdfrwt beam="2">  1       -4 0.19967030E-01 0.12499975E+03</pdfrwt>
<totfact> 0.97365852E+03</totfact>
</mgrwt>
</event>
<event>
 5    1  0.3266101E-002  0.1250026E+03  0.7818608E-02  0.1235065E+00
          4   -1    0    0  501    0  0.00000000000E+00  0.00000000000E+00  0.25938334578E+02  0.25969407014E+02  0.12700000000E+01 0. -1.
         -4   -1    0    0    0  501 -0.00000000000E+00 -0.00000000000E+00 -0.15047990905E+03  0.15048526814E+03  0.12700000000E+01 0. -1.
         25    2    1    2    0    0  0.00000000000E+00  0.00000000000E+00 -0.12454157447E+03  0.17645467515E+03  0.12500259442E+03 0.  0.
    9000005    1    3    3    0    0  0.51900408687E+01  0.26528875399E+02  0.17265461774E+02  0.32090713991E+02  0.10000000000E+01 0.  0.
    9000005    1    3    3    0    0 -0.51900408687E+01 -0.26528875399E+02 -0.14180703624E+03  0.14436396116E+03  0.10000000000E+01 0.  0.
<mgrwt>
<rscale>  0 0.12500259E+03</rscale>
<asrwt>0</asrwt>
<pdfrwt beam="1">  1        4 0.39933155E-02 0.12500259E+03</pdfrwt>
<pdfrwt beam="2">  1       -4 0.23153557E-01 0.12500259E+03</pdfrwt>
<totfact> 0.94253609E+03</totfact>
</mgrwt>
</event>
<event>
 5    1  0.3266101E-002  0.1250001E+03  0.7818608E-02  0.1235069E+00
          4   -1    0    0  501    0  0.00000000000E+00  0.00000000000E+00  0.39120474241E+02  0.39141083338E+02  0.12700000000E+01 0.  1.
         -4   -1    0    0    0  501 -0.00000000000E+00 -0.00000000000E+00 -0.99801040041E+02  0.99809120291E+02  0.12700000000E+01 0.  1.
         25    2    1    2    0    0  0.00000000000E+00  0.00000000000E+00 -0.60680565800E+02  0.13895020363E+03  0.12500011209E+03 0.  0.
    9000005    1    3    3    0    0 -0.83398309837E+01 -0.56981125711E+02 -0.33657975885E+01  0.57695147643E+02  0.10000000000E+01 0.  0.
    9000005    1    3    3    0    0  0.83398309837E+01  0.56981125711E+02 -0.57314768211E+02  0.81255055986E+02  0.10000000000E+01 0.  0.
<mgrwt>
<rscale>  0 0.12500011E+03</rscale>
<asrwt>0</asrwt>
<pdfrwt beam="1">  1        4 0.60207414E-02 0.12500011E+03</pdfrwt>
<pdfrwt beam="2">  1       -4 0.15356213E-01 0.12500011E+03</pdfrwt>
<totfact> 0.10155364E+04</totfact>
</mgrwt>
</event>
<event>
 5    1  0.3266101E-002  0.1249984E+03  0.7818608E-02  0.1235072E+00
         -4   -1    0    0    0  501 -0.00000000000E+00  0.00000000000E+00  0.11327600972E+02  0.11398572006E+02  0.12700000000E+01 0.  1.
          4   -1    0    0  501    0  0.00000000000E+00 -0.00000000000E+00 -0.34368549050E+03  0.34368783696E+03  0.12700000000E+01 0.  1.
         25    2    1    2    0    0  0.00000000000E+00  0.00000000000E+00 -0.33235788952E+03  0.35508640897E+03  0.12499836442E+03 0.  0.
    9000005    1    3    3    0    0  0.84177729359E+00 -0.40669222529E+02 -0.31417783737E+02  0.51407892245E+02  0.10000000000E+01 0.  0.
    9000005    1    3    3    0    0 -0.84177729359E+00  0.40669222529E+02 -0.30094010579E+03  0.30367851673E+03  0.10000000000E+01 0.  0.
<mgrwt>
<rscale>  0 0.12499836E+03</rscale>
<asrwt>0</asrwt>
<pdfrwt beam="2">  1        4 0.52880323E-01 0.12499836E+03</pdfrwt>
<pdfrwt beam="1">  1       -4 0.17483479E-02 0.12499836E+03</pdfrwt>
<totfact> 0.69171096E+03</totfact>
</mgrwt>
</event>
<event>
 5    1  0.3266101E-002  0.1249959E+03  0.7818608E-02  0.1235076E+00
          4   -1    0    0  501    0  0.00000000000E+00  0.00000000000E+00  0.92200387450E+01  0.93070948453E+01  0.12700000000E+01 0. -1.
         -4   -1    0    0    0  501 -0.00000000000E+00 -0.00000000000E+00 -0.42156288837E+03  0.42156480136E+03  0.12700000000E+01 0. -1.
         25    2    1    2    0    0  0.00000000000E+00  0.00000000000E+00 -0.41234284962E+03  0.43087189621E+03  0.12499586116E+03 0.  0.
    9000005    1    3    3    0    0  0.54037787738E+02  0.17981843387E+02 -0.11750935738E+03  0.13058666956E+03  0.10000000000E+01 0.  0.
    9000005    1    3    3    0    0 -0.54037787738E+02 -0.17981843387E+02 -0.29483349224E+03  0.30028522665E+03  0.10000000000E+01 0.  0.
<mgrwt>
<rscale>  0 0.12499586E+03</rscale>
<asrwt>0</asrwt>
<pdfrwt beam="1">  1        4 0.14253116E-02 0.12499586E+03</pdfrwt>
<pdfrwt beam="2">  1       -4 0.64862658E-01 0.12499586E+03</pdfrwt>
<totfact> 0.61662672E+03</totfact>
</mgrwt>
</event>
<event>
 5    1  0.3266101E-002  0.1249921E+03  0.7818608E-02  0.1235082E+00
          4   -1    0    0  501    0  0.00000000000E+00  0.00000000000E+00  0.12358498058E+03  0.12359150587E+03  0.12700000000E+01 0.  1.
         -4   -1    0    0    0  501 -0.00000000000E+00 -0.00000000000E+00 -0.31583673904E+02  0.31609197353E+02  0.12700000000E+01 0.  1.
         25    2    1    2    0    0  0.00000000000E+00  0.00000000000E+00  0.92001306672E+02  0.15520070323E+03  0.12499207116E+03 0.  0.
    9000005    1    3    3    0    0  0.61225242995E+02 -0.78974290486E+01  0.58029922091E+02  0.84731172677E+02  0.10000000000E+01 0.  0.
    9000005    1    3    3    0    0 -0.61225242995E+02  0.78974290486E+01  0.33971384581E+02  0.70469530549E+02  0.10000000000E+01 0.  0.
<mgrwt>
<rscale>  0 0.12499207E+03</rscale>
<asrwt>0</asrwt>
<pdfrwt beam="1">  1        4 0.19015540E-01 0.12499207E+03</pdfrwt>
<pdfrwt beam="2">  1       -4 0.48614919E-02 0.12499207E+03</pdfrwt>
<totfact> 0.98293638E+03</totfact>
</mgrwt>
</event>
<event>
 5    1  0.3266101E-002  0.1250033E+03  0.7818608E-02  0.1235064E+00
          4   -1    0    0  501    0  0.00000000000E+00  0.00000000000E+00  0.49765741321E+02  0.49781943607E+02  0.12700000000E+01 0.  1.
         -4   -1    0    0    0  501 -0.00000000000E+00 -0.00000000000E+00 -0.78462797328E+02  0.78473074775E+02  0.12700000000E+01 0.  1.
         25    2    1    2    0    0  0.00000000000E+00  0.00000000000E+00 -0.28697056007E+02  0.12825501838E+03  0.12500331482E+03 0.  0.
    9000005    1    3    3    0    0  0.48999124941E+02 -0.38587626655E+02 -0.18392893915E+02  0.65032435926E+02  0.10000000000E+01 0.  0.
    9000005    1    3    3    0    0 -0.48999124941E+02  0.38587626655E+02 -0.10304162092E+02  0.63222582455E+02  0.10000000000E+01 0.  0.
<mgrwt>
<rscale>  0 0.12500331E+03</rscale>
<asrwt>0</asrwt>
<pdfrwt beam="1">  1        4 0.76583048E-02 0.12500331E+03</pdfrwt>
<pdfrwt beam="2">  1       -4 0.12073237E-01 0.12500331E+03</pdfrwt>
<totfact> 0.10381207E+04</totfact>
</mgrwt>
</event>
<event>
 5    1  0.3266101E-002  0.1249937E+03  0.7818608E-02  0.1235079E+00
         -4   -1    0    0    0  501 -0.00000000000E+00  0.00000000000E+00  0.16748637489E+03  0.16749118984E+03  0.12700000000E+01 0. -1.
          4   -1    0    0  501    0  0.00000000000E+00 -0.00000000000E+00 -0.23297999644E+02  0.23332588528E+02  0.12700000000E+01 0. -1.
         25    2    1    2    0    0  0.00000000000E+00  0.00000000000E+00  0.14418837525E+03  0.19082377837E+03  0.12499370718E+03 0.  0.
    9000005    1    3    3    0    0 -0.58384927306E+02 -0.61120122271E+01  0.10479125813E+03  0.12011812607E+03  0.10000000000E+01 0.  0.
    9000005    1    3    3    0    0  0.58384927306E+02  0.61120122271E+01  0.39397117117E+02  0.70705652299E+02  0.10000000000E+01 0.  0.
<mgrwt>
<rscale>  0 0.12499371E+03</rscale>
<asrwt>0</asrwt>
<pdfrwt beam="2">  1        4 0.35873388E-02 0.12499371E+03</pdfrwt>
<pdfrwt beam="1">  1       -4 0.25770165E-01 0.12499371E+03</pdfrwt>
<totfact> 0.91717104E+03</totfact>
</mgrwt>
</event>
<event>
 5    1  0.3266101E-002  0.1249990E+03  0.7818608E-02  0.1235071E+00
          4   -1    0    0  501    0  0.00000000000E+00  0.00000000000E+00  0.31097993411E+01  0.33591296405E+01  0.12700000000E+01 0. -1.
         -4   -1    0    0    0  501 -0.00000000000E+00 -0.00000000000E+00 -0.12074268056E+04  0.12074274735E+04  0.12700000000E+01 0. -1.
         25    2    1    2    0    0  0.00000000000E+00  0.00000000000E+00 -0.12043170063E+04  0.12107866032E+04  0.12499898719E+03 0.  0.
    9000005    1    3    3    0    0 -0.48853940294E+02  0.35681016544E+02 -0.75388068446E+03  0.75630478567E+03  0.10000000000E+01 0.  0.
    9000005    1    3    3    0    0  0.48853940294E+02 -0.35681016544E+02 -0.45043632183E+03  0.45448181751E+03  0.10000000000E+01 0.  0.
<mgrwt>
<rscale>  0 0.12499899E+03</rscale>
<asrwt>0</asrwt>
<pdfrwt beam="1">  1        4 0.49766227E-03 0.12499899E+03</pdfrwt>
<pdfrwt beam="2">  1       -4 0.18577684E+00 0.12499899E+03</pdfrwt>
<totfact> 0.24432746E+03</totfact>
</mgrwt>
</event>
<event>
 5    1  0.3266101E-002  0.1249980E+03  0.7818608E-02  0.1235072E+00
          4   -1    0    0  501    0  0.00000000000E+00  0.00000000000E+00  0.31415787868E+02  0.31441447603E+02  0.12700000000E+01 0.  1.
         -4   -1    0    0    0  501 -0.00000000000E+00 -0.00000000000E+00 -0.12425663381E+03  0.12426312384E+03  0.12700000000E+01 0.  1.
         25    2    1    2    0    0  0.00000000000E+00  0.00000000000E+00 -0.92840845943E+02  0.15570457144E+03  0.12499796355E+03 0.  0.
    9000005    1    3    3    0    0 -0.39254297753E+01  0.49623658185E+01  0.31021861469E+02  0.31676331266E+02  0.10000000000E+01 0.  0.
    9000005    1    3    3    0    0  0.39254297753E+01 -0.49623658185E+01 -0.12386270741E+03  0.12402824018E+03  0.10000000000E+01 0.  0.
<mgrwt>
<rscale>  0 0.12499796E+03</rscale>
<asrwt>0</asrwt>
<pdfrwt beam="1">  1        4 0.48356713E-02 0.12499796E+03</pdfrwt>
<pdfrwt beam="2">  1       -4 0.19118878E-01 0.12499796E+03</pdfrwt>
<totfact> 0.98181856E+03</totfact>
</mgrwt>
</event>
<event>
 5    1  0.3266101E-002  0.1250036E+03  0.7818608E-02  0.1235064E+00
         -4   -1    0    0    0  501 -0.00000000000E+00  0.00000000000E+00  0.72985016300E+01  0.74081729221E+01  0.12700000000E+01 0. -1.
          4   -1    0    0  501    0  0.00000000000E+00 -0.00000000000E+00 -0.53114164065E+03  0.53114315898E+03  0.12700000000E+01 0. -1.
         25    2    1    2    0    0  0.00000000000E+00  0.00000000000E+00 -0.52384313902E+03  0.53855133190E+03  0.12500361113E+03 0.  0.
    9000005    1    3    3    0    0  0.37653231419E+02 -0.46663252329E+02 -0.18603569181E+03  0.19546228174E+03  0.10000000000E+01 0.  0.
    9000005    1    3    3    0    0 -0.37653231419E+02  0.46663252329E+02 -0.33780744721E+03  0.34308905016E+03  0.10000000000E+01 0.  0.
<mgrwt>
<rscale>  0 0.12500361E+03</rscale>
<asrwt>0</asrwt>
<pdfrwt beam="2">  1        4 0.81722622E-01 0.12500361E+03</pdfrwt>
<pdfrwt beam="1">  1       -4 0.11313999E-02 0.12500361E+03</pdfrwt>
<totfact> 0.52988404E+03</totfact>
</mgrwt>
</event>
<event>
 5    1  0.3266101E-002  0.1249907E+03  0.7818608E-02  0.1235084E+00
          4   -1    0    0  501    0  0.00000000000E+00  0.00000000000E+00  0.99154424622E+02  0.99162557561E+02  0.12700000000E+01 0.  1.
         -4   -1    0    0    0  501 -0.00000000000E+00 -0.00000000000E+00 -0.39369741135E+02  0.39390219814E+02  0.12700000000E+01 0.  1.
         25    2    1    2    0    0  0.00000000000E+00  0.00000000000E+00  0.59784683487E+02  0.13855277738E+03  0.12499065461E+03 0.  0.
    9000005    1    3    3    0    0 -0.55474288324E+02 -0.26136118247E+02  0.16582311341E+02  0.63533191259E+02  0.10000000000E+01 0.  0.
    9000005    1    3    3    0    0  0.55474288324E+02  0.26136118247E+02  0.43202372147E+02  0.75019586117E+02  0.10000000000E+01 0.  0.
<mgrwt>
<rscale>  0 0.12499065E+03</rscale>
<asrwt>0</asrwt>
<pdfrwt beam="1">  1        4 0.15256728E-01 0.12499065E+03</pdfrwt>
<pdfrwt beam="2">  1       -4 0.60590842E-02 0.12499065E+03</pdfrwt>
<totfact> 0.10165809E+04</totfact>
</mgrwt>
</event>
<event>
 5    1  0.3266101E-002  0.1250049E+03  0.7818608E-02  0.1235062E+00
          4   -1    0    0  501    0  0.00000000000E+00  0.00000000000E+00  0.72518453478E+03  0.72518564685E+03  0.12700000000E+01 0. -1.
         -4   -1    0    0    0  501 -0.00000000000E+00 -0.00000000000E+00 -0.53109983066E+01  0.54607328274E+01  0.12700000000E+01 0. -1.
         25    2    1    2    0    0  0.00000000000E+00  0.00000000000E+00  0.71987353648E+03  0.73064637967E+03  0.12500489434E+03 0.  0.
    9000005    1    3    3    0    0  0.21960891308E+02 -0.51674611244E+02  0.19954557922E+03  0.20729685087E+03  0.10000000000E+01 0.  0.
    9000005    1    3    3    0    0 -0.21960891308E+02  0.51674611244E+02  0.52032795726E+03  0.52334952880E+03  0.10000000000E+01 0.  0.
<mgrwt>
<rscale>  0 0.12500489E+03</rscale>
<asrwt>0</asrwt>
<pdfrwt beam="1">  1        4 0.11157842E+00 0.12500489E+03</pdfrwt>
<pdfrwt beam="2">  1       -4 0.82868050E-03 0.12500489E+03</pdfrwt>
<totfact> 0.41512933E+03</totfact>
</mgrwt>
</event>
<event>
 5    1  0.3266101E-002  0.1250013E+03  0.7818608E-02  0.1235067E+00
         -4   -1    0    0    0  501 -0.00000000000E+00  0.00000000000E+00  0.31793943851E+02  0.31819298635E+02  0.12700000000E+01 0.  1.
          4   -1    0    0  501    0  0.00000000000E+00 -0.00000000000E+00 -0.12278648869E+03  0.12279305642E+03  0.12700000000E+01 0.  1.
         25    2    1    2    0    0  0.00000000000E+00  0.00000000000E+00 -0.90992544840E+02  0.15461235505E+03  0.12500134847E+03 0.  0.
    9000005    1    3    3    0    0  0.56088043079E+02  0.14506982812E+02 -0.74477773249E+02  0.94362385699E+02  0.10000000000E+01 0.  0.
    9000005    1    3    3    0    0 -0.56088043079E+02 -0.14506982812E+02 -0.16514771591E+02  0.60249969356E+02  0.10000000000E+01 0.  0.
<mgrwt>
<rscale>  0 0.12500135E+03</rscale>
<asrwt>0</asrwt>
<pdfrwt beam="2">  1        4 0.18892684E-01 0.12500135E+03</pdfrwt>
<pdfrwt beam="1">  1       -4 0.48938316E-02 0.12500135E+03</pdfrwt>
<totfact> 0.98388668E+03</totfact>
</mgrwt>
</event>
<event>
 5    1  0.3266101E-002  0.1250002E+03  0.7818608E-02  0.1235069E+00
         -4   -1    0    0    0  501 -0.00000000000E+00  0.00000000000E+00  0.20416071234E+03  0.20416466238E+03  0.12700000000E+01 0.  1.
          4   -1    0    0  501    0  0.00000000000E+00 -0.00000000000E+00 -0.19108069428E+02  0.19150227604E+02  0.12700000000E+01 0.  1.
         25    2    1    2    0    0  0.00000000000E+00  0.00000000000E+00  0.18505264292E+03  0.22331488998E+03  0.12500023775E+03 0.  0.
    9000005    1    3    3    0    0 -0.23456443910E+02 -0.11820368002E+02 -0.87761933034E+01  0.27711864418E+02  0.10000000000E+01 0.  0.
    9000005    1    3    3    0    0  0.23456443910E+02  0.11820368002E+02  0.19382883622E+03  0.19560302557E+03  0.10000000000E+01 0.  0.
<mgrwt>
<rscale>  0 0.12500024E+03</rscale>
<asrwt>0</asrwt>
<pdfrwt beam="2">  1        4 0.29432495E-02 0.12500024E+03</pdfrwt>
<pdfrwt beam="1">  1       -4 0.31412890E-01 0.12500024E+03</pdfrwt>
<totfact> 0.86346052E+03</totfact>
</mgrwt>
</event>
<event>
 5    1  0.3266101E-002  0.1249500E+03  0.7818608E-02  0.1235147E+00
          4   -1    0    0  501    0  0.00000000000E+00  0.00000000000E+00  0.43844630994E+02  0.43863020496E+02  0.12700000000E+01 0.  1.
         -4   -1    0    0    0  501 -0.00000000000E+00 -0.00000000000E+00 -0.88980124144E+02  0.88989186943E+02  0.12700000000E+01 0.  1.
         25    2    1    2    0    0  0.00000000000E+00  0.00000000000E+00 -0.45135493150E+02  0.13285220744E+03  0.12494997511E+03 0.  0.
    9000005    1    3    3    0    0  0.27786656818E+02 -0.55525951429E+02 -0.29848788182E+02  0.68899780371E+02  0.10000000000E+01 0.  0.
    9000005    1    3    3    0    0 -0.27786656818E+02  0.55525951429E+02 -0.15286704968E+02  0.63952427068E+02  0.10000000000E+01 0.  0.
<mgrwt>
<rscale>  0 0.12494998E+03</rscale>
<asrwt>0</asrwt>
<pdfrwt beam="1">  1        4 0.67474396E-02 0.12494998E+03</pdfrwt>
<pdfrwt beam="2">  1       -4 0.13691362E-01 0.12494998E+03</pdfrwt>
<totfact> 0.10295155E+04</totfact>
</mgrwt>
</event>
<event>
 5    1  0.3266101E-002  0.1250025E+03  0.7818608E-02  0.1235065E+00
          4   -1    0    0  501    0  0.00000000000E+00  0.00000000000E+00  0.61903556083E+02  0.61916582236E+02  0.12700000000E+01 0.  1.
         -4   -1    0    0    0  501 -0.00000000000E+00 -0.00000000000E+00 -0.63078618132E+02  0.63091401676E+02  0.12700000000E+01 0.  1.
         25    2    1    2    0    0  0.00000000000E+00  0.00000000000E+00 -0.11750620485E+01  0.12500798391E+03  0.12500246106E+03 0.  0.
    9000005    1    3    3    0    0  0.35727783145E+02  0.41844771231E+02  0.29043905495E+02  0.62225459534E+02  0.10000000000E+01 0.  0.
    9000005    1    3    3    0    0 -0.35727783145E+02 -0.41844771231E+02 -0.30218967544E+02  0.62782524377E+02  0.10000000000E+01 0.  0.
<mgrwt>
<rscale>  0 0.12500246E+03</rscale>
<asrwt>0</asrwt>
<pdfrwt beam="1">  1        4 0.95256094E-02 0.12500246E+03</pdfrwt>
<pdfrwt beam="2">  1       -4 0.97063881E-02 0.12500246E+03</pdfrwt>
<totfact> 0.10452108E+04</totfact>
</mgrwt>
</event>
<event>
 5    1  0.3266101E-002  0.1250000E+03  0.7818608E-02  0.1235069E+00
          4   -1    0    0  501    0  0.00000000000E+00  0.00000000000E+00  0.12614390434E+03  0.12615029727E+03  0.12700000000E+01 0.  1.
         -4   -1    0    0    0  501 -0.00000000000E+00 -0.00000000000E+00 -0.30946395222E+02  0.30972443837E+02  0.12700000000E+01 0.  1.
         25    2    1    2    0    0  0.00000000000E+00  0.00000000000E+00  0.95197509118E+02  0.15712274111E+03  0.12499996013E+03 0.  0.
    9000005    1    3    3    0    0 -0.47109862081E+02 -0.24414650995E+02  0.61024718908E+01  0.53419607371E+02  0.10000000000E+01 0.  0.
    9000005    1    3    3    0    0  0.47109862081E+02  0.24414650995E+02  0.89095037227E+02  0.10370313374E+03  0.10000000000E+01 0.  0.
<mgrwt>
<rscale>  0 0.12499996E+03</rscale>
<asrwt>0</asrwt>
<pdfrwt beam="1">  1        4 0.19409250E-01 0.12499996E+03</pdfrwt>
<pdfrwt beam="2">  1       -4 0.47634794E-02 0.12499996E+03</pdfrwt>
<totfact> 0.97900471E+03</totfact>
</mgrwt>
</event>
<event>
 5    1  0.3266101E-002  0.1249884E+03  0.7818608E-02  0.1235087E+00
         -4   -1    0    0    0  501 -0.00000000000E+00  0.00000000000E+00  0.75119610201E+01  0.76185601243E+01  0.12700000000E+01 0.  1.
          4   -1    0    0  501    0  0.00000000000E+00 -0.00000000000E+00 -0.51613762146E+03  0.51613918393E+03  0.12700000000E+01 0.  1.
         25    2    1    2    0    0  0.00000000000E+00  0.00000000000E+00 -0.50862566044E+03  0.52375774405E+03  0.12498844746E+03 0.  0.
    9000005    1    3    3    0    0  0.62266167385E+02  0.48842080778E+01 -0.24636542486E+03  0.25416107817E+03  0.10000000000E+01 0.  0.
    9000005    1    3    3    0    0 -0.62266167385E+02 -0.48842080778E+01 -0.26226023557E+03  0.26959666588E+03  0.10000000000E+01 0.  0.
<mgrwt>
<rscale>  0 0.12498845E+03</rscale>
<asrwt>0</asrwt>
<pdfrwt beam="2">  1        4 0.79414080E-01 0.12498845E+03</pdfrwt>
<pdfrwt beam="1">  1       -4 0.11640068E-02 0.12498845E+03</pdfrwt>
<totfact> 0.54080789E+03</totfact>
</mgrwt>
</event>
<event>
 5    1  0.3266101E-002  0.1250007E+03  0.7818608E-02  0.1235068E+00
         -4   -1    0    0    0  501 -0.00000000000E+00  0.00000000000E+00  0.58603034499E+03  0.58603172111E+03  0.12700000000E+01 0.  1.
          4   -1    0    0  501    0  0.00000000000E+00 -0.00000000000E+00 -0.66037979761E+01  0.67248083771E+01  0.12700000000E+01 0.  1.
         25    2    1    2    0    0  0.00000000000E+00  0.00000000000E+00  0.57942654701E+03  0.59275652949E+03  0.12500071947E+03 0.  0.
    9000005    1    3    3    0    0 -0.68996516335E+01  0.14785152418E+01  0.58415841989E+03  0.58420189210E+03  0.10000000000E+01 0.  0.
    9000005    1    3    3    0    0  0.68996516335E+01 -0.14785152418E+01 -0.47318728770E+01  0.85546373920E+01  0.10000000000E+01 0.  0.
<mgrwt>
<rscale>  0 0.12500072E+03</rscale>
<asrwt>0</asrwt>
<pdfrwt beam="2">  1        4 0.10253829E-02 0.12500072E+03</pdfrwt>
<pdfrwt beam="1">  1       -4 0.90167963E-01 0.12500072E+03</pdfrwt>
<totfact> 0.49327262E+03</totfact>
</mgrwt>
</event>
<event>
 4    1  0.3266101E-002  0.1247119E+03  0.7818608E-02  0.1235520E+00
          4   -1    0    0  501    0  0.00000000000E+00  0.00000000000E+00  0.26758803039E+02  0.26788923832E+02  0.12700000000E+01 0.  1.
         -4   -1    0    0    0  501 -0.00000000000E+00 -0.00000000000E+00 -0.14519320612E+03  0.14519876034E+03  0.12700000000E+01 0.  1.
    9000005    1    1    2    0    0  0.66108448532E+01  0.36476220764E+02  0.99164826975E+01  0.38386906361E+02  0.10000000000E+01 0.  0.
    9000005    1    1    2    0    0 -0.66108448532E+01 -0.36476220764E+02 -0.12835088578E+03  0.13360077781E+03  0.10000000000E+01 0.  0.
<mgrwt>
<rscale>  0 0.12471189E+03</rscale>
<asrwt>0</asrwt>
<pdfrwt beam="1">  1        4 0.41194832E-02 0.12471189E+03</pdfrwt>
<pdfrwt beam="2">  1       -4 0.22340160E-01 0.12471189E+03</pdfrwt>
<totfact> 0.95696789E+03</totfact>
</mgrwt>
</event>
<event>
 5    1  0.3266101E-002  0.1250001E+03  0.7818608E-02  0.1235069E+00
          4   -1    0    0  501    0  0.00000000000E+00  0.00000000000E+00  0.49129102034E+01  0.50744050554E+01  0.12700000000E+01 0.  1.
         -4   -1    0    0    0  501 -0.00000000000E+00 -0.00000000000E+00 -0.78208095482E+03  0.78208198598E+03  0.12700000000E+01 0.  1.
         25    2    1    2    0    0  0.00000000000E+00  0.00000000000E+00 -0.77716804461E+03  0.78715639103E+03  0.12500005749E+03 0.  0.
    9000005    1    3    3    0    0  0.22933842729E+02  0.29591645071E+02 -0.70367475186E+03  0.70467069118E+03  0.10000000000E+01 0.  0.
    9000005    1    3    3    0    0 -0.22933842729E+02 -0.29591645071E+02 -0.73493292750E+02  0.82485699849E+02  0.10000000000E+01 0.  0.
<mgrwt>
<rscale>  0 0.12500006E+03</rscale>
<asrwt>0</asrwt>
<pdfrwt beam="1">  1        4 0.76833496E-03 0.12500006E+03</pdfrwt>
<pdfrwt beam="2">  1       -4 0.12033255E+00 0.12500006E+03</pdfrwt>
<totfact> 0.38844550E+03</totfact>
</mgrwt>
</event>
<event>
 5    1  0.3266101E-002  0.1250023E+03  0.7818608E-02  0.1235066E+00
          4   -1    0    0  501    0  0.00000000000E+00  0.00000000000E+00  0.31333833174E+01  0.33809748615E+01  0.12700000000E+01 0.  1.
         -4   -1    0    0    0  501 -0.00000000000E+00 -0.00000000000E+00 -0.11990706291E+04  0.11990713017E+04  0.12700000000E+01 0.  1.
         25    2    1    2    0    0  0.00000000000E+00  0.00000000000E+00 -0.11959372458E+04  0.12024522766E+04  0.12500232585E+03 0.  0.
    9000005    1    3    3    0    0 -0.47143930249E+02  0.54609238869E+01 -0.20686731224E+03  0.21224386145E+03  0.10000000000E+01 0.  0.
    9000005    1    3    3    0    0  0.47143930249E+02 -0.54609238869E+01 -0.98906993359E+03  0.99020841512E+03  0.10000000000E+01 0.  0.
<mgrwt>
<rscale>  0 0.12500233E+03</rscale>
<asrwt>0</asrwt>
<pdfrwt beam="1">  1        4 0.50115717E-03 0.12500233E+03</pdfrwt>
<pdfrwt beam="2">  1       -4 0.18449115E+00 0.12500233E+03</pdfrwt>
<totfact> 0.24647458E+03</totfact>
</mgrwt>
</event>
<event>
 5    1  0.3266101E-002  0.1250003E+03  0.7818608E-02  0.1235069E+00
         -4   -1    0    0    0  501 -0.00000000000E+00  0.00000000000E+00  0.89434812484E+03  0.89434902656E+03  0.12700000000E+01 0. -1.
          4   -1    0    0  501    0  0.00000000000E+00 -0.00000000000E+00 -0.42744841191E+01  0.44591607377E+01  0.12700000000E+01 0. -1.
         25    2    1    2    0    0  0.00000000000E+00  0.00000000000E+00  0.89007364072E+03  0.89880818730E+03  0.12500028657E+03 0.  0.
    9000005    1    3    3    0    0 -0.14422212463E+02 -0.66258786697E+01  0.10423964510E+02  0.19014771010E+02  0.10000000000E+01 0.  0.
    9000005    1    3    3    0    0  0.14422212463E+02  0.66258786697E+01  0.87964967621E+03  0.87979341629E+03  0.10000000000E+01 0.  0.
<mgrwt>
<rscale>  0 0.12500029E+03</rscale>
<asrwt>0</asrwt>
<pdfrwt beam="2">  1        4 0.67188692E-03 0.12500029E+03</pdfrwt>
<pdfrwt beam="1">  1       -4 0.13760656E+00 0.12500029E+03</pdfrwt>
<totfact> 0.34205313E+03</totfact>
</mgrwt>
</event>
<event>
 5    1  0.3266101E-002  0.1250067E+03  0.7818608E-02  0.1235059E+00
         -4   -1    0    0    0  501 -0.00000000000E+00  0.00000000000E+00  0.58109004551E+02  0.58122881122E+02  0.12700000000E+01 0.  1.
          4   -1    0    0  501    0  0.00000000000E+00 -0.00000000000E+00 -0.67202139567E+02  0.67214138858E+02  0.12700000000E+01 0.  1.
         25    2    1    2    0    0  0.00000000000E+00  0.00000000000E+00 -0.90931350162E+01  0.12533701998E+03  0.12500673371E+03 0.  0.
    9000005    1    3    3    0    0  0.26535679293E+02 -0.21687103913E+02  0.47852379439E+02  0.58866993890E+02  0.10000000000E+01 0.  0.
    9000005    1    3    3    0    0 -0.26535679293E+02  0.21687103913E+02 -0.56945514455E+02  0.66470026089E+02  0.10000000000E+01 0.  0.
<mgrwt>
<rscale>  0 0.12500673E+03</rscale>
<asrwt>0</asrwt>
<pdfrwt beam="2">  1        4 0.10340781E-01 0.12500673E+03</pdfrwt>
<pdfrwt beam="1">  1       -4 0.89418374E-02 0.12500673E+03</pdfrwt>
<totfact> 0.10443957E+04</totfact>
</mgrwt>
</event>
<event>
 5    1  0.3266101E-002  0.1249956E+03  0.7818608E-02  0.1235076E+00
         -4   -1    0    0    0  501 -0.00000000000E+00  0.00000000000E+00  0.99676572250E+02  0.99684662589E+02  0.12700000000E+01 0.  1.
          4   -1    0    0  501    0  0.00000000000E+00 -0.00000000000E+00 -0.39166525169E+02  0.39187110047E+02  0.12700000000E+01 0.  1.
         25    2    1    2    0    0  0.00000000000E+00  0.00000000000E+00  0.60510047081E+02  0.13887177264E+03  0.12499561367E+03 0.  0.
    9000005    1    3    3    0    0 -0.45273758513E+02 -0.41359268367E+02  0.16891720882E+02  0.63613147415E+02  0.10000000000E+01 0.  0.
    9000005    1    3    3    0    0  0.45273758513E+02  0.41359268367E+02  0.43618326199E+02  0.75258625221E+02  0.10000000000E+01 0.  0.
<mgrwt>
<rscale>  0 0.12499561E+03</rscale>
<asrwt>0</asrwt>
<pdfrwt beam="2">  1        4 0.60278252E-02 0.12499561E+03</pdfrwt>
<pdfrwt beam="1">  1       -4 0.15337063E-01 0.12499561E+03</pdfrwt>
<totfact> 0.10158026E+04</totfact>
</mgrwt>
</event>
<event>
 5    1  0.3266101E-002  0.1249940E+03  0.7818608E-02  0.1235079E+00
         -4   -1    0    0    0  501 -0.00000000000E+00  0.00000000000E+00  0.28073903765E+02  0.28102615049E+02  0.12700000000E+01 0.  1.
          4   -1    0    0  501    0  0.00000000000E+00 -0.00000000000E+00 -0.13902552913E+03  0.13903132974E+03  0.12700000000E+01 0.  1.
         25    2    1    2    0    0  0.00000000000E+00  0.00000000000E+00 -0.11095162537E+03  0.16713394479E+03  0.12499396918E+03 0.  0.
    9000005    1    3    3    0    0  0.50681042060E+02  0.12103731051E+02 -0.93532473991E+01  0.52948574735E+02  0.10000000000E+01 0.  0.
    9000005    1    3    3    0    0 -0.50681042060E+02 -0.12103731051E+02 -0.10159837797E+03  0.11418537006E+03  0.10000000000E+01 0.  0.
<mgrwt>
<rscale>  0 0.12499397E+03</rscale>
<asrwt>0</asrwt>
<pdfrwt beam="2">  1        4 0.21391197E-01 0.12499397E+03</pdfrwt>
<pdfrwt beam="1">  1       -4 0.43217170E-02 0.12499397E+03</pdfrwt>
<totfact> 0.95997779E+03</totfact>
</mgrwt>
</event>
<event>
 5    1  0.3266101E-002  0.1250005E+03  0.7818608E-02  0.1235069E+00
          4   -1    0    0  501    0  0.00000000000E+00  0.00000000000E+00  0.50163779362E+02  0.50179853128E+02  0.12700000000E+01 0.  1.
         -4   -1    0    0    0  501 -0.00000000000E+00 -0.00000000000E+00 -0.77836798206E+02  0.77847158297E+02  0.12700000000E+01 0.  1.
         25    2    1    2    0    0  0.00000000000E+00  0.00000000000E+00 -0.27673018844E+02  0.12802701143E+03  0.12500047873E+03 0.  0.
    9000005    1    3    3    0    0  0.49536954017E+02  0.36013181986E+02 -0.26564002615E+02  0.66764551410E+02  0.10000000000E+01 0.  0.
    9000005    1    3    3    0    0 -0.49536954017E+02 -0.36013181986E+02 -0.11090162289E+01  0.61262460015E+02  0.10000000000E+01 0.  0.
<mgrwt>
<rscale>  0 0.12500048E+03</rscale>
<asrwt>0</asrwt>
<pdfrwt beam="1">  1        4 0.77195379E-02 0.12500048E+03</pdfrwt>
<pdfrwt beam="2">  1       -4 0.11976925E-01 0.12500048E+03</pdfrwt>
<totfact> 0.10386792E+04</totfact>
</mgrwt>
</event>
<event>
 5    1  0.3266101E-002  0.1249992E+03  0.7818608E-02  0.1235071E+00
          4   -1    0    0  501    0  0.00000000000E+00  0.00000000000E+00  0.72234178103E+03  0.72234289747E+03  0.12700000000E+01 0. -1.
         -4   -1    0    0    0  501 -0.00000000000E+00 -0.00000000000E+00 -0.53319864777E+01  0.54811476717E+01  0.12700000000E+01 0. -1.
         25    2    1    2    0    0  0.00000000000E+00  0.00000000000E+00  0.71700979456E+03  0.72782404514E+03  0.12499918079E+03 0.  0.
    9000005    1    3    3    0    0  0.52175291310E+02  0.28802969401E+01  0.15894561497E+03  0.16731785814E+03  0.10000000000E+01 0.  0.
    9000005    1    3    3    0    0 -0.52175291310E+02 -0.28802969401E+01  0.55806417958E+03  0.56050618700E+03  0.10000000000E+01 0.  0.
<mgrwt>
<rscale>  0 0.12499918E+03</rscale>
<asrwt>0</asrwt>
<pdfrwt beam="1">  1        4 0.11114103E+00 0.12499918E+03</pdfrwt>
<pdfrwt beam="2">  1       -4 0.83186569E-03 0.12499918E+03</pdfrwt>
<totfact> 0.41658684E+03</totfact>
</mgrwt>
</event>
<event>
 5    1  0.3266101E-002  0.1250031E+03  0.7818608E-02  0.1235064E+00
         -4   -1    0    0    0  501 -0.00000000000E+00  0.00000000000E+00  0.26814369455E+02  0.26844427900E+02  0.12700000000E+01 0.  1.
          4   -1    0    0  501    0  0.00000000000E+00 -0.00000000000E+00 -0.14557033036E+03  0.14557587019E+03  0.12700000000E+01 0.  1.
         25    2    1    2    0    0  0.00000000000E+00  0.00000000000E+00 -0.11875596090E+03  0.17242029809E+03  0.12500312373E+03 0.  0.
    9000005    1    3    3    0    0 -0.14246277103E+02  0.44977112898E+02 -0.28499630390E+01  0.47275991637E+02  0.10000000000E+01 0.  0.
    9000005    1    3    3    0    0  0.14246277103E+02 -0.44977112898E+02 -0.11590599786E+03  0.12514430645E+03  0.10000000000E+01 0.  0.
<mgrwt>
<rscale>  0 0.12500312E+03</rscale>
<asrwt>0</asrwt>
<pdfrwt beam="2">  1        4 0.22398173E-01 0.12500312E+03</pdfrwt>
<pdfrwt beam="1">  1       -4 0.41280260E-02 0.12500312E+03</pdfrwt>
<totfact> 0.94992783E+03</totfact>
</mgrwt>
</event>
<event>
 5    1  0.3266101E-002  0.1249993E+03  0.7818608E-02  0.1235070E+00
          4   -1    0    0  501    0  0.00000000000E+00  0.00000000000E+00  0.16498150459E+03  0.16498639264E+03  0.12700000000E+01 0.  1.
         -4   -1    0    0    0  501 -0.00000000000E+00 -0.00000000000E+00 -0.23654368398E+02  0.23688436933E+02  0.12700000000E+01 0.  1.
         25    2    1    2    0    0  0.00000000000E+00  0.00000000000E+00  0.14132713619E+03  0.18867482957E+03  0.12499932756E+03 0.  0.
    9000005    1    3    3    0    0 -0.39533154260E+02  0.37592269220E+02  0.24653666506E+02  0.59873635793E+02  0.10000000000E+01 0.  0.
    9000005    1    3    3    0    0  0.39533154260E+02 -0.37592269220E+02  0.11667346968E+03  0.12880119378E+03  0.10000000000E+01 0.  0.
<mgrwt>
<rscale>  0 0.12499933E+03</rscale>
<asrwt>0</asrwt>
<pdfrwt beam="1">  1        4 0.25384766E-01 0.12499933E+03</pdfrwt>
<pdfrwt beam="2">  1       -4 0.36421303E-02 0.12499933E+03</pdfrwt>
<totfact> 0.92079789E+03</totfact>
</mgrwt>
</event>
<event>
 5    1  0.3266101E-002  0.1249988E+03  0.7818608E-02  0.1235071E+00
         -4   -1    0    0    0  501 -0.00000000000E+00  0.00000000000E+00  0.46430374377E+02  0.46447740148E+02  0.12700000000E+01 0.  1.
          4   -1    0    0  501    0  0.00000000000E+00 -0.00000000000E+00 -0.84091849701E+02  0.84101439263E+02  0.12700000000E+01 0.  1.
         25    2    1    2    0    0  0.00000000000E+00  0.00000000000E+00 -0.37661475324E+02  0.13054917941E+03  0.12499880608E+03 0.  0.
    9000005    1    3    3    0    0 -0.24069639686E+02 -0.54073293942E+02  0.21070556746E+01  0.59234351148E+02  0.10000000000E+01 0.  0.
    9000005    1    3    3    0    0  0.24069639686E+02  0.54073293942E+02 -0.39768530998E+02  0.71314828262E+02  0.10000000000E+01 0.  0.
<mgrwt>
<rscale>  0 0.12499881E+03</rscale>
<asrwt>0</asrwt>
<pdfrwt beam="2">  1        4 0.12939281E-01 0.12499881E+03</pdfrwt>
<pdfrwt beam="1">  1       -4 0.71452080E-02 0.12499881E+03</pdfrwt>
<totfact> 0.10333042E+04</totfact>
</mgrwt>
</event>
<event>
 5    1  0.3266101E-002  0.1250052E+03  0.7818608E-02  0.1235061E+00
          4   -1    0    0  501    0  0.00000000000E+00  0.00000000000E+00  0.16134723574E+02  0.16184628659E+02  0.12700000000E+01 0. -1.
         -4   -1    0    0    0  501 -0.00000000000E+00 -0.00000000000E+00 -0.24169690788E+03  0.24170024447E+03  0.12700000000E+01 0. -1.
         25    2    1    2    0    0  0.00000000000E+00  0.00000000000E+00 -0.22556218430E+03  0.25788487313E+03  0.12500523510E+03 0.  0.
    9000005    1    3    3    0    0  0.45063314491E+02  0.41201387531E+02 -0.14025226527E+03  0.15297043688E+03  0.10000000000E+01 0.  0.
    9000005    1    3    3    0    0 -0.45063314491E+02 -0.41201387531E+02 -0.85309919035E+02  0.10491443625E+03  0.10000000000E+01 0.  0.
<mgrwt>
<rscale>  0 0.12500524E+03</rscale>
<asrwt>0</asrwt>
<pdfrwt beam="1">  1        4 0.24863608E-02 0.12500524E+03</pdfrwt>
<pdfrwt beam="2">  1       -4 0.37188233E-01 0.12500524E+03</pdfrwt>
<totfact> 0.81194345E+03</totfact>
</mgrwt>
</event>
<event>
 5    1  0.3266101E-002  0.1249942E+03  0.7818608E-02  0.1235078E+00
         -4   -1    0    0    0  501 -0.00000000000E+00  0.00000000000E+00  0.13692583324E+02  0.13751354046E+02  0.12700000000E+01 0.  1.
          4   -1    0    0  501    0  0.00000000000E+00 -0.00000000000E+00 -0.28458450955E+03  0.28458734331E+03  0.12700000000E+01 0.  1.
         25    2    1    2    0    0  0.00000000000E+00  0.00000000000E+00 -0.27089192622E+03  0.29833869736E+03  0.12499417046E+03 0.  0.
    9000005    1    3    3    0    0 -0.47876256901E+02  0.11673801026E+02 -0.43732636464E+02  0.65893528493E+02  0.10000000000E+01 0.  0.
    9000005    1    3    3    0    0  0.47876256901E+02 -0.11673801026E+02 -0.22715928976E+03  0.23244516886E+03  0.10000000000E+01 0.  0.
<mgrwt>
<rscale>  0 0.12499417E+03</rscale>
<asrwt>0</asrwt>
<pdfrwt beam="2">  1        4 0.43786967E-01 0.12499417E+03</pdfrwt>
<pdfrwt beam="1">  1       -4 0.21112903E-02 0.12499417E+03</pdfrwt>
<totfact> 0.75817517E+03</totfact>
</mgrwt>
</event>
<event>
 5    1  0.3266101E-002  0.1250005E+03  0.7818608E-02  0.1235068E+00
          4   -1    0    0  501    0  0.00000000000E+00  0.00000000000E+00  0.28666444368E+02  0.28694562772E+02  0.12700000000E+01 0. -1.
         -4   -1    0    0    0  501 -0.00000000000E+00 -0.00000000000E+00 -0.13616883130E+03  0.13617475360E+03  0.12700000000E+01 0. -1.
         25    2    1    2    0    0  0.00000000000E+00  0.00000000000E+00 -0.10750238693E+03  0.16486931637E+03  0.12500051314E+03 0.  0.
    9000005    1    3    3    0    0  0.17117101444E+02  0.14753881297E+02  0.23095109344E+02  0.32327329781E+02  0.10000000000E+01 0.  0.
    9000005    1    3    3    0    0 -0.17117101444E+02 -0.14753881297E+02 -0.13059749628E+03  0.13254198659E+03  0.10000000000E+01 0.  0.
<mgrwt>
<rscale>  0 0.12500051E+03</rscale>
<asrwt>0</asrwt>
<pdfrwt beam="1">  1        4 0.44128408E-02 0.12500051E+03</pdfrwt>
<pdfrwt beam="2">  1       -4 0.20951669E-01 0.12500051E+03</pdfrwt>
<totfact> 0.96411036E+03</totfact>
</mgrwt>
</event>
<event>
 4    1  0.3266101E-002  0.1251787E+03  0.7818608E-02  0.1234790E+00
          4   -1    0    0  501    0  0.00000000000E+00  0.00000000000E+00  0.47213045595E+02  0.47230123590E+02  0.12700000000E+01 0.  1.
         -4   -1    0    0    0  501 -0.00000000000E+00 -0.00000000000E+00 -0.82936400595E+02  0.82946123741E+02  0.12700000000E+01 0.  1.
    9000005    1    1    2    0    0  0.34161783561E+02  0.13352835800E+02 -0.70592046899E+02  0.79558549292E+02  0.10000000000E+01 0.  0.
    9000005    1    1    2    0    0 -0.34161783561E+02 -0.13352835800E+02  0.34868691899E+02  0.50617698039E+02  0.10000000000E+01 0.  0.
<mgrwt>
<rscale>  0 0.12517866E+03</rscale>
<asrwt>0</asrwt>
<pdfrwt beam="1">  1        4 0.72656071E-02 0.12517866E+03</pdfrwt>
<pdfrwt beam="2">  1       -4 0.12761508E-01 0.12517866E+03</pdfrwt>
<totfact> 0.10299147E+04</totfact>
</mgrwt>
</event>
<event>
 5    1  0.3266101E-002  0.1250226E+03  0.7818608E-02  0.1235034E+00
          4   -1    0    0  501    0  0.00000000000E+00  0.00000000000E+00  0.73854642879E+02  0.73865561493E+02  0.12700000000E+01 0. -1.
         -4   -1    0    0    0  501 -0.00000000000E+00 -0.00000000000E+00 -0.52887710882E+02  0.52902957028E+02  0.12700000000E+01 0. -1.
         25    2    1    2    0    0  0.00000000000E+00  0.00000000000E+00  0.20966931997E+02  0.12676851852E+03  0.12502257816E+03 0.  0.
    9000005    1    3    3    0    0  0.36670011593E+01 -0.11065557018E+02  0.72747586815E+02  0.73682459494E+02  0.10000000000E+01 0.  0.
    9000005    1    3    3    0    0 -0.36670011593E+01  0.11065557018E+02 -0.51780654818E+02  0.53086059027E+02  0.10000000000E+01 0.  0.
<mgrwt>
<rscale>  0 0.12502258E+03</rscale>
<asrwt>0</asrwt>
<pdfrwt beam="1">  1        4 0.11364265E-01 0.12502258E+03</pdfrwt>
<pdfrwt beam="2">  1       -4 0.81385836E-02 0.12502258E+03</pdfrwt>
<totfact> 0.10408873E+04</totfact>
</mgrwt>
</event>
<event>
 5    1  0.3266101E-002  0.1250100E+03  0.7818608E-02  0.1235054E+00
         -4   -1    0    0    0  501 -0.00000000000E+00  0.00000000000E+00  0.71376118573E+02  0.71387416276E+02  0.12700000000E+01 0. -1.
          4   -1    0    0  501    0  0.00000000000E+00 -0.00000000000E+00 -0.54713442482E+02  0.54728180020E+02  0.12700000000E+01 0. -1.
         25    2    1    2    0    0  0.00000000000E+00  0.00000000000E+00  0.16662676091E+02  0.12611559630E+03  0.12500999502E+03 0.  0.
    9000005    1    3    3    0    0  0.20424317904E+02  0.67965077344E+01 -0.50860645135E+02  0.55237220266E+02  0.10000000000E+01 0.  0.
    9000005    1    3    3    0    0 -0.20424317904E+02 -0.67965077344E+01  0.67523321226E+02  0.70878376029E+02  0.10000000000E+01 0.  0.
<mgrwt>
<rscale>  0 0.12501000E+03</rscale>
<asrwt>0</asrwt>
<pdfrwt beam="2">  1        4 0.84194555E-02 0.12501000E+03</pdfrwt>
<pdfrwt beam="1">  1       -4 0.10982944E-01 0.12501000E+03</pdfrwt>
<totfact> 0.10426073E+04</totfact>
</mgrwt>
</event>
<event>
 5    1  0.3266101E-002  0.1250009E+03  0.7818608E-02  0.1235068E+00
          4   -1    0    0  501    0  0.00000000000E+00  0.00000000000E+00  0.51320764701E+02  0.51336476208E+02  0.12700000000E+01 0.  1.
         -4   -1    0    0    0  501 -0.00000000000E+00 -0.00000000000E+00 -0.76082836131E+02  0.76093435024E+02  0.12700000000E+01 0.  1.
         25    2    1    2    0    0  0.00000000000E+00  0.00000000000E+00 -0.24762071430E+02  0.12742991123E+03  0.12500088838E+03 0.  0.
    9000005    1    3    3    0    0  0.32449533620E+02 -0.36875405963E+02 -0.51765137014E+02  0.71368040517E+02  0.10000000000E+01 0.  0.
    9000005    1    3    3    0    0 -0.32449533620E+02  0.36875405963E+02  0.27003065585E+02  0.56061870715E+02  0.10000000000E+01 0.  0.
<mgrwt>
<rscale>  0 0.12500089E+03</rscale>
<asrwt>0</asrwt>
<pdfrwt beam="1">  1        4 0.78975261E-02 0.12500089E+03</pdfrwt>
<pdfrwt beam="2">  1       -4 0.11707076E-01 0.12500089E+03</pdfrwt>
<totfact> 0.10399610E+04</totfact>
</mgrwt>
</event>
<event>
 5    1  0.3266101E-002  0.1250034E+03  0.7818608E-02  0.1235064E+00
         -4   -1    0    0    0  501 -0.00000000000E+00  0.00000000000E+00  0.10675035049E+03  0.10675790476E+03  0.12700000000E+01 0. -1.
          4   -1    0    0  501    0  0.00000000000E+00 -0.00000000000E+00 -0.36574508648E+02  0.36596551515E+02  0.12700000000E+01 0. -1.
         25    2    1    2    0    0  0.00000000000E+00  0.00000000000E+00  0.70175841838E+02  0.14335445628E+03  0.12500340538E+03 0.  0.
    9000005    1    3    3    0    0  0.21909966171E+00 -0.52239406510E+01  0.10650470184E+03  0.10663765318E+03  0.10000000000E+01 0.  0.
    9000005    1    3    3    0    0 -0.21909966171E+00  0.52239406510E+01 -0.36328860004E+02  0.36716803099E+02  0.10000000000E+01 0.  0.
<mgrwt>
<rscale>  0 0.12500341E+03</rscale>
<asrwt>0</asrwt>
<pdfrwt beam="2">  1        4 0.56291242E-02 0.12500341E+03</pdfrwt>
<pdfrwt beam="1">  1       -4 0.16425408E-01 0.12500341E+03</pdfrwt>
<totfact> 0.10063758E+04</totfact>
</mgrwt>
</event>
<event>
 5    1  0.3266101E-002  0.1249974E+03  0.7818608E-02  0.1235073E+00
          4   -1    0    0  501    0  0.00000000000E+00  0.00000000000E+00  0.57775572497E+02  0.57789529133E+02  0.12700000000E+01 0. -1.
         -4   -1    0    0    0  501 -0.00000000000E+00 -0.00000000000E+00 -0.67579844357E+02  0.67591776596E+02  0.12700000000E+01 0. -1.
         25    2    1    2    0    0  0.00000000000E+00  0.00000000000E+00 -0.98042718603E+01  0.12538130573E+03  0.12499739229E+03 0.  0.
    9000005    1    3    3    0    0  0.17375725960E+02  0.60026094189E+02 -0.51006926684E+01  0.62706179136E+02  0.10000000000E+01 0.  0.
    9000005    1    3    3    0    0 -0.17375725960E+02 -0.60026094189E+02 -0.47035791918E+01  0.62675126592E+02  0.10000000000E+01 0.  0.
<mgrwt>
<rscale>  0 0.12499739E+03</rscale>
<asrwt>0</asrwt>
<pdfrwt beam="1">  1        4 0.88905411E-02 0.12499739E+03</pdfrwt>
<pdfrwt beam="2">  1       -4 0.10398891E-01 0.12499739E+03</pdfrwt>
<totfact> 0.10445195E+04</totfact>
</mgrwt>
</event>
<event>
 5    1  0.3266101E-002  0.1249989E+03  0.7818608E-02  0.1235071E+00
          4   -1    0    0  501    0  0.00000000000E+00  0.00000000000E+00  0.18129134565E+03  0.18129579396E+03  0.12700000000E+01 0. -1.
         -4   -1    0    0    0  501 -0.00000000000E+00 -0.00000000000E+00 -0.21522996348E+02  0.21560433015E+02  0.12700000000E+01 0. -1.
         25    2    1    2    0    0  0.00000000000E+00  0.00000000000E+00  0.15976834931E+03  0.20285622698E+03  0.12499889353E+03 0.  0.
    9000005    1    3    3    0    0  0.59975421003E+02  0.13884858874E+02  0.62455156160E+02  0.87701122920E+02  0.10000000000E+01 0.  0.
    9000005    1    3    3    0    0 -0.59975421003E+02 -0.13884858874E+02  0.97313193145E+02  0.11515510406E+03  0.10000000000E+01 0.  0.
<mgrwt>
<rscale>  0 0.12499889E+03</rscale>
<asrwt>0</asrwt>
<pdfrwt beam="1">  1        4 0.27894197E-01 0.12499889E+03</pdfrwt>
<pdfrwt beam="2">  1       -4 0.33144522E-02 0.12499889E+03</pdfrwt>
<totfact> 0.89658226E+03</totfact>
</mgrwt>
</event>
<event>
 5    1  0.3266101E-002  0.1250003E+03  0.7818608E-02  0.1235069E+00
         -4   -1    0    0    0  501 -0.00000000000E+00  0.00000000000E+00  0.17687095681E+02  0.17732632450E+02  0.12700000000E+01 0. -1.
          4   -1    0    0  501    0  0.00000000000E+00 -0.00000000000E+00 -0.22052291192E+03  0.22052656888E+03  0.12700000000E+01 0. -1.
         25    2    1    2    0    0  0.00000000000E+00  0.00000000000E+00 -0.20283581624E+03  0.23825920133E+03  0.12500031468E+03 0.  0.
    9000005    1    3    3    0    0 -0.14207110113E+02 -0.28520160377E+02  0.10504107780E+01  0.31895844376E+02  0.10000000000E+01 0.  0.
    9000005    1    3    3    0    0  0.14207110113E+02  0.28520160377E+02 -0.20388622702E+03  0.20636335695E+03  0.10000000000E+01 0.  0.
<mgrwt>
<rscale>  0 0.12500031E+03</rscale>
<asrwt>0</asrwt>
<pdfrwt beam="2">  1        4 0.33930384E-01 0.12500031E+03</pdfrwt>
<pdfrwt beam="1">  1       -4 0.27248759E-02 0.12500031E+03</pdfrwt>
<totfact> 0.84056724E+03</totfact>
</mgrwt>
</event>
<event>
 5    1  0.3266101E-002  0.1250032E+03  0.7818608E-02  0.1235064E+00
          4   -1    0    0  501    0  0.00000000000E+00  0.00000000000E+00  0.19959586208E+02  0.19999949540E+02  0.12700000000E+01 0. -1.
         -4   -1    0    0    0  501 -0.00000000000E+00 -0.00000000000E+00 -0.19547795063E+03  0.19548207611E+03  0.12700000000E+01 0. -1.
         25    2    1    2    0    0  0.00000000000E+00  0.00000000000E+00 -0.17551836442E+03  0.21548202565E+03  0.12500322848E+03 0.  0.
    9000005    1    3    3    0    0  0.77686726301E+01  0.35845665490E+02 -0.17498111966E+03  0.17878662211E+03  0.10000000000E+01 0.  0.
    9000005    1    3    3    0    0 -0.77686726301E+01 -0.35845665490E+02 -0.53724475685E+00  0.36695403538E+02  0.10000000000E+01 0.  0.
<mgrwt>
<rscale>  0 0.12500323E+03</rscale>
<asrwt>0</asrwt>
<pdfrwt beam="1">  1        4 0.30741279E-02 0.12500323E+03</pdfrwt>
<pdfrwt beam="2">  1       -4 0.30076952E-01 0.12500323E+03</pdfrwt>
<totfact> 0.87582029E+03</totfact>
</mgrwt>
</event>
<event>
 5    1  0.3266101E-002  0.1249935E+03  0.7818608E-02  0.1235079E+00
         -4   -1    0    0    0  501 -0.00000000000E+00  0.00000000000E+00  0.28582282241E+03  0.28582564390E+03  0.12700000000E+01 0. -1.
          4   -1    0    0  501    0  0.00000000000E+00 -0.00000000000E+00 -0.13632857393E+02  0.13691884483E+02  0.12700000000E+01 0. -1.
         25    2    1    2    0    0  0.00000000000E+00  0.00000000000E+00  0.27218996502E+03  0.29951752838E+03  0.12499349084E+03 0.  0.
    9000005    1    3    3    0    0 -0.75719861260E+01 -0.25390380940E+02  0.27170827148E+03  0.27299888500E+03  0.10000000000E+01 0.  0.
    9000005    1    3    3    0    0  0.75719861260E+01  0.25390380940E+02  0.48169353254E+00  0.26518643382E+02  0.10000000000E+01 0.  0.
<mgrwt>
<rscale>  0 0.12499349E+03</rscale>
<asrwt>0</asrwt>
<pdfrwt beam="2">  1        4 0.21021203E-02 0.12499349E+03</pdfrwt>
<pdfrwt beam="1">  1       -4 0.43977498E-01 0.12499349E+03</pdfrwt>
<totfact> 0.75670333E+03</totfact>
</mgrwt>
</event>
<event>
 5    1  0.3266101E-002  0.1250002E+03  0.7818608E-02  0.1235069E+00
         -4   -1    0    0    0  501 -0.00000000000E+00  0.00000000000E+00  0.37841107175E+02  0.37862412657E+02  0.12700000000E+01 0.  1.
          4   -1    0    0  501    0  0.00000000000E+00 -0.00000000000E+00 -0.10317372370E+03  0.10318153983E+03  0.12700000000E+01 0.  1.
         25    2    1    2    0    0  0.00000000000E+00  0.00000000000E+00 -0.65332616525E+02  0.14104395249E+03  0.12500018301E+03 0.  0.
    9000005    1    3    3    0    0 -0.11516802595E+02  0.61421693937E+02 -0.32682652889E+02  0.70529547198E+02  0.10000000000E+01 0.  0.
    9000005    1    3    3    0    0  0.11516802595E+02 -0.61421693937E+02 -0.32649963635E+02  0.70514405291E+02  0.10000000000E+01 0.  0.
<mgrwt>
<rscale>  0 0.12500018E+03</rscale>
<asrwt>0</asrwt>
<pdfrwt beam="2">  1        4 0.15875121E-01 0.12500018E+03</pdfrwt>
<pdfrwt beam="1">  1       -4 0.58239490E-02 0.12500018E+03</pdfrwt>
<totfact> 0.10111953E+04</totfact>
</mgrwt>
</event>
<event>
 5    1  0.3266101E-002  0.1250008E+03  0.7818608E-02  0.1235068E+00
         -4   -1    0    0    0  501 -0.00000000000E+00  0.00000000000E+00  0.14957335274E+02  0.15011155135E+02  0.12700000000E+01 0.  1.
          4   -1    0    0  501    0  0.00000000000E+00 -0.00000000000E+00 -0.26063842984E+03  0.26064152395E+03  0.12700000000E+01 0.  1.
         25    2    1    2    0    0  0.00000000000E+00  0.00000000000E+00 -0.24568109456E+03  0.27565267909E+03  0.12500079705E+03 0.  0.
    9000005    1    3    3    0    0  0.12023333148E+02  0.41871609520E+02 -0.22164534508E+03  0.22588813873E+03  0.10000000000E+01 0.  0.
    9000005    1    3    3    0    0 -0.12023333148E+02 -0.41871609520E+02 -0.24035749485E+02  0.49764540358E+02  0.10000000000E+01 0.  0.
<mgrwt>
<rscale>  0 0.12500080E+03</rscale>
<asrwt>0</asrwt>
<pdfrwt beam="2">  1        4 0.40102595E-01 0.12500080E+03</pdfrwt>
<pdfrwt beam="1">  1       -4 0.23055067E-02 0.12500080E+03</pdfrwt>
<totfact> 0.78756687E+03</totfact>
</mgrwt>
</event>
<event>
 5    1  0.3266101E-002  0.1249997E+03  0.7818608E-02  0.1235070E+00
         -4   -1    0    0    0  501 -0.00000000000E+00  0.00000000000E+00  0.95235126546E+02  0.95243594159E+02  0.12700000000E+01 0.  1.
          4   -1    0    0  501    0  0.00000000000E+00 -0.00000000000E+00 -0.40996559414E+02  0.41016225860E+02  0.12700000000E+01 0.  1.
         25    2    1    2    0    0  0.00000000000E+00  0.00000000000E+00  0.54238567132E+02  0.13625982002E+03  0.12499966555E+03 0.  0.
    9000005    1    3    3    0    0  0.13995024884E+02 -0.60643949175E+02  0.33254786960E+02  0.70572162705E+02  0.10000000000E+01 0.  0.
    9000005    1    3    3    0    0 -0.13995024884E+02  0.60643949175E+02  0.20983780172E+02  0.65687657314E+02  0.10000000000E+01 0.  0.
<mgrwt>
<rscale>  0 0.12499967E+03</rscale>
<asrwt>0</asrwt>
<pdfrwt beam="2">  1        4 0.63093273E-02 0.12499967E+03</pdfrwt>
<pdfrwt beam="1">  1       -4 0.14653722E-01 0.12499967E+03</pdfrwt>
<totfact> 0.10211662E+04</totfact>
</mgrwt>
</event>
<event>
 5    1  0.3266101E-002  0.1250008E+03  0.7818608E-02  0.1235068E+00
         -4   -1    0    0    0  501 -0.00000000000E+00  0.00000000000E+00  0.49079693020E+02  0.49096121710E+02  0.12700000000E+01 0. -1.
          4   -1    0    0  501    0  0.00000000000E+00 -0.00000000000E+00 -0.79556149859E+02  0.79566286078E+02  0.12700000000E+01 0. -1.
         25    2    1    2    0    0  0.00000000000E+00  0.00000000000E+00 -0.30476456839E+02  0.12866240779E+03  0.12500080302E+03 0.  0.
    9000005    1    3    3    0    0 -0.15230579755E+02 -0.53863953216E+02  0.13360629858E+02  0.57556949588E+02  0.10000000000E+01 0.  0.
    9000005    1    3    3    0    0  0.15230579755E+02  0.53863953216E+02 -0.43837086697E+02  0.71105458200E+02  0.10000000000E+01 0.  0.
<mgrwt>
<rscale>  0 0.12500080E+03</rscale>
<asrwt>0</asrwt>
<pdfrwt beam="2">  1        4 0.12241451E-01 0.12500080E+03</pdfrwt>
<pdfrwt beam="1">  1       -4 0.75527655E-02 0.12500080E+03</pdfrwt>
<totfact> 0.10373019E+04</totfact>
</mgrwt>
</event>
<event>
 5    1  0.3266101E-002  0.1249970E+03  0.7818608E-02  0.1235074E+00
         -4   -1    0    0    0  501 -0.00000000000E+00  0.00000000000E+00  0.49318633557E+02  0.49334982679E+02  0.12700000000E+01 0.  1.
          4   -1    0    0  501    0  0.00000000000E+00 -0.00000000000E+00 -0.79165934423E+02  0.79176120599E+02  0.12700000000E+01 0.  1.
         25    2    1    2    0    0  0.00000000000E+00  0.00000000000E+00 -0.29847300866E+02  0.12851110328E+03  0.12499696915E+03 0.  0.
    9000005    1    3    3    0    0 -0.28005401692E+02  0.52303265142E+02  0.52527121605E+01  0.59569497676E+02  0.10000000000E+01 0.  0.
    9000005    1    3    3    0    0  0.28005401692E+02 -0.52303265142E+02 -0.35100013027E+02  0.68941605601E+02  0.10000000000E+01 0.  0.
<mgrwt>
<rscale>  0 0.12499697E+03</rscale>
<asrwt>0</asrwt>
<pdfrwt beam="2">  1        4 0.12181416E-01 0.12499697E+03</pdfrwt>
<pdfrwt beam="1">  1       -4 0.75895233E-02 0.12499697E+03</pdfrwt>
<totfact> 0.10377175E+04</totfact>
</mgrwt>
</event>
<event>
 5    1  0.3266101E-002  0.1249708E+03  0.7818608E-02  0.1235115E+00
         -4   -1    0    0    0  501 -0.00000000000E+00  0.00000000000E+00  0.44201510469E+03  0.44201692917E+03  0.12700000000E+01 0.  1.
          4   -1    0    0  501    0  0.00000000000E+00 -0.00000000000E+00 -0.87857437116E+01  0.88770599055E+01  0.12700000000E+01 0.  1.
         25    2    1    2    0    0  0.00000000000E+00  0.00000000000E+00  0.43322936098E+03  0.45089398908E+03  0.12497083729E+03 0.  0.
    9000005    1    3    3    0    0  0.56136173163E+02 -0.25092596659E+02  0.17667837924E+03  0.18707527371E+03  0.10000000000E+01 0.  0.
    9000005    1    3    3    0    0 -0.56136173163E+02  0.25092596659E+02  0.25655098174E+03  0.26381871536E+03  0.10000000000E+01 0.  0.
<mgrwt>
<rscale>  0 0.12497084E+03</rscale>
<asrwt>0</asrwt>
<pdfrwt beam="2">  1        4 0.13588172E-02 0.12497084E+03</pdfrwt>
<pdfrwt beam="1">  1       -4 0.68009506E-01 0.12497084E+03</pdfrwt>
<totfact> 0.59924899E+03</totfact>
</mgrwt>
</event>
<event>
 5    1  0.3266101E-002  0.1249939E+03  0.7818608E-02  0.1235079E+00
         -4   -1    0    0    0  501 -0.00000000000E+00  0.00000000000E+00  0.70618973825E+02  0.70630392637E+02  0.12700000000E+01 0. -1.
          4   -1    0    0  501    0  0.00000000000E+00 -0.00000000000E+00 -0.55285907574E+02  0.55300492550E+02  0.12700000000E+01 0. -1.
         25    2    1    2    0    0  0.00000000000E+00  0.00000000000E+00  0.15333066251E+02  0.12593088519E+03  0.12499393955E+03 0.  0.
    9000005    1    3    3    0    0  0.27571591348E+02 -0.20646693574E+02 -0.44862498117E+02  0.56569623848E+02  0.10000000000E+01 0.  0.
    9000005    1    3    3    0    0 -0.27571591348E+02  0.20646693574E+02  0.60195564368E+02  0.69361261339E+02  0.10000000000E+01 0.  0.
<mgrwt>
<rscale>  0 0.12499394E+03</rscale>
<asrwt>0</asrwt>
<pdfrwt beam="2">  1        4 0.85075246E-02 0.12499394E+03</pdfrwt>
<pdfrwt beam="1">  1       -4 0.10866458E-01 0.12499394E+03</pdfrwt>
<totfact> 0.10433899E+04</totfact>
</mgrwt>
</event>
<event>
 5    1  0.3266101E-002  0.1249990E+03  0.7818608E-02  0.1235071E+00
          4   -1    0    0  501    0  0.00000000000E+00  0.00000000000E+00  0.18071293124E+03  0.18071739378E+03  0.12700000000E+01 0. -1.
         -4   -1    0    0    0  501 -0.00000000000E+00 -0.00000000000E+00 -0.21592028800E+02  0.21629345984E+02  0.12700000000E+01 0. -1.
         25    2    1    2    0    0  0.00000000000E+00  0.00000000000E+00  0.15912090244E+03  0.20234673977E+03  0.12499896601E+03 0.  0.
    9000005    1    3    3    0    0 -0.60371493392E+02  0.26062514946E+01  0.10534319610E+03  0.12144833768E+03  0.10000000000E+01 0.  0.
    9000005    1    3    3    0    0  0.60371493392E+02 -0.26062514946E+01  0.53777706334E+02  0.80898402084E+02  0.10000000000E+01 0.  0.
<mgrwt>
<rscale>  0 0.12499897E+03</rscale>
<asrwt>0</asrwt>
<pdfrwt beam="1">  1        4 0.27805203E-01 0.12499897E+03</pdfrwt>
<pdfrwt beam="2">  1       -4 0.33250644E-02 0.12499897E+03</pdfrwt>
<totfact> 0.89743289E+03</totfact>
</mgrwt>
</event>
<event>
 5    1  0.3266101E-002  0.1250025E+03  0.7818608E-02  0.1235065E+00
          4   -1    0    0  501    0  0.00000000000E+00  0.00000000000E+00  0.19682313251E+03  0.19682722980E+03  0.12700000000E+01 0. -1.
         -4   -1    0    0    0  501 -0.00000000000E+00 -0.00000000000E+00 -0.19822660221E+02  0.19863301796E+02  0.12700000000E+01 0. -1.
         25    2    1    2    0    0  0.00000000000E+00  0.00000000000E+00  0.17700047229E+03  0.21669053160E+03  0.12500247715E+03 0.  0.
    9000005    1    3    3    0    0 -0.46627764053E+02  0.41602315716E+02  0.87269861486E+02  0.10734025236E+03  0.10000000000E+01 0.  0.
    9000005    1    3    3    0    0  0.46627764053E+02 -0.41602315716E+02  0.89730610806E+02  0.10935027924E+03  0.10000000000E+01 0.  0.
<mgrwt>
<rscale>  0 0.12500248E+03</rscale>
<asrwt>0</asrwt>
<pdfrwt beam="1">  1        4 0.30283923E-01 0.12500248E+03</pdfrwt>
<pdfrwt beam="2">  1       -4 0.30530815E-02 0.12500248E+03</pdfrwt>
<totfact> 0.87389917E+03</totfact>
</mgrwt>
</event>
<event>
 5    1  0.3266101E-002  0.1249974E+03  0.7818608E-02  0.1235073E+00
         -4   -1    0    0    0  501 -0.00000000000E+00  0.00000000000E+00  0.19492065944E+03  0.19492479672E+03  0.12700000000E+01 0.  1.
          4   -1    0    0  501    0  0.00000000000E+00 -0.00000000000E+00 -0.20014899531E+02  0.20055151539E+02  0.12700000000E+01 0.  1.
         25    2    1    2    0    0  0.00000000000E+00  0.00000000000E+00  0.17490575991E+03  0.21497994826E+03  0.12499741319E+03 0.  0.
    9000005    1    3    3    0    0 -0.20359788830E+02  0.48114572326E+02  0.14642115884E+03  0.15546603754E+03  0.10000000000E+01 0.  0.
    9000005    1    3    3    0    0  0.20359788830E+02 -0.48114572326E+02  0.28484601066E+02  0.59513910720E+02  0.10000000000E+01 0.  0.
<mgrwt>
<rscale>  0 0.12499741E+03</rscale>
<asrwt>0</asrwt>
<pdfrwt beam="2">  1        4 0.30826298E-02 0.12499741E+03</pdfrwt>
<pdfrwt beam="1">  1       -4 0.29991209E-01 0.12499741E+03</pdfrwt>
<totfact> 0.87674061E+03</totfact>
</mgrwt>
</event>
<event>
 4    1  0.3266101E-002  0.1251711E+03  0.7818608E-02  0.1234802E+00
         -4   -1    0    0    0  501 -0.00000000000E+00  0.00000000000E+00  0.24821551130E+01  0.27881883016E+01  0.12700000000E+01 0. -1.
          4   -1    0    0  501    0  0.00000000000E+00 -0.00000000000E+00 -0.14861064063E+04  0.14861069489E+04  0.12700000000E+01 0. -1.
    9000005    1    1    2    0    0  0.49753960554E+00 -0.59380812755E+02 -0.50702030543E+03  0.51048694263E+03  0.10000000000E+01 0.  0.
    9000005    1    1    2    0    0 -0.49753960554E+00  0.59380812755E+02 -0.97660394571E+03  0.97840819459E+03  0.10000000000E+01 0.  0.
<mgrwt>
<rscale>  0 0.12517113E+03</rscale>
<asrwt>0</asrwt>
<pdfrwt beam="2">  1        4 0.22865467E+00 0.12517113E+03</pdfrwt>
<pdfrwt beam="1">  1       -4 0.40545396E-03 0.12517113E+03</pdfrwt>
<totfact> 0.18082200E+03</totfact>
</mgrwt>
</event>
<event>
 5    1  0.3266101E-002  0.1249995E+03  0.7818608E-02  0.1235070E+00
         -4   -1    0    0    0  501 -0.00000000000E+00  0.00000000000E+00  0.43436093327E+02  0.43454655717E+02  0.12700000000E+01 0.  1.
          4   -1    0    0  501    0  0.00000000000E+00 -0.00000000000E+00 -0.89888021807E+02  0.89896993077E+02  0.12700000000E+01 0.  1.
         25    2    1    2    0    0  0.00000000000E+00  0.00000000000E+00 -0.46451928480E+02  0.13335164879E+03  0.12499952231E+03 0.  0.
    9000005    1    3    3    0    0  0.13506951867E+01  0.77009865038E+01 -0.89369414042E+02  0.89716340412E+02  0.10000000000E+01 0.  0.
    9000005    1    3    3    0    0 -0.13506951867E+01 -0.77009865038E+01  0.42917485562E+02  0.43635308382E+02  0.10000000000E+01 0.  0.
<mgrwt>
<rscale>  0 0.12499952E+03</rscale>
<asrwt>0</asrwt>
<pdfrwt beam="2">  1        4 0.13831044E-01 0.12499952E+03</pdfrwt>
<pdfrwt beam="1">  1       -4 0.66845939E-02 0.12499952E+03</pdfrwt>
<totfact> 0.10273043E+04</totfact>
</mgrwt>
</event>
<event>
 5    1  0.3266101E-002  0.1249982E+03  0.7818608E-02  0.1235072E+00
         -4   -1    0    0    0  501 -0.00000000000E+00  0.00000000000E+00  0.18851194153E+02  0.18893925506E+02  0.12700000000E+01 0.  1.
          4   -1    0    0  501    0  0.00000000000E+00 -0.00000000000E+00 -0.20692963194E+03  0.20693352912E+03  0.12700000000E+01 0.  1.
         25    2    1    2    0    0  0.00000000000E+00  0.00000000000E+00 -0.18807843779E+03  0.22582745463E+03  0.12499816200E+03 0.  0.
    9000005    1    3    3    0    0 -0.56563855471E+02  0.12465506681E+01 -0.14197875515E+03  0.15283975447E+03  0.10000000000E+01 0.  0.
    9000005    1    3    3    0    0  0.56563855471E+02 -0.12465506681E+01 -0.46099682637E+02  0.72987700152E+02  0.10000000000E+01 0.  0.
<mgrwt>
<rscale>  0 0.12499816E+03</rscale>
<asrwt>0</asrwt>
<pdfrwt beam="2">  1        4 0.31838913E-01 0.12499816E+03</pdfrwt>
<pdfrwt beam="1">  1       -4 0.29037707E-02 0.12499816E+03</pdfrwt>
<totfact> 0.85957968E+03</totfact>
</mgrwt>
</event>
<event>
 5    1  0.3266101E-002  0.1249997E+03  0.7818608E-02  0.1235070E+00
          4   -1    0    0  501    0  0.00000000000E+00  0.00000000000E+00  0.22101541158E+02  0.22137999493E+02  0.12700000000E+01 0.  1.
         -4   -1    0    0    0  501 -0.00000000000E+00 -0.00000000000E+00 -0.17655578931E+03  0.17656035693E+03  0.12700000000E+01 0.  1.
         25    2    1    2    0    0  0.00000000000E+00  0.00000000000E+00 -0.15445424815E+03  0.19869835643E+03  0.12499968829E+03 0.  0.
    9000005    1    3    3    0    0  0.37420090849E+02 -0.45247824903E+02 -0.11123105621E+03  0.12578146415E+03  0.10000000000E+01 0.  0.
    9000005    1    3    3    0    0 -0.37420090849E+02  0.45247824903E+02 -0.43223191948E+02  0.72916892280E+02  0.10000000000E+01 0.  0.
<mgrwt>
<rscale>  0 0.12499969E+03</rscale>
<asrwt>0</asrwt>
<pdfrwt beam="1">  1        4 0.34033931E-02 0.12499969E+03</pdfrwt>
<pdfrwt beam="2">  1       -4 0.27165584E-01 0.12499969E+03</pdfrwt>
<totfact> 0.90356100E+03</totfact>
</mgrwt>
</event>
<event>
 5    1  0.3266101E-002  0.1249895E+03  0.7818608E-02  0.1235086E+00
          4   -1    0    0  501    0  0.00000000000E+00  0.00000000000E+00  0.75337602579E+01  0.76400552107E+01  0.12700000000E+01 0.  1.
         -4   -1    0    0    0  501 -0.00000000000E+00 -0.00000000000E+00 -0.51467351414E+03  0.51467508105E+03  0.12700000000E+01 0.  1.
         25    2    1    2    0    0  0.00000000000E+00  0.00000000000E+00 -0.50713975388E+03  0.52231513626E+03  0.12498948597E+03 0.  0.
    9000005    1    3    3    0    0 -0.50456519799E+02  0.27542244133E+02 -0.15119540479E+03  0.16175749143E+03  0.10000000000E+01 0.  0.
    9000005    1    3    3    0    0  0.50456519799E+02 -0.27542244133E+02 -0.35594434909E+03  0.36055764484E+03  0.10000000000E+01 0.  0.
<mgrwt>
<rscale>  0 0.12498949E+03</rscale>
<asrwt>0</asrwt>
<pdfrwt beam="1">  1        4 0.11673375E-02 0.12498949E+03</pdfrwt>
<pdfrwt beam="2">  1       -4 0.79188811E-01 0.12498949E+03</pdfrwt>
<totfact> 0.54186151E+03</totfact>
</mgrwt>
</event>
<event>
 5    1  0.3266101E-002  0.1249965E+03  0.7818608E-02  0.1235075E+00
         -4   -1    0    0    0  501 -0.00000000000E+00  0.00000000000E+00  0.36659475549E+02  0.36681467358E+02  0.12700000000E+01 0.  1.
          4   -1    0    0  501    0  0.00000000000E+00 -0.00000000000E+00 -0.10649131822E+03  0.10649889087E+03  0.12700000000E+01 0.  1.
         25    2    1    2    0    0  0.00000000000E+00  0.00000000000E+00 -0.69831842676E+02  0.14318035823E+03  0.12499651488E+03 0.  0.
    9000005    1    3    3    0    0 -0.49325339731E+02  0.23728195686E+02 -0.69451858851E+02  0.88434026867E+02  0.10000000000E+01 0.  0.
    9000005    1    3    3    0    0  0.49325339731E+02 -0.23728195686E+02 -0.37998382553E+00  0.54746331364E+02  0.10000000000E+01 0.  0.
<mgrwt>
<rscale>  0 0.12499651E+03</rscale>
<asrwt>0</asrwt>
<pdfrwt beam="2">  1        4 0.16385554E-01 0.12499651E+03</pdfrwt>
<pdfrwt beam="1">  1       -4 0.56421935E-02 0.12499651E+03</pdfrwt>
<totfact> 0.10068882E+04</totfact>
</mgrwt>
</event>
<event>
 5    1  0.3266101E-002  0.1250010E+03  0.7818608E-02  0.1235068E+00
         -4   -1    0    0    0  501 -0.00000000000E+00  0.00000000000E+00  0.83462699264E+02  0.83472361105E+02  0.12700000000E+01 0. -1.
          4   -1    0    0  501    0  0.00000000000E+00 -0.00000000000E+00 -0.46782101955E+02  0.46799337210E+02  0.12700000000E+01 0. -1.
         25    2    1    2    0    0  0.00000000000E+00  0.00000000000E+00  0.36680597309E+02  0.13027169832E+03  0.12500099665E+03 0.  0.
    9000005    1    3    3    0    0  0.61596416333E+02  0.74043162084E+01  0.26164863280E+02  0.67339011532E+02  0.10000000000E+01 0.  0.
    9000005    1    3    3    0    0 -0.61596416333E+02 -0.74043162084E+01  0.10515734029E+02  0.62932686783E+02  0.10000000000E+01 0.  0.
<mgrwt>
<rscale>  0 0.12500100E+03</rscale>
<asrwt>0</asrwt>
<pdfrwt beam="2">  1        4 0.71993155E-02 0.12500100E+03</pdfrwt>
<pdfrwt beam="1">  1       -4 0.12842484E-01 0.12500100E+03</pdfrwt>
<totfact> 0.10338466E+04</totfact>
</mgrwt>
</event>
<event>
 5    1  0.3266101E-002  0.1250009E+03  0.7818608E-02  0.1235068E+00
          4   -1    0    0  501    0  0.00000000000E+00  0.00000000000E+00  0.11306201725E+02  0.11377306247E+02  0.12700000000E+01 0. -1.
         -4   -1    0    0    0  501 -0.00000000000E+00 -0.00000000000E+00 -0.34434614744E+03  0.34434848941E+03  0.12700000000E+01 0. -1.
         25    2    1    2    0    0  0.00000000000E+00  0.00000000000E+00 -0.33303994571E+03  0.35572579565E+03  0.12500094500E+03 0.  0.
    9000005    1    3    3    0    0 -0.32510099057E+02  0.15373204498E+02 -0.21076502602E+02  0.41694854828E+02  0.10000000000E+01 0.  0.
    9000005    1    3    3    0    0  0.32510099057E+02 -0.15373204498E+02 -0.31196344311E+03  0.31403094082E+03  0.10000000000E+01 0.  0.
<mgrwt>
<rscale>  0 0.12500095E+03</rscale>
<asrwt>0</asrwt>
<pdfrwt beam="1">  1        4 0.17450656E-02 0.12500095E+03</pdfrwt>
<pdfrwt beam="2">  1       -4 0.52981972E-01 0.12500095E+03</pdfrwt>
<totfact> 0.69097767E+03</totfact>
</mgrwt>
</event>
<event>
 5    1  0.3266101E-002  0.1249967E+03  0.7818608E-02  0.1235074E+00
          4   -1    0    0  501    0  0.00000000000E+00  0.00000000000E+00  0.10826793884E+02  0.10901025906E+02  0.12700000000E+01 0.  1.
         -4   -1    0    0    0  501 -0.00000000000E+00 -0.00000000000E+00 -0.35946794159E+03  0.35947018504E+03  0.12700000000E+01 0.  1.
         25    2    1    2    0    0  0.00000000000E+00  0.00000000000E+00 -0.34864114770E+03  0.37037121094E+03  0.12499673604E+03 0.  0.
    9000005    1    3    3    0    0 -0.56688765333E+02 -0.23586406576E+02 -0.13987888733E+03  0.15276464843E+03  0.10000000000E+01 0.  0.
    9000005    1    3    3    0    0  0.56688765333E+02  0.23586406576E+02 -0.20876226037E+03  0.21760656251E+03  0.10000000000E+01 0.  0.
<mgrwt>
<rscale>  0 0.12499674E+03</rscale>
<asrwt>0</asrwt>
<pdfrwt beam="1">  1        4 0.16715436E-02 0.12499674E+03</pdfrwt>
<pdfrwt beam="2">  1       -4 0.55308634E-01 0.12499674E+03</pdfrwt>
<totfact> 0.67544997E+03</totfact>
</mgrwt>
</event>
<event>
 5    1  0.3266101E-002  0.1250020E+03  0.7818608E-02  0.1235066E+00
         -4   -1    0    0    0  501 -0.00000000000E+00  0.00000000000E+00  0.11789093441E+02  0.11857302567E+02  0.12700000000E+01 0.  1.
          4   -1    0    0  501    0  0.00000000000E+00 -0.00000000000E+00 -0.33032952274E+03  0.33033196408E+03  0.12700000000E+01 0.  1.
         25    2    1    2    0    0  0.00000000000E+00  0.00000000000E+00 -0.31854042930E+03  0.34218926665E+03  0.12500195643E+03 0.  0.
    9000005    1    3    3    0    0 -0.63477142419E+01 -0.34417106749E+02 -0.30099990741E+03  0.30302933022E+03  0.10000000000E+01 0.  0.
    9000005    1    3    3    0    0  0.63477142419E+01  0.34417106749E+02 -0.17540521894E+02  0.39159936432E+02  0.10000000000E+01 0.  0.
<mgrwt>
<rscale>  0 0.12500196E+03</rscale>
<asrwt>0</asrwt>
<pdfrwt beam="2">  1        4 0.50825354E-01 0.12500196E+03</pdfrwt>
<pdfrwt beam="1">  1       -4 0.18191416E-02 0.12500196E+03</pdfrwt>
<totfact> 0.70589412E+03</totfact>
</mgrwt>
</event>
<event>
 5    1  0.3266101E-002  0.1250020E+03  0.7818608E-02  0.1235066E+00
         -4   -1    0    0    0  501 -0.00000000000E+00  0.00000000000E+00  0.45699116747E+01  0.47430994839E+01  0.12700000000E+01 0. -1.
          4   -1    0    0  501    0  0.00000000000E+00 -0.00000000000E+00 -0.83873351913E+03  0.83873448064E+03  0.12700000000E+01 0. -1.
         25    2    1    2    0    0  0.00000000000E+00  0.00000000000E+00 -0.83416360746E+03  0.84347758012E+03  0.12500201665E+03 0.  0.
    9000005    1    3    3    0    0 -0.31830466075E+02 -0.22688449019E+02 -0.74609290604E+03  0.74711683741E+03  0.10000000000E+01 0.  0.
    9000005    1    3    3    0    0  0.31830466075E+02  0.22688449019E+02 -0.88070701415E+02  0.96360742718E+02  0.10000000000E+01 0.  0.
<mgrwt>
<rscale>  0 0.12500202E+03</rscale>
<asrwt>0</asrwt>
<pdfrwt beam="2">  1        4 0.12904920E+00 0.12500202E+03</pdfrwt>
<pdfrwt beam="1">  1       -4 0.71646010E-03 0.12500202E+03</pdfrwt>
<totfact> 0.36394152E+03</totfact>
</mgrwt>
</event>
<event>
 5    1  0.3266101E-002  0.1249996E+03  0.7818608E-02  0.1235070E+00
          4   -1    0    0  501    0  0.00000000000E+00  0.00000000000E+00  0.46555078323E+02  0.46572397594E+02  0.12700000000E+01 0. -1.
         -4   -1    0    0    0  501 -0.00000000000E+00 -0.00000000000E+00 -0.83867764848E+02  0.83877380029E+02  0.12700000000E+01 0. -1.
         25    2    1    2    0    0  0.00000000000E+00  0.00000000000E+00 -0.37312686525E+02  0.13044977762E+03  0.12499963163E+03 0.  0.
    9000005    1    3    3    0    0 -0.49375338329E+02 -0.57495024401E+01 -0.58179029840E+02  0.76529604249E+02  0.10000000000E+01 0.  0.
    9000005    1    3    3    0    0  0.49375338329E+02  0.57495024401E+01  0.20866343316E+02  0.53920173375E+02  0.10000000000E+01 0.  0.
<mgrwt>
<rscale>  0 0.12499963E+03</rscale>
<asrwt>0</asrwt>
<pdfrwt beam="1">  1        4 0.71643917E-02 0.12499963E+03</pdfrwt>
<pdfrwt beam="2">  1       -4 0.12904805E-01 0.12499963E+03</pdfrwt>
<totfact> 0.10334981E+04</totfact>
</mgrwt>
</event>
<event>
 5    1  0.3266101E-002  0.1250015E+03  0.7818608E-02  0.1235067E+00
          4   -1    0    0  501    0  0.00000000000E+00  0.00000000000E+00  0.29822984324E+02  0.29850013299E+02  0.12700000000E+01 0. -1.
         -4   -1    0    0    0  501 -0.00000000000E+00 -0.00000000000E+00 -0.13089493297E+03  0.13090109388E+03  0.12700000000E+01 0. -1.
         25    2    1    2    0    0  0.00000000000E+00  0.00000000000E+00 -0.10107194865E+03  0.16075110718E+03  0.12500151861E+03 0.  0.
    9000005    1    3    3    0    0  0.76469099436E+01  0.49690072155E+02 -0.98269826086E+02  0.11038812083E+03  0.10000000000E+01 0.  0.
    9000005    1    3    3    0    0 -0.76469099436E+01 -0.49690072155E+02 -0.28021225648E+01  0.50362986342E+02  0.10000000000E+01 0.  0.
<mgrwt>
<rscale>  0 0.12500152E+03</rscale>
<asrwt>0</asrwt>
<pdfrwt beam="1">  1        4 0.45907046E-02 0.12500152E+03</pdfrwt>
<pdfrwt beam="2">  1       -4 0.20140235E-01 0.12500152E+03</pdfrwt>
<totfact> 0.97194855E+03</totfact>
</mgrwt>
</event>
<event>
 5    1  0.3266101E-002  0.1250091E+03  0.7818608E-02  0.1235055E+00
         -4   -1    0    0    0  501 -0.00000000000E+00  0.00000000000E+00  0.21147445044E+03  0.21147826387E+03  0.12700000000E+01 0. -1.
          4   -1    0    0  501    0  0.00000000000E+00 -0.00000000000E+00 -0.18448366194E+02  0.18492028423E+02  0.12700000000E+01 0. -1.
         25    2    1    2    0    0  0.00000000000E+00  0.00000000000E+00  0.19302608424E+03  0.22997029229E+03  0.12500906422E+03 0.  0.
    9000005    1    3    3    0    0  0.42116693946E+02 -0.24555834833E+02  0.16844727611E+03  0.17536330791E+03  0.10000000000E+01 0.  0.
    9000005    1    3    3    0    0 -0.42116693946E+02  0.24555834833E+02  0.24578808132E+02  0.54606984375E+02  0.10000000000E+01 0.  0.
<mgrwt>
<rscale>  0 0.12500906E+03</rscale>
<asrwt>0</asrwt>
<pdfrwt beam="2">  1        4 0.28418623E-02 0.12500906E+03</pdfrwt>
<pdfrwt beam="1">  1       -4 0.32538181E-01 0.12500906E+03</pdfrwt>
<totfact> 0.85296908E+03</totfact>
</mgrwt>
</event>
<event>
 5    1  0.3266101E-002  0.1249992E+03  0.7818608E-02  0.1235071E+00
          4   -1    0    0  501    0  0.00000000000E+00  0.00000000000E+00  0.15303749004E+03  0.15304275958E+03  0.12700000000E+01 0. -1.
         -4   -1    0    0    0  501 -0.00000000000E+00 -0.00000000000E+00 -0.25502957493E+02  0.25534559735E+02  0.12700000000E+01 0. -1.
         25    2    1    2    0    0  0.00000000000E+00  0.00000000000E+00  0.12753453255E+03  0.17857731931E+03  0.12499920792E+03 0.  0.
    9000005    1    3    3    0    0  0.24689231327E+02  0.42617990973E+02  0.88189501123E+01  0.50046230419E+02  0.10000000000E+01 0.  0.
    9000005    1    3    3    0    0 -0.24689231327E+02 -0.42617990973E+02  0.11871558244E+03  0.12853108889E+03  0.10000000000E+01 0.  0.
<mgrwt>
<rscale>  0 0.12499921E+03</rscale>
<asrwt>0</asrwt>
<pdfrwt beam="1">  1        4 0.23547065E-01 0.12499921E+03</pdfrwt>
<pdfrwt beam="2">  1       -4 0.39263682E-02 0.12499921E+03</pdfrwt>
<totfact> 0.93875386E+03</totfact>
</mgrwt>
</event>
<event>
 5    1  0.3266101E-002  0.1249952E+03  0.7818608E-02  0.1235077E+00
          4   -1    0    0  501    0  0.00000000000E+00  0.00000000000E+00  0.79104536427E+01  0.80117524196E+01  0.12700000000E+01 0.  1.
         -4   -1    0    0    0  501 -0.00000000000E+00 -0.00000000000E+00 -0.49052745475E+03  0.49052909880E+03  0.12700000000E+01 0.  1.
         25    2    1    2    0    0  0.00000000000E+00  0.00000000000E+00 -0.48261700111E+03  0.49854085122E+03  0.12499524219E+03 0.  0.
    9000005    1    3    3    0    0 -0.11133547493E+02  0.38805820299E+02 -0.43155119924E+03  0.43343659875E+03  0.10000000000E+01 0.  0.
    9000005    1    3    3    0    0  0.11133547493E+02 -0.38805820299E+02 -0.51065801871E+02  0.65104252469E+02  0.10000000000E+01 0.  0.
<mgrwt>
<rscale>  0 0.12499524E+03</rscale>
<asrwt>0</asrwt>
<pdfrwt beam="1">  1        4 0.12249119E-02 0.12499524E+03</pdfrwt>
<pdfrwt beam="2">  1       -4 0.75473657E-01 0.12499524E+03</pdfrwt>
<totfact> 0.55983624E+03</totfact>
</mgrwt>
</event>
<event>
 5    1  0.3266101E-002  0.1249991E+03  0.7818608E-02  0.1235071E+00
         -4   -1    0    0    0  501 -0.00000000000E+00  0.00000000000E+00  0.13252893888E+03  0.13253502383E+03  0.12700000000E+01 0. -1.
          4   -1    0    0  501    0  0.00000000000E+00 -0.00000000000E+00 -0.29453836956E+02  0.29481204376E+02  0.12700000000E+01 0. -1.
         25    2    1    2    0    0  0.00000000000E+00  0.00000000000E+00  0.10307510192E+03  0.16201622820E+03  0.12499912625E+03 0.  0.
    9000005    1    3    3    0    0 -0.59129820302E+02  0.17176187551E+02  0.37708391464E+02  0.72209970603E+02  0.10000000000E+01 0.  0.
    9000005    1    3    3    0    0  0.59129820302E+02 -0.17176187551E+02  0.65366710459E+02  0.89806257599E+02  0.10000000000E+01 0.  0.
<mgrwt>
<rscale>  0 0.12499913E+03</rscale>
<asrwt>0</asrwt>
<pdfrwt beam="2">  1        4 0.45339327E-02 0.12499913E+03</pdfrwt>
<pdfrwt beam="1">  1       -4 0.20391641E-01 0.12499913E+03</pdfrwt>
<totfact> 0.96957378E+03</totfact>
</mgrwt>
</event>
<event>
 4    1  0.3266101E-002  0.1250819E+03  0.7818608E-02  0.1234941E+00
         -4   -1    0    0    0  501 -0.00000000000E+00  0.00000000000E+00  0.22173075717E+02  0.22209416623E+02  0.12700000000E+01 0. -1.
          4   -1    0    0  501    0  0.00000000000E+00 -0.00000000000E+00 -0.17621879743E+03  0.17622337379E+03  0.12700000000E+01 0. -1.
    9000005    1    1    2    0    0  0.48184178139E+02 -0.16130019010E+00 -0.13791811072E+02  0.50129383532E+02  0.10000000000E+01 0.  0.
    9000005    1    1    2    0    0 -0.48184178139E+02  0.16130019010E+00 -0.14025391064E+03  0.14830340688E+03  0.10000000000E+01 0.  0.
<mgrwt>
<rscale>  0 0.12508192E+03</rscale>
<asrwt>0</asrwt>
<pdfrwt beam="2">  1        4 0.27113731E-01 0.12508192E+03</pdfrwt>
<pdfrwt beam="1">  1       -4 0.34143900E-02 0.12508192E+03</pdfrwt>
<totfact> 0.90234826E+03</totfact>
</mgrwt>
</event>
<event>
 5    1  0.3266101E-002  0.1250023E+03  0.7818608E-02  0.1235066E+00
         -4   -1    0    0    0  501 -0.00000000000E+00  0.00000000000E+00  0.18377642497E+03  0.18378081313E+03  0.12700000000E+01 0. -1.
          4   -1    0    0  501    0  0.00000000000E+00 -0.00000000000E+00 -0.21232617444E+02  0.21270565191E+02  0.12700000000E+01 0. -1.
         25    2    1    2    0    0  0.00000000000E+00  0.00000000000E+00  0.16254380753E+03  0.20505137832E+03  0.12500231352E+03 0.  0.
    9000005    1    3    3    0    0  0.48134902527E+02 -0.23042050119E+02  0.13461555162E+03  0.14481108954E+03  0.10000000000E+01 0.  0.
    9000005    1    3    3    0    0 -0.48134902527E+02  0.23042050119E+02  0.27928255908E+02  0.60240288786E+02  0.10000000000E+01 0.  0.
<mgrwt>
<rscale>  0 0.12500231E+03</rscale>
<asrwt>0</asrwt>
<pdfrwt beam="2">  1        4 0.32698132E-02 0.12500231E+03</pdfrwt>
<pdfrwt beam="1">  1       -4 0.28276552E-01 0.12500231E+03</pdfrwt>
<totfact> 0.89285867E+03</totfact>
</mgrwt>
</event>
<event>
 5    1  0.3266101E-002  0.1249997E+03  0.7818608E-02  0.1235070E+00
         -4   -1    0    0    0  501 -0.00000000000E+00  0.00000000000E+00  0.22736324647E+02  0.22771766696E+02  0.12700000000E+01 0. -1.
          4   -1    0    0  501    0  0.00000000000E+00 -0.00000000000E+00 -0.17163416076E+03  0.17163885935E+03  0.12700000000E+01 0. -1.
         25    2    1    2    0    0  0.00000000000E+00  0.00000000000E+00 -0.14889783611E+03  0.19441062605E+03  0.12499970368E+03 0.  0.
    9000005    1    3    3    0    0  0.33788380854E+02  0.51095194709E+02 -0.93677839595E+02  0.11193261917E+03  0.10000000000E+01 0.  0.
    9000005    1    3    3    0    0 -0.33788380854E+02 -0.51095194709E+02 -0.55219996519E+02  0.82478006879E+02  0.10000000000E+01 0.  0.
<mgrwt>
<rscale>  0 0.12499970E+03</rscale>
<asrwt>0</asrwt>
<pdfrwt beam="2">  1        4 0.26408342E-01 0.12499970E+03</pdfrwt>
<pdfrwt beam="1">  1       -4 0.35009839E-02 0.12499970E+03</pdfrwt>
<totfact> 0.91086098E+03</totfact>
</mgrwt>
</event>
<event>
 5    1  0.3266101E-002  0.1249997E+03  0.7818608E-02  0.1235070E+00
         -4   -1    0    0    0  501 -0.00000000000E+00  0.00000000000E+00  0.87496757231E+02  0.87505973659E+02  0.12700000000E+01 0. -1.
          4   -1    0    0  501    0  0.00000000000E+00 -0.00000000000E+00 -0.44623724143E+02  0.44641792711E+02  0.12700000000E+01 0. -1.
         25    2    1    2    0    0  0.00000000000E+00  0.00000000000E+00  0.42873033088E+02  0.13214776637E+03  0.12499974076E+03 0.  0.
    9000005    1    3    3    0    0 -0.60461356856E+02 -0.63909471961E+01  0.61597853715E+01  0.61117614766E+02  0.10000000000E+01 0.  0.
    9000005    1    3    3    0    0  0.60461356856E+02  0.63909471961E+01  0.36713247717E+02  0.71030151603E+02  0.10000000000E+01 0.  0.
<mgrwt>
<rscale>  0 0.12499974E+03</rscale>
<asrwt>0</asrwt>
<pdfrwt beam="2">  1        4 0.68672872E-02 0.12499974E+03</pdfrwt>
<pdfrwt beam="1">  1       -4 0.13463138E-01 0.12499974E+03</pdfrwt>
<totfact> 0.10298606E+04</totfact>
</mgrwt>
</event>
<event>
 5    1  0.3266101E-002  0.1249996E+03  0.7818608E-02  0.1235070E+00
         -4   -1    0    0    0  501 -0.00000000000E+00  0.00000000000E+00  0.38883198620E+03  0.38883406023E+03  0.12700000000E+01 0. -1.
          4   -1    0    0  501    0  0.00000000000E+00 -0.00000000000E+00 -0.10003806558E+02  0.10084098653E+02  0.12700000000E+01 0. -1.
         25    2    1    2    0    0  0.00000000000E+00  0.00000000000E+00  0.37882817964E+03  0.39891815888E+03  0.12499963117E+03 0.  0.
    9000005    1    3    3    0    0 -0.47645663847E+02  0.31430277663E+02  0.27060602368E+03  0.27656209373E+03  0.10000000000E+01 0.  0.
    9000005    1    3    3    0    0  0.47645663847E+02 -0.31430277663E+02  0.10822215596E+03  0.12235606515E+03  0.10000000000E+01 0.  0.
<mgrwt>
<rscale>  0 0.12499963E+03</rscale>
<asrwt>0</asrwt>
<pdfrwt beam="2">  1        4 0.15453830E-02 0.12499963E+03</pdfrwt>
<pdfrwt beam="1">  1       -4 0.59826642E-01 0.12499963E+03</pdfrwt>
<totfact> 0.64658668E+03</totfact>
</mgrwt>
</event>
<event>
 5    1  0.3266101E-002  0.1250014E+03  0.7818608E-02  0.1235067E+00
         -4   -1    0    0    0  501 -0.00000000000E+00  0.00000000000E+00  0.13755926167E+03  0.13756512410E+03  0.12700000000E+01 0. -1.
          4   -1    0    0  501    0  0.00000000000E+00 -0.00000000000E+00 -0.28376798838E+02  0.28405203965E+02  0.12700000000E+01 0. -1.
         25    2    1    2    0    0  0.00000000000E+00  0.00000000000E+00  0.10918246283E+03  0.16597032807E+03  0.12500135843E+03 0.  0.
    9000005    1    3    3    0    0 -0.13878941391E+02 -0.22788263827E+02 -0.20440110687E+02  0.33626300826E+02  0.10000000000E+01 0.  0.
    9000005    1    3    3    0    0  0.13878941391E+02  0.22788263827E+02  0.12962257351E+03  0.13234402724E+03  0.10000000000E+01 0.  0.
<mgrwt>
<rscale>  0 0.12500136E+03</rscale>
<asrwt>0</asrwt>
<pdfrwt beam="2">  1        4 0.43682974E-02 0.12500136E+03</pdfrwt>
<pdfrwt beam="1">  1       -4 0.21165599E-01 0.12500136E+03</pdfrwt>
<totfact> 0.96201007E+03</totfact>
</mgrwt>
</event>
<event>
 5    1  0.3266101E-002  0.1250004E+03  0.7818608E-02  0.1235069E+00
         -4   -1    0    0    0  501 -0.00000000000E+00  0.00000000000E+00  0.83262765868E+02  0.83272450906E+02  0.12700000000E+01 0.  1.
          4   -1    0    0  501    0  0.00000000000E+00 -0.00000000000E+00 -0.46893986961E+02  0.46911181110E+02  0.12700000000E+01 0.  1.
         25    2    1    2    0    0  0.00000000000E+00  0.00000000000E+00  0.36368778907E+02  0.13018363202E+03  0.12500035986E+03 0.  0.
    9000005    1    3    3    0    0  0.23647603716E+02  0.24083219919E+02  0.72958592050E+02  0.80393823128E+02  0.10000000000E+01 0.  0.
    9000005    1    3    3    0    0 -0.23647603716E+02 -0.24083219919E+02 -0.36589813144E+02  0.49789808888E+02  0.10000000000E+01 0.  0.
<mgrwt>
<rscale>  0 0.12500036E+03</rscale>
<asrwt>0</asrwt>
<pdfrwt beam="2">  1        4 0.72165272E-02 0.12500036E+03</pdfrwt>
<pdfrwt beam="1">  1       -4 0.12811724E-01 0.12500036E+03</pdfrwt>
<totfact> 0.10340497E+04</totfact>
</mgrwt>
</event>
<event>
 5    1  0.3266101E-002  0.1250047E+03  0.7818608E-02  0.1235062E+00
         -4   -1    0    0    0  501 -0.00000000000E+00  0.00000000000E+00  0.67215407175E+02  0.67227404098E+02  0.12700000000E+01 0.  1.
          4   -1    0    0  501    0  0.00000000000E+00 -0.00000000000E+00 -0.58095632240E+02  0.58109512004E+02  0.12700000000E+01 0.  1.
         25    2    1    2    0    0  0.00000000000E+00  0.00000000000E+00  0.91197749357E+01  0.12533691610E+03  0.12500468888E+03 0.  0.
    9000005    1    3    3    0    0 -0.51269078665E+01 -0.59868407516E+02  0.21782023337E+02  0.63921576509E+02  0.10000000000E+01 0.  0.
    9000005    1    3    3    0    0  0.51269078665E+01  0.59868407516E+02 -0.12662248401E+02  0.61415339593E+02  0.10000000000E+01 0.  0.
<mgrwt>
<rscale>  0 0.12500469E+03</rscale>
<asrwt>0</asrwt>
<pdfrwt beam="2">  1        4 0.89397801E-02 0.12500469E+03</pdfrwt>
<pdfrwt beam="1">  1       -4 0.10342822E-01 0.12500469E+03</pdfrwt>
<totfact> 0.10444442E+04</totfact>
</mgrwt>
</event>
<event>
 5    1  0.3266101E-002  0.1249986E+03  0.7818608E-02  0.1235071E+00
          4   -1    0    0  501    0  0.00000000000E+00  0.00000000000E+00  0.95350767134E+01  0.96192820902E+01  0.12700000000E+01 0. -1.
         -4   -1    0    0    0  501 -0.00000000000E+00 -0.00000000000E+00 -0.40777637594E+03  0.40777835362E+03  0.12700000000E+01 0. -1.
         25    2    1    2    0    0  0.00000000000E+00  0.00000000000E+00 -0.39824129923E+03  0.41739763571E+03  0.12499861551E+03 0.  0.
    9000005    1    3    3    0    0 -0.53538271334E+02  0.32170773353E+02 -0.19256155947E+03  0.20244075513E+03  0.10000000000E+01 0.  0.
    9000005    1    3    3    0    0  0.53538271334E+02 -0.32170773353E+02 -0.20567973977E+03  0.21495688057E+03  0.10000000000E+01 0.  0.
<mgrwt>
<rscale>  0 0.12499862E+03</rscale>
<asrwt>0</asrwt>
<pdfrwt beam="1">  1        4 0.14735647E-02 0.12499862E+03</pdfrwt>
<pdfrwt beam="2">  1       -4 0.62741443E-01 0.12499862E+03</pdfrwt>
<totfact> 0.62897099E+03</totfact>
</mgrwt>
</event>
<event>
 5    1  0.3266101E-002  0.1250009E+03  0.7818608E-02  0.1235068E+00
         -4   -1    0    0    0  501 -0.00000000000E+00  0.00000000000E+00  0.45503345284E+02  0.45521064706E+02  0.12700000000E+01 0. -1.
          4   -1    0    0  501    0  0.00000000000E+00 -0.00000000000E+00 -0.85807421372E+02  0.85816819229E+02  0.12700000000E+01 0. -1.
         25    2    1    2    0    0  0.00000000000E+00  0.00000000000E+00 -0.40304076089E+02  0.13133788394E+03  0.12500088483E+03 0.  0.
    9000005    1    3    3    0    0 -0.37295640384E+02  0.45565638518E+02 -0.42144307377E+02  0.72417779927E+02  0.10000000000E+01 0.  0.
    9000005    1    3    3    0    0  0.37295640384E+02 -0.45565638518E+02  0.18402312885E+01  0.58920104009E+02  0.10000000000E+01 0.  0.
<mgrwt>
<rscale>  0 0.12500088E+03</rscale>
<asrwt>0</asrwt>
<pdfrwt beam="2">  1        4 0.13203228E-01 0.12500088E+03</pdfrwt>
<pdfrwt beam="1">  1       -4 0.70026006E-02 0.12500088E+03</pdfrwt>
<totfact> 0.10315645E+04</totfact>
</mgrwt>
</event>
<event>
 5    1  0.3266101E-002  0.1249943E+03  0.7818608E-02  0.1235078E+00
          4   -1    0    0  501    0  0.00000000000E+00  0.00000000000E+00  0.13330414535E+02  0.13390774872E+02  0.12700000000E+01 0. -1.
         -4   -1    0    0    0  501 -0.00000000000E+00 -0.00000000000E+00 -0.29228257547E+03  0.29228533461E+03  0.12700000000E+01 0. -1.
         25    2    1    2    0    0  0.00000000000E+00  0.00000000000E+00 -0.27895216094E+03  0.30567610948E+03  0.12499430312E+03 0.  0.
    9000005    1    3    3    0    0  0.23574793506E+02  0.51465108080E+02 -0.74752174371E+02  0.93772681585E+02  0.10000000000E+01 0.  0.
    9000005    1    3    3    0    0 -0.23574793506E+02 -0.51465108080E+02 -0.20419998657E+03  0.21190342789E+03  0.10000000000E+01 0.  0.
<mgrwt>
<rscale>  0 0.12499430E+03</rscale>
<asrwt>0</asrwt>
<pdfrwt beam="1">  1        4 0.20556886E-02 0.12499430E+03</pdfrwt>
<pdfrwt beam="2">  1       -4 0.44971401E-01 0.12499430E+03</pdfrwt>
<totfact> 0.74901781E+03</totfact>
</mgrwt>
</event>
<event>
 5    1  0.3266101E-002  0.1250014E+03  0.7818608E-02  0.1235067E+00
         -4   -1    0    0    0  501 -0.00000000000E+00  0.00000000000E+00  0.24164209454E+02  0.24197560177E+02  0.12700000000E+01 0. -1.
          4   -1    0    0  501    0  0.00000000000E+00 -0.00000000000E+00 -0.16151055640E+03  0.16151554950E+03  0.12700000000E+01 0. -1.
         25    2    1    2    0    0  0.00000000000E+00  0.00000000000E+00 -0.13734634695E+03  0.18571310967E+03  0.12500136033E+03 0.  0.
    9000005    1    3    3    0    0  0.32840753132E+02  0.48056745605E+02 -0.10246627788E+03  0.11784864855E+03  0.10000000000E+01 0.  0.
    9000005    1    3    3    0    0 -0.32840753132E+02 -0.48056745605E+02 -0.34880069070E+02  0.67864461117E+02  0.10000000000E+01 0.  0.
<mgrwt>
<rscale>  0 0.12500136E+03</rscale>
<asrwt>0</asrwt>
<pdfrwt beam="2">  1        4 0.24850727E-01 0.12500136E+03</pdfrwt>
<pdfrwt beam="1">  1       -4 0.37205203E-02 0.12500136E+03</pdfrwt>
<totfact> 0.92595794E+03</totfact>
</mgrwt>
</event>
<event>
 5    1  0.3266101E-002  0.1249990E+03  0.7818608E-02  0.1235071E+00
         -4   -1    0    0    0  501 -0.00000000000E+00  0.00000000000E+00  0.97497434842E+01  0.98321105572E+01  0.12700000000E+01 0.  1.
          4   -1    0    0  501    0  0.00000000000E+00 -0.00000000000E+00 -0.39887673903E+03  0.39887876083E+03  0.12700000000E+01 0.  1.
         25    2    1    2    0    0  0.00000000000E+00  0.00000000000E+00 -0.38912699555E+03  0.40871087139E+03  0.12499903090E+03 0.  0.
    9000005    1    3    3    0    0  0.21014625381E+02  0.58626893326E+02 -0.17774359089E+03  0.18834147499E+03  0.10000000000E+01 0.  0.
    9000005    1    3    3    0    0 -0.21014625381E+02 -0.58626893326E+02 -0.21138340466E+03  0.22036939639E+03  0.10000000000E+01 0.  0.
<mgrwt>
<rscale>  0 0.12499903E+03</rscale>
<asrwt>0</asrwt>
<pdfrwt beam="2">  1        4 0.61372131E-01 0.12499903E+03</pdfrwt>
<pdfrwt beam="1">  1       -4 0.15064523E-02 0.12499903E+03</pdfrwt>
<totfact> 0.63715675E+03</totfact>
</mgrwt>
</event>
<event>
 5    1  0.3266101E-002  0.1249960E+03  0.7818608E-02  0.1235076E+00
         -4   -1    0    0    0  501 -0.00000000000E+00  0.00000000000E+00  0.48404739873E+03  0.48404906478E+03  0.12700000000E+01 0.  1.
          4   -1    0    0  501    0  0.00000000000E+00 -0.00000000000E+00 -0.80177920875E+01  0.81177515334E+01  0.12700000000E+01 0.  1.
         25    2    1    2    0    0  0.00000000000E+00  0.00000000000E+00  0.47602960664E+03  0.49216681631E+03  0.12499595467E+03 0.  0.
    9000005    1    3    3    0    0  0.35433069056E+02  0.46933597043E+02  0.15479244340E+03  0.16558975043E+03  0.10000000000E+01 0.  0.
    9000005    1    3    3    0    0 -0.35433069056E+02 -0.46933597043E+02  0.32123716324E+03  0.32657706589E+03  0.10000000000E+01 0.  0.
<mgrwt>
<rscale>  0 0.12499595E+03</rscale>
<asrwt>0</asrwt>
<pdfrwt beam="2">  1        4 0.12413235E-02 0.12499595E+03</pdfrwt>
<pdfrwt beam="1">  1       -4 0.74476669E-01 0.12499595E+03</pdfrwt>
<totfact> 0.56482301E+03</totfact>
</mgrwt>
</event>
<event>
 5    1  0.3266101E-002  0.1250310E+03  0.7818608E-02  0.1235021E+00
          4   -1    0    0  501    0  0.00000000000E+00  0.00000000000E+00  0.59290600991E+02  0.59304201081E+02  0.12700000000E+01 0. -1.
         -4   -1    0    0    0  501 -0.00000000000E+00 -0.00000000000E+00 -0.65888476594E+02  0.65900715079E+02  0.12700000000E+01 0. -1.
         25    2    1    2    0    0  0.00000000000E+00  0.00000000000E+00 -0.65978756033E+01  0.12520491616E+03  0.12503095244E+03 0.  0.
    9000005    1    3    3    0    0 -0.38329961396E+02 -0.32916280606E+02 -0.40153912721E+02  0.64544590604E+02  0.10000000000E+01 0.  0.
    9000005    1    3    3    0    0  0.38329961396E+02  0.32916280606E+02  0.33556037117E+02  0.60660325556E+02  0.10000000000E+01 0.  0.
<mgrwt>
<rscale>  0 0.12503095E+03</rscale>
<asrwt>0</asrwt>
<pdfrwt beam="1">  1        4 0.91236185E-02 0.12503095E+03</pdfrwt>
<pdfrwt beam="2">  1       -4 0.10138676E-01 0.12503095E+03</pdfrwt>
<totfact> 0.10441108E+04</totfact>
</mgrwt>
</event>
<event>
 5    1  0.3266101E-002  0.1250022E+03  0.7818608E-02  0.1235066E+00
         -4   -1    0    0    0  501 -0.00000000000E+00  0.00000000000E+00  0.95492751575E+02  0.95501196345E+02  0.12700000000E+01 0. -1.
          4   -1    0    0  501    0  0.00000000000E+00 -0.00000000000E+00 -0.40887569406E+02  0.40907288250E+02  0.12700000000E+01 0. -1.
         25    2    1    2    0    0  0.00000000000E+00  0.00000000000E+00  0.54605182169E+02  0.13640848459E+03  0.12500219498E+03 0.  0.
    9000005    1    3    3    0    0 -0.24504664479E+02  0.57915780821E+01 -0.35112315985E+02  0.43219158850E+02  0.10000000000E+01 0.  0.
    9000005    1    3    3    0    0  0.24504664479E+02 -0.57915780821E+01  0.89717498153E+02  0.93189325745E+02  0.10000000000E+01 0.  0.
<mgrwt>
<rscale>  0 0.12500219E+03</rscale>
<asrwt>0</asrwt>
<pdfrwt beam="2">  1        4 0.62925618E-02 0.12500219E+03</pdfrwt>
<pdfrwt beam="1">  1       -4 0.14693359E-01 0.12500219E+03</pdfrwt>
<totfact> 0.10207963E+04</totfact>
</mgrwt>
</event>
<event>
 5    1  0.3266101E-002  0.1250023E+03  0.7818608E-02  0.1235066E+00
         -4   -1    0    0    0  501 -0.00000000000E+00  0.00000000000E+00  0.27672228500E+01  0.30447368197E+01  0.12700000000E+01 0. -1.
          4   -1    0    0  501    0  0.00000000000E+00 -0.00000000000E+00 -0.13439823363E+04  0.13439829363E+04  0.12700000000E+01 0. -1.
         25    2    1    2    0    0  0.00000000000E+00  0.00000000000E+00 -0.13412151134E+04  0.13470276732E+04  0.12500228688E+03 0.  0.
    9000005    1    3    3    0    0  0.10821848001E+02  0.32635054917E+02 -0.12329502002E+04  0.12334299151E+04  0.10000000000E+01 0.  0.
    9000005    1    3    3    0    0 -0.10821848001E+02 -0.32635054917E+02 -0.10826491319E+03  0.11359775804E+03  0.10000000000E+01 0.  0.
<mgrwt>
<rscale>  0 0.12500229E+03</rscale>
<asrwt>0</asrwt>
<pdfrwt beam="2">  1        4 0.20678741E+00 0.12500229E+03</pdfrwt>
<pdfrwt beam="1">  1       -4 0.44712105E-03 0.12500229E+03</pdfrwt>
<totfact> 0.21144033E+03</totfact>
</mgrwt>
</event>
<event>
 5    1  0.3266101E-002  0.1249997E+03  0.7818608E-02  0.1235070E+00
          4   -1    0    0  501    0  0.00000000000E+00  0.00000000000E+00  0.94502299088E+02  0.94510832358E+02  0.12700000000E+01 0.  1.
         -4   -1    0    0    0  501 -0.00000000000E+00 -0.00000000000E+00 -0.41314612547E+02  0.41334127666E+02  0.12700000000E+01 0.  1.
         25    2    1    2    0    0  0.00000000000E+00  0.00000000000E+00  0.53187686541E+02  0.13584496002E+03  0.12499969266E+03 0.  0.
    9000005    1    3    3    0    0 -0.31363121422E+02  0.45971952215E+02  0.57488587795E+02  0.80018769689E+02  0.10000000000E+01 0.  0.
    9000005    1    3    3    0    0  0.31363121422E+02 -0.45971952215E+02 -0.43009012541E+01  0.55826190335E+02  0.10000000000E+01 0.  0.
<mgrwt>
<rscale>  0 0.12499969E+03</rscale>
<asrwt>0</asrwt>
<pdfrwt beam="1">  1        4 0.14540973E-01 0.12499969E+03</pdfrwt>
<pdfrwt beam="2">  1       -4 0.63582518E-02 0.12499969E+03</pdfrwt>
<totfact> 0.10220363E+04</totfact>
</mgrwt>
</event>
<event>
 5    1  0.3266101E-002  0.1250006E+03  0.7818608E-02  0.1235068E+00
          4   -1    0    0  501    0  0.00000000000E+00  0.00000000000E+00  0.96818415125E+01  0.97647813633E+01  0.12700000000E+01 0.  1.
         -4   -1    0    0    0  501 -0.00000000000E+00 -0.00000000000E+00 -0.40166064083E+03  0.40166264862E+03  0.12700000000E+01 0.  1.
         25    2    1    2    0    0  0.00000000000E+00  0.00000000000E+00 -0.39197879932E+03  0.41142742998E+03  0.12500060409E+03 0.  0.
    9000005    1    3    3    0    0 -0.34031125925E+02 -0.24889436011E+02 -0.34781147346E+03  0.35035899108E+03  0.10000000000E+01 0.  0.
    9000005    1    3    3    0    0  0.34031125925E+02  0.24889436011E+02 -0.44167325860E+02  0.61068438905E+02  0.10000000000E+01 0.  0.
<mgrwt>
<rscale>  0 0.12500060E+03</rscale>
<asrwt>0</asrwt>
<pdfrwt beam="1">  1        4 0.14960488E-02 0.12500060E+03</pdfrwt>
<pdfrwt beam="2">  1       -4 0.61800466E-01 0.12500060E+03</pdfrwt>
<totfact> 0.63455501E+03</totfact>
</mgrwt>
</event>
<event>
 5    1  0.3266101E-002  0.1250109E+03  0.7818608E-02  0.1235052E+00
          4   -1    0    0  501    0  0.00000000000E+00  0.00000000000E+00  0.50694097502E+03  0.50694256584E+03  0.12700000000E+01 0.  1.
         -4   -1    0    0    0  501 -0.00000000000E+00 -0.00000000000E+00 -0.76529477834E+01  0.77576097979E+01  0.12700000000E+01 0.  1.
         25    2    1    2    0    0  0.00000000000E+00  0.00000000000E+00  0.49928802724E+03  0.51470017564E+03  0.12501094614E+03 0.  0.
    9000005    1    3    3    0    0 -0.35579048268E+01 -0.31390825327E+02  0.27622336999E+02  0.41976613760E+02  0.10000000000E+01 0.  0.
    9000005    1    3    3    0    0  0.35579048268E+01  0.31390825327E+02  0.47166569024E+03  0.47272356187E+03  0.10000000000E+01 0.  0.
<mgrwt>
<rscale>  0 0.12501095E+03</rscale>
<asrwt>0</asrwt>
<pdfrwt beam="1">  1        4 0.77999115E-01 0.12501095E+03</pdfrwt>
<pdfrwt beam="2">  1       -4 0.11855495E-02 0.12501095E+03</pdfrwt>
<totfact> 0.54728404E+03</totfact>
</mgrwt>
</event>
<event>
 5    1  0.3266101E-002  0.1250394E+03  0.7818608E-02  0.1235008E+00
          4   -1    0    0  501    0  0.00000000000E+00  0.00000000000E+00  0.44154263645E+03  0.44154446289E+03  0.12700000000E+01 0. -1.
         -4   -1    0    0    0  501 -0.00000000000E+00 -0.00000000000E+00 -0.88049917523E+01  0.88961103725E+01  0.12700000000E+01 0. -1.
         25    2    1    2    0    0  0.00000000000E+00  0.00000000000E+00  0.43273764470E+03  0.45044057326E+03  0.12503935739E+03 0.  0.
    9000005    1    3    3    0    0 -0.56518968480E+02 -0.25822661758E+02  0.19180206107E+03  0.20161903256E+03  0.10000000000E+01 0.  0.
    9000005    1    3    3    0    0  0.56518968480E+02  0.25822661758E+02  0.24093558363E+03  0.24882154070E+03  0.10000000000E+01 0.  0.
<mgrwt>
<rscale>  0 0.12503936E+03</rscale>
<asrwt>0</asrwt>
<pdfrwt beam="1">  1        4 0.67936767E-01 0.12503936E+03</pdfrwt>
<pdfrwt beam="2">  1       -4 0.13617641E-02 0.12503936E+03</pdfrwt>
<totfact> 0.59873734E+03</totfact>
</mgrwt>
</event>
<event>
 5    1  0.3266101E-002  0.1249994E+03  0.7818608E-02  0.1235070E+00
          4   -1    0    0  501    0  0.00000000000E+00  0.00000000000E+00  0.74884674192E+02  0.74895442644E+02  0.12700000000E+01 0.  1.
         -4   -1    0    0    0  501 -0.00000000000E+00 -0.00000000000E+00 -0.52140778059E+02  0.52156242547E+02  0.12700000000E+01 0.  1.
         25    2    1    2    0    0  0.00000000000E+00  0.00000000000E+00  0.22743896133E+02  0.12705168519E+03  0.12499938359E+03 0.  0.
    9000005    1    3    3    0    0 -0.46911702684E+02 -0.14670549146E+02 -0.27852833606E+02  0.56504098973E+02  0.10000000000E+01 0.  0.
    9000005    1    3    3    0    0  0.46911702684E+02  0.14670549146E+02  0.50596729739E+02  0.70547586218E+02  0.10000000000E+01 0.  0.
<mgrwt>
<rscale>  0 0.12499938E+03</rscale>
<asrwt>0</asrwt>
<pdfrwt beam="1">  1        4 0.11522737E-01 0.12499938E+03</pdfrwt>
<pdfrwt beam="2">  1       -4 0.80236762E-02 0.12499938E+03</pdfrwt>
<totfact> 0.10408168E+04</totfact>
</mgrwt>
</event>
<event>
 5    1  0.3266101E-002  0.1249837E+03  0.7818608E-02  0.1235095E+00
          4   -1    0    0  501    0  0.00000000000E+00  0.00000000000E+00  0.11972030338E+02  0.12039203064E+02  0.12700000000E+01 0.  1.
         -4   -1    0    0    0  501 -0.00000000000E+00 -0.00000000000E+00 -0.32521546950E+03  0.32521794923E+03  0.12700000000E+01 0.  1.
         25    2    1    2    0    0  0.00000000000E+00  0.00000000000E+00 -0.31324343916E+03  0.33725715229E+03  0.12498373733E+03 0.  0.
    9000005    1    3    3    0    0  0.47700816976E+01  0.62282234498E+02 -0.16080489268E+03  0.17251389487E+03  0.10000000000E+01 0.  0.
    9000005    1    3    3    0    0 -0.47700816976E+01 -0.62282234498E+02 -0.15243854648E+03  0.16474325743E+03  0.10000000000E+01 0.  0.
<mgrwt>
<rscale>  0 0.12498374E+03</rscale>
<asrwt>0</asrwt>
<pdfrwt beam="1">  1        4 0.18472089E-02 0.12498374E+03</pdfrwt>
<pdfrwt beam="2">  1       -4 0.50038500E-01 0.12498374E+03</pdfrwt>
<totfact> 0.71175189E+03</totfact>
</mgrwt>
</event>
<event>
 5    1  0.3266101E-002  0.1250010E+03  0.7818608E-02  0.1235068E+00
         -4   -1    0    0    0  501 -0.00000000000E+00  0.00000000000E+00  0.27869295682E+01  0.30626583907E+01  0.12700000000E+01 0. -1.
          4   -1    0    0  501    0  0.00000000000E+00 -0.00000000000E+00 -0.13353089875E+04  0.13353095914E+04  0.12700000000E+01 0. -1.
         25    2    1    2    0    0  0.00000000000E+00  0.00000000000E+00 -0.13325220579E+04  0.13383722498E+04  0.12500097699E+03 0.  0.
    9000005    1    3    3    0    0  0.33452156873E+02 -0.30483334631E+02 -0.20486586027E+03  0.20980777200E+03  0.10000000000E+01 0.  0.
    9000005    1    3    3    0    0 -0.33452156873E+02  0.30483334631E+02 -0.11276561976E+04  0.11285644778E+04  0.10000000000E+01 0.  0.
<mgrwt>
<rscale>  0 0.12500098E+03</rscale>
<asrwt>0</asrwt>
<pdfrwt beam="2">  1        4 0.20545292E+00 0.12500098E+03</pdfrwt>
<pdfrwt beam="1">  1       -4 0.45001583E-03 0.12500098E+03</pdfrwt>
<totfact> 0.21340185E+03</totfact>
</mgrwt>
</event>
<event>
 5    1  0.3266101E-002  0.1249980E+03  0.7818608E-02  0.1235072E+00
          4   -1    0    0  501    0  0.00000000000E+00  0.00000000000E+00  0.27757598885E+02  0.27786637002E+02  0.12700000000E+01 0. -1.
         -4   -1    0    0    0  501 -0.00000000000E+00 -0.00000000000E+00 -0.14061729565E+03  0.14062303061E+03  0.12700000000E+01 0. -1.
         25    2    1    2    0    0  0.00000000000E+00  0.00000000000E+00 -0.11285969677E+03  0.16840966761E+03  0.12499801994E+03 0.  0.
    9000005    1    3    3    0    0 -0.12104015322E+02  0.51750300405E+02 -0.12142325570E+02  0.54525561429E+02  0.10000000000E+01 0.  0.
    9000005    1    3    3    0    0  0.12104015322E+02 -0.51750300405E+02 -0.10071737120E+03  0.11388410618E+03  0.10000000000E+01 0.  0.
<mgrwt>
<rscale>  0 0.12499802E+03</rscale>
<asrwt>0</asrwt>
<pdfrwt beam="1">  1        4 0.42730748E-02 0.12499802E+03</pdfrwt>
<pdfrwt beam="2">  1       -4 0.21636105E-01 0.12499802E+03</pdfrwt>
<totfact> 0.95749781E+03</totfact>
</mgrwt>
</event>
<event>
 5    1  0.3266101E-002  0.1249982E+03  0.7818608E-02  0.1235072E+00
         -4   -1    0    0    0  501 -0.00000000000E+00  0.00000000000E+00  0.41882506953E+03  0.41882699503E+03  0.12700000000E+01 0. -1.
          4   -1    0    0  501    0  0.00000000000E+00 -0.00000000000E+00 -0.92812338413E+01  0.93677212606E+01  0.12700000000E+01 0. -1.
         25    2    1    2    0    0  0.00000000000E+00  0.00000000000E+00  0.40954383569E+03  0.42819471629E+03  0.12499824683E+03 0.  0.
    9000005    1    3    3    0    0  0.52861197368E+02 -0.28837208527E+02  0.26201640866E+03  0.26884845023E+03  0.10000000000E+01 0.  0.
    9000005    1    3    3    0    0 -0.52861197368E+02  0.28837208527E+02  0.14752742703E+03  0.15934626606E+03  0.10000000000E+01 0.  0.
<mgrwt>
<rscale>  0 0.12499825E+03</rscale>
<asrwt>0</asrwt>
<pdfrwt beam="2">  1        4 0.14346836E-02 0.12499825E+03</pdfrwt>
<pdfrwt beam="1">  1       -4 0.64441405E-01 0.12499825E+03</pdfrwt>
<totfact> 0.61902375E+03</totfact>
</mgrwt>
</event>
<event>
 4    1  0.3266101E-002  0.1249314E+03  0.7818608E-02  0.1235177E+00
          4   -1    0    0  501    0  0.00000000000E+00  0.00000000000E+00  0.27420755721E+03  0.27421049822E+03  0.12700000000E+01 0.  1.
         -4   -1    0    0    0  501 -0.00000000000E+00 -0.00000000000E+00 -0.14198593893E+02  0.14255278620E+02  0.12700000000E+01 0.  1.
    9000005    1    1    2    0    0 -0.18773054412E+02 -0.44719656677E+02  0.39137840480E+02  0.62330135751E+02  0.10000000000E+01 0.  0.
    9000005    1    1    2    0    0  0.18773054412E+02  0.44719656677E+02  0.22087112284E+03  0.22613564109E+03  0.10000000000E+01 0.  0.
<mgrwt>
<rscale>  0 0.12493135E+03</rscale>
<asrwt>0</asrwt>
<pdfrwt beam="1">  1        4 0.42190365E-01 0.12493135E+03</pdfrwt>
<pdfrwt beam="2">  1       -4 0.21889856E-02 0.12493135E+03</pdfrwt>
<totfact> 0.77186477E+03</totfact>
</mgrwt>
</event>
<event>
 5    1  0.3266101E-002  0.1250035E+03  0.7818608E-02  0.1235064E+00
          4   -1    0    0  501    0  0.00000000000E+00  0.00000000000E+00  0.37896688909E+03  0.37896901711E+03  0.12700000000E+01 0. -1.
         -4   -1    0    0    0  501 -0.00000000000E+00 -0.00000000000E+00 -0.10266918386E+02  0.10345168590E+02  0.12700000000E+01 0. -1.
         25    2    1    2    0    0  0.00000000000E+00  0.00000000000E+00  0.36869997071E+03  0.38931418570E+03  0.12500346710E+03 0.  0.
    9000005    1    3    3    0    0  0.17749704765E+02 -0.51662264173E+02  0.27888837452E+03  0.28418966730E+03  0.10000000000E+01 0.  0.
    9000005    1    3    3    0    0 -0.17749704765E+02  0.51662264173E+02  0.89811596191E+02  0.10512451840E+03  0.10000000000E+01 0.  0.
<mgrwt>
<rscale>  0 0.12500347E+03</rscale>
<asrwt>0</asrwt>
<pdfrwt beam="1">  1        4 0.58308786E-01 0.12500347E+03</pdfrwt>
<pdfrwt beam="2">  1       -4 0.15857087E-02 0.12500347E+03</pdfrwt>
<totfact> 0.65600490E+03</totfact>
</mgrwt>
</event>
<event>
 5    1  0.3266101E-002  0.1249996E+03  0.7818608E-02  0.1235070E+00
         -4   -1    0    0    0  501 -0.00000000000E+00  0.00000000000E+00  0.34118599074E+03  0.34118835440E+03  0.12700000000E+01 0.  1.
          4   -1    0    0  501    0  0.00000000000E+00 -0.00000000000E+00 -0.11411331180E+02  0.11481784674E+02  0.12700000000E+01 0.  1.
         25    2    1    2    0    0  0.00000000000E+00  0.00000000000E+00  0.32977465956E+03  0.35267013907E+03  0.12499960362E+03 0.  0.
    9000005    1    3    3    0    0  0.23771584023E+02  0.51639915004E+02  0.23810480186E+03  0.24479923549E+03  0.10000000000E+01 0.  0.
    9000005    1    3    3    0    0 -0.23771584023E+02 -0.51639915004E+02  0.91669857701E+02  0.10787090358E+03  0.10000000000E+01 0.  0.
<mgrwt>
<rscale>  0 0.12499960E+03</rscale>
<asrwt>0</asrwt>
<pdfrwt beam="2">  1        4 0.17611910E-02 0.12499960E+03</pdfrwt>
<pdfrwt beam="1">  1       -4 0.52495745E-01 0.12499960E+03</pdfrwt>
<totfact> 0.69432416E+03</totfact>
</mgrwt>
</event>
<event>
 5    1  0.3266101E-002  0.1249989E+03  0.7818608E-02  0.1235071E+00
          4   -1    0    0  501    0  0.00000000000E+00  0.00000000000E+00  0.46670307170E+03  0.46670479967E+03  0.12700000000E+01 0. -1.
         -4   -1    0    0    0  501 -0.00000000000E+00 -0.00000000000E+00 -0.83198102002E+01  0.84161833255E+01  0.12700000000E+01 0. -1.
         25    2    1    2    0    0  0.00000000000E+00  0.00000000000E+00  0.45838326150E+03  0.47512098299E+03  0.12499893623E+03 0.  0.
    9000005    1    3    3    0    0  0.26203495831E+02  0.41314603202E+02  0.37697498250E+03  0.38013768172E+03  0.10000000000E+01 0.  0.
    9000005    1    3    3    0    0 -0.26203495831E+02 -0.41314603202E+02  0.81408278998E+02  0.94983301274E+02  0.10000000000E+01 0.  0.
<mgrwt>
<rscale>  0 0.12499894E+03</rscale>
<asrwt>0</asrwt>
<pdfrwt beam="1">  1        4 0.71808039E-01 0.12499894E+03</pdfrwt>
<pdfrwt beam="2">  1       -4 0.12875167E-02 0.12499894E+03</pdfrwt>
<totfact> 0.57849040E+03</totfact>
</mgrwt>
</event>
<event>
 5    1  0.3266101E-002  0.1250214E+03  0.7818608E-02  0.1235036E+00
          4   -1    0    0  501    0  0.00000000000E+00  0.00000000000E+00  0.10340789637E+02  0.10418485030E+02  0.12700000000E+01 0. -1.
         -4   -1    0    0    0  501 -0.00000000000E+00 -0.00000000000E+00 -0.37638794234E+03  0.37639008493E+03  0.12700000000E+01 0. -1.
         25    2    1    2    0    0  0.00000000000E+00  0.00000000000E+00 -0.36604715270E+03  0.38680856996E+03  0.12502140536E+03 0.  0.
    9000005    1    3    3    0    0  0.60090857691E+02 -0.16174668929E+02 -0.20107926223E+03  0.21049085679E+03  0.10000000000E+01 0.  0.
    9000005    1    3    3    0    0 -0.60090857691E+02  0.16174668929E+02 -0.16496789047E+03  0.17631771318E+03  0.10000000000E+01 0.  0.
<mgrwt>
<rscale>  0 0.12502141E+03</rscale>
<asrwt>0</asrwt>
<pdfrwt beam="1">  1        4 0.15970324E-02 0.12502141E+03</pdfrwt>
<pdfrwt beam="2">  1       -4 0.57911968E-01 0.12502141E+03</pdfrwt>
<totfact> 0.65825191E+03</totfact>
</mgrwt>
</event>
<event>
 5    1  0.3266101E-002  0.1250006E+03  0.7818608E-02  0.1235068E+00
          4   -1    0    0  501    0  0.00000000000E+00  0.00000000000E+00  0.25553918706E+02  0.25585458003E+02  0.12700000000E+01 0. -1.
         -4   -1    0    0    0  501 -0.00000000000E+00 -0.00000000000E+00 -0.15273617148E+03  0.15274145141E+03  0.12700000000E+01 0. -1.
         25    2    1    2    0    0  0.00000000000E+00  0.00000000000E+00 -0.12718225277E+03  0.17832690941E+03  0.12500064480E+03 0.  0.
    9000005    1    3    3    0    0  0.60178391475E+02 -0.61138124372E+01 -0.85988089062E+02  0.10513690581E+03  0.10000000000E+01 0.  0.
    9000005    1    3    3    0    0 -0.60178391475E+02  0.61138124372E+01 -0.41194163711E+02  0.73190003599E+02  0.10000000000E+01 0.  0.
<mgrwt>
<rscale>  0 0.12500064E+03</rscale>
<asrwt>0</asrwt>
<pdfrwt beam="1">  1        4 0.39342044E-02 0.12500064E+03</pdfrwt>
<pdfrwt beam="2">  1       -4 0.23500704E-01 0.12500064E+03</pdfrwt>
<totfact> 0.93917677E+03</totfact>
</mgrwt>
</event>
<event>
 5    1  0.3266101E-002  0.1250059E+03  0.7818608E-02  0.1235060E+00
         -4   -1    0    0    0  501 -0.00000000000E+00  0.00000000000E+00  0.17716935735E+03  0.17717390915E+03  0.12700000000E+01 0.  1.
          4   -1    0    0  501    0  0.00000000000E+00 -0.00000000000E+00 -0.22027064081E+02  0.22063645483E+02  0.12700000000E+01 0.  1.
         25    2    1    2    0    0  0.00000000000E+00  0.00000000000E+00  0.15514229327E+03  0.19923755463E+03  0.12500588792E+03 0.  0.
    9000005    1    3    3    0    0  0.33283841905E+02 -0.40271081047E+02  0.13222899115E+03  0.14217974610E+03  0.10000000000E+01 0.  0.
    9000005    1    3    3    0    0 -0.33283841905E+02  0.40271081047E+02  0.22913302119E+02  0.57057808534E+02  0.10000000000E+01 0.  0.
<mgrwt>
<rscale>  0 0.12500589E+03</rscale>
<asrwt>0</asrwt>
<pdfrwt beam="2">  1        4 0.33919431E-02 0.12500589E+03</pdfrwt>
<pdfrwt beam="1">  1       -4 0.27259989E-01 0.12500589E+03</pdfrwt>
<totfact> 0.90252365E+03</totfact>
</mgrwt>
</event>
<event>
 5    1  0.3266101E-002  0.1249990E+03  0.7818608E-02  0.1235071E+00
          4   -1    0    0  501    0  0.00000000000E+00  0.00000000000E+00  0.27724269846E+03  0.27724560727E+03  0.12700000000E+01 0.  1.
         -4   -1    0    0    0  501 -0.00000000000E+00 -0.00000000000E+00 -0.14057817536E+02  0.14115067618E+02  0.12700000000E+01 0.  1.
         25    2    1    2    0    0  0.00000000000E+00  0.00000000000E+00  0.26318488092E+03  0.29136067488E+03  0.12499904529E+03 0.  0.
    9000005    1    3    3    0    0 -0.57560044396E+02 -0.24331501811E+02  0.13182129032E+03  0.14588705657E+03  0.10000000000E+01 0.  0.
    9000005    1    3    3    0    0  0.57560044396E+02  0.24331501811E+02  0.13136359060E+03  0.14547361832E+03  0.10000000000E+01 0.  0.
<mgrwt>
<rscale>  0 0.12499905E+03</rscale>
<asrwt>0</asrwt>
<pdfrwt beam="1">  1        4 0.42657349E-01 0.12499905E+03</pdfrwt>
<pdfrwt beam="2">  1       -4 0.21673688E-02 0.12499905E+03</pdfrwt>
<totfact> 0.76697104E+03</totfact>
</mgrwt>
</event>
<event>
 5    1  0.3266101E-002  0.1250010E+03  0.7818608E-02  0.1235068E+00
          4   -1    0    0  501    0  0.00000000000E+00  0.00000000000E+00  0.44378804685E+02  0.44396972929E+02  0.12700000000E+01 0.  1.
         -4   -1    0    0    0  501 -0.00000000000E+00 -0.00000000000E+00 -0.87981298953E+02  0.87990464628E+02  0.12700000000E+01 0.  1.
         25    2    1    2    0    0  0.00000000000E+00  0.00000000000E+00 -0.43602494268E+02  0.13238743756E+03  0.12500102446E+03 0.  0.
    9000005    1    3    3    0    0 -0.57804335835E+01  0.57151360997E+02  0.42623421704E+01  0.57609539462E+02  0.10000000000E+01 0.  0.
    9000005    1    3    3    0    0  0.57804335835E+01 -0.57151360997E+02 -0.47864836438E+02  0.74777898095E+02  0.10000000000E+01 0.  0.
<mgrwt>
<rscale>  0 0.12500102E+03</rscale>
<asrwt>0</asrwt>
<pdfrwt beam="1">  1        4 0.68296110E-02 0.12500102E+03</pdfrwt>
<pdfrwt beam="2">  1       -4 0.13537687E-01 0.12500102E+03</pdfrwt>
<totfact> 0.10293198E+04</totfact>
</mgrwt>
</event>
<event>
 5    1  0.3266101E-002  0.1250002E+03  0.7818608E-02  0.1235069E+00
         -4   -1    0    0    0  501 -0.00000000000E+00  0.00000000000E+00  0.72400460591E+02  0.72411598475E+02  0.12700000000E+01 0. -1.
          4   -1    0    0  501    0  0.00000000000E+00 -0.00000000000E+00 -0.53930820666E+02  0.53945772009E+02  0.12700000000E+01 0. -1.
         25    2    1    2    0    0  0.00000000000E+00  0.00000000000E+00  0.18469639925E+02  0.12635737048E+03  0.12500022991E+03 0.  0.
    9000005    1    3    3    0    0  0.50088424577E+02  0.59726194113E+01 -0.28053914857E+02  0.57728195866E+02  0.10000000000E+01 0.  0.
    9000005    1    3    3    0    0 -0.50088424577E+02 -0.59726194113E+01  0.46523554782E+02  0.68629174618E+02  0.10000000000E+01 0.  0.
<mgrwt>
<rscale>  0 0.12500023E+03</rscale>
<asrwt>0</asrwt>
<pdfrwt beam="2">  1        4 0.82990562E-02 0.12500023E+03</pdfrwt>
<pdfrwt beam="1">  1       -4 0.11140539E-01 0.12500023E+03</pdfrwt>
<totfact> 0.10423086E+04</totfact>
</mgrwt>
</event>
<event>
 5    1  0.3266101E-002  0.1249990E+03  0.7818608E-02  0.1235071E+00
         -4   -1    0    0    0  501 -0.00000000000E+00  0.00000000000E+00  0.16587366617E+03  0.16587852793E+03  0.12700000000E+01 0.  1.
          4   -1    0    0  501    0  0.00000000000E+00 -0.00000000000E+00 -0.23526823451E+02  0.23561076412E+02  0.12700000000E+01 0.  1.
         25    2    1    2    0    0  0.00000000000E+00  0.00000000000E+00  0.14234684272E+03  0.18943960435E+03  0.12499896024E+03 0.  0.
    9000005    1    3    3    0    0  0.10615429797E+02 -0.42904706406E+02  0.13812627775E+03  0.14502885846E+03  0.10000000000E+01 0.  0.
    9000005    1    3    3    0    0 -0.10615429797E+02  0.42904706406E+02  0.42205649744E+01  0.44410745887E+02  0.10000000000E+01 0.  0.
<mgrwt>
<rscale>  0 0.12499896E+03</rscale>
<asrwt>0</asrwt>
<pdfrwt beam="2">  1        4 0.36225203E-02 0.12499896E+03</pdfrwt>
<pdfrwt beam="1">  1       -4 0.25522033E-01 0.12499896E+03</pdfrwt>
<totfact> 0.91947055E+03</totfact>
</mgrwt>
</event>
<event>
 5    1  0.3266101E-002  0.1250005E+03  0.7818608E-02  0.1235069E+00
         -4   -1    0    0    0  501 -0.00000000000E+00  0.00000000000E+00  0.23359868779E+02  0.23394366189E+02  0.12700000000E+01 0.  1.
          4   -1    0    0  501    0  0.00000000000E+00 -0.00000000000E+00 -0.16706153770E+03  0.16706636490E+03  0.12700000000E+01 0.  1.
         25    2    1    2    0    0  0.00000000000E+00  0.00000000000E+00 -0.14370166892E+03  0.19046073109E+03  0.12500048173E+03 0.  0.
    9000005    1    3    3    0    0  0.26567413984E+02  0.43716546152E+02 -0.12654046593E+03  0.13649341893E+03  0.10000000000E+01 0.  0.
    9000005    1    3    3    0    0 -0.26567413984E+02 -0.43716546152E+02 -0.17161202996E+02  0.53967312157E+02  0.10000000000E+01 0.  0.
<mgrwt>
<rscale>  0 0.12500048E+03</rscale>
<asrwt>0</asrwt>
<pdfrwt beam="2">  1        4 0.25704799E-01 0.12500048E+03</pdfrwt>
<pdfrwt beam="1">  1       -4 0.35968510E-02 0.12500048E+03</pdfrwt>
<totfact> 0.91766221E+03</totfact>
</mgrwt>
</event>
<event>
 5    1  0.3266101E-002  0.1249999E+03  0.7818608E-02  0.1235069E+00
         -4   -1    0    0    0  501 -0.00000000000E+00  0.00000000000E+00  0.11800403965E+02  0.11868548089E+02  0.12700000000E+01 0.  1.
          4   -1    0    0  501    0  0.00000000000E+00 -0.00000000000E+00 -0.33000407288E+03  0.33000651663E+03  0.12700000000E+01 0.  1.
         25    2    1    2    0    0  0.00000000000E+00  0.00000000000E+00 -0.31820366892E+03  0.34187506472E+03  0.12499993986E+03 0.  0.
    9000005    1    3    3    0    0  0.51448889263E+02 -0.82785849591E+01 -0.25343850895E+03  0.25874234480E+03  0.10000000000E+01 0.  0.
    9000005    1    3    3    0    0 -0.51448889263E+02  0.82785849591E+01 -0.64765159968E+02  0.83132719918E+02  0.10000000000E+01 0.  0.
<mgrwt>
<rscale>  0 0.12499994E+03</rscale>
<asrwt>0</asrwt>
<pdfrwt beam="2">  1        4 0.50775280E-01 0.12499994E+03</pdfrwt>
<pdfrwt beam="1">  1       -4 0.18208768E-02 0.12499994E+03</pdfrwt>
<totfact> 0.70627842E+03</totfact>
</mgrwt>
</event>
<event>
 5    1  0.3266101E-002  0.1249999E+03  0.7818608E-02  0.1235069E+00
          4   -1    0    0  501    0  0.00000000000E+00  0.00000000000E+00  0.23463166058E+02  0.23497511814E+02  0.12700000000E+01 0. -1.
         -4   -1    0    0    0  501 -0.00000000000E+00 -0.00000000000E+00 -0.16632561372E+03  0.16633046227E+03  0.12700000000E+01 0. -1.
         25    2    1    2    0    0  0.00000000000E+00  0.00000000000E+00 -0.14286244766E+03  0.18982797408E+03  0.12499992317E+03 0.  0.
    9000005    1    3    3    0    0  0.59153500316E+02 -0.20151299591E+02 -0.71152344518E+02  0.94704105535E+02  0.10000000000E+01 0.  0.
    9000005    1    3    3    0    0 -0.59153500316E+02  0.20151299591E+02 -0.71710103139E+02  0.95123868546E+02  0.10000000000E+01 0.  0.
<mgrwt>
<rscale>  0 0.12499992E+03</rscale>
<asrwt>0</asrwt>
<pdfrwt beam="1">  1        4 0.36127329E-02 0.12499992E+03</pdfrwt>
<pdfrwt beam="2">  1       -4 0.25591570E-01 0.12499992E+03</pdfrwt>
<totfact> 0.91877413E+03</totfact>
</mgrwt>
</event>
<event>
 5    1  0.3266101E-002  0.1250173E+03  0.7818608E-02  0.1235042E+00
          4   -1    0    0  501    0  0.00000000000E+00  0.00000000000E+00  0.11494006207E+03  0.11494707812E+03  0.12700000000E+01 0.  1.
         -4   -1    0    0    0  501 -0.00000000000E+00 -0.00000000000E+00 -0.33974596758E+02  0.33998325324E+02  0.12700000000E+01 0.  1.
         25    2    1    2    0    0  0.00000000000E+00  0.00000000000E+00  0.80965465314E+02  0.14894540345E+03  0.12501730534E+03 0.  0.
    9000005    1    3    3    0    0 -0.21309561825E+02  0.28978687044E+02  0.10137787102E+03  0.10757478543E+03  0.10000000000E+01 0.  0.
    9000005    1    3    3    0    0  0.21309561825E+02 -0.28978687044E+02 -0.20412405709E+02  0.41370618013E+02  0.10000000000E+01 0.  0.
<mgrwt>
<rscale>  0 0.12501731E+03</rscale>
<asrwt>0</asrwt>
<pdfrwt beam="1">  1        4 0.17685451E-01 0.12501731E+03</pdfrwt>
<pdfrwt beam="2">  1       -4 0.52292260E-02 0.12501731E+03</pdfrwt>
<totfact> 0.99475580E+03</totfact>
</mgrwt>
</event>
<event>
 5    1  0.3266101E-002  0.1249997E+03  0.7818608E-02  0.1235070E+00
          4   -1    0    0  501    0  0.00000000000E+00  0.00000000000E+00  0.85911881750E+02  0.85921268181E+02  0.12700000000E+01 0. -1.
         -4   -1    0    0    0  501 -0.00000000000E+00 -0.00000000000E+00 -0.45447136130E+02  0.45464877460E+02  0.12700000000E+01 0. -1.
         25    2    1    2    0    0  0.00000000000E+00  0.00000000000E+00  0.40464745619E+02  0.13138614564E+03  0.12499969451E+03 0.  0.
    9000005    1    3    3    0    0  0.19927028046E+02 -0.44849045241E+02 -0.20431534132E+02  0.53169266431E+02  0.10000000000E+01 0.  0.
    9000005    1    3    3    0    0 -0.19927028046E+02  0.44849045241E+02  0.60896279752E+02  0.78216879210E+02  0.10000000000E+01 0.  0.
<mgrwt>
<rscale>  0 0.12499969E+03</rscale>
<asrwt>0</asrwt>
<pdfrwt beam="1">  1        4 0.13219299E-01 0.12499969E+03</pdfrwt>
<pdfrwt beam="2">  1       -4 0.69939540E-02 0.12499969E+03</pdfrwt>
<totfact> 0.10314889E+04</totfact>
</mgrwt>
</event>
<event>
 5    1  0.3266101E-002  0.1249991E+03  0.7818608E-02  0.1235071E+00
          4   -1    0    0  501    0  0.00000000000E+00  0.00000000000E+00  0.23178677845E+03  0.23179025770E+03  0.12700000000E+01 0.  1.
         -4   -1    0    0    0  501 -0.00000000000E+00 -0.00000000000E+00 -0.16824999729E+02  0.16872863298E+02  0.12700000000E+01 0.  1.
         25    2    1    2    0    0  0.00000000000E+00  0.00000000000E+00  0.21496177872E+03  0.24866312100E+03  0.12499912573E+03 0.  0.
    9000005    1    3    3    0    0  0.30491205229E+02  0.52794360169E+02  0.80187514316E+02  0.10073725981E+03  0.10000000000E+01 0.  0.
    9000005    1    3    3    0    0 -0.30491205229E+02 -0.52794360169E+02  0.13477426441E+03  0.14792586119E+03  0.10000000000E+01 0.  0.
<mgrwt>
<rscale>  0 0.12499913E+03</rscale>
<asrwt>0</asrwt>
<pdfrwt beam="1">  1        4 0.35663456E-01 0.12499913E+03</pdfrwt>
<pdfrwt beam="2">  1       -4 0.25924108E-02 0.12499913E+03</pdfrwt>
<totfact> 0.82525437E+03</totfact>
</mgrwt>
</event>
<event>
 5    1  0.3266101E-002  0.1249899E+03  0.7818608E-02  0.1235085E+00
         -4   -1    0    0    0  501 -0.00000000000E+00  0.00000000000E+00  0.11222417070E+03  0.11223135653E+03  0.12700000000E+01 0.  1.
          4   -1    0    0  501    0  0.00000000000E+00 -0.00000000000E+00 -0.34782053769E+02  0.34805231854E+02  0.12700000000E+01 0.  1.
         25    2    1    2    0    0  0.00000000000E+00  0.00000000000E+00  0.77442116928E+02  0.14703658838E+03  0.12498990699E+03 0.  0.
    9000005    1    3    3    0    0  0.15009594073E+02  0.10413546748E+02  0.10901836231E+03  0.11054290204E+03  0.10000000000E+01 0.  0.
    9000005    1    3    3    0    0 -0.15009594073E+02 -0.10413546748E+02 -0.31576245387E+02  0.36493686342E+02  0.10000000000E+01 0.  0.
<mgrwt>
<rscale>  0 0.12498991E+03</rscale>
<asrwt>0</asrwt>
<pdfrwt beam="2">  1        4 0.53534208E-02 0.12498991E+03</pdfrwt>
<pdfrwt beam="1">  1       -4 0.17267593E-01 0.12498991E+03</pdfrwt>
<totfact> 0.99920426E+03</totfact>
</mgrwt>
</event>
<event>
 5    1  0.3266101E-002  0.1250000E+03  0.7818608E-02  0.1235069E+00
         -4   -1    0    0    0  501 -0.00000000000E+00  0.00000000000E+00  0.21823966439E+02  0.21860887702E+02  0.12700000000E+01 0.  1.
          4   -1    0    0  501    0  0.00000000000E+00 -0.00000000000E+00 -0.17879864760E+03  0.17880315792E+03  0.12700000000E+01 0.  1.
         25    2    1    2    0    0  0.00000000000E+00  0.00000000000E+00 -0.15697468116E+03  0.20066404562E+03  0.12500003472E+03 0.  0.
    9000005    1    3    3    0    0 -0.25257635022E+02 -0.55453326437E+02 -0.56230014693E+02  0.82920649371E+02  0.10000000000E+01 0.  0.
    9000005    1    3    3    0    0  0.25257635022E+02  0.55453326437E+02 -0.10074466646E+03  0.11774339625E+03  0.10000000000E+01 0.  0.
<mgrwt>
<rscale>  0 0.12500003E+03</rscale>
<asrwt>0</asrwt>
<pdfrwt beam="2">  1        4 0.27510670E-01 0.12500003E+03</pdfrwt>
<pdfrwt beam="1">  1       -4 0.33607205E-02 0.12500003E+03</pdfrwt>
<totfact> 0.90023561E+03</totfact>
</mgrwt>
</event>
<event>
 5    1  0.3266101E-002  0.1249978E+03  0.7818608E-02  0.1235073E+00
          4   -1    0    0  501    0  0.00000000000E+00  0.00000000000E+00  0.15265864768E+03  0.15266393029E+03  0.12700000000E+01 0.  1.
         -4   -1    0    0    0  501 -0.00000000000E+00 -0.00000000000E+00 -0.25565734768E+02  0.25597259507E+02  0.12700000000E+01 0.  1.
         25    2    1    2    0    0  0.00000000000E+00  0.00000000000E+00  0.12709291291E+03  0.17826118979E+03  0.12499777308E+03 0.  0.
    9000005    1    3    3    0    0 -0.14701025087E+02 -0.32050139788E+02 -0.10030283332E+02  0.36673398843E+02  0.10000000000E+01 0.  0.
    9000005    1    3    3    0    0  0.14701025087E+02  0.32050139788E+02  0.13712319624E+03  0.14158779095E+03  0.10000000000E+01 0.  0.
<mgrwt>
<rscale>  0 0.12499777E+03</rscale>
<asrwt>0</asrwt>
<pdfrwt beam="1">  1        4 0.23488777E-01 0.12499777E+03</pdfrwt>
<pdfrwt beam="2">  1       -4 0.39360213E-02 0.12499777E+03</pdfrwt>
<totfact> 0.93935625E+03</totfact>
</mgrwt>
</event>
<event>
 5    1  0.3266101E-002  0.1249985E+03  0.7818608E-02  0.1235072E+00
          4   -1    0    0  501    0  0.00000000000E+00  0.00000000000E+00  0.93648550770E+02  0.93657161826E+02  0.12700000000E+01 0.  1.
         -4   -1    0    0    0  501 -0.00000000000E+00 -0.00000000000E+00 -0.41690619001E+02  0.41709958196E+02  0.12700000000E+01 0.  1.
         25    2    1    2    0    0  0.00000000000E+00  0.00000000000E+00  0.51957931768E+02  0.13536712002E+03  0.12499852203E+03 0.  0.
    9000005    1    3    3    0    0 -0.56141194355E+02 -0.21086458623E+02  0.45005785707E+02  0.74986620060E+02  0.10000000000E+01 0.  0.
    9000005    1    3    3    0    0  0.56141194355E+02  0.21086458623E+02  0.69521460612E+01  0.60380499962E+02  0.10000000000E+01 0.  0.
<mgrwt>
<rscale>  0 0.12499852E+03</rscale>
<asrwt>0</asrwt>
<pdfrwt beam="1">  1        4 0.14409619E-01 0.12499852E+03</pdfrwt>
<pdfrwt beam="2">  1       -4 0.64160915E-02 0.12499852E+03</pdfrwt>
<totfact> 0.10230680E+04</totfact>
</mgrwt>
</event>
<event>
 5    1  0.3266101E-002  0.1249989E+03  0.7818608E-02  0.1235071E+00
         -4   -1    0    0    0  501 -0.00000000000E+00  0.00000000000E+00  0.23462962110E+01  0.26679591282E+01  0.12700000000E+01 0.  1.
          4   -1    0    0  501    0  0.00000000000E+00 -0.00000000000E+00 -0.15577089889E+04  0.15577095066E+04  0.12700000000E+01 0.  1.
         25    2    1    2    0    0  0.00000000000E+00  0.00000000000E+00 -0.15553626926E+04  0.15603774657E+04  0.12499891916E+03 0.  0.
    9000005    1    3    3    0    0 -0.18805355448E+02  0.51083364532E+02 -0.39454267270E+03  0.39828139815E+03  0.10000000000E+01 0.  0.
    9000005    1    3    3    0    0  0.18805355448E+02 -0.51083364532E+02 -0.11608200199E+04  0.11620960676E+04  0.10000000000E+01 0.  0.
<mgrwt>
<rscale>  0 0.12499892E+03</rscale>
<asrwt>0</asrwt>
<pdfrwt beam="2">  1        4 0.23967155E+00 0.12499892E+03</pdfrwt>
<pdfrwt beam="1">  1       -4 0.38575302E-03 0.12499892E+03</pdfrwt>
<totfact> 0.16774130E+03</totfact>
</mgrwt>
</event>
<event>
 5    1  0.3266101E-002  0.1250004E+03  0.7818608E-02  0.1235069E+00
         -4   -1    0    0    0  501 -0.00000000000E+00  0.00000000000E+00  0.29252658980E+02  0.29280214436E+02  0.12700000000E+01 0.  1.
          4   -1    0    0  501    0  0.00000000000E+00 -0.00000000000E+00 -0.13344235212E+03  0.13344839542E+03  0.12700000000E+01 0.  1.
         25    2    1    2    0    0  0.00000000000E+00  0.00000000000E+00 -0.10418969314E+03  0.16272860985E+03  0.12500043323E+03 0.  0.
    9000005    1    3    3    0    0  0.29895197873E+02 -0.52520815198E+01 -0.12320794678E+03  0.12689564755E+03  0.10000000000E+01 0.  0.
    9000005    1    3    3    0    0 -0.29895197873E+02  0.52520815198E+01  0.19018253641E+02  0.35832962307E+02  0.10000000000E+01 0.  0.
<mgrwt>
<rscale>  0 0.12500043E+03</rscale>
<asrwt>0</asrwt>
<pdfrwt beam="2">  1        4 0.20532177E-01 0.12500043E+03</pdfrwt>
<pdfrwt beam="1">  1       -4 0.45029937E-02 0.12500043E+03</pdfrwt>
<totfact> 0.96818353E+03</totfact>
</mgrwt>
</event>
<event>
 5    1  0.3266101E-002  0.1250154E+03  0.7818608E-02  0.1235045E+00
          4   -1    0    0  501    0  0.00000000000E+00  0.00000000000E+00  0.51980994237E+02  0.51996506246E+02  0.12700000000E+01 0.  1.
         -4   -1    0    0    0  501 -0.00000000000E+00 -0.00000000000E+00 -0.75134050027E+02  0.75144782743E+02  0.12700000000E+01 0.  1.
         25    2    1    2    0    0  0.00000000000E+00  0.00000000000E+00 -0.23153055790E+02  0.12714128899E+03  0.12501537255E+03 0.  0.
    9000005    1    3    3    0    0  0.15500551960E+02  0.57969923362E+02  0.61972708355E+01  0.60333948085E+02  0.10000000000E+01 0.  0.
    9000005    1    3    3    0    0 -0.15500551960E+02 -0.57969923362E+02 -0.29350326626E+02  0.66807340904E+02  0.10000000000E+01 0.  0.
<mgrwt>
<rscale>  0 0.12501537E+03</rscale>
<asrwt>0</asrwt>
<pdfrwt beam="1">  1        4 0.79990948E-02 0.12501537E+03</pdfrwt>
<pdfrwt beam="2">  1       -4 0.11561103E-01 0.12501537E+03</pdfrwt>
<totfact> 0.10402467E+04</totfact>
</mgrwt>
</event>
<event>
 5    1  0.3266101E-002  0.1250046E+03  0.7818608E-02  0.1235062E+00
          4   -1    0    0  501    0  0.00000000000E+00  0.00000000000E+00  0.39779404293E+02  0.39799672184E+02  0.12700000000E+01 0.  1.
         -4   -1    0    0    0  501 -0.00000000000E+00 -0.00000000000E+00 -0.98155606350E+02  0.98163822042E+02  0.12700000000E+01 0.  1.
         25    2    1    2    0    0  0.00000000000E+00  0.00000000000E+00 -0.58376202056E+02  0.13796349423E+03  0.12500457901E+03 0.  0.
    9000005    1    3    3    0    0  0.11880157370E+02 -0.21218766891E+02 -0.92724870485E+02  0.95865926240E+02  0.10000000000E+01 0.  0.
    9000005    1    3    3    0    0 -0.11880157370E+02  0.21218766891E+02  0.34348668428E+02  0.42097567986E+02  0.10000000000E+01 0.  0.
<mgrwt>
<rscale>  0 0.12500458E+03</rscale>
<asrwt>0</asrwt>
<pdfrwt beam="1">  1        4 0.61220995E-02 0.12500458E+03</pdfrwt>
<pdfrwt beam="2">  1       -4 0.15103053E-01 0.12500458E+03</pdfrwt>
<totfact> 0.10174919E+04</totfact>
</mgrwt>
</event>
<event>
 5    1  0.3266101E-002  0.1250062E+03  0.7818608E-02  0.1235060E+00
          4   -1    0    0  501    0  0.00000000000E+00  0.00000000000E+00  0.43971817844E+02  0.43990154177E+02  0.12700000000E+01 0. -1.
         -4   -1    0    0    0  501 -0.00000000000E+00 -0.00000000000E+00 -0.88802693182E+02  0.88811774086E+02  0.12700000000E+01 0. -1.
         25    2    1    2    0    0  0.00000000000E+00  0.00000000000E+00 -0.44830875338E+02  0.13280192826E+03  0.12500617892E+03 0.  0.
    9000005    1    3    3    0    0 -0.52235441998E+02  0.29604397957E+02 -0.39941011470E+01  0.60182344779E+02  0.10000000000E+01 0.  0.
    9000005    1    3    3    0    0  0.52235441998E+02 -0.29604397957E+02 -0.40836774191E+02  0.72619583484E+02  0.10000000000E+01 0.  0.
<mgrwt>
<rscale>  0 0.12500618E+03</rscale>
<asrwt>0</asrwt>
<pdfrwt beam="1">  1        4 0.67670041E-02 0.12500618E+03</pdfrwt>
<pdfrwt beam="2">  1       -4 0.13664062E-01 0.12500618E+03</pdfrwt>
<totfact> 0.10283178E+04</totfact>
</mgrwt>
</event>
<event>
 5    1  0.3266101E-002  0.1249985E+03  0.7818608E-02  0.1235072E+00
         -4   -1    0    0    0  501 -0.00000000000E+00  0.00000000000E+00  0.15689284452E+02  0.15740601851E+02  0.12700000000E+01 0.  1.
          4   -1    0    0  501    0  0.00000000000E+00 -0.00000000000E+00 -0.24851043472E+03  0.24851367984E+03  0.12700000000E+01 0.  1.
         25    2    1    2    0    0  0.00000000000E+00  0.00000000000E+00 -0.23282115027E+03  0.26425428169E+03  0.12499854950E+03 0.  0.
    9000005    1    3    3    0    0 -0.58634123337E+01 -0.16103416350E+02 -0.24345582954E+03  0.24406032156E+03  0.10000000000E+01 0.  0.
    9000005    1    3    3    0    0  0.58634123337E+01  0.16103416350E+02  0.10634679272E+02  0.20193960126E+02  0.10000000000E+01 0.  0.
<mgrwt>
<rscale>  0 0.12499855E+03</rscale>
<asrwt>0</asrwt>
<pdfrwt beam="2">  1        4 0.38236569E-01 0.12499855E+03</pdfrwt>
<pdfrwt beam="1">  1       -4 0.24179334E-02 0.12499855E+03</pdfrwt>
<totfact> 0.80315309E+03</totfact>
</mgrwt>
</event>
<event>
 5    1  0.3266101E-002  0.1249978E+03  0.7818608E-02  0.1235073E+00
          4   -1    0    0  501    0  0.00000000000E+00  0.00000000000E+00  0.10988307471E+03  0.10989041363E+03  0.12700000000E+01 0. -1.
         -4   -1    0    0    0  501 -0.00000000000E+00 -0.00000000000E+00 -0.35528000746E+02  0.35550692497E+02  0.12700000000E+01 0. -1.
         25    2    1    2    0    0  0.00000000000E+00  0.00000000000E+00  0.74355073963E+02  0.14544110613E+03  0.12499775329E+03 0.  0.
    9000005    1    3    3    0    0  0.11058845345E+02  0.30016023408E+02  0.99640220334E+02  0.10465387346E+03  0.10000000000E+01 0.  0.
    9000005    1    3    3    0    0 -0.11058845345E+02 -0.30016023408E+02 -0.25285146371E+02  0.40787232667E+02  0.10000000000E+01 0.  0.
<mgrwt>
<rscale>  0 0.12499775E+03</rscale>
<asrwt>0</asrwt>
<pdfrwt beam="1">  1        4 0.16907398E-01 0.12499775E+03</pdfrwt>
<pdfrwt beam="2">  1       -4 0.54681564E-02 0.12499775E+03</pdfrwt>
<totfact> 0.10022541E+04</totfact>
</mgrwt>
</event>
<event>
 5    1  0.3266101E-002  0.1250112E+03  0.7818608E-02  0.1235052E+00
          4   -1    0    0  501    0  0.00000000000E+00  0.00000000000E+00  0.92042730571E+01  0.92914768745E+01  0.12700000000E+01 0. -1.
         -4   -1    0    0    0  501 -0.00000000000E+00 -0.00000000000E+00 -0.42238191534E+03  0.42238382462E+03  0.12700000000E+01 0. -1.
         25    2    1    2    0    0  0.00000000000E+00  0.00000000000E+00 -0.41317764228E+03  0.43167530150E+03  0.12501120687E+03 0.  0.
    9000005    1    3    3    0    0 -0.52565096726E+02 -0.23366980704E+02 -0.29094931915E+03  0.29658322861E+03  0.10000000000E+01 0.  0.
    9000005    1    3    3    0    0  0.52565096726E+02  0.23366980704E+02 -0.12222832313E+03  0.13509207288E+03  0.10000000000E+01 0.  0.
<mgrwt>
<rscale>  0 0.12501121E+03</rscale>
<asrwt>0</asrwt>
<pdfrwt beam="1">  1        4 0.14228972E-02 0.12501121E+03</pdfrwt>
<pdfrwt beam="2">  1       -4 0.64988673E-01 0.12501121E+03</pdfrwt>
<totfact> 0.61569222E+03</totfact>
</mgrwt>
</event>
<event>
 5    1  0.3266101E-002  0.1249753E+03  0.7818608E-02  0.1235108E+00
          4   -1    0    0  501    0  0.00000000000E+00  0.00000000000E+00  0.88969888521E+02  0.88978952362E+02  0.12700000000E+01 0.  1.
         -4   -1    0    0    0  501 -0.00000000000E+00 -0.00000000000E+00 -0.43867487949E+02  0.43885867873E+02  0.12700000000E+01 0.  1.
         25    2    1    2    0    0  0.00000000000E+00  0.00000000000E+00  0.45102400572E+02  0.13286482023E+03  0.12497533324E+03 0.  0.
    9000005    1    3    3    0    0 -0.54168053060E+02 -0.25252759132E+02  0.31850788936E+01  0.59858370706E+02  0.10000000000E+01 0.  0.
    9000005    1    3    3    0    0  0.54168053060E+02  0.25252759132E+02  0.41917321678E+02  0.73006449528E+02  0.10000000000E+01 0.  0.
<mgrwt>
<rscale>  0 0.12497533E+03</rscale>
<asrwt>0</asrwt>
<pdfrwt beam="1">  1        4 0.13689786E-01 0.12497533E+03</pdfrwt>
<pdfrwt beam="2">  1       -4 0.67509554E-02 0.12497533E+03</pdfrwt>
<totfact> 0.10288998E+04</totfact>
</mgrwt>
</event>
<event>
 5    1  0.3266101E-002  0.1250001E+03  0.7818608E-02  0.1235069E+00
          4   -1    0    0  501    0  0.00000000000E+00  0.00000000000E+00  0.55425668652E+02  0.55440216860E+02  0.12700000000E+01 0. -1.
         -4   -1    0    0    0  501 -0.00000000000E+00 -0.00000000000E+00 -0.70447839269E+02  0.70459285815E+02  0.12700000000E+01 0. -1.
         25    2    1    2    0    0  0.00000000000E+00  0.00000000000E+00 -0.15022170617E+02  0.12589950268E+03  0.12500007666E+03 0.  0.
    9000005    1    3    3    0    0 -0.45044199035E+02 -0.34779066503E+02 -0.33517242330E+02  0.66052773348E+02  0.10000000000E+01 0.  0.
    9000005    1    3    3    0    0  0.45044199035E+02  0.34779066503E+02  0.18495071713E+02  0.59846729327E+02  0.10000000000E+01 0.  0.
<mgrwt>
<rscale>  0 0.12500008E+03</rscale>
<asrwt>0</asrwt>
<pdfrwt beam="1">  1        4 0.85290255E-02 0.12500008E+03</pdfrwt>
<pdfrwt beam="2">  1       -4 0.10840129E-01 0.12500008E+03</pdfrwt>
<totfact> 0.10433143E+04</totfact>
</mgrwt>
</event>
<event>
 5    1  0.3266101E-002  0.1249992E+03  0.7818608E-02  0.1235071E+00
          4   -1    0    0  501    0  0.00000000000E+00  0.00000000000E+00  0.61476660648E+03  0.61476791827E+03  0.12700000000E+01 0. -1.
         -4   -1    0    0    0  501 -0.00000000000E+00 -0.00000000000E+00 -0.62891589313E+01  0.64161063008E+01  0.12700000000E+01 0. -1.
         25    2    1    2    0    0  0.00000000000E+00  0.00000000000E+00  0.60847744755E+03  0.62118402457E+03  0.12499915286E+03 0.  0.
    9000005    1    3    3    0    0  0.20442058447E+02  0.44242107616E+02  0.49861916671E+03  0.50099632259E+03  0.10000000000E+01 0.  0.
    9000005    1    3    3    0    0 -0.20442058447E+02 -0.44242107616E+02  0.10985828083E+03  0.12018770198E+03  0.10000000000E+01 0.  0.
<mgrwt>
<rscale>  0 0.12499915E+03</rscale>
<asrwt>0</asrwt>
<pdfrwt beam="1">  1        4 0.94589326E-01 0.12499915E+03</pdfrwt>
<pdfrwt beam="2">  1       -4 0.97742919E-03 0.12499915E+03</pdfrwt>
<totfact> 0.47558036E+03</totfact>
</mgrwt>
</event>
<event>
 5    1  0.3266101E-002  0.1249990E+03  0.7818608E-02  0.1235071E+00
         -4   -1    0    0    0  501 -0.00000000000E+00  0.00000000000E+00  0.37762503975E+01  0.39840892390E+01  0.12700000000E+01 0.  1.
          4   -1    0    0  501    0  0.00000000000E+00 -0.00000000000E+00 -0.10064966346E+04  0.10064974359E+04  0.12700000000E+01 0.  1.
         25    2    1    2    0    0  0.00000000000E+00  0.00000000000E+00 -0.10027203842E+04  0.10104815251E+04  0.12499897456E+03 0.  0.
    9000005    1    3    3    0    0 -0.13267688759E+02 -0.44582606945E+02 -0.16400349160E+03  0.17047517609E+03  0.10000000000E+01 0.  0.
    9000005    1    3    3    0    0  0.13267688759E+02  0.44582606945E+02 -0.83871689264E+03  0.84000634903E+03  0.10000000000E+01 0.  0.
<mgrwt>
<rscale>  0 0.12499897E+03</rscale>
<asrwt>0</asrwt>
<pdfrwt beam="2">  1        4 0.15486148E+00 0.12499897E+03</pdfrwt>
<pdfrwt beam="1">  1       -4 0.59701164E-03 0.12499897E+03</pdfrwt>
<totfact> 0.30261601E+03</totfact>
</mgrwt>
</event>
<event>
 5    1  0.3266101E-002  0.1250001E+03  0.7818608E-02  0.1235069E+00
          4   -1    0    0  501    0  0.00000000000E+00  0.00000000000E+00  0.10641427829E+02  0.10716943886E+02  0.12700000000E+01 0.  1.
         -4   -1    0    0    0  501 -0.00000000000E+00 -0.00000000000E+00 -0.36570555671E+03  0.36570776189E+03  0.12700000000E+01 0.  1.
         25    2    1    2    0    0  0.00000000000E+00  0.00000000000E+00 -0.35506412888E+03  0.37642470578E+03  0.12500009401E+03 0.  0.
    9000005    1    3    3    0    0  0.36395112458E+02 -0.39390874349E+02 -0.27413219686E+03  0.27933081919E+03  0.10000000000E+01 0.  0.
    9000005    1    3    3    0    0 -0.36395112458E+02  0.39390874349E+02 -0.80931932022E+02  0.97093886592E+02  0.10000000000E+01 0.  0.
<mgrwt>
<rscale>  0 0.12500009E+03</rscale>
<asrwt>0</asrwt>
<pdfrwt beam="1">  1        4 0.16431216E-02 0.12500009E+03</pdfrwt>
<pdfrwt beam="2">  1       -4 0.56268362E-01 0.12500009E+03</pdfrwt>
<totfact> 0.66911971E+03</totfact>
</mgrwt>
</event>
<event>
 5    1  0.3266101E-002  0.1250002E+03  0.7818608E-02  0.1235069E+00
          4   -1    0    0  501    0  0.00000000000E+00  0.00000000000E+00  0.57559321437E+01  0.58943748475E+01  0.12700000000E+01 0.  1.
         -4   -1    0    0    0  501 -0.00000000000E+00 -0.00000000000E+00 -0.67044628677E+03  0.67044748963E+03  0.12700000000E+01 0.  1.
         25    2    1    2    0    0  0.00000000000E+00  0.00000000000E+00 -0.66469035463E+03  0.67634186447E+03  0.12500020042E+03 0.  0.
    9000005    1    3    3    0    0 -0.16002501274E+02  0.57271839424E+02 -0.43629857663E+03  0.44033350044E+03  0.10000000000E+01 0.  0.
    9000005    1    3    3    0    0  0.16002501274E+02 -0.57271839424E+02 -0.22839177800E+03  0.23600836403E+03  0.10000000000E+01 0.  0.
<mgrwt>
<rscale>  0 0.12500020E+03</rscale>
<asrwt>0</asrwt>
<pdfrwt beam="1">  1        4 0.89627052E-03 0.12500020E+03</pdfrwt>
<pdfrwt beam="2">  1       -4 0.10315626E+00 0.12500020E+03</pdfrwt>
<totfact> 0.44365174E+03</totfact>
</mgrwt>
</event>
<event>
 5    1  0.3266101E-002  0.1250055E+03  0.7818608E-02  0.1235061E+00
         -4   -1    0    0    0  501 -0.00000000000E+00  0.00000000000E+00  0.34333340091E+02  0.34356820892E+02  0.12700000000E+01 0.  1.
          4   -1    0    0  501    0  0.00000000000E+00 -0.00000000000E+00 -0.11371837808E+03  0.11372546950E+03  0.12700000000E+01 0.  1.
         25    2    1    2    0    0  0.00000000000E+00  0.00000000000E+00 -0.79385037993E+02  0.14808229040E+03  0.12500552177E+03 0.  0.
    9000005    1    3    3    0    0  0.83802198587E+01  0.35129005321E+02  0.20726103219E+02  0.41651488021E+02  0.10000000000E+01 0.  0.
    9000005    1    3    3    0    0 -0.83802198587E+01 -0.35129005321E+02 -0.10011114121E+03  0.10643080238E+03  0.10000000000E+01 0.  0.
<mgrwt>
<rscale>  0 0.12500552E+03</rscale>
<asrwt>0</asrwt>
<pdfrwt beam="2">  1        4 0.17497487E-01 0.12500552E+03</pdfrwt>
<pdfrwt beam="1">  1       -4 0.52844041E-02 0.12500552E+03</pdfrwt>
<totfact> 0.99674957E+03</totfact>
</mgrwt>
</event>
<event>
 5    1  0.3266101E-002  0.1249997E+03  0.7818608E-02  0.1235070E+00
         -4   -1    0    0    0  501 -0.00000000000E+00  0.00000000000E+00  0.91106131796E+02  0.91114983131E+02  0.12700000000E+01 0. -1.
          4   -1    0    0  501    0  0.00000000000E+00 -0.00000000000E+00 -0.42855287634E+02  0.42874101485E+02  0.12700000000E+01 0. -1.
         25    2    1    2    0    0  0.00000000000E+00  0.00000000000E+00  0.48250844163E+02  0.13398908462E+03  0.12499972333E+03 0.  0.
    9000005    1    3    3    0    0  0.95161243813E+01 -0.47186554890E+02  0.66842348012E+02  0.82377345632E+02  0.10000000000E+01 0.  0.
    9000005    1    3    3    0    0 -0.95161243813E+01  0.47186554890E+02 -0.18591503849E+02  0.51611738984E+02  0.10000000000E+01 0.  0.
<mgrwt>
<rscale>  0 0.12499972E+03</rscale>
<asrwt>0</asrwt>
<pdfrwt beam="2">  1        4 0.65952493E-02 0.12499972E+03</pdfrwt>
<pdfrwt beam="1">  1       -4 0.14018456E-01 0.12499972E+03</pdfrwt>
<totfact> 0.10259487E+04</totfact>
</mgrwt>
</event>
<event>
 5    1  0.3266101E-002  0.1250028E+03  0.7818608E-02  0.1235065E+00
         -4   -1    0    0    0  501 -0.00000000000E+00  0.00000000000E+00  0.74141745406E+01  0.75221595383E+01  0.12700000000E+01 0.  1.
          4   -1    0    0  501    0  0.00000000000E+00 -0.00000000000E+00 -0.52296817717E+03  0.52296971923E+03  0.12700000000E+01 0.  1.
         25    2    1    2    0    0  0.00000000000E+00  0.00000000000E+00 -0.51555400263E+03  0.53049187877E+03  0.12500281522E+03 0.  0.
    9000005    1    3    3    0    0  0.33981252215E+02 -0.52433933336E+02 -0.26276795516E+03  0.27009635526E+03  0.10000000000E+01 0.  0.
    9000005    1    3    3    0    0 -0.33981252215E+02  0.52433933336E+02 -0.25278604747E+03  0.26039552351E+03  0.10000000000E+01 0.  0.
<mgrwt>
<rscale>  0 0.12500282E+03</rscale>
<asrwt>0</asrwt>
<pdfrwt beam="2">  1        4 0.80465039E-01 0.12500282E+03</pdfrwt>
<pdfrwt beam="1">  1       -4 0.11490678E-02 0.12500282E+03</pdfrwt>
<totfact> 0.53570525E+03</totfact>
</mgrwt>
</event>
<event>
 5    1  0.3266101E-002  0.1250022E+03  0.7818608E-02  0.1235066E+00
         -4   -1    0    0    0  501 -0.00000000000E+00  0.00000000000E+00  0.27380895213E+02  0.27410332407E+02  0.12700000000E+01 0. -1.
          4   -1    0    0  501    0  0.00000000000E+00 -0.00000000000E+00 -0.14255940561E+03  0.14256506244E+03  0.12700000000E+01 0. -1.
         25    2    1    2    0    0  0.00000000000E+00  0.00000000000E+00 -0.11517851040E+03  0.16997539484E+03  0.12500218236E+03 0.  0.
    9000005    1    3    3    0    0  0.12830327948E+01 -0.45482351611E+02  0.66100209285E+00  0.45516232324E+02  0.10000000000E+01 0.  0.
    9000005    1    3    3    0    0 -0.12830327948E+01  0.45482351611E+02 -0.11583951249E+03  0.12445916252E+03  0.10000000000E+01 0.  0.
<mgrwt>
<rscale>  0 0.12500218E+03</rscale>
<asrwt>0</asrwt>
<pdfrwt beam="2">  1        4 0.21934915E-01 0.12500218E+03</pdfrwt>
<pdfrwt beam="1">  1       -4 0.42151450E-02 0.12500218E+03</pdfrwt>
<totfact> 0.95448547E+03</totfact>
</mgrwt>
</event>
<event>
 5    1  0.3266101E-002  0.1250071E+03  0.7818608E-02  0.1235058E+00
          4   -1    0    0  501    0  0.00000000000E+00  0.00000000000E+00  0.52962444308E+02  0.52977668947E+02  0.12700000000E+01 0. -1.
         -4   -1    0    0    0  501 -0.00000000000E+00 -0.00000000000E+00 -0.73732223014E+02  0.73743159754E+02  0.12700000000E+01 0. -1.
         25    2    1    2    0    0  0.00000000000E+00  0.00000000000E+00 -0.20769778706E+02  0.12672082870E+03  0.12500713867E+03 0.  0.
    9000005    1    3    3    0    0 -0.56264275770E+02 -0.18540578630E+02  0.97946475795E+01  0.60052950844E+02  0.10000000000E+01 0.  0.
    9000005    1    3    3    0    0  0.56264275770E+02  0.18540578630E+02 -0.30564426285E+02  0.66667877858E+02  0.10000000000E+01 0.  0.
<mgrwt>
<rscale>  0 0.12500714E+03</rscale>
<asrwt>0</asrwt>
<pdfrwt beam="1">  1        4 0.81500807E-02 0.12500714E+03</pdfrwt>
<pdfrwt beam="2">  1       -4 0.11345431E-01 0.12500714E+03</pdfrwt>
<totfact> 0.10413539E+04</totfact>
</mgrwt>
</event>
<event>
 5    1  0.3266101E-002  0.1250008E+03  0.7818608E-02  0.1235068E+00
         -4   -1    0    0    0  501 -0.00000000000E+00  0.00000000000E+00  0.27962501947E+02  0.27991327498E+02  0.12700000000E+01 0.  1.
          4   -1    0    0  501    0  0.00000000000E+00 -0.00000000000E+00 -0.13959410134E+03  0.13959987833E+03  0.12700000000E+01 0.  1.
         25    2    1    2    0    0  0.00000000000E+00  0.00000000000E+00 -0.11163159939E+03  0.16759120583E+03  0.12500079314E+03 0.  0.
    9000005    1    3    3    0    0 -0.55316958877E+02  0.18784235818E+02 -0.85569121074E+02  0.10361413000E+03  0.10000000000E+01 0.  0.
    9000005    1    3    3    0    0  0.55316958877E+02 -0.18784235818E+02 -0.26062478320E+02  0.63977075823E+02  0.10000000000E+01 0.  0.
<mgrwt>
<rscale>  0 0.12500079E+03</rscale>
<asrwt>0</asrwt>
<pdfrwt beam="2">  1        4 0.21478677E-01 0.12500079E+03</pdfrwt>
<pdfrwt beam="1">  1       -4 0.43045852E-02 0.12500079E+03</pdfrwt>
<totfact> 0.95897189E+03</totfact>
</mgrwt>
</event>
<event>
 5    1  0.3266101E-002  0.1249995E+03  0.7818608E-02  0.1235070E+00
          4   -1    0    0  501    0  0.00000000000E+00  0.00000000000E+00  0.20185690708E+03  0.20186090220E+03  0.12700000000E+01 0.  1.
         -4   -1    0    0    0  501 -0.00000000000E+00 -0.00000000000E+00 -0.19326404616E+02  0.19368087551E+02  0.12700000000E+01 0.  1.
         25    2    1    2    0    0  0.00000000000E+00  0.00000000000E+00  0.18253050247E+03  0.22122898975E+03  0.12499952630E+03 0.  0.
    9000005    1    3    3    0    0 -0.23732099606E+02 -0.52473847304E+00 -0.11045084446E+02  0.26200797557E+02  0.10000000000E+01 0.  0.
    9000005    1    3    3    0    0  0.23732099606E+02  0.52473847304E+00  0.19357558691E+03  0.19502819220E+03  0.10000000000E+01 0.  0.
<mgrwt>
<rscale>  0 0.12499953E+03</rscale>
<asrwt>0</asrwt>
<pdfrwt beam="1">  1        4 0.31058423E-01 0.12499953E+03</pdfrwt>
<pdfrwt beam="2">  1       -4 0.29768066E-02 0.12499953E+03</pdfrwt>
<totfact> 0.86675166E+03</totfact>
</mgrwt>
</event>
<event>
 5    1  0.3266101E-002  0.1250014E+03  0.7818608E-02  0.1235067E+00
          4   -1    0    0  501    0  0.00000000000E+00  0.00000000000E+00  0.39158362223E+02  0.39178951389E+02  0.12700000000E+01 0.  1.
         -4   -1    0    0    0  501 -0.00000000000E+00 -0.00000000000E+00 -0.99706523235E+02  0.99714611144E+02  0.12700000000E+01 0.  1.
         25    2    1    2    0    0  0.00000000000E+00  0.00000000000E+00 -0.60548161012E+02  0.13889356253E+03  0.12500136764E+03 0.  0.
    9000005    1    3    3    0    0  0.41103121521E+02 -0.11183258550E+02 -0.81081129788E+02  0.91595204450E+02  0.10000000000E+01 0.  0.
    9000005    1    3    3    0    0 -0.41103121521E+02  0.11183258550E+02  0.20532968776E+02  0.47298358083E+02  0.10000000000E+01 0.  0.
<mgrwt>
<rscale>  0 0.12500137E+03</rscale>
<asrwt>0</asrwt>
<pdfrwt beam="1">  1        4 0.60265694E-02 0.12500137E+03</pdfrwt>
<pdfrwt beam="2">  1       -4 0.15341671E-01 0.12500137E+03</pdfrwt>
<totfact> 0.10156256E+04</totfact>
</mgrwt>
</event>
<event>
 5    1  0.3266101E-002  0.1249910E+03  0.7818608E-02  0.1235083E+00
         -4   -1    0    0    0  501 -0.00000000000E+00  0.00000000000E+00  0.71841042117E+03  0.71841154371E+03  0.12700000000E+01 0. -1.
          4   -1    0    0  501    0  0.00000000000E+00 -0.00000000000E+00 -0.53612600219E+01  0.55096287554E+01  0.12700000000E+01 0. -1.
         25    2    1    2    0    0  0.00000000000E+00  0.00000000000E+00  0.71304916115E+03  0.72392117247E+03  0.12499103064E+03 0.  0.
    9000005    1    3    3    0    0 -0.28109123099E+02  0.30769073563E+02  0.86859249964E+02  0.96345150338E+02  0.10000000000E+01 0.  0.
    9000005    1    3    3    0    0  0.28109123099E+02 -0.30769073563E+02  0.62618991118E+03  0.62757602213E+03  0.10000000000E+01 0.  0.
<mgrwt>
<rscale>  0 0.12499103E+03</rscale>
<asrwt>0</asrwt>
<pdfrwt beam="2">  1        4 0.83630802E-03 0.12499103E+03</pdfrwt>
<pdfrwt beam="1">  1       -4 0.11053625E+00 0.12499103E+03</pdfrwt>
<totfact> 0.41861787E+03</totfact>
</mgrwt>
</event>
<event>
 5    1  0.3266101E-002  0.1250031E+03  0.7818608E-02  0.1235064E+00
         -4   -1    0    0    0  501 -0.00000000000E+00  0.00000000000E+00  0.17851478974E+03  0.17851930723E+03  0.12700000000E+01 0. -1.
          4   -1    0    0  501    0  0.00000000000E+00 -0.00000000000E+00 -0.21859811744E+02  0.21896672567E+02  0.12700000000E+01 0. -1.
         25    2    1    2    0    0  0.00000000000E+00  0.00000000000E+00  0.15665497799E+03  0.20041597980E+03  0.12500313128E+03 0.  0.
    9000005    1    3    3    0    0 -0.76998017476E+01 -0.43965624606E+02  0.14845520054E+03  0.15502325523E+03  0.10000000000E+01 0.  0.
    9000005    1    3    3    0    0  0.76998017476E+01  0.43965624606E+02  0.81997774545E+01  0.45392724574E+02  0.10000000000E+01 0.  0.
<mgrwt>
<rscale>  0 0.12500313E+03</rscale>
<asrwt>0</asrwt>
<pdfrwt beam="2">  1        4 0.33662309E-02 0.12500313E+03</pdfrwt>
<pdfrwt beam="1">  1       -4 0.27466997E-01 0.12500313E+03</pdfrwt>
<totfact> 0.90059085E+03</totfact>
</mgrwt>
</event>
<event>
 5    1  0.3266101E-002  0.1250034E+03  0.7818608E-02  0.1235064E+00
         -4   -1    0    0    0  501 -0.00000000000E+00  0.00000000000E+00  0.65289147330E+02  0.65301498138E+02  0.12700000000E+01 0.  1.
          4   -1    0    0  501    0  0.00000000000E+00 -0.00000000000E+00 -0.59808483507E+02  0.59821965860E+02  0.12700000000E+01 0.  1.
         25    2    1    2    0    0  0.00000000000E+00  0.00000000000E+00  0.54806638238E+01  0.12512346400E+03  0.12500337422E+03 0.  0.
    9000005    1    3    3    0    0  0.44229879286E+02 -0.22637606967E+02 -0.35200137689E+02  0.60899861775E+02  0.10000000000E+01 0.  0.
    9000005    1    3    3    0    0 -0.44229879286E+02  0.22637606967E+02  0.40680801512E+02  0.64223602224E+02  0.10000000000E+01 0.  0.
<mgrwt>
<rscale>  0 0.12500337E+03</rscale>
<asrwt>0</asrwt>
<pdfrwt beam="2">  1        4 0.92032924E-02 0.12500337E+03</pdfrwt>
<pdfrwt beam="1">  1       -4 0.10046471E-01 0.12500337E+03</pdfrwt>
<totfact> 0.10449385E+04</totfact>
</mgrwt>
</event>
<event>
 5    1  0.3266101E-002  0.1249972E+03  0.7818608E-02  0.1235074E+00
          4   -1    0    0  501    0  0.00000000000E+00  0.00000000000E+00  0.14711263121E+03  0.14711811296E+03  0.12700000000E+01 0.  1.
         -4   -1    0    0    0  501 -0.00000000000E+00 -0.00000000000E+00 -0.26530441193E+02  0.26560820957E+02  0.12700000000E+01 0.  1.
         25    2    1    2    0    0  0.00000000000E+00  0.00000000000E+00  0.12058219002E+03  0.17367893392E+03  0.12499723012E+03 0.  0.
    9000005    1    3    3    0    0 -0.52229543869E+02 -0.28087178169E+02  0.87669568452E+02  0.10584785337E+03  0.10000000000E+01 0.  0.
    9000005    1    3    3    0    0  0.52229543869E+02  0.28087178169E+02  0.32912621563E+02  0.67831080548E+02  0.10000000000E+01 0.  0.
<mgrwt>
<rscale>  0 0.12499723E+03</rscale>
<asrwt>0</asrwt>
<pdfrwt beam="1">  1        4 0.22635471E-01 0.12499723E+03</pdfrwt>
<pdfrwt beam="2">  1       -4 0.40843650E-02 0.12499723E+03</pdfrwt>
<totfact> 0.94773239E+03</totfact>
</mgrwt>
</event>
<event>
 5    1  0.3266101E-002  0.1249942E+03  0.7818608E-02  0.1235078E+00
          4   -1    0    0  501    0  0.00000000000E+00  0.00000000000E+00  0.15492322340E+03  0.15492842879E+03  0.12700000000E+01 0. -1.
         -4   -1    0    0    0  501 -0.00000000000E+00 -0.00000000000E+00 -0.25190144935E+02  0.25222139122E+02  0.12700000000E+01 0. -1.
         25    2    1    2    0    0  0.00000000000E+00  0.00000000000E+00  0.12973307847E+03  0.18015056792E+03  0.12499422176E+03 0.  0.
    9000005    1    3    3    0    0  0.45439791551E+02  0.80296856069E+01  0.41337876109E+01  0.46339386133E+02  0.10000000000E+01 0.  0.
    9000005    1    3    3    0    0 -0.45439791551E+02 -0.80296856069E+01  0.12559929085E+03  0.13381118178E+03  0.10000000000E+01 0.  0.
<mgrwt>
<rscale>  0 0.12499422E+03</rscale>
<asrwt>0</asrwt>
<pdfrwt beam="1">  1        4 0.23837203E-01 0.12499422E+03</pdfrwt>
<pdfrwt beam="2">  1       -4 0.38782684E-02 0.12499422E+03</pdfrwt>
<totfact> 0.93602034E+03</totfact>
</mgrwt>
</event>
<event>
 5    1  0.3266101E-002  0.1250016E+03  0.7818608E-02  0.1235067E+00
         -4   -1    0    0    0  501 -0.00000000000E+00  0.00000000000E+00  0.88763703740E+01  0.89667636868E+01  0.12700000000E+01 0.  1.
          4   -1    0    0  501    0  0.00000000000E+00 -0.00000000000E+00 -0.43776335567E+03  0.43776519787E+03  0.12700000000E+01 0.  1.
         25    2    1    2    0    0  0.00000000000E+00  0.00000000000E+00 -0.42888698530E+03  0.44673196156E+03  0.12500159728E+03 0.  0.
    9000005    1    3    3    0    0  0.88830149005E+01  0.42925727058E+02 -0.37362148197E+03  0.37618550981E+03  0.10000000000E+01 0.  0.
    9000005    1    3    3    0    0 -0.88830149005E+01 -0.42925727058E+02 -0.55265503324E+02  0.70546451752E+02  0.10000000000E+01 0.  0.
<mgrwt>
<rscale>  0 0.12500160E+03</rscale>
<asrwt>0</asrwt>
<pdfrwt beam="2">  1        4 0.67355287E-01 0.12500160E+03</pdfrwt>
<pdfrwt beam="1">  1       -4 0.13726908E-02 0.12500160E+03</pdfrwt>
<totfact> 0.60245841E+03</totfact>
</mgrwt>
</event>
<event>
 5    1  0.3266101E-002  0.1250009E+03  0.7818608E-02  0.1235068E+00
          4   -1    0    0  501    0  0.00000000000E+00  0.00000000000E+00  0.24819135990E+03  0.24819460919E+03  0.12700000000E+01 0.  1.
         -4   -1    0    0    0  501 -0.00000000000E+00 -0.00000000000E+00 -0.15710109080E+02  0.15761358676E+02  0.12700000000E+01 0.  1.
         25    2    1    2    0    0  0.00000000000E+00  0.00000000000E+00  0.23248125082E+03  0.26395596786E+03  0.12500088395E+03 0.  0.
    9000005    1    3    3    0    0 -0.39327500181E+02  0.31100030413E+02  0.37472445089E+02  0.62602302699E+02  0.10000000000E+01 0.  0.
    9000005    1    3    3    0    0  0.39327500181E+02 -0.31100030413E+02  0.19500880573E+03  0.20135366517E+03  0.10000000000E+01 0.  0.
<mgrwt>
<rscale>  0 0.12500088E+03</rscale>
<asrwt>0</asrwt>
<pdfrwt beam="1">  1        4 0.38187479E-01 0.12500088E+03</pdfrwt>
<pdfrwt beam="2">  1       -4 0.24211320E-02 0.12500088E+03</pdfrwt>
<totfact> 0.80352500E+03</totfact>
</mgrwt>
</event>
<event>
 5    1  0.3266101E-002  0.1249992E+03  0.7818608E-02  0.1235071E+00
         -4   -1    0    0    0  501 -0.00000000000E+00  0.00000000000E+00  0.53362589138E+02  0.53377699646E+02  0.12700000000E+01 0.  1.
          4   -1    0    0  501    0  0.00000000000E+00 -0.00000000000E+00 -0.73170118426E+02  0.73181139172E+02  0.12700000000E+01 0.  1.
         25    2    1    2    0    0  0.00000000000E+00  0.00000000000E+00 -0.19807529288E+02  0.12655883882E+03  0.12499920586E+03 0.  0.
    9000005    1    3    3    0    0  0.18380449281E+02  0.32239708239E+02 -0.60809929959E+02  0.71246665078E+02  0.10000000000E+01 0.  0.
    9000005    1    3    3    0    0 -0.18380449281E+02 -0.32239708239E+02  0.41002400671E+02  0.55312173740E+02  0.10000000000E+01 0.  0.
<mgrwt>
<rscale>  0 0.12499921E+03</rscale>
<asrwt>0</asrwt>
<pdfrwt beam="2">  1        4 0.11258951E-01 0.12499921E+03</pdfrwt>
<pdfrwt beam="1">  1       -4 0.82116392E-02 0.12499921E+03</pdfrwt>
<totfact> 0.10418932E+04</totfact>
</mgrwt>
</event>
<event>
 5    1  0.3266101E-002  0.1249922E+03  0.7818608E-02  0.1235081E+00
          4   -1    0    0  501    0  0.00000000000E+00  0.00000000000E+00  0.62102804519E+02  0.62115788888E+02  0.12700000000E+01 0.  1.
         -4   -1    0    0    0  501 -0.00000000000E+00 -0.00000000000E+00 -0.62865936551E+02  0.62878763334E+02  0.12700000000E+01 0.  1.
         25    2    1    2    0    0  0.00000000000E+00  0.00000000000E+00 -0.76313203124E+00  0.12499455222E+03  0.12499222262E+03 0.  0.
    9000005    1    3    3    0    0 -0.15495262248E+02 -0.20779809782E+02  0.56477740973E+02  0.62150131714E+02  0.10000000000E+01 0.  0.
    9000005    1    3    3    0    0  0.15495262248E+02  0.20779809782E+02 -0.57240873004E+02  0.62844420508E+02  0.10000000000E+01 0.  0.
<mgrwt>
<rscale>  0 0.12499222E+03</rscale>
<asrwt>0</asrwt>
<pdfrwt beam="1">  1        4 0.95562631E-02 0.12499222E+03</pdfrwt>
<pdfrwt beam="2">  1       -4 0.96736680E-02 0.12499222E+03</pdfrwt>
<totfact> 0.10454818E+04</totfact>
</mgrwt>
</event>
<event>
 5    1  0.3266101E-002  0.1250009E+03  0.7818608E-02  0.1235068E+00
          4   -1    0    0  501    0  0.00000000000E+00  0.00000000000E+00  0.40370069819E+02  0.40390041312E+02  0.12700000000E+01 0. -1.
         -4   -1    0    0    0  501 -0.00000000000E+00 -0.00000000000E+00 -0.96714400872E+02  0.96722738981E+02  0.12700000000E+01 0. -1.
         25    2    1    2    0    0  0.00000000000E+00  0.00000000000E+00 -0.56344331053E+02  0.13711278029E+03  0.12500092351E+03 0.  0.
    9000005    1    3    3    0    0 -0.58366254499E+02 -0.20360536220E+02 -0.18110792599E+02  0.64421827885E+02  0.10000000000E+01 0.  0.
    9000005    1    3    3    0    0  0.58366254499E+02  0.20360536220E+02 -0.38233538453E+02  0.72690952409E+02  0.10000000000E+01 0.  0.
<mgrwt>
<rscale>  0 0.12500092E+03</rscale>
<asrwt>0</asrwt>
<pdfrwt beam="1">  1        4 0.62129577E-02 0.12500092E+03</pdfrwt>
<pdfrwt beam="2">  1       -4 0.14881316E-01 0.12500092E+03</pdfrwt>
<totfact> 0.10193516E+04</totfact>
</mgrwt>
</event>
<event>
 5    1  0.3266101E-002  0.1249985E+03  0.7818608E-02  0.1235072E+00
          4   -1    0    0  501    0  0.00000000000E+00  0.00000000000E+00  0.25196521342E+03  0.25196841404E+03  0.12700000000E+01 0. -1.
         -4   -1    0    0    0  501 -0.00000000000E+00 -0.00000000000E+00 -0.15473455906E+02  0.15525486713E+02  0.12700000000E+01 0. -1.
         25    2    1    2    0    0  0.00000000000E+00  0.00000000000E+00  0.23649175752E+03  0.26749390076E+03  0.12499854226E+03 0.  0.
    9000005    1    3    3    0    0  0.13060514526E+02  0.61098689789E+02  0.12089457654E+03  0.13608866804E+03  0.10000000000E+01 0.  0.
    9000005    1    3    3    0    0 -0.13060514526E+02 -0.61098689789E+02  0.11559718098E+03  0.13140523271E+03  0.10000000000E+01 0.  0.
<mgrwt>
<rscale>  0 0.12499854E+03</rscale>
<asrwt>0</asrwt>
<pdfrwt beam="1">  1        4 0.38768124E-01 0.12499854E+03</pdfrwt>
<pdfrwt beam="2">  1       -4 0.23847805E-02 0.12499854E+03</pdfrwt>
<totfact> 0.79868359E+03</totfact>
</mgrwt>
</event>
<event>
 5    1  0.3266101E-002  0.1250013E+03  0.7818608E-02  0.1235067E+00
         -4   -1    0    0    0  501 -0.00000000000E+00  0.00000000000E+00  0.66391381244E+01  0.67595158876E+01  0.12700000000E+01 0.  1.
          4   -1    0    0  501    0  0.00000000000E+00 -0.00000000000E+00 -0.58297242191E+03  0.58297380525E+03  0.12700000000E+01 0.  1.
         25    2    1    2    0    0  0.00000000000E+00  0.00000000000E+00 -0.57633328379E+03  0.58973332114E+03  0.12500134424E+03 0.  0.
    9000005    1    3    3    0    0 -0.34285472295E+02  0.52091322046E+02 -0.26909909315E+03  0.27623236844E+03  0.10000000000E+01 0.  0.
    9000005    1    3    3    0    0  0.34285472295E+02 -0.52091322046E+02 -0.30723419064E+03  0.31350095269E+03  0.10000000000E+01 0.  0.
<mgrwt>
<rscale>  0 0.12500134E+03</rscale>
<asrwt>0</asrwt>
<pdfrwt beam="2">  1        4 0.89697391E-01 0.12500134E+03</pdfrwt>
<pdfrwt beam="1">  1       -4 0.10307726E-02 0.12500134E+03</pdfrwt>
<totfact> 0.49520708E+03</totfact>
</mgrwt>
</event>
<event>
 5    1  0.3266101E-002  0.1250021E+03  0.7818608E-02  0.1235066E+00
          4   -1    0    0  501    0  0.00000000000E+00  0.00000000000E+00  0.15142977429E+02  0.15196139820E+02  0.12700000000E+01 0. -1.
         -4   -1    0    0    0  501 -0.00000000000E+00 -0.00000000000E+00 -0.25745965058E+03  0.25746278290E+03  0.12700000000E+01 0. -1.
         25    2    1    2    0    0  0.00000000000E+00  0.00000000000E+00 -0.24231667315E+03  0.27265892272E+03  0.12500207218E+03 0.  0.
    9000005    1    3    3    0    0 -0.34817189813E+02 -0.42217660785E+02 -0.18698727564E+03  0.19483277147E+03  0.10000000000E+01 0.  0.
    9000005    1    3    3    0    0  0.34817189813E+02  0.42217660785E+02 -0.55329397517E+02  0.77826151249E+02  0.10000000000E+01 0.  0.
<mgrwt>
<rscale>  0 0.12500207E+03</rscale>
<asrwt>0</asrwt>
<pdfrwt beam="1">  1        4 0.23340194E-02 0.12500207E+03</pdfrwt>
<pdfrwt beam="2">  1       -4 0.39613504E-01 0.12500207E+03</pdfrwt>
<totfact> 0.79158010E+03</totfact>
</mgrwt>
</event>
<event>
 5    1  0.3266101E-002  0.1250038E+03  0.7818608E-02  0.1235063E+00
          4   -1    0    0  501    0  0.00000000000E+00  0.00000000000E+00  0.10953346815E+04  0.10953354178E+04  0.12700000000E+01 0.  1.
         -4   -1    0    0    0  501 -0.00000000000E+00 -0.00000000000E+00 -0.34526568686E+01  0.36788231069E+01  0.12700000000E+01 0.  1.
         25    2    1    2    0    0  0.00000000000E+00  0.00000000000E+00  0.10918820246E+04  0.10990142409E+04  0.12500378359E+03 0.  0.
    9000005    1    3    3    0    0 -0.23651983294E+01  0.17197776768E+02  0.10737542915E+04  0.10738950769E+04  0.10000000000E+01 0.  0.
    9000005    1    3    3    0    0  0.23651983294E+01 -0.17197776768E+02  0.18127733086E+02  0.25119163914E+02  0.10000000000E+01 0.  0.
<mgrwt>
<rscale>  0 0.12500378E+03</rscale>
<asrwt>0</asrwt>
<pdfrwt beam="1">  1        4 0.16853075E+00 0.12500378E+03</pdfrwt>
<pdfrwt beam="2">  1       -4 0.54863114E-03 0.12500378E+03</pdfrwt>
<totfact> 0.27509934E+03</totfact>
</mgrwt>
</event>
<event>
 5    1  0.3266101E-002  0.1249991E+03  0.7818608E-02  0.1235071E+00
          4   -1    0    0  501    0  0.00000000000E+00  0.00000000000E+00  0.22206262200E+02  0.22242548885E+02  0.12700000000E+01 0. -1.
         -4   -1    0    0    0  501 -0.00000000000E+00 -0.00000000000E+00 -0.17572293948E+03  0.17572752875E+03  0.12700000000E+01 0. -1.
         25    2    1    2    0    0  0.00000000000E+00  0.00000000000E+00 -0.15351667728E+03  0.19797007763E+03  0.12499912573E+03 0.  0.
    9000005    1    3    3    0    0  0.34750100027E+02  0.99585380893E+01  0.39744671837E+01  0.36380466217E+02  0.10000000000E+01 0.  0.
    9000005    1    3    3    0    0 -0.34750100027E+02 -0.99585380893E+01 -0.15749114446E+03  0.16158961141E+03  0.10000000000E+01 0.  0.
<mgrwt>
<rscale>  0 0.12499913E+03</rscale>
<asrwt>0</asrwt>
<pdfrwt beam="1">  1        4 0.34194925E-02 0.12499913E+03</pdfrwt>
<pdfrwt beam="2">  1       -4 0.27037442E-01 0.12499913E+03</pdfrwt>
<totfact> 0.90480513E+03</totfact>
</mgrwt>
</event>
<event>
 5    1  0.3266101E-002  0.1250056E+03  0.7818608E-02  0.1235061E+00
         -4   -1    0    0    0  501 -0.00000000000E+00  0.00000000000E+00  0.24463589472E+04  0.24463592768E+04  0.12700000000E+01 0.  1.
          4   -1    0    0  501    0  0.00000000000E+00 -0.00000000000E+00 -0.13440173691E+01  0.18491302519E+01  0.12700000000E+01 0.  1.
         25    2    1    2    0    0  0.00000000000E+00  0.00000000000E+00  0.24450149298E+04  0.24482084071E+04  0.12500558997E+03 0.  0.
    9000005    1    3    3    0    0  0.33410646313E+02 -0.23622897212E+02  0.29739048758E+03  0.30019396173E+03  0.10000000000E+01 0.  0.
    9000005    1    3    3    0    0 -0.33410646313E+02  0.23622897212E+02  0.21476244422E+04  0.21480144453E+04  0.10000000000E+01 0.  0.
<mgrwt>
<rscale>  0 0.12500559E+03</rscale>
<asrwt>0</asrwt>
<pdfrwt beam="2">  1        4 0.24565144E-03 0.12500559E+03</pdfrwt>
<pdfrwt beam="1">  1       -4 0.37640280E+00 0.12500559E+03</pdfrwt>
<totfact> 0.50884555E+02</totfact>
</mgrwt>
</event>
<event>
 5    1  0.3266101E-002  0.1250074E+03  0.7818608E-02  0.1235058E+00
         -4   -1    0    0    0  501 -0.00000000000E+00  0.00000000000E+00  0.66284745580E+02  0.66296910913E+02  0.12700000000E+01 0.  1.
          4   -1    0    0  501    0  0.00000000000E+00 -0.00000000000E+00 -0.58913924011E+02  0.58927611035E+02  0.12700000000E+01 0.  1.
         25    2    1    2    0    0  0.00000000000E+00  0.00000000000E+00  0.73708215694E+01  0.12522452195E+03  0.12500740733E+03 0.  0.
    9000005    1    3    3    0    0 -0.13318255188E+02 -0.61028762633E+02  0.56451270070E+01  0.62727611533E+02  0.10000000000E+01 0.  0.
    9000005    1    3    3    0    0  0.13318255188E+02  0.61028762633E+02  0.17256945624E+01  0.62496910415E+02  0.10000000000E+01 0.  0.
<mgrwt>
<rscale>  0 0.12500741E+03</rscale>
<asrwt>0</asrwt>
<pdfrwt beam="2">  1        4 0.90656693E-02 0.12500741E+03</pdfrwt>
<pdfrwt beam="1">  1       -4 0.10199642E-01 0.12500741E+03</pdfrwt>
<totfact> 0.10446239E+04</totfact>
</mgrwt>
</event>
<event>
 5    1  0.3266101E-002  0.1250079E+03  0.7818608E-02  0.1235057E+00
         -4   -1    0    0    0  501 -0.00000000000E+00  0.00000000000E+00  0.15374842212E+02  0.15427205613E+02  0.12700000000E+01 0.  1.
          4   -1    0    0  501    0  0.00000000000E+00 -0.00000000000E+00 -0.25361370120E+03  0.25361688102E+03  0.12700000000E+01 0.  1.
         25    2    1    2    0    0  0.00000000000E+00  0.00000000000E+00 -0.23823885899E+03  0.26904408663E+03  0.12500786623E+03 0.  0.
    9000005    1    3    3    0    0  0.27217765050E+02  0.35206671382E+01 -0.23996101074E+03  0.24152740736E+03  0.10000000000E+01 0.  0.
    9000005    1    3    3    0    0 -0.27217765050E+02 -0.35206671382E+01  0.17221517490E+01  0.27516679270E+02  0.10000000000E+01 0.  0.
<mgrwt>
<rscale>  0 0.12500787E+03</rscale>
<asrwt>0</asrwt>
<pdfrwt beam="2">  1        4 0.39021762E-01 0.12500787E+03</pdfrwt>
<pdfrwt beam="1">  1       -4 0.23696331E-02 0.12500787E+03</pdfrwt>
<totfact> 0.79639434E+03</totfact>
</mgrwt>
</event>
<event>
 5    1  0.3266101E-002  0.1249981E+03  0.7818608E-02  0.1235072E+00
          4   -1    0    0  501    0  0.00000000000E+00  0.00000000000E+00  0.14011830011E+02  0.14069267225E+02  0.12700000000E+01 0.  1.
         -4   -1    0    0    0  501 -0.00000000000E+00 -0.00000000000E+00 -0.27814473812E+03  0.27814763750E+03  0.12700000000E+01 0.  1.
         25    2    1    2    0    0  0.00000000000E+00  0.00000000000E+00 -0.26413290811E+03  0.29221690472E+03  0.12499810502E+03 0.  0.
    9000005    1    3    3    0    0 -0.41296782716E+02 -0.23949077080E+02 -0.22633831419E+03  0.23132015698E+03  0.10000000000E+01 0.  0.
    9000005    1    3    3    0    0  0.41296782716E+02  0.23949077080E+02 -0.37794593922E+02  0.60896747741E+02  0.10000000000E+01 0.  0.
<mgrwt>
<rscale>  0 0.12499811E+03</rscale>
<asrwt>0</asrwt>
<pdfrwt beam="1">  1        4 0.21603076E-02 0.12499811E+03</pdfrwt>
<pdfrwt beam="2">  1       -4 0.42796135E-01 0.12499811E+03</pdfrwt>
<totfact> 0.76588849E+03</totfact>
</mgrwt>
</event>
<event>
 5    1  0.3266101E-002  0.1249982E+03  0.7818608E-02  0.1235072E+00
          4   -1    0    0  501    0  0.00000000000E+00  0.00000000000E+00  0.62255131531E+01  0.63537322905E+01  0.12700000000E+01 0. -1.
         -4   -1    0    0    0  501 -0.00000000000E+00 -0.00000000000E+00 -0.62091642370E+03  0.62091772250E+03  0.12700000000E+01 0. -1.
         25    2    1    2    0    0  0.00000000000E+00  0.00000000000E+00 -0.61469091055E+03  0.62727145479E+03  0.12499824996E+03 0.  0.
    9000005    1    3    3    0    0  0.62241748795E+01 -0.32025398334E+02 -0.57481229369E+03  0.57573825604E+03  0.10000000000E+01 0.  0.
    9000005    1    3    3    0    0 -0.62241748795E+01  0.32025398334E+02 -0.39878616854E+02  0.51533198751E+02  0.10000000000E+01 0.  0.
<mgrwt>
<rscale>  0 0.12499825E+03</rscale>
<asrwt>0</asrwt>
<pdfrwt beam="1">  1        4 0.96773466E-03 0.12499825E+03</pdfrwt>
<pdfrwt beam="2">  1       -4 0.95535518E-01 0.12499825E+03</pdfrwt>
<totfact> 0.47192026E+03</totfact>
</mgrwt>
</event>
<event>
 5    1  0.3266101E-002  0.1250021E+03  0.7818608E-02  0.1235066E+00
          4   -1    0    0  501    0  0.00000000000E+00  0.00000000000E+00  0.16424794962E+03  0.16425285950E+03  0.12700000000E+01 0.  1.
         -4   -1    0    0    0  501 -0.00000000000E+00 -0.00000000000E+00 -0.23761213369E+02  0.23795128930E+02  0.12700000000E+01 0.  1.
         25    2    1    2    0    0  0.00000000000E+00  0.00000000000E+00  0.14048673625E+03  0.18804798843E+03  0.12500209154E+03 0.  0.
    9000005    1    3    3    0    0 -0.57612603655E+02 -0.98250659859E+01  0.10353142111E+03  0.11889280541E+03  0.10000000000E+01 0.  0.
    9000005    1    3    3    0    0  0.57612603655E+02  0.98250659859E+01  0.36955315143E+02  0.69155183022E+02  0.10000000000E+01 0.  0.
<mgrwt>
<rscale>  0 0.12500209E+03</rscale>
<asrwt>0</asrwt>
<pdfrwt beam="1">  1        4 0.25271902E-01 0.12500209E+03</pdfrwt>
<pdfrwt beam="2">  1       -4 0.36585578E-02 0.12500209E+03</pdfrwt>
<totfact> 0.92183751E+03</totfact>
</mgrwt>
</event>
<event>
 5    1  0.3266101E-002  0.1249996E+03  0.7818608E-02  0.1235070E+00
         -4   -1    0    0    0  501 -0.00000000000E+00  0.00000000000E+00  0.15815481845E+02  0.15866391083E+02  0.12700000000E+01 0. -1.
          4   -1    0    0  501    0  0.00000000000E+00 -0.00000000000E+00 -0.24653803746E+03  0.24654130854E+03  0.12700000000E+01 0. -1.
         25    2    1    2    0    0  0.00000000000E+00  0.00000000000E+00 -0.23072255562E+03  0.26240769962E+03  0.12499961260E+03 0.  0.
    9000005    1    3    3    0    0  0.38136299833E+02 -0.48301237481E+01 -0.11930648829E+02  0.40262238411E+02  0.10000000000E+01 0.  0.
    9000005    1    3    3    0    0 -0.38136299833E+02  0.48301237481E+01 -0.21879190679E+03  0.22214546121E+03  0.10000000000E+01 0.  0.
<mgrwt>
<rscale>  0 0.12499961E+03</rscale>
<asrwt>0</asrwt>
<pdfrwt beam="2">  1        4 0.37933094E-01 0.12499961E+03</pdfrwt>
<pdfrwt beam="1">  1       -4 0.24373190E-02 0.12499961E+03</pdfrwt>
<totfact> 0.80570053E+03</totfact>
</mgrwt>
</event>
<event>
 5    1  0.3266101E-002  0.1250025E+03  0.7818608E-02  0.1235065E+00
         -4   -1    0    0    0  501 -0.00000000000E+00  0.00000000000E+00  0.62832307567E+02  0.62845141214E+02  0.12700000000E+01 0. -1.
          4   -1    0    0  501    0  0.00000000000E+00 -0.00000000000E+00 -0.62146277442E+02  0.62159252730E+02  0.12700000000E+01 0. -1.
         25    2    1    2    0    0  0.00000000000E+00  0.00000000000E+00  0.68603012462E+00  0.12500439394E+03  0.12500251145E+03 0.  0.
    9000005    1    3    3    0    0  0.58315042021E+02 -0.20994551204E+02 -0.76565841914E+01  0.62458294787E+02  0.10000000000E+01 0.  0.
    9000005    1    3    3    0    0 -0.58315042021E+02  0.20994551204E+02  0.83426143160E+01  0.62546099157E+02  0.10000000000E+01 0.  0.
<mgrwt>
<rscale>  0 0.12500251E+03</rscale>
<asrwt>0</asrwt>
<pdfrwt beam="2">  1        4 0.95629510E-02 0.12500251E+03</pdfrwt>
<pdfrwt beam="1">  1       -4 0.96684942E-02 0.12500251E+03</pdfrwt>
<totfact> 0.10452174E+04</totfact>
</mgrwt>
</event>
<event>
 5    1  0.3266101E-002  0.1249984E+03  0.7818608E-02  0.1235072E+00
          4   -1    0    0  501    0  0.00000000000E+00  0.00000000000E+00  0.84279272858E+03  0.84279368546E+03  0.12700000000E+01 0.  1.
         -4   -1    0    0    0  501 -0.00000000000E+00 -0.00000000000E+00 -0.45467899545E+01  0.47208260814E+01  0.12700000000E+01 0.  1.
         25    2    1    2    0    0  0.00000000000E+00  0.00000000000E+00  0.83824593863E+03  0.84751451154E+03  0.12499837458E+03 0.  0.
    9000005    1    3    3    0    0  0.60730232804E+02  0.11799986986E+02  0.47890712672E+03  0.48288760275E+03  0.10000000000E+01 0.  0.
    9000005    1    3    3    0    0 -0.60730232804E+02 -0.11799986986E+02  0.35933881191E+03  0.36462690879E+03  0.10000000000E+01 0.  0.
<mgrwt>
<rscale>  0 0.12499837E+03</rscale>
<asrwt>0</asrwt>
<pdfrwt beam="1">  1        4 0.12967386E+00 0.12499837E+03</pdfrwt>
<pdfrwt beam="2">  1       -4 0.71296725E-03 0.12499837E+03</pdfrwt>
<totfact> 0.36230538E+03</totfact>
</mgrwt>
</event>
<event>
 5    1  0.3266101E-002  0.1249964E+03  0.7818608E-02  0.1235075E+00
          4   -1    0    0  501    0  0.00000000000E+00  0.00000000000E+00  0.18730954877E+02  0.18773959908E+02  0.12700000000E+01 0. -1.
         -4   -1    0    0    0  501 -0.00000000000E+00 -0.00000000000E+00 -0.20824909295E+03  0.20825296544E+03  0.12700000000E+01 0. -1.
         25    2    1    2    0    0  0.00000000000E+00  0.00000000000E+00 -0.18951813807E+03  0.22702692535E+03  0.12499640064E+03 0.  0.
    9000005    1    3    3    0    0 -0.18815008683E+02 -0.52055287416E+02 -0.14743920985E+03  0.15748993016E+03  0.10000000000E+01 0.  0.
    9000005    1    3    3    0    0  0.18815008683E+02  0.52055287416E+02 -0.42078928222E+02  0.69536995189E+02  0.10000000000E+01 0.  0.
<mgrwt>
<rscale>  0 0.12499640E+03</rscale>
<asrwt>0</asrwt>
<pdfrwt beam="1">  1        4 0.28852915E-02 0.12499640E+03</pdfrwt>
<pdfrwt beam="2">  1       -4 0.32041926E-01 0.12499640E+03</pdfrwt>
<totfact> 0.85775106E+03</totfact>
</mgrwt>
</event>
<event>
 5    1  0.3266101E-002  0.1250039E+03  0.7818608E-02  0.1235063E+00
         -4   -1    0    0    0  501 -0.00000000000E+00  0.00000000000E+00  0.65110686745E+02  0.65123071399E+02  0.12700000000E+01 0.  1.
          4   -1    0    0  501    0  0.00000000000E+00 -0.00000000000E+00 -0.59972911798E+02  0.59986357195E+02  0.12700000000E+01 0.  1.
         25    2    1    2    0    0  0.00000000000E+00  0.00000000000E+00  0.51377749473E+01  0.12510942859E+03  0.12500388951E+03 0.  0.
    9000005    1    3    3    0    0 -0.27147724085E+02  0.25848947885E+02 -0.47476590176E+02  0.60499534250E+02  0.10000000000E+01 0.  0.
    9000005    1    3    3    0    0  0.27147724085E+02 -0.25848947885E+02  0.52614365123E+02  0.64609894343E+02  0.10000000000E+01 0.  0.
<mgrwt>
<rscale>  0 0.12500389E+03</rscale>
<asrwt>0</asrwt>
<pdfrwt beam="2">  1        4 0.92285887E-02 0.12500389E+03</pdfrwt>
<pdfrwt beam="1">  1       -4 0.10019016E-01 0.12500389E+03</pdfrwt>
<totfact> 0.10449568E+04</totfact>
</mgrwt>
</event>
<event>
 5    1  0.3266101E-002  0.1250060E+03  0.7818608E-02  0.1235060E+00
         -4   -1    0    0    0  501 -0.00000000000E+00  0.00000000000E+00  0.26720586858E+02  0.26750750681E+02  0.12700000000E+01 0. -1.
          4   -1    0    0  501    0  0.00000000000E+00 -0.00000000000E+00 -0.14608735510E+03  0.14609287532E+03  0.12700000000E+01 0. -1.
         25    2    1    2    0    0  0.00000000000E+00  0.00000000000E+00 -0.11936676824E+03  0.17284362600E+03  0.12500597462E+03 0.  0.
    9000005    1    3    3    0    0  0.18712000286E+02 -0.94859131445E+00  0.22752638211E+02  0.29491038058E+02  0.10000000000E+01 0.  0.
    9000005    1    3    3    0    0 -0.18712000286E+02  0.94859131445E+00 -0.14211940645E+03  0.14335258794E+03  0.10000000000E+01 0.  0.
<mgrwt>
<rscale>  0 0.12500597E+03</rscale>
<asrwt>0</asrwt>
<pdfrwt beam="2">  1        4 0.22477722E-01 0.12500597E+03</pdfrwt>
<pdfrwt beam="1">  1       -4 0.41136045E-02 0.12500597E+03</pdfrwt>
<totfact> 0.94908542E+03</totfact>
</mgrwt>
</event>
<event>
 5    1  0.3266101E-002  0.1250029E+03  0.7818608E-02  0.1235065E+00
         -4   -1    0    0    0  501 -0.00000000000E+00  0.00000000000E+00  0.82180843273E+01  0.83156364766E+01  0.12700000000E+01 0. -1.
          4   -1    0    0  501    0  0.00000000000E+00 -0.00000000000E+00 -0.47244271791E+03  0.47244442488E+03  0.12700000000E+01 0. -1.
         25    2    1    2    0    0  0.00000000000E+00  0.00000000000E+00 -0.46422463358E+03  0.48076006136E+03  0.12500290467E+03 0.  0.
    9000005    1    3    3    0    0 -0.52422970219E+01 -0.15638404371E+01  0.73142769587E+01  0.91883579821E+01  0.10000000000E+01 0.  0.
    9000005    1    3    3    0    0  0.52422970219E+01  0.15638404371E+01 -0.47153891054E+03  0.47157170338E+03  0.10000000000E+01 0.  0.
<mgrwt>
<rscale>  0 0.12500290E+03</rscale>
<asrwt>0</asrwt>
<pdfrwt beam="2">  1        4 0.72691109E-01 0.12500290E+03</pdfrwt>
<pdfrwt beam="1">  1       -4 0.12719564E-02 0.12500290E+03</pdfrwt>
<totfact> 0.57385015E+03</totfact>
</mgrwt>
</event>
<event>
 5    1  0.3266101E-002  0.1250014E+03  0.7818608E-02  0.1235067E+00
         -4   -1    0    0    0  501 -0.00000000000E+00  0.00000000000E+00  0.16970276254E+03  0.16970751461E+03  0.12700000000E+01 0.  1.
          4   -1    0    0  501    0  0.00000000000E+00 -0.00000000000E+00 -0.22996097453E+02  0.23031139748E+02  0.12700000000E+01 0.  1.
         25    2    1    2    0    0  0.00000000000E+00  0.00000000000E+00  0.14670666509E+03  0.19273865435E+03  0.12500137320E+03 0.  0.
    9000005    1    3    3    0    0 -0.70804512665E+01 -0.62042818617E+02  0.69610726626E+02  0.93520572034E+02  0.10000000000E+01 0.  0.
    9000005    1    3    3    0    0  0.70804512665E+01  0.62042818617E+02  0.77095938462E+02  0.99218082321E+02  0.10000000000E+01 0.  0.
<mgrwt>
<rscale>  0 0.12500137E+03</rscale>
<asrwt>0</asrwt>
<pdfrwt beam="2">  1        4 0.35409224E-02 0.12500137E+03</pdfrwt>
<pdfrwt beam="1">  1       -4 0.26111177E-01 0.12500137E+03</pdfrwt>
<totfact> 0.91370160E+03</totfact>
</mgrwt>
</event>
<event>
 5    1  0.3266101E-002  0.1250029E+03  0.7818608E-02  0.1235065E+00
          4   -1    0    0  501    0  0.00000000000E+00  0.00000000000E+00  0.63739171686E+02  0.63751822775E+02  0.12700000000E+01 0. -1.
         -4   -1    0    0    0  501 -0.00000000000E+00 -0.00000000000E+00 -0.61262482525E+02  0.61275644959E+02  0.12700000000E+01 0. -1.
         25    2    1    2    0    0  0.00000000000E+00  0.00000000000E+00  0.24766891606E+01  0.12502746773E+03  0.12500293476E+03 0.  0.
    9000005    1    3    3    0    0  0.58208628719E+02 -0.16069853222E+02  0.17333388440E+02  0.62832563172E+02  0.10000000000E+01 0.  0.
    9000005    1    3    3    0    0 -0.58208628719E+02  0.16069853222E+02 -0.14856699280E+02  0.62194904562E+02  0.10000000000E+01 0.  0.
<mgrwt>
<rscale>  0 0.12500293E+03</rscale>
<asrwt>0</asrwt>
<pdfrwt beam="1">  1        4 0.98080121E-02 0.12500293E+03</pdfrwt>
<pdfrwt beam="2">  1       -4 0.94269830E-02 0.12500293E+03</pdfrwt>
<totfact> 0.10451573E+04</totfact>
</mgrwt>
</event>
<event>
 5    1  0.3266101E-002  0.1249974E+03  0.7818608E-02  0.1235073E+00
         -4   -1    0    0    0  501 -0.00000000000E+00  0.00000000000E+00  0.38072901909E+03  0.38073113726E+03  0.12700000000E+01 0. -1.
          4   -1    0    0  501    0  0.00000000000E+00 -0.00000000000E+00 -0.10218033621E+02  0.10296655335E+02  0.12700000000E+01 0. -1.
         25    2    1    2    0    0  0.00000000000E+00  0.00000000000E+00  0.37051098547E+03  0.39102779260E+03  0.12499737688E+03 0.  0.
    9000005    1    3    3    0    0  0.55066024420E+02  0.35582239943E+01  0.93507650961E+02  0.10857996496E+03  0.10000000000E+01 0.  0.
    9000005    1    3    3    0    0 -0.55066024420E+02 -0.35582239943E+01  0.27700333451E+03  0.28244782763E+03  0.10000000000E+01 0.  0.
<mgrwt>
<rscale>  0 0.12499738E+03</rscale>
<asrwt>0</asrwt>
<pdfrwt beam="2">  1        4 0.15782161E-02 0.12499738E+03</pdfrwt>
<pdfrwt beam="1">  1       -4 0.58579901E-01 0.12499738E+03</pdfrwt>
<totfact> 0.65438663E+03</totfact>
</mgrwt>
</event>
<event>
 5    1  0.3266101E-002  0.1250063E+03  0.7818608E-02  0.1235059E+00
          4   -1    0    0  501    0  0.00000000000E+00  0.00000000000E+00  0.32787202740E+03  0.32787448704E+03  0.12700000000E+01 0. -1.
         -4   -1    0    0    0  501 -0.00000000000E+00 -0.00000000000E+00 -0.11878789731E+02  0.11946486742E+02  0.12700000000E+01 0. -1.
         25    2    1    2    0    0  0.00000000000E+00  0.00000000000E+00  0.31599323767E+03  0.33982097378E+03  0.12500627172E+03 0.  0.
    9000005    1    3    3    0    0 -0.27633637956E+02 -0.32118449976E+02  0.33113489522E+02  0.53783974973E+02  0.10000000000E+01 0.  0.
    9000005    1    3    3    0    0  0.27633637956E+02  0.32118449976E+02  0.28287974815E+03  0.28603699881E+03  0.10000000000E+01 0.  0.
<mgrwt>
<rscale>  0 0.12500627E+03</rscale>
<asrwt>0</asrwt>
<pdfrwt beam="1">  1        4 0.50447247E-01 0.12500627E+03</pdfrwt>
<pdfrwt beam="2">  1       -4 0.18329028E-02 0.12500627E+03</pdfrwt>
<totfact> 0.70849242E+03</totfact>
</mgrwt>
</event>
<event>
 5    1  0.3266101E-002  0.1250005E+03  0.7818608E-02  0.1235069E+00
          4   -1    0    0  501    0  0.00000000000E+00  0.00000000000E+00  0.73253290381E+01  0.74346045972E+01  0.12700000000E+01 0. -1.
         -4   -1    0    0    0  501 -0.00000000000E+00 -0.00000000000E+00 -0.52919859972E+03  0.52920012363E+03  0.12700000000E+01 0. -1.
         25    2    1    2    0    0  0.00000000000E+00  0.00000000000E+00 -0.52187327069E+03  0.53663472823E+03  0.12500048353E+03 0.  0.
    9000005    1    3    3    0    0  0.50363452571E+01 -0.43097238484E+01  0.58328805688E+01  0.88859996021E+01  0.10000000000E+01 0.  0.
    9000005    1    3    3    0    0 -0.50363452571E+01  0.43097238484E+01 -0.52770615125E+03  0.52774872863E+03  0.10000000000E+01 0.  0.
<mgrwt>
<rscale>  0 0.12500048E+03</rscale>
<asrwt>0</asrwt>
<pdfrwt beam="1">  1        4 0.11354972E-02 0.12500048E+03</pdfrwt>
<pdfrwt beam="2">  1       -4 0.81423662E-01 0.12500048E+03</pdfrwt>
<totfact> 0.53129380E+03</totfact>
</mgrwt>
</event>
<event>
 5    1  0.3266101E-002  0.1249604E+03  0.7818608E-02  0.1235131E+00
          4   -1    0    0  501    0  0.00000000000E+00  0.00000000000E+00  0.12739756846E+03  0.12740389849E+03  0.12700000000E+01 0.  1.
         -4   -1    0    0    0  501 -0.00000000000E+00 -0.00000000000E+00 -0.30622189003E+02  0.30648513166E+02  0.12700000000E+01 0.  1.
         25    2    1    2    0    0  0.00000000000E+00  0.00000000000E+00  0.96775379460E+02  0.15805241165E+03  0.12496035676E+03 0.  0.
    9000005    1    3    3    0    0 -0.42470110901E+02 -0.12720663470E+02  0.10405770997E+03  0.11311291970E+03  0.10000000000E+01 0.  0.
    9000005    1    3    3    0    0  0.42470110901E+02  0.12720663470E+02 -0.72823305141E+01  0.44939491951E+02  0.10000000000E+01 0.  0.
<mgrwt>
<rscale>  0 0.12496036E+03</rscale>
<asrwt>0</asrwt>
<pdfrwt beam="1">  1        4 0.19602138E-01 0.12496036E+03</pdfrwt>
<pdfrwt beam="2">  1       -4 0.47136179E-02 0.12496036E+03</pdfrwt>
<totfact> 0.97806729E+03</totfact>
</mgrwt>
</event>
<event>
 5    1  0.3266101E-002  0.1250036E+03  0.7818608E-02  0.1235064E+00
         -4   -1    0    0    0  501 -0.00000000000E+00  0.00000000000E+00  0.34472075679E+02  0.34495462043E+02  0.12700000000E+01 0. -1.
          4   -1    0    0  501    0  0.00000000000E+00 -0.00000000000E+00 -0.11325757290E+03  0.11326469318E+03  0.12700000000E+01 0. -1.
         25    2    1    2    0    0  0.00000000000E+00  0.00000000000E+00 -0.78785497225E+02  0.14776015522E+03  0.12500363554E+03 0.  0.
    9000005    1    3    3    0    0  0.21419619834E+02 -0.19014776728E+02  0.26262643565E+02  0.38872719160E+02  0.10000000000E+01 0.  0.
    9000005    1    3    3    0    0 -0.21419619834E+02  0.19014776728E+02 -0.10504814079E+03  0.10888743606E+03  0.10000000000E+01 0.  0.
<mgrwt>
<rscale>  0 0.12500364E+03</rscale>
<asrwt>0</asrwt>
<pdfrwt beam="2">  1        4 0.17426588E-01 0.12500364E+03</pdfrwt>
<pdfrwt beam="1">  1       -4 0.53057430E-02 0.12500364E+03</pdfrwt>
<totfact> 0.99743902E+03</totfact>
</mgrwt>
</event>
<event>
 5    1  0.3266101E-002  0.1250001E+03  0.7818608E-02  0.1235069E+00
         -4   -1    0    0    0  501 -0.00000000000E+00  0.00000000000E+00  0.22379154957E+03  0.22379515312E+03  0.12700000000E+01 0. -1.
          4   -1    0    0  501    0  0.00000000000E+00 -0.00000000000E+00 -0.17428027863E+02  0.17474239760E+02  0.12700000000E+01 0. -1.
         25    2    1    2    0    0  0.00000000000E+00  0.00000000000E+00  0.20636352171E+03  0.24126939288E+03  0.12500006739E+03 0.  0.
    9000005    1    3    3    0    0 -0.39549267344E+02 -0.45695529174E+02  0.13388445699E+03  0.14689545179E+03  0.10000000000E+01 0.  0.
    9000005    1    3    3    0    0  0.39549267344E+02  0.45695529174E+02  0.72479064724E+02  0.94373941092E+02  0.10000000000E+01 0.  0.
<mgrwt>
<rscale>  0 0.12500007E+03</rscale>
<asrwt>0</asrwt>
<pdfrwt beam="2">  1        4 0.26850672E-02 0.12500007E+03</pdfrwt>
<pdfrwt beam="1">  1       -4 0.34433299E-01 0.12500007E+03</pdfrwt>
<totfact> 0.83608552E+03</totfact>
</mgrwt>
</event>
<event>
 5    1  0.3266101E-002  0.1250001E+03  0.7818608E-02  0.1235069E+00
         -4   -1    0    0    0  501 -0.00000000000E+00  0.00000000000E+00  0.63599421927E+02  0.63612100810E+02  0.12700000000E+01 0.  1.
          4   -1    0    0  501    0  0.00000000000E+00 -0.00000000000E+00 -0.61394305254E+02  0.61407439432E+02  0.12700000000E+01 0.  1.
         25    2    1    2    0    0  0.00000000000E+00  0.00000000000E+00  0.22051166735E+01  0.12501954024E+03  0.12500009161E+03 0.  0.
    9000005    1    3    3    0    0  0.55792051578E+02 -0.16577395690E+02 -0.21653842205E+02  0.62108388720E+02  0.10000000000E+01 0.  0.
    9000005    1    3    3    0    0 -0.55792051578E+02  0.16577395690E+02  0.23858958879E+02  0.62911151523E+02  0.10000000000E+01 0.  0.
<mgrwt>
<rscale>  0 0.12500009E+03</rscale>
<asrwt>0</asrwt>
<pdfrwt beam="2">  1        4 0.94472634E-02 0.12500009E+03</pdfrwt>
<pdfrwt beam="1">  1       -4 0.97865120E-02 0.12500009E+03</pdfrwt>
<totfact> 0.10452416E+04</totfact>
</mgrwt>
</event>
<event>
 5    1  0.3266101E-002  0.1249999E+03  0.7818608E-02  0.1235069E+00
         -4   -1    0    0    0  501 -0.00000000000E+00  0.00000000000E+00  0.36386130713E+02  0.36408287632E+02  0.12700000000E+01 0.  1.
          4   -1    0    0  501    0  0.00000000000E+00 -0.00000000000E+00 -0.10729669234E+03  0.10730420815E+03  0.12700000000E+01 0.  1.
         25    2    1    2    0    0  0.00000000000E+00  0.00000000000E+00 -0.70910561625E+02  0.14371249578E+03  0.12499989478E+03 0.  0.
    9000005    1    3    3    0    0 -0.28729939869E+02 -0.12291711885E+02 -0.97674688397E+02  0.10255652285E+03  0.10000000000E+01 0.  0.
    9000005    1    3    3    0    0  0.28729939869E+02  0.12291711885E+02  0.26764126772E+02  0.41155972930E+02  0.10000000000E+01 0.  0.
<mgrwt>
<rscale>  0 0.12499989E+03</rscale>
<asrwt>0</asrwt>
<pdfrwt beam="2">  1        4 0.16509466E-01 0.12499989E+03</pdfrwt>
<pdfrwt beam="1">  1       -4 0.56001488E-02 0.12499989E+03</pdfrwt>
<totfact> 0.10057237E+04</totfact>
</mgrwt>
</event>
<event>
 5    1  0.3266101E-002  0.1249979E+03  0.7818608E-02  0.1235073E+00
         -4   -1    0    0    0  501 -0.00000000000E+00  0.00000000000E+00  0.29640081732E+02  0.29667277345E+02  0.12700000000E+01 0.  1.
          4   -1    0    0  501    0  0.00000000000E+00 -0.00000000000E+00 -0.13169433459E+03  0.13170045810E+03  0.12700000000E+01 0.  1.
         25    2    1    2    0    0  0.00000000000E+00  0.00000000000E+00 -0.10205425286E+03  0.16136773544E+03  0.12499790204E+03 0.  0.
    9000005    1    3    3    0    0  0.26826643551E+01 -0.19635827180E+01  0.29532169932E+02  0.29735524310E+02  0.10000000000E+01 0.  0.
    9000005    1    3    3    0    0 -0.26826643551E+01  0.19635827180E+01 -0.13158642279E+03  0.13163221113E+03  0.10000000000E+01 0.  0.
<mgrwt>
<rscale>  0 0.12499790E+03</rscale>
<asrwt>0</asrwt>
<pdfrwt beam="2">  1        4 0.20263230E-01 0.12499790E+03</pdfrwt>
<pdfrwt beam="1">  1       -4 0.45625756E-02 0.12499790E+03</pdfrwt>
<totfact> 0.97084320E+03</totfact>
</mgrwt>
</event>
<event>
 5    1  0.3266101E-002  0.1250014E+03  0.7818608E-02  0.1235067E+00
         -4   -1    0    0    0  501 -0.00000000000E+00  0.00000000000E+00  0.11325567459E+03  0.11326279498E+03  0.12700000000E+01 0.  1.
          4   -1    0    0  501    0  0.00000000000E+00 -0.00000000000E+00 -0.34471445140E+02  0.34494831932E+02  0.12700000000E+01 0.  1.
         25    2    1    2    0    0  0.00000000000E+00  0.00000000000E+00  0.78784229452E+02  0.14775762691E+03  0.12500144600E+03 0.  0.
    9000005    1    3    3    0    0  0.49895666308E+02 -0.37224484411E+02  0.32906926489E+02  0.70420917112E+02  0.10000000000E+01 0.  0.
    9000005    1    3    3    0    0 -0.49895666308E+02  0.37224484411E+02  0.45877302962E+02  0.77336709802E+02  0.10000000000E+01 0.  0.
<mgrwt>
<rscale>  0 0.12500145E+03</rscale>
<asrwt>0</asrwt>
<pdfrwt beam="2">  1        4 0.53056460E-02 0.12500145E+03</pdfrwt>
<pdfrwt beam="1">  1       -4 0.17426297E-01 0.12500145E+03</pdfrwt>
<totfact> 0.99749327E+03</totfact>
</mgrwt>
</event>
<event>
 5    1  0.3266101E-002  0.1249693E+03  0.7818608E-02  0.1235117E+00
          4   -1    0    0  501    0  0.00000000000E+00  0.00000000000E+00  0.51955614227E+02  0.51971133812E+02  0.12700000000E+01 0. -1.
         -4   -1    0    0    0  501 -0.00000000000E+00 -0.00000000000E+00 -0.75115350467E+02  0.75126085854E+02  0.12700000000E+01 0. -1.
         25    2    1    2    0    0  0.00000000000E+00  0.00000000000E+00 -0.23159736240E+02  0.12709721967E+03  0.12496931569E+03 0.  0.
    9000005    1    3    3    0    0 -0.39379645050E+02 -0.31036545209E+02  0.26328235998E+02  0.56640970980E+02  0.10000000000E+01 0.  0.
    9000005    1    3    3    0    0  0.39379645050E+02  0.31036545209E+02 -0.49487972238E+02  0.70456248686E+02  0.10000000000E+01 0.  0.
<mgrwt>
<rscale>  0 0.12496932E+03</rscale>
<asrwt>0</asrwt>
<pdfrwt beam="1">  1        4 0.79951910E-02 0.12496932E+03</pdfrwt>
<pdfrwt beam="2">  1       -4 0.11558227E-01 0.12496932E+03</pdfrwt>
<totfact> 0.10414246E+04</totfact>
</mgrwt>
</event>
<event>
 5    1  0.3266101E-002  0.1249987E+03  0.7818608E-02  0.1235071E+00
          4   -1    0    0  501    0  0.00000000000E+00  0.00000000000E+00  0.65326115122E+02  0.65338458942E+02  0.12700000000E+01 0. -1.
         -4   -1    0    0    0  501 -0.00000000000E+00 -0.00000000000E+00 -0.59770155151E+02  0.59783646148E+02  0.12700000000E+01 0. -1.
         25    2    1    2    0    0  0.00000000000E+00  0.00000000000E+00  0.55559599712E+01  0.12512210509E+03  0.12499868996E+03 0.  0.
    9000005    1    3    3    0    0  0.48662345624E+02 -0.39124282388E+02  0.53171691477E+01  0.62673803472E+02  0.10000000000E+01 0.  0.
    9000005    1    3    3    0    0 -0.48662345624E+02  0.39124282388E+02  0.23879082349E+00  0.62448301618E+02  0.10000000000E+01 0.  0.
<mgrwt>
<rscale>  0 0.12499869E+03</rscale>
<asrwt>0</asrwt>
<pdfrwt beam="1">  1        4 0.10052159E-01 0.12499869E+03</pdfrwt>
<pdfrwt beam="2">  1       -4 0.91973958E-02 0.12499869E+03</pdfrwt>
<totfact> 0.10450521E+04</totfact>
</mgrwt>
</event>
<event>
 5    1  0.3266101E-002  0.1249932E+03  0.7818608E-02  0.1235080E+00
          4   -1    0    0  501    0  0.00000000000E+00  0.00000000000E+00  0.47751300211E+01  0.49411301054E+01  0.12700000000E+01 0. -1.
         -4   -1    0    0    0  501 -0.00000000000E+00 -0.00000000000E+00 -0.80381052285E+03  0.80381152613E+03  0.12700000000E+01 0. -1.
         25    2    1    2    0    0  0.00000000000E+00  0.00000000000E+00 -0.79903539283E+03  0.80875265624E+03  0.12499319973E+03 0.  0.
    9000005    1    3    3    0    0 -0.48124026011E+02  0.34484416716E+02 -0.52888117472E+03  0.53218548819E+03  0.10000000000E+01 0.  0.
    9000005    1    3    3    0    0  0.48124026011E+02 -0.34484416716E+02 -0.27015421811E+03  0.27656716804E+03  0.10000000000E+01 0.  0.
<mgrwt>
<rscale>  0 0.12499320E+03</rscale>
<asrwt>0</asrwt>
<pdfrwt beam="1">  1        4 0.74748244E-03 0.12499320E+03</pdfrwt>
<pdfrwt beam="2">  1       -4 0.12367590E+00 0.12499320E+03</pdfrwt>
<totfact> 0.37882615E+03</totfact>
</mgrwt>
</event>
<event>
 5    1  0.3266101E-002  0.1249990E+03  0.7818608E-02  0.1235071E+00
         -4   -1    0    0    0  501 -0.00000000000E+00  0.00000000000E+00  0.29755752201E+03  0.29756023223E+03  0.12700000000E+01 0. -1.
          4   -1    0    0  501    0  0.00000000000E+00 -0.00000000000E+00 -0.13094013169E+02  0.13155458216E+02  0.12700000000E+01 0. -1.
         25    2    1    2    0    0  0.00000000000E+00  0.00000000000E+00  0.28446350884E+03  0.31071569044E+03  0.12499900970E+03 0.  0.
    9000005    1    3    3    0    0  0.45005923426E+02  0.34144318768E+02  0.20864445002E+03  0.21615937216E+03  0.10000000000E+01 0.  0.
    9000005    1    3    3    0    0 -0.45005923426E+02 -0.34144318768E+02  0.75819058815E+02  0.94556318282E+02  0.10000000000E+01 0.  0.
<mgrwt>
<rscale>  0 0.12499901E+03</rscale>
<asrwt>0</asrwt>
<pdfrwt beam="2">  1        4 0.20193987E-02 0.12499901E+03</pdfrwt>
<pdfrwt beam="1">  1       -4 0.45783013E-01 0.12499901E+03</pdfrwt>
<totfact> 0.74275677E+03</totfact>
</mgrwt>
</event>
<event>
 5    1  0.3266101E-002  0.1250015E+03  0.7818608E-02  0.1235067E+00
          4   -1    0    0  501    0  0.00000000000E+00  0.00000000000E+00  0.66114740945E+02  0.66126937554E+02  0.12700000000E+01 0. -1.
         -4   -1    0    0    0  501 -0.00000000000E+00 -0.00000000000E+00 -0.59059853169E+02  0.59073506383E+02  0.12700000000E+01 0. -1.
         25    2    1    2    0    0  0.00000000000E+00  0.00000000000E+00  0.70548877762E+01  0.12520044394E+03  0.12500151887E+03 0.  0.
    9000005    1    3    3    0    0 -0.20925091031E+02  0.24575418618E+02  0.57124603293E+02  0.65620354588E+02  0.10000000000E+01 0.  0.
    9000005    1    3    3    0    0  0.20925091031E+02 -0.24575418618E+02 -0.50069715517E+02  0.59580089349E+02  0.10000000000E+01 0.  0.
<mgrwt>
<rscale>  0 0.12500152E+03</rscale>
<asrwt>0</asrwt>
<pdfrwt beam="1">  1        4 0.10173487E-01 0.12500152E+03</pdfrwt>
<pdfrwt beam="2">  1       -4 0.90881198E-02 0.12500152E+03</pdfrwt>
<totfact> 0.10448152E+04</totfact>
</mgrwt>
</event>
<event>
 5    1  0.3266101E-002  0.1250012E+03  0.7818608E-02  0.1235067E+00
          4   -1    0    0  501    0  0.00000000000E+00  0.00000000000E+00  0.12296873179E+04  0.12296879737E+04  0.12700000000E+01 0.  1.
         -4   -1    0    0    0  501 -0.00000000000E+00 -0.00000000000E+00 -0.30490661260E+01  0.33029841418E+01  0.12700000000E+01 0.  1.
         25    2    1    2    0    0  0.00000000000E+00  0.00000000000E+00  0.12266382518E+04  0.12329909579E+04  0.12500120578E+03 0.  0.
    9000005    1    3    3    0    0  0.66062996466E+01  0.41837464572E+01  0.12248909353E+04  0.12249163034E+04  0.10000000000E+01 0.  0.
    9000005    1    3    3    0    0 -0.66062996466E+01 -0.41837464572E+01  0.17473164347E+01  0.80746544299E+01  0.10000000000E+01 0.  0.
<mgrwt>
<rscale>  0 0.12500121E+03</rscale>
<asrwt>0</asrwt>
<pdfrwt beam="1">  1        4 0.18920223E+00 0.12500121E+03</pdfrwt>
<pdfrwt beam="2">  1       -4 0.48866973E-03 0.12500121E+03</pdfrwt>
<totfact> 0.23864556E+03</totfact>
</mgrwt>
</event>
<event>
 5    1  0.3266101E-002  0.1249996E+03  0.7818608E-02  0.1235070E+00
          4   -1    0    0  501    0  0.00000000000E+00  0.00000000000E+00  0.48777934189E+02  0.48794464478E+02  0.12700000000E+01 0.  1.
         -4   -1    0    0    0  501 -0.00000000000E+00 -0.00000000000E+00 -0.80046711600E+02  0.80056785708E+02  0.12700000000E+01 0.  1.
         25    2    1    2    0    0  0.00000000000E+00  0.00000000000E+00 -0.31268777411E+02  0.12885125019E+03  0.12499963294E+03 0.  0.
    9000005    1    3    3    0    0  0.18434942289E+02  0.49692727135E+02  0.18491794523E+02  0.56144106476E+02  0.10000000000E+01 0.  0.
    9000005    1    3    3    0    0 -0.18434942289E+02 -0.49692727135E+02 -0.49760571934E+02  0.72707143710E+02  0.10000000000E+01 0.  0.
<mgrwt>
<rscale>  0 0.12499963E+03</rscale>
<asrwt>0</asrwt>
<pdfrwt beam="1">  1        4 0.75063441E-02 0.12499963E+03</pdfrwt>
<pdfrwt beam="2">  1       -4 0.12316925E-01 0.12499963E+03</pdfrwt>
<totfact> 0.10369230E+04</totfact>
</mgrwt>
</event>
<event>
 5    1  0.3266101E-002  0.1250032E+03  0.7818608E-02  0.1235064E+00
          4   -1    0    0  501    0  0.00000000000E+00  0.00000000000E+00  0.42637598295E+01  0.44488816441E+01  0.12700000000E+01 0.  1.
         -4   -1    0    0    0  501 -0.00000000000E+00 -0.00000000000E+00 -0.89654563981E+03  0.89654653932E+03  0.12700000000E+01 0.  1.
         25    2    1    2    0    0  0.00000000000E+00  0.00000000000E+00 -0.89228187998E+03  0.90099542096E+03  0.12500318097E+03 0.  0.
    9000005    1    3    3    0    0  0.21864692731E+02 -0.31682494092E+02 -0.80098072951E+03  0.80190583878E+03  0.10000000000E+01 0.  0.
    9000005    1    3    3    0    0 -0.21864692731E+02  0.31682494092E+02 -0.91301150471E+02  0.99089582184E+02  0.10000000000E+01 0.  0.
<mgrwt>
<rscale>  0 0.12500318E+03</rscale>
<asrwt>0</asrwt>
<pdfrwt beam="1">  1        4 0.67027309E-03 0.12500318E+03</pdfrwt>
<pdfrwt beam="2">  1       -4 0.13794426E+00 0.12500318E+03</pdfrwt>
<totfact> 0.34119495E+03</totfact>
</mgrwt>
</event>
<event>
 5    1  0.3266101E-002  0.1250025E+03  0.7818608E-02  0.1235065E+00
         -4   -1    0    0    0  501 -0.00000000000E+00  0.00000000000E+00  0.10630476340E+03  0.10631234934E+03  0.12700000000E+01 0.  1.
          4   -1    0    0  501    0  0.00000000000E+00 -0.00000000000E+00 -0.36727334881E+02  0.36749286081E+02  0.12700000000E+01 0.  1.
         25    2    1    2    0    0  0.00000000000E+00  0.00000000000E+00  0.69577428517E+02  0.14306163542E+03  0.12500245185E+03 0.  0.
    9000005    1    3    3    0    0  0.23637167382E+02 -0.57124536445E+02  0.24332304392E+02  0.66445386468E+02  0.10000000000E+01 0.  0.
    9000005    1    3    3    0    0 -0.23637167382E+02  0.57124536445E+02  0.45245124126E+02  0.76616248949E+02  0.10000000000E+01 0.  0.
<mgrwt>
<rscale>  0 0.12500245E+03</rscale>
<asrwt>0</asrwt>
<pdfrwt beam="2">  1        4 0.56526313E-02 0.12500245E+03</pdfrwt>
<pdfrwt beam="1">  1       -4 0.16356851E-01 0.12500245E+03</pdfrwt>
<totfact> 0.10069965E+04</totfact>
</mgrwt>
</event>
<event>
 5    1  0.3266101E-002  0.1250000E+03  0.7818608E-02  0.1235069E+00
         -4   -1    0    0    0  501 -0.00000000000E+00  0.00000000000E+00  0.39875790474E+02  0.39896009398E+02  0.12700000000E+01 0.  1.
          4   -1    0    0  501    0  0.00000000000E+00 -0.00000000000E+00 -0.97911295277E+02  0.97919531468E+02  0.12700000000E+01 0.  1.
         25    2    1    2    0    0  0.00000000000E+00  0.00000000000E+00 -0.58035504803E+02  0.13781554087E+03  0.12500001395E+03 0.  0.
    9000005    1    3    3    0    0  0.36464685467E+02 -0.38022154857E+02  0.80423703924E+01  0.53301381481E+02  0.10000000000E+01 0.  0.
    9000005    1    3    3    0    0 -0.36464685467E+02  0.38022154857E+02 -0.66077875196E+02  0.84514159385E+02  0.10000000000E+01 0.  0.
<mgrwt>
<rscale>  0 0.12500001E+03</rscale>
<asrwt>0</asrwt>
<pdfrwt beam="2">  1        4 0.15065465E-01 0.12500001E+03</pdfrwt>
<pdfrwt beam="1">  1       -4 0.61369259E-02 0.12500001E+03</pdfrwt>
<totfact> 0.10179058E+04</totfact>
</mgrwt>
</event>
<event>
 5    1  0.3266101E-002  0.1249860E+03  0.7818608E-02  0.1235091E+00
         -4   -1    0    0    0  501 -0.00000000000E+00  0.00000000000E+00  0.62467507336E+02  0.62480415914E+02  0.12700000000E+01 0. -1.
          4   -1    0    0  501    0  0.00000000000E+00 -0.00000000000E+00 -0.62492637744E+02  0.62505541132E+02  0.12700000000E+01 0. -1.
         25    2    1    2    0    0  0.00000000000E+00  0.00000000000E+00 -0.25130407760E-01  0.12498595705E+03  0.12498595452E+03 0.  0.
    9000005    1    3    3    0    0  0.51905527734E+01 -0.28803426517E+02 -0.55219386456E+02  0.62504078729E+02  0.10000000000E+01 0.  0.
    9000005    1    3    3    0    0 -0.51905527734E+01  0.28803426517E+02  0.55194256048E+02  0.62481878316E+02  0.10000000000E+01 0.  0.
<mgrwt>
<rscale>  0 0.12498595E+03</rscale>
<asrwt>0</asrwt>
<pdfrwt beam="2">  1        4 0.96162375E-02 0.12498595E+03</pdfrwt>
<pdfrwt beam="1">  1       -4 0.96123713E-02 0.12498595E+03</pdfrwt>
<totfact> 0.10456486E+04</totfact>
</mgrwt>
</event>
<event>
 5    1  0.3266101E-002  0.1249999E+03  0.7818608E-02  0.1235069E+00
         -4   -1    0    0    0  501 -0.00000000000E+00  0.00000000000E+00  0.35209557561E+02  0.35232454408E+02  0.12700000000E+01 0. -1.
          4   -1    0    0  501    0  0.00000000000E+00 -0.00000000000E+00 -0.11088019767E+03  0.11088747060E+03  0.12700000000E+01 0. -1.
         25    2    1    2    0    0  0.00000000000E+00  0.00000000000E+00 -0.75670640112E+02  0.14611992501E+03  0.12499994684E+03 0.  0.
    9000005    1    3    3    0    0 -0.20072562072E+02  0.50908753010E+02 -0.25598793477E+01  0.54791987219E+02  0.10000000000E+01 0.  0.
    9000005    1    3    3    0    0  0.20072562072E+02 -0.50908753010E+02 -0.73110760765E+02  0.91327937789E+02  0.10000000000E+01 0.  0.
<mgrwt>
<rscale>  0 0.12499995E+03</rscale>
<asrwt>0</asrwt>
<pdfrwt beam="2">  1        4 0.17060813E-01 0.12499995E+03</pdfrwt>
<pdfrwt beam="1">  1       -4 0.54191758E-02 0.12499995E+03</pdfrwt>
<totfact> 0.10008296E+04</totfact>
</mgrwt>
</event>
<event>
 5    1  0.3266101E-002  0.1250043E+03  0.7818608E-02  0.1235063E+00
         -4   -1    0    0    0  501 -0.00000000000E+00  0.00000000000E+00  0.21926356132E+04  0.21926359810E+04  0.12700000000E+01 0. -1.
          4   -1    0    0  501    0  0.00000000000E+00 -0.00000000000E+00 -0.15549202398E+01  0.20076545899E+01  0.12700000000E+01 0. -1.
         25    2    1    2    0    0  0.00000000000E+00  0.00000000000E+00  0.21910806930E+04  0.21946436356E+04  0.12500433660E+03 0.  0.
    9000005    1    3    3    0    0 -0.70264042336E+01  0.32279781675E+02  0.20268922693E+04  0.20271617168E+04  0.10000000000E+01 0.  0.
    9000005    1    3    3    0    0  0.70264042336E+01 -0.32279781675E+02  0.16418842366E+03  0.16748191880E+03  0.10000000000E+01 0.  0.
<mgrwt>
<rscale>  0 0.12500434E+03</rscale>
<asrwt>0</asrwt>
<pdfrwt beam="2">  1        4 0.27407229E-03 0.12500434E+03</pdfrwt>
<pdfrwt beam="1">  1       -4 0.33736368E+00 0.12500434E+03</pdfrwt>
<totfact> 0.75291418E+02</totfact>
</mgrwt>
</event>
<event>
 5    1  0.3266101E-002  0.1250001E+03  0.7818608E-02  0.1235069E+00
         -4   -1    0    0    0  501 -0.00000000000E+00  0.00000000000E+00  0.60789036055E+01  0.62101504849E+01  0.12700000000E+01 0.  1.
          4   -1    0    0  501    0  0.00000000000E+00 -0.00000000000E+00 -0.63559697884E+03  0.63559824764E+03  0.12700000000E+01 0.  1.
         25    2    1    2    0    0  0.00000000000E+00  0.00000000000E+00 -0.62951807523E+03  0.64180839813E+03  0.12500005146E+03 0.  0.
    9000005    1    3    3    0    0  0.57911312197E+02  0.14133079588E+02 -0.41106129184E+03  0.41536231133E+03  0.10000000000E+01 0.  0.
    9000005    1    3    3    0    0 -0.57911312197E+02 -0.14133079588E+02 -0.21845678339E+03  0.22644608680E+03  0.10000000000E+01 0.  0.
<mgrwt>
<rscale>  0 0.12500005E+03</rscale>
<asrwt>0</asrwt>
<pdfrwt beam="2">  1        4 0.97794292E-01 0.12500005E+03</pdfrwt>
<pdfrwt beam="1">  1       -4 0.94540996E-03 0.12500005E+03</pdfrwt>
<totfact> 0.46330483E+03</totfact>
</mgrwt>
</event>
<event>
 4    1  0.3266101E-002  0.1250712E+03  0.7818608E-02  0.1234958E+00
         -4   -1    0    0    0  501 -0.00000000000E+00  0.00000000000E+00  0.62525032189E+03  0.62525161170E+03  0.12700000000E+01 0.  1.
          4   -1    0    0  501    0  0.00000000000E+00 -0.00000000000E+00 -0.61888430627E+01  0.63178064592E+01  0.12700000000E+01 0.  1.
    9000005    1    1    2    0    0  0.31115469678E+02  0.40019325329E+02  0.49437824722E+03  0.49697139775E+03  0.10000000000E+01 0.  0.
    9000005    1    1    2    0    0 -0.31115469678E+02 -0.40019325329E+02  0.12468323161E+03  0.13459802041E+03  0.10000000000E+01 0.  0.
<mgrwt>
<rscale>  0 0.12507124E+03</rscale>
<asrwt>0</asrwt>
<pdfrwt beam="2">  1        4 0.96214886E-03 0.12507124E+03</pdfrwt>
<pdfrwt beam="1">  1       -4 0.96202408E-01 0.12507124E+03</pdfrwt>
<totfact> 0.46860427E+03</totfact>
</mgrwt>
</event>
<event>
 5    1  0.3266101E-002  0.1250006E+03  0.7818608E-02  0.1235068E+00
         -4   -1    0    0    0  501 -0.00000000000E+00  0.00000000000E+00  0.58271002961E+02  0.58284840963E+02  0.12700000000E+01 0.  1.
          4   -1    0    0  501    0  0.00000000000E+00 -0.00000000000E+00 -0.67008771765E+02  0.67020805676E+02  0.12700000000E+01 0.  1.
         25    2    1    2    0    0  0.00000000000E+00  0.00000000000E+00 -0.87377688034E+01  0.12530564664E+03  0.12500062590E+03 0.  0.
    9000005    1    3    3    0    0  0.16959571383E+02 -0.42148773066E+02  0.38644361151E+02  0.59653438972E+02  0.10000000000E+01 0.  0.
    9000005    1    3    3    0    0 -0.16959571383E+02  0.42148773066E+02 -0.47382129955E+02  0.65652207666E+02  0.10000000000E+01 0.  0.
<mgrwt>
<rscale>  0 0.12500063E+03</rscale>
<asrwt>0</asrwt>
<pdfrwt beam="2">  1        4 0.10311032E-01 0.12500063E+03</pdfrwt>
<pdfrwt beam="1">  1       -4 0.89667598E-02 0.12500063E+03</pdfrwt>
<totfact> 0.10446080E+04</totfact>
</mgrwt>
</event>
<event>
 5    1  0.3266101E-002  0.1250069E+03  0.7818608E-02  0.1235059E+00
          4   -1    0    0  501    0  0.00000000000E+00  0.00000000000E+00  0.52867740428E+02  0.52882992331E+02  0.12700000000E+01 0. -1.
         -4   -1    0    0    0  501 -0.00000000000E+00 -0.00000000000E+00 -0.73863958066E+02  0.73874875304E+02  0.12700000000E+01 0. -1.
         25    2    1    2    0    0  0.00000000000E+00  0.00000000000E+00 -0.20996217638E+02  0.12675786764E+03  0.12500686322E+03 0.  0.
    9000005    1    3    3    0    0  0.40889704991E+02  0.40276944884E+02 -0.35572577185E+02  0.67532277549E+02  0.10000000000E+01 0.  0.
    9000005    1    3    3    0    0 -0.40889704991E+02 -0.40276944884E+02  0.14576359546E+02  0.59225590086E+02  0.10000000000E+01 0.  0.
<mgrwt>
<rscale>  0 0.12500686E+03</rscale>
<asrwt>0</asrwt>
<pdfrwt beam="1">  1        4 0.81355115E-02 0.12500686E+03</pdfrwt>
<pdfrwt beam="2">  1       -4 0.11365699E-01 0.12500686E+03</pdfrwt>
<totfact> 0.10412797E+04</totfact>
</mgrwt>
</event>
<event>
 5    1  0.3266101E-002  0.1249994E+03  0.7818608E-02  0.1235070E+00
          4   -1    0    0  501    0  0.00000000000E+00  0.00000000000E+00  0.21983128386E+02  0.22019782779E+02  0.12700000000E+01 0.  1.
         -4   -1    0    0    0  501 -0.00000000000E+00 -0.00000000000E+00 -0.17750450146E+03  0.17750904466E+03  0.12700000000E+01 0.  1.
         25    2    1    2    0    0  0.00000000000E+00  0.00000000000E+00 -0.15552137307E+03  0.19952882744E+03  0.12499942200E+03 0.  0.
    9000005    1    3    3    0    0 -0.36334055777E+02  0.48408060134E+02 -0.10257743829E+03  0.11910766030E+03  0.10000000000E+01 0.  0.
    9000005    1    3    3    0    0  0.36334055777E+02 -0.48408060134E+02 -0.52943934776E+02  0.80421167143E+02  0.10000000000E+01 0.  0.
<mgrwt>
<rscale>  0 0.12499942E+03</rscale>
<asrwt>0</asrwt>
<pdfrwt beam="1">  1        4 0.33851889E-02 0.12499942E+03</pdfrwt>
<pdfrwt beam="2">  1       -4 0.27311553E-01 0.12499942E+03</pdfrwt>
<totfact> 0.90216201E+03</totfact>
</mgrwt>
</event>
<event>
 5    1  0.3266101E-002  0.1249990E+03  0.7818608E-02  0.1235071E+00
         -4   -1    0    0    0  501 -0.00000000000E+00  0.00000000000E+00  0.48569612506E+02  0.48586213672E+02  0.12700000000E+01 0.  1.
          4   -1    0    0  501    0  0.00000000000E+00 -0.00000000000E+00 -0.80389119727E+02  0.80399150932E+02  0.12700000000E+01 0.  1.
         25    2    1    2    0    0  0.00000000000E+00  0.00000000000E+00 -0.31819507222E+02  0.12898536460E+03  0.12499897296E+03 0.  0.
    9000005    1    3    3    0    0  0.32238978720E+02 -0.19171982808E+01 -0.71115059987E+02  0.78111325396E+02  0.10000000000E+01 0.  0.
    9000005    1    3    3    0    0 -0.32238978720E+02  0.19171982808E+01  0.39295552765E+02  0.50874039208E+02  0.10000000000E+01 0.  0.
<mgrwt>
<rscale>  0 0.12499897E+03</rscale>
<asrwt>0</asrwt>
<pdfrwt beam="2">  1        4 0.12369606E-01 0.12499897E+03</pdfrwt>
<pdfrwt beam="1">  1       -4 0.74742967E-02 0.12499897E+03</pdfrwt>
<totfact> 0.10366502E+04</totfact>
</mgrwt>
</event>
<event>
 5    1  0.3266101E-002  0.1250009E+03  0.7818608E-02  0.1235068E+00
         -4   -1    0    0    0  501 -0.00000000000E+00  0.00000000000E+00  0.18474930011E+03  0.18475366517E+03  0.12700000000E+01 0. -1.
          4   -1    0    0  501    0  0.00000000000E+00 -0.00000000000E+00 -0.21120148675E+02  0.21158298137E+02  0.12700000000E+01 0. -1.
         25    2    1    2    0    0  0.00000000000E+00  0.00000000000E+00  0.16362915144E+03  0.20591196330E+03  0.12500094972E+03 0.  0.
    9000005    1    3    3    0    0 -0.52098134840E+02  0.31920978555E+02  0.10342758607E+03  0.12013088731E+03  0.10000000000E+01 0.  0.
    9000005    1    3    3    0    0  0.52098134840E+02 -0.31920978555E+02  0.60201565369E+02  0.85781075994E+02  0.10000000000E+01 0.  0.
<mgrwt>
<rscale>  0 0.12500095E+03</rscale>
<asrwt>0</asrwt>
<pdfrwt beam="2">  1        4 0.32525239E-02 0.12500095E+03</pdfrwt>
<pdfrwt beam="1">  1       -4 0.28426240E-01 0.12500095E+03</pdfrwt>
<totfact> 0.89145999E+03</totfact>
</mgrwt>
</event>
<event>
 5    1  0.3266101E-002  0.1250003E+03  0.7818608E-02  0.1235069E+00
          4   -1    0    0  501    0  0.00000000000E+00  0.00000000000E+00  0.15622638673E+03  0.15623154870E+03  0.12700000000E+01 0.  1.
         -4   -1    0    0    0  501 -0.00000000000E+00 -0.00000000000E+00 -0.24982186676E+02  0.25014446848E+02  0.12700000000E+01 0.  1.
         25    2    1    2    0    0  0.00000000000E+00  0.00000000000E+00  0.13124420005E+03  0.18124599555E+03  0.12500028342E+03 0.  0.
    9000005    1    3    3    0    0 -0.25981429814E+02  0.49313591852E+02  0.10659233122E+03  0.12029044065E+03  0.10000000000E+01 0.  0.
    9000005    1    3    3    0    0  0.25981429814E+02 -0.49313591852E+02  0.24651868833E+02  0.60955554903E+02  0.10000000000E+01 0.  0.
<mgrwt>
<rscale>  0 0.12500028E+03</rscale>
<asrwt>0</asrwt>
<pdfrwt beam="1">  1        4 0.24037708E-01 0.12500028E+03</pdfrwt>
<pdfrwt beam="2">  1       -4 0.38462918E-02 0.12500028E+03</pdfrwt>
<totfact> 0.93392605E+03</totfact>
</mgrwt>
</event>
<event>
 5    1  0.3266101E-002  0.1249876E+03  0.7818608E-02  0.1235089E+00
         -4   -1    0    0    0  501 -0.00000000000E+00  0.00000000000E+00  0.34954274001E+02  0.34977337962E+02  0.12700000000E+01 0.  1.
          4   -1    0    0  501    0  0.00000000000E+00 -0.00000000000E+00 -0.11166741235E+03  0.11167463401E+03  0.12700000000E+01 0.  1.
         25    2    1    2    0    0  0.00000000000E+00  0.00000000000E+00 -0.76713138354E+02  0.14665197198E+03  0.12498758054E+03 0.  0.
    9000005    1    3    3    0    0 -0.13276342552E+02  0.47378093002E+02  0.68362094982E+01  0.49685800068E+02  0.10000000000E+01 0.  0.
    9000005    1    3    3    0    0  0.13276342552E+02 -0.47378093002E+02 -0.83549347852E+02  0.96966171908E+02  0.10000000000E+01 0.  0.
<mgrwt>
<rscale>  0 0.12498758E+03</rscale>
<asrwt>0</asrwt>
<pdfrwt beam="2">  1        4 0.17181931E-01 0.12498758E+03</pdfrwt>
<pdfrwt beam="1">  1       -4 0.53799104E-02 0.12498758E+03</pdfrwt>
<totfact> 0.10000327E+04</totfact>
</mgrwt>
</event>
<event>
 5    1  0.3266101E-002  0.1250014E+03  0.7818608E-02  0.1235067E+00
         -4   -1    0    0    0  501 -0.00000000000E+00  0.00000000000E+00  0.87192453373E+03  0.87192545863E+03  0.12700000000E+01 0.  1.
          4   -1    0    0  501    0  0.00000000000E+00 -0.00000000000E+00 -0.43891856707E+01  0.45692286933E+01  0.12700000000E+01 0.  1.
         25    2    1    2    0    0  0.00000000000E+00  0.00000000000E+00  0.86753534806E+03  0.87649468733E+03  0.12500142714E+03 0.  0.
    9000005    1    3    3    0    0 -0.54525333057E+02 -0.19389121308E+02  0.26837218032E+03  0.27454248695E+03  0.10000000000E+01 0.  0.
    9000005    1    3    3    0    0  0.54525333057E+02  0.19389121308E+02  0.59916316774E+03  0.60195220038E+03  0.10000000000E+01 0.  0.
<mgrwt>
<rscale>  0 0.12500143E+03</rscale>
<asrwt>0</asrwt>
<pdfrwt beam="2">  1        4 0.68918010E-03 0.12500143E+03</pdfrwt>
<pdfrwt beam="1">  1       -4 0.13415613E+00 0.12500143E+03</pdfrwt>
<totfact> 0.35065896E+03</totfact>
</mgrwt>
</event>
<event>
 5    1  0.3266101E-002  0.1249637E+03  0.7818608E-02  0.1235126E+00
         -4   -1    0    0    0  501 -0.00000000000E+00  0.00000000000E+00  0.11399936460E+02  0.11470459942E+02  0.12700000000E+01 0.  1.
          4   -1    0    0  501    0  0.00000000000E+00 -0.00000000000E+00 -0.34132868395E+03  0.34133104662E+03  0.12700000000E+01 0.  1.
         25    2    1    2    0    0  0.00000000000E+00  0.00000000000E+00 -0.32992874749E+03  0.35280150656E+03  0.12496369318E+03 0.  0.
    9000005    1    3    3    0    0  0.21551999564E+02  0.48651755702E+02 -0.72549368701E+02  0.89977179979E+02  0.10000000000E+01 0.  0.
    9000005    1    3    3    0    0 -0.21551999564E+02 -0.48651755702E+02 -0.25737937878E+03  0.26282432658E+03  0.10000000000E+01 0.  0.
<mgrwt>
<rscale>  0 0.12496369E+03</rscale>
<asrwt>0</asrwt>
<pdfrwt beam="2">  1        4 0.52517704E-01 0.12496369E+03</pdfrwt>
<pdfrwt beam="1">  1       -4 0.17594433E-02 0.12496369E+03</pdfrwt>
<totfact> 0.69473252E+03</totfact>
</mgrwt>
</event>
<event>
 4    1  0.3266101E-002  0.1249038E+03  0.7818608E-02  0.1235220E+00
         -4   -1    0    0    0  501 -0.00000000000E+00  0.00000000000E+00  0.27950631238E+03  0.27950919763E+03  0.12700000000E+01 0.  1.
          4   -1    0    0  501    0  0.00000000000E+00 -0.00000000000E+00 -0.13922161979E+02  0.13979967602E+02  0.12700000000E+01 0.  1.
    9000005    1    1    2    0    0  0.36529500041E+02 -0.14723268990E+01  0.13842609556E+02  0.39104858510E+02  0.10000000000E+01 0.  0.
    9000005    1    1    2    0    0 -0.36529500041E+02  0.14723268990E+01  0.25174154084E+03  0.25438430672E+03  0.10000000000E+01 0.  0.
<mgrwt>
<rscale>  0 0.12490376E+03</rscale>
<asrwt>0</asrwt>
<pdfrwt beam="2">  1        4 0.21465395E-02 0.12490376E+03</pdfrwt>
<pdfrwt beam="1">  1       -4 0.43005642E-01 0.12490376E+03</pdfrwt>
<totfact> 0.76586441E+03</totfact>
</mgrwt>
</event>
<event>
 5    1  0.3266101E-002  0.1250009E+03  0.7818608E-02  0.1235068E+00
         -4   -1    0    0    0  501 -0.00000000000E+00  0.00000000000E+00  0.90182958690E+00  0.15576253092E+01  0.12700000000E+01 0.  1.
          4   -1    0    0  501    0  0.00000000000E+00 -0.00000000000E+00 -0.31759051388E+04  0.31759053927E+04  0.12700000000E+01 0.  1.
         25    2    1    2    0    0  0.00000000000E+00  0.00000000000E+00 -0.31750033092E+04  0.31774630180E+04  0.12500086991E+03 0.  0.
    9000005    1    3    3    0    0  0.60679230366E+02  0.45550909168E+01 -0.12256981749E+04  0.12272081053E+04  0.10000000000E+01 0.  0.
    9000005    1    3    3    0    0 -0.60679230366E+02 -0.45550909168E+01 -0.19493051343E+04  0.19502549127E+04  0.10000000000E+01 0.  0.
<mgrwt>
<rscale>  0 0.12500087E+03</rscale>
<asrwt>0</asrwt>
<pdfrwt beam="2">  1        4 0.48864469E+00 0.12500087E+03</pdfrwt>
<pdfrwt beam="1">  1       -4 0.18921091E-03 0.12500087E+03</pdfrwt>
<totfact> 0.12376335E+02</totfact>
</mgrwt>
</event>
<event>
 5    1  0.3266101E-002  0.1249958E+03  0.7818608E-02  0.1235076E+00
          4   -1    0    0  501    0  0.00000000000E+00  0.00000000000E+00  0.38454425513E+02  0.38475391376E+02  0.12700000000E+01 0. -1.
         -4   -1    0    0    0  501 -0.00000000000E+00 -0.00000000000E+00 -0.10152184121E+03  0.10152978451E+03  0.12700000000E+01 0. -1.
         25    2    1    2    0    0  0.00000000000E+00  0.00000000000E+00 -0.63067415699E+02  0.14000517589E+03  0.12499580134E+03 0.  0.
    9000005    1    3    3    0    0 -0.60925345470E+02  0.55561411471E+01 -0.45799626545E+02  0.76428883393E+02  0.10000000000E+01 0.  0.
    9000005    1    3    3    0    0  0.60925345470E+02 -0.55561411471E+01 -0.17267789154E+02  0.63576292495E+02  0.10000000000E+01 0.  0.
<mgrwt>
<rscale>  0 0.12499580E+03</rscale>
<asrwt>0</asrwt>
<pdfrwt beam="1">  1        4 0.59182893E-02 0.12499580E+03</pdfrwt>
<pdfrwt beam="2">  1       -4 0.15620968E-01 0.12499580E+03</pdfrwt>
<totfact> 0.10134437E+04</totfact>
</mgrwt>
</event>
<event>
 5    1  0.3266101E-002  0.1250002E+03  0.7818608E-02  0.1235069E+00
         -4   -1    0    0    0  501 -0.00000000000E+00  0.00000000000E+00  0.52537281890E+01  0.54050494802E+01  0.12700000000E+01 0. -1.
          4   -1    0    0  501    0  0.00000000000E+00 -0.00000000000E+00 -0.73281460936E+03  0.73281570984E+03  0.12700000000E+01 0. -1.
         25    2    1    2    0    0  0.00000000000E+00  0.00000000000E+00 -0.72756088117E+03  0.73822075932E+03  0.12500021474E+03 0.  0.
    9000005    1    3    3    0    0 -0.58971914206E+02  0.96184332135E+01 -0.25567727641E+03  0.26256822084E+03  0.10000000000E+01 0.  0.
    9000005    1    3    3    0    0  0.58971914206E+02 -0.96184332135E+01 -0.47188360476E+03  0.47565253848E+03  0.10000000000E+01 0.  0.
<mgrwt>
<rscale>  0 0.12500021E+03</rscale>
<asrwt>0</asrwt>
<pdfrwt beam="2">  1        4 0.11275235E+00 0.12500021E+03</pdfrwt>
<pdfrwt beam="1">  1       -4 0.81999121E-03 0.12500021E+03</pdfrwt>
<totfact> 0.41143806E+03</totfact>
</mgrwt>
</event>
<event>
 5    1  0.3266101E-002  0.1250014E+03  0.7818608E-02  0.1235067E+00
          4   -1    0    0  501    0  0.00000000000E+00  0.00000000000E+00  0.11620526562E+02  0.11689719312E+02  0.12700000000E+01 0.  1.
         -4   -1    0    0    0  501 -0.00000000000E+00 -0.00000000000E+00 -0.33509015781E+03  0.33509256447E+03  0.12700000000E+01 0.  1.
         25    2    1    2    0    0  0.00000000000E+00  0.00000000000E+00 -0.32346963125E+03  0.34678228378E+03  0.12500140001E+03 0.  0.
    9000005    1    3    3    0    0 -0.57350068619E+02  0.24797337153E+02 -0.15845324326E+03  0.17033017525E+03  0.10000000000E+01 0.  0.
    9000005    1    3    3    0    0  0.57350068619E+02 -0.24797337153E+02 -0.16501638799E+03  0.17645210853E+03  0.10000000000E+01 0.  0.
<mgrwt>
<rscale>  0 0.12500140E+03</rscale>
<asrwt>0</asrwt>
<pdfrwt beam="1">  1        4 0.17932812E-02 0.12500140E+03</pdfrwt>
<pdfrwt beam="2">  1       -4 0.51557832E-01 0.12500140E+03</pdfrwt>
<totfact> 0.70077832E+03</totfact>
</mgrwt>
</event>
<event>
 5    1  0.3266101E-002  0.1250001E+03  0.7818608E-02  0.1235069E+00
         -4   -1    0    0    0  501 -0.00000000000E+00  0.00000000000E+00  0.12501621634E+03  0.12502266694E+03  0.12700000000E+01 0. -1.
          4   -1    0    0  501    0  0.00000000000E+00 -0.00000000000E+00 -0.31225836827E+02  0.31251652525E+02  0.12700000000E+01 0. -1.
         25    2    1    2    0    0  0.00000000000E+00  0.00000000000E+00  0.93790379514E+02  0.15627431946E+03  0.12500011054E+03 0.  0.
    9000005    1    3    3    0    0  0.37755212637E+02  0.22600208007E+01 -0.15297293212E+02  0.40811407166E+02  0.10000000000E+01 0.  0.
    9000005    1    3    3    0    0 -0.37755212637E+02 -0.22600208007E+01  0.10908767273E+03  0.11546291230E+03  0.10000000000E+01 0.  0.
<mgrwt>
<rscale>  0 0.12500011E+03</rscale>
<asrwt>0</asrwt>
<pdfrwt beam="2">  1        4 0.48064569E-02 0.12500011E+03</pdfrwt>
<pdfrwt beam="1">  1       -4 0.19235746E-01 0.12500011E+03</pdfrwt>
<totfact> 0.98065669E+03</totfact>
</mgrwt>
</event>
<event>
 5    1  0.3266101E-002  0.1250068E+03  0.7818608E-02  0.1235059E+00
          4   -1    0    0  501    0  0.00000000000E+00  0.00000000000E+00  0.45953737940E+02  0.45971283761E+02  0.12700000000E+01 0.  1.
         -4   -1    0    0    0  501 -0.00000000000E+00 -0.00000000000E+00 -0.84974686436E+02  0.84984176379E+02  0.12700000000E+01 0.  1.
         25    2    1    2    0    0  0.00000000000E+00  0.00000000000E+00 -0.39020948496E+02  0.13095546014E+03  0.12500679229E+03 0.  0.
    9000005    1    3    3    0    0 -0.45725573002E+02 -0.68787298421E+01  0.24532165887E+02  0.52354294129E+02  0.10000000000E+01 0.  0.
    9000005    1    3    3    0    0  0.45725573002E+02  0.68787298421E+01 -0.63553114383E+02  0.78601166012E+02  0.10000000000E+01 0.  0.
<mgrwt>
<rscale>  0 0.12500679E+03</rscale>
<asrwt>0</asrwt>
<pdfrwt beam="1">  1        4 0.70718856E-02 0.12500679E+03</pdfrwt>
<pdfrwt beam="2">  1       -4 0.13075108E-01 0.12500679E+03</pdfrwt>
<totfact> 0.10322462E+04</totfact>
</mgrwt>
</event>
<event>
 5    1  0.3266101E-002  0.1250045E+03  0.7818608E-02  0.1235062E+00
         -4   -1    0    0    0  501 -0.00000000000E+00  0.00000000000E+00  0.22158327354E+03  0.22158691300E+03  0.12700000000E+01 0.  1.
          4   -1    0    0  501    0  0.00000000000E+00 -0.00000000000E+00 -0.17603424853E+02  0.17649177503E+02  0.12700000000E+01 0.  1.
         25    2    1    2    0    0  0.00000000000E+00  0.00000000000E+00  0.20397984869E+03  0.23923609050E+03  0.12500451323E+03 0.  0.
    9000005    1    3    3    0    0  0.24472940056E+02 -0.57464631551E+02  0.10601505054E+03  0.12304998828E+03  0.10000000000E+01 0.  0.
    9000005    1    3    3    0    0 -0.24472940056E+02  0.57464631551E+02  0.97964798153E+02  0.11618610223E+03  0.10000000000E+01 0.  0.
<mgrwt>
<rscale>  0 0.12500451E+03</rscale>
<asrwt>0</asrwt>
<pdfrwt beam="2">  1        4 0.27120187E-02 0.12500451E+03</pdfrwt>
<pdfrwt beam="1">  1       -4 0.34093532E-01 0.12500451E+03</pdfrwt>
<totfact> 0.83902828E+03</totfact>
</mgrwt>
</event>
<event>
 5    1  0.3266101E-002  0.1250046E+03  0.7818608E-02  0.1235062E+00
          4   -1    0    0  501    0  0.00000000000E+00  0.00000000000E+00  0.16272470987E+02  0.16321954909E+02  0.12700000000E+01 0.  1.
         -4   -1    0    0    0  501 -0.00000000000E+00 -0.00000000000E+00 -0.23965460895E+03  0.23965797398E+03  0.12700000000E+01 0.  1.
         25    2    1    2    0    0  0.00000000000E+00  0.00000000000E+00 -0.22338213796E+03  0.25597992889E+03  0.12500457764E+03 0.  0.
    9000005    1    3    3    0    0  0.28301317824E+02  0.55007103849E+02 -0.93514342703E+02  0.11212795528E+03  0.10000000000E+01 0.  0.
    9000005    1    3    3    0    0 -0.28301317824E+02 -0.55007103849E+02 -0.12986779526E+03  0.14385197360E+03  0.10000000000E+01 0.  0.
<mgrwt>
<rscale>  0 0.12500458E+03</rscale>
<asrwt>0</asrwt>
<pdfrwt beam="1">  1        4 0.25075225E-02 0.12500458E+03</pdfrwt>
<pdfrwt beam="2">  1       -4 0.36874003E-01 0.12500458E+03</pdfrwt>
<totfact> 0.81465249E+03</totfact>
</mgrwt>
</event>
<event>
 5    1  0.3266101E-002  0.1250005E+03  0.7818608E-02  0.1235068E+00
         -4   -1    0    0    0  501 -0.00000000000E+00  0.00000000000E+00  0.15638447904E+03  0.15638963579E+03  0.12700000000E+01 0. -1.
          4   -1    0    0  501    0  0.00000000000E+00 -0.00000000000E+00 -0.24956988264E+02  0.24989280966E+02  0.12700000000E+01 0. -1.
         25    2    1    2    0    0  0.00000000000E+00  0.00000000000E+00  0.13142749077E+03  0.18137891676E+03  0.12500050446E+03 0.  0.
    9000005    1    3    3    0    0  0.62291417250E+01  0.52923803753E+02  0.11307923378E+03  0.12501057684E+03  0.10000000000E+01 0.  0.
    9000005    1    3    3    0    0 -0.62291417250E+01 -0.52923803753E+02  0.18348256993E+02  0.56368339917E+02  0.10000000000E+01 0.  0.
<mgrwt>
<rscale>  0 0.12500050E+03</rscale>
<asrwt>0</asrwt>
<pdfrwt beam="2">  1        4 0.38424174E-02 0.12500050E+03</pdfrwt>
<pdfrwt beam="1">  1       -4 0.24062031E-01 0.12500050E+03</pdfrwt>
<totfact> 0.93368325E+03</totfact>
</mgrwt>
</event>
<event>
 5    1  0.3266101E-002  0.1250017E+03  0.7818608E-02  0.1235067E+00
          4   -1    0    0  501    0  0.00000000000E+00  0.00000000000E+00  0.20265691305E+03  0.20266089240E+03  0.12700000000E+01 0.  1.
         -4   -1    0    0    0  501 -0.00000000000E+00 -0.00000000000E+00 -0.19250620994E+02  0.19292467666E+02  0.12700000000E+01 0.  1.
         25    2    1    2    0    0  0.00000000000E+00  0.00000000000E+00  0.18340629206E+03  0.22195336006E+03  0.12500170430E+03 0.  0.
    9000005    1    3    3    0    0 -0.51831398656E+01 -0.60239630250E+02  0.11975983302E+03  0.13416070810E+03  0.10000000000E+01 0.  0.
    9000005    1    3    3    0    0  0.51831398656E+01  0.60239630250E+02  0.63646459032E+02  0.87792651964E+02  0.10000000000E+01 0.  0.
<mgrwt>
<rscale>  0 0.12500170E+03</rscale>
<asrwt>0</asrwt>
<pdfrwt beam="1">  1        4 0.31181513E-01 0.12500170E+03</pdfrwt>
<pdfrwt beam="2">  1       -4 0.29651589E-02 0.12500170E+03</pdfrwt>
<totfact> 0.86556900E+03</totfact>
</mgrwt>
</event>
<event>
 5    1  0.3266101E-002  0.1250010E+03  0.7818608E-02  0.1235068E+00
          4   -1    0    0  501    0  0.00000000000E+00  0.00000000000E+00  0.33610008417E+01  0.35929412266E+01  0.12700000000E+01 0. -1.
         -4   -1    0    0    0  501 -0.00000000000E+00 -0.00000000000E+00 -0.11232498996E+04  0.11232506175E+04  0.12700000000E+01 0. -1.
         25    2    1    2    0    0  0.00000000000E+00  0.00000000000E+00 -0.11198888987E+04  0.11268435588E+04  0.12500104167E+03 0.  0.
    9000005    1    3    3    0    0  0.10005109551E+02 -0.59949990924E+02 -0.69095574753E+03  0.69362450121E+03  0.10000000000E+01 0.  0.
    9000005    1    3    3    0    0 -0.10005109551E+02  0.59949990924E+02 -0.42893315120E+03  0.43321905755E+03  0.10000000000E+01 0.  0.
<mgrwt>
<rscale>  0 0.12500104E+03</rscale>
<asrwt>0</asrwt>
<pdfrwt beam="1">  1        4 0.53497474E-03 0.12500104E+03</pdfrwt>
<pdfrwt beam="2">  1       -4 0.17282528E+00 0.12500104E+03</pdfrwt>
<totfact> 0.26710181E+03</totfact>
</mgrwt>
</event>
<event>
 5    1  0.3266101E-002  0.1249980E+03  0.7818608E-02  0.1235072E+00
         -4   -1    0    0    0  501 -0.00000000000E+00  0.00000000000E+00  0.26595425088E+02  0.26625730705E+02  0.12700000000E+01 0. -1.
          4   -1    0    0  501    0  0.00000000000E+00 -0.00000000000E+00 -0.14675532941E+03  0.14676082451E+03  0.12700000000E+01 0. -1.
         25    2    1    2    0    0  0.00000000000E+00  0.00000000000E+00 -0.12015990433E+03  0.17338655522E+03  0.12499797967E+03 0.  0.
    9000005    1    3    3    0    0 -0.35239689954E+02  0.48725276374E+02 -0.83666429149E+02  0.10303911719E+03  0.10000000000E+01 0.  0.
    9000005    1    3    3    0    0  0.35239689954E+02 -0.48725276374E+02 -0.36493475177E+02  0.70347438022E+02  0.10000000000E+01 0.  0.
<mgrwt>
<rscale>  0 0.12499798E+03</rscale>
<asrwt>0</asrwt>
<pdfrwt beam="2">  1        4 0.22580496E-01 0.12499798E+03</pdfrwt>
<pdfrwt beam="1">  1       -4 0.40943579E-02 0.12499798E+03</pdfrwt>
<totfact> 0.94825471E+03</totfact>
</mgrwt>
</event>
<event>
 5    1  0.3266101E-002  0.1250028E+03  0.7818608E-02  0.1235065E+00
          4   -1    0    0  501    0  0.00000000000E+00  0.00000000000E+00  0.44156519490E+02  0.44174779156E+02  0.12700000000E+01 0.  1.
         -4   -1    0    0    0  501 -0.00000000000E+00 -0.00000000000E+00 -0.88426642961E+02  0.88435762480E+02  0.12700000000E+01 0.  1.
         25    2    1    2    0    0  0.00000000000E+00  0.00000000000E+00 -0.44270123471E+02  0.13261054164E+03  0.12500284765E+03 0.  0.
    9000005    1    3    3    0    0 -0.28207684390E+02  0.42288562990E+02  0.16428802544E+02  0.53431278961E+02  0.10000000000E+01 0.  0.
    9000005    1    3    3    0    0  0.28207684390E+02 -0.42288562990E+02 -0.60698926015E+02  0.79179262675E+02  0.10000000000E+01 0.  0.
<mgrwt>
<rscale>  0 0.12500285E+03</rscale>
<asrwt>0</asrwt>
<pdfrwt beam="1">  1        4 0.67954168E-02 0.12500285E+03</pdfrwt>
<pdfrwt beam="2">  1       -4 0.13606205E-01 0.12500285E+03</pdfrwt>
<totfact> 0.10288023E+04</totfact>
</mgrwt>
</event>
<event>
 5    1  0.3266101E-002  0.1250014E+03  0.7818608E-02  0.1235067E+00
         -4   -1    0    0    0  501 -0.00000000000E+00  0.00000000000E+00  0.29756976907E+01  0.32353789185E+01  0.12700000000E+01 0. -1.
          4   -1    0    0  501    0  0.00000000000E+00 -0.00000000000E+00 -0.12576007070E+04  0.12576013483E+04  0.12700000000E+01 0. -1.
         25    2    1    2    0    0  0.00000000000E+00  0.00000000000E+00 -0.12546250093E+04  0.12608367272E+04  0.12500135447E+03 0.  0.
    9000005    1    3    3    0    0 -0.38961277208E+02 -0.39219176388E+02 -0.33337729332E+03  0.33793127203E+03  0.10000000000E+01 0.  0.
    9000005    1    3    3    0    0  0.38961277208E+02  0.39219176388E+02 -0.92124771603E+03  0.92290545519E+03  0.10000000000E+01 0.  0.
<mgrwt>
<rscale>  0 0.12500135E+03</rscale>
<asrwt>0</asrwt>
<pdfrwt beam="2">  1        4 0.19349665E+00 0.12500135E+03</pdfrwt>
<pdfrwt beam="1">  1       -4 0.47782546E-03 0.12500135E+03</pdfrwt>
<totfact> 0.23171499E+03</totfact>
</mgrwt>
</event>
<event>
 5    1  0.3266101E-002  0.1250004E+03  0.7818608E-02  0.1235069E+00
          4   -1    0    0  501    0  0.00000000000E+00  0.00000000000E+00  0.10309017642E+02  0.10386950695E+02  0.12700000000E+01 0.  1.
         -4   -1    0    0    0  501 -0.00000000000E+00 -0.00000000000E+00 -0.37741245359E+03  0.37741459037E+03  0.12700000000E+01 0.  1.
         25    2    1    2    0    0  0.00000000000E+00  0.00000000000E+00 -0.36710343595E+03  0.38780154107E+03  0.12500041027E+03 0.  0.
    9000005    1    3    3    0    0 -0.55197512779E+02  0.62555679460E+01 -0.27235730037E+03  0.27796653866E+03  0.10000000000E+01 0.  0.
    9000005    1    3    3    0    0  0.55197512779E+02 -0.62555679460E+01 -0.94746135578E+02  0.10983500241E+03  0.10000000000E+01 0.  0.
<mgrwt>
<rscale>  0 0.12500041E+03</rscale>
<asrwt>0</asrwt>
<pdfrwt beam="1">  1        4 0.15921622E-02 0.12500041E+03</pdfrwt>
<pdfrwt beam="2">  1       -4 0.58069603E-01 0.12500041E+03</pdfrwt>
<totfact> 0.65756152E+03</totfact>
</mgrwt>
</event>
<event>
 5    1  0.3266101E-002  0.1249946E+03  0.7818608E-02  0.1235078E+00
         -4   -1    0    0    0  501 -0.00000000000E+00  0.00000000000E+00  0.34769981071E+01  0.37016774356E+01  0.12700000000E+01 0. -1.
          4   -1    0    0  501    0  0.00000000000E+00 -0.00000000000E+00 -0.10879731147E+04  0.10879738559E+04  0.12700000000E+01 0. -1.
         25    2    1    2    0    0  0.00000000000E+00  0.00000000000E+00 -0.10844961166E+04  0.10916755333E+04  0.12499457295E+03 0.  0.
    9000005    1    3    3    0    0 -0.28244136468E+02  0.54332404560E+02 -0.43345393383E+03  0.43775912804E+03  0.10000000000E+01 0.  0.
    9000005    1    3    3    0    0  0.28244136468E+02 -0.54332404560E+02 -0.65104218272E+03  0.65391640530E+03  0.10000000000E+01 0.  0.
<mgrwt>
<rscale>  0 0.12499457E+03</rscale>
<asrwt>0</asrwt>
<pdfrwt beam="2">  1        4 0.16739756E+00 0.12499457E+03</pdfrwt>
<pdfrwt beam="1">  1       -4 0.55226370E-03 0.12499457E+03</pdfrwt>
<totfact> 0.27731637E+03</totfact>
</mgrwt>
</event>
<event>
 5    1  0.3266101E-002  0.1250011E+03  0.7818608E-02  0.1235068E+00
         -4   -1    0    0    0  501 -0.00000000000E+00  0.00000000000E+00  0.81089255320E+02  0.81099199924E+02  0.12700000000E+01 0. -1.
          4   -1    0    0  501    0  0.00000000000E+00 -0.00000000000E+00 -0.48151814664E+02  0.48168559823E+02  0.12700000000E+01 0. -1.
         25    2    1    2    0    0  0.00000000000E+00  0.00000000000E+00  0.32937440656E+02  0.12926775975E+03  0.12500111485E+03 0.  0.
    9000005    1    3    3    0    0  0.41199332937E+02 -0.35542432144E+02 -0.15315856587E+02  0.56535165872E+02  0.10000000000E+01 0.  0.
    9000005    1    3    3    0    0 -0.41199332937E+02  0.35542432144E+02  0.48253297243E+02  0.72732593876E+02  0.10000000000E+01 0.  0.
<mgrwt>
<rscale>  0 0.12500111E+03</rscale>
<asrwt>0</asrwt>
<pdfrwt beam="2">  1        4 0.74100246E-02 0.12500111E+03</pdfrwt>
<pdfrwt beam="1">  1       -4 0.12477323E-01 0.12500111E+03</pdfrwt>
<totfact> 0.10359936E+04</totfact>
</mgrwt>
</event>
<event>
 5    1  0.3266101E-002  0.1249981E+03  0.7818608E-02  0.1235072E+00
         -4   -1    0    0    0  501 -0.00000000000E+00  0.00000000000E+00  0.13603794732E+03  0.13604387531E+03  0.12700000000E+01 0. -1.
          4   -1    0    0  501    0  0.00000000000E+00 -0.00000000000E+00 -0.28692952359E+02  0.28721044811E+02  0.12700000000E+01 0. -1.
         25    2    1    2    0    0  0.00000000000E+00  0.00000000000E+00  0.10734499496E+03  0.16476492012E+03  0.12499812383E+03 0.  0.
    9000005    1    3    3    0    0  0.54208102469E+02 -0.14533261348E+02  0.17444079565E+02  0.58779502980E+02  0.10000000000E+01 0.  0.
    9000005    1    3    3    0    0 -0.54208102469E+02  0.14533261348E+02  0.89900915392E+02  0.10598541714E+03  0.10000000000E+01 0.  0.
<mgrwt>
<rscale>  0 0.12499812E+03</rscale>
<asrwt>0</asrwt>
<pdfrwt beam="2">  1        4 0.44169172E-02 0.12499812E+03</pdfrwt>
<pdfrwt beam="1">  1       -4 0.20931532E-01 0.12499812E+03</pdfrwt>
<totfact> 0.96435995E+03</totfact>
</mgrwt>
</event>
<event>
 5    1  0.3266101E-002  0.1249976E+03  0.7818608E-02  0.1235073E+00
          4   -1    0    0  501    0  0.00000000000E+00  0.00000000000E+00  0.14328620301E+03  0.14329183115E+03  0.12700000000E+01 0. -1.
         -4   -1    0    0    0  501 -0.00000000000E+00 -0.00000000000E+00 -0.27239860966E+02  0.27269450406E+02  0.12700000000E+01 0. -1.
         25    2    1    2    0    0  0.00000000000E+00  0.00000000000E+00  0.11604634205E+03  0.17056128155E+03  0.12499758903E+03 0.  0.
    9000005    1    3    3    0    0  0.75162692688E+01 -0.60446369548E+02  0.38976483461E+02  0.72321671429E+02  0.10000000000E+01 0.  0.
    9000005    1    3    3    0    0 -0.75162692688E+01  0.60446369548E+02  0.77069858584E+02  0.98239610124E+02  0.10000000000E+01 0.  0.
<mgrwt>
<rscale>  0 0.12499759E+03</rscale>
<asrwt>0</asrwt>
<pdfrwt beam="1">  1        4 0.22046740E-01 0.12499759E+03</pdfrwt>
<pdfrwt beam="2">  1       -4 0.41934569E-02 0.12499759E+03</pdfrwt>
<totfact> 0.95349284E+03</totfact>
</mgrwt>
</event>
<event>
 5    1  0.3266101E-002  0.1250014E+03  0.7818608E-02  0.1235067E+00
          4   -1    0    0  501    0  0.00000000000E+00  0.00000000000E+00  0.75363336158E+02  0.75374036226E+02  0.12700000000E+01 0.  1.
         -4   -1    0    0    0  501 -0.00000000000E+00 -0.00000000000E+00 -0.51811192193E+02  0.51826755025E+02  0.12700000000E+01 0.  1.
         25    2    1    2    0    0  0.00000000000E+00  0.00000000000E+00  0.23552143966E+02  0.12720079125E+03  0.12500135123E+03 0.  0.
    9000005    1    3    3    0    0  0.48714493387E+02  0.33071204221E+02  0.33085597908E+02  0.67546008050E+02  0.10000000000E+01 0.  0.
    9000005    1    3    3    0    0 -0.48714493387E+02 -0.33071204221E+02 -0.95334539425E+01  0.59654783200E+02  0.10000000000E+01 0.  0.
<mgrwt>
<rscale>  0 0.12500135E+03</rscale>
<asrwt>0</asrwt>
<pdfrwt beam="1">  1        4 0.11596380E-01 0.12500135E+03</pdfrwt>
<pdfrwt beam="2">  1       -4 0.79729729E-02 0.12500135E+03</pdfrwt>
<totfact> 0.10404469E+04</totfact>
</mgrwt>
</event>
<event>
 5    1  0.3266101E-002  0.1249987E+03  0.7818608E-02  0.1235071E+00
         -4   -1    0    0    0  501 -0.00000000000E+00  0.00000000000E+00  0.77953885702E+02  0.77964230235E+02  0.12700000000E+01 0.  1.
          4   -1    0    0  501    0  0.00000000000E+00 -0.00000000000E+00 -0.50087007315E+02  0.50103105710E+02  0.12700000000E+01 0.  1.
         25    2    1    2    0    0  0.00000000000E+00  0.00000000000E+00  0.27866878387E+02  0.12806733594E+03  0.12499871849E+03 0.  0.
    9000005    1    3    3    0    0 -0.36324441845E+02  0.47014536643E+02 -0.59158145653E+01  0.59714559306E+02  0.10000000000E+01 0.  0.
    9000005    1    3    3    0    0  0.36324441845E+02 -0.47014536643E+02  0.33782692953E+02  0.68352776639E+02  0.10000000000E+01 0.  0.
<mgrwt>
<rscale>  0 0.12499872E+03</rscale>
<asrwt>0</asrwt>
<pdfrwt beam="2">  1        4 0.77077276E-02 0.12499872E+03</pdfrwt>
<pdfrwt beam="1">  1       -4 0.11994939E-01 0.12499872E+03</pdfrwt>
<totfact> 0.10386334E+04</totfact>
</mgrwt>
</event>
<event>
 5    1  0.3266101E-002  0.1250005E+03  0.7818608E-02  0.1235068E+00
          4   -1    0    0  501    0  0.00000000000E+00  0.00000000000E+00  0.75085818925E+01  0.76152282984E+01  0.12700000000E+01 0. -1.
         -4   -1    0    0    0  501 -0.00000000000E+00 -0.00000000000E+00 -0.51646653615E+03  0.51646809762E+03  0.12700000000E+01 0. -1.
         25    2    1    2    0    0  0.00000000000E+00  0.00000000000E+00 -0.50895795425E+03  0.52408332592E+03  0.12500053323E+03 0.  0.
    9000005    1    3    3    0    0  0.80139428521E+01 -0.61976128957E+02 -0.25389371102E+03  0.26147328800E+03  0.10000000000E+01 0.  0.
    9000005    1    3    3    0    0 -0.80139428521E+01  0.61976128957E+02 -0.25506424323E+03  0.26261003792E+03  0.10000000000E+01 0.  0.
<mgrwt>
<rscale>  0 0.12500053E+03</rscale>
<asrwt>0</asrwt>
<pdfrwt beam="1">  1        4 0.11634905E-02 0.12500053E+03</pdfrwt>
<pdfrwt beam="2">  1       -4 0.79464686E-01 0.12500053E+03</pdfrwt>
<totfact> 0.54042422E+03</totfact>
</mgrwt>
</event>
<event>
 5    1  0.3266101E-002  0.1250008E+03  0.7818608E-02  0.1235068E+00
          4   -1    0    0  501    0  0.00000000000E+00  0.00000000000E+00  0.47573177419E+02  0.47590126179E+02  0.12700000000E+01 0.  1.
         -4   -1    0    0    0  501 -0.00000000000E+00 -0.00000000000E+00 -0.82074899249E+02  0.82084724442E+02  0.12700000000E+01 0.  1.
         25    2    1    2    0    0  0.00000000000E+00  0.00000000000E+00 -0.34501721830E+02  0.12967485062E+03  0.12500079229E+03 0.  0.
    9000005    1    3    3    0    0  0.26850841058E+02 -0.16908851458E+02  0.38599224805E+02  0.49977765843E+02  0.10000000000E+01 0.  0.
    9000005    1    3    3    0    0 -0.26850841058E+02  0.16908851458E+02 -0.73100946635E+02  0.79697084778E+02  0.10000000000E+01 0.  0.
<mgrwt>
<rscale>  0 0.12500079E+03</rscale>
<asrwt>0</asrwt>
<pdfrwt beam="1">  1        4 0.73210099E-02 0.12500079E+03</pdfrwt>
<pdfrwt beam="2">  1       -4 0.12628967E-01 0.12500079E+03</pdfrwt>
<totfact> 0.10351283E+04</totfact>
</mgrwt>
</event>
<event>
 5    1  0.3266101E-002  0.1249855E+03  0.7818608E-02  0.1235092E+00
         -4   -1    0    0    0  501 -0.00000000000E+00  0.00000000000E+00  0.16136617541E+03  0.16137117297E+03  0.12700000000E+01 0. -1.
          4   -1    0    0  501    0  0.00000000000E+00 -0.00000000000E+00 -0.24179707020E+02  0.24213036397E+02  0.12700000000E+01 0. -1.
         25    2    1    2    0    0  0.00000000000E+00  0.00000000000E+00  0.13718646839E+03  0.18558420937E+03  0.12498548579E+03 0.  0.
    9000005    1    3    3    0    0  0.10065451444E+02  0.39548044773E+02  0.13885300293E+03  0.14472911794E+03  0.10000000000E+01 0.  0.
    9000005    1    3    3    0    0 -0.10065451444E+02 -0.39548044773E+02 -0.16665345391E+01  0.40855091427E+02  0.10000000000E+01 0.  0.
<mgrwt>
<rscale>  0 0.12498549E+03</rscale>
<asrwt>0</asrwt>
<pdfrwt beam="2">  1        4 0.37229032E-02 0.12498549E+03</pdfrwt>
<pdfrwt beam="1">  1       -4 0.24828513E-01 0.12498549E+03</pdfrwt>
<totfact> 0.92651508E+03</totfact>
</mgrwt>
</event>
<event>
 5    1  0.3266101E-002  0.1250015E+03  0.7818608E-02  0.1235067E+00
          4   -1    0    0  501    0  0.00000000000E+00  0.00000000000E+00  0.30633261752E+03  0.30633525011E+03  0.12700000000E+01 0. -1.
         -4   -1    0    0    0  501 -0.00000000000E+00 -0.00000000000E+00 -0.12717645252E+02  0.12780899841E+02  0.12700000000E+01 0. -1.
         25    2    1    2    0    0  0.00000000000E+00  0.00000000000E+00  0.29361497227E+03  0.31911614995E+03  0.12500146086E+03 0.  0.
    9000005    1    3    3    0    0  0.16819656427E+02  0.57666006820E+02  0.10280627382E+03  0.11907308311E+03  0.10000000000E+01 0.  0.
    9000005    1    3    3    0    0 -0.16819656427E+02 -0.57666006820E+02  0.19080869845E+03  0.20004306684E+03  0.10000000000E+01 0.  0.
<mgrwt>
<rscale>  0 0.12500146E+03</rscale>
<asrwt>0</asrwt>
<pdfrwt beam="1">  1        4 0.47133166E-01 0.12500146E+03</pdfrwt>
<pdfrwt beam="2">  1       -4 0.19616289E-02 0.12500146E+03</pdfrwt>
<totfact> 0.73258994E+03</totfact>
</mgrwt>
</event>
<event>
 5    1  0.3266101E-002  0.1250012E+03  0.7818608E-02  0.1235067E+00
          4   -1    0    0  501    0  0.00000000000E+00  0.00000000000E+00  0.50730826951E+01  0.52296336421E+01  0.12700000000E+01 0.  1.
         -4   -1    0    0    0  501 -0.00000000000E+00 -0.00000000000E+00 -0.75815261959E+03  0.75815368330E+03  0.12700000000E+01 0.  1.
         25    2    1    2    0    0  0.00000000000E+00  0.00000000000E+00 -0.75307953690E+03  0.76338331694E+03  0.12500119874E+03 0.  0.
    9000005    1    3    3    0    0  0.16041400393E+02 -0.54843464981E+02 -0.53105946991E+03  0.53412572748E+03  0.10000000000E+01 0.  0.
    9000005    1    3    3    0    0 -0.16041400393E+02  0.54843464981E+02 -0.22202006699E+03  0.22925758945E+03  0.10000000000E+01 0.  0.
<mgrwt>
<rscale>  0 0.12500120E+03</rscale>
<asrwt>0</asrwt>
<pdfrwt beam="1">  1        4 0.79259907E-03 0.12500120E+03</pdfrwt>
<pdfrwt beam="2">  1       -4 0.11665090E+00 0.12500120E+03</pdfrwt>
<totfact> 0.39941028E+03</totfact>
</mgrwt>
</event>
<event>
 5    1  0.3266101E-002  0.1249541E+03  0.7818608E-02  0.1235141E+00
          4   -1    0    0  501    0  0.00000000000E+00  0.00000000000E+00  0.12259298113E+03  0.12259955923E+03  0.12700000000E+01 0. -1.
         -4   -1    0    0    0  501 -0.00000000000E+00 -0.00000000000E+00 -0.31820055255E+02  0.31845389249E+02  0.12700000000E+01 0. -1.
         25    2    1    2    0    0  0.00000000000E+00  0.00000000000E+00  0.90772925879E+02  0.15444494848E+03  0.12495406371E+03 0.  0.
    9000005    1    3    3    0    0 -0.10001708344E+02  0.54563522244E+02  0.98810678891E+01  0.56354659364E+02  0.10000000000E+01 0.  0.
    9000005    1    3    3    0    0  0.10001708344E+02 -0.54563522244E+02  0.80891857990E+02  0.98090289114E+02  0.10000000000E+01 0.  0.
<mgrwt>
<rscale>  0 0.12495406E+03</rscale>
<asrwt>0</asrwt>
<pdfrwt beam="1">  1        4 0.18862914E-01 0.12495406E+03</pdfrwt>
<pdfrwt beam="2">  1       -4 0.48978478E-02 0.12495406E+03</pdfrwt>
<totfact> 0.98526330E+03</totfact>
</mgrwt>
</event>
<event>
 5    1  0.3266101E-002  0.1250006E+03  0.7818608E-02  0.1235068E+00
         -4   -1    0    0    0  501 -0.00000000000E+00  0.00000000000E+00  0.33239695397E+03  0.33239938013E+03  0.12700000000E+01 0. -1.
          4   -1    0    0  501    0  0.00000000000E+00 -0.00000000000E+00 -0.11715082745E+02  0.11783720284E+02  0.12700000000E+01 0. -1.
         25    2    1    2    0    0  0.00000000000E+00  0.00000000000E+00  0.32068187123E+03  0.34418310041E+03  0.12500057630E+03 0.  0.
    9000005    1    3    3    0    0 -0.21161461444E+02 -0.52894416398E+02  0.89621731212E+02  0.10620113673E+03  0.10000000000E+01 0.  0.
    9000005    1    3    3    0    0  0.21161461444E+02  0.52894416398E+02  0.23106014002E+03  0.23798196369E+03  0.10000000000E+01 0.  0.
<mgrwt>
<rscale>  0 0.12500058E+03</rscale>
<asrwt>0</asrwt>
<pdfrwt beam="2">  1        4 0.18077868E-02 0.12500058E+03</pdfrwt>
<pdfrwt beam="1">  1       -4 0.51143460E-01 0.12500058E+03</pdfrwt>
<totfact> 0.70368362E+03</totfact>
</mgrwt>
</event>
<event>
 5    1  0.3266101E-002  0.1249970E+03  0.7818608E-02  0.1235074E+00
          4   -1    0    0  501    0  0.00000000000E+00  0.00000000000E+00  0.23049998181E+04  0.23050001679E+04  0.12700000000E+01 0.  1.
         -4   -1    0    0    0  501 -0.00000000000E+00 -0.00000000000E+00 -0.14562599727E+01  0.19322507881E+01  0.12700000000E+01 0.  1.
         25    2    1    2    0    0  0.00000000000E+00  0.00000000000E+00  0.23035435581E+04  0.23069324187E+04  0.12499704207E+03 0.  0.
    9000005    1    3    3    0    0 -0.23771968559E+01  0.38870223682E+02  0.24978627708E+03  0.25280571507E+03  0.10000000000E+01 0.  0.
    9000005    1    3    3    0    0  0.23771968559E+01 -0.38870223682E+02  0.20537572810E+04  0.20541267037E+04  0.10000000000E+01 0.  0.
<mgrwt>
<rscale>  0 0.12499704E+03</rscale>
<asrwt>0</asrwt>
<pdfrwt beam="1">  1        4 0.35465353E+00 0.12499704E+03</pdfrwt>
<pdfrwt beam="2">  1       -4 0.26068046E-03 0.12499704E+03</pdfrwt>
<totfact> 0.63686520E+02</totfact>
</mgrwt>
</event>
<event>
 5    1  0.3266101E-002  0.1249936E+03  0.7818608E-02  0.1235079E+00
          4   -1    0    0  501    0  0.00000000000E+00  0.00000000000E+00  0.29510781727E+03  0.29511054999E+03  0.12700000000E+01 0.  1.
         -4   -1    0    0    0  501 -0.00000000000E+00 -0.00000000000E+00 -0.13202075296E+02  0.13263019721E+02  0.12700000000E+01 0.  1.
         25    2    1    2    0    0  0.00000000000E+00  0.00000000000E+00  0.28190574198E+03  0.30837356971E+03  0.12499364438E+03 0.  0.
    9000005    1    3    3    0    0 -0.34694262355E+02  0.12654209463E+02  0.26531675535E+03  0.26787646691E+03  0.10000000000E+01 0.  0.
    9000005    1    3    3    0    0  0.34694262355E+02 -0.12654209463E+02  0.16588986627E+02  0.40497102795E+02  0.10000000000E+01 0.  0.
<mgrwt>
<rscale>  0 0.12499364E+03</rscale>
<asrwt>0</asrwt>
<pdfrwt beam="1">  1        4 0.45406097E-01 0.12499364E+03</pdfrwt>
<pdfrwt beam="2">  1       -4 0.20359869E-02 0.12499364E+03</pdfrwt>
<totfact> 0.74570853E+03</totfact>
</mgrwt>
</event>
<event>
 5    1  0.3266101E-002  0.1249970E+03  0.7818608E-02  0.1235074E+00
          4   -1    0    0  501    0  0.00000000000E+00  0.00000000000E+00  0.33823600024E+01  0.36129294465E+01  0.12700000000E+01 0.  1.
         -4   -1    0    0    0  501 -0.00000000000E+00 -0.00000000000E+00 -0.11165377478E+04  0.11165384701E+04  0.12700000000E+01 0.  1.
         25    2    1    2    0    0  0.00000000000E+00  0.00000000000E+00 -0.11131553878E+04  0.11201513995E+04  0.12499696185E+03 0.  0.
    9000005    1    3    3    0    0 -0.11819625471E+02 -0.61041324801E+02 -0.50038929230E+03  0.50423822815E+03  0.10000000000E+01 0.  0.
    9000005    1    3    3    0    0  0.11819625471E+02  0.61041324801E+02 -0.61276609549E+03  0.61591317137E+03  0.10000000000E+01 0.  0.
<mgrwt>
<rscale>  0 0.12499696E+03</rscale>
<asrwt>0</asrwt>
<pdfrwt beam="1">  1        4 0.53815564E-03 0.12499696E+03</pdfrwt>
<pdfrwt beam="2">  1       -4 0.17179255E+00 0.12499696E+03</pdfrwt>
<totfact> 0.26902817E+03</totfact>
</mgrwt>
</event>
<event>
 5    1  0.3266101E-002  0.1249991E+03  0.7818608E-02  0.1235071E+00
         -4   -1    0    0    0  501 -0.00000000000E+00  0.00000000000E+00  0.11380166970E+02  0.11450812210E+02  0.12700000000E+01 0. -1.
          4   -1    0    0  501    0  0.00000000000E+00 -0.00000000000E+00 -0.34211161010E+03  0.34211396736E+03  0.12700000000E+01 0. -1.
         25    2    1    2    0    0  0.00000000000E+00  0.00000000000E+00 -0.33073144313E+03  0.35356477957E+03  0.12499906352E+03 0.  0.
    9000005    1    3    3    0    0  0.43037552009E+02  0.45227914683E+02 -0.15767317563E+03  0.16958663114E+03  0.10000000000E+01 0.  0.
    9000005    1    3    3    0    0 -0.43037552009E+02 -0.45227914683E+02 -0.17305826750E+03  0.18397814843E+03  0.10000000000E+01 0.  0.
<mgrwt>
<rscale>  0 0.12499906E+03</rscale>
<asrwt>0</asrwt>
<pdfrwt beam="2">  1        4 0.52638163E-01 0.12499906E+03</pdfrwt>
<pdfrwt beam="1">  1       -4 0.17564108E-02 0.12499906E+03</pdfrwt>
<totfact> 0.69335599E+03</totfact>
</mgrwt>
</event>
<event>
 5    1  0.3266101E-002  0.1250132E+03  0.7818608E-02  0.1235049E+00
          4   -1    0    0  501    0  0.00000000000E+00  0.00000000000E+00  0.11745918000E+01  0.17299034357E+01  0.12700000000E+01 0.  1.
         -4   -1    0    0    0  501 -0.00000000000E+00 -0.00000000000E+00 -0.26898088153E+04  0.26898091151E+04  0.12700000000E+01 0.  1.
         25    2    1    2    0    0  0.00000000000E+00  0.00000000000E+00 -0.26886342235E+04  0.26915390185E+04  0.12501320176E+03 0.  0.
    9000005    1    3    3    0    0  0.25252474573E+01 -0.44020392412E+02 -0.22979552344E+04  0.22983784352E+04  0.10000000000E+01 0.  0.
    9000005    1    3    3    0    0 -0.25252474573E+01  0.44020392412E+02 -0.39067898908E+03  0.39316058339E+03  0.10000000000E+01 0.  0.
<mgrwt>
<rscale>  0 0.12501320E+03</rscale>
<asrwt>0</asrwt>
<pdfrwt beam="1">  1        4 0.22344793E-03 0.12501320E+03</pdfrwt>
<pdfrwt beam="2">  1       -4 0.41385549E+00 0.12501320E+03</pdfrwt>
<totfact> 0.33325355E+02</totfact>
</mgrwt>
</event>
<event>
 5    1  0.3266101E-002  0.1249971E+03  0.7818608E-02  0.1235074E+00
         -4   -1    0    0    0  501 -0.00000000000E+00  0.00000000000E+00  0.11976652767E+02  0.12043799712E+02  0.12700000000E+01 0.  1.
          4   -1    0    0  501    0  0.00000000000E+00 -0.00000000000E+00 -0.32515997473E+03  0.32516245489E+03  0.12700000000E+01 0.  1.
         25    2    1    2    0    0  0.00000000000E+00  0.00000000000E+00 -0.31318332197E+03  0.33720625460E+03  0.12499705990E+03 0.  0.
    9000005    1    3    3    0    0 -0.34090301913E+02  0.51245700219E+02 -0.18574641497E+03  0.19568086557E+03  0.10000000000E+01 0.  0.
    9000005    1    3    3    0    0  0.34090301913E+02 -0.51245700219E+02 -0.12743690700E+03  0.14152538903E+03  0.10000000000E+01 0.  0.
<mgrwt>
<rscale>  0 0.12499706E+03</rscale>
<asrwt>0</asrwt>
<pdfrwt beam="2">  1        4 0.50029961E-01 0.12499706E+03</pdfrwt>
<pdfrwt beam="1">  1       -4 0.18479181E-02 0.12499706E+03</pdfrwt>
<totfact> 0.71159978E+03</totfact>
</mgrwt>
</event>
<event>
 5    1  0.3266101E-002  0.1250004E+03  0.7818608E-02  0.1235069E+00
         -4   -1    0    0    0  501 -0.00000000000E+00  0.00000000000E+00  0.70192325825E+01  0.71331988650E+01  0.12700000000E+01 0.  1.
          4   -1    0    0  501    0  0.00000000000E+00 -0.00000000000E+00 -0.55191405376E+03  0.55191551494E+03  0.12700000000E+01 0.  1.
         25    2    1    2    0    0  0.00000000000E+00  0.00000000000E+00 -0.54489482118E+03  0.55904871381E+03  0.12500039307E+03 0.  0.
    9000005    1    3    3    0    0 -0.52979825974E+02 -0.19678391428E+01 -0.12448406740E+03  0.13530712246E+03  0.10000000000E+01 0.  0.
    9000005    1    3    3    0    0  0.52979825974E+02  0.19678391428E+01 -0.42041075378E+03  0.42374159135E+03  0.10000000000E+01 0.  0.
<mgrwt>
<rscale>  0 0.12500039E+03</rscale>
<asrwt>0</asrwt>
<pdfrwt beam="2">  1        4 0.84918700E-01 0.12500039E+03</pdfrwt>
<pdfrwt beam="1">  1       -4 0.10887614E-02 0.12500039E+03</pdfrwt>
<totfact> 0.51558564E+03</totfact>
</mgrwt>
</event>
<event>
 5    1  0.3266101E-002  0.1250019E+03  0.7818608E-02  0.1235066E+00
          4   -1    0    0  501    0  0.00000000000E+00  0.00000000000E+00  0.19487805441E+03  0.19488219259E+03  0.12700000000E+01 0.  1.
         -4   -1    0    0    0  501 -0.00000000000E+00 -0.00000000000E+00 -0.20020724440E+02  0.20060964760E+02  0.12700000000E+01 0.  1.
         25    2    1    2    0    0  0.00000000000E+00  0.00000000000E+00  0.17485732997E+03  0.21494315735E+03  0.12500190018E+03 0.  0.
    9000005    1    3    3    0    0 -0.35211708348E+02 -0.33060915965E+02  0.19241976216E+02  0.52001367462E+02  0.10000000000E+01 0.  0.
    9000005    1    3    3    0    0  0.35211708348E+02  0.33060915965E+02  0.15561535375E+03  0.16294178989E+03  0.10000000000E+01 0.  0.
<mgrwt>
<rscale>  0 0.12500190E+03</rscale>
<asrwt>0</asrwt>
<pdfrwt beam="1">  1        4 0.29984653E-01 0.12500190E+03</pdfrwt>
<pdfrwt beam="2">  1       -4 0.30835252E-02 0.12500190E+03</pdfrwt>
<totfact> 0.87671185E+03</totfact>
</mgrwt>
</event>
<event>
 5    1  0.3266101E-002  0.1249994E+03  0.7818608E-02  0.1235070E+00
         -4   -1    0    0    0  501 -0.00000000000E+00  0.00000000000E+00  0.77823910541E+03  0.77824014166E+03  0.12700000000E+01 0. -1.
          4   -1    0    0  501    0  0.00000000000E+00 -0.00000000000E+00 -0.49379017570E+01  0.50986050800E+01  0.12700000000E+01 0. -1.
         25    2    1    2    0    0  0.00000000000E+00  0.00000000000E+00  0.77330120365E+03  0.78333874674E+03  0.12499936228E+03 0.  0.
    9000005    1    3    3    0    0  0.21655403292E+02 -0.53913635400E+02  0.53086378473E+03  0.53403463793E+03  0.10000000000E+01 0.  0.
    9000005    1    3    3    0    0 -0.21655403292E+02  0.53913635400E+02  0.24243741893E+03  0.24930410881E+03  0.10000000000E+01 0.  0.
<mgrwt>
<rscale>  0 0.12499936E+03</rscale>
<asrwt>0</asrwt>
<pdfrwt beam="2">  1        4 0.77211881E-03 0.12499936E+03</pdfrwt>
<pdfrwt beam="1">  1       -4 0.11974152E+00 0.12499936E+03</pdfrwt>
<totfact> 0.39019986E+03</totfact>
</mgrwt>
</event>
<event>
 5    1  0.3266101E-002  0.1249979E+03  0.7818608E-02  0.1235073E+00
          4   -1    0    0  501    0  0.00000000000E+00  0.00000000000E+00  0.28467138352E+02  0.28495453426E+02  0.12700000000E+01 0.  1.
         -4   -1    0    0    0  501 -0.00000000000E+00 -0.00000000000E+00 -0.13711549184E+03  0.13712137325E+03  0.12700000000E+01 0.  1.
         25    2    1    2    0    0  0.00000000000E+00  0.00000000000E+00 -0.10864835349E+03  0.16561682668E+03  0.12499787423E+03 0.  0.
    9000005    1    3    3    0    0 -0.24058217339E+02  0.53527675800E+02 -0.82775521859E+02  0.10147313397E+03  0.10000000000E+01 0.  0.
    9000005    1    3    3    0    0  0.24058217339E+02 -0.53527675800E+02 -0.25872831630E+02  0.64143692711E+02  0.10000000000E+01 0.  0.
<mgrwt>
<rscale>  0 0.12499787E+03</rscale>
<asrwt>0</asrwt>
<pdfrwt beam="1">  1        4 0.43821903E-02 0.12499787E+03</pdfrwt>
<pdfrwt beam="2">  1       -4 0.21097321E-01 0.12499787E+03</pdfrwt>
<totfact> 0.96275300E+03</totfact>
</mgrwt>
</event>
<event>
 5    1  0.3266101E-002  0.1249998E+03  0.7818608E-02  0.1235070E+00
         -4   -1    0    0    0  501 -0.00000000000E+00  0.00000000000E+00  0.12779022685E+03  0.12779653743E+03  0.12700000000E+01 0.  1.
          4   -1    0    0  501    0  0.00000000000E+00 -0.00000000000E+00 -0.30547296592E+02  0.30573685239E+02  0.12700000000E+01 0.  1.
         25    2    1    2    0    0  0.00000000000E+00  0.00000000000E+00  0.97242930263E+02  0.15837022267E+03  0.12499975977E+03 0.  0.
    9000005    1    3    3    0    0  0.56796567685E+02  0.24058871505E+02  0.61326253975E+02  0.86986141571E+02  0.10000000000E+01 0.  0.
    9000005    1    3    3    0    0 -0.56796567685E+02 -0.24058871505E+02  0.35916676287E+02  0.71384081099E+02  0.10000000000E+01 0.  0.
<mgrwt>
<rscale>  0 0.12499976E+03</rscale>
<asrwt>0</asrwt>
<pdfrwt beam="2">  1        4 0.47020995E-02 0.12499976E+03</pdfrwt>
<pdfrwt beam="1">  1       -4 0.19662550E-01 0.12499976E+03</pdfrwt>
<totfact> 0.97658444E+03</totfact>
</mgrwt>
</event>
<event>
 5    1  0.3266101E-002  0.1250024E+03  0.7818608E-02  0.1235065E+00
          4   -1    0    0  501    0  0.00000000000E+00  0.00000000000E+00  0.17779570112E+03  0.17780023689E+03  0.12700000000E+01 0. -1.
         -4   -1    0    0    0  501 -0.00000000000E+00 -0.00000000000E+00 -0.21948121774E+02  0.21984834532E+02  0.12700000000E+01 0. -1.
         25    2    1    2    0    0  0.00000000000E+00  0.00000000000E+00  0.15584757935E+03  0.19978507142E+03  0.12500242707E+03 0.  0.
    9000005    1    3    3    0    0 -0.10992260567E+02 -0.70785743388E+01 -0.19745678847E+02  0.23702907842E+02  0.10000000000E+01 0.  0.
    9000005    1    3    3    0    0  0.10992260567E+02  0.70785743388E+01  0.17559325820E+03  0.17608216358E+03  0.10000000000E+01 0.  0.
<mgrwt>
<rscale>  0 0.12500243E+03</rscale>
<asrwt>0</asrwt>
<pdfrwt beam="1">  1        4 0.27356358E-01 0.12500243E+03</pdfrwt>
<pdfrwt beam="2">  1       -4 0.33798070E-02 0.12500243E+03</pdfrwt>
<totfact> 0.90166870E+03</totfact>
</mgrwt>
</event>
<event>
 5    1  0.3266101E-002  0.1250147E+03  0.7818608E-02  0.1235046E+00
          4   -1    0    0  501    0  0.00000000000E+00  0.00000000000E+00  0.53611833473E+03  0.53611983897E+03  0.12700000000E+01 0.  1.
         -4   -1    0    0    0  501 -0.00000000000E+00 -0.00000000000E+00 -0.72310324643E+01  0.73417116873E+01  0.12700000000E+01 0.  1.
         25    2    1    2    0    0  0.00000000000E+00  0.00000000000E+00  0.52888730227E+03  0.54346155066E+03  0.12501471330E+03 0.  0.
    9000005    1    3    3    0    0 -0.49933846260E+02  0.13871439007E+02  0.41630678401E+03  0.41952132751E+03  0.10000000000E+01 0.  0.
    9000005    1    3    3    0    0  0.49933846260E+02 -0.13871439007E+02  0.11258051826E+03  0.12394022315E+03  0.10000000000E+01 0.  0.
<mgrwt>
<rscale>  0 0.12501471E+03</rscale>
<asrwt>0</asrwt>
<pdfrwt beam="1">  1        4 0.82488368E-01 0.12501471E+03</pdfrwt>
<pdfrwt beam="2">  1       -4 0.11210961E-02 0.12501471E+03</pdfrwt>
<totfact> 0.52626223E+03</totfact>
</mgrwt>
</event>
<event>
 5    1  0.3266101E-002  0.1250000E+03  0.7818608E-02  0.1235069E+00
          4   -1    0    0  501    0  0.00000000000E+00  0.00000000000E+00  0.73194623658E+01  0.74288242222E+01  0.12700000000E+01 0. -1.
         -4   -1    0    0    0  501 -0.00000000000E+00 -0.00000000000E+00 -0.52961243773E+03  0.52961396045E+03  0.12700000000E+01 0. -1.
         25    2    1    2    0    0  0.00000000000E+00  0.00000000000E+00 -0.52229297537E+03  0.53704278467E+03  0.12500000179E+03 0.  0.
    9000005    1    3    3    0    0 -0.22110292305E+02  0.43650816244E+02 -0.42815163339E+03  0.43093976372E+03  0.10000000000E+01 0.  0.
    9000005    1    3    3    0    0  0.22110292305E+02 -0.43650816244E+02 -0.94141341981E+02  0.10610302095E+03  0.10000000000E+01 0.  0.
<mgrwt>
<rscale>  0 0.12500000E+03</rscale>
<asrwt>0</asrwt>
<pdfrwt beam="1">  1        4 0.11346011E-02 0.12500000E+03</pdfrwt>
<pdfrwt beam="2">  1       -4 0.81487336E-01 0.12500000E+03</pdfrwt>
<totfact> 0.53100657E+03</totfact>
</mgrwt>
</event>
<event>
 4    1  0.3266101E-002  0.1251091E+03  0.7818608E-02  0.1234899E+00
         -4   -1    0    0    0  501 -0.00000000000E+00  0.00000000000E+00  0.71389264773E+02  0.71400560395E+02  0.12700000000E+01 0.  1.
          4   -1    0    0  501    0  0.00000000000E+00 -0.00000000000E+00 -0.54790180033E+02  0.54804896935E+02  0.12700000000E+01 0.  1.
    9000005    1    1    2    0    0 -0.13671317267E+02  0.54475233477E+02  0.36065572212E+02  0.66754636372E+02  0.10000000000E+01 0.  0.
    9000005    1    1    2    0    0  0.13671317267E+02 -0.54475233477E+02 -0.19466487472E+02  0.59450820959E+02  0.10000000000E+01 0.  0.
<mgrwt>
<rscale>  0 0.12510910E+03</rscale>
<asrwt>0</asrwt>
<pdfrwt beam="2">  1        4 0.84312594E-02 0.12510910E+03</pdfrwt>
<pdfrwt beam="1">  1       -4 0.10984965E-01 0.12510910E+03</pdfrwt>
<totfact> 0.10400828E+04</totfact>
</mgrwt>
</event>
<event>
 5    1  0.3266101E-002  0.1250370E+03  0.7818608E-02  0.1235012E+00
          4   -1    0    0  501    0  0.00000000000E+00  0.00000000000E+00  0.60149939609E+03  0.60150073682E+03  0.12700000000E+01 0. -1.
         -4   -1    0    0    0  501 -0.00000000000E+00 -0.00000000000E+00 -0.64346151171E+01  0.65587477239E+01  0.12700000000E+01 0. -1.
         25    2    1    2    0    0  0.00000000000E+00  0.00000000000E+00  0.59506478097E+03  0.60805948455E+03  0.12503696730E+03 0.  0.
    9000005    1    3    3    0    0 -0.51556306034E+01 -0.41690297204E+02  0.72415269455E+02  0.83723549006E+02  0.10000000000E+01 0.  0.
    9000005    1    3    3    0    0  0.51556306034E+01  0.41690297204E+02  0.52264951152E+03  0.52433593554E+03  0.10000000000E+01 0.  0.
<mgrwt>
<rscale>  0 0.12503697E+03</rscale>
<asrwt>0</asrwt>
<pdfrwt beam="1">  1        4 0.92548052E-01 0.12503697E+03</pdfrwt>
<pdfrwt beam="2">  1       -4 0.99959224E-03 0.12503697E+03</pdfrwt>
<totfact> 0.48323605E+03</totfact>
</mgrwt>
</event>
<event>
 5    1  0.3266101E-002  0.1250033E+03  0.7818608E-02  0.1235064E+00
          4   -1    0    0  501    0  0.00000000000E+00  0.00000000000E+00  0.50184018963E+01  0.51766067644E+01  0.12700000000E+01 0. -1.
         -4   -1    0    0    0  501 -0.00000000000E+00 -0.00000000000E+00 -0.76618811038E+03  0.76618916293E+03  0.12700000000E+01 0. -1.
         25    2    1    2    0    0  0.00000000000E+00  0.00000000000E+00 -0.76116970849E+03  0.77136576970E+03  0.12500330211E+03 0.  0.
    9000005    1    3    3    0    0  0.40966991286E+02  0.42560518399E+02 -0.50640855834E+03  0.50984342701E+03  0.10000000000E+01 0.  0.
    9000005    1    3    3    0    0 -0.40966991286E+02 -0.42560518399E+02 -0.25476115015E+03  0.26152234269E+03  0.10000000000E+01 0.  0.
<mgrwt>
<rscale>  0 0.12500330E+03</rscale>
<asrwt>0</asrwt>
<pdfrwt beam="1">  1        4 0.78431301E-03 0.12500330E+03</pdfrwt>
<pdfrwt beam="2">  1       -4 0.11788725E+00 0.12500330E+03</pdfrwt>
<totfact> 0.39569621E+03</totfact>
</mgrwt>
</event>
<event>
 5    1  0.3266101E-002  0.1250020E+03  0.7818608E-02  0.1235066E+00
         -4   -1    0    0    0  501 -0.00000000000E+00  0.00000000000E+00  0.72762672271E+02  0.72773754720E+02  0.12700000000E+01 0. -1.
          4   -1    0    0  501    0  0.00000000000E+00 -0.00000000000E+00 -0.53663840556E+02  0.53678866262E+02  0.12700000000E+01 0. -1.
         25    2    1    2    0    0  0.00000000000E+00  0.00000000000E+00  0.19098831715E+02  0.12645262098E+03  0.12500199991E+03 0.  0.
    9000005    1    3    3    0    0 -0.12467351713E+02  0.31941927002E+02  0.62401805701E+02  0.71208896313E+02  0.10000000000E+01 0.  0.
    9000005    1    3    3    0    0  0.12467351713E+02 -0.31941927002E+02 -0.43302973985E+02  0.55243724669E+02  0.10000000000E+01 0.  0.
<mgrwt>
<rscale>  0 0.12500200E+03</rscale>
<asrwt>0</asrwt>
<pdfrwt beam="2">  1        4 0.82579838E-02 0.12500200E+03</pdfrwt>
<pdfrwt beam="1">  1       -4 0.11196266E-01 0.12500200E+03</pdfrwt>
<totfact> 0.10420591E+04</totfact>
</mgrwt>
</event>
<event>
 5    1  0.3266101E-002  0.1249997E+03  0.7818608E-02  0.1235070E+00
          4   -1    0    0  501    0  0.00000000000E+00  0.00000000000E+00  0.75369504252E+01  0.76432010121E+01  0.12700000000E+01 0.  1.
         -4   -1    0    0    0  501 -0.00000000000E+00 -0.00000000000E+00 -0.51454287697E+03  0.51454444428E+03  0.12700000000E+01 0.  1.
         25    2    1    2    0    0  0.00000000000E+00  0.00000000000E+00 -0.50700592654E+03  0.52218764529E+03  0.12499970938E+03 0.  0.
    9000005    1    3    3    0    0 -0.42261235029E+02 -0.45714582898E+02 -0.27615291739E+03  0.28308526782E+03  0.10000000000E+01 0.  0.
    9000005    1    3    3    0    0  0.42261235029E+02  0.45714582898E+02 -0.23085300915E+03  0.23910237747E+03  0.10000000000E+01 0.  0.
<mgrwt>
<rscale>  0 0.12499971E+03</rscale>
<asrwt>0</asrwt>
<pdfrwt beam="1">  1        4 0.11678249E-02 0.12499971E+03</pdfrwt>
<pdfrwt beam="2">  1       -4 0.79168709E-01 0.12499971E+03</pdfrwt>
<totfact> 0.54183414E+03</totfact>
</mgrwt>
</event>
<event>
 5    1  0.3266101E-002  0.1249991E+03  0.7818608E-02  0.1235071E+00
          4   -1    0    0  501    0  0.00000000000E+00  0.00000000000E+00  0.54802733293E+02  0.54817446825E+02  0.12700000000E+01 0.  1.
         -4   -1    0    0    0  501 -0.00000000000E+00 -0.00000000000E+00 -0.71247355830E+02  0.71258673947E+02  0.12700000000E+01 0.  1.
         25    2    1    2    0    0  0.00000000000E+00  0.00000000000E+00 -0.16444622537E+02  0.12607612077E+03  0.12499905047E+03 0.  0.
    9000005    1    3    3    0    0  0.41203342006E+02 -0.17470028401E+02 -0.52213184981E+02  0.68775969427E+02  0.10000000000E+01 0.  0.
    9000005    1    3    3    0    0 -0.41203342006E+02  0.17470028401E+02  0.35768562444E+02  0.57300151345E+02  0.10000000000E+01 0.  0.
<mgrwt>
<rscale>  0 0.12499905E+03</rscale>
<asrwt>0</asrwt>
<pdfrwt beam="1">  1        4 0.84331922E-02 0.12499905E+03</pdfrwt>
<pdfrwt beam="2">  1       -4 0.10963134E-01 0.12499905E+03</pdfrwt>
<totfact> 0.10429513E+04</totfact>
</mgrwt>
</event>
<event>
 5    1  0.3266101E-002  0.1250045E+03  0.7818608E-02  0.1235062E+00
         -4   -1    0    0    0  501 -0.00000000000E+00  0.00000000000E+00  0.41490785563E+02  0.41510217858E+02  0.12700000000E+01 0. -1.
          4   -1    0    0  501    0  0.00000000000E+00 -0.00000000000E+00 -0.94108476360E+02  0.94117045337E+02  0.12700000000E+01 0. -1.
         25    2    1    2    0    0  0.00000000000E+00  0.00000000000E+00 -0.52617690798E+02  0.13562726319E+03  0.12500453246E+03 0.  0.
    9000005    1    3    3    0    0  0.32906434362E+02 -0.36300359044E+02  0.15781951668E+02  0.51484167349E+02  0.10000000000E+01 0.  0.
    9000005    1    3    3    0    0 -0.32906434362E+02  0.36300359044E+02 -0.68399642465E+02  0.84143095846E+02  0.10000000000E+01 0.  0.
<mgrwt>
<rscale>  0 0.12500453E+03</rscale>
<asrwt>0</asrwt>
<pdfrwt beam="2">  1        4 0.14480381E-01 0.12500453E+03</pdfrwt>
<pdfrwt beam="1">  1       -4 0.63853517E-02 0.12500453E+03</pdfrwt>
<totfact> 0.10223822E+04</totfact>
</mgrwt>
</event>
<event>
 5    1  0.3266101E-002  0.1250034E+03  0.7818608E-02  0.1235064E+00
          4   -1    0    0  501    0  0.00000000000E+00  0.00000000000E+00  0.49564422287E+02  0.49580690361E+02  0.12700000000E+01 0.  1.
         -4   -1    0    0    0  501 -0.00000000000E+00 -0.00000000000E+00 -0.78781491220E+02  0.78791727096E+02  0.12700000000E+01 0.  1.
         25    2    1    2    0    0  0.00000000000E+00  0.00000000000E+00 -0.29217068933E+02  0.12837241746E+03  0.12500336174E+03 0.  0.
    9000005    1    3    3    0    0  0.66627807417E+01 -0.62133381906E+02 -0.13874916021E+02  0.64019239989E+02  0.10000000000E+01 0.  0.
    9000005    1    3    3    0    0 -0.66627807417E+01  0.62133381906E+02 -0.15342152911E+02  0.64353177468E+02  0.10000000000E+01 0.  0.
<mgrwt>
<rscale>  0 0.12500336E+03</rscale>
<asrwt>0</asrwt>
<pdfrwt beam="1">  1        4 0.76273345E-02 0.12500336E+03</pdfrwt>
<pdfrwt beam="2">  1       -4 0.12122268E-01 0.12500336E+03</pdfrwt>
<totfact> 0.10378665E+04</totfact>
</mgrwt>
</event>
<event>
 5    1  0.3266101E-002  0.1250023E+03  0.7818608E-02  0.1235066E+00
          4   -1    0    0  501    0  0.00000000000E+00  0.00000000000E+00  0.12835407598E+02  0.12898084672E+02  0.12700000000E+01 0. -1.
         -4   -1    0    0    0  501 -0.00000000000E+00 -0.00000000000E+00 -0.30353979521E+03  0.30354245202E+03  0.12700000000E+01 0. -1.
         25    2    1    2    0    0  0.00000000000E+00  0.00000000000E+00 -0.29070438761E+03  0.31644053669E+03  0.12500228911E+03 0.  0.
    9000005    1    3    3    0    0  0.55486971636E+02 -0.23042785793E+02 -0.10182703433E+03  0.11823501562E+03  0.10000000000E+01 0.  0.
    9000005    1    3    3    0    0 -0.55486971636E+02  0.23042785793E+02 -0.18887735329E+03  0.19820552107E+03  0.10000000000E+01 0.  0.
<mgrwt>
<rscale>  0 0.12500229E+03</rscale>
<asrwt>0</asrwt>
<pdfrwt beam="1">  1        4 0.19797040E-02 0.12500229E+03</pdfrwt>
<pdfrwt beam="2">  1       -4 0.46703450E-01 0.12500229E+03</pdfrwt>
<totfact> 0.73577753E+03</totfact>
</mgrwt>
</event>
<event>
 5    1  0.3266101E-002  0.1249956E+03  0.7818608E-02  0.1235076E+00
          4   -1    0    0  501    0  0.00000000000E+00  0.00000000000E+00  0.16974424261E+02  0.17021867670E+02  0.12700000000E+01 0. -1.
         -4   -1    0    0    0  501 -0.00000000000E+00 -0.00000000000E+00 -0.22973911576E+03  0.22974262602E+03  0.12700000000E+01 0. -1.
         25    2    1    2    0    0  0.00000000000E+00  0.00000000000E+00 -0.21276469150E+03  0.24676449369E+03  0.12499560551E+03 0.  0.
    9000005    1    3    3    0    0  0.20258349012E+02 -0.51973796364E+02 -0.50778296891E+02  0.75439456840E+02  0.10000000000E+01 0.  0.
    9000005    1    3    3    0    0 -0.20258349012E+02  0.51973796364E+02 -0.16198639461E+03  0.17132503685E+03  0.10000000000E+01 0.  0.
<mgrwt>
<rscale>  0 0.12499561E+03</rscale>
<asrwt>0</asrwt>
<pdfrwt beam="1">  1        4 0.26153696E-02 0.12499561E+03</pdfrwt>
<pdfrwt beam="2">  1       -4 0.35348397E-01 0.12499561E+03</pdfrwt>
<totfact> 0.82808228E+03</totfact>
</mgrwt>
</event>
<event>
 5    1  0.3266101E-002  0.1249997E+03  0.7818608E-02  0.1235070E+00
         -4   -1    0    0    0  501 -0.00000000000E+00  0.00000000000E+00  0.24917145351E+02  0.24949489623E+02  0.12700000000E+01 0.  1.
          4   -1    0    0  501    0  0.00000000000E+00 -0.00000000000E+00 -0.15663227127E+03  0.15663741987E+03  0.12700000000E+01 0.  1.
         25    2    1    2    0    0  0.00000000000E+00  0.00000000000E+00 -0.13171512592E+03  0.18158690950E+03  0.12499972521E+03 0.  0.
    9000005    1    3    3    0    0  0.41949104394E+02 -0.46291962046E+02 -0.68181751756E+02  0.92479318672E+02  0.10000000000E+01 0.  0.
    9000005    1    3    3    0    0 -0.41949104394E+02  0.46291962046E+02 -0.63533374167E+02  0.89107590825E+02  0.10000000000E+01 0.  0.
<mgrwt>
<rscale>  0 0.12499973E+03</rscale>
<asrwt>0</asrwt>
<pdfrwt beam="2">  1        4 0.24100156E-01 0.12499973E+03</pdfrwt>
<pdfrwt beam="1">  1       -4 0.38362911E-02 0.12499973E+03</pdfrwt>
<totfact> 0.93332707E+03</totfact>
</mgrwt>
</event>
<event>
 5    1  0.3266101E-002  0.1250204E+03  0.7818608E-02  0.1235037E+00
          4   -1    0    0  501    0  0.00000000000E+00  0.00000000000E+00  0.10602703449E+03  0.10603464030E+03  0.12700000000E+01 0.  1.
         -4   -1    0    0    0  501 -0.00000000000E+00 -0.00000000000E+00 -0.36834150606E+02  0.36856038187E+02  0.12700000000E+01 0.  1.
         25    2    1    2    0    0  0.00000000000E+00  0.00000000000E+00  0.69192883887E+02  0.14289067849E+03  0.12502036161E+03 0.  0.
    9000005    1    3    3    0    0 -0.19423351829E+02 -0.37869360107E+01 -0.33164677954E+02  0.38632930828E+02  0.10000000000E+01 0.  0.
    9000005    1    3    3    0    0  0.19423351829E+02  0.37869360107E+01  0.10235756184E+03  0.10425774766E+03  0.10000000000E+01 0.  0.
<mgrwt>
<rscale>  0 0.12502036E+03</rscale>
<asrwt>0</asrwt>
<pdfrwt beam="1">  1        4 0.16314120E-01 0.12502036E+03</pdfrwt>
<pdfrwt beam="2">  1       -4 0.56690612E-02 0.12502036E+03</pdfrwt>
<totfact> 0.10069404E+04</totfact>
</mgrwt>
</event>
<event>
 5    1  0.3266101E-002  0.1250000E+03  0.7818608E-02  0.1235069E+00
          4   -1    0    0  501    0  0.00000000000E+00  0.00000000000E+00  0.69601357741E+02  0.69612943476E+02  0.12700000000E+01 0.  1.
         -4   -1    0    0    0  501 -0.00000000000E+00 -0.00000000000E+00 -0.56099723228E+02  0.56114096680E+02  0.12700000000E+01 0.  1.
         25    2    1    2    0    0  0.00000000000E+00  0.00000000000E+00  0.13501634513E+02  0.12572704016E+03  0.12499997797E+03 0.  0.
    9000005    1    3    3    0    0  0.47835043975E+02  0.16582537897E+02 -0.30096630497E+02  0.58906529031E+02  0.10000000000E+01 0.  0.
    9000005    1    3    3    0    0 -0.47835043975E+02 -0.16582537897E+02  0.43598265010E+02  0.66820511125E+02  0.10000000000E+01 0.  0.
<mgrwt>
<rscale>  0 0.12499998E+03</rscale>
<asrwt>0</asrwt>
<pdfrwt beam="1">  1        4 0.10709898E-01 0.12499998E+03</pdfrwt>
<pdfrwt beam="2">  1       -4 0.86327235E-02 0.12499998E+03</pdfrwt>
<totfact> 0.10436955E+04</totfact>
</mgrwt>
</event>
<event>
 5    1  0.3266101E-002  0.1250069E+03  0.7818608E-02  0.1235059E+00
          4   -1    0    0  501    0  0.00000000000E+00  0.00000000000E+00  0.23596843943E+02  0.23630995410E+02  0.12700000000E+01 0. -1.
         -4   -1    0    0    0  501 -0.00000000000E+00 -0.00000000000E+00 -0.16540308355E+03  0.16540795914E+03  0.12700000000E+01 0. -1.
         25    2    1    2    0    0  0.00000000000E+00  0.00000000000E+00 -0.14180623961E+03  0.18903895455E+03  0.12500686680E+03 0.  0.
    9000005    1    3    3    0    0 -0.48245003659E+02  0.39562450510E+01 -0.13067818725E+03  0.13935932289E+03  0.10000000000E+01 0.  0.
    9000005    1    3    3    0    0  0.48245003659E+02 -0.39562450510E+01 -0.11128052355E+02  0.49679631663E+02  0.10000000000E+01 0.  0.
<mgrwt>
<rscale>  0 0.12500687E+03</rscale>
<asrwt>0</asrwt>
<pdfrwt beam="1">  1        4 0.36332859E-02 0.12500687E+03</pdfrwt>
<pdfrwt beam="2">  1       -4 0.25449630E-01 0.12500687E+03</pdfrwt>
<totfact> 0.92000650E+03</totfact>
</mgrwt>
</event>
<event>
 5    1  0.3266101E-002  0.1250035E+03  0.7818608E-02  0.1235064E+00
         -4   -1    0    0    0  501 -0.00000000000E+00  0.00000000000E+00  0.14434019574E+03  0.14434578278E+03  0.12700000000E+01 0.  1.
          4   -1    0    0  501    0  0.00000000000E+00 -0.00000000000E+00 -0.27043322393E+02  0.27073126640E+02  0.12700000000E+01 0.  1.
         25    2    1    2    0    0  0.00000000000E+00  0.00000000000E+00  0.11729687335E+03  0.17141890942E+03  0.12500354399E+03 0.  0.
    9000005    1    3    3    0    0 -0.32370813399E+01  0.55389803824E+02  0.19213668327E+02  0.58725412845E+02  0.10000000000E+01 0.  0.
    9000005    1    3    3    0    0  0.32370813399E+01 -0.55389803824E+02  0.98083205019E+02  0.11269349657E+03  0.10000000000E+01 0.  0.
<mgrwt>
<rscale>  0 0.12500354E+03</rscale>
<asrwt>0</asrwt>
<pdfrwt beam="2">  1        4 0.41632335E-02 0.12500354E+03</pdfrwt>
<pdfrwt beam="1">  1       -4 0.22208906E-01 0.12500354E+03</pdfrwt>
<totfact> 0.95177260E+03</totfact>
</mgrwt>
</event>
<event>
 5    1  0.3266101E-002  0.1249999E+03  0.7818608E-02  0.1235069E+00
          4   -1    0    0  501    0  0.00000000000E+00  0.00000000000E+00  0.21077623092E+03  0.21078005698E+03  0.12700000000E+01 0. -1.
         -4   -1    0    0    0  501 -0.00000000000E+00 -0.00000000000E+00 -0.18506894541E+02  0.18550419013E+02  0.12700000000E+01 0. -1.
         25    2    1    2    0    0  0.00000000000E+00  0.00000000000E+00  0.19226933638E+03  0.22933047599E+03  0.12499987803E+03 0.  0.
    9000005    1    3    3    0    0 -0.74408633220E+01 -0.24408826330E+02  0.20079127218E+03  0.20240872568E+03  0.10000000000E+01 0.  0.
    9000005    1    3    3    0    0  0.74408633220E+01  0.24408826330E+02 -0.85219358025E+01  0.26921750308E+02  0.10000000000E+01 0.  0.
<mgrwt>
<rscale>  0 0.12499988E+03</rscale>
<asrwt>0</asrwt>
<pdfrwt beam="1">  1        4 0.32430756E-01 0.12499988E+03</pdfrwt>
<pdfrwt beam="2">  1       -4 0.28508568E-02 0.12499988E+03</pdfrwt>
<totfact> 0.85412739E+03</totfact>
</mgrwt>
</event>
<event>
 5    1  0.3266101E-002  0.1249989E+03  0.7818608E-02  0.1235071E+00
          4   -1    0    0  501    0  0.00000000000E+00  0.00000000000E+00  0.48373035395E+01  0.50012403995E+01  0.12700000000E+01 0.  1.
         -4   -1    0    0    0  501 -0.00000000000E+00 -0.00000000000E+00 -0.79389194286E+03  0.79389295868E+03  0.12700000000E+01 0.  1.
         25    2    1    2    0    0  0.00000000000E+00  0.00000000000E+00 -0.78905463932E+03  0.79889419908E+03  0.12499886994E+03 0.  0.
    9000005    1    3    3    0    0 -0.23090986607E+02  0.17172938009E+02 -0.39997894934E+02  0.49284227310E+02  0.10000000000E+01 0.  0.
    9000005    1    3    3    0    0  0.23090986607E+02 -0.17172938009E+02 -0.74905674439E+03  0.74960997177E+03  0.10000000000E+01 0.  0.
<mgrwt>
<rscale>  0 0.12499887E+03</rscale>
<asrwt>0</asrwt>
<pdfrwt beam="1">  1        4 0.75688984E-03 0.12499887E+03</pdfrwt>
<pdfrwt beam="2">  1       -4 0.12214981E+00 0.12499887E+03</pdfrwt>
<totfact> 0.38315112E+03</totfact>
</mgrwt>
</event>
<event>
 5    1  0.3266101E-002  0.1250057E+03  0.7818608E-02  0.1235060E+00
          4   -1    0    0  501    0  0.00000000000E+00  0.00000000000E+00  0.67067558697E+02  0.67079582062E+02  0.12700000000E+01 0. -1.
         -4   -1    0    0    0  501 -0.00000000000E+00 -0.00000000000E+00 -0.58224669536E+02  0.58238518548E+02  0.12700000000E+01 0. -1.
         25    2    1    2    0    0  0.00000000000E+00  0.00000000000E+00  0.88428891607E+01  0.12531810061E+03  0.12500571848E+03 0.  0.
    9000005    1    3    3    0    0 -0.13358247846E+02  0.57749109320E+02  0.24275100290E+02  0.64059994590E+02  0.10000000000E+01 0.  0.
    9000005    1    3    3    0    0  0.13358247846E+02 -0.57749109320E+02 -0.15432211129E+02  0.61258106019E+02  0.10000000000E+01 0.  0.
<mgrwt>
<rscale>  0 0.12500572E+03</rscale>
<asrwt>0</asrwt>
<pdfrwt beam="1">  1        4 0.10320076E-01 0.12500572E+03</pdfrwt>
<pdfrwt beam="2">  1       -4 0.89596317E-02 0.12500572E+03</pdfrwt>
<totfact> 0.10444607E+04</totfact>
</mgrwt>
</event>
<event>
 5    1  0.3266101E-002  0.1249993E+03  0.7818608E-02  0.1235070E+00
         -4   -1    0    0    0  501 -0.00000000000E+00  0.00000000000E+00  0.36347989693E+03  0.36348211561E+03  0.12700000000E+01 0.  1.
          4   -1    0    0  501    0  0.00000000000E+00 -0.00000000000E+00 -0.10706906529E+02  0.10781963987E+02  0.12700000000E+01 0.  1.
         25    2    1    2    0    0  0.00000000000E+00  0.00000000000E+00  0.35277299040E+03  0.37426407960E+03  0.12499927409E+03 0.  0.
    9000005    1    3    3    0    0 -0.72374280647E+01  0.48373066067E+02  0.59927894183E+02  0.77360754824E+02  0.10000000000E+01 0.  0.
    9000005    1    3    3    0    0  0.72374280647E+01 -0.48373066067E+02  0.29284509621E+03  0.29690332477E+03  0.10000000000E+01 0.  0.
<mgrwt>
<rscale>  0 0.12499927E+03</rscale>
<asrwt>0</asrwt>
<pdfrwt beam="2">  1        4 0.16531605E-02 0.12499927E+03</pdfrwt>
<pdfrwt beam="1">  1       -4 0.55925935E-01 0.12499927E+03</pdfrwt>
<totfact> 0.67136253E+03</totfact>
</mgrwt>
</event>
<event>
 5    1  0.3266101E-002  0.1250002E+03  0.7818608E-02  0.1235069E+00
         -4   -1    0    0    0  501 -0.00000000000E+00  0.00000000000E+00  0.10961194792E+04  0.10961202149E+04  0.12700000000E+01 0. -1.
          4   -1    0    0  501    0  0.00000000000E+00 -0.00000000000E+00 -0.34498105165E+01  0.36761518739E+01  0.12700000000E+01 0. -1.
         25    2    1    2    0    0  0.00000000000E+00  0.00000000000E+00  0.10926696687E+04  0.10997963668E+04  0.12500017431E+03 0.  0.
    9000005    1    3    3    0    0  0.11729967948E+01  0.98328532181E+01  0.34540043998E+01  0.10535229959E+02  0.10000000000E+01 0.  0.
    9000005    1    3    3    0    0 -0.11729967948E+01 -0.98328532181E+01  0.10892156643E+04  0.10892611369E+04  0.10000000000E+01 0.  0.
<mgrwt>
<rscale>  0 0.12500017E+03</rscale>
<asrwt>0</asrwt>
<pdfrwt beam="2">  1        4 0.54820712E-03 0.12500017E+03</pdfrwt>
<pdfrwt beam="1">  1       -4 0.16865137E+00 0.12500017E+03</pdfrwt>
<totfact> 0.27489219E+03</totfact>
</mgrwt>
</event>
<event>
 5    1  0.3266101E-002  0.1250062E+03  0.7818608E-02  0.1235060E+00
         -4   -1    0    0    0  501 -0.00000000000E+00  0.00000000000E+00  0.86782852645E+01  0.87707203315E+01  0.12700000000E+01 0.  1.
          4   -1    0    0  501    0  0.00000000000E+00 -0.00000000000E+00 -0.44768411961E+03  0.44768592099E+03  0.12700000000E+01 0.  1.
         25    2    1    2    0    0  0.00000000000E+00  0.00000000000E+00 -0.43900583435E+03  0.45645664132E+03  0.12500617111E+03 0.  0.
    9000005    1    3    3    0    0  0.26300972254E+02  0.34858372306E+02 -0.38275227892E+03  0.38523649137E+03  0.10000000000E+01 0.  0.
    9000005    1    3    3    0    0 -0.26300972254E+02 -0.34858372306E+02 -0.56253555423E+02  0.71220149951E+02  0.10000000000E+01 0.  0.
<mgrwt>
<rscale>  0 0.12500617E+03</rscale>
<asrwt>0</asrwt>
<pdfrwt beam="2">  1        4 0.68881711E-01 0.12500617E+03</pdfrwt>
<pdfrwt beam="1">  1       -4 0.13423701E-02 0.12500617E+03</pdfrwt>
<totfact> 0.59400445E+03</totfact>
</mgrwt>
</event>
<event>
 5    1  0.3266101E-002  0.1250128E+03  0.7818608E-02  0.1235049E+00
         -4   -1    0    0    0  501 -0.00000000000E+00  0.00000000000E+00  0.65822968912E+02  0.65835219574E+02  0.12700000000E+01 0. -1.
          4   -1    0    0  501    0  0.00000000000E+00 -0.00000000000E+00 -0.59332349183E+02  0.59345939706E+02  0.12700000000E+01 0. -1.
         25    2    1    2    0    0  0.00000000000E+00  0.00000000000E+00  0.64906197284E+01  0.12518115928E+03  0.12501277732E+03 0.  0.
    9000005    1    3    3    0    0  0.37375567736E+02 -0.43440001907E+02  0.28220471709E+02  0.63885537117E+02  0.10000000000E+01 0.  0.
    9000005    1    3    3    0    0 -0.37375567736E+02  0.43440001907E+02 -0.21729851980E+02  0.61295622163E+02  0.10000000000E+01 0.  0.
<mgrwt>
<rscale>  0 0.12501278E+03</rscale>
<asrwt>0</asrwt>
<pdfrwt beam="2">  1        4 0.91300415E-02 0.12501278E+03</pdfrwt>
<pdfrwt beam="1">  1       -4 0.10128598E-01 0.12501278E+03</pdfrwt>
<totfact> 0.10445912E+04</totfact>
</mgrwt>
</event>
<event>
 5    1  0.3266101E-002  0.1249991E+03  0.7818608E-02  0.1235071E+00
          4   -1    0    0  501    0  0.00000000000E+00  0.00000000000E+00  0.12702278095E+02  0.12765608830E+02  0.12700000000E+01 0.  1.
         -4   -1    0    0    0  501 -0.00000000000E+00 -0.00000000000E+00 -0.30668970224E+03  0.30669233176E+03  0.12700000000E+01 0.  1.
         25    2    1    2    0    0  0.00000000000E+00  0.00000000000E+00 -0.29398742414E+03  0.31945794059E+03  0.12499908100E+03 0.  0.
    9000005    1    3    3    0    0  0.26401349934E+02  0.48532648599E+02 -0.22162415627E+03  0.22840909768E+03  0.10000000000E+01 0.  0.
    9000005    1    3    3    0    0 -0.26401349934E+02 -0.48532648599E+02 -0.72363267872E+02  0.91048842911E+02  0.10000000000E+01 0.  0.
<mgrwt>
<rscale>  0 0.12499908E+03</rscale>
<asrwt>0</asrwt>
<pdfrwt beam="1">  1        4 0.19592707E-02 0.12499908E+03</pdfrwt>
<pdfrwt beam="2">  1       -4 0.47188099E-01 0.12499908E+03</pdfrwt>
<totfact> 0.73222136E+03</totfact>
</mgrwt>
</event>
<event>
 5    1  0.3266101E-002  0.1249970E+03  0.7818608E-02  0.1235074E+00
          4   -1    0    0  501    0  0.00000000000E+00  0.00000000000E+00  0.44433974984E+03  0.44434156478E+03  0.12700000000E+01 0.  1.
         -4   -1    0    0    0  501 -0.00000000000E+00 -0.00000000000E+00 -0.87430059249E+01  0.88347638680E+01  0.12700000000E+01 0.  1.
         25    2    1    2    0    0  0.00000000000E+00  0.00000000000E+00  0.43559674392E+03  0.45317632865E+03  0.12499704610E+03 0.  0.
    9000005    1    3    3    0    0 -0.51182270602E+02  0.34755927628E+02  0.18588863791E+03  0.19591627047E+03  0.10000000000E+01 0.  0.
    9000005    1    3    3    0    0  0.51182270602E+02 -0.34755927628E+02  0.24970810600E+03  0.25726005818E+03  0.10000000000E+01 0.  0.
<mgrwt>
<rscale>  0 0.12499705E+03</rscale>
<asrwt>0</asrwt>
<pdfrwt beam="1">  1        4 0.68367164E-01 0.12499705E+03</pdfrwt>
<pdfrwt beam="2">  1       -4 0.13522757E-02 0.12499705E+03</pdfrwt>
<totfact> 0.59693493E+03</totfact>
</mgrwt>
</event>
<event>
 5    1  0.3266101E-002  0.1250023E+03  0.7818608E-02  0.1235066E+00
          4   -1    0    0  501    0  0.00000000000E+00  0.00000000000E+00  0.13837586578E+02  0.13895744036E+02  0.12700000000E+01 0.  1.
         -4   -1    0    0    0  501 -0.00000000000E+00 -0.00000000000E+00 -0.28165168516E+03  0.28165454844E+03  0.12700000000E+01 0.  1.
         25    2    1    2    0    0  0.00000000000E+00  0.00000000000E+00 -0.26781409858E+03  0.29555029247E+03  0.12500233590E+03 0.  0.
    9000005    1    3    3    0    0 -0.24082383368E+02  0.54507947396E+02 -0.89401909960E+02  0.10744663337E+03  0.10000000000E+01 0.  0.
    9000005    1    3    3    0    0  0.24082383368E+02 -0.54507947396E+02 -0.17841218862E+03  0.18810365910E+03  0.10000000000E+01 0.  0.
<mgrwt>
<rscale>  0 0.12500234E+03</rscale>
<asrwt>0</asrwt>
<pdfrwt beam="1">  1        4 0.21335536E-02 0.12500234E+03</pdfrwt>
<pdfrwt beam="2">  1       -4 0.43335718E-01 0.12500234E+03</pdfrwt>
<totfact> 0.76156465E+03</totfact>
</mgrwt>
</event>
<event>
 5    1  0.3266101E-002  0.1250014E+03  0.7818608E-02  0.1235067E+00
         -4   -1    0    0    0  501 -0.00000000000E+00  0.00000000000E+00  0.47560399623E+02  0.47577352935E+02  0.12700000000E+01 0.  1.
          4   -1    0    0  501    0  0.00000000000E+00 -0.00000000000E+00 -0.82097713068E+02  0.82107535531E+02  0.12700000000E+01 0.  1.
         25    2    1    2    0    0  0.00000000000E+00  0.00000000000E+00 -0.34537313444E+02  0.12968488847E+03  0.12500137710E+03 0.  0.
    9000005    1    3    3    0    0  0.93725008254E+00  0.19945344941E+02 -0.78704272978E+02  0.81203804145E+02  0.10000000000E+01 0.  0.
    9000005    1    3    3    0    0 -0.93725008254E+00 -0.19945344941E+02  0.44166959534E+02  0.48481084322E+02  0.10000000000E+01 0.  0.
<mgrwt>
<rscale>  0 0.12500138E+03</rscale>
<asrwt>0</asrwt>
<pdfrwt beam="2">  1        4 0.12632477E-01 0.12500138E+03</pdfrwt>
<pdfrwt beam="1">  1       -4 0.73190443E-02 0.12500138E+03</pdfrwt>
<totfact> 0.10350931E+04</totfact>
</mgrwt>
</event>
<event>
 5    1  0.3266101E-002  0.1249989E+03  0.7818608E-02  0.1235071E+00
         -4   -1    0    0    0  501 -0.00000000000E+00  0.00000000000E+00  0.31411166766E+02  0.31436830273E+02  0.12700000000E+01 0. -1.
          4   -1    0    0  501    0  0.00000000000E+00 -0.00000000000E+00 -0.12427668643E+03  0.12428317541E+03  0.12700000000E+01 0. -1.
         25    2    1    2    0    0  0.00000000000E+00  0.00000000000E+00 -0.92865519666E+02  0.15572000568E+03  0.12499886170E+03 0.  0.
    9000005    1    3    3    0    0 -0.55681445716E+02 -0.19387335051E+02 -0.72232161966E+02  0.93245790144E+02  0.10000000000E+01 0.  0.
    9000005    1    3    3    0    0  0.55681445716E+02  0.19387335051E+02 -0.20633357700E+02  0.62474215540E+02  0.10000000000E+01 0.  0.
<mgrwt>
<rscale>  0 0.12499886E+03</rscale>
<asrwt>0</asrwt>
<pdfrwt beam="2">  1        4 0.19121963E-01 0.12499886E+03</pdfrwt>
<pdfrwt beam="1">  1       -4 0.48349606E-02 0.12499886E+03</pdfrwt>
<totfact> 0.98176851E+03</totfact>
</mgrwt>
</event>
<event>
 5    1  0.3266101E-002  0.1249948E+03  0.7818608E-02  0.1235077E+00
         -4   -1    0    0    0  501 -0.00000000000E+00  0.00000000000E+00  0.19594568911E+04  0.19594573026E+04  0.12700000000E+01 0. -1.
          4   -1    0    0  501    0  0.00000000000E+00 -0.00000000000E+00 -0.17906347845E+01  0.21952842484E+01  0.12700000000E+01 0. -1.
         25    2    1    2    0    0  0.00000000000E+00  0.00000000000E+00  0.19576662563E+04  0.19616525869E+04  0.12499480245E+03 0.  0.
    9000005    1    3    3    0    0 -0.46460599861E+02  0.40666725500E+02  0.11298170450E+04  0.11315033915E+04  0.10000000000E+01 0.  0.
    9000005    1    3    3    0    0  0.46460599861E+02 -0.40666725500E+02  0.82784921132E+03  0.83014919537E+03  0.10000000000E+01 0.  0.
<mgrwt>
<rscale>  0 0.12499480E+03</rscale>
<asrwt>0</asrwt>
<pdfrwt beam="2">  1        4 0.30664082E-03 0.12499480E+03</pdfrwt>
<pdfrwt beam="1">  1       -4 0.30148606E+00 0.12499480E+03</pdfrwt>
<totfact> 0.10371350E+03</totfact>
</mgrwt>
</event>
<event>
 5    1  0.3266101E-002  0.1250005E+03  0.7818608E-02  0.1235069E+00
         -4   -1    0    0    0  501 -0.00000000000E+00  0.00000000000E+00  0.22191197905E+02  0.22227509183E+02  0.12700000000E+01 0. -1.
          4   -1    0    0  501    0  0.00000000000E+00 -0.00000000000E+00 -0.17584576445E+03  0.17585035051E+03  0.12700000000E+01 0. -1.
         25    2    1    2    0    0  0.00000000000E+00  0.00000000000E+00 -0.15365456654E+03  0.19807785969E+03  0.12500045072E+03 0.  0.
    9000005    1    3    3    0    0 -0.57462915523E+02  0.79737304047E+01 -0.40013958343E+02  0.70481798355E+02  0.10000000000E+01 0.  0.
    9000005    1    3    3    0    0  0.57462915523E+02 -0.79737304047E+01 -0.11364060820E+03  0.12759606134E+03  0.10000000000E+01 0.  0.
<mgrwt>
<rscale>  0 0.12500045E+03</rscale>
<asrwt>0</asrwt>
<pdfrwt beam="2">  1        4 0.27056340E-01 0.12500045E+03</pdfrwt>
<pdfrwt beam="1">  1       -4 0.34171765E-02 0.12500045E+03</pdfrwt>
<totfact> 0.90459568E+03</totfact>
</mgrwt>
</event>
<event>
 5    1  0.3266101E-002  0.1249979E+03  0.7818608E-02  0.1235073E+00
          4   -1    0    0  501    0  0.00000000000E+00  0.00000000000E+00  0.35234659593E+02  0.35257540139E+02  0.12700000000E+01 0. -1.
         -4   -1    0    0    0  501 -0.00000000000E+00 -0.00000000000E+00 -0.11079768581E+03  0.11080496415E+03  0.12700000000E+01 0. -1.
         25    2    1    2    0    0  0.00000000000E+00  0.00000000000E+00 -0.75563026214E+02  0.14606250429E+03  0.12499793690E+03 0.  0.
    9000005    1    3    3    0    0 -0.41779722507E+01  0.10581629095E+02 -0.10958314822E+03  0.11017664317E+03  0.10000000000E+01 0.  0.
    9000005    1    3    3    0    0  0.41779722507E+01 -0.10581629095E+02  0.34020122009E+02  0.35885861115E+02  0.10000000000E+01 0.  0.
<mgrwt>
<rscale>  0 0.12499794E+03</rscale>
<asrwt>0</asrwt>
<pdfrwt beam="1">  1        4 0.54230368E-02 0.12499794E+03</pdfrwt>
<pdfrwt beam="2">  1       -4 0.17048118E-01 0.12499794E+03</pdfrwt>
<totfact> 0.10009910E+04</totfact>
</mgrwt>
</event>
<event>
 5    1  0.3266101E-002  0.1250009E+03  0.7818608E-02  0.1235068E+00
          4   -1    0    0  501    0  0.00000000000E+00  0.00000000000E+00  0.38505988800E+03  0.38506198235E+03  0.12700000000E+01 0.  1.
         -4   -1    0    0    0  501 -0.00000000000E+00 -0.00000000000E+00 -0.10102787917E+02  0.10182299529E+02  0.12700000000E+01 0.  1.
         25    2    1    2    0    0  0.00000000000E+00  0.00000000000E+00  0.37495710008E+03  0.39524428188E+03  0.12500086180E+03 0.  0.
    9000005    1    3    3    0    0  0.49707113947E+02  0.20601481944E+02  0.28797059505E+03  0.29295610908E+03  0.10000000000E+01 0.  0.
    9000005    1    3    3    0    0 -0.49707113947E+02 -0.20601481944E+02  0.86986505035E+02  0.10228817279E+03  0.10000000000E+01 0.  0.
<mgrwt>
<rscale>  0 0.12500086E+03</rscale>
<asrwt>0</asrwt>
<pdfrwt beam="1">  1        4 0.59246254E-01 0.12500086E+03</pdfrwt>
<pdfrwt beam="2">  1       -4 0.15605526E-02 0.12500086E+03</pdfrwt>
<totfact> 0.65016732E+03</totfact>
</mgrwt>
</event>
<event>
 5    1  0.3266101E-002  0.1249983E+03  0.7818608E-02  0.1235072E+00
          4   -1    0    0  501    0  0.00000000000E+00  0.00000000000E+00  0.18659904641E+03  0.18660336819E+03  0.12700000000E+01 0.  1.
         -4   -1    0    0    0  501 -0.00000000000E+00 -0.00000000000E+00 -0.20909522391E+02  0.20948055437E+02  0.12700000000E+01 0.  1.
         25    2    1    2    0    0  0.00000000000E+00  0.00000000000E+00  0.16568952402E+03  0.20755142363E+03  0.12499830031E+03 0.  0.
    9000005    1    3    3    0    0 -0.30467254542E+02  0.47190854900E+02  0.12831499311E+03  0.14007486514E+03  0.10000000000E+01 0.  0.
    9000005    1    3    3    0    0  0.30467254542E+02 -0.47190854900E+02  0.37374530903E+02  0.67476558490E+02  0.10000000000E+01 0.  0.
<mgrwt>
<rscale>  0 0.12499830E+03</rscale>
<asrwt>0</asrwt>
<pdfrwt beam="1">  1        4 0.28710842E-01 0.12499830E+03</pdfrwt>
<pdfrwt beam="2">  1       -4 0.32201461E-02 0.12499830E+03</pdfrwt>
<totfact> 0.88880711E+03</totfact>
</mgrwt>
</event>
<event>
 5    1  0.3266101E-002  0.1249984E+03  0.7818608E-02  0.1235072E+00
         -4   -1    0    0    0  501 -0.00000000000E+00  0.00000000000E+00  0.10544055118E+02  0.10620263572E+02  0.12700000000E+01 0.  1.
          4   -1    0    0  501    0  0.00000000000E+00 -0.00000000000E+00 -0.36904867738E+03  0.36905086259E+03  0.12700000000E+01 0.  1.
         25    2    1    2    0    0  0.00000000000E+00  0.00000000000E+00 -0.35850462227E+03  0.37967112616E+03  0.12499839941E+03 0.  0.
    9000005    1    3    3    0    0  0.56990480123E+02  0.77559908540E+01 -0.25347202709E+03  0.25991756142E+03  0.10000000000E+01 0.  0.
    9000005    1    3    3    0    0 -0.56990480123E+02 -0.77559908540E+01 -0.10503259518E+03  0.11975356474E+03  0.10000000000E+01 0.  0.
<mgrwt>
<rscale>  0 0.12499840E+03</rscale>
<asrwt>0</asrwt>
<pdfrwt beam="2">  1        4 0.56782740E-01 0.12499840E+03</pdfrwt>
<pdfrwt beam="1">  1       -4 0.16281929E-02 0.12499840E+03</pdfrwt>
<totfact> 0.66581507E+03</totfact>
</mgrwt>
</event>
<event>
 5    1  0.3266101E-002  0.1250001E+03  0.7818608E-02  0.1235069E+00
          4   -1    0    0  501    0  0.00000000000E+00  0.00000000000E+00  0.21653351976E+03  0.21653724409E+03  0.12700000000E+01 0. -1.
         -4   -1    0    0    0  501 -0.00000000000E+00 -0.00000000000E+00 -0.18013739184E+02  0.18058452298E+02  0.12700000000E+01 0. -1.
         25    2    1    2    0    0  0.00000000000E+00  0.00000000000E+00  0.19851978058E+03  0.23459569639E+03  0.12500014994E+03 0.  0.
    9000005    1    3    3    0    0  0.46718739706E+02  0.32992892959E+02  0.14651885321E+03  0.15728937018E+03  0.10000000000E+01 0.  0.
    9000005    1    3    3    0    0 -0.46718739706E+02 -0.32992892959E+02  0.52000927366E+02  0.77306326212E+02  0.10000000000E+01 0.  0.
<mgrwt>
<rscale>  0 0.12500015E+03</rscale>
<asrwt>0</asrwt>
<pdfrwt beam="1">  1        4 0.33316577E-01 0.12500015E+03</pdfrwt>
<pdfrwt beam="2">  1       -4 0.27750703E-02 0.12500015E+03</pdfrwt>
<totfact> 0.84608597E+03</totfact>
</mgrwt>
</event>
<event>
 5    1  0.3266101E-002  0.1250014E+03  0.7818608E-02  0.1235067E+00
         -4   -1    0    0    0  501 -0.00000000000E+00  0.00000000000E+00  0.92528384336E+02  0.92537099630E+02  0.12700000000E+01 0. -1.
          4   -1    0    0  501    0  0.00000000000E+00 -0.00000000000E+00 -0.42197478541E+02  0.42216585547E+02  0.12700000000E+01 0. -1.
         25    2    1    2    0    0  0.00000000000E+00  0.00000000000E+00  0.50330905795E+02  0.13475368518E+03  0.12500142235E+03 0.  0.
    9000005    1    3    3    0    0  0.64714771188E+00 -0.14610346787E+02 -0.40332036603E+02  0.42913333708E+02  0.10000000000E+01 0.  0.
    9000005    1    3    3    0    0 -0.64714771188E+00  0.14610346787E+02  0.90662942399E+02  0.91840351468E+02  0.10000000000E+01 0.  0.
<mgrwt>
<rscale>  0 0.12500142E+03</rscale>
<asrwt>0</asrwt>
<pdfrwt beam="2">  1        4 0.64940600E-02 0.12500142E+03</pdfrwt>
<pdfrwt beam="1">  1       -4 0.14237276E-01 0.12500142E+03</pdfrwt>
<totfact> 0.10242937E+04</totfact>
</mgrwt>
</event>
<event>
 5    1  0.3266101E-002  0.1249935E+03  0.7818608E-02  0.1235079E+00
         -4   -1    0    0    0  501 -0.00000000000E+00  0.00000000000E+00  0.21917062776E+04  0.21917066455E+04  0.12700000000E+01 0. -1.
          4   -1    0    0  501    0  0.00000000000E+00 -0.00000000000E+00 -0.15554222486E+01  0.20080434187E+01  0.12700000000E+01 0. -1.
         25    2    1    2    0    0  0.00000000000E+00  0.00000000000E+00  0.21901508553E+04  0.21937146889E+04  0.12499346952E+03 0.  0.
    9000005    1    3    3    0    0 -0.12247460646E+02 -0.58225480921E+02  0.75993875170E+03  0.76226512005E+03  0.10000000000E+01 0.  0.
    9000005    1    3    3    0    0  0.12247460646E+02  0.58225480921E+02  0.14302121036E+04  0.14314495689E+04  0.10000000000E+01 0.  0.
<mgrwt>
<rscale>  0 0.12499347E+03</rscale>
<asrwt>0</asrwt>
<pdfrwt beam="2">  1        4 0.27414200E-03 0.12499347E+03</pdfrwt>
<pdfrwt beam="1">  1       -4 0.33721925E+00 0.12499347E+03</pdfrwt>
<totfact> 0.75412055E+02</totfact>
</mgrwt>
</event>
<event>
 5    1  0.3266101E-002  0.1249985E+03  0.7818608E-02  0.1235072E+00
         -4   -1    0    0    0  501 -0.00000000000E+00  0.00000000000E+00  0.12564456746E+03  0.12565098580E+03  0.12700000000E+01 0.  1.
          4   -1    0    0  501    0  0.00000000000E+00 -0.00000000000E+00 -0.31068761276E+02  0.31094707383E+02  0.12700000000E+01 0.  1.
         25    2    1    2    0    0  0.00000000000E+00  0.00000000000E+00  0.94575806181E+02  0.15674569318E+03  0.12499851685E+03 0.  0.
    9000005    1    3    3    0    0  0.17927243271E+02  0.47766027460E+02  0.20371394641E+01  0.51069847933E+02  0.10000000000E+01 0.  0.
    9000005    1    3    3    0    0 -0.17927243271E+02 -0.47766027460E+02  0.92538666717E+02  0.10567584525E+03  0.10000000000E+01 0.  0.
<mgrwt>
<rscale>  0 0.12499852E+03</rscale>
<asrwt>0</asrwt>
<pdfrwt beam="2">  1        4 0.47822989E-02 0.12499852E+03</pdfrwt>
<pdfrwt beam="1">  1       -4 0.19332423E-01 0.12499852E+03</pdfrwt>
<totfact> 0.97977150E+03</totfact>
</mgrwt>
</event>
<event>
 5    1  0.3266101E-002  0.1249987E+03  0.7818608E-02  0.1235071E+00
         -4   -1    0    0    0  501 -0.00000000000E+00  0.00000000000E+00  0.12190594830E+03  0.12191256346E+03  0.12700000000E+01 0. -1.
          4   -1    0    0  501    0  0.00000000000E+00 -0.00000000000E+00 -0.32022381773E+02  0.32047555826E+02  0.12700000000E+01 0. -1.
         25    2    1    2    0    0  0.00000000000E+00  0.00000000000E+00  0.89883566523E+02  0.15396011929E+03  0.12499865119E+03 0.  0.
    9000005    1    3    3    0    0 -0.23507022979E+02  0.56516213131E+02  0.60448575289E+02  0.86033090904E+02  0.10000000000E+01 0.  0.
    9000005    1    3    3    0    0  0.23507022979E+02 -0.56516213131E+02  0.29434991233E+02  0.67927028383E+02  0.10000000000E+01 0.  0.
<mgrwt>
<rscale>  0 0.12499865E+03</rscale>
<asrwt>0</asrwt>
<pdfrwt beam="2">  1        4 0.49289657E-02 0.12499865E+03</pdfrwt>
<pdfrwt beam="1">  1       -4 0.18757206E-01 0.12499865E+03</pdfrwt>
<totfact> 0.98523017E+03</totfact>
</mgrwt>
</event>
<event>
 5    1  0.3266101E-002  0.1250084E+03  0.7818608E-02  0.1235056E+00
         -4   -1    0    0    0  501 -0.00000000000E+00  0.00000000000E+00  0.78673965060E+01  0.79692426104E+01  0.12700000000E+01 0. -1.
          4   -1    0    0  501    0  0.00000000000E+00 -0.00000000000E+00 -0.49328155202E+03  0.49328318688E+03  0.12700000000E+01 0. -1.
         25    2    1    2    0    0  0.00000000000E+00  0.00000000000E+00 -0.48541415551E+03  0.50125242949E+03  0.12500838252E+03 0.  0.
    9000005    1    3    3    0    0  0.15572051092E+01 -0.62007886799E+02 -0.27334194251E+03  0.28029309739E+03  0.10000000000E+01 0.  0.
    9000005    1    3    3    0    0 -0.15572051092E+01  0.62007886799E+02 -0.21207221301E+03  0.22095933210E+03  0.10000000000E+01 0.  0.
<mgrwt>
<rscale>  0 0.12500838E+03</rscale>
<asrwt>0</asrwt>
<pdfrwt beam="2">  1        4 0.75897406E-01 0.12500838E+03</pdfrwt>
<pdfrwt beam="1">  1       -4 0.12183292E-02 0.12500838E+03</pdfrwt>
<totfact> 0.55757057E+03</totfact>
</mgrwt>
</event>
<event>
 5    1  0.3266101E-002  0.1249937E+03  0.7818608E-02  0.1235079E+00
          4   -1    0    0  501    0  0.00000000000E+00  0.00000000000E+00  0.28857862664E+02  0.28885794736E+02  0.12700000000E+01 0.  1.
         -4   -1    0    0    0  501 -0.00000000000E+00 -0.00000000000E+00 -0.13525173051E+03  0.13525769297E+03  0.12700000000E+01 0.  1.
         25    2    1    2    0    0  0.00000000000E+00  0.00000000000E+00 -0.10639386785E+03  0.16414348771E+03  0.12499371760E+03 0.  0.
    9000005    1    3    3    0    0  0.13230237359E+02 -0.50477589098E+02 -0.98342301498E+02  0.11133388723E+03  0.10000000000E+01 0.  0.
    9000005    1    3    3    0    0 -0.13230237359E+02  0.50477589098E+02 -0.80515663533E+01  0.52809600476E+02  0.10000000000E+01 0.  0.
<mgrwt>
<rscale>  0 0.12499372E+03</rscale>
<asrwt>0</asrwt>
<pdfrwt beam="1">  1        4 0.44422785E-02 0.12499372E+03</pdfrwt>
<pdfrwt beam="2">  1       -4 0.20810565E-01 0.12499372E+03</pdfrwt>
<totfact> 0.96563477E+03</totfact>
</mgrwt>
</event>
<event>
 5    1  0.3266101E-002  0.1250100E+03  0.7818608E-02  0.1235054E+00
         -4   -1    0    0    0  501 -0.00000000000E+00  0.00000000000E+00  0.59120771570E+02  0.59134410719E+02  0.12700000000E+01 0. -1.
          4   -1    0    0  501    0  0.00000000000E+00 -0.00000000000E+00 -0.66055580896E+02  0.66067788426E+02  0.12700000000E+01 0. -1.
         25    2    1    2    0    0  0.00000000000E+00  0.00000000000E+00 -0.69348093258E+01  0.12520219914E+03  0.12500999596E+03 0.  0.
    9000005    1    3    3    0    0 -0.43883391477E+01  0.58757028427E+02  0.17402792866E+02  0.61445122749E+02  0.10000000000E+01 0.  0.
    9000005    1    3    3    0    0  0.43883391477E+01 -0.58757028427E+02 -0.24337602192E+02  0.63757076396E+02  0.10000000000E+01 0.  0.
<mgrwt>
<rscale>  0 0.12501000E+03</rscale>
<asrwt>0</asrwt>
<pdfrwt beam="2">  1        4 0.10164385E-01 0.12501000E+03</pdfrwt>
<pdfrwt beam="1">  1       -4 0.90974915E-02 0.12501000E+03</pdfrwt>
<totfact> 0.10446112E+04</totfact>
</mgrwt>
</event>
<event>
 5    1  0.3266101E-002  0.1250008E+03  0.7818608E-02  0.1235068E+00
         -4   -1    0    0    0  501 -0.00000000000E+00  0.00000000000E+00  0.20298355754E+03  0.20298753048E+03  0.12700000000E+01 0.  1.
          4   -1    0    0  501    0  0.00000000000E+00 -0.00000000000E+00 -0.19219303819E+02  0.19261218530E+02  0.12700000000E+01 0.  1.
         25    2    1    2    0    0  0.00000000000E+00  0.00000000000E+00  0.18376425372E+03  0.22224874901E+03  0.12500082197E+03 0.  0.
    9000005    1    3    3    0    0 -0.38780485602E+02 -0.43663552697E+02  0.13143443108E+03  0.14382781918E+03  0.10000000000E+01 0.  0.
    9000005    1    3    3    0    0  0.38780485602E+02  0.43663552697E+02  0.52329822639E+02  0.78420929828E+02  0.10000000000E+01 0.  0.
<mgrwt>
<rscale>  0 0.12500082E+03</rscale>
<asrwt>0</asrwt>
<pdfrwt beam="2">  1        4 0.29603459E-02 0.12500082E+03</pdfrwt>
<pdfrwt beam="1">  1       -4 0.31231768E-01 0.12500082E+03</pdfrwt>
<totfact> 0.86512173E+03</totfact>
</mgrwt>
</event>
<event>
 5    1  0.3266101E-002  0.1249986E+03  0.7818608E-02  0.1235071E+00
         -4   -1    0    0    0  501 -0.00000000000E+00  0.00000000000E+00  0.21764336675E+03  0.21764707209E+03  0.12700000000E+01 0.  1.
          4   -1    0    0  501    0  0.00000000000E+00 -0.00000000000E+00 -0.17921209561E+02  0.17966152959E+02  0.12700000000E+01 0.  1.
         25    2    1    2    0    0  0.00000000000E+00  0.00000000000E+00  0.19972215719E+03  0.23561322505E+03  0.12499860698E+03 0.  0.
    9000005    1    3    3    0    0 -0.35728562639E+02  0.44769995213E+02  0.14695710843E+03  0.15772848309E+03  0.10000000000E+01 0.  0.
    9000005    1    3    3    0    0  0.35728562639E+02 -0.44769995213E+02  0.52765048755E+02  0.77884741957E+02  0.10000000000E+01 0.  0.
<mgrwt>
<rscale>  0 0.12499861E+03</rscale>
<asrwt>0</asrwt>
<pdfrwt beam="2">  1        4 0.27608516E-02 0.12499861E+03</pdfrwt>
<pdfrwt beam="1">  1       -4 0.33487335E-01 0.12499861E+03</pdfrwt>
<totfact> 0.84457693E+03</totfact>
</mgrwt>
</event>
<event>
 5    1  0.3266101E-002  0.1250002E+03  0.7818608E-02  0.1235069E+00
          4   -1    0    0  501    0  0.00000000000E+00  0.00000000000E+00  0.31991758028E+03  0.31992010108E+03  0.12700000000E+01 0.  1.
         -4   -1    0    0    0  501 -0.00000000000E+00 -0.00000000000E+00 -0.12174622595E+02  0.12240683613E+02  0.12700000000E+01 0.  1.
         25    2    1    2    0    0  0.00000000000E+00  0.00000000000E+00  0.30774295769E+03  0.33216078469E+03  0.12500023552E+03 0.  0.
    9000005    1    3    3    0    0  0.39589012128E+01 -0.41360975508E+01 -0.11489247633E+02  0.12875675242E+02  0.10000000000E+01 0.  0.
    9000005    1    3    3    0    0 -0.39589012128E+01  0.41360975508E+01  0.31923220532E+03  0.31928510945E+03  0.10000000000E+01 0.  0.
<mgrwt>
<rscale>  0 0.12500024E+03</rscale>
<asrwt>0</asrwt>
<pdfrwt beam="1">  1        4 0.49223348E-01 0.12500024E+03</pdfrwt>
<pdfrwt beam="2">  1       -4 0.18782950E-02 0.12500024E+03</pdfrwt>
<totfact> 0.71732365E+03</totfact>
</mgrwt>
</event>
<event>
 5    1  0.3266101E-002  0.1249979E+03  0.7818608E-02  0.1235073E+00
         -4   -1    0    0    0  501 -0.00000000000E+00  0.00000000000E+00  0.35564138503E+01  0.37763712046E+01  0.12700000000E+01 0. -1.
          4   -1    0    0  501    0  0.00000000000E+00 -0.00000000000E+00 -0.10651639456E+04  0.10651647027E+04  0.12700000000E+01 0. -1.
         25    2    1    2    0    0  0.00000000000E+00  0.00000000000E+00 -0.10616075317E+04  0.10689410739E+04  0.12499787214E+03 0.  0.
    9000005    1    3    3    0    0  0.38962596847E+02 -0.38860001938E+02 -0.27756252804E+03  0.28296667768E+03  0.10000000000E+01 0.  0.
    9000005    1    3    3    0    0 -0.38962596847E+02  0.38860001938E+02 -0.78404500371E+03  0.78597439624E+03  0.10000000000E+01 0.  0.
<mgrwt>
<rscale>  0 0.12499787E+03</rscale>
<asrwt>0</asrwt>
<pdfrwt beam="2">  1        4 0.16388811E+00 0.12499787E+03</pdfrwt>
<pdfrwt beam="1">  1       -4 0.56411948E-03 0.12499787E+03</pdfrwt>
<totfact> 0.28412017E+03</totfact>
</mgrwt>
</event>
<event>
 5    1  0.3266101E-002  0.1249991E+03  0.7818608E-02  0.1235071E+00
          4   -1    0    0  501    0  0.00000000000E+00  0.00000000000E+00  0.49051372206E+03  0.49051536615E+03  0.12700000000E+01 0. -1.
         -4   -1    0    0    0  501 -0.00000000000E+00 -0.00000000000E+00 -0.79111764419E+01  0.80124660808E+01  0.12700000000E+01 0. -1.
         25    2    1    2    0    0  0.00000000000E+00  0.00000000000E+00  0.48260254561E+03  0.49852783223E+03  0.12499912988E+03 0.  0.
    9000005    1    3    3    0    0  0.36304784683E+02  0.37081730953E+02  0.38015331271E+03  0.38368037912E+03  0.10000000000E+01 0.  0.
    9000005    1    3    3    0    0 -0.36304784683E+02 -0.37081730953E+02  0.10244923291E+03  0.11484745310E+03  0.10000000000E+01 0.  0.
<mgrwt>
<rscale>  0 0.12499913E+03</rscale>
<asrwt>0</asrwt>
<pdfrwt beam="1">  1        4 0.75471577E-01 0.12499913E+03</pdfrwt>
<pdfrwt beam="2">  1       -4 0.12250219E-02 0.12499913E+03</pdfrwt>
<totfact> 0.55979834E+03</totfact>
</mgrwt>
</event>
<event>
 5    1  0.3266101E-002  0.1250093E+03  0.7818608E-02  0.1235055E+00
          4   -1    0    0  501    0  0.00000000000E+00  0.00000000000E+00  0.80758844088E+03  0.80758943947E+03  0.12700000000E+01 0. -1.
         -4   -1    0    0    0  501 -0.00000000000E+00 -0.00000000000E+00 -0.47532822567E+01  0.49200195337E+01  0.12700000000E+01 0. -1.
         25    2    1    2    0    0  0.00000000000E+00  0.00000000000E+00  0.80283515863E+03  0.81250945901E+03  0.12500931585E+03 0.  0.
    9000005    1    3    3    0    0  0.61308063463E+02  0.12130549190E+02  0.40179616572E+03  0.40662880819E+03  0.10000000000E+01 0.  0.
    9000005    1    3    3    0    0 -0.61308063463E+02 -0.12130549190E+02  0.40103899291E+03  0.40588065081E+03  0.10000000000E+01 0.  0.
<mgrwt>
<rscale>  0 0.12500932E+03</rscale>
<asrwt>0</asrwt>
<pdfrwt beam="1">  1        4 0.12425734E+00 0.12500932E+03</pdfrwt>
<pdfrwt beam="2">  1       -4 0.74417657E-03 0.12500932E+03</pdfrwt>
<totfact> 0.37704645E+03</totfact>
</mgrwt>
</event>
<event>
 5    1  0.3266101E-002  0.1250000E+03  0.7818608E-02  0.1235069E+00
         -4   -1    0    0    0  501 -0.00000000000E+00  0.00000000000E+00  0.20898055197E+02  0.20936609348E+02  0.12700000000E+01 0.  1.
          4   -1    0    0  501    0  0.00000000000E+00 -0.00000000000E+00 -0.18670619230E+03  0.18671051160E+03  0.12700000000E+01 0.  1.
         25    2    1    2    0    0  0.00000000000E+00  0.00000000000E+00 -0.16580813710E+03  0.20764712095E+03  0.12499995404E+03 0.  0.
    9000005    1    3    3    0    0 -0.34619572314E+02 -0.46806874682E+02 -0.12063324126E+03  0.13395065211E+03  0.10000000000E+01 0.  0.
    9000005    1    3    3    0    0  0.34619572314E+02  0.46806874682E+02 -0.45174895841E+02  0.73696468837E+02  0.10000000000E+01 0.  0.
<mgrwt>
<rscale>  0 0.12499995E+03</rscale>
<asrwt>0</asrwt>
<pdfrwt beam="2">  1        4 0.28727326E-01 0.12499995E+03</pdfrwt>
<pdfrwt beam="1">  1       -4 0.32183835E-02 0.12499995E+03</pdfrwt>
<totfact> 0.88861676E+03</totfact>
</mgrwt>
</event>
<event>
 5    1  0.3266101E-002  0.1249960E+03  0.7818608E-02  0.1235075E+00
          4   -1    0    0  501    0  0.00000000000E+00  0.00000000000E+00  0.38726008197E+03  0.38726216442E+03  0.12700000000E+01 0. -1.
         -4   -1    0    0    0  501 -0.00000000000E+00 -0.00000000000E+00 -0.10044154570E+02  0.10124126680E+02  0.12700000000E+01 0. -1.
         25    2    1    2    0    0  0.00000000000E+00  0.00000000000E+00  0.37721592740E+03  0.39738629110E+03  0.12499603380E+03 0.  0.
    9000005    1    3    3    0    0  0.59835537055E+02  0.14240450759E+02  0.15350413775E+03  0.16537110460E+03  0.10000000000E+01 0.  0.
    9000005    1    3    3    0    0 -0.59835537055E+02 -0.14240450759E+02  0.22371178966E+03  0.23201518649E+03  0.10000000000E+01 0.  0.
<mgrwt>
<rscale>  0 0.12499603E+03</rscale>
<asrwt>0</asrwt>
<pdfrwt beam="1">  1        4 0.59584793E-01 0.12499603E+03</pdfrwt>
<pdfrwt beam="2">  1       -4 0.15515663E-02 0.12499603E+03</pdfrwt>
<totfact> 0.64813461E+03</totfact>
</mgrwt>
</event>
<event>
 5    1  0.3266101E-002  0.1250020E+03  0.7818608E-02  0.1235066E+00
         -4   -1    0    0    0  501 -0.00000000000E+00  0.00000000000E+00  0.10710139941E+02  0.10785174896E+02  0.12700000000E+01 0. -1.
          4   -1    0    0  501    0  0.00000000000E+00 -0.00000000000E+00 -0.36338662911E+03  0.36338884837E+03  0.12700000000E+01 0. -1.
         25    2    1    2    0    0  0.00000000000E+00  0.00000000000E+00 -0.35267648917E+03  0.37417402327E+03  0.12500197467E+03 0.  0.
    9000005    1    3    3    0    0 -0.16953879400E+02  0.54393687722E+02 -0.99480587536E+02  0.11464508095E+03  0.10000000000E+01 0.  0.
    9000005    1    3    3    0    0  0.16953879400E+02 -0.54393687722E+02 -0.25319590164E+03  0.25952894231E+03  0.10000000000E+01 0.  0.
<mgrwt>
<rscale>  0 0.12500197E+03</rscale>
<asrwt>0</asrwt>
<pdfrwt beam="2">  1        4 0.55911569E-01 0.12500197E+03</pdfrwt>
<pdfrwt beam="1">  1       -4 0.16536567E-02 0.12500197E+03</pdfrwt>
<totfact> 0.67141579E+03</totfact>
</mgrwt>
</event>
<event>
 5    1  0.3266101E-002  0.1249972E+03  0.7818608E-02  0.1235074E+00
         -4   -1    0    0    0  501 -0.00000000000E+00  0.00000000000E+00  0.13749745654E+02  0.13808273083E+02  0.12700000000E+01 0. -1.
          4   -1    0    0  501    0  0.00000000000E+00 -0.00000000000E+00 -0.28342030188E+03  0.28342314729E+03  0.12700000000E+01 0. -1.
         25    2    1    2    0    0  0.00000000000E+00  0.00000000000E+00 -0.26967055623E+03  0.29723142037E+03  0.12499723341E+03 0.  0.
    9000005    1    3    3    0    0 -0.38114129778E+01 -0.62145469321E+02 -0.14752777675E+03  0.16013129344E+03  0.10000000000E+01 0.  0.
    9000005    1    3    3    0    0  0.38114129778E+01  0.62145469321E+02 -0.12214277948E+03  0.13710012694E+03  0.10000000000E+01 0.  0.
<mgrwt>
<rscale>  0 0.12499723E+03</rscale>
<asrwt>0</asrwt>
<pdfrwt beam="2">  1        4 0.43607840E-01 0.12499723E+03</pdfrwt>
<pdfrwt beam="1">  1       -4 0.21200667E-02 0.12499723E+03</pdfrwt>
<totfact> 0.75952109E+03</totfact>
</mgrwt>
</event>
<event>
 5    1  0.3266101E-002  0.1250098E+03  0.7818608E-02  0.1235054E+00
         -4   -1    0    0    0  501 -0.00000000000E+00  0.00000000000E+00  0.52690468539E+02  0.52705771741E+02  0.12700000000E+01 0.  1.
          4   -1    0    0  501    0  0.00000000000E+00 -0.00000000000E+00 -0.74115952810E+02  0.74126832934E+02  0.12700000000E+01 0.  1.
         25    2    1    2    0    0  0.00000000000E+00  0.00000000000E+00 -0.21425484271E+02  0.12683260468E+03  0.12500983254E+03 0.  0.
    9000005    1    3    3    0    0 -0.25941844472E+02  0.51823352212E+02 -0.34446683940E+02  0.67425612074E+02  0.10000000000E+01 0.  0.
    9000005    1    3    3    0    0  0.25941844472E+02 -0.51823352212E+02  0.13021199670E+02  0.59406992601E+02  0.10000000000E+01 0.  0.
<mgrwt>
<rscale>  0 0.12500983E+03</rscale>
<asrwt>0</asrwt>
<pdfrwt beam="2">  1        4 0.11404468E-01 0.12500983E+03</pdfrwt>
<pdfrwt beam="1">  1       -4 0.81082401E-02 0.12500983E+03</pdfrwt>
<totfact> 0.10410474E+04</totfact>
</mgrwt>
</event>
<event>
 5    1  0.3266101E-002  0.1249966E+03  0.7818608E-02  0.1235075E+00
          4   -1    0    0  501    0  0.00000000000E+00  0.00000000000E+00  0.55721486057E+03  0.55721630786E+03  0.12700000000E+01 0.  1.
         -4   -1    0    0    0  501 -0.00000000000E+00 -0.00000000000E+00 -0.69509359208E+01  0.70660038335E+01  0.12700000000E+01 0.  1.
         25    2    1    2    0    0  0.00000000000E+00  0.00000000000E+00  0.55026392465E+03  0.56428231169E+03  0.12499656201E+03 0.  0.
    9000005    1    3    3    0    0  0.32338330217E+02  0.62610861425E+01  0.35398846318E+02  0.48363696319E+02  0.10000000000E+01 0.  0.
    9000005    1    3    3    0    0 -0.32338330217E+02 -0.62610861425E+01  0.51486507833E+03  0.51591861537E+03  0.10000000000E+01 0.  0.
<mgrwt>
<rscale>  0 0.12499656E+03</rscale>
<asrwt>0</asrwt>
<pdfrwt beam="1">  1        4 0.85734317E-01 0.12499656E+03</pdfrwt>
<pdfrwt beam="2">  1       -4 0.10783376E-02 0.12499656E+03</pdfrwt>
<totfact> 0.51206595E+03</totfact>
</mgrwt>
</event>
<event>
 5    1  0.3266101E-002  0.1250035E+03  0.7818608E-02  0.1235064E+00
          4   -1    0    0  501    0  0.00000000000E+00  0.00000000000E+00  0.19967590743E+02  0.20007937927E+02  0.12700000000E+01 0.  1.
         -4   -1    0    0    0  501 -0.00000000000E+00 -0.00000000000E+00 -0.19540058628E+03  0.19540471340E+03  0.12700000000E+01 0.  1.
         25    2    1    2    0    0  0.00000000000E+00  0.00000000000E+00 -0.17543299554E+03  0.21541265133E+03  0.12500349766E+03 0.  0.
    9000005    1    3    3    0    0 -0.31167777106E+02  0.36256551795E+02 -0.18367591647E+02  0.51228276378E+02  0.10000000000E+01 0.  0.
    9000005    1    3    3    0    0  0.31167777106E+02 -0.36256551795E+02 -0.15706540389E+03  0.16418437495E+03  0.10000000000E+01 0.  0.
<mgrwt>
<rscale>  0 0.12500350E+03</rscale>
<asrwt>0</asrwt>
<pdfrwt beam="1">  1        4 0.30753583E-02 0.12500350E+03</pdfrwt>
<pdfrwt beam="2">  1       -4 0.30065048E-01 0.12500350E+03</pdfrwt>
<totfact> 0.87592637E+03</totfact>
</mgrwt>
</event>
<event>
 5    1  0.3266101E-002  0.1250005E+03  0.7818608E-02  0.1235068E+00
          4   -1    0    0  501    0  0.00000000000E+00  0.00000000000E+00  0.49944363531E+02  0.49960507889E+02  0.12700000000E+01 0. -1.
         -4   -1    0    0    0  501 -0.00000000000E+00 -0.00000000000E+00 -0.78178733880E+02  0.78189048665E+02  0.12700000000E+01 0. -1.
         25    2    1    2    0    0  0.00000000000E+00  0.00000000000E+00 -0.28234370349E+02  0.12814955655E+03  0.12500051670E+03 0.  0.
    9000005    1    3    3    0    0 -0.31938839200E+02 -0.22765407836E+02  0.35759538717E+02  0.53085759414E+02  0.10000000000E+01 0.  0.
    9000005    1    3    3    0    0  0.31938839200E+02  0.22765407836E+02 -0.63993909067E+02  0.75063797139E+02  0.10000000000E+01 0.  0.
<mgrwt>
<rscale>  0 0.12500052E+03</rscale>
<asrwt>0</asrwt>
<pdfrwt beam="1">  1        4 0.76857835E-02 0.12500052E+03</pdfrwt>
<pdfrwt beam="2">  1       -4 0.12029533E-01 0.12500052E+03</pdfrwt>
<totfact> 0.10384138E+04</totfact>
</mgrwt>
</event>
<event>
 5    1  0.3266101E-002  0.1250023E+03  0.7818608E-02  0.1235066E+00
         -4   -1    0    0    0  501 -0.00000000000E+00  0.00000000000E+00  0.64834300173E+01  0.66066455020E+01  0.12700000000E+01 0.  1.
          4   -1    0    0  501    0  0.00000000000E+00 -0.00000000000E+00 -0.59672419038E+03  0.59672554184E+03  0.12700000000E+01 0.  1.
         25    2    1    2    0    0  0.00000000000E+00  0.00000000000E+00 -0.59024076036E+03  0.60333218734E+03  0.12500229234E+03 0.  0.
    9000005    1    3    3    0    0 -0.26989193881E+02 -0.55226969170E+02 -0.24073658445E+03  0.24846234685E+03  0.10000000000E+01 0.  0.
    9000005    1    3    3    0    0  0.26989193881E+02  0.55226969170E+02 -0.34950417591E+03  0.35486984049E+03  0.10000000000E+01 0.  0.
<mgrwt>
<rscale>  0 0.12500229E+03</rscale>
<asrwt>0</asrwt>
<pdfrwt beam="2">  1        4 0.91813261E-01 0.12500229E+03</pdfrwt>
<pdfrwt beam="1">  1       -4 0.10070333E-02 0.12500229E+03</pdfrwt>
<totfact> 0.48655518E+03</totfact>
</mgrwt>
</event>
<event>
 5    1  0.3266101E-002  0.1250010E+03  0.7818608E-02  0.1235068E+00
         -4   -1    0    0    0  501 -0.00000000000E+00  0.00000000000E+00  0.62193487938E+02  0.62206453378E+02  0.12700000000E+01 0.  1.
          4   -1    0    0  501    0  0.00000000000E+00 -0.00000000000E+00 -0.62783060701E+02  0.62795904413E+02  0.12700000000E+01 0.  1.
         25    2    1    2    0    0  0.00000000000E+00  0.00000000000E+00 -0.58957276363E+00  0.12500235779E+03  0.12500096743E+03 0.  0.
    9000005    1    3    3    0    0 -0.50444679255E+02 -0.32707758275E+02  0.16759650516E+02  0.62420741761E+02  0.10000000000E+01 0.  0.
    9000005    1    3    3    0    0  0.50444679255E+02  0.32707758275E+02 -0.17349223280E+02  0.62581616030E+02  0.10000000000E+01 0.  0.
<mgrwt>
<rscale>  0 0.12500097E+03</rscale>
<asrwt>0</asrwt>
<pdfrwt beam="2">  1        4 0.96609177E-02 0.12500097E+03</pdfrwt>
<pdfrwt beam="1">  1       -4 0.95702143E-02 0.12500097E+03</pdfrwt>
<totfact> 0.10452583E+04</totfact>
</mgrwt>
</event>
<event>
 5    1  0.3266101E-002  0.1249978E+03  0.7818608E-02  0.1235073E+00
          4   -1    0    0  501    0  0.00000000000E+00  0.00000000000E+00  0.19040472980E+03  0.19040896520E+03  0.12700000000E+01 0. -1.
         -4   -1    0    0    0  501 -0.00000000000E+00 -0.00000000000E+00 -0.20490649301E+02  0.20529968552E+02  0.12700000000E+01 0. -1.
         25    2    1    2    0    0  0.00000000000E+00  0.00000000000E+00  0.16991408050E+03  0.21093893375E+03  0.12499775607E+03 0.  0.
    9000005    1    3    3    0    0 -0.21330473332E+02  0.46489348361E+02  0.14554099180E+03  0.15427063524E+03  0.10000000000E+01 0.  0.
    9000005    1    3    3    0    0  0.21330473332E+02 -0.46489348361E+02  0.24373088694E+02  0.56668298511E+02  0.10000000000E+01 0.  0.
<mgrwt>
<rscale>  0 0.12499776E+03</rscale>
<asrwt>0</asrwt>
<pdfrwt beam="1">  1        4 0.29296385E-01 0.12499776E+03</pdfrwt>
<pdfrwt beam="2">  1       -4 0.31557580E-02 0.12499776E+03</pdfrwt>
<totfact> 0.88327201E+03</totfact>
</mgrwt>
</event>
<event>
 5    1  0.3266101E-002  0.1250013E+03  0.7818608E-02  0.1235067E+00
         -4   -1    0    0    0  501 -0.00000000000E+00  0.00000000000E+00  0.17002590404E+03  0.17003064707E+03  0.12700000000E+01 0. -1.
          4   -1    0    0  501    0  0.00000000000E+00 -0.00000000000E+00 -0.22952286042E+02  0.22987395123E+02  0.12700000000E+01 0. -1.
         25    2    1    2    0    0  0.00000000000E+00  0.00000000000E+00  0.14707361800E+03  0.19301804220E+03  0.12500126200E+03 0.  0.
    9000005    1    3    3    0    0 -0.47080180044E+02 -0.28286257111E+02  0.27505370640E+02  0.61434527005E+02  0.10000000000E+01 0.  0.
    9000005    1    3    3    0    0  0.47080180044E+02  0.28286257111E+02  0.11956824736E+03  0.13158351519E+03  0.10000000000E+01 0.  0.
<mgrwt>
<rscale>  0 0.12500126E+03</rscale>
<asrwt>0</asrwt>
<pdfrwt beam="2">  1        4 0.35341865E-02 0.12500126E+03</pdfrwt>
<pdfrwt beam="1">  1       -4 0.26160897E-01 0.12500126E+03</pdfrwt>
<totfact> 0.91322240E+03</totfact>
</mgrwt>
</event>
<event>
 5    1  0.3266101E-002  0.1249989E+03  0.7818608E-02  0.1235071E+00
         -4   -1    0    0    0  501 -0.00000000000E+00  0.00000000000E+00  0.11497454613E+04  0.11497461627E+04  0.12700000000E+01 0. -1.
          4   -1    0    0  501    0  0.00000000000E+00 -0.00000000000E+00 -0.32780205260E+01  0.35154400249E+01  0.12700000000E+01 0. -1.
         25    2    1    2    0    0  0.00000000000E+00  0.00000000000E+00  0.11464674408E+04  0.11532616027E+04  0.12499892640E+03 0.  0.
    9000005    1    3    3    0    0 -0.25287554835E+02 -0.45705984216E+02  0.25674972945E+03  0.26201129936E+03  0.10000000000E+01 0.  0.
    9000005    1    3    3    0    0  0.25287554835E+02  0.45705984216E+02  0.88971771131E+03  0.89125030336E+03  0.10000000000E+01 0.  0.
<mgrwt>
<rscale>  0 0.12499893E+03</rscale>
<asrwt>0</asrwt>
<pdfrwt beam="2">  1        4 0.52262783E-03 0.12499893E+03</pdfrwt>
<pdfrwt beam="1">  1       -4 0.17690224E+00 0.12499893E+03</pdfrwt>
<totfact> 0.25970515E+03</totfact>
</mgrwt>
</event>
<event>
 5    1  0.3266101E-002  0.1249999E+03  0.7818608E-02  0.1235069E+00
         -4   -1    0    0    0  501 -0.00000000000E+00  0.00000000000E+00  0.41708731106E+03  0.41708924458E+03  0.12700000000E+01 0.  1.
          4   -1    0    0  501    0  0.00000000000E+00 -0.00000000000E+00 -0.93205125395E+01  0.94066388258E+01  0.12700000000E+01 0.  1.
         25    2    1    2    0    0  0.00000000000E+00  0.00000000000E+00  0.40776679852E+03  0.42649588341E+03  0.12499990636E+03 0.  0.
    9000005    1    3    3    0    0 -0.16935236446E+02  0.43419920697E+02  0.61839190312E+02  0.77441443719E+02  0.10000000000E+01 0.  0.
    9000005    1    3    3    0    0  0.16935236446E+02 -0.43419920697E+02  0.34592760821E+03  0.34905443969E+03  0.10000000000E+01 0.  0.
<mgrwt>
<rscale>  0 0.12499991E+03</rscale>
<asrwt>0</asrwt>
<pdfrwt beam="2">  1        4 0.14406987E-02 0.12499991E+03</pdfrwt>
<pdfrwt beam="1">  1       -4 0.64174060E-01 0.12499991E+03</pdfrwt>
<totfact> 0.62055029E+03</totfact>
</mgrwt>
</event>
<event>
 5    1  0.3266101E-002  0.1250027E+03  0.7818608E-02  0.1235065E+00
         -4   -1    0    0    0  501 -0.00000000000E+00  0.00000000000E+00  0.12475812188E+03  0.12476458582E+03  0.12700000000E+01 0. -1.
          4   -1    0    0  501    0  0.00000000000E+00 -0.00000000000E+00 -0.31291772412E+02  0.31317533758E+02  0.12700000000E+01 0. -1.
         25    2    1    2    0    0  0.00000000000E+00  0.00000000000E+00  0.93466349468E+02  0.15608211958E+03  0.12500267825E+03 0.  0.
    9000005    1    3    3    0    0 -0.57019375691E+02  0.19012268882E+01  0.14884695165E+02  0.58969297249E+02  0.10000000000E+01 0.  0.
    9000005    1    3    3    0    0  0.57019375691E+02 -0.19012268882E+01  0.78581654303E+02  0.97112822330E+02  0.10000000000E+01 0.  0.
<mgrwt>
<rscale>  0 0.12500268E+03</rscale>
<asrwt>0</asrwt>
<pdfrwt beam="2">  1        4 0.48165978E-02 0.12500268E+03</pdfrwt>
<pdfrwt beam="1">  1       -4 0.19196036E-01 0.12500268E+03</pdfrwt>
<totfact> 0.98097575E+03</totfact>
</mgrwt>
</event>
<event>
 5    1  0.3266101E-002  0.1249974E+03  0.7818608E-02  0.1235073E+00
          4   -1    0    0  501    0  0.00000000000E+00  0.00000000000E+00  0.59383076105E+02  0.59396655021E+02  0.12700000000E+01 0. -1.
         -4   -1    0    0    0  501 -0.00000000000E+00 -0.00000000000E+00 -0.65750518618E+02  0.65762782777E+02  0.12700000000E+01 0. -1.
         25    2    1    2    0    0  0.00000000000E+00  0.00000000000E+00 -0.63674425130E+01  0.12515943780E+03  0.12499736216E+03 0.  0.
    9000005    1    3    3    0    0  0.14359403384E+02  0.20052183916E+02 -0.60675960878E+02  0.65504616431E+02  0.10000000000E+01 0.  0.
    9000005    1    3    3    0    0 -0.14359403384E+02 -0.20052183916E+02  0.54308518365E+02  0.59654821367E+02  0.10000000000E+01 0.  0.
<mgrwt>
<rscale>  0 0.12499736E+03</rscale>
<asrwt>0</asrwt>
<pdfrwt beam="1">  1        4 0.91378458E-02 0.12499736E+03</pdfrwt>
<pdfrwt beam="2">  1       -4 0.10117452E-01 0.12499736E+03</pdfrwt>
<totfact> 0.10450024E+04</totfact>
</mgrwt>
</event>
<event>
 5    1  0.3266101E-002  0.1250025E+03  0.7818608E-02  0.1235065E+00
         -4   -1    0    0    0  501 -0.00000000000E+00  0.00000000000E+00  0.11751001054E+03  0.11751687316E+03  0.12700000000E+01 0. -1.
          4   -1    0    0  501    0  0.00000000000E+00 -0.00000000000E+00 -0.33223213406E+02  0.33247478236E+02  0.12700000000E+01 0. -1.
         25    2    1    2    0    0  0.00000000000E+00  0.00000000000E+00  0.84286797136E+02  0.15076435140E+03  0.12500250190E+03 0.  0.
    9000005    1    3    3    0    0 -0.28648825315E+00 -0.50646257172E+02 -0.20113968900E+01  0.50696855509E+02  0.10000000000E+01 0.  0.
    9000005    1    3    3    0    0  0.28648825315E+00  0.50646257172E+02  0.86298194026E+02  0.10006749589E+03  0.10000000000E+01 0.  0.
<mgrwt>
<rscale>  0 0.12500250E+03</rscale>
<asrwt>0</asrwt>
<pdfrwt beam="2">  1        4 0.51136580E-02 0.12500250E+03</pdfrwt>
<pdfrwt beam="1">  1       -4 0.18080858E-01 0.12500250E+03</pdfrwt>
<totfact> 0.99145972E+03</totfact>
</mgrwt>
</event>
<event>
 5    1  0.3266101E-002  0.1249992E+03  0.7818608E-02  0.1235071E+00
          4   -1    0    0  501    0  0.00000000000E+00  0.00000000000E+00  0.68300168945E+03  0.68300287020E+03  0.12700000000E+01 0.  1.
         -4   -1    0    0    0  501 -0.00000000000E+00 -0.00000000000E+00 -0.56474621170E+01  0.57884996643E+01  0.12700000000E+01 0.  1.
         25    2    1    2    0    0  0.00000000000E+00  0.00000000000E+00  0.67735422734E+03  0.68879136986E+03  0.12499920761E+03 0.  0.
    9000005    1    3    3    0    0 -0.37806593692E+02 -0.49547929581E+02  0.31350696884E+03  0.31964348165E+03  0.10000000000E+01 0.  0.
    9000005    1    3    3    0    0  0.37806593692E+02  0.49547929581E+02  0.36384725850E+03  0.36914788821E+03  0.10000000000E+01 0.  0.
<mgrwt>
<rscale>  0 0.12499921E+03</rscale>
<asrwt>0</asrwt>
<pdfrwt beam="1">  1        4 0.10508818E+00 0.12499921E+03</pdfrwt>
<pdfrwt beam="2">  1       -4 0.87977975E-03 0.12499921E+03</pdfrwt>
<totfact> 0.43685759E+03</totfact>
</mgrwt>
</event>
<event>
 5    1  0.3266101E-002  0.1250006E+03  0.7818608E-02  0.1235068E+00
          4   -1    0    0  501    0  0.00000000000E+00  0.00000000000E+00  0.11774824702E+02  0.11843116008E+02  0.12700000000E+01 0.  1.
         -4   -1    0    0    0  501 -0.00000000000E+00 -0.00000000000E+00 -0.33072038126E+03  0.33072281971E+03  0.12700000000E+01 0.  1.
         25    2    1    2    0    0  0.00000000000E+00  0.00000000000E+00 -0.31894555655E+03  0.34256593572E+03  0.12500060908E+03 0.  0.
    9000005    1    3    3    0    0  0.21964116751E+02 -0.57955893961E+02 -0.13755209146E+03  0.15087374170E+03  0.10000000000E+01 0.  0.
    9000005    1    3    3    0    0 -0.21964116751E+02  0.57955893961E+02 -0.18139346510E+03  0.19169219402E+03  0.10000000000E+01 0.  0.
<mgrwt>
<rscale>  0 0.12500061E+03</rscale>
<asrwt>0</asrwt>
<pdfrwt beam="1">  1        4 0.18169525E-02 0.12500061E+03</pdfrwt>
<pdfrwt beam="2">  1       -4 0.50885492E-01 0.12500061E+03</pdfrwt>
<totfact> 0.70549263E+03</totfact>
</mgrwt>
</event>
<event>
 5    1  0.3266101E-002  0.1249936E+03  0.7818608E-02  0.1235079E+00
         -4   -1    0    0    0  501 -0.00000000000E+00  0.00000000000E+00  0.14042065094E+04  0.14042070837E+04  0.12700000000E+01 0.  1.
          4   -1    0    0  501    0  0.00000000000E+00 -0.00000000000E+00 -0.26359639797E+01  0.29259538790E+01  0.12700000000E+01 0.  1.
         25    2    1    2    0    0  0.00000000000E+00  0.00000000000E+00  0.14015705454E+04  0.14071330375E+04  0.12499356657E+03 0.  0.
    9000005    1    3    3    0    0 -0.41158601693E+02 -0.56353906320E+01  0.12262965905E+04  0.12270004548E+04  0.10000000000E+01 0.  0.
    9000005    1    3    3    0    0  0.41158601693E+02  0.56353906320E+01  0.17527395485E+03  0.18013258276E+03  0.10000000000E+01 0.  0.
<mgrwt>
<rscale>  0 0.12499357E+03</rscale>
<asrwt>0</asrwt>
<pdfrwt beam="2">  1        4 0.42788284E-03 0.12499357E+03</pdfrwt>
<pdfrwt beam="1">  1       -4 0.21605471E+00 0.12499357E+03</pdfrwt>
<totfact> 0.19831073E+03</totfact>
</mgrwt>
</event>
