<event>
 4    1  0.2193160E-006  0.1300000E+05  0.7957747E-01  0.1322471E+00
    9000001   -1    0    0    0    0  0.00000000000E+00  0.00000000000E+00  0.64999999231E+04  0.65000000000E+04  0.10000000000E+01 0.  0.
    9000001   -1    0    0    0    0 -0.00000000000E+00 -0.00000000000E+00 -0.64999999231E+04  0.65000000000E+04  0.10000000000E+01 0.  0.
    9000001    1    1    2    0    0  0.42034406694E+04  0.18300436201E+03  0.49545529508E+04  0.65000000000E+04  0.10000000000E+01 0.  0.
    9000001    1    1    2    0    0 -0.42034406694E+04 -0.18300436201E+03 -0.49545529508E+04  0.65000000000E+04  0.10000000000E+01 0.  0.
</event>
<event>
 4    1  0.2193160E-006  0.1300000E+05  0.7957747E-01  0.1322471E+00
    9000001   -1    0    0    0    0  0.00000000000E+00  0.00000000000E+00  0.64999999231E+04  0.65000000000E+04  0.10000000000E+01 0.  0.
    9000001   -1    0    0    0    0 -0.00000000000E+00 -0.00000000000E+00 -0.64999999231E+04  0.65000000000E+04  0.10000000000E+01 0.  0.
    9000001    1    1    2    0    0  0.29880501567E+04 -0.34047313693E+04 -0.46614761142E+04  0.65000000000E+04  0.10000000000E+01 0.  0.
    9000001    1    1    2    0    0 -0.29880501567E+04  0.34047313693E+04  0.46614761142E+04  0.65000000000E+04  0.10000000000E+01 0.  0.
</event>
<event>
 4    1  0.2193160E-006  0.1300000E+05  0.7957747E-01  0.1322471E+00
    9000001   -1    0    0    0    0  0.00000000000E+00  0.00000000000E+00  0.64999999231E+04  0.65000000000E+04  0.10000000000E+01 0.  0.
    9000001   -1    0    0    0    0 -0.00000000000E+00 -0.00000000000E+00 -0.64999999231E+04  0.65000000000E+04  0.10000000000E+01 0.  0.
    9000001    1    1    2    0    0  0.60208788995E+04 -0.20794211108E+04  0.12942272295E+04  0.65000000000E+04  0.10000000000E+01 0.  0.
    9000001    1    1    2    0    0 -0.60208788995E+04  0.20794211108E+04 -0.12942272295E+04  0.65000000000E+04  0.10000000000E+01 0.  0.
</event>
<event>
 4    1  0.2193160E-006  0.1300000E+05  0.7957747E-01  0.1322471E+00
    9000001   -1    0    0    0    0  0.00000000000E+00  0.00000000000E+00  0.64999999231E+04  0.65000000000E+04  0.10000000000E+01 0.  0.
    9000001   -1    0    0    0    0 -0.00000000000E+00 -0.00000000000E+00 -0.64999999231E+04  0.65000000000E+04  0.10000000000E+01 0.  0.
    9000001    1    1    2    0    0  0.42904522262E+03  0.50643850996E+04  0.40519035971E+04  0.65000000000E+04  0.10000000000E+01 0.  0.
    9000001    1    1    2    0    0 -0.42904522262E+03 -0.50643850996E+04 -0.40519035971E+04  0.65000000000E+04  0.10000000000E+01 0.  0.
</event>
<event>
 4    1  0.2193160E-006  0.1300000E+05  0.7957747E-01  0.1322471E+00
    9000001   -1    0    0    0    0  0.00000000000E+00  0.00000000000E+00  0.64999999231E+04  0.65000000000E+04  0.10000000000E+01 0.  0.
    9000001   -1    0    0    0    0 -0.00000000000E+00 -0.00000000000E+00 -0.64999999231E+04  0.65000000000E+04  0.10000000000E+01 0.  0.
    9000001    1    1    2    0    0  0.25489336612E+04 -0.22644556823E+04  0.55340018661E+04  0.65000000000E+04  0.10000000000E+01 0.  0.
    9000001    1    1    2    0    0 -0.25489336612E+04  0.22644556823E+04 -0.55340018661E+04  0.65000000000E+04  0.10000000000E+01 0.  0.
</event>
<event>
 4    1  0.2193160E-006  0.1300000E+05  0.7957747E-01  0.1322471E+00
    9000001   -1    0    0    0    0  0.00000000000E+00  0.00000000000E+00  0.64999999231E+04  0.65000000000E+04  0.10000000000E+01 0.  0.
    9000001   -1    0    0    0    0 -0.00000000000E+00 -0.00000000000E+00 -0.64999999231E+04  0.65000000000E+04  0.10000000000E+01 0.  0.
    9000001    1    1    2    0    0  0.53097674861E+04 -0.36426872252E+04 -0.88724180600E+03  0.65000000000E+04  0.10000000000E+01 0.  0.
    9000001    1    1    2    0    0 -0.53097674861E+04  0.36426872252E+04  0.88724180600E+03  0.65000000000E+04  0.10000000000E+01 0.  0.
</event>
<event>
 4    1  0.2193160E-006  0.1300000E+05  0.7957747E-01  0.1322471E+00
    9000001   -1    0    0    0    0  0.00000000000E+00  0.00000000000E+00  0.64999999231E+04  0.65000000000E+04  0.10000000000E+01 0.  0.
    9000001   -1    0    0    0    0 -0.00000000000E+00 -0.00000000000E+00 -0.64999999231E+04  0.65000000000E+04  0.10000000000E+01 0.  0.
    9000001    1    1    2    0    0  0.47666161244E+04 -0.31863105038E+03 -0.44077028004E+04  0.65000000000E+04  0.10000000000E+01 0.  0.
    9000001    1    1    2    0    0 -0.47666161244E+04  0.31863105038E+03  0.44077028004E+04  0.65000000000E+04  0.10000000000E+01 0.  0.
</event>
<event>
 4    1  0.2193160E-006  0.1300000E+05  0.7957747E-01  0.1322471E+00
    9000001   -1    0    0    0    0  0.00000000000E+00  0.00000000000E+00  0.64999999231E+04  0.65000000000E+04  0.10000000000E+01 0.  0.
    9000001   -1    0    0    0    0 -0.00000000000E+00 -0.00000000000E+00 -0.64999999231E+04  0.65000000000E+04  0.10000000000E+01 0.  0.
    9000001    1    1    2    0    0  0.59349353551E+04 -0.12451243210E+04  0.23401296453E+04  0.65000000000E+04  0.10000000000E+01 0.  0.
    9000001    1    1    2    0    0 -0.59349353551E+04  0.12451243210E+04 -0.23401296453E+04  0.65000000000E+04  0.10000000000E+01 0.  0.
</event>
<event>
 4    1  0.2193160E-006  0.1300000E+05  0.7957747E-01  0.1322471E+00
    9000001   -1    0    0    0    0  0.00000000000E+00  0.00000000000E+00  0.64999999231E+04  0.65000000000E+04  0.10000000000E+01 0.  0.
    9000001   -1    0    0    0    0 -0.00000000000E+00 -0.00000000000E+00 -0.64999999231E+04  0.65000000000E+04  0.10000000000E+01 0.  0.
    9000001    1    1    2    0    0 -0.52676253172E+04 -0.77231798444E+03  0.37290276813E+04  0.65000000000E+04  0.10000000000E+01 0.  0.
    9000001    1    1    2    0    0  0.52676253172E+04  0.77231798444E+03 -0.37290276813E+04  0.65000000000E+04  0.10000000000E+01 0.  0.
</event>
<event>
 4    1  0.2193160E-006  0.1300000E+05  0.7957747E-01  0.1322471E+00
    9000001   -1    0    0    0    0  0.00000000000E+00  0.00000000000E+00  0.64999999231E+04  0.65000000000E+04  0.10000000000E+01 0.  0.
    9000001   -1    0    0    0    0 -0.00000000000E+00 -0.00000000000E+00 -0.64999999231E+04  0.65000000000E+04  0.10000000000E+01 0.  0.
    9000001    1    1    2    0    0  0.54083716935E+04 -0.31770703606E+04  0.17046226997E+04  0.65000000000E+04  0.10000000000E+01 0.  0.
    9000001    1    1    2    0    0 -0.54083716935E+04  0.31770703606E+04 -0.17046226997E+04  0.65000000000E+04  0.10000000000E+01 0.  0.
</event>
<event>
 4    1  0.2193160E-006  0.1300000E+05  0.7957747E-01  0.1322471E+00
    9000001   -1    0    0    0    0  0.00000000000E+00  0.00000000000E+00  0.64999999231E+04  0.65000000000E+04  0.10000000000E+01 0.  0.
    9000001   -1    0    0    0    0 -0.00000000000E+00 -0.00000000000E+00 -0.64999999231E+04  0.65000000000E+04  0.10000000000E+01 0.  0.
    9000001    1    1    2    0    0 -0.20773009913E+04  0.20106951942E+04 -0.58216771147E+04  0.65000000000E+04  0.10000000000E+01 0.  0.
    9000001    1    1    2    0    0  0.20773009913E+04 -0.20106951942E+04  0.58216771147E+04  0.65000000000E+04  0.10000000000E+01 0.  0.
</event>
<event>
 4    1  0.2193160E-006  0.1300000E+05  0.7957747E-01  0.1322471E+00
    9000001   -1    0    0    0    0  0.00000000000E+00  0.00000000000E+00  0.64999999231E+04  0.65000000000E+04  0.10000000000E+01 0.  0.
    9000001   -1    0    0    0    0 -0.00000000000E+00 -0.00000000000E+00 -0.64999999231E+04  0.65000000000E+04  0.10000000000E+01 0.  0.
    9000001    1    1    2    0    0 -0.58526742110E+04  0.10815998128E+04  0.26127275832E+04  0.65000000000E+04  0.10000000000E+01 0.  0.
    9000001    1    1    2    0    0  0.58526742110E+04 -0.10815998128E+04 -0.26127275832E+04  0.65000000000E+04  0.10000000000E+01 0.  0.
</event>
<event>
 4    1  0.2193160E-006  0.1300000E+05  0.7957747E-01  0.1322471E+00
    9000001   -1    0    0    0    0  0.00000000000E+00  0.00000000000E+00  0.64999999231E+04  0.65000000000E+04  0.10000000000E+01 0.  0.
    9000001   -1    0    0    0    0 -0.00000000000E+00 -0.00000000000E+00 -0.64999999231E+04  0.65000000000E+04  0.10000000000E+01 0.  0.
    9000001    1    1    2    0    0  0.34406067812E+04  0.52377202343E+04 -0.17258362390E+04  0.65000000000E+04  0.10000000000E+01 0.  0.
    9000001    1    1    2    0    0 -0.34406067812E+04 -0.52377202343E+04  0.17258362390E+04  0.65000000000E+04  0.10000000000E+01 0.  0.
</event>
<event>
 4    1  0.2193160E-006  0.1300000E+05  0.7957747E-01  0.1322471E+00
    9000001   -1    0    0    0    0  0.00000000000E+00  0.00000000000E+00  0.64999999231E+04  0.65000000000E+04  0.10000000000E+01 0.  0.
    9000001   -1    0    0    0    0 -0.00000000000E+00 -0.00000000000E+00 -0.64999999231E+04  0.65000000000E+04  0.10000000000E+01 0.  0.
    9000001    1    1    2    0    0 -0.61783870489E+04  0.64091079511E+03  0.19148801075E+04  0.65000000000E+04  0.10000000000E+01 0.  0.
    9000001    1    1    2    0    0  0.61783870489E+04 -0.64091079511E+03 -0.19148801075E+04  0.65000000000E+04  0.10000000000E+01 0.  0.
</event>
<event>
 4    1  0.2193160E-006  0.1300000E+05  0.7957747E-01  0.1322471E+00
    9000001   -1    0    0    0    0  0.00000000000E+00  0.00000000000E+00  0.64999999231E+04  0.65000000000E+04  0.10000000000E+01 0.  0.
    9000001   -1    0    0    0    0 -0.00000000000E+00 -0.00000000000E+00 -0.64999999231E+04  0.65000000000E+04  0.10000000000E+01 0.  0.
    9000001    1    1    2    0    0 -0.57360153889E+04  0.25925445921E+04  0.16207526018E+04  0.65000000000E+04  0.10000000000E+01 0.  0.
    9000001    1    1    2    0    0  0.57360153889E+04 -0.25925445921E+04 -0.16207526018E+04  0.65000000000E+04  0.10000000000E+01 0.  0.
</event>
<event>
 4    1  0.2193160E-006  0.1300000E+05  0.7957747E-01  0.1322471E+00
    9000001   -1    0    0    0    0  0.00000000000E+00  0.00000000000E+00  0.64999999231E+04  0.65000000000E+04  0.10000000000E+01 0.  0.
    9000001   -1    0    0    0    0 -0.00000000000E+00 -0.00000000000E+00 -0.64999999231E+04  0.65000000000E+04  0.10000000000E+01 0.  0.
    9000001    1    1    2    0    0 -0.38763260539E+04  0.50449542759E+04  0.13313645925E+04  0.65000000000E+04  0.10000000000E+01 0.  0.
    9000001    1    1    2    0    0  0.38763260539E+04 -0.50449542759E+04 -0.13313645925E+04  0.65000000000E+04  0.10000000000E+01 0.  0.
</event>
<event>
 4    1  0.2193160E-006  0.1300000E+05  0.7957747E-01  0.1322471E+00
    9000001   -1    0    0    0    0  0.00000000000E+00  0.00000000000E+00  0.64999999231E+04  0.65000000000E+04  0.10000000000E+01 0.  0.
    9000001   -1    0    0    0    0 -0.00000000000E+00 -0.00000000000E+00 -0.64999999231E+04  0.65000000000E+04  0.10000000000E+01 0.  0.
    9000001    1    1    2    0    0  0.17391860541E+04 -0.47988556609E+04  0.40244521633E+04  0.65000000000E+04  0.10000000000E+01 0.  0.
    9000001    1    1    2    0    0 -0.17391860541E+04  0.47988556609E+04 -0.40244521633E+04  0.65000000000E+04  0.10000000000E+01 0.  0.
</event>
<event>
 4    1  0.2193160E-006  0.1300000E+05  0.7957747E-01  0.1322471E+00
    9000001   -1    0    0    0    0  0.00000000000E+00  0.00000000000E+00  0.64999999231E+04  0.65000000000E+04  0.10000000000E+01 0.  0.
    9000001   -1    0    0    0    0 -0.00000000000E+00 -0.00000000000E+00 -0.64999999231E+04  0.65000000000E+04  0.10000000000E+01 0.  0.
    9000001    1    1    2    0    0 -0.20890254795E+04 -0.11073506076E+04  0.60547292407E+04  0.65000000000E+04  0.10000000000E+01 0.  0.
    9000001    1    1    2    0    0  0.20890254795E+04  0.11073506076E+04 -0.60547292407E+04  0.65000000000E+04  0.10000000000E+01 0.  0.
</event>
<event>
 4    1  0.2193160E-006  0.1300000E+05  0.7957747E-01  0.1322471E+00
    9000001   -1    0    0    0    0  0.00000000000E+00  0.00000000000E+00  0.64999999231E+04  0.65000000000E+04  0.10000000000E+01 0.  0.
    9000001   -1    0    0    0    0 -0.00000000000E+00 -0.00000000000E+00 -0.64999999231E+04  0.65000000000E+04  0.10000000000E+01 0.  0.
    9000001    1    1    2    0    0  0.16183704875E+04 -0.53961764913E+04 -0.32422454010E+04  0.65000000000E+04  0.10000000000E+01 0.  0.
    9000001    1    1    2    0    0 -0.16183704875E+04  0.53961764913E+04  0.32422454010E+04  0.65000000000E+04  0.10000000000E+01 0.  0.
</event>
<event>
 4    1  0.2193160E-006  0.1300000E+05  0.7957747E-01  0.1322471E+00
    9000001   -1    0    0    0    0  0.00000000000E+00  0.00000000000E+00  0.64999999231E+04  0.65000000000E+04  0.10000000000E+01 0.  0.
    9000001   -1    0    0    0    0 -0.00000000000E+00 -0.00000000000E+00 -0.64999999231E+04  0.65000000000E+04  0.10000000000E+01 0.  0.
    9000001    1    1    2    0    0 -0.34412641726E+04  0.54737146383E+04 -0.66794307617E+03  0.65000000000E+04  0.10000000000E+01 0.  0.
    9000001    1    1    2    0    0  0.34412641726E+04 -0.54737146383E+04  0.66794307617E+03  0.65000000000E+04  0.10000000000E+01 0.  0.
</event>
<event>
 4    1  0.2193160E-006  0.1300000E+05  0.7957747E-01  0.1322471E+00
    9000001   -1    0    0    0    0  0.00000000000E+00  0.00000000000E+00  0.64999999231E+04  0.65000000000E+04  0.10000000000E+01 0.  0.
    9000001   -1    0    0    0    0 -0.00000000000E+00 -0.00000000000E+00 -0.64999999231E+04  0.65000000000E+04  0.10000000000E+01 0.  0.
    9000001    1    1    2    0    0  0.35268020740E+04 -0.11065239100E+04  0.53467065533E+04  0.65000000000E+04  0.10000000000E+01 0.  0.
    9000001    1    1    2    0    0 -0.35268020740E+04  0.11065239100E+04 -0.53467065533E+04  0.65000000000E+04  0.10000000000E+01 0.  0.
</event>
<event>
 4    1  0.2193160E-006  0.1300000E+05  0.7957747E-01  0.1322471E+00
    9000001   -1    0    0    0    0  0.00000000000E+00  0.00000000000E+00  0.64999999231E+04  0.65000000000E+04  0.10000000000E+01 0.  0.
    9000001   -1    0    0    0    0 -0.00000000000E+00 -0.00000000000E+00 -0.64999999231E+04  0.65000000000E+04  0.10000000000E+01 0.  0.
    9000001    1    1    2    0    0 -0.59463611069E+03 -0.31126718179E+04  0.56751811469E+04  0.65000000000E+04  0.10000000000E+01 0.  0.
    9000001    1    1    2    0    0  0.59463611069E+03  0.31126718179E+04 -0.56751811469E+04  0.65000000000E+04  0.10000000000E+01 0.  0.
</event>
<event>
 4    1  0.2193160E-006  0.1300000E+05  0.7957747E-01  0.1322471E+00
    9000001   -1    0    0    0    0  0.00000000000E+00  0.00000000000E+00  0.64999999231E+04  0.65000000000E+04  0.10000000000E+01 0.  0.
    9000001   -1    0    0    0    0 -0.00000000000E+00 -0.00000000000E+00 -0.64999999231E+04  0.65000000000E+04  0.10000000000E+01 0.  0.
    9000001    1    1    2    0    0  0.11978901696E+04  0.63372351769E+04 -0.80901696768E+03  0.65000000000E+04  0.10000000000E+01 0.  0.
    9000001    1    1    2    0    0 -0.11978901696E+04 -0.63372351769E+04  0.80901696768E+03  0.65000000000E+04  0.10000000000E+01 0.  0.
</event>
<event>
 4    1  0.2193160E-006  0.1300000E+05  0.7957747E-01  0.1322471E+00
    9000001   -1    0    0    0    0  0.00000000000E+00  0.00000000000E+00  0.64999999231E+04  0.65000000000E+04  0.10000000000E+01 0.  0.
    9000001   -1    0    0    0    0 -0.00000000000E+00 -0.00000000000E+00 -0.64999999231E+04  0.65000000000E+04  0.10000000000E+01 0.  0.
    9000001    1    1    2    0    0  0.29807145477E+04  0.57052760891E+04 -0.90286462577E+03  0.65000000000E+04  0.10000000000E+01 0.  0.
    9000001    1    1    2    0    0 -0.29807145477E+04 -0.57052760891E+04  0.90286462577E+03  0.65000000000E+04  0.10000000000E+01 0.  0.
</event>
<event>
 4    1  0.2193160E-006  0.1300000E+05  0.7957747E-01  0.1322471E+00
    9000001   -1    0    0    0    0  0.00000000000E+00  0.00000000000E+00  0.64999999231E+04  0.65000000000E+04  0.10000000000E+01 0.  0.
    9000001   -1    0    0    0    0 -0.00000000000E+00 -0.00000000000E+00 -0.64999999231E+04  0.65000000000E+04  0.10000000000E+01 0.  0.
    9000001    1    1    2    0    0  0.20819847679E+04  0.43258181089E+04 -0.43820812538E+04  0.65000000000E+04  0.10000000000E+01 0.  0.
    9000001    1    1    2    0    0 -0.20819847679E+04 -0.43258181089E+04  0.43820812538E+04  0.65000000000E+04  0.10000000000E+01 0.  0.
</event>
<event>
 4    1  0.2193160E-006  0.1300000E+05  0.7957747E-01  0.1322471E+00
    9000001   -1    0    0    0    0  0.00000000000E+00  0.00000000000E+00  0.64999999231E+04  0.65000000000E+04  0.10000000000E+01 0.  0.
    9000001   -1    0    0    0    0 -0.00000000000E+00 -0.00000000000E+00 -0.64999999231E+04  0.65000000000E+04  0.10000000000E+01 0.  0.
    9000001    1    1    2    0    0 -0.45036339079E+04 -0.27774757867E+04 -0.37753024883E+04  0.65000000000E+04  0.10000000000E+01 0.  0.
    9000001    1    1    2    0    0  0.45036339079E+04  0.27774757867E+04  0.37753024883E+04  0.65000000000E+04  0.10000000000E+01 0.  0.
</event>
<event>
 4    1  0.2193160E-006  0.1300000E+05  0.7957747E-01  0.1322471E+00
    9000001   -1    0    0    0    0  0.00000000000E+00  0.00000000000E+00  0.64999999231E+04  0.65000000000E+04  0.10000000000E+01 0.  0.
    9000001   -1    0    0    0    0 -0.00000000000E+00 -0.00000000000E+00 -0.64999999231E+04  0.65000000000E+04  0.10000000000E+01 0.  0.
    9000001    1    1    2    0    0  0.55884707922E+04 -0.73249635615E+01  0.33194788069E+04  0.65000000000E+04  0.10000000000E+01 0.  0.
    9000001    1    1    2    0    0 -0.55884707922E+04  0.73249635615E+01 -0.33194788069E+04  0.65000000000E+04  0.10000000000E+01 0.  0.
</event>
<event>
 4    1  0.2193160E-006  0.1300000E+05  0.7957747E-01  0.1322471E+00
    9000001   -1    0    0    0    0  0.00000000000E+00  0.00000000000E+00  0.64999999231E+04  0.65000000000E+04  0.10000000000E+01 0.  0.
    9000001   -1    0    0    0    0 -0.00000000000E+00 -0.00000000000E+00 -0.64999999231E+04  0.65000000000E+04  0.10000000000E+01 0.  0.
    9000001    1    1    2    0    0  0.80370608898E+03  0.60347526199E+04  0.22772387533E+04  0.65000000000E+04  0.10000000000E+01 0.  0.
    9000001    1    1    2    0    0 -0.80370608898E+03 -0.60347526199E+04 -0.22772387533E+04  0.65000000000E+04  0.10000000000E+01 0.  0.
</event>
<event>
 4    1  0.2193160E-006  0.1300000E+05  0.7957747E-01  0.1322471E+00
    9000001   -1    0    0    0    0  0.00000000000E+00  0.00000000000E+00  0.64999999231E+04  0.65000000000E+04  0.10000000000E+01 0.  0.
    9000001   -1    0    0    0    0 -0.00000000000E+00 -0.00000000000E+00 -0.64999999231E+04  0.65000000000E+04  0.10000000000E+01 0.  0.
    9000001    1    1    2    0    0 -0.32870379561E+04 -0.42494390212E+04  0.36589135655E+04  0.65000000000E+04  0.10000000000E+01 0.  0.
    9000001    1    1    2    0    0  0.32870379561E+04  0.42494390212E+04 -0.36589135655E+04  0.65000000000E+04  0.10000000000E+01 0.  0.
</event>
<event>
 4    1  0.2193160E-006  0.1300000E+05  0.7957747E-01  0.1322471E+00
    9000001   -1    0    0    0    0  0.00000000000E+00  0.00000000000E+00  0.64999999231E+04  0.65000000000E+04  0.10000000000E+01 0.  0.
    9000001   -1    0    0    0    0 -0.00000000000E+00 -0.00000000000E+00 -0.64999999231E+04  0.65000000000E+04  0.10000000000E+01 0.  0.
    9000001    1    1    2    0    0 -0.62080968115E+04 -0.81668782324E+03 -0.17442918272E+04  0.65000000000E+04  0.10000000000E+01 0.  0.
    9000001    1    1    2    0    0  0.62080968115E+04  0.81668782324E+03  0.17442918272E+04  0.65000000000E+04  0.10000000000E+01 0.  0.
</event>
<event>
 4    1  0.2193160E-006  0.1300000E+05  0.7957747E-01  0.1322471E+00
    9000001   -1    0    0    0    0  0.00000000000E+00  0.00000000000E+00  0.64999999231E+04  0.65000000000E+04  0.10000000000E+01 0.  0.
    9000001   -1    0    0    0    0 -0.00000000000E+00 -0.00000000000E+00 -0.64999999231E+04  0.65000000000E+04  0.10000000000E+01 0.  0.
    9000001    1    1    2    0    0  0.36167783137E+04  0.50863540820E+04  0.18160164599E+04  0.65000000000E+04  0.10000000000E+01 0.  0.
    9000001    1    1    2    0    0 -0.36167783137E+04 -0.50863540820E+04 -0.18160164599E+04  0.65000000000E+04  0.10000000000E+01 0.  0.
</event>
<event>
 4    1  0.2193160E-006  0.1300000E+05  0.7957747E-01  0.1322471E+00
    9000001   -1    0    0    0    0  0.00000000000E+00  0.00000000000E+00  0.64999999231E+04  0.65000000000E+04  0.10000000000E+01 0.  0.
    9000001   -1    0    0    0    0 -0.00000000000E+00 -0.00000000000E+00 -0.64999999231E+04  0.65000000000E+04  0.10000000000E+01 0.  0.
    9000001    1    1    2    0    0  0.27517838053E+04  0.34426151531E+04 -0.47776653081E+04  0.65000000000E+04  0.10000000000E+01 0.  0.
    9000001    1    1    2    0    0 -0.27517838053E+04 -0.34426151531E+04  0.47776653081E+04  0.65000000000E+04  0.10000000000E+01 0.  0.
</event>
<event>
 4    1  0.2193160E-006  0.1300000E+05  0.7957747E-01  0.1322471E+00
    9000001   -1    0    0    0    0  0.00000000000E+00  0.00000000000E+00  0.64999999231E+04  0.65000000000E+04  0.10000000000E+01 0.  0.
    9000001   -1    0    0    0    0 -0.00000000000E+00 -0.00000000000E+00 -0.64999999231E+04  0.65000000000E+04  0.10000000000E+01 0.  0.
    9000001    1    1    2    0    0 -0.36632532273E+04  0.27282196230E+04 -0.46246505253E+04  0.65000000000E+04  0.10000000000E+01 0.  0.
    9000001    1    1    2    0    0  0.36632532273E+04 -0.27282196230E+04  0.46246505253E+04  0.65000000000E+04  0.10000000000E+01 0.  0.
</event>
<event>
 4    1  0.2193160E-006  0.1300000E+05  0.7957747E-01  0.1322471E+00
    9000001   -1    0    0    0    0  0.00000000000E+00  0.00000000000E+00  0.64999999231E+04  0.65000000000E+04  0.10000000000E+01 0.  0.
    9000001   -1    0    0    0    0 -0.00000000000E+00 -0.00000000000E+00 -0.64999999231E+04  0.65000000000E+04  0.10000000000E+01 0.  0.
    9000001    1    1    2    0    0 -0.38324672375E+03 -0.60265913299E+04 -0.24048529875E+04  0.65000000000E+04  0.10000000000E+01 0.  0.
    9000001    1    1    2    0    0  0.38324672375E+03  0.60265913299E+04  0.24048529875E+04  0.65000000000E+04  0.10000000000E+01 0.  0.
</event>
<event>
 4    1  0.2193160E-006  0.1300000E+05  0.7957747E-01  0.1322471E+00
    9000001   -1    0    0    0    0  0.00000000000E+00  0.00000000000E+00  0.64999999231E+04  0.65000000000E+04  0.10000000000E+01 0.  0.
    9000001   -1    0    0    0    0 -0.00000000000E+00 -0.00000000000E+00 -0.64999999231E+04  0.65000000000E+04  0.10000000000E+01 0.  0.
    9000001    1    1    2    0    0 -0.10757837751E+03  0.54198774320E+04 -0.35865518976E+04  0.65000000000E+04  0.10000000000E+01 0.  0.
    9000001    1    1    2    0    0  0.10757837751E+03 -0.54198774320E+04  0.35865518976E+04  0.65000000000E+04  0.10000000000E+01 0.  0.
</event>
<event>
 4    1  0.2193160E-006  0.1300000E+05  0.7957747E-01  0.1322471E+00
    9000001   -1    0    0    0    0  0.00000000000E+00  0.00000000000E+00  0.64999999231E+04  0.65000000000E+04  0.10000000000E+01 0.  0.
    9000001   -1    0    0    0    0 -0.00000000000E+00 -0.00000000000E+00 -0.64999999231E+04  0.65000000000E+04  0.10000000000E+01 0.  0.
    9000001    1    1    2    0    0  0.29159410394E+04  0.27929027994E+04 -0.50938179009E+04  0.65000000000E+04  0.10000000000E+01 0.  0.
    9000001    1    1    2    0    0 -0.29159410394E+04 -0.27929027994E+04  0.50938179009E+04  0.65000000000E+04  0.10000000000E+01 0.  0.
</event>
<event>
 4    1  0.2193160E-006  0.1300000E+05  0.7957747E-01  0.1322471E+00
    9000001   -1    0    0    0    0  0.00000000000E+00  0.00000000000E+00  0.64999999231E+04  0.65000000000E+04  0.10000000000E+01 0.  0.
    9000001   -1    0    0    0    0 -0.00000000000E+00 -0.00000000000E+00 -0.64999999231E+04  0.65000000000E+04  0.10000000000E+01 0.  0.
    9000001    1    1    2    0    0  0.62944528222E+04  0.15514825214E+04 -0.47197950651E+03  0.65000000000E+04  0.10000000000E+01 0.  0.
    9000001    1    1    2    0    0 -0.62944528222E+04 -0.15514825214E+04  0.47197950651E+03  0.65000000000E+04  0.10000000000E+01 0.  0.
</event>
<event>
 4    1  0.2193160E-006  0.1300000E+05  0.7957747E-01  0.1322471E+00
    9000001   -1    0    0    0    0  0.00000000000E+00  0.00000000000E+00  0.64999999231E+04  0.65000000000E+04  0.10000000000E+01 0.  0.
    9000001   -1    0    0    0    0 -0.00000000000E+00 -0.00000000000E+00 -0.64999999231E+04  0.65000000000E+04  0.10000000000E+01 0.  0.
    9000001    1    1    2    0    0 -0.28698784814E+04 -0.56026093121E+04  0.16200510480E+04  0.65000000000E+04  0.10000000000E+01 0.  0.
    9000001    1    1    2    0    0  0.28698784814E+04  0.56026093121E+04 -0.16200510480E+04  0.65000000000E+04  0.10000000000E+01 0.  0.
</event>
<event>
 4    1  0.2193160E-006  0.1300000E+05  0.7957747E-01  0.1322471E+00
    9000001   -1    0    0    0    0  0.00000000000E+00  0.00000000000E+00  0.64999999231E+04  0.65000000000E+04  0.10000000000E+01 0.  0.
    9000001   -1    0    0    0    0 -0.00000000000E+00 -0.00000000000E+00 -0.64999999231E+04  0.65000000000E+04  0.10000000000E+01 0.  0.
    9000001    1    1    2    0    0 -0.48982400859E+04 -0.26814263592E+04 -0.33267395061E+04  0.65000000000E+04  0.10000000000E+01 0.  0.
    9000001    1    1    2    0    0  0.48982400859E+04  0.26814263592E+04  0.33267395061E+04  0.65000000000E+04  0.10000000000E+01 0.  0.
</event>
<event>
 4    1  0.2193160E-006  0.1300000E+05  0.7957747E-01  0.1322471E+00
    9000001   -1    0    0    0    0  0.00000000000E+00  0.00000000000E+00  0.64999999231E+04  0.65000000000E+04  0.10000000000E+01 0.  0.
    9000001   -1    0    0    0    0 -0.00000000000E+00 -0.00000000000E+00 -0.64999999231E+04  0.65000000000E+04  0.10000000000E+01 0.  0.
    9000001    1    1    2    0    0 -0.31489143323E+04 -0.13289919407E+04 -0.55288441784E+04  0.65000000000E+04  0.10000000000E+01 0.  0.
    9000001    1    1    2    0    0  0.31489143323E+04  0.13289919407E+04  0.55288441784E+04  0.65000000000E+04  0.10000000000E+01 0.  0.
</event>
<event>
 4    1  0.2193160E-006  0.1300000E+05  0.7957747E-01  0.1322471E+00
    9000001   -1    0    0    0    0  0.00000000000E+00  0.00000000000E+00  0.64999999231E+04  0.65000000000E+04  0.10000000000E+01 0.  0.
    9000001   -1    0    0    0    0 -0.00000000000E+00 -0.00000000000E+00 -0.64999999231E+04  0.65000000000E+04  0.10000000000E+01 0.  0.
    9000001    1    1    2    0    0  0.31385815225E+04 -0.34011867197E+04  0.45641246613E+04  0.65000000000E+04  0.10000000000E+01 0.  0.
    9000001    1    1    2    0    0 -0.31385815225E+04  0.34011867197E+04 -0.45641246613E+04  0.65000000000E+04  0.10000000000E+01 0.  0.
</event>
<event>
 4    1  0.2193160E-006  0.1300000E+05  0.7957747E-01  0.1322471E+00
    9000001   -1    0    0    0    0  0.00000000000E+00  0.00000000000E+00  0.64999999231E+04  0.65000000000E+04  0.10000000000E+01 0.  0.
    9000001   -1    0    0    0    0 -0.00000000000E+00 -0.00000000000E+00 -0.64999999231E+04  0.65000000000E+04  0.10000000000E+01 0.  0.
    9000001    1    1    2    0    0 -0.29322676324E+04 -0.49918565083E+04 -0.29551944323E+04  0.65000000000E+04  0.10000000000E+01 0.  0.
    9000001    1    1    2    0    0  0.29322676324E+04  0.49918565083E+04  0.29551944323E+04  0.65000000000E+04  0.10000000000E+01 0.  0.
</event>
<event>
 4    1  0.2193160E-006  0.1300000E+05  0.7957747E-01  0.1322471E+00
    9000001   -1    0    0    0    0  0.00000000000E+00  0.00000000000E+00  0.64999999231E+04  0.65000000000E+04  0.10000000000E+01 0.  0.
    9000001   -1    0    0    0    0 -0.00000000000E+00 -0.00000000000E+00 -0.64999999231E+04  0.65000000000E+04  0.10000000000E+01 0.  0.
    9000001    1    1    2    0    0  0.19182439823E+04 -0.60987715810E+04 -0.11727421827E+04  0.65000000000E+04  0.10000000000E+01 0.  0.
    9000001    1    1    2    0    0 -0.19182439823E+04  0.60987715810E+04  0.11727421827E+04  0.65000000000E+04  0.10000000000E+01 0.  0.
</event>
<event>
 4    1  0.2193160E-006  0.1300000E+05  0.7957747E-01  0.1322471E+00
    9000001   -1    0    0    0    0  0.00000000000E+00  0.00000000000E+00  0.64999999231E+04  0.65000000000E+04  0.10000000000E+01 0.  0.
    9000001   -1    0    0    0    0 -0.00000000000E+00 -0.00000000000E+00 -0.64999999231E+04  0.65000000000E+04  0.10000000000E+01 0.  0.
    9000001    1    1    2    0    0  0.51164238088E+04  0.30622905128E+04 -0.25873892680E+04  0.65000000000E+04  0.10000000000E+01 0.  0.
    9000001    1    1    2    0    0 -0.51164238088E+04 -0.30622905128E+04  0.25873892680E+04  0.65000000000E+04  0.10000000000E+01 0.  0.
</event>
<event>
 4    1  0.2193160E-006  0.1300000E+05  0.7957747E-01  0.1322471E+00
    9000001   -1    0    0    0    0  0.00000000000E+00  0.00000000000E+00  0.64999999231E+04  0.65000000000E+04  0.10000000000E+01 0.  0.
    9000001   -1    0    0    0    0 -0.00000000000E+00 -0.00000000000E+00 -0.64999999231E+04  0.65000000000E+04  0.10000000000E+01 0.  0.
    9000001    1    1    2    0    0 -0.48147992861E+04  0.40642282710E+04  0.15967953521E+04  0.65000000000E+04  0.10000000000E+01 0.  0.
    9000001    1    1    2    0    0  0.48147992861E+04 -0.40642282710E+04 -0.15967953521E+04  0.65000000000E+04  0.10000000000E+01 0.  0.
</event>
<event>
 4    1  0.2193160E-006  0.1300000E+05  0.7957747E-01  0.1322471E+00
    9000001   -1    0    0    0    0  0.00000000000E+00  0.00000000000E+00  0.64999999231E+04  0.65000000000E+04  0.10000000000E+01 0.  0.
    9000001   -1    0    0    0    0 -0.00000000000E+00 -0.00000000000E+00 -0.64999999231E+04  0.65000000000E+04  0.10000000000E+01 0.  0.
    9000001    1    1    2    0    0  0.42517070565E+04  0.32536442150E+04 -0.36860256955E+04  0.65000000000E+04  0.10000000000E+01 0.  0.
    9000001    1    1    2    0    0 -0.42517070565E+04 -0.32536442150E+04  0.36860256955E+04  0.65000000000E+04  0.10000000000E+01 0.  0.
</event>
<event>
 4    1  0.2193160E-006  0.1300000E+05  0.7957747E-01  0.1322471E+00
    9000001   -1    0    0    0    0  0.00000000000E+00  0.00000000000E+00  0.64999999231E+04  0.65000000000E+04  0.10000000000E+01 0.  0.
    9000001   -1    0    0    0    0 -0.00000000000E+00 -0.00000000000E+00 -0.64999999231E+04  0.65000000000E+04  0.10000000000E+01 0.  0.
    9000001    1    1    2    0    0 -0.82669405339E+03 -0.38717598088E+04  0.51551965942E+04  0.65000000000E+04  0.10000000000E+01 0.  0.
    9000001    1    1    2    0    0  0.82669405339E+03  0.38717598088E+04 -0.51551965942E+04  0.65000000000E+04  0.10000000000E+01 0.  0.
</event>
<event>
 4    1  0.2193160E-006  0.1300000E+05  0.7957747E-01  0.1322471E+00
    9000001   -1    0    0    0    0  0.00000000000E+00  0.00000000000E+00  0.64999999231E+04  0.65000000000E+04  0.10000000000E+01 0.  0.
    9000001   -1    0    0    0    0 -0.00000000000E+00 -0.00000000000E+00 -0.64999999231E+04  0.65000000000E+04  0.10000000000E+01 0.  0.
    9000001    1    1    2    0    0 -0.50589868391E+04 -0.10548891729E+04 -0.39425702270E+04  0.65000000000E+04  0.10000000000E+01 0.  0.
    9000001    1    1    2    0    0  0.50589868391E+04  0.10548891729E+04  0.39425702270E+04  0.65000000000E+04  0.10000000000E+01 0.  0.
</event>
<event>
 4    1  0.2193160E-006  0.1300000E+05  0.7957747E-01  0.1322471E+00
    9000001   -1    0    0    0    0  0.00000000000E+00  0.00000000000E+00  0.64999999231E+04  0.65000000000E+04  0.10000000000E+01 0.  0.
    9000001   -1    0    0    0    0 -0.00000000000E+00 -0.00000000000E+00 -0.64999999231E+04  0.65000000000E+04  0.10000000000E+01 0.  0.
    9000001    1    1    2    0    0 -0.28822728816E+04  0.57315416092E+04  0.10449558928E+04  0.65000000000E+04  0.10000000000E+01 0.  0.
    9000001    1    1    2    0    0  0.28822728816E+04 -0.57315416092E+04 -0.10449558928E+04  0.65000000000E+04  0.10000000000E+01 0.  0.
</event>
<event>
 4    1  0.2193160E-006  0.1300000E+05  0.7957747E-01  0.1322471E+00
    9000001   -1    0    0    0    0  0.00000000000E+00  0.00000000000E+00  0.64999999231E+04  0.65000000000E+04  0.10000000000E+01 0.  0.
    9000001   -1    0    0    0    0 -0.00000000000E+00 -0.00000000000E+00 -0.64999999231E+04  0.65000000000E+04  0.10000000000E+01 0.  0.
    9000001    1    1    2    0    0  0.55039354173E+03 -0.52883597269E+04 -0.37390262567E+04  0.65000000000E+04  0.10000000000E+01 0.  0.
    9000001    1    1    2    0    0 -0.55039354173E+03  0.52883597269E+04  0.37390262567E+04  0.65000000000E+04  0.10000000000E+01 0.  0.
</event>
<event>
 4    1  0.2193160E-006  0.1300000E+05  0.7957747E-01  0.1322471E+00
    9000001   -1    0    0    0    0  0.00000000000E+00  0.00000000000E+00  0.64999999231E+04  0.65000000000E+04  0.10000000000E+01 0.  0.
    9000001   -1    0    0    0    0 -0.00000000000E+00 -0.00000000000E+00 -0.64999999231E+04  0.65000000000E+04  0.10000000000E+01 0.  0.
    9000001    1    1    2    0    0 -0.57440620534E+04 -0.28654402051E+04 -0.10222536662E+04  0.65000000000E+04  0.10000000000E+01 0.  0.
    9000001    1    1    2    0    0  0.57440620534E+04  0.28654402051E+04  0.10222536662E+04  0.65000000000E+04  0.10000000000E+01 0.  0.
</event>
<event>
 4    1  0.2193160E-006  0.1300000E+05  0.7957747E-01  0.1322471E+00
    9000001   -1    0    0    0    0  0.00000000000E+00  0.00000000000E+00  0.64999999231E+04  0.65000000000E+04  0.10000000000E+01 0.  0.
    9000001   -1    0    0    0    0 -0.00000000000E+00 -0.00000000000E+00 -0.64999999231E+04  0.65000000000E+04  0.10000000000E+01 0.  0.
    9000001    1    1    2    0    0  0.20208354199E+03 -0.64948077139E+04  0.16319926972E+03  0.65000000000E+04  0.10000000000E+01 0.  0.
    9000001    1    1    2    0    0 -0.20208354199E+03  0.64948077139E+04 -0.16319926972E+03  0.65000000000E+04  0.10000000000E+01 0.  0.
</event>
<event>
 4    1  0.2193160E-006  0.1300000E+05  0.7957747E-01  0.1322471E+00
    9000001   -1    0    0    0    0  0.00000000000E+00  0.00000000000E+00  0.64999999231E+04  0.65000000000E+04  0.10000000000E+01 0.  0.
    9000001   -1    0    0    0    0 -0.00000000000E+00 -0.00000000000E+00 -0.64999999231E+04  0.65000000000E+04  0.10000000000E+01 0.  0.
    9000001    1    1    2    0    0 -0.63626124834E+04  0.10428735385E+04 -0.82436409969E+03  0.65000000000E+04  0.10000000000E+01 0.  0.
    9000001    1    1    2    0    0  0.63626124834E+04 -0.10428735385E+04  0.82436409969E+03  0.65000000000E+04  0.10000000000E+01 0.  0.
</event>
<event>
 4    1  0.2193160E-006  0.1300000E+05  0.7957747E-01  0.1322471E+00
    9000001   -1    0    0    0    0  0.00000000000E+00  0.00000000000E+00  0.64999999231E+04  0.65000000000E+04  0.10000000000E+01 0.  0.
    9000001   -1    0    0    0    0 -0.00000000000E+00 -0.00000000000E+00 -0.64999999231E+04  0.65000000000E+04  0.10000000000E+01 0.  0.
    9000001    1    1    2    0    0  0.33925439728E+04  0.50678072690E+04  0.22489939700E+04  0.65000000000E+04  0.10000000000E+01 0.  0.
    9000001    1    1    2    0    0 -0.33925439728E+04 -0.50678072690E+04 -0.22489939700E+04  0.65000000000E+04  0.10000000000E+01 0.  0.
</event>
<event>
 4    1  0.2193160E-006  0.1300000E+05  0.7957747E-01  0.1322471E+00
    9000001   -1    0    0    0    0  0.00000000000E+00  0.00000000000E+00  0.64999999231E+04  0.65000000000E+04  0.10000000000E+01 0.  0.
    9000001   -1    0    0    0    0 -0.00000000000E+00 -0.00000000000E+00 -0.64999999231E+04  0.65000000000E+04  0.10000000000E+01 0.  0.
    9000001    1    1    2    0    0 -0.22274011407E+04  0.48314415122E+04 -0.37344150911E+04  0.65000000000E+04  0.10000000000E+01 0.  0.
    9000001    1    1    2    0    0  0.22274011407E+04 -0.48314415122E+04  0.37344150911E+04  0.65000000000E+04  0.10000000000E+01 0.  0.
</event>
<event>
 4    1  0.2193160E-006  0.1300000E+05  0.7957747E-01  0.1322471E+00
    9000001   -1    0    0    0    0  0.00000000000E+00  0.00000000000E+00  0.64999999231E+04  0.65000000000E+04  0.10000000000E+01 0.  0.
    9000001   -1    0    0    0    0 -0.00000000000E+00 -0.00000000000E+00 -0.64999999231E+04  0.65000000000E+04  0.10000000000E+01 0.  0.
    9000001    1    1    2    0    0  0.67528601457E+02 -0.49734553641E+04 -0.41845167737E+04  0.65000000000E+04  0.10000000000E+01 0.  0.
    9000001    1    1    2    0    0 -0.67528601457E+02  0.49734553641E+04  0.41845167737E+04  0.65000000000E+04  0.10000000000E+01 0.  0.
</event>
<event>
 4    1  0.2193160E-006  0.1300000E+05  0.7957747E-01  0.1322471E+00
    9000001   -1    0    0    0    0  0.00000000000E+00  0.00000000000E+00  0.64999999231E+04  0.65000000000E+04  0.10000000000E+01 0.  0.
    9000001   -1    0    0    0    0 -0.00000000000E+00 -0.00000000000E+00 -0.64999999231E+04  0.65000000000E+04  0.10000000000E+01 0.  0.
    9000001    1    1    2    0    0 -0.96235513931E+03 -0.84502935739E+03 -0.63725816567E+04  0.65000000000E+04  0.10000000000E+01 0.  0.
    9000001    1    1    2    0    0  0.96235513931E+03  0.84502935739E+03  0.63725816567E+04  0.65000000000E+04  0.10000000000E+01 0.  0.
</event>
<event>
 4    1  0.2193160E-006  0.1300000E+05  0.7957747E-01  0.1322471E+00
    9000001   -1    0    0    0    0  0.00000000000E+00  0.00000000000E+00  0.64999999231E+04  0.65000000000E+04  0.10000000000E+01 0.  0.
    9000001   -1    0    0    0    0 -0.00000000000E+00 -0.00000000000E+00 -0.64999999231E+04  0.65000000000E+04  0.10000000000E+01 0.  0.
    9000001    1    1    2    0    0 -0.60709830888E+04 -0.13659678096E+03 -0.23182977925E+04  0.65000000000E+04  0.10000000000E+01 0.  0.
    9000001    1    1    2    0    0  0.60709830888E+04  0.13659678096E+03  0.23182977925E+04  0.65000000000E+04  0.10000000000E+01 0.  0.
</event>
<event>
 4    1  0.2193160E-006  0.1300000E+05  0.7957747E-01  0.1322471E+00
    9000001   -1    0    0    0    0  0.00000000000E+00  0.00000000000E+00  0.64999999231E+04  0.65000000000E+04  0.10000000000E+01 0.  0.
    9000001   -1    0    0    0    0 -0.00000000000E+00 -0.00000000000E+00 -0.64999999231E+04  0.65000000000E+04  0.10000000000E+01 0.  0.
    9000001    1    1    2    0    0 -0.31422907656E+04  0.56872674254E+04 -0.17605958340E+03  0.65000000000E+04  0.10000000000E+01 0.  0.
    9000001    1    1    2    0    0  0.31422907656E+04 -0.56872674254E+04  0.17605958340E+03  0.65000000000E+04  0.10000000000E+01 0.  0.
</event>
<event>
 4    1  0.2193160E-006  0.1300000E+05  0.7957747E-01  0.1322471E+00
    9000001   -1    0    0    0    0  0.00000000000E+00  0.00000000000E+00  0.64999999231E+04  0.65000000000E+04  0.10000000000E+01 0.  0.
    9000001   -1    0    0    0    0 -0.00000000000E+00 -0.00000000000E+00 -0.64999999231E+04  0.65000000000E+04  0.10000000000E+01 0.  0.
    9000001    1    1    2    0    0 -0.63291023274E+04  0.10858259286E+04  0.10066999462E+04  0.65000000000E+04  0.10000000000E+01 0.  0.
    9000001    1    1    2    0    0  0.63291023274E+04 -0.10858259286E+04 -0.10066999462E+04  0.65000000000E+04  0.10000000000E+01 0.  0.
</event>
<event>
 4    1  0.2193160E-006  0.1300000E+05  0.7957747E-01  0.1322471E+00
    9000001   -1    0    0    0    0  0.00000000000E+00  0.00000000000E+00  0.64999999231E+04  0.65000000000E+04  0.10000000000E+01 0.  0.
    9000001   -1    0    0    0    0 -0.00000000000E+00 -0.00000000000E+00 -0.64999999231E+04  0.65000000000E+04  0.10000000000E+01 0.  0.
    9000001    1    1    2    0    0 -0.22076809241E+04  0.51786938851E+04 -0.32491958362E+04  0.65000000000E+04  0.10000000000E+01 0.  0.
    9000001    1    1    2    0    0  0.22076809241E+04 -0.51786938851E+04  0.32491958362E+04  0.65000000000E+04  0.10000000000E+01 0.  0.
</event>
<event>
 4    1  0.2193160E-006  0.1300000E+05  0.7957747E-01  0.1322471E+00
    9000001   -1    0    0    0    0  0.00000000000E+00  0.00000000000E+00  0.64999999231E+04  0.65000000000E+04  0.10000000000E+01 0.  0.
    9000001   -1    0    0    0    0 -0.00000000000E+00 -0.00000000000E+00 -0.64999999231E+04  0.65000000000E+04  0.10000000000E+01 0.  0.
    9000001    1    1    2    0    0 -0.62647503745E+04 -0.17320459315E+04 -0.54024401951E+02  0.65000000000E+04  0.10000000000E+01 0.  0.
    9000001    1    1    2    0    0  0.62647503745E+04  0.17320459315E+04  0.54024401951E+02  0.65000000000E+04  0.10000000000E+01 0.  0.
</event>
<event>
 4    1  0.2193160E-006  0.1300000E+05  0.7957747E-01  0.1322471E+00
    9000001   -1    0    0    0    0  0.00000000000E+00  0.00000000000E+00  0.64999999231E+04  0.65000000000E+04  0.10000000000E+01 0.  0.
    9000001   -1    0    0    0    0 -0.00000000000E+00 -0.00000000000E+00 -0.64999999231E+04  0.65000000000E+04  0.10000000000E+01 0.  0.
    9000001    1    1    2    0    0 -0.19881685530E+04 -0.61881609222E+04 -0.62041974454E+02  0.65000000000E+04  0.10000000000E+01 0.  0.
    9000001    1    1    2    0    0  0.19881685530E+04  0.61881609222E+04  0.62041974454E+02  0.65000000000E+04  0.10000000000E+01 0.  0.
</event>
<event>
 4    1  0.2193160E-006  0.1300000E+05  0.7957747E-01  0.1322471E+00
    9000001   -1    0    0    0    0  0.00000000000E+00  0.00000000000E+00  0.64999999231E+04  0.65000000000E+04  0.10000000000E+01 0.  0.
    9000001   -1    0    0    0    0 -0.00000000000E+00 -0.00000000000E+00 -0.64999999231E+04  0.65000000000E+04  0.10000000000E+01 0.  0.
    9000001    1    1    2    0    0  0.60343921075E+04 -0.17295928890E+04 -0.16865999320E+04  0.65000000000E+04  0.10000000000E+01 0.  0.
    9000001    1    1    2    0    0 -0.60343921075E+04  0.17295928890E+04  0.16865999320E+04  0.65000000000E+04  0.10000000000E+01 0.  0.
</event>
<event>
 4    1  0.2193160E-006  0.1300000E+05  0.7957747E-01  0.1322471E+00
    9000001   -1    0    0    0    0  0.00000000000E+00  0.00000000000E+00  0.64999999231E+04  0.65000000000E+04  0.10000000000E+01 0.  0.
    9000001   -1    0    0    0    0 -0.00000000000E+00 -0.00000000000E+00 -0.64999999231E+04  0.65000000000E+04  0.10000000000E+01 0.  0.
    9000001    1    1    2    0    0 -0.48946992433E+04  0.41900368136E+04  0.85761869053E+03  0.65000000000E+04  0.10000000000E+01 0.  0.
    9000001    1    1    2    0    0  0.48946992433E+04 -0.41900368136E+04 -0.85761869053E+03  0.65000000000E+04  0.10000000000E+01 0.  0.
</event>
<event>
 4    1  0.2193160E-006  0.1300000E+05  0.7957747E-01  0.1322471E+00
    9000001   -1    0    0    0    0  0.00000000000E+00  0.00000000000E+00  0.64999999231E+04  0.65000000000E+04  0.10000000000E+01 0.  0.
    9000001   -1    0    0    0    0 -0.00000000000E+00 -0.00000000000E+00 -0.64999999231E+04  0.65000000000E+04  0.10000000000E+01 0.  0.
    9000001    1    1    2    0    0  0.14316218580E+04 -0.55682269747E+04  0.30323763312E+04  0.65000000000E+04  0.10000000000E+01 0.  0.
    9000001    1    1    2    0    0 -0.14316218580E+04  0.55682269747E+04 -0.30323763312E+04  0.65000000000E+04  0.10000000000E+01 0.  0.
</event>
<event>
 4    1  0.2193160E-006  0.1300000E+05  0.7957747E-01  0.1322471E+00
    9000001   -1    0    0    0    0  0.00000000000E+00  0.00000000000E+00  0.64999999231E+04  0.65000000000E+04  0.10000000000E+01 0.  0.
    9000001   -1    0    0    0    0 -0.00000000000E+00 -0.00000000000E+00 -0.64999999231E+04  0.65000000000E+04  0.10000000000E+01 0.  0.
    9000001    1    1    2    0    0 -0.64143866788E+04  0.91019494363E+03  0.52648618108E+03  0.65000000000E+04  0.10000000000E+01 0.  0.
    9000001    1    1    2    0    0  0.64143866788E+04 -0.91019494363E+03 -0.52648618108E+03  0.65000000000E+04  0.10000000000E+01 0.  0.
</event>
<event>
 4    1  0.2193160E-006  0.1300000E+05  0.7957747E-01  0.1322471E+00
    9000001   -1    0    0    0    0  0.00000000000E+00  0.00000000000E+00  0.64999999231E+04  0.65000000000E+04  0.10000000000E+01 0.  0.
    9000001   -1    0    0    0    0 -0.00000000000E+00 -0.00000000000E+00 -0.64999999231E+04  0.65000000000E+04  0.10000000000E+01 0.  0.
    9000001    1    1    2    0    0 -0.11962546965E+04 -0.28630533843E+03  0.63825545790E+04  0.65000000000E+04  0.10000000000E+01 0.  0.
    9000001    1    1    2    0    0  0.11962546965E+04  0.28630533843E+03 -0.63825545790E+04  0.65000000000E+04  0.10000000000E+01 0.  0.
</event>
<event>
 4    1  0.2193160E-006  0.1300000E+05  0.7957747E-01  0.1322471E+00
    9000001   -1    0    0    0    0  0.00000000000E+00  0.00000000000E+00  0.64999999231E+04  0.65000000000E+04  0.10000000000E+01 0.  0.
    9000001   -1    0    0    0    0 -0.00000000000E+00 -0.00000000000E+00 -0.64999999231E+04  0.65000000000E+04  0.10000000000E+01 0.  0.
    9000001    1    1    2    0    0 -0.27056217536E+04 -0.53862509744E+04 -0.24326755573E+04  0.65000000000E+04  0.10000000000E+01 0.  0.
    9000001    1    1    2    0    0  0.27056217536E+04  0.53862509744E+04  0.24326755573E+04  0.65000000000E+04  0.10000000000E+01 0.  0.
</event>
<event>
 4    1  0.2193160E-006  0.1300000E+05  0.7957747E-01  0.1322471E+00
    9000001   -1    0    0    0    0  0.00000000000E+00  0.00000000000E+00  0.64999999231E+04  0.65000000000E+04  0.10000000000E+01 0.  0.
    9000001   -1    0    0    0    0 -0.00000000000E+00 -0.00000000000E+00 -0.64999999231E+04  0.65000000000E+04  0.10000000000E+01 0.  0.
    9000001    1    1    2    0    0 -0.25153359273E+04 -0.28617550216E+04  0.52662550611E+04  0.65000000000E+04  0.10000000000E+01 0.  0.
    9000001    1    1    2    0    0  0.25153359273E+04  0.28617550216E+04 -0.52662550611E+04  0.65000000000E+04  0.10000000000E+01 0.  0.
</event>
<event>
 4    1  0.2193160E-006  0.1300000E+05  0.7957747E-01  0.1322471E+00
    9000001   -1    0    0    0    0  0.00000000000E+00  0.00000000000E+00  0.64999999231E+04  0.65000000000E+04  0.10000000000E+01 0.  0.
    9000001   -1    0    0    0    0 -0.00000000000E+00 -0.00000000000E+00 -0.64999999231E+04  0.65000000000E+04  0.10000000000E+01 0.  0.
    9000001    1    1    2    0    0 -0.24531418579E+04 -0.44313761051E+04  0.40736960907E+04  0.65000000000E+04  0.10000000000E+01 0.  0.
    9000001    1    1    2    0    0  0.24531418579E+04  0.44313761051E+04 -0.40736960907E+04  0.65000000000E+04  0.10000000000E+01 0.  0.
</event>
<event>
 4    1  0.2193160E-006  0.1300000E+05  0.7957747E-01  0.1322471E+00
    9000001   -1    0    0    0    0  0.00000000000E+00  0.00000000000E+00  0.64999999231E+04  0.65000000000E+04  0.10000000000E+01 0.  0.
    9000001   -1    0    0    0    0 -0.00000000000E+00 -0.00000000000E+00 -0.64999999231E+04  0.65000000000E+04  0.10000000000E+01 0.  0.
    9000001    1    1    2    0    0  0.74506486881E+03 -0.23594138022E+04 -0.60106608498E+04  0.65000000000E+04  0.10000000000E+01 0.  0.
    9000001    1    1    2    0    0 -0.74506486881E+03  0.23594138022E+04  0.60106608498E+04  0.65000000000E+04  0.10000000000E+01 0.  0.
</event>
<event>
 4    1  0.2193160E-006  0.1300000E+05  0.7957747E-01  0.1322471E+00
    9000001   -1    0    0    0    0  0.00000000000E+00  0.00000000000E+00  0.64999999231E+04  0.65000000000E+04  0.10000000000E+01 0.  0.
    9000001   -1    0    0    0    0 -0.00000000000E+00 -0.00000000000E+00 -0.64999999231E+04  0.65000000000E+04  0.10000000000E+01 0.  0.
    9000001    1    1    2    0    0  0.38510011770E+04  0.21296619319E+04 -0.47837567864E+04  0.65000000000E+04  0.10000000000E+01 0.  0.
    9000001    1    1    2    0    0 -0.38510011770E+04 -0.21296619319E+04  0.47837567864E+04  0.65000000000E+04  0.10000000000E+01 0.  0.
</event>
<event>
 4    1  0.2193160E-006  0.1300000E+05  0.7957747E-01  0.1322471E+00
    9000001   -1    0    0    0    0  0.00000000000E+00  0.00000000000E+00  0.64999999231E+04  0.65000000000E+04  0.10000000000E+01 0.  0.
    9000001   -1    0    0    0    0 -0.00000000000E+00 -0.00000000000E+00 -0.64999999231E+04  0.65000000000E+04  0.10000000000E+01 0.  0.
    9000001    1    1    2    0    0 -0.19585596505E+04  0.49600191427E+04 -0.37164839835E+04  0.65000000000E+04  0.10000000000E+01 0.  0.
    9000001    1    1    2    0    0  0.19585596505E+04 -0.49600191427E+04  0.37164839835E+04  0.65000000000E+04  0.10000000000E+01 0.  0.
</event>
<event>
 4    1  0.2193160E-006  0.1300000E+05  0.7957747E-01  0.1322471E+00
    9000001   -1    0    0    0    0  0.00000000000E+00  0.00000000000E+00  0.64999999231E+04  0.65000000000E+04  0.10000000000E+01 0.  0.
    9000001   -1    0    0    0    0 -0.00000000000E+00 -0.00000000000E+00 -0.64999999231E+04  0.65000000000E+04  0.10000000000E+01 0.  0.
    9000001    1    1    2    0    0  0.48144241322E+04 -0.34853341784E+04  0.26313047981E+04  0.65000000000E+04  0.10000000000E+01 0.  0.
    9000001    1    1    2    0    0 -0.48144241322E+04  0.34853341784E+04 -0.26313047981E+04  0.65000000000E+04  0.10000000000E+01 0.  0.
</event>
<event>
 4    1  0.2193160E-006  0.1300000E+05  0.7957747E-01  0.1322471E+00
    9000001   -1    0    0    0    0  0.00000000000E+00  0.00000000000E+00  0.64999999231E+04  0.65000000000E+04  0.10000000000E+01 0.  0.
    9000001   -1    0    0    0    0 -0.00000000000E+00 -0.00000000000E+00 -0.64999999231E+04  0.65000000000E+04  0.10000000000E+01 0.  0.
    9000001    1    1    2    0    0 -0.52528776916E+04  0.30282882210E+04 -0.23423802866E+04  0.65000000000E+04  0.10000000000E+01 0.  0.
    9000001    1    1    2    0    0  0.52528776916E+04 -0.30282882210E+04  0.23423802866E+04  0.65000000000E+04  0.10000000000E+01 0.  0.
</event>
<event>
 4    1  0.2193160E-006  0.1300000E+05  0.7957747E-01  0.1322471E+00
    9000001   -1    0    0    0    0  0.00000000000E+00  0.00000000000E+00  0.64999999231E+04  0.65000000000E+04  0.10000000000E+01 0.  0.
    9000001   -1    0    0    0    0 -0.00000000000E+00 -0.00000000000E+00 -0.64999999231E+04  0.65000000000E+04  0.10000000000E+01 0.  0.
    9000001    1    1    2    0    0 -0.52002269291E+02  0.38095617305E+04 -0.52663587217E+04  0.65000000000E+04  0.10000000000E+01 0.  0.
    9000001    1    1    2    0    0  0.52002269291E+02 -0.38095617305E+04  0.52663587217E+04  0.65000000000E+04  0.10000000000E+01 0.  0.
</event>
<event>
 4    1  0.2193160E-006  0.1300000E+05  0.7957747E-01  0.1322471E+00
    9000001   -1    0    0    0    0  0.00000000000E+00  0.00000000000E+00  0.64999999231E+04  0.65000000000E+04  0.10000000000E+01 0.  0.
    9000001   -1    0    0    0    0 -0.00000000000E+00 -0.00000000000E+00 -0.64999999231E+04  0.65000000000E+04  0.10000000000E+01 0.  0.
    9000001    1    1    2    0    0 -0.61490897217E+04 -0.10426298153E+04 -0.18307423804E+04  0.65000000000E+04  0.10000000000E+01 0.  0.
    9000001    1    1    2    0    0  0.61490897217E+04  0.10426298153E+04  0.18307423804E+04  0.65000000000E+04  0.10000000000E+01 0.  0.
</event>
<event>
 4    1  0.2193160E-006  0.1300000E+05  0.7957747E-01  0.1322471E+00
    9000001   -1    0    0    0    0  0.00000000000E+00  0.00000000000E+00  0.64999999231E+04  0.65000000000E+04  0.10000000000E+01 0.  0.
    9000001   -1    0    0    0    0 -0.00000000000E+00 -0.00000000000E+00 -0.64999999231E+04  0.65000000000E+04  0.10000000000E+01 0.  0.
    9000001    1    1    2    0    0  0.20617825358E+04 -0.15877350896E+04  0.59563536715E+04  0.65000000000E+04  0.10000000000E+01 0.  0.
    9000001    1    1    2    0    0 -0.20617825358E+04  0.15877350896E+04 -0.59563536715E+04  0.65000000000E+04  0.10000000000E+01 0.  0.
</event>
<event>
 4    1  0.2193160E-006  0.1300000E+05  0.7957747E-01  0.1322471E+00
    9000001   -1    0    0    0    0  0.00000000000E+00  0.00000000000E+00  0.64999999231E+04  0.65000000000E+04  0.10000000000E+01 0.  0.
    9000001   -1    0    0    0    0 -0.00000000000E+00 -0.00000000000E+00 -0.64999999231E+04  0.65000000000E+04  0.10000000000E+01 0.  0.
    9000001    1    1    2    0    0 -0.16902269845E+04 -0.55855409498E+04 -0.28626672946E+04  0.65000000000E+04  0.10000000000E+01 0.  0.
    9000001    1    1    2    0    0  0.16902269845E+04  0.55855409498E+04  0.28626672946E+04  0.65000000000E+04  0.10000000000E+01 0.  0.
</event>
<event>
 4    1  0.2193160E-006  0.1300000E+05  0.7957747E-01  0.1322471E+00
    9000001   -1    0    0    0    0  0.00000000000E+00  0.00000000000E+00  0.64999999231E+04  0.65000000000E+04  0.10000000000E+01 0.  0.
    9000001   -1    0    0    0    0 -0.00000000000E+00 -0.00000000000E+00 -0.64999999231E+04  0.65000000000E+04  0.10000000000E+01 0.  0.
    9000001    1    1    2    0    0 -0.44107452441E+04 -0.23472840132E+04 -0.41575934328E+04  0.65000000000E+04  0.10000000000E+01 0.  0.
    9000001    1    1    2    0    0  0.44107452441E+04  0.23472840132E+04  0.41575934328E+04  0.65000000000E+04  0.10000000000E+01 0.  0.
</event>
<event>
 4    1  0.2193160E-006  0.1300000E+05  0.7957747E-01  0.1322471E+00
    9000001   -1    0    0    0    0  0.00000000000E+00  0.00000000000E+00  0.64999999231E+04  0.65000000000E+04  0.10000000000E+01 0.  0.
    9000001   -1    0    0    0    0 -0.00000000000E+00 -0.00000000000E+00 -0.64999999231E+04  0.65000000000E+04  0.10000000000E+01 0.  0.
    9000001    1    1    2    0    0  0.10116112099E+04  0.21801475814E+04 -0.60393375699E+04  0.65000000000E+04  0.10000000000E+01 0.  0.
    9000001    1    1    2    0    0 -0.10116112099E+04 -0.21801475814E+04  0.60393375699E+04  0.65000000000E+04  0.10000000000E+01 0.  0.
</event>
<event>
 4    1  0.2193160E-006  0.1300000E+05  0.7957747E-01  0.1322471E+00
    9000001   -1    0    0    0    0  0.00000000000E+00  0.00000000000E+00  0.64999999231E+04  0.65000000000E+04  0.10000000000E+01 0.  0.
    9000001   -1    0    0    0    0 -0.00000000000E+00 -0.00000000000E+00 -0.64999999231E+04  0.65000000000E+04  0.10000000000E+01 0.  0.
    9000001    1    1    2    0    0 -0.54289020157E+04  0.91894151165E+03 -0.34543549908E+04  0.65000000000E+04  0.10000000000E+01 0.  0.
    9000001    1    1    2    0    0  0.54289020157E+04 -0.91894151165E+03  0.34543549908E+04  0.65000000000E+04  0.10000000000E+01 0.  0.
</event>
<event>
 4    1  0.2193160E-006  0.1300000E+05  0.7957747E-01  0.1322471E+00
    9000001   -1    0    0    0    0  0.00000000000E+00  0.00000000000E+00  0.64999999231E+04  0.65000000000E+04  0.10000000000E+01 0.  0.
    9000001   -1    0    0    0    0 -0.00000000000E+00 -0.00000000000E+00 -0.64999999231E+04  0.65000000000E+04  0.10000000000E+01 0.  0.
    9000001    1    1    2    0    0  0.61063477337E+04 -0.10595304659E+04 -0.19595692250E+04  0.65000000000E+04  0.10000000000E+01 0.  0.
    9000001    1    1    2    0    0 -0.61063477337E+04  0.10595304659E+04  0.19595692250E+04  0.65000000000E+04  0.10000000000E+01 0.  0.
</event>
<event>
 4    1  0.2193160E-006  0.1300000E+05  0.7957747E-01  0.1322471E+00
    9000001   -1    0    0    0    0  0.00000000000E+00  0.00000000000E+00  0.64999999231E+04  0.65000000000E+04  0.10000000000E+01 0.  0.
    9000001   -1    0    0    0    0 -0.00000000000E+00 -0.00000000000E+00 -0.64999999231E+04  0.65000000000E+04  0.10000000000E+01 0.  0.
    9000001    1    1    2    0    0 -0.49192354288E+04  0.41757474375E+04 -0.78374430378E+03  0.65000000000E+04  0.10000000000E+01 0.  0.
    9000001    1    1    2    0    0  0.49192354288E+04 -0.41757474375E+04  0.78374430378E+03  0.65000000000E+04  0.10000000000E+01 0.  0.
</event>
<event>
 4    1  0.2193160E-006  0.1300000E+05  0.7957747E-01  0.1322471E+00
    9000001   -1    0    0    0    0  0.00000000000E+00  0.00000000000E+00  0.64999999231E+04  0.65000000000E+04  0.10000000000E+01 0.  0.
    9000001   -1    0    0    0    0 -0.00000000000E+00 -0.00000000000E+00 -0.64999999231E+04  0.65000000000E+04  0.10000000000E+01 0.  0.
    9000001    1    1    2    0    0 -0.82165081524E+03  0.32706821312E+03 -0.64395586279E+04  0.65000000000E+04  0.10000000000E+01 0.  0.
    9000001    1    1    2    0    0  0.82165081524E+03 -0.32706821312E+03  0.64395586279E+04  0.65000000000E+04  0.10000000000E+01 0.  0.
</event>
<event>
 4    1  0.2193160E-006  0.1300000E+05  0.7957747E-01  0.1322471E+00
    9000001   -1    0    0    0    0  0.00000000000E+00  0.00000000000E+00  0.64999999231E+04  0.65000000000E+04  0.10000000000E+01 0.  0.
    9000001   -1    0    0    0    0 -0.00000000000E+00 -0.00000000000E+00 -0.64999999231E+04  0.65000000000E+04  0.10000000000E+01 0.  0.
    9000001    1    1    2    0    0  0.86009078291E+03 -0.30881368508E+04 -0.56545250584E+04  0.65000000000E+04  0.10000000000E+01 0.  0.
    9000001    1    1    2    0    0 -0.86009078291E+03  0.30881368508E+04  0.56545250584E+04  0.65000000000E+04  0.10000000000E+01 0.  0.
</event>
<event>
 4    1  0.2193160E-006  0.1300000E+05  0.7957747E-01  0.1322471E+00
    9000001   -1    0    0    0    0  0.00000000000E+00  0.00000000000E+00  0.64999999231E+04  0.65000000000E+04  0.10000000000E+01 0.  0.
    9000001   -1    0    0    0    0 -0.00000000000E+00 -0.00000000000E+00 -0.64999999231E+04  0.65000000000E+04  0.10000000000E+01 0.  0.
    9000001    1    1    2    0    0  0.39730201513E+04 -0.48023616826E+04 -0.18445682819E+04  0.65000000000E+04  0.10000000000E+01 0.  0.
    9000001    1    1    2    0    0 -0.39730201513E+04  0.48023616826E+04  0.18445682819E+04  0.65000000000E+04  0.10000000000E+01 0.  0.
</event>
<event>
 4    1  0.2193160E-006  0.1300000E+05  0.7957747E-01  0.1322471E+00
    9000001   -1    0    0    0    0  0.00000000000E+00  0.00000000000E+00  0.64999999231E+04  0.65000000000E+04  0.10000000000E+01 0.  0.
    9000001   -1    0    0    0    0 -0.00000000000E+00 -0.00000000000E+00 -0.64999999231E+04  0.65000000000E+04  0.10000000000E+01 0.  0.
    9000001    1    1    2    0    0 -0.20829206541E+04  0.59315783684E+04  0.16516109131E+04  0.65000000000E+04  0.10000000000E+01 0.  0.
    9000001    1    1    2    0    0  0.20829206541E+04 -0.59315783684E+04 -0.16516109131E+04  0.65000000000E+04  0.10000000000E+01 0.  0.
</event>
<event>
 4    1  0.2193160E-006  0.1300000E+05  0.7957747E-01  0.1322471E+00
    9000001   -1    0    0    0    0  0.00000000000E+00  0.00000000000E+00  0.64999999231E+04  0.65000000000E+04  0.10000000000E+01 0.  0.
    9000001   -1    0    0    0    0 -0.00000000000E+00 -0.00000000000E+00 -0.64999999231E+04  0.65000000000E+04  0.10000000000E+01 0.  0.
    9000001    1    1    2    0    0  0.23822049268E+04 -0.48607723901E+04  0.35983316215E+04  0.65000000000E+04  0.10000000000E+01 0.  0.
    9000001    1    1    2    0    0 -0.23822049268E+04  0.48607723901E+04 -0.35983316215E+04  0.65000000000E+04  0.10000000000E+01 0.  0.
</event>
<event>
 4    1  0.2193160E-006  0.1300000E+05  0.7957747E-01  0.1322471E+00
    9000001   -1    0    0    0    0  0.00000000000E+00  0.00000000000E+00  0.64999999231E+04  0.65000000000E+04  0.10000000000E+01 0.  0.
    9000001   -1    0    0    0    0 -0.00000000000E+00 -0.00000000000E+00 -0.64999999231E+04  0.65000000000E+04  0.10000000000E+01 0.  0.
    9000001    1    1    2    0    0 -0.35017802514E+04  0.54382950802E+04  0.64224659657E+03  0.65000000000E+04  0.10000000000E+01 0.  0.
    9000001    1    1    2    0    0  0.35017802514E+04 -0.54382950802E+04 -0.64224659657E+03  0.65000000000E+04  0.10000000000E+01 0.  0.
</event>
<event>
 4    1  0.2193160E-006  0.1300000E+05  0.7957747E-01  0.1322471E+00
    9000001   -1    0    0    0    0  0.00000000000E+00  0.00000000000E+00  0.64999999231E+04  0.65000000000E+04  0.10000000000E+01 0.  0.
    9000001   -1    0    0    0    0 -0.00000000000E+00 -0.00000000000E+00 -0.64999999231E+04  0.65000000000E+04  0.10000000000E+01 0.  0.
    9000001    1    1    2    0    0  0.26689444559E+04 -0.52053433226E+04 -0.28339257904E+04  0.65000000000E+04  0.10000000000E+01 0.  0.
    9000001    1    1    2    0    0 -0.26689444559E+04  0.52053433226E+04  0.28339257904E+04  0.65000000000E+04  0.10000000000E+01 0.  0.
</event>
<event>
 4    1  0.2193160E-006  0.1300000E+05  0.7957747E-01  0.1322471E+00
    9000001   -1    0    0    0    0  0.00000000000E+00  0.00000000000E+00  0.64999999231E+04  0.65000000000E+04  0.10000000000E+01 0.  0.
    9000001   -1    0    0    0    0 -0.00000000000E+00 -0.00000000000E+00 -0.64999999231E+04  0.65000000000E+04  0.10000000000E+01 0.  0.
    9000001    1    1    2    0    0  0.11192706244E+04  0.49883191740E+04  0.40142127607E+04  0.65000000000E+04  0.10000000000E+01 0.  0.
    9000001    1    1    2    0    0 -0.11192706244E+04 -0.49883191740E+04 -0.40142127607E+04  0.65000000000E+04  0.10000000000E+01 0.  0.
</event>
<event>
 4    1  0.2193160E-006  0.1300000E+05  0.7957747E-01  0.1322471E+00
    9000001   -1    0    0    0    0  0.00000000000E+00  0.00000000000E+00  0.64999999231E+04  0.65000000000E+04  0.10000000000E+01 0.  0.
    9000001   -1    0    0    0    0 -0.00000000000E+00 -0.00000000000E+00 -0.64999999231E+04  0.65000000000E+04  0.10000000000E+01 0.  0.
    9000001    1    1    2    0    0 -0.18177245637E+04  0.55834617616E+04  0.27876210588E+04  0.65000000000E+04  0.10000000000E+01 0.  0.
    9000001    1    1    2    0    0  0.18177245637E+04 -0.55834617616E+04 -0.27876210588E+04  0.65000000000E+04  0.10000000000E+01 0.  0.
</event>
<event>
 4    1  0.2193160E-006  0.1300000E+05  0.7957747E-01  0.1322471E+00
    9000001   -1    0    0    0    0  0.00000000000E+00  0.00000000000E+00  0.64999999231E+04  0.65000000000E+04  0.10000000000E+01 0.  0.
    9000001   -1    0    0    0    0 -0.00000000000E+00 -0.00000000000E+00 -0.64999999231E+04  0.65000000000E+04  0.10000000000E+01 0.  0.
    9000001    1    1    2    0    0  0.32566593892E+04 -0.47875943127E+04 -0.29534910394E+04  0.65000000000E+04  0.10000000000E+01 0.  0.
    9000001    1    1    2    0    0 -0.32566593892E+04  0.47875943127E+04  0.29534910394E+04  0.65000000000E+04  0.10000000000E+01 0.  0.
</event>
<event>
 4    1  0.2193160E-006  0.1300000E+05  0.7957747E-01  0.1322471E+00
    9000001   -1    0    0    0    0  0.00000000000E+00  0.00000000000E+00  0.64999999231E+04  0.65000000000E+04  0.10000000000E+01 0.  0.
    9000001   -1    0    0    0    0 -0.00000000000E+00 -0.00000000000E+00 -0.64999999231E+04  0.65000000000E+04  0.10000000000E+01 0.  0.
    9000001    1    1    2    0    0  0.32083474946E+04 -0.52125825494E+04 -0.21875759461E+04  0.65000000000E+04  0.10000000000E+01 0.  0.
    9000001    1    1    2    0    0 -0.32083474946E+04  0.52125825494E+04  0.21875759461E+04  0.65000000000E+04  0.10000000000E+01 0.  0.
</event>
<event>
 4    1  0.2193160E-006  0.1300000E+05  0.7957747E-01  0.1322471E+00
    9000001   -1    0    0    0    0  0.00000000000E+00  0.00000000000E+00  0.64999999231E+04  0.65000000000E+04  0.10000000000E+01 0.  0.
    9000001   -1    0    0    0    0 -0.00000000000E+00 -0.00000000000E+00 -0.64999999231E+04  0.65000000000E+04  0.10000000000E+01 0.  0.
    9000001    1    1    2    0    0 -0.45211203913E+04  0.28510212781E+04 -0.36988034659E+04  0.65000000000E+04  0.10000000000E+01 0.  0.
    9000001    1    1    2    0    0  0.45211203913E+04 -0.28510212781E+04  0.36988034659E+04  0.65000000000E+04  0.10000000000E+01 0.  0.
</event>
<event>
 4    1  0.2193160E-006  0.1300000E+05  0.7957747E-01  0.1322471E+00
    9000001   -1    0    0    0    0  0.00000000000E+00  0.00000000000E+00  0.64999999231E+04  0.65000000000E+04  0.10000000000E+01 0.  0.
    9000001   -1    0    0    0    0 -0.00000000000E+00 -0.00000000000E+00 -0.64999999231E+04  0.65000000000E+04  0.10000000000E+01 0.  0.
    9000001    1    1    2    0    0  0.35146609163E+04 -0.50019692177E+04 -0.22084975862E+04  0.65000000000E+04  0.10000000000E+01 0.  0.
    9000001    1    1    2    0    0 -0.35146609163E+04  0.50019692177E+04  0.22084975862E+04  0.65000000000E+04  0.10000000000E+01 0.  0.
</event>
<event>
 4    1  0.2193160E-006  0.1300000E+05  0.7957747E-01  0.1322471E+00
    9000001   -1    0    0    0    0  0.00000000000E+00  0.00000000000E+00  0.64999999231E+04  0.65000000000E+04  0.10000000000E+01 0.  0.
    9000001   -1    0    0    0    0 -0.00000000000E+00 -0.00000000000E+00 -0.64999999231E+04  0.65000000000E+04  0.10000000000E+01 0.  0.
    9000001    1    1    2    0    0  0.29412010343E+04  0.23953896675E+04  0.52783940566E+04  0.65000000000E+04  0.10000000000E+01 0.  0.
    9000001    1    1    2    0    0 -0.29412010343E+04 -0.23953896675E+04 -0.52783940566E+04  0.65000000000E+04  0.10000000000E+01 0.  0.
</event>
<event>
 4    1  0.2193160E-006  0.1300000E+05  0.7957747E-01  0.1322471E+00
    9000001   -1    0    0    0    0  0.00000000000E+00  0.00000000000E+00  0.64999999231E+04  0.65000000000E+04  0.10000000000E+01 0.  0.
    9000001   -1    0    0    0    0 -0.00000000000E+00 -0.00000000000E+00 -0.64999999231E+04  0.65000000000E+04  0.10000000000E+01 0.  0.
    9000001    1    1    2    0    0 -0.42785147229E+04 -0.14869637033E+04  0.46618933612E+04  0.65000000000E+04  0.10000000000E+01 0.  0.
    9000001    1    1    2    0    0  0.42785147229E+04  0.14869637033E+04 -0.46618933612E+04  0.65000000000E+04  0.10000000000E+01 0.  0.
</event>
<event>
 4    1  0.2193160E-006  0.1300000E+05  0.7957747E-01  0.1322471E+00
    9000001   -1    0    0    0    0  0.00000000000E+00  0.00000000000E+00  0.64999999231E+04  0.65000000000E+04  0.10000000000E+01 0.  0.
    9000001   -1    0    0    0    0 -0.00000000000E+00 -0.00000000000E+00 -0.64999999231E+04  0.65000000000E+04  0.10000000000E+01 0.  0.
    9000001    1    1    2    0    0 -0.29794742647E+04  0.56569468762E+04  0.11711892016E+04  0.65000000000E+04  0.10000000000E+01 0.  0.
    9000001    1    1    2    0    0  0.29794742647E+04 -0.56569468762E+04 -0.11711892016E+04  0.65000000000E+04  0.10000000000E+01 0.  0.
</event>
<event>
 4    1  0.2193160E-006  0.1300000E+05  0.7957747E-01  0.1322471E+00
    9000001   -1    0    0    0    0  0.00000000000E+00  0.00000000000E+00  0.64999999231E+04  0.65000000000E+04  0.10000000000E+01 0.  0.
    9000001   -1    0    0    0    0 -0.00000000000E+00 -0.00000000000E+00 -0.64999999231E+04  0.65000000000E+04  0.10000000000E+01 0.  0.
    9000001    1    1    2    0    0 -0.64380925900E+04 -0.82300590074E+03 -0.35160217506E+03  0.65000000000E+04  0.10000000000E+01 0.  0.
    9000001    1    1    2    0    0  0.64380925900E+04  0.82300590074E+03  0.35160217506E+03  0.65000000000E+04  0.10000000000E+01 0.  0.
</event>
<event>
 4    1  0.2193160E-006  0.1300000E+05  0.7957747E-01  0.1322471E+00
    9000001   -1    0    0    0    0  0.00000000000E+00  0.00000000000E+00  0.64999999231E+04  0.65000000000E+04  0.10000000000E+01 0.  0.
    9000001   -1    0    0    0    0 -0.00000000000E+00 -0.00000000000E+00 -0.64999999231E+04  0.65000000000E+04  0.10000000000E+01 0.  0.
    9000001    1    1    2    0    0 -0.41909395704E+04  0.29981494331E+04 -0.39619596785E+04  0.65000000000E+04  0.10000000000E+01 0.  0.
    9000001    1    1    2    0    0  0.41909395704E+04 -0.29981494331E+04  0.39619596785E+04  0.65000000000E+04  0.10000000000E+01 0.  0.
</event>
<event>
 4    1  0.2193160E-006  0.1300000E+05  0.7957747E-01  0.1322471E+00
    9000001   -1    0    0    0    0  0.00000000000E+00  0.00000000000E+00  0.64999999231E+04  0.65000000000E+04  0.10000000000E+01 0.  0.
    9000001   -1    0    0    0    0 -0.00000000000E+00 -0.00000000000E+00 -0.64999999231E+04  0.65000000000E+04  0.10000000000E+01 0.  0.
    9000001    1    1    2    0    0 -0.37685281723E+04  0.26919365759E+04 -0.45608849893E+04  0.65000000000E+04  0.10000000000E+01 0.  0.
    9000001    1    1    2    0    0  0.37685281723E+04 -0.26919365759E+04  0.45608849893E+04  0.65000000000E+04  0.10000000000E+01 0.  0.
</event>
<event>
 4    1  0.2193160E-006  0.1300000E+05  0.7957747E-01  0.1322471E+00
    9000001   -1    0    0    0    0  0.00000000000E+00  0.00000000000E+00  0.64999999231E+04  0.65000000000E+04  0.10000000000E+01 0.  0.
    9000001   -1    0    0    0    0 -0.00000000000E+00 -0.00000000000E+00 -0.64999999231E+04  0.65000000000E+04  0.10000000000E+01 0.  0.
    9000001    1    1    2    0    0 -0.13386433449E+04 -0.63516332174E+04  0.33880446641E+03  0.65000000000E+04  0.10000000000E+01 0.  0.
    9000001    1    1    2    0    0  0.13386433449E+04  0.63516332174E+04 -0.33880446641E+03  0.65000000000E+04  0.10000000000E+01 0.  0.
</event>
<event>
 4    1  0.2193160E-006  0.1300000E+05  0.7957747E-01  0.1322471E+00
    9000001   -1    0    0    0    0  0.00000000000E+00  0.00000000000E+00  0.64999999231E+04  0.65000000000E+04  0.10000000000E+01 0.  0.
    9000001   -1    0    0    0    0 -0.00000000000E+00 -0.00000000000E+00 -0.64999999231E+04  0.65000000000E+04  0.10000000000E+01 0.  0.
    9000001    1    1    2    0    0 -0.15181598540E+03 -0.71573595984E+03  0.64586897233E+04  0.65000000000E+04  0.10000000000E+01 0.  0.
    9000001    1    1    2    0    0  0.15181598540E+03  0.71573595984E+03 -0.64586897233E+04  0.65000000000E+04  0.10000000000E+01 0.  0.
</event>
<event>
 4    1  0.2193160E-006  0.1300000E+05  0.7957747E-01  0.1322471E+00
    9000001   -1    0    0    0    0  0.00000000000E+00  0.00000000000E+00  0.64999999231E+04  0.65000000000E+04  0.10000000000E+01 0.  0.
    9000001   -1    0    0    0    0 -0.00000000000E+00 -0.00000000000E+00 -0.64999999231E+04  0.65000000000E+04  0.10000000000E+01 0.  0.
    9000001    1    1    2    0    0 -0.64864820391E+04  0.39747546049E+03 -0.13252552515E+03  0.65000000000E+04  0.10000000000E+01 0.  0.
    9000001    1    1    2    0    0  0.64864820391E+04 -0.39747546049E+03  0.13252552515E+03  0.65000000000E+04  0.10000000000E+01 0.  0.
</event>
<event>
 4    1  0.2193160E-006  0.1300000E+05  0.7957747E-01  0.1322471E+00
    9000001   -1    0    0    0    0  0.00000000000E+00  0.00000000000E+00  0.64999999231E+04  0.65000000000E+04  0.10000000000E+01 0.  0.
    9000001   -1    0    0    0    0 -0.00000000000E+00 -0.00000000000E+00 -0.64999999231E+04  0.65000000000E+04  0.10000000000E+01 0.  0.
    9000001    1    1    2    0    0 -0.97455080488E+03  0.83715365208E+03 -0.63717676897E+04  0.65000000000E+04  0.10000000000E+01 0.  0.
    9000001    1    1    2    0    0  0.97455080488E+03 -0.83715365208E+03  0.63717676897E+04  0.65000000000E+04  0.10000000000E+01 0.  0.
</event>
<event>
 4    1  0.2193160E-006  0.1300000E+05  0.7957747E-01  0.1322471E+00
    9000001   -1    0    0    0    0  0.00000000000E+00  0.00000000000E+00  0.64999999231E+04  0.65000000000E+04  0.10000000000E+01 0.  0.
    9000001   -1    0    0    0    0 -0.00000000000E+00 -0.00000000000E+00 -0.64999999231E+04  0.65000000000E+04  0.10000000000E+01 0.  0.
    9000001    1    1    2    0    0  0.28073361634E+04 -0.46745583717E+04 -0.35379890751E+04  0.65000000000E+04  0.10000000000E+01 0.  0.
    9000001    1    1    2    0    0 -0.28073361634E+04  0.46745583717E+04  0.35379890751E+04  0.65000000000E+04  0.10000000000E+01 0.  0.
</event>
<event>
 4    1  0.2193160E-006  0.1300000E+05  0.7957747E-01  0.1322471E+00
    9000001   -1    0    0    0    0  0.00000000000E+00  0.00000000000E+00  0.64999999231E+04  0.65000000000E+04  0.10000000000E+01 0.  0.
    9000001   -1    0    0    0    0 -0.00000000000E+00 -0.00000000000E+00 -0.64999999231E+04  0.65000000000E+04  0.10000000000E+01 0.  0.
    9000001    1    1    2    0    0 -0.59177382216E+04 -0.15327055178E+04 -0.22093408829E+04  0.65000000000E+04  0.10000000000E+01 0.  0.
    9000001    1    1    2    0    0  0.59177382216E+04  0.15327055178E+04  0.22093408829E+04  0.65000000000E+04  0.10000000000E+01 0.  0.
</event>
<event>
 4    1  0.2193160E-006  0.1300000E+05  0.7957747E-01  0.1322471E+00
    9000001   -1    0    0    0    0  0.00000000000E+00  0.00000000000E+00  0.64999999231E+04  0.65000000000E+04  0.10000000000E+01 0.  0.
    9000001   -1    0    0    0    0 -0.00000000000E+00 -0.00000000000E+00 -0.64999999231E+04  0.65000000000E+04  0.10000000000E+01 0.  0.
    9000001    1    1    2    0    0  0.27035666346E+04 -0.59092094938E+04  0.14822149467E+03  0.65000000000E+04  0.10000000000E+01 0.  0.
    9000001    1    1    2    0    0 -0.27035666346E+04  0.59092094938E+04 -0.14822149467E+03  0.65000000000E+04  0.10000000000E+01 0.  0.
</event>
<event>
 4    1  0.2193160E-006  0.1300000E+05  0.7957747E-01  0.1322471E+00
    9000001   -1    0    0    0    0  0.00000000000E+00  0.00000000000E+00  0.64999999231E+04  0.65000000000E+04  0.10000000000E+01 0.  0.
    9000001   -1    0    0    0    0 -0.00000000000E+00 -0.00000000000E+00 -0.64999999231E+04  0.65000000000E+04  0.10000000000E+01 0.  0.
    9000001    1    1    2    0    0 -0.48147490200E+04 -0.26694129886E+04  0.34557814125E+04  0.65000000000E+04  0.10000000000E+01 0.  0.
    9000001    1    1    2    0    0  0.48147490200E+04  0.26694129886E+04 -0.34557814125E+04  0.65000000000E+04  0.10000000000E+01 0.  0.
</event>
<event>
 4    1  0.2193160E-006  0.1300000E+05  0.7957747E-01  0.1322471E+00
    9000001   -1    0    0    0    0  0.00000000000E+00  0.00000000000E+00  0.64999999231E+04  0.65000000000E+04  0.10000000000E+01 0.  0.
    9000001   -1    0    0    0    0 -0.00000000000E+00 -0.00000000000E+00 -0.64999999231E+04  0.65000000000E+04  0.10000000000E+01 0.  0.
    9000001    1    1    2    0    0  0.38761868462E+04  0.45056286907E+04 -0.26314415507E+04  0.65000000000E+04  0.10000000000E+01 0.  0.
    9000001    1    1    2    0    0 -0.38761868462E+04 -0.45056286907E+04  0.26314415507E+04  0.65000000000E+04  0.10000000000E+01 0.  0.
</event>
<event>
 4    1  0.2193160E-006  0.1300000E+05  0.7957747E-01  0.1322471E+00
    9000001   -1    0    0    0    0  0.00000000000E+00  0.00000000000E+00  0.64999999231E+04  0.65000000000E+04  0.10000000000E+01 0.  0.
    9000001   -1    0    0    0    0 -0.00000000000E+00 -0.00000000000E+00 -0.64999999231E+04  0.65000000000E+04  0.10000000000E+01 0.  0.
    9000001    1    1    2    0    0 -0.47308106438E+04 -0.43038692301E+04 -0.11602324348E+04  0.65000000000E+04  0.10000000000E+01 0.  0.
    9000001    1    1    2    0    0  0.47308106438E+04  0.43038692301E+04  0.11602324348E+04  0.65000000000E+04  0.10000000000E+01 0.  0.
</event>
<event>
 4    1  0.2193160E-006  0.1300000E+05  0.7957747E-01  0.1322471E+00
    9000001   -1    0    0    0    0  0.00000000000E+00  0.00000000000E+00  0.64999999231E+04  0.65000000000E+04  0.10000000000E+01 0.  0.
    9000001   -1    0    0    0    0 -0.00000000000E+00 -0.00000000000E+00 -0.64999999231E+04  0.65000000000E+04  0.10000000000E+01 0.  0.
    9000001    1    1    2    0    0  0.62931191317E+04  0.11956513246E+04 -0.11032082776E+04  0.65000000000E+04  0.10000000000E+01 0.  0.
    9000001    1    1    2    0    0 -0.62931191317E+04 -0.11956513246E+04  0.11032082776E+04  0.65000000000E+04  0.10000000000E+01 0.  0.
</event>
<event>
 4    1  0.2193160E-006  0.1300000E+05  0.7957747E-01  0.1322471E+00
    9000001   -1    0    0    0    0  0.00000000000E+00  0.00000000000E+00  0.64999999231E+04  0.65000000000E+04  0.10000000000E+01 0.  0.
    9000001   -1    0    0    0    0 -0.00000000000E+00 -0.00000000000E+00 -0.64999999231E+04  0.65000000000E+04  0.10000000000E+01 0.  0.
    9000001    1    1    2    0    0 -0.42905732594E+04  0.11392792885E+04 -0.47479493267E+04  0.65000000000E+04  0.10000000000E+01 0.  0.
    9000001    1    1    2    0    0  0.42905732594E+04 -0.11392792885E+04  0.47479493267E+04  0.65000000000E+04  0.10000000000E+01 0.  0.
</event>
<event>
 4    1  0.2193160E-006  0.1300000E+05  0.7957747E-01  0.1322471E+00
    9000001   -1    0    0    0    0  0.00000000000E+00  0.00000000000E+00  0.64999999231E+04  0.65000000000E+04  0.10000000000E+01 0.  0.
    9000001   -1    0    0    0    0 -0.00000000000E+00 -0.00000000000E+00 -0.64999999231E+04  0.65000000000E+04  0.10000000000E+01 0.  0.
    9000001    1    1    2    0    0  0.16346119534E+04 -0.62377769886E+04  0.81742339211E+03  0.65000000000E+04  0.10000000000E+01 0.  0.
    9000001    1    1    2    0    0 -0.16346119534E+04  0.62377769886E+04 -0.81742339211E+03  0.65000000000E+04  0.10000000000E+01 0.  0.
</event>
<event>
 4    1  0.2193160E-006  0.1300000E+05  0.7957747E-01  0.1322471E+00
    9000001   -1    0    0    0    0  0.00000000000E+00  0.00000000000E+00  0.64999999231E+04  0.65000000000E+04  0.10000000000E+01 0.  0.
    9000001   -1    0    0    0    0 -0.00000000000E+00 -0.00000000000E+00 -0.64999999231E+04  0.65000000000E+04  0.10000000000E+01 0.  0.
    9000001    1    1    2    0    0 -0.53584841635E+04  0.65734065254E+03 -0.36200206817E+04  0.65000000000E+04  0.10000000000E+01 0.  0.
    9000001    1    1    2    0    0  0.53584841635E+04 -0.65734065254E+03  0.36200206817E+04  0.65000000000E+04  0.10000000000E+01 0.  0.
</event>
<event>
 4    1  0.2193160E-006  0.1300000E+05  0.7957747E-01  0.1322471E+00
    9000001   -1    0    0    0    0  0.00000000000E+00  0.00000000000E+00  0.64999999231E+04  0.65000000000E+04  0.10000000000E+01 0.  0.
    9000001   -1    0    0    0    0 -0.00000000000E+00 -0.00000000000E+00 -0.64999999231E+04  0.65000000000E+04  0.10000000000E+01 0.  0.
    9000001    1    1    2    0    0 -0.30617324080E+04 -0.49448352357E+04  0.29024813787E+04  0.65000000000E+04  0.10000000000E+01 0.  0.
    9000001    1    1    2    0    0  0.30617324080E+04  0.49448352357E+04 -0.29024813787E+04  0.65000000000E+04  0.10000000000E+01 0.  0.
</event>
<event>
 4    1  0.2193160E-006  0.1300000E+05  0.7957747E-01  0.1322471E+00
    9000001   -1    0    0    0    0  0.00000000000E+00  0.00000000000E+00  0.64999999231E+04  0.65000000000E+04  0.10000000000E+01 0.  0.
    9000001   -1    0    0    0    0 -0.00000000000E+00 -0.00000000000E+00 -0.64999999231E+04  0.65000000000E+04  0.10000000000E+01 0.  0.
    9000001    1    1    2    0    0  0.61302603847E+04 -0.10701413387E+04  0.18774195405E+04  0.65000000000E+04  0.10000000000E+01 0.  0.
    9000001    1    1    2    0    0 -0.61302603847E+04  0.10701413387E+04 -0.18774195405E+04  0.65000000000E+04  0.10000000000E+01 0.  0.
</event>
<event>
 4    1  0.2193160E-006  0.1300000E+05  0.7957747E-01  0.1322471E+00
    9000001   -1    0    0    0    0  0.00000000000E+00  0.00000000000E+00  0.64999999231E+04  0.65000000000E+04  0.10000000000E+01 0.  0.
    9000001   -1    0    0    0    0 -0.00000000000E+00 -0.00000000000E+00 -0.64999999231E+04  0.65000000000E+04  0.10000000000E+01 0.  0.
    9000001    1    1    2    0    0 -0.11596256008E+04 -0.60091684015E+04  0.21897859686E+04  0.65000000000E+04  0.10000000000E+01 0.  0.
    9000001    1    1    2    0    0  0.11596256008E+04  0.60091684015E+04 -0.21897859686E+04  0.65000000000E+04  0.10000000000E+01 0.  0.
</event>
<event>
 4    1  0.2193160E-006  0.1300000E+05  0.7957747E-01  0.1322471E+00
    9000001   -1    0    0    0    0  0.00000000000E+00  0.00000000000E+00  0.64999999231E+04  0.65000000000E+04  0.10000000000E+01 0.  0.
    9000001   -1    0    0    0    0 -0.00000000000E+00 -0.00000000000E+00 -0.64999999231E+04  0.65000000000E+04  0.10000000000E+01 0.  0.
    9000001    1    1    2    0    0  0.27577048294E+04  0.58855769698E+04 -0.71040880747E+02  0.65000000000E+04  0.10000000000E+01 0.  0.
    9000001    1    1    2    0    0 -0.27577048294E+04 -0.58855769698E+04  0.71040880747E+02  0.65000000000E+04  0.10000000000E+01 0.  0.
</event>
<event>
 4    1  0.2193160E-006  0.1300000E+05  0.7957747E-01  0.1322471E+00
    9000001   -1    0    0    0    0  0.00000000000E+00  0.00000000000E+00  0.64999999231E+04  0.65000000000E+04  0.10000000000E+01 0.  0.
    9000001   -1    0    0    0    0 -0.00000000000E+00 -0.00000000000E+00 -0.64999999231E+04  0.65000000000E+04  0.10000000000E+01 0.  0.
    9000001    1    1    2    0    0 -0.57950034957E+04  0.23014343928E+04 -0.18361190650E+04  0.65000000000E+04  0.10000000000E+01 0.  0.
    9000001    1    1    2    0    0  0.57950034957E+04 -0.23014343928E+04  0.18361190650E+04  0.65000000000E+04  0.10000000000E+01 0.  0.
</event>
<event>
 4    1  0.2193160E-006  0.1300000E+05  0.7957747E-01  0.1322471E+00
    9000001   -1    0    0    0    0  0.00000000000E+00  0.00000000000E+00  0.64999999231E+04  0.65000000000E+04  0.10000000000E+01 0.  0.
    9000001   -1    0    0    0    0 -0.00000000000E+00 -0.00000000000E+00 -0.64999999231E+04  0.65000000000E+04  0.10000000000E+01 0.  0.
    9000001    1    1    2    0    0  0.23301745600E+04  0.45792481768E+04 -0.39813027585E+04  0.65000000000E+04  0.10000000000E+01 0.  0.
    9000001    1    1    2    0    0 -0.23301745600E+04 -0.45792481768E+04  0.39813027585E+04  0.65000000000E+04  0.10000000000E+01 0.  0.
</event>
<event>
 4    1  0.2193160E-006  0.1300000E+05  0.7957747E-01  0.1322471E+00
    9000001   -1    0    0    0    0  0.00000000000E+00  0.00000000000E+00  0.64999999231E+04  0.65000000000E+04  0.10000000000E+01 0.  0.
    9000001   -1    0    0    0    0 -0.00000000000E+00 -0.00000000000E+00 -0.64999999231E+04  0.65000000000E+04  0.10000000000E+01 0.  0.
    9000001    1    1    2    0    0 -0.16880034197E+04 -0.36784717488E+04  0.50862057615E+04  0.65000000000E+04  0.10000000000E+01 0.  0.
    9000001    1    1    2    0    0  0.16880034197E+04  0.36784717488E+04 -0.50862057615E+04  0.65000000000E+04  0.10000000000E+01 0.  0.
</event>
<event>
 4    1  0.2193160E-006  0.1300000E+05  0.7957747E-01  0.1322471E+00
    9000001   -1    0    0    0    0  0.00000000000E+00  0.00000000000E+00  0.64999999231E+04  0.65000000000E+04  0.10000000000E+01 0.  0.
    9000001   -1    0    0    0    0 -0.00000000000E+00 -0.00000000000E+00 -0.64999999231E+04  0.65000000000E+04  0.10000000000E+01 0.  0.
    9000001    1    1    2    0    0 -0.96260422047E+03  0.39450459780E+04  0.50754314443E+04  0.65000000000E+04  0.10000000000E+01 0.  0.
    9000001    1    1    2    0    0  0.96260422047E+03 -0.39450459780E+04 -0.50754314443E+04  0.65000000000E+04  0.10000000000E+01 0.  0.
</event>
<event>
 4    1  0.2193160E-006  0.1300000E+05  0.7957747E-01  0.1322471E+00
    9000001   -1    0    0    0    0  0.00000000000E+00  0.00000000000E+00  0.64999999231E+04  0.65000000000E+04  0.10000000000E+01 0.  0.
    9000001   -1    0    0    0    0 -0.00000000000E+00 -0.00000000000E+00 -0.64999999231E+04  0.65000000000E+04  0.10000000000E+01 0.  0.
    9000001    1    1    2    0    0  0.57113126745E+04 -0.22808628944E+04  0.21044170193E+04  0.65000000000E+04  0.10000000000E+01 0.  0.
    9000001    1    1    2    0    0 -0.57113126745E+04  0.22808628944E+04 -0.21044170193E+04  0.65000000000E+04  0.10000000000E+01 0.  0.
</event>
<event>
 4    1  0.2193160E-006  0.1300000E+05  0.7957747E-01  0.1322471E+00
    9000001   -1    0    0    0    0  0.00000000000E+00  0.00000000000E+00  0.64999999231E+04  0.65000000000E+04  0.10000000000E+01 0.  0.
    9000001   -1    0    0    0    0 -0.00000000000E+00 -0.00000000000E+00 -0.64999999231E+04  0.65000000000E+04  0.10000000000E+01 0.  0.
    9000001    1    1    2    0    0 -0.18295607814E+03 -0.64684145019E+04  0.61330245852E+03  0.65000000000E+04  0.10000000000E+01 0.  0.
    9000001    1    1    2    0    0  0.18295607814E+03  0.64684145019E+04 -0.61330245852E+03  0.65000000000E+04  0.10000000000E+01 0.  0.
</event>
<event>
 4    1  0.2193160E-006  0.1300000E+05  0.7957747E-01  0.1322471E+00
    9000001   -1    0    0    0    0  0.00000000000E+00  0.00000000000E+00  0.64999999231E+04  0.65000000000E+04  0.10000000000E+01 0.  0.
    9000001   -1    0    0    0    0 -0.00000000000E+00 -0.00000000000E+00 -0.64999999231E+04  0.65000000000E+04  0.10000000000E+01 0.  0.
    9000001    1    1    2    0    0  0.61503391268E+04 -0.20996995822E+04 -0.12078613419E+03  0.65000000000E+04  0.10000000000E+01 0.  0.
    9000001    1    1    2    0    0 -0.61503391268E+04  0.20996995822E+04  0.12078613419E+03  0.65000000000E+04  0.10000000000E+01 0.  0.
</event>
<event>
 4    1  0.2193160E-006  0.1300000E+05  0.7957747E-01  0.1322471E+00
    9000001   -1    0    0    0    0  0.00000000000E+00  0.00000000000E+00  0.64999999231E+04  0.65000000000E+04  0.10000000000E+01 0.  0.
    9000001   -1    0    0    0    0 -0.00000000000E+00 -0.00000000000E+00 -0.64999999231E+04  0.65000000000E+04  0.10000000000E+01 0.  0.
    9000001    1    1    2    0    0 -0.23562591788E+04  0.58968355731E+04 -0.13875777115E+04  0.65000000000E+04  0.10000000000E+01 0.  0.
    9000001    1    1    2    0    0  0.23562591788E+04 -0.58968355731E+04  0.13875777115E+04  0.65000000000E+04  0.10000000000E+01 0.  0.
</event>
<event>
 4    1  0.2193160E-006  0.1300000E+05  0.7957747E-01  0.1322471E+00
    9000001   -1    0    0    0    0  0.00000000000E+00  0.00000000000E+00  0.64999999231E+04  0.65000000000E+04  0.10000000000E+01 0.  0.
    9000001   -1    0    0    0    0 -0.00000000000E+00 -0.00000000000E+00 -0.64999999231E+04  0.65000000000E+04  0.10000000000E+01 0.  0.
    9000001    1    1    2    0    0  0.16927661149E+04  0.51975549083E+04  0.35170960827E+04  0.65000000000E+04  0.10000000000E+01 0.  0.
    9000001    1    1    2    0    0 -0.16927661149E+04 -0.51975549083E+04 -0.35170960827E+04  0.65000000000E+04  0.10000000000E+01 0.  0.
</event>
<event>
 4    1  0.2193160E-006  0.1300000E+05  0.7957747E-01  0.1322471E+00
    9000001   -1    0    0    0    0  0.00000000000E+00  0.00000000000E+00  0.64999999231E+04  0.65000000000E+04  0.10000000000E+01 0.  0.
    9000001   -1    0    0    0    0 -0.00000000000E+00 -0.00000000000E+00 -0.64999999231E+04  0.65000000000E+04  0.10000000000E+01 0.  0.
    9000001    1    1    2    0    0 -0.18896332377E+04 -0.45251864722E+03  0.62027826095E+04  0.65000000000E+04  0.10000000000E+01 0.  0.
    9000001    1    1    2    0    0  0.18896332377E+04  0.45251864722E+03 -0.62027826095E+04  0.65000000000E+04  0.10000000000E+01 0.  0.
</event>
<event>
 4    1  0.2193160E-006  0.1300000E+05  0.7957747E-01  0.1322471E+00
    9000001   -1    0    0    0    0  0.00000000000E+00  0.00000000000E+00  0.64999999231E+04  0.65000000000E+04  0.10000000000E+01 0.  0.
    9000001   -1    0    0    0    0 -0.00000000000E+00 -0.00000000000E+00 -0.64999999231E+04  0.65000000000E+04  0.10000000000E+01 0.  0.
    9000001    1    1    2    0    0 -0.40822169505E+04 -0.37885232148E+04 -0.33515064701E+04  0.65000000000E+04  0.10000000000E+01 0.  0.
    9000001    1    1    2    0    0  0.40822169505E+04  0.37885232148E+04  0.33515064701E+04  0.65000000000E+04  0.10000000000E+01 0.  0.
</event>
<event>
 4    1  0.2193160E-006  0.1300000E+05  0.7957747E-01  0.1322471E+00
    9000001   -1    0    0    0    0  0.00000000000E+00  0.00000000000E+00  0.64999999231E+04  0.65000000000E+04  0.10000000000E+01 0.  0.
    9000001   -1    0    0    0    0 -0.00000000000E+00 -0.00000000000E+00 -0.64999999231E+04  0.65000000000E+04  0.10000000000E+01 0.  0.
    9000001    1    1    2    0    0 -0.28297708113E+04 -0.17964379943E+04 -0.55691297963E+04  0.65000000000E+04  0.10000000000E+01 0.  0.
    9000001    1    1    2    0    0  0.28297708113E+04  0.17964379943E+04  0.55691297963E+04  0.65000000000E+04  0.10000000000E+01 0.  0.
</event>
<event>
 4    1  0.2193160E-006  0.1300000E+05  0.7957747E-01  0.1322471E+00
    9000001   -1    0    0    0    0  0.00000000000E+00  0.00000000000E+00  0.64999999231E+04  0.65000000000E+04  0.10000000000E+01 0.  0.
    9000001   -1    0    0    0    0 -0.00000000000E+00 -0.00000000000E+00 -0.64999999231E+04  0.65000000000E+04  0.10000000000E+01 0.  0.
    9000001    1    1    2    0    0  0.63320516064E+04  0.95345778414E+03  0.11162614874E+04  0.65000000000E+04  0.10000000000E+01 0.  0.
    9000001    1    1    2    0    0 -0.63320516064E+04 -0.95345778414E+03 -0.11162614874E+04  0.65000000000E+04  0.10000000000E+01 0.  0.
</event>
<event>
 4    1  0.2193160E-006  0.1300000E+05  0.7957747E-01  0.1322471E+00
    9000001   -1    0    0    0    0  0.00000000000E+00  0.00000000000E+00  0.64999999231E+04  0.65000000000E+04  0.10000000000E+01 0.  0.
    9000001   -1    0    0    0    0 -0.00000000000E+00 -0.00000000000E+00 -0.64999999231E+04  0.65000000000E+04  0.10000000000E+01 0.  0.
    9000001    1    1    2    0    0  0.57454597830E+04 -0.19862882819E+04 -0.23009454021E+04  0.65000000000E+04  0.10000000000E+01 0.  0.
    9000001    1    1    2    0    0 -0.57454597830E+04  0.19862882819E+04  0.23009454021E+04  0.65000000000E+04  0.10000000000E+01 0.  0.
</event>
<event>
 4    1  0.2193160E-006  0.1300000E+05  0.7957747E-01  0.1322471E+00
    9000001   -1    0    0    0    0  0.00000000000E+00  0.00000000000E+00  0.64999999231E+04  0.65000000000E+04  0.10000000000E+01 0.  0.
    9000001   -1    0    0    0    0 -0.00000000000E+00 -0.00000000000E+00 -0.64999999231E+04  0.65000000000E+04  0.10000000000E+01 0.  0.
    9000001    1    1    2    0    0 -0.44358687232E+04  0.18774336433E+04 -0.43644370297E+04  0.65000000000E+04  0.10000000000E+01 0.  0.
    9000001    1    1    2    0    0  0.44358687232E+04 -0.18774336433E+04  0.43644370297E+04  0.65000000000E+04  0.10000000000E+01 0.  0.
</event>
<event>
 4    1  0.2193160E-006  0.1300000E+05  0.7957747E-01  0.1322471E+00
    9000001   -1    0    0    0    0  0.00000000000E+00  0.00000000000E+00  0.64999999231E+04  0.65000000000E+04  0.10000000000E+01 0.  0.
    9000001   -1    0    0    0    0 -0.00000000000E+00 -0.00000000000E+00 -0.64999999231E+04  0.65000000000E+04  0.10000000000E+01 0.  0.
    9000001    1    1    2    0    0  0.57583541793E+04  0.24213951265E+04 -0.17967197297E+04  0.65000000000E+04  0.10000000000E+01 0.  0.
    9000001    1    1    2    0    0 -0.57583541793E+04 -0.24213951265E+04  0.17967197297E+04  0.65000000000E+04  0.10000000000E+01 0.  0.
</event>
<event>
 4    1  0.2193160E-006  0.1300000E+05  0.7957747E-01  0.1322471E+00
    9000001   -1    0    0    0    0  0.00000000000E+00  0.00000000000E+00  0.64999999231E+04  0.65000000000E+04  0.10000000000E+01 0.  0.
    9000001   -1    0    0    0    0 -0.00000000000E+00 -0.00000000000E+00 -0.64999999231E+04  0.65000000000E+04  0.10000000000E+01 0.  0.
    9000001    1    1    2    0    0 -0.63143171744E+04  0.61077301772E+03  0.14164582388E+04  0.65000000000E+04  0.10000000000E+01 0.  0.
    9000001    1    1    2    0    0  0.63143171744E+04 -0.61077301772E+03 -0.14164582388E+04  0.65000000000E+04  0.10000000000E+01 0.  0.
</event>
<event>
 4    1  0.2193160E-006  0.1300000E+05  0.7957747E-01  0.1322471E+00
    9000001   -1    0    0    0    0  0.00000000000E+00  0.00000000000E+00  0.64999999231E+04  0.65000000000E+04  0.10000000000E+01 0.  0.
    9000001   -1    0    0    0    0 -0.00000000000E+00 -0.00000000000E+00 -0.64999999231E+04  0.65000000000E+04  0.10000000000E+01 0.  0.
    9000001    1    1    2    0    0 -0.30003359981E+04 -0.53479384197E+04  0.21558148244E+04  0.65000000000E+04  0.10000000000E+01 0.  0.
    9000001    1    1    2    0    0  0.30003359981E+04  0.53479384197E+04 -0.21558148244E+04  0.65000000000E+04  0.10000000000E+01 0.  0.
</event>
<event>
 4    1  0.2193160E-006  0.1300000E+05  0.7957747E-01  0.1322471E+00
    9000001   -1    0    0    0    0  0.00000000000E+00  0.00000000000E+00  0.64999999231E+04  0.65000000000E+04  0.10000000000E+01 0.  0.
    9000001   -1    0    0    0    0 -0.00000000000E+00 -0.00000000000E+00 -0.64999999231E+04  0.65000000000E+04  0.10000000000E+01 0.  0.
    9000001    1    1    2    0    0  0.50370108304E+04  0.72695759796E+03  0.40435199450E+04  0.65000000000E+04  0.10000000000E+01 0.  0.
    9000001    1    1    2    0    0 -0.50370108304E+04 -0.72695759796E+03 -0.40435199450E+04  0.65000000000E+04  0.10000000000E+01 0.  0.
</event>
<event>
 4    1  0.2193160E-006  0.1300000E+05  0.7957747E-01  0.1322471E+00
    9000001   -1    0    0    0    0  0.00000000000E+00  0.00000000000E+00  0.64999999231E+04  0.65000000000E+04  0.10000000000E+01 0.  0.
    9000001   -1    0    0    0    0 -0.00000000000E+00 -0.00000000000E+00 -0.64999999231E+04  0.65000000000E+04  0.10000000000E+01 0.  0.
    9000001    1    1    2    0    0  0.31750615481E+03 -0.61016063895E+04  0.22180144971E+04  0.65000000000E+04  0.10000000000E+01 0.  0.
    9000001    1    1    2    0    0 -0.31750615481E+03  0.61016063895E+04 -0.22180144971E+04  0.65000000000E+04  0.10000000000E+01 0.  0.
</event>
<event>
 4    1  0.2193160E-006  0.1300000E+05  0.7957747E-01  0.1322471E+00
    9000001   -1    0    0    0    0  0.00000000000E+00  0.00000000000E+00  0.64999999231E+04  0.65000000000E+04  0.10000000000E+01 0.  0.
    9000001   -1    0    0    0    0 -0.00000000000E+00 -0.00000000000E+00 -0.64999999231E+04  0.65000000000E+04  0.10000000000E+01 0.  0.
    9000001    1    1    2    0    0  0.58520214581E+04 -0.84822737763E+03 -0.26989542734E+04  0.65000000000E+04  0.10000000000E+01 0.  0.
    9000001    1    1    2    0    0 -0.58520214581E+04  0.84822737763E+03  0.26989542734E+04  0.65000000000E+04  0.10000000000E+01 0.  0.
</event>
<event>
 4    1  0.2193160E-006  0.1300000E+05  0.7957747E-01  0.1322471E+00
    9000001   -1    0    0    0    0  0.00000000000E+00  0.00000000000E+00  0.64999999231E+04  0.65000000000E+04  0.10000000000E+01 0.  0.
    9000001   -1    0    0    0    0 -0.00000000000E+00 -0.00000000000E+00 -0.64999999231E+04  0.65000000000E+04  0.10000000000E+01 0.  0.
    9000001    1    1    2    0    0 -0.34868092853E+03 -0.49900598886E+04 -0.41506292196E+04  0.65000000000E+04  0.10000000000E+01 0.  0.
    9000001    1    1    2    0    0  0.34868092853E+03  0.49900598886E+04  0.41506292196E+04  0.65000000000E+04  0.10000000000E+01 0.  0.
</event>
<event>
 4    1  0.2193160E-006  0.1300000E+05  0.7957747E-01  0.1322471E+00
    9000001   -1    0    0    0    0  0.00000000000E+00  0.00000000000E+00  0.64999999231E+04  0.65000000000E+04  0.10000000000E+01 0.  0.
    9000001   -1    0    0    0    0 -0.00000000000E+00 -0.00000000000E+00 -0.64999999231E+04  0.65000000000E+04  0.10000000000E+01 0.  0.
    9000001    1    1    2    0    0 -0.36268391743E+04  0.22504387746E+04 -0.49021997027E+04  0.65000000000E+04  0.10000000000E+01 0.  0.
    9000001    1    1    2    0    0  0.36268391743E+04 -0.22504387746E+04  0.49021997027E+04  0.65000000000E+04  0.10000000000E+01 0.  0.
</event>
<event>
 4    1  0.2193160E-006  0.1300000E+05  0.7957747E-01  0.1322471E+00
    9000001   -1    0    0    0    0  0.00000000000E+00  0.00000000000E+00  0.64999999231E+04  0.65000000000E+04  0.10000000000E+01 0.  0.
    9000001   -1    0    0    0    0 -0.00000000000E+00 -0.00000000000E+00 -0.64999999231E+04  0.65000000000E+04  0.10000000000E+01 0.  0.
    9000001    1    1    2    0    0  0.46125890631E+04  0.10900509770E+04  0.44481243241E+04  0.65000000000E+04  0.10000000000E+01 0.  0.
    9000001    1    1    2    0    0 -0.46125890631E+04 -0.10900509770E+04 -0.44481243241E+04  0.65000000000E+04  0.10000000000E+01 0.  0.
</event>
<event>
 4    1  0.2193160E-006  0.1300000E+05  0.7957747E-01  0.1322471E+00
    9000001   -1    0    0    0    0  0.00000000000E+00  0.00000000000E+00  0.64999999231E+04  0.65000000000E+04  0.10000000000E+01 0.  0.
    9000001   -1    0    0    0    0 -0.00000000000E+00 -0.00000000000E+00 -0.64999999231E+04  0.65000000000E+04  0.10000000000E+01 0.  0.
    9000001    1    1    2    0    0 -0.56818436239E+04 -0.11216720151E+04  0.29510174387E+04  0.65000000000E+04  0.10000000000E+01 0.  0.
    9000001    1    1    2    0    0  0.56818436239E+04  0.11216720151E+04 -0.29510174387E+04  0.65000000000E+04  0.10000000000E+01 0.  0.
</event>
<event>
 4    1  0.2193160E-006  0.1300000E+05  0.7957747E-01  0.1322471E+00
    9000001   -1    0    0    0    0  0.00000000000E+00  0.00000000000E+00  0.64999999231E+04  0.65000000000E+04  0.10000000000E+01 0.  0.
    9000001   -1    0    0    0    0 -0.00000000000E+00 -0.00000000000E+00 -0.64999999231E+04  0.65000000000E+04  0.10000000000E+01 0.  0.
    9000001    1    1    2    0    0  0.43181913938E+04 -0.47277813659E+04  0.11186176480E+04  0.65000000000E+04  0.10000000000E+01 0.  0.
    9000001    1    1    2    0    0 -0.43181913938E+04  0.47277813659E+04 -0.11186176480E+04  0.65000000000E+04  0.10000000000E+01 0.  0.
</event>
<event>
 4    1  0.2193160E-006  0.1300000E+05  0.7957747E-01  0.1322471E+00
    9000001   -1    0    0    0    0  0.00000000000E+00  0.00000000000E+00  0.64999999231E+04  0.65000000000E+04  0.10000000000E+01 0.  0.
    9000001   -1    0    0    0    0 -0.00000000000E+00 -0.00000000000E+00 -0.64999999231E+04  0.65000000000E+04  0.10000000000E+01 0.  0.
    9000001    1    1    2    0    0 -0.33249340423E+04  0.55239027562E+03  0.55578482885E+04  0.65000000000E+04  0.10000000000E+01 0.  0.
    9000001    1    1    2    0    0  0.33249340423E+04 -0.55239027562E+03 -0.55578482885E+04  0.65000000000E+04  0.10000000000E+01 0.  0.
</event>
<event>
 4    1  0.2193160E-006  0.1300000E+05  0.7957747E-01  0.1322471E+00
    9000001   -1    0    0    0    0  0.00000000000E+00  0.00000000000E+00  0.64999999231E+04  0.65000000000E+04  0.10000000000E+01 0.  0.
    9000001   -1    0    0    0    0 -0.00000000000E+00 -0.00000000000E+00 -0.64999999231E+04  0.65000000000E+04  0.10000000000E+01 0.  0.
    9000001    1    1    2    0    0  0.21697192344E+04  0.40026203760E+04  0.46391106442E+04  0.65000000000E+04  0.10000000000E+01 0.  0.
    9000001    1    1    2    0    0 -0.21697192344E+04 -0.40026203760E+04 -0.46391106442E+04  0.65000000000E+04  0.10000000000E+01 0.  0.
</event>
<event>
 4    1  0.2193160E-006  0.1300000E+05  0.7957747E-01  0.1322471E+00
    9000001   -1    0    0    0    0  0.00000000000E+00  0.00000000000E+00  0.64999999231E+04  0.65000000000E+04  0.10000000000E+01 0.  0.
    9000001   -1    0    0    0    0 -0.00000000000E+00 -0.00000000000E+00 -0.64999999231E+04  0.65000000000E+04  0.10000000000E+01 0.  0.
    9000001    1    1    2    0    0 -0.33852577742E+04 -0.48276071005E+04 -0.27357336284E+04  0.65000000000E+04  0.10000000000E+01 0.  0.
    9000001    1    1    2    0    0  0.33852577742E+04  0.48276071005E+04  0.27357336284E+04  0.65000000000E+04  0.10000000000E+01 0.  0.
</event>
<event>
 4    1  0.2193160E-006  0.1300000E+05  0.7957747E-01  0.1322471E+00
    9000001   -1    0    0    0    0  0.00000000000E+00  0.00000000000E+00  0.64999999231E+04  0.65000000000E+04  0.10000000000E+01 0.  0.
    9000001   -1    0    0    0    0 -0.00000000000E+00 -0.00000000000E+00 -0.64999999231E+04  0.65000000000E+04  0.10000000000E+01 0.  0.
    9000001    1    1    2    0    0 -0.33162667050E+04 -0.48005705088E+04 -0.28647682160E+04  0.65000000000E+04  0.10000000000E+01 0.  0.
    9000001    1    1    2    0    0  0.33162667050E+04  0.48005705088E+04  0.28647682160E+04  0.65000000000E+04  0.10000000000E+01 0.  0.
</event>
<event>
 4    1  0.2193160E-006  0.1300000E+05  0.7957747E-01  0.1322471E+00
    9000001   -1    0    0    0    0  0.00000000000E+00  0.00000000000E+00  0.64999999231E+04  0.65000000000E+04  0.10000000000E+01 0.  0.
    9000001   -1    0    0    0    0 -0.00000000000E+00 -0.00000000000E+00 -0.64999999231E+04  0.65000000000E+04  0.10000000000E+01 0.  0.
    9000001    1    1    2    0    0  0.35231951320E+04 -0.53212777416E+04 -0.12333281228E+04  0.65000000000E+04  0.10000000000E+01 0.  0.
    9000001    1    1    2    0    0 -0.35231951320E+04  0.53212777416E+04  0.12333281228E+04  0.65000000000E+04  0.10000000000E+01 0.  0.
</event>
<event>
 4    1  0.2193160E-006  0.1300000E+05  0.7957747E-01  0.1322471E+00
    9000001   -1    0    0    0    0  0.00000000000E+00  0.00000000000E+00  0.64999999231E+04  0.65000000000E+04  0.10000000000E+01 0.  0.
    9000001   -1    0    0    0    0 -0.00000000000E+00 -0.00000000000E+00 -0.64999999231E+04  0.65000000000E+04  0.10000000000E+01 0.  0.
    9000001    1    1    2    0    0 -0.28822326339E+04 -0.25532691287E+04 -0.52367500227E+04  0.65000000000E+04  0.10000000000E+01 0.  0.
    9000001    1    1    2    0    0  0.28822326339E+04  0.25532691287E+04  0.52367500227E+04  0.65000000000E+04  0.10000000000E+01 0.  0.
</event>
<event>
 4    1  0.2193160E-006  0.1300000E+05  0.7957747E-01  0.1322471E+00
    9000001   -1    0    0    0    0  0.00000000000E+00  0.00000000000E+00  0.64999999231E+04  0.65000000000E+04  0.10000000000E+01 0.  0.
    9000001   -1    0    0    0    0 -0.00000000000E+00 -0.00000000000E+00 -0.64999999231E+04  0.65000000000E+04  0.10000000000E+01 0.  0.
    9000001    1    1    2    0    0 -0.60570341645E+04  0.21825215965E+04 -0.89383198129E+03  0.65000000000E+04  0.10000000000E+01 0.  0.
    9000001    1    1    2    0    0  0.60570341645E+04 -0.21825215965E+04  0.89383198129E+03  0.65000000000E+04  0.10000000000E+01 0.  0.
</event>
<event>
 4    1  0.2193160E-006  0.1300000E+05  0.7957747E-01  0.1322471E+00
    9000001   -1    0    0    0    0  0.00000000000E+00  0.00000000000E+00  0.64999999231E+04  0.65000000000E+04  0.10000000000E+01 0.  0.
    9000001   -1    0    0    0    0 -0.00000000000E+00 -0.00000000000E+00 -0.64999999231E+04  0.65000000000E+04  0.10000000000E+01 0.  0.
    9000001    1    1    2    0    0  0.49614009134E+04  0.33409490541E+04  0.25441225195E+04  0.65000000000E+04  0.10000000000E+01 0.  0.
    9000001    1    1    2    0    0 -0.49614009134E+04 -0.33409490541E+04 -0.25441225195E+04  0.65000000000E+04  0.10000000000E+01 0.  0.
</event>
<event>
 4    1  0.2193160E-006  0.1300000E+05  0.7957747E-01  0.1322471E+00
    9000001   -1    0    0    0    0  0.00000000000E+00  0.00000000000E+00  0.64999999231E+04  0.65000000000E+04  0.10000000000E+01 0.  0.
    9000001   -1    0    0    0    0 -0.00000000000E+00 -0.00000000000E+00 -0.64999999231E+04  0.65000000000E+04  0.10000000000E+01 0.  0.
    9000001    1    1    2    0    0  0.21249134568E+04 -0.49873880509E+04  0.35861821246E+04  0.65000000000E+04  0.10000000000E+01 0.  0.
    9000001    1    1    2    0    0 -0.21249134568E+04  0.49873880509E+04 -0.35861821246E+04  0.65000000000E+04  0.10000000000E+01 0.  0.
</event>
<event>
 4    1  0.2193160E-006  0.1300000E+05  0.7957747E-01  0.1322471E+00
    9000001   -1    0    0    0    0  0.00000000000E+00  0.00000000000E+00  0.64999999231E+04  0.65000000000E+04  0.10000000000E+01 0.  0.
    9000001   -1    0    0    0    0 -0.00000000000E+00 -0.00000000000E+00 -0.64999999231E+04  0.65000000000E+04  0.10000000000E+01 0.  0.
    9000001    1    1    2    0    0  0.33884945079E+04  0.46652500087E+04  0.30005909962E+04  0.65000000000E+04  0.10000000000E+01 0.  0.
    9000001    1    1    2    0    0 -0.33884945079E+04 -0.46652500087E+04 -0.30005909962E+04  0.65000000000E+04  0.10000000000E+01 0.  0.
</event>
<event>
 4    1  0.2193160E-006  0.1300000E+05  0.7957747E-01  0.1322471E+00
    9000001   -1    0    0    0    0  0.00000000000E+00  0.00000000000E+00  0.64999999231E+04  0.65000000000E+04  0.10000000000E+01 0.  0.
    9000001   -1    0    0    0    0 -0.00000000000E+00 -0.00000000000E+00 -0.64999999231E+04  0.65000000000E+04  0.10000000000E+01 0.  0.
    9000001    1    1    2    0    0  0.32145059566E+04 -0.27799116998E+03 -0.56426652713E+04  0.65000000000E+04  0.10000000000E+01 0.  0.
    9000001    1    1    2    0    0 -0.32145059566E+04  0.27799116998E+03  0.56426652713E+04  0.65000000000E+04  0.10000000000E+01 0.  0.
</event>
<event>
 4    1  0.2193160E-006  0.1300000E+05  0.7957747E-01  0.1322471E+00
    9000001   -1    0    0    0    0  0.00000000000E+00  0.00000000000E+00  0.64999999231E+04  0.65000000000E+04  0.10000000000E+01 0.  0.
    9000001   -1    0    0    0    0 -0.00000000000E+00 -0.00000000000E+00 -0.64999999231E+04  0.65000000000E+04  0.10000000000E+01 0.  0.
    9000001    1    1    2    0    0 -0.38524856732E+04 -0.28773146640E+04 -0.43737184937E+04  0.65000000000E+04  0.10000000000E+01 0.  0.
    9000001    1    1    2    0    0  0.38524856732E+04  0.28773146640E+04  0.43737184937E+04  0.65000000000E+04  0.10000000000E+01 0.  0.
</event>
<event>
 4    1  0.2193160E-006  0.1300000E+05  0.7957747E-01  0.1322471E+00
    9000001   -1    0    0    0    0  0.00000000000E+00  0.00000000000E+00  0.64999999231E+04  0.65000000000E+04  0.10000000000E+01 0.  0.
    9000001   -1    0    0    0    0 -0.00000000000E+00 -0.00000000000E+00 -0.64999999231E+04  0.65000000000E+04  0.10000000000E+01 0.  0.
    9000001    1    1    2    0    0 -0.58473861537E+04  0.27949097783E+04  0.49654153957E+03  0.65000000000E+04  0.10000000000E+01 0.  0.
    9000001    1    1    2    0    0  0.58473861537E+04 -0.27949097783E+04 -0.49654153957E+03  0.65000000000E+04  0.10000000000E+01 0.  0.
</event>
<event>
 4    1  0.2193160E-006  0.1300000E+05  0.7957747E-01  0.1322471E+00
    9000001   -1    0    0    0    0  0.00000000000E+00  0.00000000000E+00  0.64999999231E+04  0.65000000000E+04  0.10000000000E+01 0.  0.
    9000001   -1    0    0    0    0 -0.00000000000E+00 -0.00000000000E+00 -0.64999999231E+04  0.65000000000E+04  0.10000000000E+01 0.  0.
    9000001    1    1    2    0    0 -0.78594218499E+03 -0.59275525527E+04  0.25488065082E+04  0.65000000000E+04  0.10000000000E+01 0.  0.
    9000001    1    1    2    0    0  0.78594218499E+03  0.59275525527E+04 -0.25488065082E+04  0.65000000000E+04  0.10000000000E+01 0.  0.
</event>
<event>
 4    1  0.2193160E-006  0.1300000E+05  0.7957747E-01  0.1322471E+00
    9000001   -1    0    0    0    0  0.00000000000E+00  0.00000000000E+00  0.64999999231E+04  0.65000000000E+04  0.10000000000E+01 0.  0.
    9000001   -1    0    0    0    0 -0.00000000000E+00 -0.00000000000E+00 -0.64999999231E+04  0.65000000000E+04  0.10000000000E+01 0.  0.
    9000001    1    1    2    0    0  0.61565634694E+04  0.13452040166E+03  0.20805358705E+04  0.65000000000E+04  0.10000000000E+01 0.  0.
    9000001    1    1    2    0    0 -0.61565634694E+04 -0.13452040166E+03 -0.20805358705E+04  0.65000000000E+04  0.10000000000E+01 0.  0.
</event>
<event>
 4    1  0.2193160E-006  0.1300000E+05  0.7957747E-01  0.1322471E+00
    9000001   -1    0    0    0    0  0.00000000000E+00  0.00000000000E+00  0.64999999231E+04  0.65000000000E+04  0.10000000000E+01 0.  0.
    9000001   -1    0    0    0    0 -0.00000000000E+00 -0.00000000000E+00 -0.64999999231E+04  0.65000000000E+04  0.10000000000E+01 0.  0.
    9000001    1    1    2    0    0 -0.54270166700E+04 -0.34751478973E+04  0.84902070374E+03  0.65000000000E+04  0.10000000000E+01 0.  0.
    9000001    1    1    2    0    0  0.54270166700E+04  0.34751478973E+04 -0.84902070374E+03  0.65000000000E+04  0.10000000000E+01 0.  0.
</event>
<event>
 4    1  0.2193160E-006  0.1300000E+05  0.7957747E-01  0.1322471E+00
    9000001   -1    0    0    0    0  0.00000000000E+00  0.00000000000E+00  0.64999999231E+04  0.65000000000E+04  0.10000000000E+01 0.  0.
    9000001   -1    0    0    0    0 -0.00000000000E+00 -0.00000000000E+00 -0.64999999231E+04  0.65000000000E+04  0.10000000000E+01 0.  0.
    9000001    1    1    2    0    0 -0.53203147021E+04 -0.37275791760E+04  0.22227000970E+03  0.65000000000E+04  0.10000000000E+01 0.  0.
    9000001    1    1    2    0    0  0.53203147021E+04  0.37275791760E+04 -0.22227000970E+03  0.65000000000E+04  0.10000000000E+01 0.  0.
</event>
<event>
 4    1  0.2193160E-006  0.1300000E+05  0.7957747E-01  0.1322471E+00
    9000001   -1    0    0    0    0  0.00000000000E+00  0.00000000000E+00  0.64999999231E+04  0.65000000000E+04  0.10000000000E+01 0.  0.
    9000001   -1    0    0    0    0 -0.00000000000E+00 -0.00000000000E+00 -0.64999999231E+04  0.65000000000E+04  0.10000000000E+01 0.  0.
    9000001    1    1    2    0    0  0.42281697558E+04  0.16966513449E+04 -0.46361572159E+04  0.65000000000E+04  0.10000000000E+01 0.  0.
    9000001    1    1    2    0    0 -0.42281697558E+04 -0.16966513449E+04  0.46361572159E+04  0.65000000000E+04  0.10000000000E+01 0.  0.
</event>
<event>
 4    1  0.2193160E-006  0.1300000E+05  0.7957747E-01  0.1322471E+00
    9000001   -1    0    0    0    0  0.00000000000E+00  0.00000000000E+00  0.64999999231E+04  0.65000000000E+04  0.10000000000E+01 0.  0.
    9000001   -1    0    0    0    0 -0.00000000000E+00 -0.00000000000E+00 -0.64999999231E+04  0.65000000000E+04  0.10000000000E+01 0.  0.
    9000001    1    1    2    0    0 -0.48800711449E+04  0.13692987064E+04  0.40693888575E+04  0.65000000000E+04  0.10000000000E+01 0.  0.
    9000001    1    1    2    0    0  0.48800711449E+04 -0.13692987064E+04 -0.40693888575E+04  0.65000000000E+04  0.10000000000E+01 0.  0.
</event>
<event>
 4    1  0.2193160E-006  0.1300000E+05  0.7957747E-01  0.1322471E+00
    9000001   -1    0    0    0    0  0.00000000000E+00  0.00000000000E+00  0.64999999231E+04  0.65000000000E+04  0.10000000000E+01 0.  0.
    9000001   -1    0    0    0    0 -0.00000000000E+00 -0.00000000000E+00 -0.64999999231E+04  0.65000000000E+04  0.10000000000E+01 0.  0.
    9000001    1    1    2    0    0 -0.22345278590E+04  0.60947425657E+04 -0.33316258122E+03  0.65000000000E+04  0.10000000000E+01 0.  0.
    9000001    1    1    2    0    0  0.22345278590E+04 -0.60947425657E+04  0.33316258122E+03  0.65000000000E+04  0.10000000000E+01 0.  0.
</event>
<event>
 4    1  0.2193160E-006  0.1300000E+05  0.7957747E-01  0.1322471E+00
    9000001   -1    0    0    0    0  0.00000000000E+00  0.00000000000E+00  0.64999999231E+04  0.65000000000E+04  0.10000000000E+01 0.  0.
    9000001   -1    0    0    0    0 -0.00000000000E+00 -0.00000000000E+00 -0.64999999231E+04  0.65000000000E+04  0.10000000000E+01 0.  0.
    9000001    1    1    2    0    0 -0.15588515556E+04 -0.59462638772E+04  0.21123273256E+04  0.65000000000E+04  0.10000000000E+01 0.  0.
    9000001    1    1    2    0    0  0.15588515556E+04  0.59462638772E+04 -0.21123273256E+04  0.65000000000E+04  0.10000000000E+01 0.  0.
</event>
<event>
 4    1  0.2193160E-006  0.1300000E+05  0.7957747E-01  0.1322471E+00
    9000001   -1    0    0    0    0  0.00000000000E+00  0.00000000000E+00  0.64999999231E+04  0.65000000000E+04  0.10000000000E+01 0.  0.
    9000001   -1    0    0    0    0 -0.00000000000E+00 -0.00000000000E+00 -0.64999999231E+04  0.65000000000E+04  0.10000000000E+01 0.  0.
    9000001    1    1    2    0    0 -0.60716922191E+04  0.41316722988E+03  0.22833846448E+04  0.65000000000E+04  0.10000000000E+01 0.  0.
    9000001    1    1    2    0    0  0.60716922191E+04 -0.41316722988E+03 -0.22833846448E+04  0.65000000000E+04  0.10000000000E+01 0.  0.
</event>
<event>
 4    1  0.2193160E-006  0.1300000E+05  0.7957747E-01  0.1322471E+00
    9000001   -1    0    0    0    0  0.00000000000E+00  0.00000000000E+00  0.64999999231E+04  0.65000000000E+04  0.10000000000E+01 0.  0.
    9000001   -1    0    0    0    0 -0.00000000000E+00 -0.00000000000E+00 -0.64999999231E+04  0.65000000000E+04  0.10000000000E+01 0.  0.
    9000001    1    1    2    0    0 -0.44677485253E+04 -0.41961316281E+04  0.21637239830E+04  0.65000000000E+04  0.10000000000E+01 0.  0.
    9000001    1    1    2    0    0  0.44677485253E+04  0.41961316281E+04 -0.21637239830E+04  0.65000000000E+04  0.10000000000E+01 0.  0.
</event>
<event>
 4    1  0.2193160E-006  0.1300000E+05  0.7957747E-01  0.1322471E+00
    9000001   -1    0    0    0    0  0.00000000000E+00  0.00000000000E+00  0.64999999231E+04  0.65000000000E+04  0.10000000000E+01 0.  0.
    9000001   -1    0    0    0    0 -0.00000000000E+00 -0.00000000000E+00 -0.64999999231E+04  0.65000000000E+04  0.10000000000E+01 0.  0.
    9000001    1    1    2    0    0 -0.16215108968E+04  0.31330869430E+04  0.54593468125E+04  0.65000000000E+04  0.10000000000E+01 0.  0.
    9000001    1    1    2    0    0  0.16215108968E+04 -0.31330869430E+04 -0.54593468125E+04  0.65000000000E+04  0.10000000000E+01 0.  0.
</event>
<event>
 4    1  0.2193160E-006  0.1300000E+05  0.7957747E-01  0.1322471E+00
    9000001   -1    0    0    0    0  0.00000000000E+00  0.00000000000E+00  0.64999999231E+04  0.65000000000E+04  0.10000000000E+01 0.  0.
    9000001   -1    0    0    0    0 -0.00000000000E+00 -0.00000000000E+00 -0.64999999231E+04  0.65000000000E+04  0.10000000000E+01 0.  0.
    9000001    1    1    2    0    0 -0.33432828239E+04 -0.26632994480E+04  0.48968658353E+04  0.65000000000E+04  0.10000000000E+01 0.  0.
    9000001    1    1    2    0    0  0.33432828239E+04  0.26632994480E+04 -0.48968658353E+04  0.65000000000E+04  0.10000000000E+01 0.  0.
</event>
<event>
 4    1  0.2193160E-006  0.1300000E+05  0.7957747E-01  0.1322471E+00
    9000001   -1    0    0    0    0  0.00000000000E+00  0.00000000000E+00  0.64999999231E+04  0.65000000000E+04  0.10000000000E+01 0.  0.
    9000001   -1    0    0    0    0 -0.00000000000E+00 -0.00000000000E+00 -0.64999999231E+04  0.65000000000E+04  0.10000000000E+01 0.  0.
    9000001    1    1    2    0    0  0.42068901454E+04 -0.10304389583E+04  0.48466761660E+04  0.65000000000E+04  0.10000000000E+01 0.  0.
    9000001    1    1    2    0    0 -0.42068901454E+04  0.10304389583E+04 -0.48466761660E+04  0.65000000000E+04  0.10000000000E+01 0.  0.
</event>
<event>
 4    1  0.2193160E-006  0.1300000E+05  0.7957747E-01  0.1322471E+00
    9000001   -1    0    0    0    0  0.00000000000E+00  0.00000000000E+00  0.64999999231E+04  0.65000000000E+04  0.10000000000E+01 0.  0.
    9000001   -1    0    0    0    0 -0.00000000000E+00 -0.00000000000E+00 -0.64999999231E+04  0.65000000000E+04  0.10000000000E+01 0.  0.
    9000001    1    1    2    0    0  0.19521580907E+04 -0.58890125396E+04 -0.19387132581E+04  0.65000000000E+04  0.10000000000E+01 0.  0.
    9000001    1    1    2    0    0 -0.19521580907E+04  0.58890125396E+04  0.19387132581E+04  0.65000000000E+04  0.10000000000E+01 0.  0.
</event>
<event>
 4    1  0.2193160E-006  0.1300000E+05  0.7957747E-01  0.1322471E+00
    9000001   -1    0    0    0    0  0.00000000000E+00  0.00000000000E+00  0.64999999231E+04  0.65000000000E+04  0.10000000000E+01 0.  0.
    9000001   -1    0    0    0    0 -0.00000000000E+00 -0.00000000000E+00 -0.64999999231E+04  0.65000000000E+04  0.10000000000E+01 0.  0.
    9000001    1    1    2    0    0  0.78088566044E+03  0.45157519446E+04  0.46095770913E+04  0.65000000000E+04  0.10000000000E+01 0.  0.
    9000001    1    1    2    0    0 -0.78088566044E+03 -0.45157519446E+04 -0.46095770913E+04  0.65000000000E+04  0.10000000000E+01 0.  0.
</event>
<event>
 4    1  0.2193160E-006  0.1300000E+05  0.7957747E-01  0.1322471E+00
    9000001   -1    0    0    0    0  0.00000000000E+00  0.00000000000E+00  0.64999999231E+04  0.65000000000E+04  0.10000000000E+01 0.  0.
    9000001   -1    0    0    0    0 -0.00000000000E+00 -0.00000000000E+00 -0.64999999231E+04  0.65000000000E+04  0.10000000000E+01 0.  0.
    9000001    1    1    2    0    0 -0.16947233969E+03 -0.64133575234E+04  0.10440897483E+04  0.65000000000E+04  0.10000000000E+01 0.  0.
    9000001    1    1    2    0    0  0.16947233969E+03  0.64133575234E+04 -0.10440897483E+04  0.65000000000E+04  0.10000000000E+01 0.  0.
</event>
<event>
 4    1  0.2193160E-006  0.1300000E+05  0.7957747E-01  0.1322471E+00
    9000001   -1    0    0    0    0  0.00000000000E+00  0.00000000000E+00  0.64999999231E+04  0.65000000000E+04  0.10000000000E+01 0.  0.
    9000001   -1    0    0    0    0 -0.00000000000E+00 -0.00000000000E+00 -0.64999999231E+04  0.65000000000E+04  0.10000000000E+01 0.  0.
    9000001    1    1    2    0    0 -0.51447829709E+04 -0.35131771524E+04 -0.18543984139E+04  0.65000000000E+04  0.10000000000E+01 0.  0.
    9000001    1    1    2    0    0  0.51447829709E+04  0.35131771524E+04  0.18543984139E+04  0.65000000000E+04  0.10000000000E+01 0.  0.
</event>
<event>
 4    1  0.2193160E-006  0.1300000E+05  0.7957747E-01  0.1322471E+00
    9000001   -1    0    0    0    0  0.00000000000E+00  0.00000000000E+00  0.64999999231E+04  0.65000000000E+04  0.10000000000E+01 0.  0.
    9000001   -1    0    0    0    0 -0.00000000000E+00 -0.00000000000E+00 -0.64999999231E+04  0.65000000000E+04  0.10000000000E+01 0.  0.
    9000001    1    1    2    0    0  0.26952705710E+04  0.11896627153E+04 -0.57939812023E+04  0.65000000000E+04  0.10000000000E+01 0.  0.
    9000001    1    1    2    0    0 -0.26952705710E+04 -0.11896627153E+04  0.57939812023E+04  0.65000000000E+04  0.10000000000E+01 0.  0.
</event>
<event>
 4    1  0.2193160E-006  0.1300000E+05  0.7957747E-01  0.1322471E+00
    9000001   -1    0    0    0    0  0.00000000000E+00  0.00000000000E+00  0.64999999231E+04  0.65000000000E+04  0.10000000000E+01 0.  0.
    9000001   -1    0    0    0    0 -0.00000000000E+00 -0.00000000000E+00 -0.64999999231E+04  0.65000000000E+04  0.10000000000E+01 0.  0.
    9000001    1    1    2    0    0  0.14911790764E+04 -0.50462982068E+04  0.38159216934E+04  0.65000000000E+04  0.10000000000E+01 0.  0.
    9000001    1    1    2    0    0 -0.14911790764E+04  0.50462982068E+04 -0.38159216934E+04  0.65000000000E+04  0.10000000000E+01 0.  0.
</event>
<event>
 4    1  0.2193160E-006  0.1300000E+05  0.7957747E-01  0.1322471E+00
    9000001   -1    0    0    0    0  0.00000000000E+00  0.00000000000E+00  0.64999999231E+04  0.65000000000E+04  0.10000000000E+01 0.  0.
    9000001   -1    0    0    0    0 -0.00000000000E+00 -0.00000000000E+00 -0.64999999231E+04  0.65000000000E+04  0.10000000000E+01 0.  0.
    9000001    1    1    2    0    0 -0.59102642456E+03 -0.62406115585E+04  0.17191434324E+04  0.65000000000E+04  0.10000000000E+01 0.  0.
    9000001    1    1    2    0    0  0.59102642456E+03  0.62406115585E+04 -0.17191434324E+04  0.65000000000E+04  0.10000000000E+01 0.  0.
</event>
<event>
 4    1  0.2193160E-006  0.1300000E+05  0.7957747E-01  0.1322471E+00
    9000001   -1    0    0    0    0  0.00000000000E+00  0.00000000000E+00  0.64999999231E+04  0.65000000000E+04  0.10000000000E+01 0.  0.
    9000001   -1    0    0    0    0 -0.00000000000E+00 -0.00000000000E+00 -0.64999999231E+04  0.65000000000E+04  0.10000000000E+01 0.  0.
    9000001    1    1    2    0    0 -0.38935015668E+03  0.64126722221E+04 -0.98794758332E+03  0.65000000000E+04  0.10000000000E+01 0.  0.
    9000001    1    1    2    0    0  0.38935015668E+03 -0.64126722221E+04  0.98794758332E+03  0.65000000000E+04  0.10000000000E+01 0.  0.
</event>
<event>
 4    1  0.2193160E-006  0.1300000E+05  0.7957747E-01  0.1322471E+00
    9000001   -1    0    0    0    0  0.00000000000E+00  0.00000000000E+00  0.64999999231E+04  0.65000000000E+04  0.10000000000E+01 0.  0.
    9000001   -1    0    0    0    0 -0.00000000000E+00 -0.00000000000E+00 -0.64999999231E+04  0.65000000000E+04  0.10000000000E+01 0.  0.
    9000001    1    1    2    0    0  0.27806754036E+03  0.60495861392E+04 -0.23611829636E+04  0.65000000000E+04  0.10000000000E+01 0.  0.
    9000001    1    1    2    0    0 -0.27806754036E+03 -0.60495861392E+04  0.23611829636E+04  0.65000000000E+04  0.10000000000E+01 0.  0.
</event>
<event>
 4    1  0.2193160E-006  0.1300000E+05  0.7957747E-01  0.1322471E+00
    9000001   -1    0    0    0    0  0.00000000000E+00  0.00000000000E+00  0.64999999231E+04  0.65000000000E+04  0.10000000000E+01 0.  0.
    9000001   -1    0    0    0    0 -0.00000000000E+00 -0.00000000000E+00 -0.64999999231E+04  0.65000000000E+04  0.10000000000E+01 0.  0.
    9000001    1    1    2    0    0 -0.57184331991E+02  0.46399532273E+04 -0.45516549739E+04  0.65000000000E+04  0.10000000000E+01 0.  0.
    9000001    1    1    2    0    0  0.57184331991E+02 -0.46399532273E+04  0.45516549739E+04  0.65000000000E+04  0.10000000000E+01 0.  0.
</event>
<event>
 4    1  0.2193160E-006  0.1300000E+05  0.7957747E-01  0.1322471E+00
    9000001   -1    0    0    0    0  0.00000000000E+00  0.00000000000E+00  0.64999999231E+04  0.65000000000E+04  0.10000000000E+01 0.  0.
    9000001   -1    0    0    0    0 -0.00000000000E+00 -0.00000000000E+00 -0.64999999231E+04  0.65000000000E+04  0.10000000000E+01 0.  0.
    9000001    1    1    2    0    0  0.42784282656E+04  0.44893413457E+04 -0.19470143444E+04  0.65000000000E+04  0.10000000000E+01 0.  0.
    9000001    1    1    2    0    0 -0.42784282656E+04 -0.44893413457E+04  0.19470143444E+04  0.65000000000E+04  0.10000000000E+01 0.  0.
</event>
<event>
 4    1  0.2193160E-006  0.1300000E+05  0.7957747E-01  0.1322471E+00
    9000001   -1    0    0    0    0  0.00000000000E+00  0.00000000000E+00  0.64999999231E+04  0.65000000000E+04  0.10000000000E+01 0.  0.
    9000001   -1    0    0    0    0 -0.00000000000E+00 -0.00000000000E+00 -0.64999999231E+04  0.65000000000E+04  0.10000000000E+01 0.  0.
    9000001    1    1    2    0    0 -0.49645420893E+03  0.62097231395E+04 -0.18554974397E+04  0.65000000000E+04  0.10000000000E+01 0.  0.
    9000001    1    1    2    0    0  0.49645420893E+03 -0.62097231395E+04  0.18554974397E+04  0.65000000000E+04  0.10000000000E+01 0.  0.
</event>
<event>
 4    1  0.2193160E-006  0.1300000E+05  0.7957747E-01  0.1322471E+00
    9000001   -1    0    0    0    0  0.00000000000E+00  0.00000000000E+00  0.64999999231E+04  0.65000000000E+04  0.10000000000E+01 0.  0.
    9000001   -1    0    0    0    0 -0.00000000000E+00 -0.00000000000E+00 -0.64999999231E+04  0.65000000000E+04  0.10000000000E+01 0.  0.
    9000001    1    1    2    0    0  0.33787104707E+04  0.43770256328E+03 -0.55355876853E+04  0.65000000000E+04  0.10000000000E+01 0.  0.
    9000001    1    1    2    0    0 -0.33787104707E+04 -0.43770256328E+03  0.55355876853E+04  0.65000000000E+04  0.10000000000E+01 0.  0.
</event>
<event>
 4    1  0.2193160E-006  0.1300000E+05  0.7957747E-01  0.1322471E+00
    9000001   -1    0    0    0    0  0.00000000000E+00  0.00000000000E+00  0.64999999231E+04  0.65000000000E+04  0.10000000000E+01 0.  0.
    9000001   -1    0    0    0    0 -0.00000000000E+00 -0.00000000000E+00 -0.64999999231E+04  0.65000000000E+04  0.10000000000E+01 0.  0.
    9000001    1    1    2    0    0 -0.24846705716E+04 -0.50124893957E+04 -0.33092840931E+04  0.65000000000E+04  0.10000000000E+01 0.  0.
    9000001    1    1    2    0    0  0.24846705716E+04  0.50124893957E+04  0.33092840931E+04  0.65000000000E+04  0.10000000000E+01 0.  0.
</event>
<event>
 4    1  0.2193160E-006  0.1300000E+05  0.7957747E-01  0.1322471E+00
    9000001   -1    0    0    0    0  0.00000000000E+00  0.00000000000E+00  0.64999999231E+04  0.65000000000E+04  0.10000000000E+01 0.  0.
    9000001   -1    0    0    0    0 -0.00000000000E+00 -0.00000000000E+00 -0.64999999231E+04  0.65000000000E+04  0.10000000000E+01 0.  0.
    9000001    1    1    2    0    0 -0.21851777247E+03 -0.23705395681E+03 -0.64919992610E+04  0.65000000000E+04  0.10000000000E+01 0.  0.
    9000001    1    1    2    0    0  0.21851777247E+03  0.23705395681E+03  0.64919992610E+04  0.65000000000E+04  0.10000000000E+01 0.  0.
</event>
<event>
 4    1  0.2193160E-006  0.1300000E+05  0.7957747E-01  0.1322471E+00
    9000001   -1    0    0    0    0  0.00000000000E+00  0.00000000000E+00  0.64999999231E+04  0.65000000000E+04  0.10000000000E+01 0.  0.
    9000001   -1    0    0    0    0 -0.00000000000E+00 -0.00000000000E+00 -0.64999999231E+04  0.65000000000E+04  0.10000000000E+01 0.  0.
    9000001    1    1    2    0    0  0.37703221450E+04  0.18696515797E+04 -0.49536928542E+04  0.65000000000E+04  0.10000000000E+01 0.  0.
    9000001    1    1    2    0    0 -0.37703221450E+04 -0.18696515797E+04  0.49536928542E+04  0.65000000000E+04  0.10000000000E+01 0.  0.
</event>
<event>
 4    1  0.2193160E-006  0.1300000E+05  0.7957747E-01  0.1322471E+00
    9000001   -1    0    0    0    0  0.00000000000E+00  0.00000000000E+00  0.64999999231E+04  0.65000000000E+04  0.10000000000E+01 0.  0.
    9000001   -1    0    0    0    0 -0.00000000000E+00 -0.00000000000E+00 -0.64999999231E+04  0.65000000000E+04  0.10000000000E+01 0.  0.
    9000001    1    1    2    0    0  0.48661360719E+04 -0.38122311276E+04 -0.20093811384E+04  0.65000000000E+04  0.10000000000E+01 0.  0.
    9000001    1    1    2    0    0 -0.48661360719E+04  0.38122311276E+04  0.20093811384E+04  0.65000000000E+04  0.10000000000E+01 0.  0.
</event>
<event>
 4    1  0.2193160E-006  0.1300000E+05  0.7957747E-01  0.1322471E+00
    9000001   -1    0    0    0    0  0.00000000000E+00  0.00000000000E+00  0.64999999231E+04  0.65000000000E+04  0.10000000000E+01 0.  0.
    9000001   -1    0    0    0    0 -0.00000000000E+00 -0.00000000000E+00 -0.64999999231E+04  0.65000000000E+04  0.10000000000E+01 0.  0.
    9000001    1    1    2    0    0 -0.20573004674E+04 -0.56282883098E+04  0.25179127247E+04  0.65000000000E+04  0.10000000000E+01 0.  0.
    9000001    1    1    2    0    0  0.20573004674E+04  0.56282883098E+04 -0.25179127247E+04  0.65000000000E+04  0.10000000000E+01 0.  0.
</event>
<event>
 4    1  0.2193160E-006  0.1300000E+05  0.7957747E-01  0.1322471E+00
    9000001   -1    0    0    0    0  0.00000000000E+00  0.00000000000E+00  0.64999999231E+04  0.65000000000E+04  0.10000000000E+01 0.  0.
    9000001   -1    0    0    0    0 -0.00000000000E+00 -0.00000000000E+00 -0.64999999231E+04  0.65000000000E+04  0.10000000000E+01 0.  0.
    9000001    1    1    2    0    0  0.35939761281E+04 -0.38501398959E+04 -0.38091675433E+04  0.65000000000E+04  0.10000000000E+01 0.  0.
    9000001    1    1    2    0    0 -0.35939761281E+04  0.38501398959E+04  0.38091675433E+04  0.65000000000E+04  0.10000000000E+01 0.  0.
</event>
<event>
 4    1  0.2193160E-006  0.1300000E+05  0.7957747E-01  0.1322471E+00
    9000001   -1    0    0    0    0  0.00000000000E+00  0.00000000000E+00  0.64999999231E+04  0.65000000000E+04  0.10000000000E+01 0.  0.
    9000001   -1    0    0    0    0 -0.00000000000E+00 -0.00000000000E+00 -0.64999999231E+04  0.65000000000E+04  0.10000000000E+01 0.  0.
    9000001    1    1    2    0    0 -0.35956064090E+04 -0.99473518063E+03  0.53227920748E+04  0.65000000000E+04  0.10000000000E+01 0.  0.
    9000001    1    1    2    0    0  0.35956064090E+04  0.99473518063E+03 -0.53227920748E+04  0.65000000000E+04  0.10000000000E+01 0.  0.
</event>
<event>
 4    1  0.2193160E-006  0.1300000E+05  0.7957747E-01  0.1322471E+00
    9000001   -1    0    0    0    0  0.00000000000E+00  0.00000000000E+00  0.64999999231E+04  0.65000000000E+04  0.10000000000E+01 0.  0.
    9000001   -1    0    0    0    0 -0.00000000000E+00 -0.00000000000E+00 -0.64999999231E+04  0.65000000000E+04  0.10000000000E+01 0.  0.
    9000001    1    1    2    0    0  0.32953080259E+03  0.44492053706E+04 -0.47271534797E+04  0.65000000000E+04  0.10000000000E+01 0.  0.
    9000001    1    1    2    0    0 -0.32953080259E+03 -0.44492053706E+04  0.47271534797E+04  0.65000000000E+04  0.10000000000E+01 0.  0.
</event>
<event>
 4    1  0.2193160E-006  0.1300000E+05  0.7957747E-01  0.1322471E+00
    9000001   -1    0    0    0    0  0.00000000000E+00  0.00000000000E+00  0.64999999231E+04  0.65000000000E+04  0.10000000000E+01 0.  0.
    9000001   -1    0    0    0    0 -0.00000000000E+00 -0.00000000000E+00 -0.64999999231E+04  0.65000000000E+04  0.10000000000E+01 0.  0.
    9000001    1    1    2    0    0  0.41236341098E+04  0.27906683516E+04  0.41782545255E+04  0.65000000000E+04  0.10000000000E+01 0.  0.
    9000001    1    1    2    0    0 -0.41236341098E+04 -0.27906683516E+04 -0.41782545255E+04  0.65000000000E+04  0.10000000000E+01 0.  0.
</event>
<event>
 4    1  0.2193160E-006  0.1300000E+05  0.7957747E-01  0.1322471E+00
    9000001   -1    0    0    0    0  0.00000000000E+00  0.00000000000E+00  0.64999999231E+04  0.65000000000E+04  0.10000000000E+01 0.  0.
    9000001   -1    0    0    0    0 -0.00000000000E+00 -0.00000000000E+00 -0.64999999231E+04  0.65000000000E+04  0.10000000000E+01 0.  0.
    9000001    1    1    2    0    0  0.21840591801E+04  0.14290280728E+04  0.59529625621E+04  0.65000000000E+04  0.10000000000E+01 0.  0.
    9000001    1    1    2    0    0 -0.21840591801E+04 -0.14290280728E+04 -0.59529625621E+04  0.65000000000E+04  0.10000000000E+01 0.  0.
</event>
<event>
 4    1  0.2193160E-006  0.1300000E+05  0.7957747E-01  0.1322471E+00
    9000001   -1    0    0    0    0  0.00000000000E+00  0.00000000000E+00  0.64999999231E+04  0.65000000000E+04  0.10000000000E+01 0.  0.
    9000001   -1    0    0    0    0 -0.00000000000E+00 -0.00000000000E+00 -0.64999999231E+04  0.65000000000E+04  0.10000000000E+01 0.  0.
    9000001    1    1    2    0    0 -0.14370082372E+04 -0.13887789570E+04  0.61851676885E+04  0.65000000000E+04  0.10000000000E+01 0.  0.
    9000001    1    1    2    0    0  0.14370082372E+04  0.13887789570E+04 -0.61851676885E+04  0.65000000000E+04  0.10000000000E+01 0.  0.
</event>
<event>
 4    1  0.2193160E-006  0.1300000E+05  0.7957747E-01  0.1322471E+00
    9000001   -1    0    0    0    0  0.00000000000E+00  0.00000000000E+00  0.64999999231E+04  0.65000000000E+04  0.10000000000E+01 0.  0.
    9000001   -1    0    0    0    0 -0.00000000000E+00 -0.00000000000E+00 -0.64999999231E+04  0.65000000000E+04  0.10000000000E+01 0.  0.
    9000001    1    1    2    0    0 -0.11210971626E+04 -0.62859751635E+04  0.12164112777E+04  0.65000000000E+04  0.10000000000E+01 0.  0.
    9000001    1    1    2    0    0  0.11210971626E+04  0.62859751635E+04 -0.12164112777E+04  0.65000000000E+04  0.10000000000E+01 0.  0.
</event>
<event>
 4    1  0.2193160E-006  0.1300000E+05  0.7957747E-01  0.1322471E+00
    9000001   -1    0    0    0    0  0.00000000000E+00  0.00000000000E+00  0.64999999231E+04  0.65000000000E+04  0.10000000000E+01 0.  0.
    9000001   -1    0    0    0    0 -0.00000000000E+00 -0.00000000000E+00 -0.64999999231E+04  0.65000000000E+04  0.10000000000E+01 0.  0.
    9000001    1    1    2    0    0  0.17363082190E+04 -0.59416807030E+04  0.19828422006E+04  0.65000000000E+04  0.10000000000E+01 0.  0.
    9000001    1    1    2    0    0 -0.17363082190E+04  0.59416807030E+04 -0.19828422006E+04  0.65000000000E+04  0.10000000000E+01 0.  0.
</event>
<event>
 4    1  0.2193160E-006  0.1300000E+05  0.7957747E-01  0.1322471E+00
    9000001   -1    0    0    0    0  0.00000000000E+00  0.00000000000E+00  0.64999999231E+04  0.65000000000E+04  0.10000000000E+01 0.  0.
    9000001   -1    0    0    0    0 -0.00000000000E+00 -0.00000000000E+00 -0.64999999231E+04  0.65000000000E+04  0.10000000000E+01 0.  0.
    9000001    1    1    2    0    0 -0.43811458685E+03 -0.53444175009E+04 -0.36735890059E+04  0.65000000000E+04  0.10000000000E+01 0.  0.
    9000001    1    1    2    0    0  0.43811458685E+03  0.53444175009E+04  0.36735890059E+04  0.65000000000E+04  0.10000000000E+01 0.  0.
</event>
<event>
 4    1  0.2193160E-006  0.1300000E+05  0.7957747E-01  0.1322471E+00
    9000001   -1    0    0    0    0  0.00000000000E+00  0.00000000000E+00  0.64999999231E+04  0.65000000000E+04  0.10000000000E+01 0.  0.
    9000001   -1    0    0    0    0 -0.00000000000E+00 -0.00000000000E+00 -0.64999999231E+04  0.65000000000E+04  0.10000000000E+01 0.  0.
    9000001    1    1    2    0    0 -0.31795067414E+04 -0.26969885017E+04  0.49866811512E+04  0.65000000000E+04  0.10000000000E+01 0.  0.
    9000001    1    1    2    0    0  0.31795067414E+04  0.26969885017E+04 -0.49866811512E+04  0.65000000000E+04  0.10000000000E+01 0.  0.
</event>
<event>
 4    1  0.2193160E-006  0.1300000E+05  0.7957747E-01  0.1322471E+00
    9000001   -1    0    0    0    0  0.00000000000E+00  0.00000000000E+00  0.64999999231E+04  0.65000000000E+04  0.10000000000E+01 0.  0.
    9000001   -1    0    0    0    0 -0.00000000000E+00 -0.00000000000E+00 -0.64999999231E+04  0.65000000000E+04  0.10000000000E+01 0.  0.
    9000001    1    1    2    0    0  0.19101831331E+04 -0.45324539478E+04 -0.42494776866E+04  0.65000000000E+04  0.10000000000E+01 0.  0.
    9000001    1    1    2    0    0 -0.19101831331E+04  0.45324539478E+04  0.42494776866E+04  0.65000000000E+04  0.10000000000E+01 0.  0.
</event>
<event>
 4    1  0.2193160E-006  0.1300000E+05  0.7957747E-01  0.1322471E+00
    9000001   -1    0    0    0    0  0.00000000000E+00  0.00000000000E+00  0.64999999231E+04  0.65000000000E+04  0.10000000000E+01 0.  0.
    9000001   -1    0    0    0    0 -0.00000000000E+00 -0.00000000000E+00 -0.64999999231E+04  0.65000000000E+04  0.10000000000E+01 0.  0.
    9000001    1    1    2    0    0  0.30527929875E+04  0.48068766726E+03  0.57183383375E+04  0.65000000000E+04  0.10000000000E+01 0.  0.
    9000001    1    1    2    0    0 -0.30527929875E+04 -0.48068766726E+03 -0.57183383375E+04  0.65000000000E+04  0.10000000000E+01 0.  0.
</event>
<event>
 4    1  0.2193160E-006  0.1300000E+05  0.7957747E-01  0.1322471E+00
    9000001   -1    0    0    0    0  0.00000000000E+00  0.00000000000E+00  0.64999999231E+04  0.65000000000E+04  0.10000000000E+01 0.  0.
    9000001   -1    0    0    0    0 -0.00000000000E+00 -0.00000000000E+00 -0.64999999231E+04  0.65000000000E+04  0.10000000000E+01 0.  0.
    9000001    1    1    2    0    0 -0.52486920709E+04 -0.32834522787E+04  0.19799423422E+04  0.65000000000E+04  0.10000000000E+01 0.  0.
    9000001    1    1    2    0    0  0.52486920709E+04  0.32834522787E+04 -0.19799423422E+04  0.65000000000E+04  0.10000000000E+01 0.  0.
</event>
<event>
 4    1  0.2193160E-006  0.1300000E+05  0.7957747E-01  0.1322471E+00
    9000001   -1    0    0    0    0  0.00000000000E+00  0.00000000000E+00  0.64999999231E+04  0.65000000000E+04  0.10000000000E+01 0.  0.
    9000001   -1    0    0    0    0 -0.00000000000E+00 -0.00000000000E+00 -0.64999999231E+04  0.65000000000E+04  0.10000000000E+01 0.  0.
    9000001    1    1    2    0    0 -0.60261936822E+04 -0.50665759330E+03 -0.23829156065E+04  0.65000000000E+04  0.10000000000E+01 0.  0.
    9000001    1    1    2    0    0  0.60261936822E+04  0.50665759330E+03  0.23829156065E+04  0.65000000000E+04  0.10000000000E+01 0.  0.
</event>
<event>
 4    1  0.2193160E-006  0.1300000E+05  0.7957747E-01  0.1322471E+00
    9000001   -1    0    0    0    0  0.00000000000E+00  0.00000000000E+00  0.64999999231E+04  0.65000000000E+04  0.10000000000E+01 0.  0.
    9000001   -1    0    0    0    0 -0.00000000000E+00 -0.00000000000E+00 -0.64999999231E+04  0.65000000000E+04  0.10000000000E+01 0.  0.
    9000001    1    1    2    0    0 -0.33198643410E+04  0.14701719749E+04  0.53913907409E+04  0.65000000000E+04  0.10000000000E+01 0.  0.
    9000001    1    1    2    0    0  0.33198643410E+04 -0.14701719749E+04 -0.53913907409E+04  0.65000000000E+04  0.10000000000E+01 0.  0.
</event>
<event>
 4    1  0.2193160E-006  0.1300000E+05  0.7957747E-01  0.1322471E+00
    9000001   -1    0    0    0    0  0.00000000000E+00  0.00000000000E+00  0.64999999231E+04  0.65000000000E+04  0.10000000000E+01 0.  0.
    9000001   -1    0    0    0    0 -0.00000000000E+00 -0.00000000000E+00 -0.64999999231E+04  0.65000000000E+04  0.10000000000E+01 0.  0.
    9000001    1    1    2    0    0  0.17953432555E+04 -0.28719520733E+04  0.55478493927E+04  0.65000000000E+04  0.10000000000E+01 0.  0.
    9000001    1    1    2    0    0 -0.17953432555E+04  0.28719520733E+04 -0.55478493927E+04  0.65000000000E+04  0.10000000000E+01 0.  0.
</event>
<event>
 4    1  0.2193160E-006  0.1300000E+05  0.7957747E-01  0.1322471E+00
    9000001   -1    0    0    0    0  0.00000000000E+00  0.00000000000E+00  0.64999999231E+04  0.65000000000E+04  0.10000000000E+01 0.  0.
    9000001   -1    0    0    0    0 -0.00000000000E+00 -0.00000000000E+00 -0.64999999231E+04  0.65000000000E+04  0.10000000000E+01 0.  0.
    9000001    1    1    2    0    0 -0.55519398806E+04  0.33754571909E+04  0.17958650828E+03  0.65000000000E+04  0.10000000000E+01 0.  0.
    9000001    1    1    2    0    0  0.55519398806E+04 -0.33754571909E+04 -0.17958650828E+03  0.65000000000E+04  0.10000000000E+01 0.  0.
</event>
<event>
 4    1  0.2193160E-006  0.1300000E+05  0.7957747E-01  0.1322471E+00
    9000001   -1    0    0    0    0  0.00000000000E+00  0.00000000000E+00  0.64999999231E+04  0.65000000000E+04  0.10000000000E+01 0.  0.
    9000001   -1    0    0    0    0 -0.00000000000E+00 -0.00000000000E+00 -0.64999999231E+04  0.65000000000E+04  0.10000000000E+01 0.  0.
    9000001    1    1    2    0    0  0.39367918592E+04  0.27512044881E+04 -0.43797879768E+04  0.65000000000E+04  0.10000000000E+01 0.  0.
    9000001    1    1    2    0    0 -0.39367918592E+04 -0.27512044881E+04  0.43797879768E+04  0.65000000000E+04  0.10000000000E+01 0.  0.
</event>
<event>
 4    1  0.2193160E-006  0.1300000E+05  0.7957747E-01  0.1322471E+00
    9000001   -1    0    0    0    0  0.00000000000E+00  0.00000000000E+00  0.64999999231E+04  0.65000000000E+04  0.10000000000E+01 0.  0.
    9000001   -1    0    0    0    0 -0.00000000000E+00 -0.00000000000E+00 -0.64999999231E+04  0.65000000000E+04  0.10000000000E+01 0.  0.
    9000001    1    1    2    0    0 -0.70767350019E+03  0.41440994080E+04 -0.49573821029E+04  0.65000000000E+04  0.10000000000E+01 0.  0.
    9000001    1    1    2    0    0  0.70767350019E+03 -0.41440994080E+04  0.49573821029E+04  0.65000000000E+04  0.10000000000E+01 0.  0.
</event>
<event>
 4    1  0.2193160E-006  0.1300000E+05  0.7957747E-01  0.1322471E+00
    9000001   -1    0    0    0    0  0.00000000000E+00  0.00000000000E+00  0.64999999231E+04  0.65000000000E+04  0.10000000000E+01 0.  0.
    9000001   -1    0    0    0    0 -0.00000000000E+00 -0.00000000000E+00 -0.64999999231E+04  0.65000000000E+04  0.10000000000E+01 0.  0.
    9000001    1    1    2    0    0  0.39487544287E+04  0.51170850037E+04 -0.68758892293E+03  0.65000000000E+04  0.10000000000E+01 0.  0.
    9000001    1    1    2    0    0 -0.39487544287E+04 -0.51170850037E+04  0.68758892293E+03  0.65000000000E+04  0.10000000000E+01 0.  0.
</event>
<event>
 4    1  0.2193160E-006  0.1300000E+05  0.7957747E-01  0.1322471E+00
    9000001   -1    0    0    0    0  0.00000000000E+00  0.00000000000E+00  0.64999999231E+04  0.65000000000E+04  0.10000000000E+01 0.  0.
    9000001   -1    0    0    0    0 -0.00000000000E+00 -0.00000000000E+00 -0.64999999231E+04  0.65000000000E+04  0.10000000000E+01 0.  0.
    9000001    1    1    2    0    0 -0.32847788418E+04  0.44743836932E+03 -0.55910666125E+04  0.65000000000E+04  0.10000000000E+01 0.  0.
    9000001    1    1    2    0    0  0.32847788418E+04 -0.44743836932E+03  0.55910666125E+04  0.65000000000E+04  0.10000000000E+01 0.  0.
</event>
<event>
 4    1  0.2193160E-006  0.1300000E+05  0.7957747E-01  0.1322471E+00
    9000001   -1    0    0    0    0  0.00000000000E+00  0.00000000000E+00  0.64999999231E+04  0.65000000000E+04  0.10000000000E+01 0.  0.
    9000001   -1    0    0    0    0 -0.00000000000E+00 -0.00000000000E+00 -0.64999999231E+04  0.65000000000E+04  0.10000000000E+01 0.  0.
    9000001    1    1    2    0    0 -0.12848756010E+04 -0.23825225056E+04 -0.59095414543E+04  0.65000000000E+04  0.10000000000E+01 0.  0.
    9000001    1    1    2    0    0  0.12848756010E+04  0.23825225056E+04  0.59095414543E+04  0.65000000000E+04  0.10000000000E+01 0.  0.
</event>
<event>
 4    1  0.2193160E-006  0.1300000E+05  0.7957747E-01  0.1322471E+00
    9000001   -1    0    0    0    0  0.00000000000E+00  0.00000000000E+00  0.64999999231E+04  0.65000000000E+04  0.10000000000E+01 0.  0.
    9000001   -1    0    0    0    0 -0.00000000000E+00 -0.00000000000E+00 -0.64999999231E+04  0.65000000000E+04  0.10000000000E+01 0.  0.
    9000001    1    1    2    0    0 -0.48293689457E+04  0.26887988669E+04  0.34201688904E+04  0.65000000000E+04  0.10000000000E+01 0.  0.
    9000001    1    1    2    0    0  0.48293689457E+04 -0.26887988669E+04 -0.34201688904E+04  0.65000000000E+04  0.10000000000E+01 0.  0.
</event>
<event>
 4    1  0.2193160E-006  0.1300000E+05  0.7957747E-01  0.1322471E+00
    9000001   -1    0    0    0    0  0.00000000000E+00  0.00000000000E+00  0.64999999231E+04  0.65000000000E+04  0.10000000000E+01 0.  0.
    9000001   -1    0    0    0    0 -0.00000000000E+00 -0.00000000000E+00 -0.64999999231E+04  0.65000000000E+04  0.10000000000E+01 0.  0.
    9000001    1    1    2    0    0 -0.48822803076E+03  0.98903240030E+03  0.64057355004E+04  0.65000000000E+04  0.10000000000E+01 0.  0.
    9000001    1    1    2    0    0  0.48822803076E+03 -0.98903240030E+03 -0.64057355004E+04  0.65000000000E+04  0.10000000000E+01 0.  0.
</event>
<event>
 4    1  0.2193160E-006  0.1300000E+05  0.7957747E-01  0.1322471E+00
    9000001   -1    0    0    0    0  0.00000000000E+00  0.00000000000E+00  0.64999999231E+04  0.65000000000E+04  0.10000000000E+01 0.  0.
    9000001   -1    0    0    0    0 -0.00000000000E+00 -0.00000000000E+00 -0.64999999231E+04  0.65000000000E+04  0.10000000000E+01 0.  0.
    9000001    1    1    2    0    0  0.38779608066E+04  0.34306940690E+04 -0.39296001307E+04  0.65000000000E+04  0.10000000000E+01 0.  0.
    9000001    1    1    2    0    0 -0.38779608066E+04 -0.34306940690E+04  0.39296001307E+04  0.65000000000E+04  0.10000000000E+01 0.  0.
</event>
<event>
 4    1  0.2193160E-006  0.1300000E+05  0.7957747E-01  0.1322471E+00
    9000001   -1    0    0    0    0  0.00000000000E+00  0.00000000000E+00  0.64999999231E+04  0.65000000000E+04  0.10000000000E+01 0.  0.
    9000001   -1    0    0    0    0 -0.00000000000E+00 -0.00000000000E+00 -0.64999999231E+04  0.65000000000E+04  0.10000000000E+01 0.  0.
    9000001    1    1    2    0    0 -0.31951677508E+04  0.39346360483E+04  0.40693416189E+04  0.65000000000E+04  0.10000000000E+01 0.  0.
    9000001    1    1    2    0    0  0.31951677508E+04 -0.39346360483E+04 -0.40693416189E+04  0.65000000000E+04  0.10000000000E+01 0.  0.
</event>
<event>
 4    1  0.2193160E-006  0.1300000E+05  0.7957747E-01  0.1322471E+00
    9000001   -1    0    0    0    0  0.00000000000E+00  0.00000000000E+00  0.64999999231E+04  0.65000000000E+04  0.10000000000E+01 0.  0.
    9000001   -1    0    0    0    0 -0.00000000000E+00 -0.00000000000E+00 -0.64999999231E+04  0.65000000000E+04  0.10000000000E+01 0.  0.
    9000001    1    1    2    0    0  0.93267792966E+03  0.62092949054E+04 -0.16807045122E+04  0.65000000000E+04  0.10000000000E+01 0.  0.
    9000001    1    1    2    0    0 -0.93267792966E+03 -0.62092949054E+04  0.16807045122E+04  0.65000000000E+04  0.10000000000E+01 0.  0.
</event>
<event>
 4    1  0.2193160E-006  0.1300000E+05  0.7957747E-01  0.1322471E+00
    9000001   -1    0    0    0    0  0.00000000000E+00  0.00000000000E+00  0.64999999231E+04  0.65000000000E+04  0.10000000000E+01 0.  0.
    9000001   -1    0    0    0    0 -0.00000000000E+00 -0.00000000000E+00 -0.64999999231E+04  0.65000000000E+04  0.10000000000E+01 0.  0.
    9000001    1    1    2    0    0  0.47795706756E+04  0.14389238092E+04  0.41635563438E+04  0.65000000000E+04  0.10000000000E+01 0.  0.
    9000001    1    1    2    0    0 -0.47795706756E+04 -0.14389238092E+04 -0.41635563438E+04  0.65000000000E+04  0.10000000000E+01 0.  0.
</event>
<event>
 4    1  0.2193160E-006  0.1300000E+05  0.7957747E-01  0.1322471E+00
    9000001   -1    0    0    0    0  0.00000000000E+00  0.00000000000E+00  0.64999999231E+04  0.65000000000E+04  0.10000000000E+01 0.  0.
    9000001   -1    0    0    0    0 -0.00000000000E+00 -0.00000000000E+00 -0.64999999231E+04  0.65000000000E+04  0.10000000000E+01 0.  0.
    9000001    1    1    2    0    0 -0.25352848261E+04 -0.25656736893E+04  0.54073698200E+04  0.65000000000E+04  0.10000000000E+01 0.  0.
    9000001    1    1    2    0    0  0.25352848261E+04  0.25656736893E+04 -0.54073698200E+04  0.65000000000E+04  0.10000000000E+01 0.  0.
</event>
<event>
 4    1  0.2193160E-006  0.1300000E+05  0.7957747E-01  0.1322471E+00
    9000001   -1    0    0    0    0  0.00000000000E+00  0.00000000000E+00  0.64999999231E+04  0.65000000000E+04  0.10000000000E+01 0.  0.
    9000001   -1    0    0    0    0 -0.00000000000E+00 -0.00000000000E+00 -0.64999999231E+04  0.65000000000E+04  0.10000000000E+01 0.  0.
    9000001    1    1    2    0    0 -0.42033889122E+04 -0.35623395865E+03  0.49451610711E+04  0.65000000000E+04  0.10000000000E+01 0.  0.
    9000001    1    1    2    0    0  0.42033889122E+04  0.35623395865E+03 -0.49451610711E+04  0.65000000000E+04  0.10000000000E+01 0.  0.
</event>
<event>
 4    1  0.2193160E-006  0.1300000E+05  0.7957747E-01  0.1322471E+00
    9000001   -1    0    0    0    0  0.00000000000E+00  0.00000000000E+00  0.64999999231E+04  0.65000000000E+04  0.10000000000E+01 0.  0.
    9000001   -1    0    0    0    0 -0.00000000000E+00 -0.00000000000E+00 -0.64999999231E+04  0.65000000000E+04  0.10000000000E+01 0.  0.
    9000001    1    1    2    0    0 -0.27857455091E+04  0.46621279944E+04 -0.35712999765E+04  0.65000000000E+04  0.10000000000E+01 0.  0.
    9000001    1    1    2    0    0  0.27857455091E+04 -0.46621279944E+04  0.35712999765E+04  0.65000000000E+04  0.10000000000E+01 0.  0.
</event>
<event>
 4    1  0.2193160E-006  0.1300000E+05  0.7957747E-01  0.1322471E+00
    9000001   -1    0    0    0    0  0.00000000000E+00  0.00000000000E+00  0.64999999231E+04  0.65000000000E+04  0.10000000000E+01 0.  0.
    9000001   -1    0    0    0    0 -0.00000000000E+00 -0.00000000000E+00 -0.64999999231E+04  0.65000000000E+04  0.10000000000E+01 0.  0.
    9000001    1    1    2    0    0 -0.42876116286E+04 -0.42677542613E+04 -0.23775321423E+04  0.65000000000E+04  0.10000000000E+01 0.  0.
    9000001    1    1    2    0    0  0.42876116286E+04  0.42677542613E+04  0.23775321423E+04  0.65000000000E+04  0.10000000000E+01 0.  0.
</event>
<event>
 4    1  0.2193160E-006  0.1300000E+05  0.7957747E-01  0.1322471E+00
    9000001   -1    0    0    0    0  0.00000000000E+00  0.00000000000E+00  0.64999999231E+04  0.65000000000E+04  0.10000000000E+01 0.  0.
    9000001   -1    0    0    0    0 -0.00000000000E+00 -0.00000000000E+00 -0.64999999231E+04  0.65000000000E+04  0.10000000000E+01 0.  0.
    9000001    1    1    2    0    0 -0.47293030326E+03 -0.52256919973E+04  0.38364670047E+04  0.65000000000E+04  0.10000000000E+01 0.  0.
    9000001    1    1    2    0    0  0.47293030326E+03  0.52256919973E+04 -0.38364670047E+04  0.65000000000E+04  0.10000000000E+01 0.  0.
</event>
<event>
 4    1  0.2193160E-006  0.1300000E+05  0.7957747E-01  0.1322471E+00
    9000001   -1    0    0    0    0  0.00000000000E+00  0.00000000000E+00  0.64999999231E+04  0.65000000000E+04  0.10000000000E+01 0.  0.
    9000001   -1    0    0    0    0 -0.00000000000E+00 -0.00000000000E+00 -0.64999999231E+04  0.65000000000E+04  0.10000000000E+01 0.  0.
    9000001    1    1    2    0    0  0.67475510919E+03 -0.36287525390E+04  0.53504074194E+04  0.65000000000E+04  0.10000000000E+01 0.  0.
    9000001    1    1    2    0    0 -0.67475510919E+03  0.36287525390E+04 -0.53504074194E+04  0.65000000000E+04  0.10000000000E+01 0.  0.
</event>
<event>
 4    1  0.2193160E-006  0.1300000E+05  0.7957747E-01  0.1322471E+00
    9000001   -1    0    0    0    0  0.00000000000E+00  0.00000000000E+00  0.64999999231E+04  0.65000000000E+04  0.10000000000E+01 0.  0.
    9000001   -1    0    0    0    0 -0.00000000000E+00 -0.00000000000E+00 -0.64999999231E+04  0.65000000000E+04  0.10000000000E+01 0.  0.
    9000001    1    1    2    0    0  0.10453207618E+04 -0.26899656882E+03 -0.64097538448E+04  0.65000000000E+04  0.10000000000E+01 0.  0.
    9000001    1    1    2    0    0 -0.10453207618E+04  0.26899656882E+03  0.64097538448E+04  0.65000000000E+04  0.10000000000E+01 0.  0.
</event>
<event>
 4    1  0.2193160E-006  0.1300000E+05  0.7957747E-01  0.1322471E+00
    9000001   -1    0    0    0    0  0.00000000000E+00  0.00000000000E+00  0.64999999231E+04  0.65000000000E+04  0.10000000000E+01 0.  0.
    9000001   -1    0    0    0    0 -0.00000000000E+00 -0.00000000000E+00 -0.64999999231E+04  0.65000000000E+04  0.10000000000E+01 0.  0.
    9000001    1    1    2    0    0 -0.24154621167E+04  0.21291877898E+04  0.56464237459E+04  0.65000000000E+04  0.10000000000E+01 0.  0.
    9000001    1    1    2    0    0  0.24154621167E+04 -0.21291877898E+04 -0.56464237459E+04  0.65000000000E+04  0.10000000000E+01 0.  0.
</event>
<event>
 4    1  0.2193160E-006  0.1300000E+05  0.7957747E-01  0.1322471E+00
    9000001   -1    0    0    0    0  0.00000000000E+00  0.00000000000E+00  0.64999999231E+04  0.65000000000E+04  0.10000000000E+01 0.  0.
    9000001   -1    0    0    0    0 -0.00000000000E+00 -0.00000000000E+00 -0.64999999231E+04  0.65000000000E+04  0.10000000000E+01 0.  0.
    9000001    1    1    2    0    0  0.45546448189E+03  0.53739396277E+04  0.36281295434E+04  0.65000000000E+04  0.10000000000E+01 0.  0.
    9000001    1    1    2    0    0 -0.45546448189E+03 -0.53739396277E+04 -0.36281295434E+04  0.65000000000E+04  0.10000000000E+01 0.  0.
</event>
<event>
 4    1  0.2193160E-006  0.1300000E+05  0.7957747E-01  0.1322471E+00
    9000001   -1    0    0    0    0  0.00000000000E+00  0.00000000000E+00  0.64999999231E+04  0.65000000000E+04  0.10000000000E+01 0.  0.
    9000001   -1    0    0    0    0 -0.00000000000E+00 -0.00000000000E+00 -0.64999999231E+04  0.65000000000E+04  0.10000000000E+01 0.  0.
    9000001    1    1    2    0    0  0.47077265802E+04 -0.44380079334E+04 -0.62561572025E+03  0.65000000000E+04  0.10000000000E+01 0.  0.
    9000001    1    1    2    0    0 -0.47077265802E+04  0.44380079334E+04  0.62561572025E+03  0.65000000000E+04  0.10000000000E+01 0.  0.
</event>
<event>
 4    1  0.2193160E-006  0.1300000E+05  0.7957747E-01  0.1322471E+00
    9000001   -1    0    0    0    0  0.00000000000E+00  0.00000000000E+00  0.64999999231E+04  0.65000000000E+04  0.10000000000E+01 0.  0.
    9000001   -1    0    0    0    0 -0.00000000000E+00 -0.00000000000E+00 -0.64999999231E+04  0.65000000000E+04  0.10000000000E+01 0.  0.
    9000001    1    1    2    0    0  0.61298849933E+04 -0.21513852185E+04 -0.21459406025E+03  0.65000000000E+04  0.10000000000E+01 0.  0.
    9000001    1    1    2    0    0 -0.61298849933E+04  0.21513852185E+04  0.21459406025E+03  0.65000000000E+04  0.10000000000E+01 0.  0.
</event>
<event>
 4    1  0.2193160E-006  0.1300000E+05  0.7957747E-01  0.1322471E+00
    9000001   -1    0    0    0    0  0.00000000000E+00  0.00000000000E+00  0.64999999231E+04  0.65000000000E+04  0.10000000000E+01 0.  0.
    9000001   -1    0    0    0    0 -0.00000000000E+00 -0.00000000000E+00 -0.64999999231E+04  0.65000000000E+04  0.10000000000E+01 0.  0.
    9000001    1    1    2    0    0 -0.39435648362E+04 -0.34178716941E+04 -0.38751062521E+04  0.65000000000E+04  0.10000000000E+01 0.  0.
    9000001    1    1    2    0    0  0.39435648362E+04  0.34178716941E+04  0.38751062521E+04  0.65000000000E+04  0.10000000000E+01 0.  0.
</event>
<event>
 4    1  0.2193160E-006  0.1300000E+05  0.7957747E-01  0.1322471E+00
    9000001   -1    0    0    0    0  0.00000000000E+00  0.00000000000E+00  0.64999999231E+04  0.65000000000E+04  0.10000000000E+01 0.  0.
    9000001   -1    0    0    0    0 -0.00000000000E+00 -0.00000000000E+00 -0.64999999231E+04  0.65000000000E+04  0.10000000000E+01 0.  0.
    9000001    1    1    2    0    0  0.36665085068E+04 -0.22702470939E+04 -0.48634033867E+04  0.65000000000E+04  0.10000000000E+01 0.  0.
    9000001    1    1    2    0    0 -0.36665085068E+04  0.22702470939E+04  0.48634033867E+04  0.65000000000E+04  0.10000000000E+01 0.  0.
</event>
<event>
 4    1  0.2193160E-006  0.1300000E+05  0.7957747E-01  0.1322471E+00
    9000001   -1    0    0    0    0  0.00000000000E+00  0.00000000000E+00  0.64999999231E+04  0.65000000000E+04  0.10000000000E+01 0.  0.
    9000001   -1    0    0    0    0 -0.00000000000E+00 -0.00000000000E+00 -0.64999999231E+04  0.65000000000E+04  0.10000000000E+01 0.  0.
    9000001    1    1    2    0    0  0.48898643889E+04 -0.33963481805E+04 -0.26084563050E+04  0.65000000000E+04  0.10000000000E+01 0.  0.
    9000001    1    1    2    0    0 -0.48898643889E+04  0.33963481805E+04  0.26084563050E+04  0.65000000000E+04  0.10000000000E+01 0.  0.
</event>
<event>
 4    1  0.2193160E-006  0.1300000E+05  0.7957747E-01  0.1322471E+00
    9000001   -1    0    0    0    0  0.00000000000E+00  0.00000000000E+00  0.64999999231E+04  0.65000000000E+04  0.10000000000E+01 0.  0.
    9000001   -1    0    0    0    0 -0.00000000000E+00 -0.00000000000E+00 -0.64999999231E+04  0.65000000000E+04  0.10000000000E+01 0.  0.
    9000001    1    1    2    0    0 -0.59746166921E+04 -0.22893673228E+04  0.11457537451E+04  0.65000000000E+04  0.10000000000E+01 0.  0.
    9000001    1    1    2    0    0  0.59746166921E+04  0.22893673228E+04 -0.11457537451E+04  0.65000000000E+04  0.10000000000E+01 0.  0.
</event>
<event>
 4    1  0.2193160E-006  0.1300000E+05  0.7957747E-01  0.1322471E+00
    9000001   -1    0    0    0    0  0.00000000000E+00  0.00000000000E+00  0.64999999231E+04  0.65000000000E+04  0.10000000000E+01 0.  0.
    9000001   -1    0    0    0    0 -0.00000000000E+00 -0.00000000000E+00 -0.64999999231E+04  0.65000000000E+04  0.10000000000E+01 0.  0.
    9000001    1    1    2    0    0  0.11528235257E+04  0.56765122845E+04  0.29492719783E+04  0.65000000000E+04  0.10000000000E+01 0.  0.
    9000001    1    1    2    0    0 -0.11528235257E+04 -0.56765122845E+04 -0.29492719783E+04  0.65000000000E+04  0.10000000000E+01 0.  0.
</event>
<event>
 4    1  0.2193160E-006  0.1300000E+05  0.7957747E-01  0.1322471E+00
    9000001   -1    0    0    0    0  0.00000000000E+00  0.00000000000E+00  0.64999999231E+04  0.65000000000E+04  0.10000000000E+01 0.  0.
    9000001   -1    0    0    0    0 -0.00000000000E+00 -0.00000000000E+00 -0.64999999231E+04  0.65000000000E+04  0.10000000000E+01 0.  0.
    9000001    1    1    2    0    0  0.40553604004E+04  0.49740873166E+04  0.10307795058E+04  0.65000000000E+04  0.10000000000E+01 0.  0.
    9000001    1    1    2    0    0 -0.40553604004E+04 -0.49740873166E+04 -0.10307795058E+04  0.65000000000E+04  0.10000000000E+01 0.  0.
</event>
<event>
 4    1  0.2193160E-006  0.1300000E+05  0.7957747E-01  0.1322471E+00
    9000001   -1    0    0    0    0  0.00000000000E+00  0.00000000000E+00  0.64999999231E+04  0.65000000000E+04  0.10000000000E+01 0.  0.
    9000001   -1    0    0    0    0 -0.00000000000E+00 -0.00000000000E+00 -0.64999999231E+04  0.65000000000E+04  0.10000000000E+01 0.  0.
    9000001    1    1    2    0    0 -0.80862234268E+03 -0.53650192837E+04 -0.35794827827E+04  0.65000000000E+04  0.10000000000E+01 0.  0.
    9000001    1    1    2    0    0  0.80862234268E+03  0.53650192837E+04  0.35794827827E+04  0.65000000000E+04  0.10000000000E+01 0.  0.
</event>
<event>
 4    1  0.2193160E-006  0.1300000E+05  0.7957747E-01  0.1322471E+00
    9000001   -1    0    0    0    0  0.00000000000E+00  0.00000000000E+00  0.64999999231E+04  0.65000000000E+04  0.10000000000E+01 0.  0.
    9000001   -1    0    0    0    0 -0.00000000000E+00 -0.00000000000E+00 -0.64999999231E+04  0.65000000000E+04  0.10000000000E+01 0.  0.
    9000001    1    1    2    0    0 -0.38244916038E+03 -0.60173573399E+04 -0.24279914094E+04  0.65000000000E+04  0.10000000000E+01 0.  0.
    9000001    1    1    2    0    0  0.38244916038E+03  0.60173573399E+04  0.24279914094E+04  0.65000000000E+04  0.10000000000E+01 0.  0.
</event>
<event>
 4    1  0.2193160E-006  0.1300000E+05  0.7957747E-01  0.1322471E+00
    9000001   -1    0    0    0    0  0.00000000000E+00  0.00000000000E+00  0.64999999231E+04  0.65000000000E+04  0.10000000000E+01 0.  0.
    9000001   -1    0    0    0    0 -0.00000000000E+00 -0.00000000000E+00 -0.64999999231E+04  0.65000000000E+04  0.10000000000E+01 0.  0.
    9000001    1    1    2    0    0  0.40210147202E+04 -0.40838007177E+04  0.30665960474E+04  0.65000000000E+04  0.10000000000E+01 0.  0.
    9000001    1    1    2    0    0 -0.40210147202E+04  0.40838007177E+04 -0.30665960474E+04  0.65000000000E+04  0.10000000000E+01 0.  0.
</event>
<event>
 4    1  0.2193160E-006  0.1300000E+05  0.7957747E-01  0.1322471E+00
    9000001   -1    0    0    0    0  0.00000000000E+00  0.00000000000E+00  0.64999999231E+04  0.65000000000E+04  0.10000000000E+01 0.  0.
    9000001   -1    0    0    0    0 -0.00000000000E+00 -0.00000000000E+00 -0.64999999231E+04  0.65000000000E+04  0.10000000000E+01 0.  0.
    9000001    1    1    2    0    0 -0.60100692735E+04  0.20369782005E+04  0.14070487336E+04  0.65000000000E+04  0.10000000000E+01 0.  0.
    9000001    1    1    2    0    0  0.60100692735E+04 -0.20369782005E+04 -0.14070487336E+04  0.65000000000E+04  0.10000000000E+01 0.  0.
</event>
<event>
 4    1  0.2193160E-006  0.1300000E+05  0.7957747E-01  0.1322471E+00
    9000001   -1    0    0    0    0  0.00000000000E+00  0.00000000000E+00  0.64999999231E+04  0.65000000000E+04  0.10000000000E+01 0.  0.
    9000001   -1    0    0    0    0 -0.00000000000E+00 -0.00000000000E+00 -0.64999999231E+04  0.65000000000E+04  0.10000000000E+01 0.  0.
    9000001    1    1    2    0    0  0.60021828334E+04  0.23609576156E+04  0.80602690553E+03  0.65000000000E+04  0.10000000000E+01 0.  0.
    9000001    1    1    2    0    0 -0.60021828334E+04 -0.23609576156E+04 -0.80602690553E+03  0.65000000000E+04  0.10000000000E+01 0.  0.
</event>
<event>
 4    1  0.2193160E-006  0.1300000E+05  0.7957747E-01  0.1322471E+00
    9000001   -1    0    0    0    0  0.00000000000E+00  0.00000000000E+00  0.64999999231E+04  0.65000000000E+04  0.10000000000E+01 0.  0.
    9000001   -1    0    0    0    0 -0.00000000000E+00 -0.00000000000E+00 -0.64999999231E+04  0.65000000000E+04  0.10000000000E+01 0.  0.
    9000001    1    1    2    0    0 -0.23232334082E+04 -0.76452670870E+03 -0.60222989334E+04  0.65000000000E+04  0.10000000000E+01 0.  0.
    9000001    1    1    2    0    0  0.23232334082E+04  0.76452670870E+03  0.60222989334E+04  0.65000000000E+04  0.10000000000E+01 0.  0.
</event>
<event>
 4    1  0.2193160E-006  0.1300000E+05  0.7957747E-01  0.1322471E+00
    9000001   -1    0    0    0    0  0.00000000000E+00  0.00000000000E+00  0.64999999231E+04  0.65000000000E+04  0.10000000000E+01 0.  0.
    9000001   -1    0    0    0    0 -0.00000000000E+00 -0.00000000000E+00 -0.64999999231E+04  0.65000000000E+04  0.10000000000E+01 0.  0.
    9000001    1    1    2    0    0 -0.89940550796E+02  0.37286844585E+03 -0.64886731170E+04  0.65000000000E+04  0.10000000000E+01 0.  0.
    9000001    1    1    2    0    0  0.89940550796E+02 -0.37286844585E+03  0.64886731170E+04  0.65000000000E+04  0.10000000000E+01 0.  0.
</event>
<event>
 4    1  0.2193160E-006  0.1300000E+05  0.7957747E-01  0.1322471E+00
    9000001   -1    0    0    0    0  0.00000000000E+00  0.00000000000E+00  0.64999999231E+04  0.65000000000E+04  0.10000000000E+01 0.  0.
    9000001   -1    0    0    0    0 -0.00000000000E+00 -0.00000000000E+00 -0.64999999231E+04  0.65000000000E+04  0.10000000000E+01 0.  0.
    9000001    1    1    2    0    0 -0.39690802232E+04 -0.51440296609E+04 -0.18804262648E+03  0.65000000000E+04  0.10000000000E+01 0.  0.
    9000001    1    1    2    0    0  0.39690802232E+04  0.51440296609E+04  0.18804262648E+03  0.65000000000E+04  0.10000000000E+01 0.  0.
</event>
<event>
 4    1  0.2193160E-006  0.1300000E+05  0.7957747E-01  0.1322471E+00
    9000001   -1    0    0    0    0  0.00000000000E+00  0.00000000000E+00  0.64999999231E+04  0.65000000000E+04  0.10000000000E+01 0.  0.
    9000001   -1    0    0    0    0 -0.00000000000E+00 -0.00000000000E+00 -0.64999999231E+04  0.65000000000E+04  0.10000000000E+01 0.  0.
    9000001    1    1    2    0    0  0.39280754396E+04 -0.41422506898E+04  0.31083728161E+04  0.65000000000E+04  0.10000000000E+01 0.  0.
    9000001    1    1    2    0    0 -0.39280754396E+04  0.41422506898E+04 -0.31083728161E+04  0.65000000000E+04  0.10000000000E+01 0.  0.
</event>
<event>
 4    1  0.2193160E-006  0.1300000E+05  0.7957747E-01  0.1322471E+00
    9000001   -1    0    0    0    0  0.00000000000E+00  0.00000000000E+00  0.64999999231E+04  0.65000000000E+04  0.10000000000E+01 0.  0.
    9000001   -1    0    0    0    0 -0.00000000000E+00 -0.00000000000E+00 -0.64999999231E+04  0.65000000000E+04  0.10000000000E+01 0.  0.
    9000001    1    1    2    0    0  0.32186494402E+04  0.55955738775E+04  0.76147735474E+03  0.65000000000E+04  0.10000000000E+01 0.  0.
    9000001    1    1    2    0    0 -0.32186494402E+04 -0.55955738775E+04 -0.76147735474E+03  0.65000000000E+04  0.10000000000E+01 0.  0.
</event>
<event>
 4    1  0.2193160E-006  0.1300000E+05  0.7957747E-01  0.1322471E+00
    9000001   -1    0    0    0    0  0.00000000000E+00  0.00000000000E+00  0.64999999231E+04  0.65000000000E+04  0.10000000000E+01 0.  0.
    9000001   -1    0    0    0    0 -0.00000000000E+00 -0.00000000000E+00 -0.64999999231E+04  0.65000000000E+04  0.10000000000E+01 0.  0.
    9000001    1    1    2    0    0  0.55225398850E+04  0.70115321514E+03 -0.33555828684E+04  0.65000000000E+04  0.10000000000E+01 0.  0.
    9000001    1    1    2    0    0 -0.55225398850E+04 -0.70115321514E+03  0.33555828684E+04  0.65000000000E+04  0.10000000000E+01 0.  0.
</event>
<event>
 4    1  0.2193160E-006  0.1300000E+05  0.7957747E-01  0.1322471E+00
    9000001   -1    0    0    0    0  0.00000000000E+00  0.00000000000E+00  0.64999999231E+04  0.65000000000E+04  0.10000000000E+01 0.  0.
    9000001   -1    0    0    0    0 -0.00000000000E+00 -0.00000000000E+00 -0.64999999231E+04  0.65000000000E+04  0.10000000000E+01 0.  0.
    9000001    1    1    2    0    0  0.28786018106E+04 -0.23935164365E+04  0.53136362017E+04  0.65000000000E+04  0.10000000000E+01 0.  0.
    9000001    1    1    2    0    0 -0.28786018106E+04  0.23935164365E+04 -0.53136362017E+04  0.65000000000E+04  0.10000000000E+01 0.  0.
</event>
<event>
 4    1  0.2193160E-006  0.1300000E+05  0.7957747E-01  0.1322471E+00
    9000001   -1    0    0    0    0  0.00000000000E+00  0.00000000000E+00  0.64999999231E+04  0.65000000000E+04  0.10000000000E+01 0.  0.
    9000001   -1    0    0    0    0 -0.00000000000E+00 -0.00000000000E+00 -0.64999999231E+04  0.65000000000E+04  0.10000000000E+01 0.  0.
    9000001    1    1    2    0    0  0.37951712871E+03  0.32572680483E+04 -0.56121449207E+04  0.65000000000E+04  0.10000000000E+01 0.  0.
    9000001    1    1    2    0    0 -0.37951712871E+03 -0.32572680483E+04  0.56121449207E+04  0.65000000000E+04  0.10000000000E+01 0.  0.
</event>
<event>
 4    1  0.2193160E-006  0.1300000E+05  0.7957747E-01  0.1322471E+00
    9000001   -1    0    0    0    0  0.00000000000E+00  0.00000000000E+00  0.64999999231E+04  0.65000000000E+04  0.10000000000E+01 0.  0.
    9000001   -1    0    0    0    0 -0.00000000000E+00 -0.00000000000E+00 -0.64999999231E+04  0.65000000000E+04  0.10000000000E+01 0.  0.
    9000001    1    1    2    0    0  0.19019245000E+04  0.58962541617E+04 -0.19664356225E+04  0.65000000000E+04  0.10000000000E+01 0.  0.
    9000001    1    1    2    0    0 -0.19019245000E+04 -0.58962541617E+04  0.19664356225E+04  0.65000000000E+04  0.10000000000E+01 0.  0.
</event>
<event>
 4    1  0.2193160E-006  0.1300000E+05  0.7957747E-01  0.1322471E+00
    9000001   -1    0    0    0    0  0.00000000000E+00  0.00000000000E+00  0.64999999231E+04  0.65000000000E+04  0.10000000000E+01 0.  0.
    9000001   -1    0    0    0    0 -0.00000000000E+00 -0.00000000000E+00 -0.64999999231E+04  0.65000000000E+04  0.10000000000E+01 0.  0.
    9000001    1    1    2    0    0  0.61855424917E+04 -0.15458726894E+04  0.12646504305E+04  0.65000000000E+04  0.10000000000E+01 0.  0.
    9000001    1    1    2    0    0 -0.61855424917E+04  0.15458726894E+04 -0.12646504305E+04  0.65000000000E+04  0.10000000000E+01 0.  0.
</event>
<event>
 4    1  0.2193160E-006  0.1300000E+05  0.7957747E-01  0.1322471E+00
    9000001   -1    0    0    0    0  0.00000000000E+00  0.00000000000E+00  0.64999999231E+04  0.65000000000E+04  0.10000000000E+01 0.  0.
    9000001   -1    0    0    0    0 -0.00000000000E+00 -0.00000000000E+00 -0.64999999231E+04  0.65000000000E+04  0.10000000000E+01 0.  0.
    9000001    1    1    2    0    0  0.62365422553E+04 -0.17909041417E+04 -0.38497019830E+03  0.65000000000E+04  0.10000000000E+01 0.  0.
    9000001    1    1    2    0    0 -0.62365422553E+04  0.17909041417E+04  0.38497019830E+03  0.65000000000E+04  0.10000000000E+01 0.  0.
</event>
<event>
 4    1  0.2193160E-006  0.1300000E+05  0.7957747E-01  0.1322471E+00
    9000001   -1    0    0    0    0  0.00000000000E+00  0.00000000000E+00  0.64999999231E+04  0.65000000000E+04  0.10000000000E+01 0.  0.
    9000001   -1    0    0    0    0 -0.00000000000E+00 -0.00000000000E+00 -0.64999999231E+04  0.65000000000E+04  0.10000000000E+01 0.  0.
    9000001    1    1    2    0    0 -0.29589868487E+04 -0.46744476622E+04  0.34123210403E+04  0.65000000000E+04  0.10000000000E+01 0.  0.
    9000001    1    1    2    0    0  0.29589868487E+04  0.46744476622E+04 -0.34123210403E+04  0.65000000000E+04  0.10000000000E+01 0.  0.
</event>
<event>
 4    1  0.2193160E-006  0.1300000E+05  0.7957747E-01  0.1322471E+00
    9000001   -1    0    0    0    0  0.00000000000E+00  0.00000000000E+00  0.64999999231E+04  0.65000000000E+04  0.10000000000E+01 0.  0.
    9000001   -1    0    0    0    0 -0.00000000000E+00 -0.00000000000E+00 -0.64999999231E+04  0.65000000000E+04  0.10000000000E+01 0.  0.
    9000001    1    1    2    0    0  0.59653160450E+04  0.79261962141E+03  0.24569814039E+04  0.65000000000E+04  0.10000000000E+01 0.  0.
    9000001    1    1    2    0    0 -0.59653160450E+04 -0.79261962141E+03 -0.24569814039E+04  0.65000000000E+04  0.10000000000E+01 0.  0.
</event>
<event>
 4    1  0.2193160E-006  0.1300000E+05  0.7957747E-01  0.1322471E+00
    9000001   -1    0    0    0    0  0.00000000000E+00  0.00000000000E+00  0.64999999231E+04  0.65000000000E+04  0.10000000000E+01 0.  0.
    9000001   -1    0    0    0    0 -0.00000000000E+00 -0.00000000000E+00 -0.64999999231E+04  0.65000000000E+04  0.10000000000E+01 0.  0.
    9000001    1    1    2    0    0 -0.13229957329E+04 -0.60797812232E+04  0.18804099469E+04  0.65000000000E+04  0.10000000000E+01 0.  0.
    9000001    1    1    2    0    0  0.13229957329E+04  0.60797812232E+04 -0.18804099469E+04  0.65000000000E+04  0.10000000000E+01 0.  0.
</event>
<event>
 4    1  0.2193160E-006  0.1300000E+05  0.7957747E-01  0.1322471E+00
    9000001   -1    0    0    0    0  0.00000000000E+00  0.00000000000E+00  0.64999999231E+04  0.65000000000E+04  0.10000000000E+01 0.  0.
    9000001   -1    0    0    0    0 -0.00000000000E+00 -0.00000000000E+00 -0.64999999231E+04  0.65000000000E+04  0.10000000000E+01 0.  0.
    9000001    1    1    2    0    0  0.41160998797E+04 -0.36897630328E+04 -0.34195569219E+04  0.65000000000E+04  0.10000000000E+01 0.  0.
    9000001    1    1    2    0    0 -0.41160998797E+04  0.36897630328E+04  0.34195569219E+04  0.65000000000E+04  0.10000000000E+01 0.  0.
</event>
<event>
 4    1  0.2193160E-006  0.1300000E+05  0.7957747E-01  0.1322471E+00
    9000001   -1    0    0    0    0  0.00000000000E+00  0.00000000000E+00  0.64999999231E+04  0.65000000000E+04  0.10000000000E+01 0.  0.
    9000001   -1    0    0    0    0 -0.00000000000E+00 -0.00000000000E+00 -0.64999999231E+04  0.65000000000E+04  0.10000000000E+01 0.  0.
    9000001    1    1    2    0    0  0.12913484989E+04  0.56633926660E+04 -0.29169164481E+04  0.65000000000E+04  0.10000000000E+01 0.  0.
    9000001    1    1    2    0    0 -0.12913484989E+04 -0.56633926660E+04  0.29169164481E+04  0.65000000000E+04  0.10000000000E+01 0.  0.
</event>
<event>
 4    1  0.2193160E-006  0.1300000E+05  0.7957747E-01  0.1322471E+00
    9000001   -1    0    0    0    0  0.00000000000E+00  0.00000000000E+00  0.64999999231E+04  0.65000000000E+04  0.10000000000E+01 0.  0.
    9000001   -1    0    0    0    0 -0.00000000000E+00 -0.00000000000E+00 -0.64999999231E+04  0.65000000000E+04  0.10000000000E+01 0.  0.
    9000001    1    1    2    0    0 -0.26460147829E+04  0.21556592957E+04 -0.55318837451E+04  0.65000000000E+04  0.10000000000E+01 0.  0.
    9000001    1    1    2    0    0  0.26460147829E+04 -0.21556592957E+04  0.55318837451E+04  0.65000000000E+04  0.10000000000E+01 0.  0.
</event>
<event>
 4    1  0.2193160E-006  0.1300000E+05  0.7957747E-01  0.1322471E+00
    9000001   -1    0    0    0    0  0.00000000000E+00  0.00000000000E+00  0.64999999231E+04  0.65000000000E+04  0.10000000000E+01 0.  0.
    9000001   -1    0    0    0    0 -0.00000000000E+00 -0.00000000000E+00 -0.64999999231E+04  0.65000000000E+04  0.10000000000E+01 0.  0.
    9000001    1    1    2    0    0  0.60770868165E+04  0.43480610094E+03 -0.22649411646E+04  0.65000000000E+04  0.10000000000E+01 0.  0.
    9000001    1    1    2    0    0 -0.60770868165E+04 -0.43480610094E+03  0.22649411646E+04  0.65000000000E+04  0.10000000000E+01 0.  0.
</event>
<event>
 4    1  0.2193160E-006  0.1300000E+05  0.7957747E-01  0.1322471E+00
    9000001   -1    0    0    0    0  0.00000000000E+00  0.00000000000E+00  0.64999999231E+04  0.65000000000E+04  0.10000000000E+01 0.  0.
    9000001   -1    0    0    0    0 -0.00000000000E+00 -0.00000000000E+00 -0.64999999231E+04  0.65000000000E+04  0.10000000000E+01 0.  0.
    9000001    1    1    2    0    0 -0.17971715346E+04 -0.40641312491E+04  0.47437338316E+04  0.65000000000E+04  0.10000000000E+01 0.  0.
    9000001    1    1    2    0    0  0.17971715346E+04  0.40641312491E+04 -0.47437338316E+04  0.65000000000E+04  0.10000000000E+01 0.  0.
</event>
<event>
 4    1  0.2193160E-006  0.1300000E+05  0.7957747E-01  0.1322471E+00
    9000001   -1    0    0    0    0  0.00000000000E+00  0.00000000000E+00  0.64999999231E+04  0.65000000000E+04  0.10000000000E+01 0.  0.
    9000001   -1    0    0    0    0 -0.00000000000E+00 -0.00000000000E+00 -0.64999999231E+04  0.65000000000E+04  0.10000000000E+01 0.  0.
    9000001    1    1    2    0    0  0.20958274764E+04  0.15423371849E+04  0.59564001039E+04  0.65000000000E+04  0.10000000000E+01 0.  0.
    9000001    1    1    2    0    0 -0.20958274764E+04 -0.15423371849E+04 -0.59564001039E+04  0.65000000000E+04  0.10000000000E+01 0.  0.
</event>
<event>
 4    1  0.2193160E-006  0.1300000E+05  0.7957747E-01  0.1322471E+00
    9000001   -1    0    0    0    0  0.00000000000E+00  0.00000000000E+00  0.64999999231E+04  0.65000000000E+04  0.10000000000E+01 0.  0.
    9000001   -1    0    0    0    0 -0.00000000000E+00 -0.00000000000E+00 -0.64999999231E+04  0.65000000000E+04  0.10000000000E+01 0.  0.
    9000001    1    1    2    0    0  0.57819655707E+04 -0.23235939741E+04  0.18492658497E+04  0.65000000000E+04  0.10000000000E+01 0.  0.
    9000001    1    1    2    0    0 -0.57819655707E+04  0.23235939741E+04 -0.18492658497E+04  0.65000000000E+04  0.10000000000E+01 0.  0.
</event>
<event>
 4    1  0.2193160E-006  0.1300000E+05  0.7957747E-01  0.1322471E+00
    9000001   -1    0    0    0    0  0.00000000000E+00  0.00000000000E+00  0.64999999231E+04  0.65000000000E+04  0.10000000000E+01 0.  0.
    9000001   -1    0    0    0    0 -0.00000000000E+00 -0.00000000000E+00 -0.64999999231E+04  0.65000000000E+04  0.10000000000E+01 0.  0.
    9000001    1    1    2    0    0  0.32026053145E+04  0.53210662485E+04  0.19182210973E+04  0.65000000000E+04  0.10000000000E+01 0.  0.
    9000001    1    1    2    0    0 -0.32026053145E+04 -0.53210662485E+04 -0.19182210973E+04  0.65000000000E+04  0.10000000000E+01 0.  0.
</event>
<event>
 4    1  0.2193160E-006  0.1300000E+05  0.7957747E-01  0.1322471E+00
    9000001   -1    0    0    0    0  0.00000000000E+00  0.00000000000E+00  0.64999999231E+04  0.65000000000E+04  0.10000000000E+01 0.  0.
    9000001   -1    0    0    0    0 -0.00000000000E+00 -0.00000000000E+00 -0.64999999231E+04  0.65000000000E+04  0.10000000000E+01 0.  0.
    9000001    1    1    2    0    0 -0.51833739290E+04  0.37624767554E+04  0.11074305292E+04  0.65000000000E+04  0.10000000000E+01 0.  0.
    9000001    1    1    2    0    0  0.51833739290E+04 -0.37624767554E+04 -0.11074305292E+04  0.65000000000E+04  0.10000000000E+01 0.  0.
</event>
<event>
 4    1  0.2193160E-006  0.1300000E+05  0.7957747E-01  0.1322471E+00
    9000001   -1    0    0    0    0  0.00000000000E+00  0.00000000000E+00  0.64999999231E+04  0.65000000000E+04  0.10000000000E+01 0.  0.
    9000001   -1    0    0    0    0 -0.00000000000E+00 -0.00000000000E+00 -0.64999999231E+04  0.65000000000E+04  0.10000000000E+01 0.  0.
    9000001    1    1    2    0    0 -0.24856462594E+04  0.58689384584E+04  0.12755873334E+04  0.65000000000E+04  0.10000000000E+01 0.  0.
    9000001    1    1    2    0    0  0.24856462594E+04 -0.58689384584E+04 -0.12755873334E+04  0.65000000000E+04  0.10000000000E+01 0.  0.
</event>
<event>
 4    1  0.2193160E-006  0.1300000E+05  0.7957747E-01  0.1322471E+00
    9000001   -1    0    0    0    0  0.00000000000E+00  0.00000000000E+00  0.64999999231E+04  0.65000000000E+04  0.10000000000E+01 0.  0.
    9000001   -1    0    0    0    0 -0.00000000000E+00 -0.00000000000E+00 -0.64999999231E+04  0.65000000000E+04  0.10000000000E+01 0.  0.
    9000001    1    1    2    0    0  0.47769973596E+04 -0.18489756817E+04  0.40014477574E+04  0.65000000000E+04  0.10000000000E+01 0.  0.
    9000001    1    1    2    0    0 -0.47769973596E+04  0.18489756817E+04 -0.40014477574E+04  0.65000000000E+04  0.10000000000E+01 0.  0.
</event>
<event>
 4    1  0.2193160E-006  0.1300000E+05  0.7957747E-01  0.1322471E+00
    9000001   -1    0    0    0    0  0.00000000000E+00  0.00000000000E+00  0.64999999231E+04  0.65000000000E+04  0.10000000000E+01 0.  0.
    9000001   -1    0    0    0    0 -0.00000000000E+00 -0.00000000000E+00 -0.64999999231E+04  0.65000000000E+04  0.10000000000E+01 0.  0.
    9000001    1    1    2    0    0  0.23003277240E+04  0.53785031384E+04  0.28337599321E+04  0.65000000000E+04  0.10000000000E+01 0.  0.
    9000001    1    1    2    0    0 -0.23003277240E+04 -0.53785031384E+04 -0.28337599321E+04  0.65000000000E+04  0.10000000000E+01 0.  0.
</event>
<event>
 4    1  0.2193160E-006  0.1300000E+05  0.7957747E-01  0.1322471E+00
    9000001   -1    0    0    0    0  0.00000000000E+00  0.00000000000E+00  0.64999999231E+04  0.65000000000E+04  0.10000000000E+01 0.  0.
    9000001   -1    0    0    0    0 -0.00000000000E+00 -0.00000000000E+00 -0.64999999231E+04  0.65000000000E+04  0.10000000000E+01 0.  0.
    9000001    1    1    2    0    0 -0.22280326736E+04 -0.42885889428E+04 -0.43467084426E+04  0.65000000000E+04  0.10000000000E+01 0.  0.
    9000001    1    1    2    0    0  0.22280326736E+04  0.42885889428E+04  0.43467084426E+04  0.65000000000E+04  0.10000000000E+01 0.  0.
</event>
<event>
 4    1  0.2193160E-006  0.1300000E+05  0.7957747E-01  0.1322471E+00
    9000001   -1    0    0    0    0  0.00000000000E+00  0.00000000000E+00  0.64999999231E+04  0.65000000000E+04  0.10000000000E+01 0.  0.
    9000001   -1    0    0    0    0 -0.00000000000E+00 -0.00000000000E+00 -0.64999999231E+04  0.65000000000E+04  0.10000000000E+01 0.  0.
    9000001    1    1    2    0    0  0.91705268830E+03  0.25453393301E+04 -0.59101828281E+04  0.65000000000E+04  0.10000000000E+01 0.  0.
    9000001    1    1    2    0    0 -0.91705268830E+03 -0.25453393301E+04  0.59101828281E+04  0.65000000000E+04  0.10000000000E+01 0.  0.
</event>
<event>
 4    1  0.2193160E-006  0.1300000E+05  0.7957747E-01  0.1322471E+00
    9000001   -1    0    0    0    0  0.00000000000E+00  0.00000000000E+00  0.64999999231E+04  0.65000000000E+04  0.10000000000E+01 0.  0.
    9000001   -1    0    0    0    0 -0.00000000000E+00 -0.00000000000E+00 -0.64999999231E+04  0.65000000000E+04  0.10000000000E+01 0.  0.
    9000001    1    1    2    0    0  0.32896527568E+04 -0.34030747133E+04  0.44550270745E+04  0.65000000000E+04  0.10000000000E+01 0.  0.
    9000001    1    1    2    0    0 -0.32896527568E+04  0.34030747133E+04 -0.44550270745E+04  0.65000000000E+04  0.10000000000E+01 0.  0.
</event>
<event>
 4    1  0.2193160E-006  0.1300000E+05  0.7957747E-01  0.1322471E+00
    9000001   -1    0    0    0    0  0.00000000000E+00  0.00000000000E+00  0.64999999231E+04  0.65000000000E+04  0.10000000000E+01 0.  0.
    9000001   -1    0    0    0    0 -0.00000000000E+00 -0.00000000000E+00 -0.64999999231E+04  0.65000000000E+04  0.10000000000E+01 0.  0.
    9000001    1    1    2    0    0 -0.54574897953E+04  0.35241568519E+04  0.21476176914E+03  0.65000000000E+04  0.10000000000E+01 0.  0.
    9000001    1    1    2    0    0  0.54574897953E+04 -0.35241568519E+04 -0.21476176914E+03  0.65000000000E+04  0.10000000000E+01 0.  0.
</event>
<event>
 4    1  0.2193160E-006  0.1300000E+05  0.7957747E-01  0.1322471E+00
    9000001   -1    0    0    0    0  0.00000000000E+00  0.00000000000E+00  0.64999999231E+04  0.65000000000E+04  0.10000000000E+01 0.  0.
    9000001   -1    0    0    0    0 -0.00000000000E+00 -0.00000000000E+00 -0.64999999231E+04  0.65000000000E+04  0.10000000000E+01 0.  0.
    9000001    1    1    2    0    0 -0.27325364595E+04  0.29028281986E+04 -0.51338905274E+04  0.65000000000E+04  0.10000000000E+01 0.  0.
    9000001    1    1    2    0    0  0.27325364595E+04 -0.29028281986E+04  0.51338905274E+04  0.65000000000E+04  0.10000000000E+01 0.  0.
</event>
<event>
 4    1  0.2193160E-006  0.1300000E+05  0.7957747E-01  0.1322471E+00
    9000001   -1    0    0    0    0  0.00000000000E+00  0.00000000000E+00  0.64999999231E+04  0.65000000000E+04  0.10000000000E+01 0.  0.
    9000001   -1    0    0    0    0 -0.00000000000E+00 -0.00000000000E+00 -0.64999999231E+04  0.65000000000E+04  0.10000000000E+01 0.  0.
    9000001    1    1    2    0    0  0.48857879321E+04 -0.49661777833E+03  0.42582209976E+04  0.65000000000E+04  0.10000000000E+01 0.  0.
    9000001    1    1    2    0    0 -0.48857879321E+04  0.49661777833E+03 -0.42582209976E+04  0.65000000000E+04  0.10000000000E+01 0.  0.
</event>
<event>
 4    1  0.2193160E-006  0.1300000E+05  0.7957747E-01  0.1322471E+00
    9000001   -1    0    0    0    0  0.00000000000E+00  0.00000000000E+00  0.64999999231E+04  0.65000000000E+04  0.10000000000E+01 0.  0.
    9000001   -1    0    0    0    0 -0.00000000000E+00 -0.00000000000E+00 -0.64999999231E+04  0.65000000000E+04  0.10000000000E+01 0.  0.
    9000001    1    1    2    0    0 -0.30564060785E+04 -0.57248608873E+04 -0.36653608845E+03  0.65000000000E+04  0.10000000000E+01 0.  0.
    9000001    1    1    2    0    0  0.30564060785E+04  0.57248608873E+04  0.36653608845E+03  0.65000000000E+04  0.10000000000E+01 0.  0.
</event>
<event>
 4    1  0.2193160E-006  0.1300000E+05  0.7957747E-01  0.1322471E+00
    9000001   -1    0    0    0    0  0.00000000000E+00  0.00000000000E+00  0.64999999231E+04  0.65000000000E+04  0.10000000000E+01 0.  0.
    9000001   -1    0    0    0    0 -0.00000000000E+00 -0.00000000000E+00 -0.64999999231E+04  0.65000000000E+04  0.10000000000E+01 0.  0.
    9000001    1    1    2    0    0 -0.22487530877E+04  0.59231490824E+04  0.14523820084E+04  0.65000000000E+04  0.10000000000E+01 0.  0.
    9000001    1    1    2    0    0  0.22487530877E+04 -0.59231490824E+04 -0.14523820084E+04  0.65000000000E+04  0.10000000000E+01 0.  0.
</event>
<event>
 4    1  0.2193160E-006  0.1300000E+05  0.7957747E-01  0.1322471E+00
    9000001   -1    0    0    0    0  0.00000000000E+00  0.00000000000E+00  0.64999999231E+04  0.65000000000E+04  0.10000000000E+01 0.  0.
    9000001   -1    0    0    0    0 -0.00000000000E+00 -0.00000000000E+00 -0.64999999231E+04  0.65000000000E+04  0.10000000000E+01 0.  0.
    9000001    1    1    2    0    0  0.19010014571E+04  0.43791331568E+04 -0.44112793218E+04  0.65000000000E+04  0.10000000000E+01 0.  0.
    9000001    1    1    2    0    0 -0.19010014571E+04 -0.43791331568E+04  0.44112793218E+04  0.65000000000E+04  0.10000000000E+01 0.  0.
</event>
<event>
 4    1  0.2193160E-006  0.1300000E+05  0.7957747E-01  0.1322471E+00
    9000001   -1    0    0    0    0  0.00000000000E+00  0.00000000000E+00  0.64999999231E+04  0.65000000000E+04  0.10000000000E+01 0.  0.
    9000001   -1    0    0    0    0 -0.00000000000E+00 -0.00000000000E+00 -0.64999999231E+04  0.65000000000E+04  0.10000000000E+01 0.  0.
    9000001    1    1    2    0    0  0.14930972438E+04  0.52500099967E+04  0.35295969537E+04  0.65000000000E+04  0.10000000000E+01 0.  0.
    9000001    1    1    2    0    0 -0.14930972438E+04 -0.52500099967E+04 -0.35295969537E+04  0.65000000000E+04  0.10000000000E+01 0.  0.
</event>
<event>
 4    1  0.2193160E-006  0.1300000E+05  0.7957747E-01  0.1322471E+00
    9000001   -1    0    0    0    0  0.00000000000E+00  0.00000000000E+00  0.64999999231E+04  0.65000000000E+04  0.10000000000E+01 0.  0.
    9000001   -1    0    0    0    0 -0.00000000000E+00 -0.00000000000E+00 -0.64999999231E+04  0.65000000000E+04  0.10000000000E+01 0.  0.
    9000001    1    1    2    0    0 -0.21115624072E+04  0.53101917197E+04 -0.30972838264E+04  0.65000000000E+04  0.10000000000E+01 0.  0.
    9000001    1    1    2    0    0  0.21115624072E+04 -0.53101917197E+04  0.30972838264E+04  0.65000000000E+04  0.10000000000E+01 0.  0.
</event>
<event>
 4    1  0.2193160E-006  0.1300000E+05  0.7957747E-01  0.1322471E+00
    9000001   -1    0    0    0    0  0.00000000000E+00  0.00000000000E+00  0.64999999231E+04  0.65000000000E+04  0.10000000000E+01 0.  0.
    9000001   -1    0    0    0    0 -0.00000000000E+00 -0.00000000000E+00 -0.64999999231E+04  0.65000000000E+04  0.10000000000E+01 0.  0.
    9000001    1    1    2    0    0 -0.64408813450E+04  0.67070015431E+03  0.56143370283E+03  0.65000000000E+04  0.10000000000E+01 0.  0.
    9000001    1    1    2    0    0  0.64408813450E+04 -0.67070015431E+03 -0.56143370283E+03  0.65000000000E+04  0.10000000000E+01 0.  0.
</event>
<event>
 4    1  0.2193160E-006  0.1300000E+05  0.7957747E-01  0.1322471E+00
    9000001   -1    0    0    0    0  0.00000000000E+00  0.00000000000E+00  0.64999999231E+04  0.65000000000E+04  0.10000000000E+01 0.  0.
    9000001   -1    0    0    0    0 -0.00000000000E+00 -0.00000000000E+00 -0.64999999231E+04  0.65000000000E+04  0.10000000000E+01 0.  0.
    9000001    1    1    2    0    0 -0.57615007016E+04  0.25888163755E+04 -0.15339942764E+04  0.65000000000E+04  0.10000000000E+01 0.  0.
    9000001    1    1    2    0    0  0.57615007016E+04 -0.25888163755E+04  0.15339942764E+04  0.65000000000E+04  0.10000000000E+01 0.  0.
</event>
<event>
 4    1  0.2193160E-006  0.1300000E+05  0.7957747E-01  0.1322471E+00
    9000001   -1    0    0    0    0  0.00000000000E+00  0.00000000000E+00  0.64999999231E+04  0.65000000000E+04  0.10000000000E+01 0.  0.
    9000001   -1    0    0    0    0 -0.00000000000E+00 -0.00000000000E+00 -0.64999999231E+04  0.65000000000E+04  0.10000000000E+01 0.  0.
    9000001    1    1    2    0    0  0.10615256899E+04  0.14939674064E+04  0.62362828350E+04  0.65000000000E+04  0.10000000000E+01 0.  0.
    9000001    1    1    2    0    0 -0.10615256899E+04 -0.14939674064E+04 -0.62362828350E+04  0.65000000000E+04  0.10000000000E+01 0.  0.
</event>
<event>
 4    1  0.2193160E-006  0.1300000E+05  0.7957747E-01  0.1322471E+00
    9000001   -1    0    0    0    0  0.00000000000E+00  0.00000000000E+00  0.64999999231E+04  0.65000000000E+04  0.10000000000E+01 0.  0.
    9000001   -1    0    0    0    0 -0.00000000000E+00 -0.00000000000E+00 -0.64999999231E+04  0.65000000000E+04  0.10000000000E+01 0.  0.
    9000001    1    1    2    0    0  0.12993781748E+04 -0.57798010152E+04 -0.26749795483E+04  0.65000000000E+04  0.10000000000E+01 0.  0.
    9000001    1    1    2    0    0 -0.12993781748E+04  0.57798010152E+04  0.26749795483E+04  0.65000000000E+04  0.10000000000E+01 0.  0.
</event>
<event>
 4    1  0.2193160E-006  0.1300000E+05  0.7957747E-01  0.1322471E+00
    9000001   -1    0    0    0    0  0.00000000000E+00  0.00000000000E+00  0.64999999231E+04  0.65000000000E+04  0.10000000000E+01 0.  0.
    9000001   -1    0    0    0    0 -0.00000000000E+00 -0.00000000000E+00 -0.64999999231E+04  0.65000000000E+04  0.10000000000E+01 0.  0.
    9000001    1    1    2    0    0 -0.59608372651E+04 -0.19618339969E+04 -0.16939968913E+04  0.65000000000E+04  0.10000000000E+01 0.  0.
    9000001    1    1    2    0    0  0.59608372651E+04  0.19618339969E+04  0.16939968913E+04  0.65000000000E+04  0.10000000000E+01 0.  0.
</event>
<event>
 4    1  0.2193160E-006  0.1300000E+05  0.7957747E-01  0.1322471E+00
    9000001   -1    0    0    0    0  0.00000000000E+00  0.00000000000E+00  0.64999999231E+04  0.65000000000E+04  0.10000000000E+01 0.  0.
    9000001   -1    0    0    0    0 -0.00000000000E+00 -0.00000000000E+00 -0.64999999231E+04  0.65000000000E+04  0.10000000000E+01 0.  0.
    9000001    1    1    2    0    0 -0.52725331520E+04  0.38011688472E+04 -0.38840132947E+02  0.65000000000E+04  0.10000000000E+01 0.  0.
    9000001    1    1    2    0    0  0.52725331520E+04 -0.38011688472E+04  0.38840132947E+02  0.65000000000E+04  0.10000000000E+01 0.  0.
</event>
<event>
 4    1  0.2193160E-006  0.1300000E+05  0.7957747E-01  0.1322471E+00
    9000001   -1    0    0    0    0  0.00000000000E+00  0.00000000000E+00  0.64999999231E+04  0.65000000000E+04  0.10000000000E+01 0.  0.
    9000001   -1    0    0    0    0 -0.00000000000E+00 -0.00000000000E+00 -0.64999999231E+04  0.65000000000E+04  0.10000000000E+01 0.  0.
    9000001    1    1    2    0    0  0.15865745030E+04 -0.48010991144E+04  0.40843882822E+04  0.65000000000E+04  0.10000000000E+01 0.  0.
    9000001    1    1    2    0    0 -0.15865745030E+04  0.48010991144E+04 -0.40843882822E+04  0.65000000000E+04  0.10000000000E+01 0.  0.
</event>
<event>
 4    1  0.2193160E-006  0.1300000E+05  0.7957747E-01  0.1322471E+00
    9000001   -1    0    0    0    0  0.00000000000E+00  0.00000000000E+00  0.64999999231E+04  0.65000000000E+04  0.10000000000E+01 0.  0.
    9000001   -1    0    0    0    0 -0.00000000000E+00 -0.00000000000E+00 -0.64999999231E+04  0.65000000000E+04  0.10000000000E+01 0.  0.
    9000001    1    1    2    0    0 -0.60008261290E+04  0.32254078309E+02  0.24978079277E+04  0.65000000000E+04  0.10000000000E+01 0.  0.
    9000001    1    1    2    0    0  0.60008261290E+04 -0.32254078309E+02 -0.24978079277E+04  0.65000000000E+04  0.10000000000E+01 0.  0.
</event>
<event>
 4    1  0.2193160E-006  0.1300000E+05  0.7957747E-01  0.1322471E+00
    9000001   -1    0    0    0    0  0.00000000000E+00  0.00000000000E+00  0.64999999231E+04  0.65000000000E+04  0.10000000000E+01 0.  0.
    9000001   -1    0    0    0    0 -0.00000000000E+00 -0.00000000000E+00 -0.64999999231E+04  0.65000000000E+04  0.10000000000E+01 0.  0.
    9000001    1    1    2    0    0 -0.41581040262E+04  0.49292339975E+04 -0.81413887358E+03  0.65000000000E+04  0.10000000000E+01 0.  0.
    9000001    1    1    2    0    0  0.41581040262E+04 -0.49292339975E+04  0.81413887358E+03  0.65000000000E+04  0.10000000000E+01 0.  0.
</event>
<event>
 4    1  0.2193160E-006  0.1300000E+05  0.7957747E-01  0.1322471E+00
    9000001   -1    0    0    0    0  0.00000000000E+00  0.00000000000E+00  0.64999999231E+04  0.65000000000E+04  0.10000000000E+01 0.  0.
    9000001   -1    0    0    0    0 -0.00000000000E+00 -0.00000000000E+00 -0.64999999231E+04  0.65000000000E+04  0.10000000000E+01 0.  0.
    9000001    1    1    2    0    0  0.22041442601E+04  0.19537348580E+04  0.57943651236E+04  0.65000000000E+04  0.10000000000E+01 0.  0.
    9000001    1    1    2    0    0 -0.22041442601E+04 -0.19537348580E+04 -0.57943651236E+04  0.65000000000E+04  0.10000000000E+01 0.  0.
</event>
<event>
 4    1  0.2193160E-006  0.1300000E+05  0.7957747E-01  0.1322471E+00
    9000001   -1    0    0    0    0  0.00000000000E+00  0.00000000000E+00  0.64999999231E+04  0.65000000000E+04  0.10000000000E+01 0.  0.
    9000001   -1    0    0    0    0 -0.00000000000E+00 -0.00000000000E+00 -0.64999999231E+04  0.65000000000E+04  0.10000000000E+01 0.  0.
    9000001    1    1    2    0    0  0.34639809979E+04 -0.38664198086E+04 -0.39117301173E+04  0.65000000000E+04  0.10000000000E+01 0.  0.
    9000001    1    1    2    0    0 -0.34639809979E+04  0.38664198086E+04  0.39117301173E+04  0.65000000000E+04  0.10000000000E+01 0.  0.
</event>
<event>
 4    1  0.2193160E-006  0.1300000E+05  0.7957747E-01  0.1322471E+00
    9000001   -1    0    0    0    0  0.00000000000E+00  0.00000000000E+00  0.64999999231E+04  0.65000000000E+04  0.10000000000E+01 0.  0.
    9000001   -1    0    0    0    0 -0.00000000000E+00 -0.00000000000E+00 -0.64999999231E+04  0.65000000000E+04  0.10000000000E+01 0.  0.
    9000001    1    1    2    0    0  0.44985810209E+04 -0.35222083639E+04  0.30994864154E+04  0.65000000000E+04  0.10000000000E+01 0.  0.
    9000001    1    1    2    0    0 -0.44985810209E+04  0.35222083639E+04 -0.30994864154E+04  0.65000000000E+04  0.10000000000E+01 0.  0.
</event>
<event>
 4    1  0.2193160E-006  0.1300000E+05  0.7957747E-01  0.1322471E+00
    9000001   -1    0    0    0    0  0.00000000000E+00  0.00000000000E+00  0.64999999231E+04  0.65000000000E+04  0.10000000000E+01 0.  0.
    9000001   -1    0    0    0    0 -0.00000000000E+00 -0.00000000000E+00 -0.64999999231E+04  0.65000000000E+04  0.10000000000E+01 0.  0.
    9000001    1    1    2    0    0 -0.29270170275E+04  0.15673068128E+04  0.55880336144E+04  0.65000000000E+04  0.10000000000E+01 0.  0.
    9000001    1    1    2    0    0  0.29270170275E+04 -0.15673068128E+04 -0.55880336144E+04  0.65000000000E+04  0.10000000000E+01 0.  0.
</event>
<event>
 4    1  0.2193160E-006  0.1300000E+05  0.7957747E-01  0.1322471E+00
    9000001   -1    0    0    0    0  0.00000000000E+00  0.00000000000E+00  0.64999999231E+04  0.65000000000E+04  0.10000000000E+01 0.  0.
    9000001   -1    0    0    0    0 -0.00000000000E+00 -0.00000000000E+00 -0.64999999231E+04  0.65000000000E+04  0.10000000000E+01 0.  0.
    9000001    1    1    2    0    0  0.21160308415E+04  0.60591576000E+04 -0.10290877786E+04  0.65000000000E+04  0.10000000000E+01 0.  0.
    9000001    1    1    2    0    0 -0.21160308415E+04 -0.60591576000E+04  0.10290877786E+04  0.65000000000E+04  0.10000000000E+01 0.  0.
</event>
<event>
 4    1  0.2193160E-006  0.1300000E+05  0.7957747E-01  0.1322471E+00
    9000001   -1    0    0    0    0  0.00000000000E+00  0.00000000000E+00  0.64999999231E+04  0.65000000000E+04  0.10000000000E+01 0.  0.
    9000001   -1    0    0    0    0 -0.00000000000E+00 -0.00000000000E+00 -0.64999999231E+04  0.65000000000E+04  0.10000000000E+01 0.  0.
    9000001    1    1    2    0    0  0.39663262709E+04  0.41450131239E+04  0.30556703217E+04  0.65000000000E+04  0.10000000000E+01 0.  0.
    9000001    1    1    2    0    0 -0.39663262709E+04 -0.41450131239E+04 -0.30556703217E+04  0.65000000000E+04  0.10000000000E+01 0.  0.
</event>
<event>
 4    1  0.2193160E-006  0.1300000E+05  0.7957747E-01  0.1322471E+00
    9000001   -1    0    0    0    0  0.00000000000E+00  0.00000000000E+00  0.64999999231E+04  0.65000000000E+04  0.10000000000E+01 0.  0.
    9000001   -1    0    0    0    0 -0.00000000000E+00 -0.00000000000E+00 -0.64999999231E+04  0.65000000000E+04  0.10000000000E+01 0.  0.
    9000001    1    1    2    0    0  0.63739192499E+04  0.84251992826E+03  0.95567388087E+03  0.65000000000E+04  0.10000000000E+01 0.  0.
    9000001    1    1    2    0    0 -0.63739192499E+04 -0.84251992826E+03 -0.95567388087E+03  0.65000000000E+04  0.10000000000E+01 0.  0.
</event>
<event>
 4    1  0.2193160E-006  0.1300000E+05  0.7957747E-01  0.1322471E+00
    9000001   -1    0    0    0    0  0.00000000000E+00  0.00000000000E+00  0.64999999231E+04  0.65000000000E+04  0.10000000000E+01 0.  0.
    9000001   -1    0    0    0    0 -0.00000000000E+00 -0.00000000000E+00 -0.64999999231E+04  0.65000000000E+04  0.10000000000E+01 0.  0.
    9000001    1    1    2    0    0 -0.18677299196E+04 -0.83834058394E+03 -0.61691789577E+04  0.65000000000E+04  0.10000000000E+01 0.  0.
    9000001    1    1    2    0    0  0.18677299196E+04  0.83834058394E+03  0.61691789577E+04  0.65000000000E+04  0.10000000000E+01 0.  0.
</event>
<event>
 4    1  0.2193160E-006  0.1300000E+05  0.7957747E-01  0.1322471E+00
    9000001   -1    0    0    0    0  0.00000000000E+00  0.00000000000E+00  0.64999999231E+04  0.65000000000E+04  0.10000000000E+01 0.  0.
    9000001   -1    0    0    0    0 -0.00000000000E+00 -0.00000000000E+00 -0.64999999231E+04  0.65000000000E+04  0.10000000000E+01 0.  0.
    9000001    1    1    2    0    0  0.25236985210E+04 -0.20123679199E+03  0.59866892794E+04  0.65000000000E+04  0.10000000000E+01 0.  0.
    9000001    1    1    2    0    0 -0.25236985210E+04  0.20123679199E+03 -0.59866892794E+04  0.65000000000E+04  0.10000000000E+01 0.  0.
</event>
<event>
 4    1  0.2193160E-006  0.1300000E+05  0.7957747E-01  0.1322471E+00
    9000001   -1    0    0    0    0  0.00000000000E+00  0.00000000000E+00  0.64999999231E+04  0.65000000000E+04  0.10000000000E+01 0.  0.
    9000001   -1    0    0    0    0 -0.00000000000E+00 -0.00000000000E+00 -0.64999999231E+04  0.65000000000E+04  0.10000000000E+01 0.  0.
    9000001    1    1    2    0    0 -0.62405900115E+04  0.12900349997E+04  0.12809547251E+04  0.65000000000E+04  0.10000000000E+01 0.  0.
    9000001    1    1    2    0    0  0.62405900115E+04 -0.12900349997E+04 -0.12809547251E+04  0.65000000000E+04  0.10000000000E+01 0.  0.
</event>
<event>
 4    1  0.2193160E-006  0.1300000E+05  0.7957747E-01  0.1322471E+00
    9000001   -1    0    0    0    0  0.00000000000E+00  0.00000000000E+00  0.64999999231E+04  0.65000000000E+04  0.10000000000E+01 0.  0.
    9000001   -1    0    0    0    0 -0.00000000000E+00 -0.00000000000E+00 -0.64999999231E+04  0.65000000000E+04  0.10000000000E+01 0.  0.
    9000001    1    1    2    0    0  0.63332927923E+04 -0.12131658833E+04 -0.81708625396E+03  0.65000000000E+04  0.10000000000E+01 0.  0.
    9000001    1    1    2    0    0 -0.63332927923E+04  0.12131658833E+04  0.81708625396E+03  0.65000000000E+04  0.10000000000E+01 0.  0.
</event>
<event>
 4    1  0.2193160E-006  0.1300000E+05  0.7957747E-01  0.1322471E+00
    9000001   -1    0    0    0    0  0.00000000000E+00  0.00000000000E+00  0.64999999231E+04  0.65000000000E+04  0.10000000000E+01 0.  0.
    9000001   -1    0    0    0    0 -0.00000000000E+00 -0.00000000000E+00 -0.64999999231E+04  0.65000000000E+04  0.10000000000E+01 0.  0.
    9000001    1    1    2    0    0 -0.11116109686E+04 -0.56315820097E+04  0.30495252291E+04  0.65000000000E+04  0.10000000000E+01 0.  0.
    9000001    1    1    2    0    0  0.11116109686E+04  0.56315820097E+04 -0.30495252291E+04  0.65000000000E+04  0.10000000000E+01 0.  0.
</event>
<event>
 4    1  0.2193160E-006  0.1300000E+05  0.7957747E-01  0.1322471E+00
    9000001   -1    0    0    0    0  0.00000000000E+00  0.00000000000E+00  0.64999999231E+04  0.65000000000E+04  0.10000000000E+01 0.  0.
    9000001   -1    0    0    0    0 -0.00000000000E+00 -0.00000000000E+00 -0.64999999231E+04  0.65000000000E+04  0.10000000000E+01 0.  0.
    9000001    1    1    2    0    0 -0.53696924747E+04 -0.19494052463E+04 -0.31010032107E+04  0.65000000000E+04  0.10000000000E+01 0.  0.
    9000001    1    1    2    0    0  0.53696924747E+04  0.19494052463E+04  0.31010032107E+04  0.65000000000E+04  0.10000000000E+01 0.  0.
</event>
<event>
 4    1  0.2193160E-006  0.1300000E+05  0.7957747E-01  0.1322471E+00
    9000001   -1    0    0    0    0  0.00000000000E+00  0.00000000000E+00  0.64999999231E+04  0.65000000000E+04  0.10000000000E+01 0.  0.
    9000001   -1    0    0    0    0 -0.00000000000E+00 -0.00000000000E+00 -0.64999999231E+04  0.65000000000E+04  0.10000000000E+01 0.  0.
    9000001    1    1    2    0    0  0.20326175700E+04  0.32340222088E+04  0.52592361771E+04  0.65000000000E+04  0.10000000000E+01 0.  0.
    9000001    1    1    2    0    0 -0.20326175700E+04 -0.32340222088E+04 -0.52592361771E+04  0.65000000000E+04  0.10000000000E+01 0.  0.
</event>
<event>
 4    1  0.2193160E-006  0.1300000E+05  0.7957747E-01  0.1322471E+00
    9000001   -1    0    0    0    0  0.00000000000E+00  0.00000000000E+00  0.64999999231E+04  0.65000000000E+04  0.10000000000E+01 0.  0.
    9000001   -1    0    0    0    0 -0.00000000000E+00 -0.00000000000E+00 -0.64999999231E+04  0.65000000000E+04  0.10000000000E+01 0.  0.
    9000001    1    1    2    0    0  0.22537567149E+04 -0.45343522648E+04 -0.40755648945E+04  0.65000000000E+04  0.10000000000E+01 0.  0.
    9000001    1    1    2    0    0 -0.22537567149E+04  0.45343522648E+04  0.40755648945E+04  0.65000000000E+04  0.10000000000E+01 0.  0.
</event>
<event>
 4    1  0.2193160E-006  0.1300000E+05  0.7957747E-01  0.1322471E+00
    9000001   -1    0    0    0    0  0.00000000000E+00  0.00000000000E+00  0.64999999231E+04  0.65000000000E+04  0.10000000000E+01 0.  0.
    9000001   -1    0    0    0    0 -0.00000000000E+00 -0.00000000000E+00 -0.64999999231E+04  0.65000000000E+04  0.10000000000E+01 0.  0.
    9000001    1    1    2    0    0  0.28778290156E+04  0.37923089402E+04  0.44256628949E+04  0.65000000000E+04  0.10000000000E+01 0.  0.
    9000001    1    1    2    0    0 -0.28778290156E+04 -0.37923089402E+04 -0.44256628949E+04  0.65000000000E+04  0.10000000000E+01 0.  0.
</event>
<event>
 4    1  0.2193160E-006  0.1300000E+05  0.7957747E-01  0.1322471E+00
    9000001   -1    0    0    0    0  0.00000000000E+00  0.00000000000E+00  0.64999999231E+04  0.65000000000E+04  0.10000000000E+01 0.  0.
    9000001   -1    0    0    0    0 -0.00000000000E+00 -0.00000000000E+00 -0.64999999231E+04  0.65000000000E+04  0.10000000000E+01 0.  0.
    9000001    1    1    2    0    0 -0.35629345413E+04 -0.13287238930E+04  0.52716211236E+04  0.65000000000E+04  0.10000000000E+01 0.  0.
    9000001    1    1    2    0    0  0.35629345413E+04  0.13287238930E+04 -0.52716211236E+04  0.65000000000E+04  0.10000000000E+01 0.  0.
</event>
<event>
 4    1  0.2193160E-006  0.1300000E+05  0.7957747E-01  0.1322471E+00
    9000001   -1    0    0    0    0  0.00000000000E+00  0.00000000000E+00  0.64999999231E+04  0.65000000000E+04  0.10000000000E+01 0.  0.
    9000001   -1    0    0    0    0 -0.00000000000E+00 -0.00000000000E+00 -0.64999999231E+04  0.65000000000E+04  0.10000000000E+01 0.  0.
    9000001    1    1    2    0    0 -0.59623876413E+04  0.18730634846E+04  0.17864953952E+04  0.65000000000E+04  0.10000000000E+01 0.  0.
    9000001    1    1    2    0    0  0.59623876413E+04 -0.18730634846E+04 -0.17864953952E+04  0.65000000000E+04  0.10000000000E+01 0.  0.
</event>
<event>
 4    1  0.2193160E-006  0.1300000E+05  0.7957747E-01  0.1322471E+00
    9000001   -1    0    0    0    0  0.00000000000E+00  0.00000000000E+00  0.64999999231E+04  0.65000000000E+04  0.10000000000E+01 0.  0.
    9000001   -1    0    0    0    0 -0.00000000000E+00 -0.00000000000E+00 -0.64999999231E+04  0.65000000000E+04  0.10000000000E+01 0.  0.
    9000001    1    1    2    0    0 -0.63607788384E+04 -0.67719599839E+03  0.11540784848E+04  0.65000000000E+04  0.10000000000E+01 0.  0.
    9000001    1    1    2    0    0  0.63607788384E+04  0.67719599839E+03 -0.11540784848E+04  0.65000000000E+04  0.10000000000E+01 0.  0.
</event>
<event>
 4    1  0.2193160E-006  0.1300000E+05  0.7957747E-01  0.1322471E+00
    9000001   -1    0    0    0    0  0.00000000000E+00  0.00000000000E+00  0.64999999231E+04  0.65000000000E+04  0.10000000000E+01 0.  0.
    9000001   -1    0    0    0    0 -0.00000000000E+00 -0.00000000000E+00 -0.64999999231E+04  0.65000000000E+04  0.10000000000E+01 0.  0.
    9000001    1    1    2    0    0  0.30578992154E+04 -0.45485732202E+04  0.34942428435E+04  0.65000000000E+04  0.10000000000E+01 0.  0.
    9000001    1    1    2    0    0 -0.30578992154E+04  0.45485732202E+04 -0.34942428435E+04  0.65000000000E+04  0.10000000000E+01 0.  0.
</event>
<event>
 4    1  0.2193160E-006  0.1300000E+05  0.7957747E-01  0.1322471E+00
    9000001   -1    0    0    0    0  0.00000000000E+00  0.00000000000E+00  0.64999999231E+04  0.65000000000E+04  0.10000000000E+01 0.  0.
    9000001   -1    0    0    0    0 -0.00000000000E+00 -0.00000000000E+00 -0.64999999231E+04  0.65000000000E+04  0.10000000000E+01 0.  0.
    9000001    1    1    2    0    0  0.37127868427E+04 -0.22097661083E+04  0.48561452416E+04  0.65000000000E+04  0.10000000000E+01 0.  0.
    9000001    1    1    2    0    0 -0.37127868427E+04  0.22097661083E+04 -0.48561452416E+04  0.65000000000E+04  0.10000000000E+01 0.  0.
</event>
<event>
 4    1  0.2193160E-006  0.1300000E+05  0.7957747E-01  0.1322471E+00
    9000001   -1    0    0    0    0  0.00000000000E+00  0.00000000000E+00  0.64999999231E+04  0.65000000000E+04  0.10000000000E+01 0.  0.
    9000001   -1    0    0    0    0 -0.00000000000E+00 -0.00000000000E+00 -0.64999999231E+04  0.65000000000E+04  0.10000000000E+01 0.  0.
    9000001    1    1    2    0    0  0.16551729165E+04 -0.36745702684E+04 -0.50997975410E+04  0.65000000000E+04  0.10000000000E+01 0.  0.
    9000001    1    1    2    0    0 -0.16551729165E+04  0.36745702684E+04  0.50997975410E+04  0.65000000000E+04  0.10000000000E+01 0.  0.
</event>
<event>
 4    1  0.2193160E-006  0.1300000E+05  0.7957747E-01  0.1322471E+00
    9000001   -1    0    0    0    0  0.00000000000E+00  0.00000000000E+00  0.64999999231E+04  0.65000000000E+04  0.10000000000E+01 0.  0.
    9000001   -1    0    0    0    0 -0.00000000000E+00 -0.00000000000E+00 -0.64999999231E+04  0.65000000000E+04  0.10000000000E+01 0.  0.
    9000001    1    1    2    0    0  0.51391298434E+04  0.35488748374E+04  0.18013414006E+04  0.65000000000E+04  0.10000000000E+01 0.  0.
    9000001    1    1    2    0    0 -0.51391298434E+04 -0.35488748374E+04 -0.18013414006E+04  0.65000000000E+04  0.10000000000E+01 0.  0.
</event>
<event>
 4    1  0.2193160E-006  0.1300000E+05  0.7957747E-01  0.1322471E+00
    9000001   -1    0    0    0    0  0.00000000000E+00  0.00000000000E+00  0.64999999231E+04  0.65000000000E+04  0.10000000000E+01 0.  0.
    9000001   -1    0    0    0    0 -0.00000000000E+00 -0.00000000000E+00 -0.64999999231E+04  0.65000000000E+04  0.10000000000E+01 0.  0.
    9000001    1    1    2    0    0  0.20559972244E+04 -0.61615896545E+04  0.24018189623E+03  0.65000000000E+04  0.10000000000E+01 0.  0.
    9000001    1    1    2    0    0 -0.20559972244E+04  0.61615896545E+04 -0.24018189623E+03  0.65000000000E+04  0.10000000000E+01 0.  0.
</event>
<event>
 4    1  0.2193160E-006  0.1300000E+05  0.7957747E-01  0.1322471E+00
    9000001   -1    0    0    0    0  0.00000000000E+00  0.00000000000E+00  0.64999999231E+04  0.65000000000E+04  0.10000000000E+01 0.  0.
    9000001   -1    0    0    0    0 -0.00000000000E+00 -0.00000000000E+00 -0.64999999231E+04  0.65000000000E+04  0.10000000000E+01 0.  0.
    9000001    1    1    2    0    0 -0.16400519747E+04 -0.38797251282E+04  0.49505516308E+04  0.65000000000E+04  0.10000000000E+01 0.  0.
    9000001    1    1    2    0    0  0.16400519747E+04  0.38797251282E+04 -0.49505516308E+04  0.65000000000E+04  0.10000000000E+01 0.  0.
</event>
<event>
 4    1  0.2193160E-006  0.1300000E+05  0.7957747E-01  0.1322471E+00
    9000001   -1    0    0    0    0  0.00000000000E+00  0.00000000000E+00  0.64999999231E+04  0.65000000000E+04  0.10000000000E+01 0.  0.
    9000001   -1    0    0    0    0 -0.00000000000E+00 -0.00000000000E+00 -0.64999999231E+04  0.65000000000E+04  0.10000000000E+01 0.  0.
    9000001    1    1    2    0    0  0.20233748218E+03 -0.42809414090E+03  0.64827304394E+04  0.65000000000E+04  0.10000000000E+01 0.  0.
    9000001    1    1    2    0    0 -0.20233748218E+03  0.42809414090E+03 -0.64827304394E+04  0.65000000000E+04  0.10000000000E+01 0.  0.
</event>
<event>
 4    1  0.2193160E-006  0.1300000E+05  0.7957747E-01  0.1322471E+00
    9000001   -1    0    0    0    0  0.00000000000E+00  0.00000000000E+00  0.64999999231E+04  0.65000000000E+04  0.10000000000E+01 0.  0.
    9000001   -1    0    0    0    0 -0.00000000000E+00 -0.00000000000E+00 -0.64999999231E+04  0.65000000000E+04  0.10000000000E+01 0.  0.
    9000001    1    1    2    0    0  0.16915974482E+03  0.42622351018E+04  0.49045627652E+04  0.65000000000E+04  0.10000000000E+01 0.  0.
    9000001    1    1    2    0    0 -0.16915974482E+03 -0.42622351018E+04 -0.49045627652E+04  0.65000000000E+04  0.10000000000E+01 0.  0.
</event>
<event>
 4    1  0.2193160E-006  0.1300000E+05  0.7957747E-01  0.1322471E+00
    9000001   -1    0    0    0    0  0.00000000000E+00  0.00000000000E+00  0.64999999231E+04  0.65000000000E+04  0.10000000000E+01 0.  0.
    9000001   -1    0    0    0    0 -0.00000000000E+00 -0.00000000000E+00 -0.64999999231E+04  0.65000000000E+04  0.10000000000E+01 0.  0.
    9000001    1    1    2    0    0  0.27539106217E+03 -0.48542364724E+04  0.43139943246E+04  0.65000000000E+04  0.10000000000E+01 0.  0.
    9000001    1    1    2    0    0 -0.27539106217E+03  0.48542364724E+04 -0.43139943246E+04  0.65000000000E+04  0.10000000000E+01 0.  0.
</event>
<event>
 4    1  0.2193160E-006  0.1300000E+05  0.7957747E-01  0.1322471E+00
    9000001   -1    0    0    0    0  0.00000000000E+00  0.00000000000E+00  0.64999999231E+04  0.65000000000E+04  0.10000000000E+01 0.  0.
    9000001   -1    0    0    0    0 -0.00000000000E+00 -0.00000000000E+00 -0.64999999231E+04  0.65000000000E+04  0.10000000000E+01 0.  0.
    9000001    1    1    2    0    0  0.13456226473E+04 -0.55852626245E+04  0.30404177519E+04  0.65000000000E+04  0.10000000000E+01 0.  0.
    9000001    1    1    2    0    0 -0.13456226473E+04  0.55852626245E+04 -0.30404177519E+04  0.65000000000E+04  0.10000000000E+01 0.  0.
</event>
<event>
 4    1  0.2193160E-006  0.1300000E+05  0.7957747E-01  0.1322471E+00
    9000001   -1    0    0    0    0  0.00000000000E+00  0.00000000000E+00  0.64999999231E+04  0.65000000000E+04  0.10000000000E+01 0.  0.
    9000001   -1    0    0    0    0 -0.00000000000E+00 -0.00000000000E+00 -0.64999999231E+04  0.65000000000E+04  0.10000000000E+01 0.  0.
    9000001    1    1    2    0    0  0.57893900854E+04  0.25559483358E+03  0.29440843602E+04  0.65000000000E+04  0.10000000000E+01 0.  0.
    9000001    1    1    2    0    0 -0.57893900854E+04 -0.25559483358E+03 -0.29440843602E+04  0.65000000000E+04  0.10000000000E+01 0.  0.
</event>
<event>
 4    1  0.2193160E-006  0.1300000E+05  0.7957747E-01  0.1322471E+00
    9000001   -1    0    0    0    0  0.00000000000E+00  0.00000000000E+00  0.64999999231E+04  0.65000000000E+04  0.10000000000E+01 0.  0.
    9000001   -1    0    0    0    0 -0.00000000000E+00 -0.00000000000E+00 -0.64999999231E+04  0.65000000000E+04  0.10000000000E+01 0.  0.
    9000001    1    1    2    0    0  0.36819461274E+04  0.52671782753E+04 -0.97473315898E+03  0.65000000000E+04  0.10000000000E+01 0.  0.
    9000001    1    1    2    0    0 -0.36819461274E+04 -0.52671782753E+04  0.97473315898E+03  0.65000000000E+04  0.10000000000E+01 0.  0.
</event>
<event>
 4    1  0.2193160E-006  0.1300000E+05  0.7957747E-01  0.1322471E+00
    9000001   -1    0    0    0    0  0.00000000000E+00  0.00000000000E+00  0.64999999231E+04  0.65000000000E+04  0.10000000000E+01 0.  0.
    9000001   -1    0    0    0    0 -0.00000000000E+00 -0.00000000000E+00 -0.64999999231E+04  0.65000000000E+04  0.10000000000E+01 0.  0.
    9000001    1    1    2    0    0 -0.21820731787E+04 -0.22572322765E+04 -0.56915251113E+04  0.65000000000E+04  0.10000000000E+01 0.  0.
    9000001    1    1    2    0    0  0.21820731787E+04  0.22572322765E+04  0.56915251113E+04  0.65000000000E+04  0.10000000000E+01 0.  0.
</event>
<event>
 4    1  0.2193160E-006  0.1300000E+05  0.7957747E-01  0.1322471E+00
    9000001   -1    0    0    0    0  0.00000000000E+00  0.00000000000E+00  0.64999999231E+04  0.65000000000E+04  0.10000000000E+01 0.  0.
    9000001   -1    0    0    0    0 -0.00000000000E+00 -0.00000000000E+00 -0.64999999231E+04  0.65000000000E+04  0.10000000000E+01 0.  0.
    9000001    1    1    2    0    0  0.59383952660E+04 -0.22536236407E+04 -0.13808117723E+04  0.65000000000E+04  0.10000000000E+01 0.  0.
    9000001    1    1    2    0    0 -0.59383952660E+04  0.22536236407E+04  0.13808117723E+04  0.65000000000E+04  0.10000000000E+01 0.  0.
</event>
<event>
 4    1  0.2193160E-006  0.1300000E+05  0.7957747E-01  0.1322471E+00
    9000001   -1    0    0    0    0  0.00000000000E+00  0.00000000000E+00  0.64999999231E+04  0.65000000000E+04  0.10000000000E+01 0.  0.
    9000001   -1    0    0    0    0 -0.00000000000E+00 -0.00000000000E+00 -0.64999999231E+04  0.65000000000E+04  0.10000000000E+01 0.  0.
    9000001    1    1    2    0    0  0.94249040334E+03  0.17681692950E+04  0.61834689442E+04  0.65000000000E+04  0.10000000000E+01 0.  0.
    9000001    1    1    2    0    0 -0.94249040334E+03 -0.17681692950E+04 -0.61834689442E+04  0.65000000000E+04  0.10000000000E+01 0.  0.
</event>
<event>
 4    1  0.2193160E-006  0.1300000E+05  0.7957747E-01  0.1322471E+00
    9000001   -1    0    0    0    0  0.00000000000E+00  0.00000000000E+00  0.64999999231E+04  0.65000000000E+04  0.10000000000E+01 0.  0.
    9000001   -1    0    0    0    0 -0.00000000000E+00 -0.00000000000E+00 -0.64999999231E+04  0.65000000000E+04  0.10000000000E+01 0.  0.
    9000001    1    1    2    0    0  0.27275567619E+04  0.51166054758E+04  0.29378191769E+04  0.65000000000E+04  0.10000000000E+01 0.  0.
    9000001    1    1    2    0    0 -0.27275567619E+04 -0.51166054758E+04 -0.29378191769E+04  0.65000000000E+04  0.10000000000E+01 0.  0.
</event>
<event>
 4    1  0.2193160E-006  0.1300000E+05  0.7957747E-01  0.1322471E+00
    9000001   -1    0    0    0    0  0.00000000000E+00  0.00000000000E+00  0.64999999231E+04  0.65000000000E+04  0.10000000000E+01 0.  0.
    9000001   -1    0    0    0    0 -0.00000000000E+00 -0.00000000000E+00 -0.64999999231E+04  0.65000000000E+04  0.10000000000E+01 0.  0.
    9000001    1    1    2    0    0 -0.94672766827E+03  0.66034638794E+03  0.63966904232E+04  0.65000000000E+04  0.10000000000E+01 0.  0.
    9000001    1    1    2    0    0  0.94672766827E+03 -0.66034638794E+03 -0.63966904232E+04  0.65000000000E+04  0.10000000000E+01 0.  0.
</event>
<event>
 4    1  0.2193160E-006  0.1300000E+05  0.7957747E-01  0.1322471E+00
    9000001   -1    0    0    0    0  0.00000000000E+00  0.00000000000E+00  0.64999999231E+04  0.65000000000E+04  0.10000000000E+01 0.  0.
    9000001   -1    0    0    0    0 -0.00000000000E+00 -0.00000000000E+00 -0.64999999231E+04  0.65000000000E+04  0.10000000000E+01 0.  0.
    9000001    1    1    2    0    0  0.61544995248E+04  0.20077487475E+04 -0.58402017591E+03  0.65000000000E+04  0.10000000000E+01 0.  0.
    9000001    1    1    2    0    0 -0.61544995248E+04 -0.20077487475E+04  0.58402017591E+03  0.65000000000E+04  0.10000000000E+01 0.  0.
</event>
<event>
 4    1  0.2193160E-006  0.1300000E+05  0.7957747E-01  0.1322471E+00
    9000001   -1    0    0    0    0  0.00000000000E+00  0.00000000000E+00  0.64999999231E+04  0.65000000000E+04  0.10000000000E+01 0.  0.
    9000001   -1    0    0    0    0 -0.00000000000E+00 -0.00000000000E+00 -0.64999999231E+04  0.65000000000E+04  0.10000000000E+01 0.  0.
    9000001    1    1    2    0    0 -0.18831600732E+04  0.50826059582E+04  0.35875930389E+04  0.65000000000E+04  0.10000000000E+01 0.  0.
    9000001    1    1    2    0    0  0.18831600732E+04 -0.50826059582E+04 -0.35875930389E+04  0.65000000000E+04  0.10000000000E+01 0.  0.
</event>
<event>
 4    1  0.2193160E-006  0.1300000E+05  0.7957747E-01  0.1322471E+00
    9000001   -1    0    0    0    0  0.00000000000E+00  0.00000000000E+00  0.64999999231E+04  0.65000000000E+04  0.10000000000E+01 0.  0.
    9000001   -1    0    0    0    0 -0.00000000000E+00 -0.00000000000E+00 -0.64999999231E+04  0.65000000000E+04  0.10000000000E+01 0.  0.
    9000001    1    1    2    0    0 -0.31355700904E+04  0.30409166563E+04 -0.48136290985E+04  0.65000000000E+04  0.10000000000E+01 0.  0.
    9000001    1    1    2    0    0  0.31355700904E+04 -0.30409166563E+04  0.48136290985E+04  0.65000000000E+04  0.10000000000E+01 0.  0.
</event>
<event>
 4    1  0.2193160E-006  0.1300000E+05  0.7957747E-01  0.1322471E+00
    9000001   -1    0    0    0    0  0.00000000000E+00  0.00000000000E+00  0.64999999231E+04  0.65000000000E+04  0.10000000000E+01 0.  0.
    9000001   -1    0    0    0    0 -0.00000000000E+00 -0.00000000000E+00 -0.64999999231E+04  0.65000000000E+04  0.10000000000E+01 0.  0.
    9000001    1    1    2    0    0  0.59005843271E+04  0.16913451537E+04  0.21383299954E+04  0.65000000000E+04  0.10000000000E+01 0.  0.
    9000001    1    1    2    0    0 -0.59005843271E+04 -0.16913451537E+04 -0.21383299954E+04  0.65000000000E+04  0.10000000000E+01 0.  0.
</event>
<event>
 4    1  0.2193160E-006  0.1300000E+05  0.7957747E-01  0.1322471E+00
    9000001   -1    0    0    0    0  0.00000000000E+00  0.00000000000E+00  0.64999999231E+04  0.65000000000E+04  0.10000000000E+01 0.  0.
    9000001   -1    0    0    0    0 -0.00000000000E+00 -0.00000000000E+00 -0.64999999231E+04  0.65000000000E+04  0.10000000000E+01 0.  0.
    9000001    1    1    2    0    0 -0.23176410313E+04 -0.60585622009E+04 -0.41516636210E+03  0.65000000000E+04  0.10000000000E+01 0.  0.
    9000001    1    1    2    0    0  0.23176410313E+04  0.60585622009E+04  0.41516636210E+03  0.65000000000E+04  0.10000000000E+01 0.  0.
</event>
<event>
 4    1  0.2193160E-006  0.1300000E+05  0.7957747E-01  0.1322471E+00
    9000001   -1    0    0    0    0  0.00000000000E+00  0.00000000000E+00  0.64999999231E+04  0.65000000000E+04  0.10000000000E+01 0.  0.
    9000001   -1    0    0    0    0 -0.00000000000E+00 -0.00000000000E+00 -0.64999999231E+04  0.65000000000E+04  0.10000000000E+01 0.  0.
    9000001    1    1    2    0    0  0.45432683847E+04  0.35335571199E+04  0.30203783645E+04  0.65000000000E+04  0.10000000000E+01 0.  0.
    9000001    1    1    2    0    0 -0.45432683847E+04 -0.35335571199E+04 -0.30203783645E+04  0.65000000000E+04  0.10000000000E+01 0.  0.
</event>
<event>
 4    1  0.2193160E-006  0.1300000E+05  0.7957747E-01  0.1322471E+00
    9000001   -1    0    0    0    0  0.00000000000E+00  0.00000000000E+00  0.64999999231E+04  0.65000000000E+04  0.10000000000E+01 0.  0.
    9000001   -1    0    0    0    0 -0.00000000000E+00 -0.00000000000E+00 -0.64999999231E+04  0.65000000000E+04  0.10000000000E+01 0.  0.
    9000001    1    1    2    0    0  0.61750036623E+04  0.60210270836E+03  0.19382469140E+04  0.65000000000E+04  0.10000000000E+01 0.  0.
    9000001    1    1    2    0    0 -0.61750036623E+04 -0.60210270836E+03 -0.19382469140E+04  0.65000000000E+04  0.10000000000E+01 0.  0.
</event>
<event>
 4    1  0.2193160E-006  0.1300000E+05  0.7957747E-01  0.1322471E+00
    9000001   -1    0    0    0    0  0.00000000000E+00  0.00000000000E+00  0.64999999231E+04  0.65000000000E+04  0.10000000000E+01 0.  0.
    9000001   -1    0    0    0    0 -0.00000000000E+00 -0.00000000000E+00 -0.64999999231E+04  0.65000000000E+04  0.10000000000E+01 0.  0.
    9000001    1    1    2    0    0  0.51348482248E+04 -0.34229583679E+04  0.20412468543E+04  0.65000000000E+04  0.10000000000E+01 0.  0.
    9000001    1    1    2    0    0 -0.51348482248E+04  0.34229583679E+04 -0.20412468543E+04  0.65000000000E+04  0.10000000000E+01 0.  0.
</event>
<event>
 4    1  0.2193160E-006  0.1300000E+05  0.7957747E-01  0.1322471E+00
    9000001   -1    0    0    0    0  0.00000000000E+00  0.00000000000E+00  0.64999999231E+04  0.65000000000E+04  0.10000000000E+01 0.  0.
    9000001   -1    0    0    0    0 -0.00000000000E+00 -0.00000000000E+00 -0.64999999231E+04  0.65000000000E+04  0.10000000000E+01 0.  0.
    9000001    1    1    2    0    0  0.15838283921E+04 -0.48002248202E+04 -0.40864811635E+04  0.65000000000E+04  0.10000000000E+01 0.  0.
    9000001    1    1    2    0    0 -0.15838283921E+04  0.48002248202E+04  0.40864811635E+04  0.65000000000E+04  0.10000000000E+01 0.  0.
</event>
<event>
 4    1  0.2193160E-006  0.1300000E+05  0.7957747E-01  0.1322471E+00
    9000001   -1    0    0    0    0  0.00000000000E+00  0.00000000000E+00  0.64999999231E+04  0.65000000000E+04  0.10000000000E+01 0.  0.
    9000001   -1    0    0    0    0 -0.00000000000E+00 -0.00000000000E+00 -0.64999999231E+04  0.65000000000E+04  0.10000000000E+01 0.  0.
    9000001    1    1    2    0    0  0.64624599529E+04 -0.58234362848E+03 -0.38403939384E+03  0.65000000000E+04  0.10000000000E+01 0.  0.
    9000001    1    1    2    0    0 -0.64624599529E+04  0.58234362848E+03  0.38403939384E+03  0.65000000000E+04  0.10000000000E+01 0.  0.
</event>
<event>
 4    1  0.2193160E-006  0.1300000E+05  0.7957747E-01  0.1322471E+00
    9000001   -1    0    0    0    0  0.00000000000E+00  0.00000000000E+00  0.64999999231E+04  0.65000000000E+04  0.10000000000E+01 0.  0.
    9000001   -1    0    0    0    0 -0.00000000000E+00 -0.00000000000E+00 -0.64999999231E+04  0.65000000000E+04  0.10000000000E+01 0.  0.
    9000001    1    1    2    0    0  0.15618820293E+02 -0.61417291578E+04 -0.21281254674E+04  0.65000000000E+04  0.10000000000E+01 0.  0.
    9000001    1    1    2    0    0 -0.15618820293E+02  0.61417291578E+04  0.21281254674E+04  0.65000000000E+04  0.10000000000E+01 0.  0.
</event>
<event>
 4    1  0.2193160E-006  0.1300000E+05  0.7957747E-01  0.1322471E+00
    9000001   -1    0    0    0    0  0.00000000000E+00  0.00000000000E+00  0.64999999231E+04  0.65000000000E+04  0.10000000000E+01 0.  0.
    9000001   -1    0    0    0    0 -0.00000000000E+00 -0.00000000000E+00 -0.64999999231E+04  0.65000000000E+04  0.10000000000E+01 0.  0.
    9000001    1    1    2    0    0 -0.56947736191E+04 -0.30853452288E+04  0.54790258869E+03  0.65000000000E+04  0.10000000000E+01 0.  0.
    9000001    1    1    2    0    0  0.56947736191E+04  0.30853452288E+04 -0.54790258869E+03  0.65000000000E+04  0.10000000000E+01 0.  0.
</event>
<event>
 4    1  0.2193160E-006  0.1300000E+05  0.7957747E-01  0.1322471E+00
    9000001   -1    0    0    0    0  0.00000000000E+00  0.00000000000E+00  0.64999999231E+04  0.65000000000E+04  0.10000000000E+01 0.  0.
    9000001   -1    0    0    0    0 -0.00000000000E+00 -0.00000000000E+00 -0.64999999231E+04  0.65000000000E+04  0.10000000000E+01 0.  0.
    9000001    1    1    2    0    0 -0.11177113855E+04 -0.18900606156E+04  0.61178747231E+04  0.65000000000E+04  0.10000000000E+01 0.  0.
    9000001    1    1    2    0    0  0.11177113855E+04  0.18900606156E+04 -0.61178747231E+04  0.65000000000E+04  0.10000000000E+01 0.  0.
</event>
<event>
 4    1  0.2193160E-006  0.1300000E+05  0.7957747E-01  0.1322471E+00
    9000001   -1    0    0    0    0  0.00000000000E+00  0.00000000000E+00  0.64999999231E+04  0.65000000000E+04  0.10000000000E+01 0.  0.
    9000001   -1    0    0    0    0 -0.00000000000E+00 -0.00000000000E+00 -0.64999999231E+04  0.65000000000E+04  0.10000000000E+01 0.  0.
    9000001    1    1    2    0    0  0.12965718495E+04 -0.43858853656E+04 -0.46187563260E+04  0.65000000000E+04  0.10000000000E+01 0.  0.
    9000001    1    1    2    0    0 -0.12965718495E+04  0.43858853656E+04  0.46187563260E+04  0.65000000000E+04  0.10000000000E+01 0.  0.
</event>
<event>
 4    1  0.2193160E-006  0.1300000E+05  0.7957747E-01  0.1322471E+00
    9000001   -1    0    0    0    0  0.00000000000E+00  0.00000000000E+00  0.64999999231E+04  0.65000000000E+04  0.10000000000E+01 0.  0.
    9000001   -1    0    0    0    0 -0.00000000000E+00 -0.00000000000E+00 -0.64999999231E+04  0.65000000000E+04  0.10000000000E+01 0.  0.
    9000001    1    1    2    0    0  0.27220785265E+04 -0.58947840861E+04 -0.30299847213E+03  0.65000000000E+04  0.10000000000E+01 0.  0.
    9000001    1    1    2    0    0 -0.27220785265E+04  0.58947840861E+04  0.30299847213E+03  0.65000000000E+04  0.10000000000E+01 0.  0.
</event>
<event>
 4    1  0.2193160E-006  0.1300000E+05  0.7957747E-01  0.1322471E+00
    9000001   -1    0    0    0    0  0.00000000000E+00  0.00000000000E+00  0.64999999231E+04  0.65000000000E+04  0.10000000000E+01 0.  0.
    9000001   -1    0    0    0    0 -0.00000000000E+00 -0.00000000000E+00 -0.64999999231E+04  0.65000000000E+04  0.10000000000E+01 0.  0.
    9000001    1    1    2    0    0 -0.17660360555E+04 -0.59366710070E+04 -0.19715610579E+04  0.65000000000E+04  0.10000000000E+01 0.  0.
    9000001    1    1    2    0    0  0.17660360555E+04  0.59366710070E+04  0.19715610579E+04  0.65000000000E+04  0.10000000000E+01 0.  0.
</event>
<event>
 4    1  0.2193160E-006  0.1300000E+05  0.7957747E-01  0.1322471E+00
    9000001   -1    0    0    0    0  0.00000000000E+00  0.00000000000E+00  0.64999999231E+04  0.65000000000E+04  0.10000000000E+01 0.  0.
    9000001   -1    0    0    0    0 -0.00000000000E+00 -0.00000000000E+00 -0.64999999231E+04  0.65000000000E+04  0.10000000000E+01 0.  0.
    9000001    1    1    2    0    0 -0.79756159157E+03  0.36356440705E+04  0.53287884833E+04  0.65000000000E+04  0.10000000000E+01 0.  0.
    9000001    1    1    2    0    0  0.79756159157E+03 -0.36356440705E+04 -0.53287884833E+04  0.65000000000E+04  0.10000000000E+01 0.  0.
</event>
<event>
 4    1  0.2193160E-006  0.1300000E+05  0.7957747E-01  0.1322471E+00
    9000001   -1    0    0    0    0  0.00000000000E+00  0.00000000000E+00  0.64999999231E+04  0.65000000000E+04  0.10000000000E+01 0.  0.
    9000001   -1    0    0    0    0 -0.00000000000E+00 -0.00000000000E+00 -0.64999999231E+04  0.65000000000E+04  0.10000000000E+01 0.  0.
    9000001    1    1    2    0    0  0.45745849235E+04 -0.39832517856E+04 -0.23359959311E+04  0.65000000000E+04  0.10000000000E+01 0.  0.
    9000001    1    1    2    0    0 -0.45745849235E+04  0.39832517856E+04  0.23359959311E+04  0.65000000000E+04  0.10000000000E+01 0.  0.
</event>
<event>
 4    1  0.2193160E-006  0.1300000E+05  0.7957747E-01  0.1322471E+00
    9000001   -1    0    0    0    0  0.00000000000E+00  0.00000000000E+00  0.64999999231E+04  0.65000000000E+04  0.10000000000E+01 0.  0.
    9000001   -1    0    0    0    0 -0.00000000000E+00 -0.00000000000E+00 -0.64999999231E+04  0.65000000000E+04  0.10000000000E+01 0.  0.
    9000001    1    1    2    0    0 -0.28367678072E+03  0.62084836784E+04  0.19037481185E+04  0.65000000000E+04  0.10000000000E+01 0.  0.
    9000001    1    1    2    0    0  0.28367678072E+03 -0.62084836784E+04 -0.19037481185E+04  0.65000000000E+04  0.10000000000E+01 0.  0.
</event>
<event>
 4    1  0.2193160E-006  0.1300000E+05  0.7957747E-01  0.1322471E+00
    9000001   -1    0    0    0    0  0.00000000000E+00  0.00000000000E+00  0.64999999231E+04  0.65000000000E+04  0.10000000000E+01 0.  0.
    9000001   -1    0    0    0    0 -0.00000000000E+00 -0.00000000000E+00 -0.64999999231E+04  0.65000000000E+04  0.10000000000E+01 0.  0.
    9000001    1    1    2    0    0  0.44362501540E+04  0.45975578319E+04  0.11967228390E+04  0.65000000000E+04  0.10000000000E+01 0.  0.
    9000001    1    1    2    0    0 -0.44362501540E+04 -0.45975578319E+04 -0.11967228390E+04  0.65000000000E+04  0.10000000000E+01 0.  0.
</event>
<event>
 4    1  0.2193160E-006  0.1300000E+05  0.7957747E-01  0.1322471E+00
    9000001   -1    0    0    0    0  0.00000000000E+00  0.00000000000E+00  0.64999999231E+04  0.65000000000E+04  0.10000000000E+01 0.  0.
    9000001   -1    0    0    0    0 -0.00000000000E+00 -0.00000000000E+00 -0.64999999231E+04  0.65000000000E+04  0.10000000000E+01 0.  0.
    9000001    1    1    2    0    0 -0.58179463955E+04  0.24929362141E+04 -0.14787723866E+04  0.65000000000E+04  0.10000000000E+01 0.  0.
    9000001    1    1    2    0    0  0.58179463955E+04 -0.24929362141E+04  0.14787723866E+04  0.65000000000E+04  0.10000000000E+01 0.  0.
</event>
<event>
 4    1  0.2193160E-006  0.1300000E+05  0.7957747E-01  0.1322471E+00
    9000001   -1    0    0    0    0  0.00000000000E+00  0.00000000000E+00  0.64999999231E+04  0.65000000000E+04  0.10000000000E+01 0.  0.
    9000001   -1    0    0    0    0 -0.00000000000E+00 -0.00000000000E+00 -0.64999999231E+04  0.65000000000E+04  0.10000000000E+01 0.  0.
    9000001    1    1    2    0    0  0.37155838184E+04 -0.31458208497E+04  0.43067675895E+04  0.65000000000E+04  0.10000000000E+01 0.  0.
    9000001    1    1    2    0    0 -0.37155838184E+04  0.31458208497E+04 -0.43067675895E+04  0.65000000000E+04  0.10000000000E+01 0.  0.
</event>
<event>
 4    1  0.2193160E-006  0.1300000E+05  0.7957747E-01  0.1322471E+00
    9000001   -1    0    0    0    0  0.00000000000E+00  0.00000000000E+00  0.64999999231E+04  0.65000000000E+04  0.10000000000E+01 0.  0.
    9000001   -1    0    0    0    0 -0.00000000000E+00 -0.00000000000E+00 -0.64999999231E+04  0.65000000000E+04  0.10000000000E+01 0.  0.
    9000001    1    1    2    0    0  0.24575328379E+04 -0.44330709774E+04  0.40692030006E+04  0.65000000000E+04  0.10000000000E+01 0.  0.
    9000001    1    1    2    0    0 -0.24575328379E+04  0.44330709774E+04 -0.40692030006E+04  0.65000000000E+04  0.10000000000E+01 0.  0.
</event>
<event>
 4    1  0.2193160E-006  0.1300000E+05  0.7957747E-01  0.1322471E+00
    9000001   -1    0    0    0    0  0.00000000000E+00  0.00000000000E+00  0.64999999231E+04  0.65000000000E+04  0.10000000000E+01 0.  0.
    9000001   -1    0    0    0    0 -0.00000000000E+00 -0.00000000000E+00 -0.64999999231E+04  0.65000000000E+04  0.10000000000E+01 0.  0.
    9000001    1    1    2    0    0 -0.54492690650E+03  0.64297758268E+04  0.78168822688E+03  0.65000000000E+04  0.10000000000E+01 0.  0.
    9000001    1    1    2    0    0  0.54492690650E+03 -0.64297758268E+04 -0.78168822688E+03  0.65000000000E+04  0.10000000000E+01 0.  0.
</event>
<event>
 4    1  0.2193160E-006  0.1300000E+05  0.7957747E-01  0.1322471E+00
    9000001   -1    0    0    0    0  0.00000000000E+00  0.00000000000E+00  0.64999999231E+04  0.65000000000E+04  0.10000000000E+01 0.  0.
    9000001   -1    0    0    0    0 -0.00000000000E+00 -0.00000000000E+00 -0.64999999231E+04  0.65000000000E+04  0.10000000000E+01 0.  0.
    9000001    1    1    2    0    0  0.52104574022E+04  0.20414823198E+04  0.33065817090E+04  0.65000000000E+04  0.10000000000E+01 0.  0.
    9000001    1    1    2    0    0 -0.52104574022E+04 -0.20414823198E+04 -0.33065817090E+04  0.65000000000E+04  0.10000000000E+01 0.  0.
</event>
<event>
 4    1  0.2193160E-006  0.1300000E+05  0.7957747E-01  0.1322471E+00
    9000001   -1    0    0    0    0  0.00000000000E+00  0.00000000000E+00  0.64999999231E+04  0.65000000000E+04  0.10000000000E+01 0.  0.
    9000001   -1    0    0    0    0 -0.00000000000E+00 -0.00000000000E+00 -0.64999999231E+04  0.65000000000E+04  0.10000000000E+01 0.  0.
    9000001    1    1    2    0    0 -0.21759494427E+04  0.59024557340E+04  0.16359276666E+04  0.65000000000E+04  0.10000000000E+01 0.  0.
    9000001    1    1    2    0    0  0.21759494427E+04 -0.59024557340E+04 -0.16359276666E+04  0.65000000000E+04  0.10000000000E+01 0.  0.
</event>
<event>
 4    1  0.2193160E-006  0.1300000E+05  0.7957747E-01  0.1322471E+00
    9000001   -1    0    0    0    0  0.00000000000E+00  0.00000000000E+00  0.64999999231E+04  0.65000000000E+04  0.10000000000E+01 0.  0.
    9000001   -1    0    0    0    0 -0.00000000000E+00 -0.00000000000E+00 -0.64999999231E+04  0.65000000000E+04  0.10000000000E+01 0.  0.
    9000001    1    1    2    0    0  0.26927195073E+04 -0.58161488575E+04  0.10824385074E+04  0.65000000000E+04  0.10000000000E+01 0.  0.
    9000001    1    1    2    0    0 -0.26927195073E+04  0.58161488575E+04 -0.10824385074E+04  0.65000000000E+04  0.10000000000E+01 0.  0.
</event>
<event>
 4    1  0.2193160E-006  0.1300000E+05  0.7957747E-01  0.1322471E+00
    9000001   -1    0    0    0    0  0.00000000000E+00  0.00000000000E+00  0.64999999231E+04  0.65000000000E+04  0.10000000000E+01 0.  0.
    9000001   -1    0    0    0    0 -0.00000000000E+00 -0.00000000000E+00 -0.64999999231E+04  0.65000000000E+04  0.10000000000E+01 0.  0.
    9000001    1    1    2    0    0  0.54684257043E+04 -0.10509190961E+04  0.33528925377E+04  0.65000000000E+04  0.10000000000E+01 0.  0.
    9000001    1    1    2    0    0 -0.54684257043E+04  0.10509190961E+04 -0.33528925377E+04  0.65000000000E+04  0.10000000000E+01 0.  0.
</event>
<event>
 4    1  0.2193160E-006  0.1300000E+05  0.7957747E-01  0.1322471E+00
    9000001   -1    0    0    0    0  0.00000000000E+00  0.00000000000E+00  0.64999999231E+04  0.65000000000E+04  0.10000000000E+01 0.  0.
    9000001   -1    0    0    0    0 -0.00000000000E+00 -0.00000000000E+00 -0.64999999231E+04  0.65000000000E+04  0.10000000000E+01 0.  0.
    9000001    1    1    2    0    0 -0.31918453476E+04 -0.27685892771E+04  0.49393355517E+04  0.65000000000E+04  0.10000000000E+01 0.  0.
    9000001    1    1    2    0    0  0.31918453476E+04  0.27685892771E+04 -0.49393355517E+04  0.65000000000E+04  0.10000000000E+01 0.  0.
</event>
<event>
 4    1  0.2193160E-006  0.1300000E+05  0.7957747E-01  0.1322471E+00
    9000001   -1    0    0    0    0  0.00000000000E+00  0.00000000000E+00  0.64999999231E+04  0.65000000000E+04  0.10000000000E+01 0.  0.
    9000001   -1    0    0    0    0 -0.00000000000E+00 -0.00000000000E+00 -0.64999999231E+04  0.65000000000E+04  0.10000000000E+01 0.  0.
    9000001    1    1    2    0    0  0.20632469262E+04  0.16299082078E+04 -0.59444436540E+04  0.65000000000E+04  0.10000000000E+01 0.  0.
    9000001    1    1    2    0    0 -0.20632469262E+04 -0.16299082078E+04  0.59444436540E+04  0.65000000000E+04  0.10000000000E+01 0.  0.
</event>
<event>
 4    1  0.2193160E-006  0.1300000E+05  0.7957747E-01  0.1322471E+00
    9000001   -1    0    0    0    0  0.00000000000E+00  0.00000000000E+00  0.64999999231E+04  0.65000000000E+04  0.10000000000E+01 0.  0.
    9000001   -1    0    0    0    0 -0.00000000000E+00 -0.00000000000E+00 -0.64999999231E+04  0.65000000000E+04  0.10000000000E+01 0.  0.
    9000001    1    1    2    0    0 -0.29547370988E+04 -0.45283548598E+03  0.57718686489E+04  0.65000000000E+04  0.10000000000E+01 0.  0.
    9000001    1    1    2    0    0  0.29547370988E+04  0.45283548598E+03 -0.57718686489E+04  0.65000000000E+04  0.10000000000E+01 0.  0.
</event>
<event>
 4    1  0.2193160E-006  0.1300000E+05  0.7957747E-01  0.1322471E+00
    9000001   -1    0    0    0    0  0.00000000000E+00  0.00000000000E+00  0.64999999231E+04  0.65000000000E+04  0.10000000000E+01 0.  0.
    9000001   -1    0    0    0    0 -0.00000000000E+00 -0.00000000000E+00 -0.64999999231E+04  0.65000000000E+04  0.10000000000E+01 0.  0.
    9000001    1    1    2    0    0 -0.27178871998E+04  0.58007298626E+04 -0.11020985571E+04  0.65000000000E+04  0.10000000000E+01 0.  0.
    9000001    1    1    2    0    0  0.27178871998E+04 -0.58007298626E+04  0.11020985571E+04  0.65000000000E+04  0.10000000000E+01 0.  0.
</event>
<event>
 4    1  0.2193160E-006  0.1300000E+05  0.7957747E-01  0.1322471E+00
    9000001   -1    0    0    0    0  0.00000000000E+00  0.00000000000E+00  0.64999999231E+04  0.65000000000E+04  0.10000000000E+01 0.  0.
    9000001   -1    0    0    0    0 -0.00000000000E+00 -0.00000000000E+00 -0.64999999231E+04  0.65000000000E+04  0.10000000000E+01 0.  0.
    9000001    1    1    2    0    0 -0.35871355594E+04  0.36550342580E+04  0.40028967076E+04  0.65000000000E+04  0.10000000000E+01 0.  0.
    9000001    1    1    2    0    0  0.35871355594E+04 -0.36550342580E+04 -0.40028967076E+04  0.65000000000E+04  0.10000000000E+01 0.  0.
</event>
<event>
 4    1  0.2193160E-006  0.1300000E+05  0.7957747E-01  0.1322471E+00
    9000001   -1    0    0    0    0  0.00000000000E+00  0.00000000000E+00  0.64999999231E+04  0.65000000000E+04  0.10000000000E+01 0.  0.
    9000001   -1    0    0    0    0 -0.00000000000E+00 -0.00000000000E+00 -0.64999999231E+04  0.65000000000E+04  0.10000000000E+01 0.  0.
    9000001    1    1    2    0    0 -0.57672554102E+04 -0.20289894653E+04  0.22072529947E+04  0.65000000000E+04  0.10000000000E+01 0.  0.
    9000001    1    1    2    0    0  0.57672554102E+04  0.20289894653E+04 -0.22072529947E+04  0.65000000000E+04  0.10000000000E+01 0.  0.
</event>
<event>
 4    1  0.2193160E-006  0.1300000E+05  0.7957747E-01  0.1322471E+00
    9000001   -1    0    0    0    0  0.00000000000E+00  0.00000000000E+00  0.64999999231E+04  0.65000000000E+04  0.10000000000E+01 0.  0.
    9000001   -1    0    0    0    0 -0.00000000000E+00 -0.00000000000E+00 -0.64999999231E+04  0.65000000000E+04  0.10000000000E+01 0.  0.
    9000001    1    1    2    0    0 -0.34048532982E+04  0.53773627965E+04 -0.13194477531E+04  0.65000000000E+04  0.10000000000E+01 0.  0.
    9000001    1    1    2    0    0  0.34048532982E+04 -0.53773627965E+04  0.13194477531E+04  0.65000000000E+04  0.10000000000E+01 0.  0.
</event>
<event>
 4    1  0.2193160E-006  0.1300000E+05  0.7957747E-01  0.1322471E+00
    9000001   -1    0    0    0    0  0.00000000000E+00  0.00000000000E+00  0.64999999231E+04  0.65000000000E+04  0.10000000000E+01 0.  0.
    9000001   -1    0    0    0    0 -0.00000000000E+00 -0.00000000000E+00 -0.64999999231E+04  0.65000000000E+04  0.10000000000E+01 0.  0.
    9000001    1    1    2    0    0  0.32125631272E+04  0.50792134662E+03 -0.56277396048E+04  0.65000000000E+04  0.10000000000E+01 0.  0.
    9000001    1    1    2    0    0 -0.32125631272E+04 -0.50792134662E+03  0.56277396048E+04  0.65000000000E+04  0.10000000000E+01 0.  0.
</event>
<event>
 4    1  0.2193160E-006  0.1300000E+05  0.7957747E-01  0.1322471E+00
    9000001   -1    0    0    0    0  0.00000000000E+00  0.00000000000E+00  0.64999999231E+04  0.65000000000E+04  0.10000000000E+01 0.  0.
    9000001   -1    0    0    0    0 -0.00000000000E+00 -0.00000000000E+00 -0.64999999231E+04  0.65000000000E+04  0.10000000000E+01 0.  0.
    9000001    1    1    2    0    0  0.63357450747E+04  0.14376596434E+04  0.20363717254E+03  0.65000000000E+04  0.10000000000E+01 0.  0.
    9000001    1    1    2    0    0 -0.63357450747E+04 -0.14376596434E+04 -0.20363717254E+03  0.65000000000E+04  0.10000000000E+01 0.  0.
</event>
<event>
 4    1  0.2193160E-006  0.1300000E+05  0.7957747E-01  0.1322471E+00
    9000001   -1    0    0    0    0  0.00000000000E+00  0.00000000000E+00  0.64999999231E+04  0.65000000000E+04  0.10000000000E+01 0.  0.
    9000001   -1    0    0    0    0 -0.00000000000E+00 -0.00000000000E+00 -0.64999999231E+04  0.65000000000E+04  0.10000000000E+01 0.  0.
    9000001    1    1    2    0    0 -0.23260576220E+03  0.49430756294E+04  0.42144865501E+04  0.65000000000E+04  0.10000000000E+01 0.  0.
    9000001    1    1    2    0    0  0.23260576220E+03 -0.49430756294E+04 -0.42144865501E+04  0.65000000000E+04  0.10000000000E+01 0.  0.
</event>
<event>
 4    1  0.2193160E-006  0.1300000E+05  0.7957747E-01  0.1322471E+00
    9000001   -1    0    0    0    0  0.00000000000E+00  0.00000000000E+00  0.64999999231E+04  0.65000000000E+04  0.10000000000E+01 0.  0.
    9000001   -1    0    0    0    0 -0.00000000000E+00 -0.00000000000E+00 -0.64999999231E+04  0.65000000000E+04  0.10000000000E+01 0.  0.
    9000001    1    1    2    0    0 -0.23932198560E+04  0.33155762768E+04  0.50526677779E+04  0.65000000000E+04  0.10000000000E+01 0.  0.
    9000001    1    1    2    0    0  0.23932198560E+04 -0.33155762768E+04 -0.50526677779E+04  0.65000000000E+04  0.10000000000E+01 0.  0.
</event>
<event>
 4    1  0.2193160E-006  0.1300000E+05  0.7957747E-01  0.1322471E+00
    9000001   -1    0    0    0    0  0.00000000000E+00  0.00000000000E+00  0.64999999231E+04  0.65000000000E+04  0.10000000000E+01 0.  0.
    9000001   -1    0    0    0    0 -0.00000000000E+00 -0.00000000000E+00 -0.64999999231E+04  0.65000000000E+04  0.10000000000E+01 0.  0.
    9000001    1    1    2    0    0 -0.45102375125E+04  0.13788003994E+04 -0.44728811788E+04  0.65000000000E+04  0.10000000000E+01 0.  0.
    9000001    1    1    2    0    0  0.45102375125E+04 -0.13788003994E+04  0.44728811788E+04  0.65000000000E+04  0.10000000000E+01 0.  0.
</event>
<event>
 4    1  0.2193160E-006  0.1300000E+05  0.7957747E-01  0.1322471E+00
    9000001   -1    0    0    0    0  0.00000000000E+00  0.00000000000E+00  0.64999999231E+04  0.65000000000E+04  0.10000000000E+01 0.  0.
    9000001   -1    0    0    0    0 -0.00000000000E+00 -0.00000000000E+00 -0.64999999231E+04  0.65000000000E+04  0.10000000000E+01 0.  0.
    9000001    1    1    2    0    0  0.40793271891E+04 -0.36614277793E+04 -0.34932843144E+04  0.65000000000E+04  0.10000000000E+01 0.  0.
    9000001    1    1    2    0    0 -0.40793271891E+04  0.36614277793E+04  0.34932843144E+04  0.65000000000E+04  0.10000000000E+01 0.  0.
</event>
<event>
 4    1  0.2193160E-006  0.1300000E+05  0.7957747E-01  0.1322471E+00
    9000001   -1    0    0    0    0  0.00000000000E+00  0.00000000000E+00  0.64999999231E+04  0.65000000000E+04  0.10000000000E+01 0.  0.
    9000001   -1    0    0    0    0 -0.00000000000E+00 -0.00000000000E+00 -0.64999999231E+04  0.65000000000E+04  0.10000000000E+01 0.  0.
    9000001    1    1    2    0    0  0.17939334826E+04  0.33644662279E+04  0.52642348600E+04  0.65000000000E+04  0.10000000000E+01 0.  0.
    9000001    1    1    2    0    0 -0.17939334826E+04 -0.33644662279E+04 -0.52642348600E+04  0.65000000000E+04  0.10000000000E+01 0.  0.
</event>
<event>
 4    1  0.2193160E-006  0.1300000E+05  0.7957747E-01  0.1322471E+00
    9000001   -1    0    0    0    0  0.00000000000E+00  0.00000000000E+00  0.64999999231E+04  0.65000000000E+04  0.10000000000E+01 0.  0.
    9000001   -1    0    0    0    0 -0.00000000000E+00 -0.00000000000E+00 -0.64999999231E+04  0.65000000000E+04  0.10000000000E+01 0.  0.
    9000001    1    1    2    0    0  0.60354395643E+04  0.24874316594E+03  0.24003322902E+04  0.65000000000E+04  0.10000000000E+01 0.  0.
    9000001    1    1    2    0    0 -0.60354395643E+04 -0.24874316594E+03 -0.24003322902E+04  0.65000000000E+04  0.10000000000E+01 0.  0.
</event>
<event>
 4    1  0.2193160E-006  0.1300000E+05  0.7957747E-01  0.1322471E+00
    9000001   -1    0    0    0    0  0.00000000000E+00  0.00000000000E+00  0.64999999231E+04  0.65000000000E+04  0.10000000000E+01 0.  0.
    9000001   -1    0    0    0    0 -0.00000000000E+00 -0.00000000000E+00 -0.64999999231E+04  0.65000000000E+04  0.10000000000E+01 0.  0.
    9000001    1    1    2    0    0 -0.37267847447E+04 -0.40858597690E+04 -0.34156733471E+04  0.65000000000E+04  0.10000000000E+01 0.  0.
    9000001    1    1    2    0    0  0.37267847447E+04  0.40858597690E+04  0.34156733471E+04  0.65000000000E+04  0.10000000000E+01 0.  0.
</event>
<event>
 4    1  0.2193160E-006  0.1300000E+05  0.7957747E-01  0.1322471E+00
    9000001   -1    0    0    0    0  0.00000000000E+00  0.00000000000E+00  0.64999999231E+04  0.65000000000E+04  0.10000000000E+01 0.  0.
    9000001   -1    0    0    0    0 -0.00000000000E+00 -0.00000000000E+00 -0.64999999231E+04  0.65000000000E+04  0.10000000000E+01 0.  0.
    9000001    1    1    2    0    0  0.35820697109E+04  0.48613767098E+04 -0.24053673465E+04  0.65000000000E+04  0.10000000000E+01 0.  0.
    9000001    1    1    2    0    0 -0.35820697109E+04 -0.48613767098E+04  0.24053673465E+04  0.65000000000E+04  0.10000000000E+01 0.  0.
</event>
<event>
 4    1  0.2193160E-006  0.1300000E+05  0.7957747E-01  0.1322471E+00
    9000001   -1    0    0    0    0  0.00000000000E+00  0.00000000000E+00  0.64999999231E+04  0.65000000000E+04  0.10000000000E+01 0.  0.
    9000001   -1    0    0    0    0 -0.00000000000E+00 -0.00000000000E+00 -0.64999999231E+04  0.65000000000E+04  0.10000000000E+01 0.  0.
    9000001    1    1    2    0    0 -0.64996039439E+04 -0.90407749675E+01 -0.71174696035E+02  0.65000000000E+04  0.10000000000E+01 0.  0.
    9000001    1    1    2    0    0  0.64996039439E+04  0.90407749675E+01  0.71174696035E+02  0.65000000000E+04  0.10000000000E+01 0.  0.
</event>
<event>
 4    1  0.2193160E-006  0.1300000E+05  0.7957747E-01  0.1322471E+00
    9000001   -1    0    0    0    0  0.00000000000E+00  0.00000000000E+00  0.64999999231E+04  0.65000000000E+04  0.10000000000E+01 0.  0.
    9000001   -1    0    0    0    0 -0.00000000000E+00 -0.00000000000E+00 -0.64999999231E+04  0.65000000000E+04  0.10000000000E+01 0.  0.
    9000001    1    1    2    0    0 -0.36936632836E+04  0.51861314920E+04 -0.13080102045E+04  0.65000000000E+04  0.10000000000E+01 0.  0.
    9000001    1    1    2    0    0  0.36936632836E+04 -0.51861314920E+04  0.13080102045E+04  0.65000000000E+04  0.10000000000E+01 0.  0.
</event>
<event>
 4    1  0.2193160E-006  0.1300000E+05  0.7957747E-01  0.1322471E+00
    9000001   -1    0    0    0    0  0.00000000000E+00  0.00000000000E+00  0.64999999231E+04  0.65000000000E+04  0.10000000000E+01 0.  0.
    9000001   -1    0    0    0    0 -0.00000000000E+00 -0.00000000000E+00 -0.64999999231E+04  0.65000000000E+04  0.10000000000E+01 0.  0.
    9000001    1    1    2    0    0  0.25488421467E+04  0.49967041872E+04  0.32842579035E+04  0.65000000000E+04  0.10000000000E+01 0.  0.
    9000001    1    1    2    0    0 -0.25488421467E+04 -0.49967041872E+04 -0.32842579035E+04  0.65000000000E+04  0.10000000000E+01 0.  0.
</event>
<event>
 4    1  0.2193160E-006  0.1300000E+05  0.7957747E-01  0.1322471E+00
    9000001   -1    0    0    0    0  0.00000000000E+00  0.00000000000E+00  0.64999999231E+04  0.65000000000E+04  0.10000000000E+01 0.  0.
    9000001   -1    0    0    0    0 -0.00000000000E+00 -0.00000000000E+00 -0.64999999231E+04  0.65000000000E+04  0.10000000000E+01 0.  0.
    9000001    1    1    2    0    0 -0.40003497694E+04 -0.50487190443E+04 -0.87042330700E+03  0.65000000000E+04  0.10000000000E+01 0.  0.
    9000001    1    1    2    0    0  0.40003497694E+04  0.50487190443E+04  0.87042330700E+03  0.65000000000E+04  0.10000000000E+01 0.  0.
</event>
<event>
 4    1  0.2193160E-006  0.1300000E+05  0.7957747E-01  0.1322471E+00
    9000001   -1    0    0    0    0  0.00000000000E+00  0.00000000000E+00  0.64999999231E+04  0.65000000000E+04  0.10000000000E+01 0.  0.
    9000001   -1    0    0    0    0 -0.00000000000E+00 -0.00000000000E+00 -0.64999999231E+04  0.65000000000E+04  0.10000000000E+01 0.  0.
    9000001    1    1    2    0    0  0.39136429951E+03  0.11471082009E+04  0.63859984153E+04  0.65000000000E+04  0.10000000000E+01 0.  0.
    9000001    1    1    2    0    0 -0.39136429951E+03 -0.11471082009E+04 -0.63859984153E+04  0.65000000000E+04  0.10000000000E+01 0.  0.
</event>
<event>
 4    1  0.2193160E-006  0.1300000E+05  0.7957747E-01  0.1322471E+00
    9000001   -1    0    0    0    0  0.00000000000E+00  0.00000000000E+00  0.64999999231E+04  0.65000000000E+04  0.10000000000E+01 0.  0.
    9000001   -1    0    0    0    0 -0.00000000000E+00 -0.00000000000E+00 -0.64999999231E+04  0.65000000000E+04  0.10000000000E+01 0.  0.
    9000001    1    1    2    0    0 -0.61879672555E+04  0.14022995487E+04 -0.14116005881E+04  0.65000000000E+04  0.10000000000E+01 0.  0.
    9000001    1    1    2    0    0  0.61879672555E+04 -0.14022995487E+04  0.14116005881E+04  0.65000000000E+04  0.10000000000E+01 0.  0.
</event>
<event>
 4    1  0.2193160E-006  0.1300000E+05  0.7957747E-01  0.1322471E+00
    9000001   -1    0    0    0    0  0.00000000000E+00  0.00000000000E+00  0.64999999231E+04  0.65000000000E+04  0.10000000000E+01 0.  0.
    9000001   -1    0    0    0    0 -0.00000000000E+00 -0.00000000000E+00 -0.64999999231E+04  0.65000000000E+04  0.10000000000E+01 0.  0.
    9000001    1    1    2    0    0 -0.52247665954E+04  0.35928270111E+04  0.14294779090E+04  0.65000000000E+04  0.10000000000E+01 0.  0.
    9000001    1    1    2    0    0  0.52247665954E+04 -0.35928270111E+04 -0.14294779090E+04  0.65000000000E+04  0.10000000000E+01 0.  0.
</event>
<event>
 4    1  0.2193160E-006  0.1300000E+05  0.7957747E-01  0.1322471E+00
    9000001   -1    0    0    0    0  0.00000000000E+00  0.00000000000E+00  0.64999999231E+04  0.65000000000E+04  0.10000000000E+01 0.  0.
    9000001   -1    0    0    0    0 -0.00000000000E+00 -0.00000000000E+00 -0.64999999231E+04  0.65000000000E+04  0.10000000000E+01 0.  0.
    9000001    1    1    2    0    0  0.65603586234E+03  0.62052647551E+04 -0.18205233496E+04  0.65000000000E+04  0.10000000000E+01 0.  0.
    9000001    1    1    2    0    0 -0.65603586234E+03 -0.62052647551E+04  0.18205233496E+04  0.65000000000E+04  0.10000000000E+01 0.  0.
</event>
<event>
 4    1  0.2193160E-006  0.1300000E+05  0.7957747E-01  0.1322471E+00
    9000001   -1    0    0    0    0  0.00000000000E+00  0.00000000000E+00  0.64999999231E+04  0.65000000000E+04  0.10000000000E+01 0.  0.
    9000001   -1    0    0    0    0 -0.00000000000E+00 -0.00000000000E+00 -0.64999999231E+04  0.65000000000E+04  0.10000000000E+01 0.  0.
    9000001    1    1    2    0    0 -0.26623806319E+04  0.58343121244E+04  0.10594953545E+04  0.65000000000E+04  0.10000000000E+01 0.  0.
    9000001    1    1    2    0    0  0.26623806319E+04 -0.58343121244E+04 -0.10594953545E+04  0.65000000000E+04  0.10000000000E+01 0.  0.
</event>
<event>
 4    1  0.2193160E-006  0.1300000E+05  0.7957747E-01  0.1322471E+00
    9000001   -1    0    0    0    0  0.00000000000E+00  0.00000000000E+00  0.64999999231E+04  0.65000000000E+04  0.10000000000E+01 0.  0.
    9000001   -1    0    0    0    0 -0.00000000000E+00 -0.00000000000E+00 -0.64999999231E+04  0.65000000000E+04  0.10000000000E+01 0.  0.
    9000001    1    1    2    0    0 -0.30723325578E+04  0.46029200589E+04  0.34093839012E+04  0.65000000000E+04  0.10000000000E+01 0.  0.
    9000001    1    1    2    0    0  0.30723325578E+04 -0.46029200589E+04 -0.34093839012E+04  0.65000000000E+04  0.10000000000E+01 0.  0.
</event>
<event>
 4    1  0.2193160E-006  0.1300000E+05  0.7957747E-01  0.1322471E+00
    9000001   -1    0    0    0    0  0.00000000000E+00  0.00000000000E+00  0.64999999231E+04  0.65000000000E+04  0.10000000000E+01 0.  0.
    9000001   -1    0    0    0    0 -0.00000000000E+00 -0.00000000000E+00 -0.64999999231E+04  0.65000000000E+04  0.10000000000E+01 0.  0.
    9000001    1    1    2    0    0  0.11474068132E+03  0.35975311050E+04  0.54124489397E+04  0.65000000000E+04  0.10000000000E+01 0.  0.
    9000001    1    1    2    0    0 -0.11474068132E+03 -0.35975311050E+04 -0.54124489397E+04  0.65000000000E+04  0.10000000000E+01 0.  0.
</event>
<event>
 4    1  0.2193160E-006  0.1300000E+05  0.7957747E-01  0.1322471E+00
    9000001   -1    0    0    0    0  0.00000000000E+00  0.00000000000E+00  0.64999999231E+04  0.65000000000E+04  0.10000000000E+01 0.  0.
    9000001   -1    0    0    0    0 -0.00000000000E+00 -0.00000000000E+00 -0.64999999231E+04  0.65000000000E+04  0.10000000000E+01 0.  0.
    9000001    1    1    2    0    0 -0.42660921479E+04  0.48558278751E+04  0.68658024496E+03  0.65000000000E+04  0.10000000000E+01 0.  0.
    9000001    1    1    2    0    0  0.42660921479E+04 -0.48558278751E+04 -0.68658024496E+03  0.65000000000E+04  0.10000000000E+01 0.  0.
</event>
<event>
 4    1  0.2193160E-006  0.1300000E+05  0.7957747E-01  0.1322471E+00
    9000001   -1    0    0    0    0  0.00000000000E+00  0.00000000000E+00  0.64999999231E+04  0.65000000000E+04  0.10000000000E+01 0.  0.
    9000001   -1    0    0    0    0 -0.00000000000E+00 -0.00000000000E+00 -0.64999999231E+04  0.65000000000E+04  0.10000000000E+01 0.  0.
    9000001    1    1    2    0    0  0.33612087619E+04 -0.30997813761E+02  0.55633904945E+04  0.65000000000E+04  0.10000000000E+01 0.  0.
    9000001    1    1    2    0    0 -0.33612087619E+04  0.30997813761E+02 -0.55633904945E+04  0.65000000000E+04  0.10000000000E+01 0.  0.
</event>
<event>
 4    1  0.2193160E-006  0.1300000E+05  0.7957747E-01  0.1322471E+00
    9000001   -1    0    0    0    0  0.00000000000E+00  0.00000000000E+00  0.64999999231E+04  0.65000000000E+04  0.10000000000E+01 0.  0.
    9000001   -1    0    0    0    0 -0.00000000000E+00 -0.00000000000E+00 -0.64999999231E+04  0.65000000000E+04  0.10000000000E+01 0.  0.
    9000001    1    1    2    0    0  0.32423802627E+04  0.23935476570E+04  0.50997940003E+04  0.65000000000E+04  0.10000000000E+01 0.  0.
    9000001    1    1    2    0    0 -0.32423802627E+04 -0.23935476570E+04 -0.50997940003E+04  0.65000000000E+04  0.10000000000E+01 0.  0.
</event>
<event>
 4    1  0.2193160E-006  0.1300000E+05  0.7957747E-01  0.1322471E+00
    9000001   -1    0    0    0    0  0.00000000000E+00  0.00000000000E+00  0.64999999231E+04  0.65000000000E+04  0.10000000000E+01 0.  0.
    9000001   -1    0    0    0    0 -0.00000000000E+00 -0.00000000000E+00 -0.64999999231E+04  0.65000000000E+04  0.10000000000E+01 0.  0.
    9000001    1    1    2    0    0  0.50317278666E+04 -0.22003418854E+03  0.41089291345E+04  0.65000000000E+04  0.10000000000E+01 0.  0.
    9000001    1    1    2    0    0 -0.50317278666E+04  0.22003418854E+03 -0.41089291345E+04  0.65000000000E+04  0.10000000000E+01 0.  0.
</event>
<event>
 4    1  0.2193160E-006  0.1300000E+05  0.7957747E-01  0.1322471E+00
    9000001   -1    0    0    0    0  0.00000000000E+00  0.00000000000E+00  0.64999999231E+04  0.65000000000E+04  0.10000000000E+01 0.  0.
    9000001   -1    0    0    0    0 -0.00000000000E+00 -0.00000000000E+00 -0.64999999231E+04  0.65000000000E+04  0.10000000000E+01 0.  0.
    9000001    1    1    2    0    0  0.16051044052E+03 -0.64739263306E+04  0.55902885833E+03  0.65000000000E+04  0.10000000000E+01 0.  0.
    9000001    1    1    2    0    0 -0.16051044052E+03  0.64739263306E+04 -0.55902885833E+03  0.65000000000E+04  0.10000000000E+01 0.  0.
</event>
<event>
 4    1  0.2193160E-006  0.1300000E+05  0.7957747E-01  0.1322471E+00
    9000001   -1    0    0    0    0  0.00000000000E+00  0.00000000000E+00  0.64999999231E+04  0.65000000000E+04  0.10000000000E+01 0.  0.
    9000001   -1    0    0    0    0 -0.00000000000E+00 -0.00000000000E+00 -0.64999999231E+04  0.65000000000E+04  0.10000000000E+01 0.  0.
    9000001    1    1    2    0    0 -0.58573296068E+03 -0.16340374090E+04 -0.62639314847E+04  0.65000000000E+04  0.10000000000E+01 0.  0.
    9000001    1    1    2    0    0  0.58573296068E+03  0.16340374090E+04  0.62639314847E+04  0.65000000000E+04  0.10000000000E+01 0.  0.
</event>
<event>
 4    1  0.2193160E-006  0.1300000E+05  0.7957747E-01  0.1322471E+00
    9000001   -1    0    0    0    0  0.00000000000E+00  0.00000000000E+00  0.64999999231E+04  0.65000000000E+04  0.10000000000E+01 0.  0.
    9000001   -1    0    0    0    0 -0.00000000000E+00 -0.00000000000E+00 -0.64999999231E+04  0.65000000000E+04  0.10000000000E+01 0.  0.
    9000001    1    1    2    0    0 -0.38016786789E+03  0.11238444512E+04 -0.63908094199E+04  0.65000000000E+04  0.10000000000E+01 0.  0.
    9000001    1    1    2    0    0  0.38016786789E+03 -0.11238444512E+04  0.63908094199E+04  0.65000000000E+04  0.10000000000E+01 0.  0.
</event>
<event>
 4    1  0.2193160E-006  0.1300000E+05  0.7957747E-01  0.1322471E+00
    9000001   -1    0    0    0    0  0.00000000000E+00  0.00000000000E+00  0.64999999231E+04  0.65000000000E+04  0.10000000000E+01 0.  0.
    9000001   -1    0    0    0    0 -0.00000000000E+00 -0.00000000000E+00 -0.64999999231E+04  0.65000000000E+04  0.10000000000E+01 0.  0.
    9000001    1    1    2    0    0  0.48804364633E+04 -0.41237314352E+04 -0.11942269374E+04  0.65000000000E+04  0.10000000000E+01 0.  0.
    9000001    1    1    2    0    0 -0.48804364633E+04  0.41237314352E+04  0.11942269374E+04  0.65000000000E+04  0.10000000000E+01 0.  0.
</event>
<event>
 4    1  0.2193160E-006  0.1300000E+05  0.7957747E-01  0.1322471E+00
    9000001   -1    0    0    0    0  0.00000000000E+00  0.00000000000E+00  0.64999999231E+04  0.65000000000E+04  0.10000000000E+01 0.  0.
    9000001   -1    0    0    0    0 -0.00000000000E+00 -0.00000000000E+00 -0.64999999231E+04  0.65000000000E+04  0.10000000000E+01 0.  0.
    9000001    1    1    2    0    0 -0.26087173886E+04 -0.12691277967E+04  0.58166921203E+04  0.65000000000E+04  0.10000000000E+01 0.  0.
    9000001    1    1    2    0    0  0.26087173886E+04  0.12691277967E+04 -0.58166921203E+04  0.65000000000E+04  0.10000000000E+01 0.  0.
</event>
<event>
 4    1  0.2193160E-006  0.1300000E+05  0.7957747E-01  0.1322471E+00
    9000001   -1    0    0    0    0  0.00000000000E+00  0.00000000000E+00  0.64999999231E+04  0.65000000000E+04  0.10000000000E+01 0.  0.
    9000001   -1    0    0    0    0 -0.00000000000E+00 -0.00000000000E+00 -0.64999999231E+04  0.65000000000E+04  0.10000000000E+01 0.  0.
    9000001    1    1    2    0    0  0.27083967349E+04  0.32350026044E+04  0.49446278198E+04  0.65000000000E+04  0.10000000000E+01 0.  0.
    9000001    1    1    2    0    0 -0.27083967349E+04 -0.32350026044E+04 -0.49446278198E+04  0.65000000000E+04  0.10000000000E+01 0.  0.
</event>
<event>
 4    1  0.2193160E-006  0.1300000E+05  0.7957747E-01  0.1322471E+00
    9000001   -1    0    0    0    0  0.00000000000E+00  0.00000000000E+00  0.64999999231E+04  0.65000000000E+04  0.10000000000E+01 0.  0.
    9000001   -1    0    0    0    0 -0.00000000000E+00 -0.00000000000E+00 -0.64999999231E+04  0.65000000000E+04  0.10000000000E+01 0.  0.
    9000001    1    1    2    0    0 -0.37873236882E+04  0.52826198373E+04 -0.10292469581E+02  0.65000000000E+04  0.10000000000E+01 0.  0.
    9000001    1    1    2    0    0  0.37873236882E+04 -0.52826198373E+04  0.10292469581E+02  0.65000000000E+04  0.10000000000E+01 0.  0.
</event>
<event>
 4    1  0.2193160E-006  0.1300000E+05  0.7957747E-01  0.1322471E+00
    9000001   -1    0    0    0    0  0.00000000000E+00  0.00000000000E+00  0.64999999231E+04  0.65000000000E+04  0.10000000000E+01 0.  0.
    9000001   -1    0    0    0    0 -0.00000000000E+00 -0.00000000000E+00 -0.64999999231E+04  0.65000000000E+04  0.10000000000E+01 0.  0.
    9000001    1    1    2    0    0 -0.53754690496E+04  0.17813731145E+04  0.31907744082E+04  0.65000000000E+04  0.10000000000E+01 0.  0.
    9000001    1    1    2    0    0  0.53754690496E+04 -0.17813731145E+04 -0.31907744082E+04  0.65000000000E+04  0.10000000000E+01 0.  0.
</event>
<event>
 4    1  0.2193160E-006  0.1300000E+05  0.7957747E-01  0.1322471E+00
    9000001   -1    0    0    0    0  0.00000000000E+00  0.00000000000E+00  0.64999999231E+04  0.65000000000E+04  0.10000000000E+01 0.  0.
    9000001   -1    0    0    0    0 -0.00000000000E+00 -0.00000000000E+00 -0.64999999231E+04  0.65000000000E+04  0.10000000000E+01 0.  0.
    9000001    1    1    2    0    0  0.55885239714E+04 -0.29955030602E+04  0.14301609132E+04  0.65000000000E+04  0.10000000000E+01 0.  0.
    9000001    1    1    2    0    0 -0.55885239714E+04  0.29955030602E+04 -0.14301609132E+04  0.65000000000E+04  0.10000000000E+01 0.  0.
</event>
<event>
 4    1  0.2193160E-006  0.1300000E+05  0.7957747E-01  0.1322471E+00
    9000001   -1    0    0    0    0  0.00000000000E+00  0.00000000000E+00  0.64999999231E+04  0.65000000000E+04  0.10000000000E+01 0.  0.
    9000001   -1    0    0    0    0 -0.00000000000E+00 -0.00000000000E+00 -0.64999999231E+04  0.65000000000E+04  0.10000000000E+01 0.  0.
    9000001    1    1    2    0    0  0.31699715339E+04  0.56480390455E+04  0.54857489419E+03  0.65000000000E+04  0.10000000000E+01 0.  0.
    9000001    1    1    2    0    0 -0.31699715339E+04 -0.56480390455E+04 -0.54857489419E+03  0.65000000000E+04  0.10000000000E+01 0.  0.
</event>
<event>
 4    1  0.2193160E-006  0.1300000E+05  0.7957747E-01  0.1322471E+00
    9000001   -1    0    0    0    0  0.00000000000E+00  0.00000000000E+00  0.64999999231E+04  0.65000000000E+04  0.10000000000E+01 0.  0.
    9000001   -1    0    0    0    0 -0.00000000000E+00 -0.00000000000E+00 -0.64999999231E+04  0.65000000000E+04  0.10000000000E+01 0.  0.
    9000001    1    1    2    0    0 -0.13570239097E+04  0.30147380605E+04  0.55964130955E+04  0.65000000000E+04  0.10000000000E+01 0.  0.
    9000001    1    1    2    0    0  0.13570239097E+04 -0.30147380605E+04 -0.55964130955E+04  0.65000000000E+04  0.10000000000E+01 0.  0.
</event>
<event>
 4    1  0.2193160E-006  0.1300000E+05  0.7957747E-01  0.1322471E+00
    9000001   -1    0    0    0    0  0.00000000000E+00  0.00000000000E+00  0.64999999231E+04  0.65000000000E+04  0.10000000000E+01 0.  0.
    9000001   -1    0    0    0    0 -0.00000000000E+00 -0.00000000000E+00 -0.64999999231E+04  0.65000000000E+04  0.10000000000E+01 0.  0.
    9000001    1    1    2    0    0  0.44938212257E+04  0.19149480209E+04  0.42881865478E+04  0.65000000000E+04  0.10000000000E+01 0.  0.
    9000001    1    1    2    0    0 -0.44938212257E+04 -0.19149480209E+04 -0.42881865478E+04  0.65000000000E+04  0.10000000000E+01 0.  0.
</event>
<event>
 4    1  0.2193160E-006  0.1300000E+05  0.7957747E-01  0.1322471E+00
    9000001   -1    0    0    0    0  0.00000000000E+00  0.00000000000E+00  0.64999999231E+04  0.65000000000E+04  0.10000000000E+01 0.  0.
    9000001   -1    0    0    0    0 -0.00000000000E+00 -0.00000000000E+00 -0.64999999231E+04  0.65000000000E+04  0.10000000000E+01 0.  0.
    9000001    1    1    2    0    0  0.64057441222E+04  0.10835501909E+04  0.20581599724E+03  0.65000000000E+04  0.10000000000E+01 0.  0.
    9000001    1    1    2    0    0 -0.64057441222E+04 -0.10835501909E+04 -0.20581599724E+03  0.65000000000E+04  0.10000000000E+01 0.  0.
</event>
<event>
 4    1  0.2193160E-006  0.1300000E+05  0.7957747E-01  0.1322471E+00
    9000001   -1    0    0    0    0  0.00000000000E+00  0.00000000000E+00  0.64999999231E+04  0.65000000000E+04  0.10000000000E+01 0.  0.
    9000001   -1    0    0    0    0 -0.00000000000E+00 -0.00000000000E+00 -0.64999999231E+04  0.65000000000E+04  0.10000000000E+01 0.  0.
    9000001    1    1    2    0    0 -0.42006825318E+04  0.48009951572E+04 -0.12468804141E+04  0.65000000000E+04  0.10000000000E+01 0.  0.
    9000001    1    1    2    0    0  0.42006825318E+04 -0.48009951572E+04  0.12468804141E+04  0.65000000000E+04  0.10000000000E+01 0.  0.
</event>
<event>
 4    1  0.2193160E-006  0.1300000E+05  0.7957747E-01  0.1322471E+00
    9000001   -1    0    0    0    0  0.00000000000E+00  0.00000000000E+00  0.64999999231E+04  0.65000000000E+04  0.10000000000E+01 0.  0.
    9000001   -1    0    0    0    0 -0.00000000000E+00 -0.00000000000E+00 -0.64999999231E+04  0.65000000000E+04  0.10000000000E+01 0.  0.
    9000001    1    1    2    0    0 -0.11023647779E+04 -0.19237193616E+04 -0.61101632314E+04  0.65000000000E+04  0.10000000000E+01 0.  0.
    9000001    1    1    2    0    0  0.11023647779E+04  0.19237193616E+04  0.61101632314E+04  0.65000000000E+04  0.10000000000E+01 0.  0.
</event>
<event>
 4    1  0.2193160E-006  0.1300000E+05  0.7957747E-01  0.1322471E+00
    9000001   -1    0    0    0    0  0.00000000000E+00  0.00000000000E+00  0.64999999231E+04  0.65000000000E+04  0.10000000000E+01 0.  0.
    9000001   -1    0    0    0    0 -0.00000000000E+00 -0.00000000000E+00 -0.64999999231E+04  0.65000000000E+04  0.10000000000E+01 0.  0.
    9000001    1    1    2    0    0  0.38131043192E+04  0.48029958509E+04 -0.21544060217E+04  0.65000000000E+04  0.10000000000E+01 0.  0.
    9000001    1    1    2    0    0 -0.38131043192E+04 -0.48029958509E+04  0.21544060217E+04  0.65000000000E+04  0.10000000000E+01 0.  0.
</event>
<event>
 4    1  0.2193160E-006  0.1300000E+05  0.7957747E-01  0.1322471E+00
    9000001   -1    0    0    0    0  0.00000000000E+00  0.00000000000E+00  0.64999999231E+04  0.65000000000E+04  0.10000000000E+01 0.  0.
    9000001   -1    0    0    0    0 -0.00000000000E+00 -0.00000000000E+00 -0.64999999231E+04  0.65000000000E+04  0.10000000000E+01 0.  0.
    9000001    1    1    2    0    0  0.32852718046E+04 -0.54661178650E+04 -0.12564010729E+04  0.65000000000E+04  0.10000000000E+01 0.  0.
    9000001    1    1    2    0    0 -0.32852718046E+04  0.54661178650E+04  0.12564010729E+04  0.65000000000E+04  0.10000000000E+01 0.  0.
</event>
<event>
 4    1  0.2193160E-006  0.1300000E+05  0.7957747E-01  0.1322471E+00
    9000001   -1    0    0    0    0  0.00000000000E+00  0.00000000000E+00  0.64999999231E+04  0.65000000000E+04  0.10000000000E+01 0.  0.
    9000001   -1    0    0    0    0 -0.00000000000E+00 -0.00000000000E+00 -0.64999999231E+04  0.65000000000E+04  0.10000000000E+01 0.  0.
    9000001    1    1    2    0    0 -0.55577791315E+03  0.53461185281E+03  0.64540917315E+04  0.65000000000E+04  0.10000000000E+01 0.  0.
    9000001    1    1    2    0    0  0.55577791315E+03 -0.53461185281E+03 -0.64540917315E+04  0.65000000000E+04  0.10000000000E+01 0.  0.
</event>
<event>
 4    1  0.2193160E-006  0.1300000E+05  0.7957747E-01  0.1322471E+00
    9000001   -1    0    0    0    0  0.00000000000E+00  0.00000000000E+00  0.64999999231E+04  0.65000000000E+04  0.10000000000E+01 0.  0.
    9000001   -1    0    0    0    0 -0.00000000000E+00 -0.00000000000E+00 -0.64999999231E+04  0.65000000000E+04  0.10000000000E+01 0.  0.
    9000001    1    1    2    0    0  0.23016665442E+04  0.59807455316E+04  0.10876640134E+04  0.65000000000E+04  0.10000000000E+01 0.  0.
    9000001    1    1    2    0    0 -0.23016665442E+04 -0.59807455316E+04 -0.10876640134E+04  0.65000000000E+04  0.10000000000E+01 0.  0.
</event>
<event>
 4    1  0.2193160E-006  0.1300000E+05  0.7957747E-01  0.1322471E+00
    9000001   -1    0    0    0    0  0.00000000000E+00  0.00000000000E+00  0.64999999231E+04  0.65000000000E+04  0.10000000000E+01 0.  0.
    9000001   -1    0    0    0    0 -0.00000000000E+00 -0.00000000000E+00 -0.64999999231E+04  0.65000000000E+04  0.10000000000E+01 0.  0.
    9000001    1    1    2    0    0  0.44570540434E+04 -0.43008170265E+04  0.19717102116E+04  0.65000000000E+04  0.10000000000E+01 0.  0.
    9000001    1    1    2    0    0 -0.44570540434E+04  0.43008170265E+04 -0.19717102116E+04  0.65000000000E+04  0.10000000000E+01 0.  0.
</event>
<event>
 4    1  0.2193160E-006  0.1300000E+05  0.7957747E-01  0.1322471E+00
    9000001   -1    0    0    0    0  0.00000000000E+00  0.00000000000E+00  0.64999999231E+04  0.65000000000E+04  0.10000000000E+01 0.  0.
    9000001   -1    0    0    0    0 -0.00000000000E+00 -0.00000000000E+00 -0.64999999231E+04  0.65000000000E+04  0.10000000000E+01 0.  0.
    9000001    1    1    2    0    0 -0.59939154018E+04 -0.25094565356E+04  0.16001578624E+03  0.65000000000E+04  0.10000000000E+01 0.  0.
    9000001    1    1    2    0    0  0.59939154018E+04  0.25094565356E+04 -0.16001578624E+03  0.65000000000E+04  0.10000000000E+01 0.  0.
</event>
<event>
 4    1  0.2193160E-006  0.1300000E+05  0.7957747E-01  0.1322471E+00
    9000001   -1    0    0    0    0  0.00000000000E+00  0.00000000000E+00  0.64999999231E+04  0.65000000000E+04  0.10000000000E+01 0.  0.
    9000001   -1    0    0    0    0 -0.00000000000E+00 -0.00000000000E+00 -0.64999999231E+04  0.65000000000E+04  0.10000000000E+01 0.  0.
    9000001    1    1    2    0    0  0.47341157158E+04  0.35147121820E+04 -0.27358628743E+04  0.65000000000E+04  0.10000000000E+01 0.  0.
    9000001    1    1    2    0    0 -0.47341157158E+04 -0.35147121820E+04  0.27358628743E+04  0.65000000000E+04  0.10000000000E+01 0.  0.
</event>
<event>
 4    1  0.2193160E-006  0.1300000E+05  0.7957747E-01  0.1322471E+00
    9000001   -1    0    0    0    0  0.00000000000E+00  0.00000000000E+00  0.64999999231E+04  0.65000000000E+04  0.10000000000E+01 0.  0.
    9000001   -1    0    0    0    0 -0.00000000000E+00 -0.00000000000E+00 -0.64999999231E+04  0.65000000000E+04  0.10000000000E+01 0.  0.
    9000001    1    1    2    0    0  0.51163543109E+04  0.40085127184E+04 -0.68871990172E+02  0.65000000000E+04  0.10000000000E+01 0.  0.
    9000001    1    1    2    0    0 -0.51163543109E+04 -0.40085127184E+04  0.68871990172E+02  0.65000000000E+04  0.10000000000E+01 0.  0.
</event>
<event>
 4    1  0.2193160E-006  0.1300000E+05  0.7957747E-01  0.1322471E+00
    9000001   -1    0    0    0    0  0.00000000000E+00  0.00000000000E+00  0.64999999231E+04  0.65000000000E+04  0.10000000000E+01 0.  0.
    9000001   -1    0    0    0    0 -0.00000000000E+00 -0.00000000000E+00 -0.64999999231E+04  0.65000000000E+04  0.10000000000E+01 0.  0.
    9000001    1    1    2    0    0 -0.86232447835E+03  0.18225716529E+04 -0.61793711706E+04  0.65000000000E+04  0.10000000000E+01 0.  0.
    9000001    1    1    2    0    0  0.86232447835E+03 -0.18225716529E+04  0.61793711706E+04  0.65000000000E+04  0.10000000000E+01 0.  0.
</event>
<event>
 4    1  0.2193160E-006  0.1300000E+05  0.7957747E-01  0.1322471E+00
    9000001   -1    0    0    0    0  0.00000000000E+00  0.00000000000E+00  0.64999999231E+04  0.65000000000E+04  0.10000000000E+01 0.  0.
    9000001   -1    0    0    0    0 -0.00000000000E+00 -0.00000000000E+00 -0.64999999231E+04  0.65000000000E+04  0.10000000000E+01 0.  0.
    9000001    1    1    2    0    0  0.24083493542E+04 -0.15055725521E+04 -0.58466318234E+04  0.65000000000E+04  0.10000000000E+01 0.  0.
    9000001    1    1    2    0    0 -0.24083493542E+04  0.15055725521E+04  0.58466318234E+04  0.65000000000E+04  0.10000000000E+01 0.  0.
</event>
<event>
 4    1  0.2193160E-006  0.1300000E+05  0.7957747E-01  0.1322471E+00
    9000001   -1    0    0    0    0  0.00000000000E+00  0.00000000000E+00  0.64999999231E+04  0.65000000000E+04  0.10000000000E+01 0.  0.
    9000001   -1    0    0    0    0 -0.00000000000E+00 -0.00000000000E+00 -0.64999999231E+04  0.65000000000E+04  0.10000000000E+01 0.  0.
    9000001    1    1    2    0    0 -0.15384181283E+04  0.58416722703E+04 -0.23996111661E+04  0.65000000000E+04  0.10000000000E+01 0.  0.
    9000001    1    1    2    0    0  0.15384181283E+04 -0.58416722703E+04  0.23996111661E+04  0.65000000000E+04  0.10000000000E+01 0.  0.
</event>
<event>
 4    1  0.2193160E-006  0.1300000E+05  0.7957747E-01  0.1322471E+00
    9000001   -1    0    0    0    0  0.00000000000E+00  0.00000000000E+00  0.64999999231E+04  0.65000000000E+04  0.10000000000E+01 0.  0.
    9000001   -1    0    0    0    0 -0.00000000000E+00 -0.00000000000E+00 -0.64999999231E+04  0.65000000000E+04  0.10000000000E+01 0.  0.
    9000001    1    1    2    0    0  0.31704236138E+04 -0.48659189776E+04 -0.29191172659E+04  0.65000000000E+04  0.10000000000E+01 0.  0.
    9000001    1    1    2    0    0 -0.31704236138E+04  0.48659189776E+04  0.29191172659E+04  0.65000000000E+04  0.10000000000E+01 0.  0.
</event>
<event>
 4    1  0.2193160E-006  0.1300000E+05  0.7957747E-01  0.1322471E+00
    9000001   -1    0    0    0    0  0.00000000000E+00  0.00000000000E+00  0.64999999231E+04  0.65000000000E+04  0.10000000000E+01 0.  0.
    9000001   -1    0    0    0    0 -0.00000000000E+00 -0.00000000000E+00 -0.64999999231E+04  0.65000000000E+04  0.10000000000E+01 0.  0.
    9000001    1    1    2    0    0 -0.52015694146E+04  0.36252479552E+04  0.14322192182E+04  0.65000000000E+04  0.10000000000E+01 0.  0.
    9000001    1    1    2    0    0  0.52015694146E+04 -0.36252479552E+04 -0.14322192182E+04  0.65000000000E+04  0.10000000000E+01 0.  0.
</event>
<event>
 4    1  0.2193160E-006  0.1300000E+05  0.7957747E-01  0.1322471E+00
    9000001   -1    0    0    0    0  0.00000000000E+00  0.00000000000E+00  0.64999999231E+04  0.65000000000E+04  0.10000000000E+01 0.  0.
    9000001   -1    0    0    0    0 -0.00000000000E+00 -0.00000000000E+00 -0.64999999231E+04  0.65000000000E+04  0.10000000000E+01 0.  0.
    9000001    1    1    2    0    0 -0.25307847657E+04 -0.32591765261E+04  0.50222401218E+04  0.65000000000E+04  0.10000000000E+01 0.  0.
    9000001    1    1    2    0    0  0.25307847657E+04  0.32591765261E+04 -0.50222401218E+04  0.65000000000E+04  0.10000000000E+01 0.  0.
</event>
<event>
 4    1  0.2193160E-006  0.1300000E+05  0.7957747E-01  0.1322471E+00
    9000001   -1    0    0    0    0  0.00000000000E+00  0.00000000000E+00  0.64999999231E+04  0.65000000000E+04  0.10000000000E+01 0.  0.
    9000001   -1    0    0    0    0 -0.00000000000E+00 -0.00000000000E+00 -0.64999999231E+04  0.65000000000E+04  0.10000000000E+01 0.  0.
    9000001    1    1    2    0    0  0.59297633591E+04 -0.13576232206E+04  0.22901451254E+04  0.65000000000E+04  0.10000000000E+01 0.  0.
    9000001    1    1    2    0    0 -0.59297633591E+04  0.13576232206E+04 -0.22901451254E+04  0.65000000000E+04  0.10000000000E+01 0.  0.
</event>
<event>
 4    1  0.2193160E-006  0.1300000E+05  0.7957747E-01  0.1322471E+00
    9000001   -1    0    0    0    0  0.00000000000E+00  0.00000000000E+00  0.64999999231E+04  0.65000000000E+04  0.10000000000E+01 0.  0.
    9000001   -1    0    0    0    0 -0.00000000000E+00 -0.00000000000E+00 -0.64999999231E+04  0.65000000000E+04  0.10000000000E+01 0.  0.
    9000001    1    1    2    0    0 -0.24016107416E+04  0.60332714507E+04  0.28618254334E+03  0.65000000000E+04  0.10000000000E+01 0.  0.
    9000001    1    1    2    0    0  0.24016107416E+04 -0.60332714507E+04 -0.28618254334E+03  0.65000000000E+04  0.10000000000E+01 0.  0.
</event>
<event>
 4    1  0.2193160E-006  0.1300000E+05  0.7957747E-01  0.1322471E+00
    9000001   -1    0    0    0    0  0.00000000000E+00  0.00000000000E+00  0.64999999231E+04  0.65000000000E+04  0.10000000000E+01 0.  0.
    9000001   -1    0    0    0    0 -0.00000000000E+00 -0.00000000000E+00 -0.64999999231E+04  0.65000000000E+04  0.10000000000E+01 0.  0.
    9000001    1    1    2    0    0  0.20845080470E+04 -0.93453898398E+03 -0.60853481486E+04  0.65000000000E+04  0.10000000000E+01 0.  0.
    9000001    1    1    2    0    0 -0.20845080470E+04  0.93453898398E+03  0.60853481486E+04  0.65000000000E+04  0.10000000000E+01 0.  0.
</event>
<event>
 4    1  0.2193160E-006  0.1300000E+05  0.7957747E-01  0.1322471E+00
    9000001   -1    0    0    0    0  0.00000000000E+00  0.00000000000E+00  0.64999999231E+04  0.65000000000E+04  0.10000000000E+01 0.  0.
    9000001   -1    0    0    0    0 -0.00000000000E+00 -0.00000000000E+00 -0.64999999231E+04  0.65000000000E+04  0.10000000000E+01 0.  0.
    9000001    1    1    2    0    0  0.63071959412E+04  0.12563413103E+04 -0.94386697724E+03  0.65000000000E+04  0.10000000000E+01 0.  0.
    9000001    1    1    2    0    0 -0.63071959412E+04 -0.12563413103E+04  0.94386697724E+03  0.65000000000E+04  0.10000000000E+01 0.  0.
</event>
<event>
 4    1  0.2193160E-006  0.1300000E+05  0.7957747E-01  0.1322471E+00
    9000001   -1    0    0    0    0  0.00000000000E+00  0.00000000000E+00  0.64999999231E+04  0.65000000000E+04  0.10000000000E+01 0.  0.
    9000001   -1    0    0    0    0 -0.00000000000E+00 -0.00000000000E+00 -0.64999999231E+04  0.65000000000E+04  0.10000000000E+01 0.  0.
    9000001    1    1    2    0    0 -0.86464865997E+03 -0.46105999206E+04  0.44994166363E+04  0.65000000000E+04  0.10000000000E+01 0.  0.
    9000001    1    1    2    0    0  0.86464865997E+03  0.46105999206E+04 -0.44994166363E+04  0.65000000000E+04  0.10000000000E+01 0.  0.
</event>
<event>
 4    1  0.2193160E-006  0.1300000E+05  0.7957747E-01  0.1322471E+00
    9000001   -1    0    0    0    0  0.00000000000E+00  0.00000000000E+00  0.64999999231E+04  0.65000000000E+04  0.10000000000E+01 0.  0.
    9000001   -1    0    0    0    0 -0.00000000000E+00 -0.00000000000E+00 -0.64999999231E+04  0.65000000000E+04  0.10000000000E+01 0.  0.
    9000001    1    1    2    0    0  0.47992472325E+04  0.41428171177E+04 -0.14332799205E+04  0.65000000000E+04  0.10000000000E+01 0.  0.
    9000001    1    1    2    0    0 -0.47992472325E+04 -0.41428171177E+04  0.14332799205E+04  0.65000000000E+04  0.10000000000E+01 0.  0.
</event>
<event>
 4    1  0.2193160E-006  0.1300000E+05  0.7957747E-01  0.1322471E+00
    9000001   -1    0    0    0    0  0.00000000000E+00  0.00000000000E+00  0.64999999231E+04  0.65000000000E+04  0.10000000000E+01 0.  0.
    9000001   -1    0    0    0    0 -0.00000000000E+00 -0.00000000000E+00 -0.64999999231E+04  0.65000000000E+04  0.10000000000E+01 0.  0.
    9000001    1    1    2    0    0 -0.51996050177E+04 -0.36434575460E+04 -0.13925960540E+04  0.65000000000E+04  0.10000000000E+01 0.  0.
    9000001    1    1    2    0    0  0.51996050177E+04  0.36434575460E+04  0.13925960540E+04  0.65000000000E+04  0.10000000000E+01 0.  0.
</event>
<event>
 4    1  0.2193160E-006  0.1300000E+05  0.7957747E-01  0.1322471E+00
    9000001   -1    0    0    0    0  0.00000000000E+00  0.00000000000E+00  0.64999999231E+04  0.65000000000E+04  0.10000000000E+01 0.  0.
    9000001   -1    0    0    0    0 -0.00000000000E+00 -0.00000000000E+00 -0.64999999231E+04  0.65000000000E+04  0.10000000000E+01 0.  0.
    9000001    1    1    2    0    0 -0.32842685657E+04 -0.46644608925E+04 -0.31155069525E+04  0.65000000000E+04  0.10000000000E+01 0.  0.
    9000001    1    1    2    0    0  0.32842685657E+04  0.46644608925E+04  0.31155069525E+04  0.65000000000E+04  0.10000000000E+01 0.  0.
</event>
<event>
 4    1  0.2193160E-006  0.1300000E+05  0.7957747E-01  0.1322471E+00
    9000001   -1    0    0    0    0  0.00000000000E+00  0.00000000000E+00  0.64999999231E+04  0.65000000000E+04  0.10000000000E+01 0.  0.
    9000001   -1    0    0    0    0 -0.00000000000E+00 -0.00000000000E+00 -0.64999999231E+04  0.65000000000E+04  0.10000000000E+01 0.  0.
    9000001    1    1    2    0    0 -0.25337076550E+04 -0.45698554723E+04 -0.38661021043E+04  0.65000000000E+04  0.10000000000E+01 0.  0.
    9000001    1    1    2    0    0  0.25337076550E+04  0.45698554723E+04  0.38661021043E+04  0.65000000000E+04  0.10000000000E+01 0.  0.
</event>
<event>
 4    1  0.2193160E-006  0.1300000E+05  0.7957747E-01  0.1322471E+00
    9000001   -1    0    0    0    0  0.00000000000E+00  0.00000000000E+00  0.64999999231E+04  0.65000000000E+04  0.10000000000E+01 0.  0.
    9000001   -1    0    0    0    0 -0.00000000000E+00 -0.00000000000E+00 -0.64999999231E+04  0.65000000000E+04  0.10000000000E+01 0.  0.
    9000001    1    1    2    0    0 -0.23265435815E+04 -0.60571596680E+04  0.38472161384E+03  0.65000000000E+04  0.10000000000E+01 0.  0.
    9000001    1    1    2    0    0  0.23265435815E+04  0.60571596680E+04 -0.38472161384E+03  0.65000000000E+04  0.10000000000E+01 0.  0.
</event>
<event>
 4    1  0.2193160E-006  0.1300000E+05  0.7957747E-01  0.1322471E+00
    9000001   -1    0    0    0    0  0.00000000000E+00  0.00000000000E+00  0.64999999231E+04  0.65000000000E+04  0.10000000000E+01 0.  0.
    9000001   -1    0    0    0    0 -0.00000000000E+00 -0.00000000000E+00 -0.64999999231E+04  0.65000000000E+04  0.10000000000E+01 0.  0.
    9000001    1    1    2    0    0  0.59707410856E+04  0.25651036138E+04 -0.14315494536E+03  0.65000000000E+04  0.10000000000E+01 0.  0.
    9000001    1    1    2    0    0 -0.59707410856E+04 -0.25651036138E+04  0.14315494536E+03  0.65000000000E+04  0.10000000000E+01 0.  0.
</event>
<event>
 4    1  0.2193160E-006  0.1300000E+05  0.7957747E-01  0.1322471E+00
    9000001   -1    0    0    0    0  0.00000000000E+00  0.00000000000E+00  0.64999999231E+04  0.65000000000E+04  0.10000000000E+01 0.  0.
    9000001   -1    0    0    0    0 -0.00000000000E+00 -0.00000000000E+00 -0.64999999231E+04  0.65000000000E+04  0.10000000000E+01 0.  0.
    9000001    1    1    2    0    0  0.55851820478E+04  0.12192431430E+04  0.30934101977E+04  0.65000000000E+04  0.10000000000E+01 0.  0.
    9000001    1    1    2    0    0 -0.55851820478E+04 -0.12192431430E+04 -0.30934101977E+04  0.65000000000E+04  0.10000000000E+01 0.  0.
</event>
<event>
 4    1  0.2193160E-006  0.1300000E+05  0.7957747E-01  0.1322471E+00
    9000001   -1    0    0    0    0  0.00000000000E+00  0.00000000000E+00  0.64999999231E+04  0.65000000000E+04  0.10000000000E+01 0.  0.
    9000001   -1    0    0    0    0 -0.00000000000E+00 -0.00000000000E+00 -0.64999999231E+04  0.65000000000E+04  0.10000000000E+01 0.  0.
    9000001    1    1    2    0    0 -0.78035387628E+03 -0.83879530577E+03  0.63982395440E+04  0.65000000000E+04  0.10000000000E+01 0.  0.
    9000001    1    1    2    0    0  0.78035387628E+03  0.83879530577E+03 -0.63982395440E+04  0.65000000000E+04  0.10000000000E+01 0.  0.
</event>
<event>
 4    1  0.2193160E-006  0.1300000E+05  0.7957747E-01  0.1322471E+00
    9000001   -1    0    0    0    0  0.00000000000E+00  0.00000000000E+00  0.64999999231E+04  0.65000000000E+04  0.10000000000E+01 0.  0.
    9000001   -1    0    0    0    0 -0.00000000000E+00 -0.00000000000E+00 -0.64999999231E+04  0.65000000000E+04  0.10000000000E+01 0.  0.
    9000001    1    1    2    0    0 -0.38737111698E+04 -0.52076823949E+04  0.35271071246E+03  0.65000000000E+04  0.10000000000E+01 0.  0.
    9000001    1    1    2    0    0  0.38737111698E+04  0.52076823949E+04 -0.35271071246E+03  0.65000000000E+04  0.10000000000E+01 0.  0.
</event>
<event>
 4    1  0.2193160E-006  0.1300000E+05  0.7957747E-01  0.1322471E+00
    9000001   -1    0    0    0    0  0.00000000000E+00  0.00000000000E+00  0.64999999231E+04  0.65000000000E+04  0.10000000000E+01 0.  0.
    9000001   -1    0    0    0    0 -0.00000000000E+00 -0.00000000000E+00 -0.64999999231E+04  0.65000000000E+04  0.10000000000E+01 0.  0.
    9000001    1    1    2    0    0  0.16929920860E+04 -0.61999606081E+04 -0.97173311914E+03  0.65000000000E+04  0.10000000000E+01 0.  0.
    9000001    1    1    2    0    0 -0.16929920860E+04  0.61999606081E+04  0.97173311914E+03  0.65000000000E+04  0.10000000000E+01 0.  0.
</event>
<event>
 4    1  0.2193160E-006  0.1300000E+05  0.7957747E-01  0.1322471E+00
    9000001   -1    0    0    0    0  0.00000000000E+00  0.00000000000E+00  0.64999999231E+04  0.65000000000E+04  0.10000000000E+01 0.  0.
    9000001   -1    0    0    0    0 -0.00000000000E+00 -0.00000000000E+00 -0.64999999231E+04  0.65000000000E+04  0.10000000000E+01 0.  0.
    9000001    1    1    2    0    0 -0.79024222692E+03  0.52322579301E+04  0.37747838581E+04  0.65000000000E+04  0.10000000000E+01 0.  0.
    9000001    1    1    2    0    0  0.79024222692E+03 -0.52322579301E+04 -0.37747838581E+04  0.65000000000E+04  0.10000000000E+01 0.  0.
</event>
<event>
 4    1  0.2193160E-006  0.1300000E+05  0.7957747E-01  0.1322471E+00
    9000001   -1    0    0    0    0  0.00000000000E+00  0.00000000000E+00  0.64999999231E+04  0.65000000000E+04  0.10000000000E+01 0.  0.
    9000001   -1    0    0    0    0 -0.00000000000E+00 -0.00000000000E+00 -0.64999999231E+04  0.65000000000E+04  0.10000000000E+01 0.  0.
    9000001    1    1    2    0    0 -0.18624407982E+04  0.58444020044E+04  0.21504135611E+04  0.65000000000E+04  0.10000000000E+01 0.  0.
    9000001    1    1    2    0    0  0.18624407982E+04 -0.58444020044E+04 -0.21504135611E+04  0.65000000000E+04  0.10000000000E+01 0.  0.
</event>
<event>
 4    1  0.2193160E-006  0.1300000E+05  0.7957747E-01  0.1322471E+00
    9000001   -1    0    0    0    0  0.00000000000E+00  0.00000000000E+00  0.64999999231E+04  0.65000000000E+04  0.10000000000E+01 0.  0.
    9000001   -1    0    0    0    0 -0.00000000000E+00 -0.00000000000E+00 -0.64999999231E+04  0.65000000000E+04  0.10000000000E+01 0.  0.
    9000001    1    1    2    0    0 -0.53252751872E+03  0.32465194236E+04 -0.56059365921E+04  0.65000000000E+04  0.10000000000E+01 0.  0.
    9000001    1    1    2    0    0  0.53252751872E+03 -0.32465194236E+04  0.56059365921E+04  0.65000000000E+04  0.10000000000E+01 0.  0.
</event>
<event>
 4    1  0.2193160E-006  0.1300000E+05  0.7957747E-01  0.1322471E+00
    9000001   -1    0    0    0    0  0.00000000000E+00  0.00000000000E+00  0.64999999231E+04  0.65000000000E+04  0.10000000000E+01 0.  0.
    9000001   -1    0    0    0    0 -0.00000000000E+00 -0.00000000000E+00 -0.64999999231E+04  0.65000000000E+04  0.10000000000E+01 0.  0.
    9000001    1    1    2    0    0  0.28537513991E+04 -0.18079607698E+04 -0.55531414359E+04  0.65000000000E+04  0.10000000000E+01 0.  0.
    9000001    1    1    2    0    0 -0.28537513991E+04  0.18079607698E+04  0.55531414359E+04  0.65000000000E+04  0.10000000000E+01 0.  0.
</event>
<event>
 4    1  0.2193160E-006  0.1300000E+05  0.7957747E-01  0.1322471E+00
    9000001   -1    0    0    0    0  0.00000000000E+00  0.00000000000E+00  0.64999999231E+04  0.65000000000E+04  0.10000000000E+01 0.  0.
    9000001   -1    0    0    0    0 -0.00000000000E+00 -0.00000000000E+00 -0.64999999231E+04  0.65000000000E+04  0.10000000000E+01 0.  0.
    9000001    1    1    2    0    0 -0.37747508785E+04 -0.36082832472E+04  0.38706003169E+04  0.65000000000E+04  0.10000000000E+01 0.  0.
    9000001    1    1    2    0    0  0.37747508785E+04  0.36082832472E+04 -0.38706003169E+04  0.65000000000E+04  0.10000000000E+01 0.  0.
</event>
<event>
 4    1  0.2193160E-006  0.1300000E+05  0.7957747E-01  0.1322471E+00
    9000001   -1    0    0    0    0  0.00000000000E+00  0.00000000000E+00  0.64999999231E+04  0.65000000000E+04  0.10000000000E+01 0.  0.
    9000001   -1    0    0    0    0 -0.00000000000E+00 -0.00000000000E+00 -0.64999999231E+04  0.65000000000E+04  0.10000000000E+01 0.  0.
    9000001    1    1    2    0    0  0.40251244171E+04 -0.26132755033E+04 -0.43839666480E+04  0.65000000000E+04  0.10000000000E+01 0.  0.
    9000001    1    1    2    0    0 -0.40251244171E+04  0.26132755033E+04  0.43839666480E+04  0.65000000000E+04  0.10000000000E+01 0.  0.
</event>
<event>
 4    1  0.2193160E-006  0.1300000E+05  0.7957747E-01  0.1322471E+00
    9000001   -1    0    0    0    0  0.00000000000E+00  0.00000000000E+00  0.64999999231E+04  0.65000000000E+04  0.10000000000E+01 0.  0.
    9000001   -1    0    0    0    0 -0.00000000000E+00 -0.00000000000E+00 -0.64999999231E+04  0.65000000000E+04  0.10000000000E+01 0.  0.
    9000001    1    1    2    0    0  0.21508296083E+04  0.35587852509E+04 -0.49958961693E+04  0.65000000000E+04  0.10000000000E+01 0.  0.
    9000001    1    1    2    0    0 -0.21508296083E+04 -0.35587852509E+04  0.49958961693E+04  0.65000000000E+04  0.10000000000E+01 0.  0.
</event>
<event>
 4    1  0.2193160E-006  0.1300000E+05  0.7957747E-01  0.1322471E+00
    9000001   -1    0    0    0    0  0.00000000000E+00  0.00000000000E+00  0.64999999231E+04  0.65000000000E+04  0.10000000000E+01 0.  0.
    9000001   -1    0    0    0    0 -0.00000000000E+00 -0.00000000000E+00 -0.64999999231E+04  0.65000000000E+04  0.10000000000E+01 0.  0.
    9000001    1    1    2    0    0  0.48471455705E+04  0.19390188605E+04 -0.38723874647E+04  0.65000000000E+04  0.10000000000E+01 0.  0.
    9000001    1    1    2    0    0 -0.48471455705E+04 -0.19390188605E+04  0.38723874647E+04  0.65000000000E+04  0.10000000000E+01 0.  0.
</event>
<event>
 4    1  0.2193160E-006  0.1300000E+05  0.7957747E-01  0.1322471E+00
    9000001   -1    0    0    0    0  0.00000000000E+00  0.00000000000E+00  0.64999999231E+04  0.65000000000E+04  0.10000000000E+01 0.  0.
    9000001   -1    0    0    0    0 -0.00000000000E+00 -0.00000000000E+00 -0.64999999231E+04  0.65000000000E+04  0.10000000000E+01 0.  0.
    9000001    1    1    2    0    0 -0.57922592674E+04  0.19498488918E+04 -0.22131020940E+04  0.65000000000E+04  0.10000000000E+01 0.  0.
    9000001    1    1    2    0    0  0.57922592674E+04 -0.19498488918E+04  0.22131020940E+04  0.65000000000E+04  0.10000000000E+01 0.  0.
</event>
<event>
 4    1  0.2193160E-006  0.1300000E+05  0.7957747E-01  0.1322471E+00
    9000001   -1    0    0    0    0  0.00000000000E+00  0.00000000000E+00  0.64999999231E+04  0.65000000000E+04  0.10000000000E+01 0.  0.
    9000001   -1    0    0    0    0 -0.00000000000E+00 -0.00000000000E+00 -0.64999999231E+04  0.65000000000E+04  0.10000000000E+01 0.  0.
    9000001    1    1    2    0    0  0.63332974617E+04  0.11249891839E+04  0.93474146005E+03  0.65000000000E+04  0.10000000000E+01 0.  0.
    9000001    1    1    2    0    0 -0.63332974617E+04 -0.11249891839E+04 -0.93474146005E+03  0.65000000000E+04  0.10000000000E+01 0.  0.
</event>
<event>
 4    1  0.2193160E-006  0.1300000E+05  0.7957747E-01  0.1322471E+00
    9000001   -1    0    0    0    0  0.00000000000E+00  0.00000000000E+00  0.64999999231E+04  0.65000000000E+04  0.10000000000E+01 0.  0.
    9000001   -1    0    0    0    0 -0.00000000000E+00 -0.00000000000E+00 -0.64999999231E+04  0.65000000000E+04  0.10000000000E+01 0.  0.
    9000001    1    1    2    0    0 -0.56412195462E+04  0.21617092482E+04 -0.23986775851E+04  0.65000000000E+04  0.10000000000E+01 0.  0.
    9000001    1    1    2    0    0  0.56412195462E+04 -0.21617092482E+04  0.23986775851E+04  0.65000000000E+04  0.10000000000E+01 0.  0.
</event>
<event>
 4    1  0.2193160E-006  0.1300000E+05  0.7957747E-01  0.1322471E+00
    9000001   -1    0    0    0    0  0.00000000000E+00  0.00000000000E+00  0.64999999231E+04  0.65000000000E+04  0.10000000000E+01 0.  0.
    9000001   -1    0    0    0    0 -0.00000000000E+00 -0.00000000000E+00 -0.64999999231E+04  0.65000000000E+04  0.10000000000E+01 0.  0.
    9000001    1    1    2    0    0 -0.26904635519E+04  0.55966543183E+04  0.19206419025E+04  0.65000000000E+04  0.10000000000E+01 0.  0.
    9000001    1    1    2    0    0  0.26904635519E+04 -0.55966543183E+04 -0.19206419025E+04  0.65000000000E+04  0.10000000000E+01 0.  0.
</event>
<event>
 4    1  0.2193160E-006  0.1300000E+05  0.7957747E-01  0.1322471E+00
    9000001   -1    0    0    0    0  0.00000000000E+00  0.00000000000E+00  0.64999999231E+04  0.65000000000E+04  0.10000000000E+01 0.  0.
    9000001   -1    0    0    0    0 -0.00000000000E+00 -0.00000000000E+00 -0.64999999231E+04  0.65000000000E+04  0.10000000000E+01 0.  0.
    9000001    1    1    2    0    0  0.57796769118E+04 -0.11278772611E+04  0.27519496142E+04  0.65000000000E+04  0.10000000000E+01 0.  0.
    9000001    1    1    2    0    0 -0.57796769118E+04  0.11278772611E+04 -0.27519496142E+04  0.65000000000E+04  0.10000000000E+01 0.  0.
</event>
<event>
 4    1  0.2193160E-006  0.1300000E+05  0.7957747E-01  0.1322471E+00
    9000001   -1    0    0    0    0  0.00000000000E+00  0.00000000000E+00  0.64999999231E+04  0.65000000000E+04  0.10000000000E+01 0.  0.
    9000001   -1    0    0    0    0 -0.00000000000E+00 -0.00000000000E+00 -0.64999999231E+04  0.65000000000E+04  0.10000000000E+01 0.  0.
    9000001    1    1    2    0    0  0.47615946578E+04 -0.61778954973E+03  0.43812728044E+04  0.65000000000E+04  0.10000000000E+01 0.  0.
    9000001    1    1    2    0    0 -0.47615946578E+04  0.61778954973E+03 -0.43812728044E+04  0.65000000000E+04  0.10000000000E+01 0.  0.
</event>
<event>
 4    1  0.2193160E-006  0.1300000E+05  0.7957747E-01  0.1322471E+00
    9000001   -1    0    0    0    0  0.00000000000E+00  0.00000000000E+00  0.64999999231E+04  0.65000000000E+04  0.10000000000E+01 0.  0.
    9000001   -1    0    0    0    0 -0.00000000000E+00 -0.00000000000E+00 -0.64999999231E+04  0.65000000000E+04  0.10000000000E+01 0.  0.
    9000001    1    1    2    0    0 -0.51688877025E+04 -0.34594586719E+04  0.18880531285E+04  0.65000000000E+04  0.10000000000E+01 0.  0.
    9000001    1    1    2    0    0  0.51688877025E+04  0.34594586719E+04 -0.18880531285E+04  0.65000000000E+04  0.10000000000E+01 0.  0.
</event>
<event>
 4    1  0.2193160E-006  0.1300000E+05  0.7957747E-01  0.1322471E+00
    9000001   -1    0    0    0    0  0.00000000000E+00  0.00000000000E+00  0.64999999231E+04  0.65000000000E+04  0.10000000000E+01 0.  0.
    9000001   -1    0    0    0    0 -0.00000000000E+00 -0.00000000000E+00 -0.64999999231E+04  0.65000000000E+04  0.10000000000E+01 0.  0.
    9000001    1    1    2    0    0  0.47306808723E+04 -0.43363542187E+04  0.10328066493E+04  0.65000000000E+04  0.10000000000E+01 0.  0.
    9000001    1    1    2    0    0 -0.47306808723E+04  0.43363542187E+04 -0.10328066493E+04  0.65000000000E+04  0.10000000000E+01 0.  0.
</event>
<event>
 4    1  0.2193160E-006  0.1300000E+05  0.7957747E-01  0.1322471E+00
    9000001   -1    0    0    0    0  0.00000000000E+00  0.00000000000E+00  0.64999999231E+04  0.65000000000E+04  0.10000000000E+01 0.  0.
    9000001   -1    0    0    0    0 -0.00000000000E+00 -0.00000000000E+00 -0.64999999231E+04  0.65000000000E+04  0.10000000000E+01 0.  0.
    9000001    1    1    2    0    0  0.29513659327E+04  0.18129022254E+04  0.55002566897E+04  0.65000000000E+04  0.10000000000E+01 0.  0.
    9000001    1    1    2    0    0 -0.29513659327E+04 -0.18129022254E+04 -0.55002566897E+04  0.65000000000E+04  0.10000000000E+01 0.  0.
</event>
<event>
 4    1  0.2193160E-006  0.1300000E+05  0.7957747E-01  0.1322471E+00
    9000001   -1    0    0    0    0  0.00000000000E+00  0.00000000000E+00  0.64999999231E+04  0.65000000000E+04  0.10000000000E+01 0.  0.
    9000001   -1    0    0    0    0 -0.00000000000E+00 -0.00000000000E+00 -0.64999999231E+04  0.65000000000E+04  0.10000000000E+01 0.  0.
    9000001    1    1    2    0    0  0.39800709617E+04  0.66351244124E+03  0.50959577490E+04  0.65000000000E+04  0.10000000000E+01 0.  0.
    9000001    1    1    2    0    0 -0.39800709617E+04 -0.66351244124E+03 -0.50959577490E+04  0.65000000000E+04  0.10000000000E+01 0.  0.
</event>
<event>
 4    1  0.2193160E-006  0.1300000E+05  0.7957747E-01  0.1322471E+00
    9000001   -1    0    0    0    0  0.00000000000E+00  0.00000000000E+00  0.64999999231E+04  0.65000000000E+04  0.10000000000E+01 0.  0.
    9000001   -1    0    0    0    0 -0.00000000000E+00 -0.00000000000E+00 -0.64999999231E+04  0.65000000000E+04  0.10000000000E+01 0.  0.
    9000001    1    1    2    0    0 -0.38920881362E+04 -0.82551026993E+03 -0.51400565886E+04  0.65000000000E+04  0.10000000000E+01 0.  0.
    9000001    1    1    2    0    0  0.38920881362E+04  0.82551026993E+03  0.51400565886E+04  0.65000000000E+04  0.10000000000E+01 0.  0.
</event>
<event>
 4    1  0.2193160E-006  0.1300000E+05  0.7957747E-01  0.1322471E+00
    9000001   -1    0    0    0    0  0.00000000000E+00  0.00000000000E+00  0.64999999231E+04  0.65000000000E+04  0.10000000000E+01 0.  0.
    9000001   -1    0    0    0    0 -0.00000000000E+00 -0.00000000000E+00 -0.64999999231E+04  0.65000000000E+04  0.10000000000E+01 0.  0.
    9000001    1    1    2    0    0  0.49211983030E+04 -0.32714411379E+04 -0.27073010811E+04  0.65000000000E+04  0.10000000000E+01 0.  0.
    9000001    1    1    2    0    0 -0.49211983030E+04  0.32714411379E+04  0.27073010811E+04  0.65000000000E+04  0.10000000000E+01 0.  0.
</event>
<event>
 4    1  0.2193160E-006  0.1300000E+05  0.7957747E-01  0.1322471E+00
    9000001   -1    0    0    0    0  0.00000000000E+00  0.00000000000E+00  0.64999999231E+04  0.65000000000E+04  0.10000000000E+01 0.  0.
    9000001   -1    0    0    0    0 -0.00000000000E+00 -0.00000000000E+00 -0.64999999231E+04  0.65000000000E+04  0.10000000000E+01 0.  0.
    9000001    1    1    2    0    0  0.50385326746E+03  0.42114646515E+03 -0.64667431169E+04  0.65000000000E+04  0.10000000000E+01 0.  0.
    9000001    1    1    2    0    0 -0.50385326746E+03 -0.42114646515E+03  0.64667431169E+04  0.65000000000E+04  0.10000000000E+01 0.  0.
</event>
<event>
 4    1  0.2193160E-006  0.1300000E+05  0.7957747E-01  0.1322471E+00
    9000001   -1    0    0    0    0  0.00000000000E+00  0.00000000000E+00  0.64999999231E+04  0.65000000000E+04  0.10000000000E+01 0.  0.
    9000001   -1    0    0    0    0 -0.00000000000E+00 -0.00000000000E+00 -0.64999999231E+04  0.65000000000E+04  0.10000000000E+01 0.  0.
    9000001    1    1    2    0    0 -0.45417023428E+04 -0.46455514377E+04 -0.20442766123E+03  0.65000000000E+04  0.10000000000E+01 0.  0.
    9000001    1    1    2    0    0  0.45417023428E+04  0.46455514377E+04  0.20442766123E+03  0.65000000000E+04  0.10000000000E+01 0.  0.
</event>
<event>
 4    1  0.2193160E-006  0.1300000E+05  0.7957747E-01  0.1322471E+00
    9000001   -1    0    0    0    0  0.00000000000E+00  0.00000000000E+00  0.64999999231E+04  0.65000000000E+04  0.10000000000E+01 0.  0.
    9000001   -1    0    0    0    0 -0.00000000000E+00 -0.00000000000E+00 -0.64999999231E+04  0.65000000000E+04  0.10000000000E+01 0.  0.
    9000001    1    1    2    0    0 -0.47817487432E+04 -0.33846555345E+04 -0.28158453205E+04  0.65000000000E+04  0.10000000000E+01 0.  0.
    9000001    1    1    2    0    0  0.47817487432E+04  0.33846555345E+04  0.28158453205E+04  0.65000000000E+04  0.10000000000E+01 0.  0.
</event>
<event>
 4    1  0.2193160E-006  0.1300000E+05  0.7957747E-01  0.1322471E+00
    9000001   -1    0    0    0    0  0.00000000000E+00  0.00000000000E+00  0.64999999231E+04  0.65000000000E+04  0.10000000000E+01 0.  0.
    9000001   -1    0    0    0    0 -0.00000000000E+00 -0.00000000000E+00 -0.64999999231E+04  0.65000000000E+04  0.10000000000E+01 0.  0.
    9000001    1    1    2    0    0 -0.36663604872E+04 -0.30495717311E+04  0.44167762039E+04  0.65000000000E+04  0.10000000000E+01 0.  0.
    9000001    1    1    2    0    0  0.36663604872E+04  0.30495717311E+04 -0.44167762039E+04  0.65000000000E+04  0.10000000000E+01 0.  0.
</event>
<event>
 4    1  0.2193160E-006  0.1300000E+05  0.7957747E-01  0.1322471E+00
    9000001   -1    0    0    0    0  0.00000000000E+00  0.00000000000E+00  0.64999999231E+04  0.65000000000E+04  0.10000000000E+01 0.  0.
    9000001   -1    0    0    0    0 -0.00000000000E+00 -0.00000000000E+00 -0.64999999231E+04  0.65000000000E+04  0.10000000000E+01 0.  0.
    9000001    1    1    2    0    0  0.84328906246E+03 -0.36676917951E+04  0.52997074875E+04  0.65000000000E+04  0.10000000000E+01 0.  0.
    9000001    1    1    2    0    0 -0.84328906246E+03  0.36676917951E+04 -0.52997074875E+04  0.65000000000E+04  0.10000000000E+01 0.  0.
</event>
<event>
 4    1  0.2193160E-006  0.1300000E+05  0.7957747E-01  0.1322471E+00
    9000001   -1    0    0    0    0  0.00000000000E+00  0.00000000000E+00  0.64999999231E+04  0.65000000000E+04  0.10000000000E+01 0.  0.
    9000001   -1    0    0    0    0 -0.00000000000E+00 -0.00000000000E+00 -0.64999999231E+04  0.65000000000E+04  0.10000000000E+01 0.  0.
    9000001    1    1    2    0    0  0.17632651930E+04  0.62528083225E+04 -0.20804552797E+03  0.65000000000E+04  0.10000000000E+01 0.  0.
    9000001    1    1    2    0    0 -0.17632651930E+04 -0.62528083225E+04  0.20804552797E+03  0.65000000000E+04  0.10000000000E+01 0.  0.
</event>
<event>
 4    1  0.2193160E-006  0.1300000E+05  0.7957747E-01  0.1322471E+00
    9000001   -1    0    0    0    0  0.00000000000E+00  0.00000000000E+00  0.64999999231E+04  0.65000000000E+04  0.10000000000E+01 0.  0.
    9000001   -1    0    0    0    0 -0.00000000000E+00 -0.00000000000E+00 -0.64999999231E+04  0.65000000000E+04  0.10000000000E+01 0.  0.
    9000001    1    1    2    0    0 -0.51215669263E+04 -0.34371166152E+04 -0.20507999886E+04  0.65000000000E+04  0.10000000000E+01 0.  0.
    9000001    1    1    2    0    0  0.51215669263E+04  0.34371166152E+04  0.20507999886E+04  0.65000000000E+04  0.10000000000E+01 0.  0.
</event>
<event>
 4    1  0.2193160E-006  0.1300000E+05  0.7957747E-01  0.1322471E+00
    9000001   -1    0    0    0    0  0.00000000000E+00  0.00000000000E+00  0.64999999231E+04  0.65000000000E+04  0.10000000000E+01 0.  0.
    9000001   -1    0    0    0    0 -0.00000000000E+00 -0.00000000000E+00 -0.64999999231E+04  0.65000000000E+04  0.10000000000E+01 0.  0.
    9000001    1    1    2    0    0 -0.50871967540E+04 -0.12977870195E+04 -0.38322548243E+04  0.65000000000E+04  0.10000000000E+01 0.  0.
    9000001    1    1    2    0    0  0.50871967540E+04  0.12977870195E+04  0.38322548243E+04  0.65000000000E+04  0.10000000000E+01 0.  0.
</event>
<event>
 4    1  0.2193160E-006  0.1300000E+05  0.7957747E-01  0.1322471E+00
    9000001   -1    0    0    0    0  0.00000000000E+00  0.00000000000E+00  0.64999999231E+04  0.65000000000E+04  0.10000000000E+01 0.  0.
    9000001   -1    0    0    0    0 -0.00000000000E+00 -0.00000000000E+00 -0.64999999231E+04  0.65000000000E+04  0.10000000000E+01 0.  0.
    9000001    1    1    2    0    0 -0.38076092159E+04  0.30863038335E+04 -0.42692903048E+04  0.65000000000E+04  0.10000000000E+01 0.  0.
    9000001    1    1    2    0    0  0.38076092159E+04 -0.30863038335E+04  0.42692903048E+04  0.65000000000E+04  0.10000000000E+01 0.  0.
</event>
<event>
 4    1  0.2193160E-006  0.1300000E+05  0.7957747E-01  0.1322471E+00
    9000001   -1    0    0    0    0  0.00000000000E+00  0.00000000000E+00  0.64999999231E+04  0.65000000000E+04  0.10000000000E+01 0.  0.
    9000001   -1    0    0    0    0 -0.00000000000E+00 -0.00000000000E+00 -0.64999999231E+04  0.65000000000E+04  0.10000000000E+01 0.  0.
    9000001    1    1    2    0    0  0.51618782825E+04 -0.41185306694E+03  0.39287897179E+04  0.65000000000E+04  0.10000000000E+01 0.  0.
    9000001    1    1    2    0    0 -0.51618782825E+04  0.41185306694E+03 -0.39287897179E+04  0.65000000000E+04  0.10000000000E+01 0.  0.
</event>
<event>
 4    1  0.2193160E-006  0.1300000E+05  0.7957747E-01  0.1322471E+00
    9000001   -1    0    0    0    0  0.00000000000E+00  0.00000000000E+00  0.64999999231E+04  0.65000000000E+04  0.10000000000E+01 0.  0.
    9000001   -1    0    0    0    0 -0.00000000000E+00 -0.00000000000E+00 -0.64999999231E+04  0.65000000000E+04  0.10000000000E+01 0.  0.
    9000001    1    1    2    0    0  0.40579260046E+04  0.38446211246E+04 -0.33169449724E+04  0.65000000000E+04  0.10000000000E+01 0.  0.
    9000001    1    1    2    0    0 -0.40579260046E+04 -0.38446211246E+04  0.33169449724E+04  0.65000000000E+04  0.10000000000E+01 0.  0.
</event>
<event>
 4    1  0.2193160E-006  0.1300000E+05  0.7957747E-01  0.1322471E+00
    9000001   -1    0    0    0    0  0.00000000000E+00  0.00000000000E+00  0.64999999231E+04  0.65000000000E+04  0.10000000000E+01 0.  0.
    9000001   -1    0    0    0    0 -0.00000000000E+00 -0.00000000000E+00 -0.64999999231E+04  0.65000000000E+04  0.10000000000E+01 0.  0.
    9000001    1    1    2    0    0 -0.21366576676E+04 -0.48057334136E+04  0.38196360256E+04  0.65000000000E+04  0.10000000000E+01 0.  0.
    9000001    1    1    2    0    0  0.21366576676E+04  0.48057334136E+04 -0.38196360256E+04  0.65000000000E+04  0.10000000000E+01 0.  0.
</event>
<event>
 4    1  0.2193160E-006  0.1300000E+05  0.7957747E-01  0.1322471E+00
    9000001   -1    0    0    0    0  0.00000000000E+00  0.00000000000E+00  0.64999999231E+04  0.65000000000E+04  0.10000000000E+01 0.  0.
    9000001   -1    0    0    0    0 -0.00000000000E+00 -0.00000000000E+00 -0.64999999231E+04  0.65000000000E+04  0.10000000000E+01 0.  0.
    9000001    1    1    2    0    0 -0.56924061451E+04  0.31067266595E+04  0.44131705464E+03  0.65000000000E+04  0.10000000000E+01 0.  0.
    9000001    1    1    2    0    0  0.56924061451E+04 -0.31067266595E+04 -0.44131705464E+03  0.65000000000E+04  0.10000000000E+01 0.  0.
</event>
<event>
 4    1  0.2193160E-006  0.1300000E+05  0.7957747E-01  0.1322471E+00
    9000001   -1    0    0    0    0  0.00000000000E+00  0.00000000000E+00  0.64999999231E+04  0.65000000000E+04  0.10000000000E+01 0.  0.
    9000001   -1    0    0    0    0 -0.00000000000E+00 -0.00000000000E+00 -0.64999999231E+04  0.65000000000E+04  0.10000000000E+01 0.  0.
    9000001    1    1    2    0    0 -0.18718438986E+04 -0.48313283565E+04  0.39248523197E+04  0.65000000000E+04  0.10000000000E+01 0.  0.
    9000001    1    1    2    0    0  0.18718438986E+04  0.48313283565E+04 -0.39248523197E+04  0.65000000000E+04  0.10000000000E+01 0.  0.
</event>
<event>
 4    1  0.2193160E-006  0.1300000E+05  0.7957747E-01  0.1322471E+00
    9000001   -1    0    0    0    0  0.00000000000E+00  0.00000000000E+00  0.64999999231E+04  0.65000000000E+04  0.10000000000E+01 0.  0.
    9000001   -1    0    0    0    0 -0.00000000000E+00 -0.00000000000E+00 -0.64999999231E+04  0.65000000000E+04  0.10000000000E+01 0.  0.
    9000001    1    1    2    0    0 -0.29707673820E+04  0.36938855249E+04 -0.44474430734E+04  0.65000000000E+04  0.10000000000E+01 0.  0.
    9000001    1    1    2    0    0  0.29707673820E+04 -0.36938855249E+04  0.44474430734E+04  0.65000000000E+04  0.10000000000E+01 0.  0.
</event>
<event>
 4    1  0.2193160E-006  0.1300000E+05  0.7957747E-01  0.1322471E+00
    9000001   -1    0    0    0    0  0.00000000000E+00  0.00000000000E+00  0.64999999231E+04  0.65000000000E+04  0.10000000000E+01 0.  0.
    9000001   -1    0    0    0    0 -0.00000000000E+00 -0.00000000000E+00 -0.64999999231E+04  0.65000000000E+04  0.10000000000E+01 0.  0.
    9000001    1    1    2    0    0 -0.41762708152E+04 -0.14597600125E+04  0.47621278631E+04  0.65000000000E+04  0.10000000000E+01 0.  0.
    9000001    1    1    2    0    0  0.41762708152E+04  0.14597600125E+04 -0.47621278631E+04  0.65000000000E+04  0.10000000000E+01 0.  0.
</event>
<event>
 4    1  0.2193160E-006  0.1300000E+05  0.7957747E-01  0.1322471E+00
    9000001   -1    0    0    0    0  0.00000000000E+00  0.00000000000E+00  0.64999999231E+04  0.65000000000E+04  0.10000000000E+01 0.  0.
    9000001   -1    0    0    0    0 -0.00000000000E+00 -0.00000000000E+00 -0.64999999231E+04  0.65000000000E+04  0.10000000000E+01 0.  0.
    9000001    1    1    2    0    0 -0.61503217911E+04 -0.45587709041E+03  0.20532211143E+04  0.65000000000E+04  0.10000000000E+01 0.  0.
    9000001    1    1    2    0    0  0.61503217911E+04  0.45587709041E+03 -0.20532211143E+04  0.65000000000E+04  0.10000000000E+01 0.  0.
</event>
<event>
 4    1  0.2193160E-006  0.1300000E+05  0.7957747E-01  0.1322471E+00
    9000001   -1    0    0    0    0  0.00000000000E+00  0.00000000000E+00  0.64999999231E+04  0.65000000000E+04  0.10000000000E+01 0.  0.
    9000001   -1    0    0    0    0 -0.00000000000E+00 -0.00000000000E+00 -0.64999999231E+04  0.65000000000E+04  0.10000000000E+01 0.  0.
    9000001    1    1    2    0    0  0.64335514080E+04 -0.67651558639E+02  0.92457479286E+03  0.65000000000E+04  0.10000000000E+01 0.  0.
    9000001    1    1    2    0    0 -0.64335514080E+04  0.67651558639E+02 -0.92457479286E+03  0.65000000000E+04  0.10000000000E+01 0.  0.
</event>
<event>
 4    1  0.2193160E-006  0.1300000E+05  0.7957747E-01  0.1322471E+00
    9000001   -1    0    0    0    0  0.00000000000E+00  0.00000000000E+00  0.64999999231E+04  0.65000000000E+04  0.10000000000E+01 0.  0.
    9000001   -1    0    0    0    0 -0.00000000000E+00 -0.00000000000E+00 -0.64999999231E+04  0.65000000000E+04  0.10000000000E+01 0.  0.
    9000001    1    1    2    0    0  0.13572660490E+04 -0.14644403102E+04 -0.61857289344E+04  0.65000000000E+04  0.10000000000E+01 0.  0.
    9000001    1    1    2    0    0 -0.13572660490E+04  0.14644403102E+04  0.61857289344E+04  0.65000000000E+04  0.10000000000E+01 0.  0.
</event>
<event>
 4    1  0.2193160E-006  0.1300000E+05  0.7957747E-01  0.1322471E+00
    9000001   -1    0    0    0    0  0.00000000000E+00  0.00000000000E+00  0.64999999231E+04  0.65000000000E+04  0.10000000000E+01 0.  0.
    9000001   -1    0    0    0    0 -0.00000000000E+00 -0.00000000000E+00 -0.64999999231E+04  0.65000000000E+04  0.10000000000E+01 0.  0.
    9000001    1    1    2    0    0  0.41462558457E+03  0.38809455273E+04 -0.51977251215E+04  0.65000000000E+04  0.10000000000E+01 0.  0.
    9000001    1    1    2    0    0 -0.41462558457E+03 -0.38809455273E+04  0.51977251215E+04  0.65000000000E+04  0.10000000000E+01 0.  0.
</event>
<event>
 4    1  0.2193160E-006  0.1300000E+05  0.7957747E-01  0.1322471E+00
    9000001   -1    0    0    0    0  0.00000000000E+00  0.00000000000E+00  0.64999999231E+04  0.65000000000E+04  0.10000000000E+01 0.  0.
    9000001   -1    0    0    0    0 -0.00000000000E+00 -0.00000000000E+00 -0.64999999231E+04  0.65000000000E+04  0.10000000000E+01 0.  0.
    9000001    1    1    2    0    0 -0.14870999094E+03 -0.43932493926E+04  0.47882401896E+04  0.65000000000E+04  0.10000000000E+01 0.  0.
    9000001    1    1    2    0    0  0.14870999094E+03  0.43932493926E+04 -0.47882401896E+04  0.65000000000E+04  0.10000000000E+01 0.  0.
</event>
<event>
 4    1  0.2193160E-006  0.1300000E+05  0.7957747E-01  0.1322471E+00
    9000001   -1    0    0    0    0  0.00000000000E+00  0.00000000000E+00  0.64999999231E+04  0.65000000000E+04  0.10000000000E+01 0.  0.
    9000001   -1    0    0    0    0 -0.00000000000E+00 -0.00000000000E+00 -0.64999999231E+04  0.65000000000E+04  0.10000000000E+01 0.  0.
    9000001    1    1    2    0    0 -0.64737057574E+04  0.19051981570E+03 -0.55211861675E+03  0.65000000000E+04  0.10000000000E+01 0.  0.
    9000001    1    1    2    0    0  0.64737057574E+04 -0.19051981570E+03  0.55211861675E+03  0.65000000000E+04  0.10000000000E+01 0.  0.
</event>
<event>
 4    1  0.2193160E-006  0.1300000E+05  0.7957747E-01  0.1322471E+00
    9000001   -1    0    0    0    0  0.00000000000E+00  0.00000000000E+00  0.64999999231E+04  0.65000000000E+04  0.10000000000E+01 0.  0.
    9000001   -1    0    0    0    0 -0.00000000000E+00 -0.00000000000E+00 -0.64999999231E+04  0.65000000000E+04  0.10000000000E+01 0.  0.
    9000001    1    1    2    0    0  0.52126185026E+04 -0.38830700672E+04 -0.19344243187E+02  0.65000000000E+04  0.10000000000E+01 0.  0.
    9000001    1    1    2    0    0 -0.52126185026E+04  0.38830700672E+04  0.19344243187E+02  0.65000000000E+04  0.10000000000E+01 0.  0.
</event>
<event>
 4    1  0.2193160E-006  0.1300000E+05  0.7957747E-01  0.1322471E+00
    9000001   -1    0    0    0    0  0.00000000000E+00  0.00000000000E+00  0.64999999231E+04  0.65000000000E+04  0.10000000000E+01 0.  0.
    9000001   -1    0    0    0    0 -0.00000000000E+00 -0.00000000000E+00 -0.64999999231E+04  0.65000000000E+04  0.10000000000E+01 0.  0.
    9000001    1    1    2    0    0 -0.64080076622E+03 -0.64032132492E+04 -0.91555090680E+03  0.65000000000E+04  0.10000000000E+01 0.  0.
    9000001    1    1    2    0    0  0.64080076622E+03  0.64032132492E+04  0.91555090680E+03  0.65000000000E+04  0.10000000000E+01 0.  0.
</event>
<event>
 4    1  0.2193160E-006  0.1300000E+05  0.7957747E-01  0.1322471E+00
    9000001   -1    0    0    0    0  0.00000000000E+00  0.00000000000E+00  0.64999999231E+04  0.65000000000E+04  0.10000000000E+01 0.  0.
    9000001   -1    0    0    0    0 -0.00000000000E+00 -0.00000000000E+00 -0.64999999231E+04  0.65000000000E+04  0.10000000000E+01 0.  0.
    9000001    1    1    2    0    0 -0.20521338155E+04 -0.86821501473E+02 -0.61669447727E+04  0.65000000000E+04  0.10000000000E+01 0.  0.
    9000001    1    1    2    0    0  0.20521338155E+04  0.86821501473E+02  0.61669447727E+04  0.65000000000E+04  0.10000000000E+01 0.  0.
</event>
<event>
 4    1  0.2193160E-006  0.1300000E+05  0.7957747E-01  0.1322471E+00
    9000001   -1    0    0    0    0  0.00000000000E+00  0.00000000000E+00  0.64999999231E+04  0.65000000000E+04  0.10000000000E+01 0.  0.
    9000001   -1    0    0    0    0 -0.00000000000E+00 -0.00000000000E+00 -0.64999999231E+04  0.65000000000E+04  0.10000000000E+01 0.  0.
    9000001    1    1    2    0    0 -0.34809573433E+03 -0.58068349426E+04 -0.28999131554E+04  0.65000000000E+04  0.10000000000E+01 0.  0.
    9000001    1    1    2    0    0  0.34809573433E+03  0.58068349426E+04  0.28999131554E+04  0.65000000000E+04  0.10000000000E+01 0.  0.
</event>
<event>
 4    1  0.2193160E-006  0.1300000E+05  0.7957747E-01  0.1322471E+00
    9000001   -1    0    0    0    0  0.00000000000E+00  0.00000000000E+00  0.64999999231E+04  0.65000000000E+04  0.10000000000E+01 0.  0.
    9000001   -1    0    0    0    0 -0.00000000000E+00 -0.00000000000E+00 -0.64999999231E+04  0.65000000000E+04  0.10000000000E+01 0.  0.
    9000001    1    1    2    0    0 -0.16669774231E+04 -0.45960734936E+04 -0.42833741037E+04  0.65000000000E+04  0.10000000000E+01 0.  0.
    9000001    1    1    2    0    0  0.16669774231E+04  0.45960734936E+04  0.42833741037E+04  0.65000000000E+04  0.10000000000E+01 0.  0.
</event>
<event>
 4    1  0.2193160E-006  0.1300000E+05  0.7957747E-01  0.1322471E+00
    9000001   -1    0    0    0    0  0.00000000000E+00  0.00000000000E+00  0.64999999231E+04  0.65000000000E+04  0.10000000000E+01 0.  0.
    9000001   -1    0    0    0    0 -0.00000000000E+00 -0.00000000000E+00 -0.64999999231E+04  0.65000000000E+04  0.10000000000E+01 0.  0.
    9000001    1    1    2    0    0  0.19272139424E+04  0.22594929247E+04 -0.57819146607E+04  0.65000000000E+04  0.10000000000E+01 0.  0.
    9000001    1    1    2    0    0 -0.19272139424E+04 -0.22594929247E+04  0.57819146607E+04  0.65000000000E+04  0.10000000000E+01 0.  0.
</event>
<event>
 4    1  0.2193160E-006  0.1300000E+05  0.7957747E-01  0.1322471E+00
    9000001   -1    0    0    0    0  0.00000000000E+00  0.00000000000E+00  0.64999999231E+04  0.65000000000E+04  0.10000000000E+01 0.  0.
    9000001   -1    0    0    0    0 -0.00000000000E+00 -0.00000000000E+00 -0.64999999231E+04  0.65000000000E+04  0.10000000000E+01 0.  0.
    9000001    1    1    2    0    0  0.59345138672E+03 -0.56799088489E+04  0.31042631847E+04  0.65000000000E+04  0.10000000000E+01 0.  0.
    9000001    1    1    2    0    0 -0.59345138672E+03  0.56799088489E+04 -0.31042631847E+04  0.65000000000E+04  0.10000000000E+01 0.  0.
</event>
<event>
 4    1  0.2193160E-006  0.1300000E+05  0.7957747E-01  0.1322471E+00
    9000001   -1    0    0    0    0  0.00000000000E+00  0.00000000000E+00  0.64999999231E+04  0.65000000000E+04  0.10000000000E+01 0.  0.
    9000001   -1    0    0    0    0 -0.00000000000E+00 -0.00000000000E+00 -0.64999999231E+04  0.65000000000E+04  0.10000000000E+01 0.  0.
    9000001    1    1    2    0    0 -0.98565324238E+03  0.38848228735E+04  0.51172881419E+04  0.65000000000E+04  0.10000000000E+01 0.  0.
    9000001    1    1    2    0    0  0.98565324238E+03 -0.38848228735E+04 -0.51172881419E+04  0.65000000000E+04  0.10000000000E+01 0.  0.
</event>
<event>
 4    1  0.2193160E-006  0.1300000E+05  0.7957747E-01  0.1322471E+00
    9000001   -1    0    0    0    0  0.00000000000E+00  0.00000000000E+00  0.64999999231E+04  0.65000000000E+04  0.10000000000E+01 0.  0.
    9000001   -1    0    0    0    0 -0.00000000000E+00 -0.00000000000E+00 -0.64999999231E+04  0.65000000000E+04  0.10000000000E+01 0.  0.
    9000001    1    1    2    0    0  0.23738419734E+04 -0.52734899214E+04 -0.29673519060E+04  0.65000000000E+04  0.10000000000E+01 0.  0.
    9000001    1    1    2    0    0 -0.23738419734E+04  0.52734899214E+04  0.29673519060E+04  0.65000000000E+04  0.10000000000E+01 0.  0.
</event>
<event>
 4    1  0.2193160E-006  0.1300000E+05  0.7957747E-01  0.1322471E+00
    9000001   -1    0    0    0    0  0.00000000000E+00  0.00000000000E+00  0.64999999231E+04  0.65000000000E+04  0.10000000000E+01 0.  0.
    9000001   -1    0    0    0    0 -0.00000000000E+00 -0.00000000000E+00 -0.64999999231E+04  0.65000000000E+04  0.10000000000E+01 0.  0.
    9000001    1    1    2    0    0  0.58606982160E+04  0.14738132532E+04 -0.23937606221E+04  0.65000000000E+04  0.10000000000E+01 0.  0.
    9000001    1    1    2    0    0 -0.58606982160E+04 -0.14738132532E+04  0.23937606221E+04  0.65000000000E+04  0.10000000000E+01 0.  0.
</event>
<event>
 4    1  0.2193160E-006  0.1300000E+05  0.7957747E-01  0.1322471E+00
    9000001   -1    0    0    0    0  0.00000000000E+00  0.00000000000E+00  0.64999999231E+04  0.65000000000E+04  0.10000000000E+01 0.  0.
    9000001   -1    0    0    0    0 -0.00000000000E+00 -0.00000000000E+00 -0.64999999231E+04  0.65000000000E+04  0.10000000000E+01 0.  0.
    9000001    1    1    2    0    0  0.53341815981E+04 -0.29282891065E+04  0.22850883107E+04  0.65000000000E+04  0.10000000000E+01 0.  0.
    9000001    1    1    2    0    0 -0.53341815981E+04  0.29282891065E+04 -0.22850883107E+04  0.65000000000E+04  0.10000000000E+01 0.  0.
</event>
<event>
 4    1  0.2193160E-006  0.1300000E+05  0.7957747E-01  0.1322471E+00
    9000001   -1    0    0    0    0  0.00000000000E+00  0.00000000000E+00  0.64999999231E+04  0.65000000000E+04  0.10000000000E+01 0.  0.
    9000001   -1    0    0    0    0 -0.00000000000E+00 -0.00000000000E+00 -0.64999999231E+04  0.65000000000E+04  0.10000000000E+01 0.  0.
    9000001    1    1    2    0    0 -0.25037984713E+04 -0.13179162424E+04 -0.58518449222E+04  0.65000000000E+04  0.10000000000E+01 0.  0.
    9000001    1    1    2    0    0  0.25037984713E+04  0.13179162424E+04  0.58518449222E+04  0.65000000000E+04  0.10000000000E+01 0.  0.
</event>
<event>
 4    1  0.2193160E-006  0.1300000E+05  0.7957747E-01  0.1322471E+00
    9000001   -1    0    0    0    0  0.00000000000E+00  0.00000000000E+00  0.64999999231E+04  0.65000000000E+04  0.10000000000E+01 0.  0.
    9000001   -1    0    0    0    0 -0.00000000000E+00 -0.00000000000E+00 -0.64999999231E+04  0.65000000000E+04  0.10000000000E+01 0.  0.
    9000001    1    1    2    0    0 -0.75515055059E+03 -0.13386470477E+04 -0.63156765851E+04  0.65000000000E+04  0.10000000000E+01 0.  0.
    9000001    1    1    2    0    0  0.75515055059E+03  0.13386470477E+04  0.63156765851E+04  0.65000000000E+04  0.10000000000E+01 0.  0.
</event>
<event>
 4    1  0.2193160E-006  0.1300000E+05  0.7957747E-01  0.1322471E+00
    9000001   -1    0    0    0    0  0.00000000000E+00  0.00000000000E+00  0.64999999231E+04  0.65000000000E+04  0.10000000000E+01 0.  0.
    9000001   -1    0    0    0    0 -0.00000000000E+00 -0.00000000000E+00 -0.64999999231E+04  0.65000000000E+04  0.10000000000E+01 0.  0.
    9000001    1    1    2    0    0 -0.33959693191E+04  0.28988559088E+04  0.47237724123E+04  0.65000000000E+04  0.10000000000E+01 0.  0.
    9000001    1    1    2    0    0  0.33959693191E+04 -0.28988559088E+04 -0.47237724123E+04  0.65000000000E+04  0.10000000000E+01 0.  0.
</event>
<event>
 4    1  0.2193160E-006  0.1300000E+05  0.7957747E-01  0.1322471E+00
    9000001   -1    0    0    0    0  0.00000000000E+00  0.00000000000E+00  0.64999999231E+04  0.65000000000E+04  0.10000000000E+01 0.  0.
    9000001   -1    0    0    0    0 -0.00000000000E+00 -0.00000000000E+00 -0.64999999231E+04  0.65000000000E+04  0.10000000000E+01 0.  0.
    9000001    1    1    2    0    0 -0.34662251264E+04 -0.29217794974E+03  0.54908937723E+04  0.65000000000E+04  0.10000000000E+01 0.  0.
    9000001    1    1    2    0    0  0.34662251264E+04  0.29217794974E+03 -0.54908937723E+04  0.65000000000E+04  0.10000000000E+01 0.  0.
</event>
<event>
 4    1  0.2193160E-006  0.1300000E+05  0.7957747E-01  0.1322471E+00
    9000001   -1    0    0    0    0  0.00000000000E+00  0.00000000000E+00  0.64999999231E+04  0.65000000000E+04  0.10000000000E+01 0.  0.
    9000001   -1    0    0    0    0 -0.00000000000E+00 -0.00000000000E+00 -0.64999999231E+04  0.65000000000E+04  0.10000000000E+01 0.  0.
    9000001    1    1    2    0    0 -0.62731481854E+04  0.74489800708E+03 -0.15306004714E+04  0.65000000000E+04  0.10000000000E+01 0.  0.
    9000001    1    1    2    0    0  0.62731481854E+04 -0.74489800708E+03  0.15306004714E+04  0.65000000000E+04  0.10000000000E+01 0.  0.
</event>
<event>
 4    1  0.2193160E-006  0.1300000E+05  0.7957747E-01  0.1322471E+00
    9000001   -1    0    0    0    0  0.00000000000E+00  0.00000000000E+00  0.64999999231E+04  0.65000000000E+04  0.10000000000E+01 0.  0.
    9000001   -1    0    0    0    0 -0.00000000000E+00 -0.00000000000E+00 -0.64999999231E+04  0.65000000000E+04  0.10000000000E+01 0.  0.
    9000001    1    1    2    0    0 -0.52251626207E+04 -0.71142163774E+01  0.38662157176E+04  0.65000000000E+04  0.10000000000E+01 0.  0.
    9000001    1    1    2    0    0  0.52251626207E+04  0.71142163774E+01 -0.38662157176E+04  0.65000000000E+04  0.10000000000E+01 0.  0.
</event>
<event>
 4    1  0.2193160E-006  0.1300000E+05  0.7957747E-01  0.1322471E+00
    9000001   -1    0    0    0    0  0.00000000000E+00  0.00000000000E+00  0.64999999231E+04  0.65000000000E+04  0.10000000000E+01 0.  0.
    9000001   -1    0    0    0    0 -0.00000000000E+00 -0.00000000000E+00 -0.64999999231E+04  0.65000000000E+04  0.10000000000E+01 0.  0.
    9000001    1    1    2    0    0  0.20647703951E+04  0.17433904799E+04 -0.59116251446E+04  0.65000000000E+04  0.10000000000E+01 0.  0.
    9000001    1    1    2    0    0 -0.20647703951E+04 -0.17433904799E+04  0.59116251446E+04  0.65000000000E+04  0.10000000000E+01 0.  0.
</event>
<event>
 4    1  0.2193160E-006  0.1300000E+05  0.7957747E-01  0.1322471E+00
    9000001   -1    0    0    0    0  0.00000000000E+00  0.00000000000E+00  0.64999999231E+04  0.65000000000E+04  0.10000000000E+01 0.  0.
    9000001   -1    0    0    0    0 -0.00000000000E+00 -0.00000000000E+00 -0.64999999231E+04  0.65000000000E+04  0.10000000000E+01 0.  0.
    9000001    1    1    2    0    0  0.24892296093E+04 -0.13716908698E+04 -0.58456991977E+04  0.65000000000E+04  0.10000000000E+01 0.  0.
    9000001    1    1    2    0    0 -0.24892296093E+04  0.13716908698E+04  0.58456991977E+04  0.65000000000E+04  0.10000000000E+01 0.  0.
</event>
<event>
 4    1  0.2193160E-006  0.1300000E+05  0.7957747E-01  0.1322471E+00
    9000001   -1    0    0    0    0  0.00000000000E+00  0.00000000000E+00  0.64999999231E+04  0.65000000000E+04  0.10000000000E+01 0.  0.
    9000001   -1    0    0    0    0 -0.00000000000E+00 -0.00000000000E+00 -0.64999999231E+04  0.65000000000E+04  0.10000000000E+01 0.  0.
    9000001    1    1    2    0    0 -0.16672775034E+04  0.14498753154E+04 -0.61129408877E+04  0.65000000000E+04  0.10000000000E+01 0.  0.
    9000001    1    1    2    0    0  0.16672775034E+04 -0.14498753154E+04  0.61129408877E+04  0.65000000000E+04  0.10000000000E+01 0.  0.
</event>
<event>
 4    1  0.2193160E-006  0.1300000E+05  0.7957747E-01  0.1322471E+00
    9000001   -1    0    0    0    0  0.00000000000E+00  0.00000000000E+00  0.64999999231E+04  0.65000000000E+04  0.10000000000E+01 0.  0.
    9000001   -1    0    0    0    0 -0.00000000000E+00 -0.00000000000E+00 -0.64999999231E+04  0.65000000000E+04  0.10000000000E+01 0.  0.
    9000001    1    1    2    0    0 -0.34517978923E+04  0.50532601820E+04 -0.21908107732E+04  0.65000000000E+04  0.10000000000E+01 0.  0.
    9000001    1    1    2    0    0  0.34517978923E+04 -0.50532601820E+04  0.21908107732E+04  0.65000000000E+04  0.10000000000E+01 0.  0.
</event>
<event>
 4    1  0.2193160E-006  0.1300000E+05  0.7957747E-01  0.1322471E+00
    9000001   -1    0    0    0    0  0.00000000000E+00  0.00000000000E+00  0.64999999231E+04  0.65000000000E+04  0.10000000000E+01 0.  0.
    9000001   -1    0    0    0    0 -0.00000000000E+00 -0.00000000000E+00 -0.64999999231E+04  0.65000000000E+04  0.10000000000E+01 0.  0.
    9000001    1    1    2    0    0  0.33002764638E+04  0.15737996850E+04 -0.53741351689E+04  0.65000000000E+04  0.10000000000E+01 0.  0.
    9000001    1    1    2    0    0 -0.33002764638E+04 -0.15737996850E+04  0.53741351689E+04  0.65000000000E+04  0.10000000000E+01 0.  0.
</event>
<event>
 4    1  0.2193160E-006  0.1300000E+05  0.7957747E-01  0.1322471E+00
    9000001   -1    0    0    0    0  0.00000000000E+00  0.00000000000E+00  0.64999999231E+04  0.65000000000E+04  0.10000000000E+01 0.  0.
    9000001   -1    0    0    0    0 -0.00000000000E+00 -0.00000000000E+00 -0.64999999231E+04  0.65000000000E+04  0.10000000000E+01 0.  0.
    9000001    1    1    2    0    0  0.30449866033E+03 -0.31002919356E+04  0.57048636688E+04  0.65000000000E+04  0.10000000000E+01 0.  0.
    9000001    1    1    2    0    0 -0.30449866033E+03  0.31002919356E+04 -0.57048636688E+04  0.65000000000E+04  0.10000000000E+01 0.  0.
</event>
<event>
 4    1  0.2193160E-006  0.1300000E+05  0.7957747E-01  0.1322471E+00
    9000001   -1    0    0    0    0  0.00000000000E+00  0.00000000000E+00  0.64999999231E+04  0.65000000000E+04  0.10000000000E+01 0.  0.
    9000001   -1    0    0    0    0 -0.00000000000E+00 -0.00000000000E+00 -0.64999999231E+04  0.65000000000E+04  0.10000000000E+01 0.  0.
    9000001    1    1    2    0    0  0.49119949054E+04 -0.55416958980E+03 -0.42208057424E+04  0.65000000000E+04  0.10000000000E+01 0.  0.
    9000001    1    1    2    0    0 -0.49119949054E+04  0.55416958980E+03  0.42208057424E+04  0.65000000000E+04  0.10000000000E+01 0.  0.
</event>
<event>
 4    1  0.2193160E-006  0.1300000E+05  0.7957747E-01  0.1322471E+00
    9000001   -1    0    0    0    0  0.00000000000E+00  0.00000000000E+00  0.64999999231E+04  0.65000000000E+04  0.10000000000E+01 0.  0.
    9000001   -1    0    0    0    0 -0.00000000000E+00 -0.00000000000E+00 -0.64999999231E+04  0.65000000000E+04  0.10000000000E+01 0.  0.
    9000001    1    1    2    0    0 -0.39609602997E+04  0.13151715263E+04 -0.49830830177E+04  0.65000000000E+04  0.10000000000E+01 0.  0.
    9000001    1    1    2    0    0  0.39609602997E+04 -0.13151715263E+04  0.49830830177E+04  0.65000000000E+04  0.10000000000E+01 0.  0.
</event>
<event>
 4    1  0.2193160E-006  0.1300000E+05  0.7957747E-01  0.1322471E+00
    9000001   -1    0    0    0    0  0.00000000000E+00  0.00000000000E+00  0.64999999231E+04  0.65000000000E+04  0.10000000000E+01 0.  0.
    9000001   -1    0    0    0    0 -0.00000000000E+00 -0.00000000000E+00 -0.64999999231E+04  0.65000000000E+04  0.10000000000E+01 0.  0.
    9000001    1    1    2    0    0 -0.16669083551E+04 -0.10766717540E+03 -0.62817054464E+04  0.65000000000E+04  0.10000000000E+01 0.  0.
    9000001    1    1    2    0    0  0.16669083551E+04  0.10766717540E+03  0.62817054464E+04  0.65000000000E+04  0.10000000000E+01 0.  0.
</event>
<event>
 4    1  0.2193160E-006  0.1300000E+05  0.7957747E-01  0.1322471E+00
    9000001   -1    0    0    0    0  0.00000000000E+00  0.00000000000E+00  0.64999999231E+04  0.65000000000E+04  0.10000000000E+01 0.  0.
    9000001   -1    0    0    0    0 -0.00000000000E+00 -0.00000000000E+00 -0.64999999231E+04  0.65000000000E+04  0.10000000000E+01 0.  0.
    9000001    1    1    2    0    0 -0.57067858784E+04  0.31084650950E+04  0.14155808371E+03  0.65000000000E+04  0.10000000000E+01 0.  0.
    9000001    1    1    2    0    0  0.57067858784E+04 -0.31084650950E+04 -0.14155808371E+03  0.65000000000E+04  0.10000000000E+01 0.  0.
</event>
<event>
 4    1  0.2193160E-006  0.1300000E+05  0.7957747E-01  0.1322471E+00
    9000001   -1    0    0    0    0  0.00000000000E+00  0.00000000000E+00  0.64999999231E+04  0.65000000000E+04  0.10000000000E+01 0.  0.
    9000001   -1    0    0    0    0 -0.00000000000E+00 -0.00000000000E+00 -0.64999999231E+04  0.65000000000E+04  0.10000000000E+01 0.  0.
    9000001    1    1    2    0    0 -0.41292261452E+04 -0.49114467189E+03 -0.49958249923E+04  0.65000000000E+04  0.10000000000E+01 0.  0.
    9000001    1    1    2    0    0  0.41292261452E+04  0.49114467189E+03  0.49958249923E+04  0.65000000000E+04  0.10000000000E+01 0.  0.
</event>
<event>
 4    1  0.2193160E-006  0.1300000E+05  0.7957747E-01  0.1322471E+00
    9000001   -1    0    0    0    0  0.00000000000E+00  0.00000000000E+00  0.64999999231E+04  0.65000000000E+04  0.10000000000E+01 0.  0.
    9000001   -1    0    0    0    0 -0.00000000000E+00 -0.00000000000E+00 -0.64999999231E+04  0.65000000000E+04  0.10000000000E+01 0.  0.
    9000001    1    1    2    0    0  0.66141662155E+03 -0.60480660857E+04 -0.22876677373E+04  0.65000000000E+04  0.10000000000E+01 0.  0.
    9000001    1    1    2    0    0 -0.66141662155E+03  0.60480660857E+04  0.22876677373E+04  0.65000000000E+04  0.10000000000E+01 0.  0.
</event>
<event>
 4    1  0.2193160E-006  0.1300000E+05  0.7957747E-01  0.1322471E+00
    9000001   -1    0    0    0    0  0.00000000000E+00  0.00000000000E+00  0.64999999231E+04  0.65000000000E+04  0.10000000000E+01 0.  0.
    9000001   -1    0    0    0    0 -0.00000000000E+00 -0.00000000000E+00 -0.64999999231E+04  0.65000000000E+04  0.10000000000E+01 0.  0.
    9000001    1    1    2    0    0 -0.58864152121E+04  0.21662954173E+04 -0.17050745192E+04  0.65000000000E+04  0.10000000000E+01 0.  0.
    9000001    1    1    2    0    0  0.58864152121E+04 -0.21662954173E+04  0.17050745192E+04  0.65000000000E+04  0.10000000000E+01 0.  0.
</event>
<event>
 4    1  0.2193160E-006  0.1300000E+05  0.7957747E-01  0.1322471E+00
    9000001   -1    0    0    0    0  0.00000000000E+00  0.00000000000E+00  0.64999999231E+04  0.65000000000E+04  0.10000000000E+01 0.  0.
    9000001   -1    0    0    0    0 -0.00000000000E+00 -0.00000000000E+00 -0.64999999231E+04  0.65000000000E+04  0.10000000000E+01 0.  0.
    9000001    1    1    2    0    0  0.19377750392E+04 -0.58828874068E+04 -0.19714620605E+04  0.65000000000E+04  0.10000000000E+01 0.  0.
    9000001    1    1    2    0    0 -0.19377750392E+04  0.58828874068E+04  0.19714620605E+04  0.65000000000E+04  0.10000000000E+01 0.  0.
</event>
<event>
 4    1  0.2193160E-006  0.1300000E+05  0.7957747E-01  0.1322471E+00
    9000001   -1    0    0    0    0  0.00000000000E+00  0.00000000000E+00  0.64999999231E+04  0.65000000000E+04  0.10000000000E+01 0.  0.
    9000001   -1    0    0    0    0 -0.00000000000E+00 -0.00000000000E+00 -0.64999999231E+04  0.65000000000E+04  0.10000000000E+01 0.  0.
    9000001    1    1    2    0    0 -0.64131962284E+04 -0.88163326025E+03  0.58620468306E+03  0.65000000000E+04  0.10000000000E+01 0.  0.
    9000001    1    1    2    0    0  0.64131962284E+04  0.88163326025E+03 -0.58620468306E+03  0.65000000000E+04  0.10000000000E+01 0.  0.
</event>
<event>
 4    1  0.2193160E-006  0.1300000E+05  0.7957747E-01  0.1322471E+00
    9000001   -1    0    0    0    0  0.00000000000E+00  0.00000000000E+00  0.64999999231E+04  0.65000000000E+04  0.10000000000E+01 0.  0.
    9000001   -1    0    0    0    0 -0.00000000000E+00 -0.00000000000E+00 -0.64999999231E+04  0.65000000000E+04  0.10000000000E+01 0.  0.
    9000001    1    1    2    0    0  0.62771037234E+04  0.12227531064E+04  0.11631176582E+04  0.65000000000E+04  0.10000000000E+01 0.  0.
    9000001    1    1    2    0    0 -0.62771037234E+04 -0.12227531064E+04 -0.11631176582E+04  0.65000000000E+04  0.10000000000E+01 0.  0.
</event>
<event>
 4    1  0.2193160E-006  0.1300000E+05  0.7957747E-01  0.1322471E+00
    9000001   -1    0    0    0    0  0.00000000000E+00  0.00000000000E+00  0.64999999231E+04  0.65000000000E+04  0.10000000000E+01 0.  0.
    9000001   -1    0    0    0    0 -0.00000000000E+00 -0.00000000000E+00 -0.64999999231E+04  0.65000000000E+04  0.10000000000E+01 0.  0.
    9000001    1    1    2    0    0  0.53618080235E+04  0.34332781322E+04 -0.13090511777E+04  0.65000000000E+04  0.10000000000E+01 0.  0.
    9000001    1    1    2    0    0 -0.53618080235E+04 -0.34332781322E+04  0.13090511777E+04  0.65000000000E+04  0.10000000000E+01 0.  0.
</event>
<event>
 4    1  0.2193160E-006  0.1300000E+05  0.7957747E-01  0.1322471E+00
    9000001   -1    0    0    0    0  0.00000000000E+00  0.00000000000E+00  0.64999999231E+04  0.65000000000E+04  0.10000000000E+01 0.  0.
    9000001   -1    0    0    0    0 -0.00000000000E+00 -0.00000000000E+00 -0.64999999231E+04  0.65000000000E+04  0.10000000000E+01 0.  0.
    9000001    1    1    2    0    0  0.19564504772E+04  0.61704146287E+04 -0.59015577618E+03  0.65000000000E+04  0.10000000000E+01 0.  0.
    9000001    1    1    2    0    0 -0.19564504772E+04 -0.61704146287E+04  0.59015577618E+03  0.65000000000E+04  0.10000000000E+01 0.  0.
</event>
<event>
 4    1  0.2193160E-006  0.1300000E+05  0.7957747E-01  0.1322471E+00
    9000001   -1    0    0    0    0  0.00000000000E+00  0.00000000000E+00  0.64999999231E+04  0.65000000000E+04  0.10000000000E+01 0.  0.
    9000001   -1    0    0    0    0 -0.00000000000E+00 -0.00000000000E+00 -0.64999999231E+04  0.65000000000E+04  0.10000000000E+01 0.  0.
    9000001    1    1    2    0    0  0.29669155236E+04  0.51745615304E+04  0.25828906759E+04  0.65000000000E+04  0.10000000000E+01 0.  0.
    9000001    1    1    2    0    0 -0.29669155236E+04 -0.51745615304E+04 -0.25828906759E+04  0.65000000000E+04  0.10000000000E+01 0.  0.
</event>
<event>
 4    1  0.2193160E-006  0.1300000E+05  0.7957747E-01  0.1322471E+00
    9000001   -1    0    0    0    0  0.00000000000E+00  0.00000000000E+00  0.64999999231E+04  0.65000000000E+04  0.10000000000E+01 0.  0.
    9000001   -1    0    0    0    0 -0.00000000000E+00 -0.00000000000E+00 -0.64999999231E+04  0.65000000000E+04  0.10000000000E+01 0.  0.
    9000001    1    1    2    0    0  0.18345738131E+04 -0.47105322728E+04  0.40859789074E+04  0.65000000000E+04  0.10000000000E+01 0.  0.
    9000001    1    1    2    0    0 -0.18345738131E+04  0.47105322728E+04 -0.40859789074E+04  0.65000000000E+04  0.10000000000E+01 0.  0.
</event>
<event>
 4    1  0.2193160E-006  0.1300000E+05  0.7957747E-01  0.1322471E+00
    9000001   -1    0    0    0    0  0.00000000000E+00  0.00000000000E+00  0.64999999231E+04  0.65000000000E+04  0.10000000000E+01 0.  0.
    9000001   -1    0    0    0    0 -0.00000000000E+00 -0.00000000000E+00 -0.64999999231E+04  0.65000000000E+04  0.10000000000E+01 0.  0.
    9000001    1    1    2    0    0  0.11037534416E+04  0.18626144702E+04 -0.61288167435E+04  0.65000000000E+04  0.10000000000E+01 0.  0.
    9000001    1    1    2    0    0 -0.11037534416E+04 -0.18626144702E+04  0.61288167435E+04  0.65000000000E+04  0.10000000000E+01 0.  0.
</event>
<event>
 4    1  0.2193160E-006  0.1300000E+05  0.7957747E-01  0.1322471E+00
    9000001   -1    0    0    0    0  0.00000000000E+00  0.00000000000E+00  0.64999999231E+04  0.65000000000E+04  0.10000000000E+01 0.  0.
    9000001   -1    0    0    0    0 -0.00000000000E+00 -0.00000000000E+00 -0.64999999231E+04  0.65000000000E+04  0.10000000000E+01 0.  0.
    9000001    1    1    2    0    0  0.41362412590E+04 -0.28290343375E+04  0.41398154505E+04  0.65000000000E+04  0.10000000000E+01 0.  0.
    9000001    1    1    2    0    0 -0.41362412590E+04  0.28290343375E+04 -0.41398154505E+04  0.65000000000E+04  0.10000000000E+01 0.  0.
</event>
<event>
 4    1  0.2193160E-006  0.1300000E+05  0.7957747E-01  0.1322471E+00
    9000001   -1    0    0    0    0  0.00000000000E+00  0.00000000000E+00  0.64999999231E+04  0.65000000000E+04  0.10000000000E+01 0.  0.
    9000001   -1    0    0    0    0 -0.00000000000E+00 -0.00000000000E+00 -0.64999999231E+04  0.65000000000E+04  0.10000000000E+01 0.  0.
    9000001    1    1    2    0    0 -0.34869825654E+04  0.50366017152E+04  0.21733832500E+04  0.65000000000E+04  0.10000000000E+01 0.  0.
    9000001    1    1    2    0    0  0.34869825654E+04 -0.50366017152E+04 -0.21733832500E+04  0.65000000000E+04  0.10000000000E+01 0.  0.
</event>
<event>
 4    1  0.2193160E-006  0.1300000E+05  0.7957747E-01  0.1322471E+00
    9000001   -1    0    0    0    0  0.00000000000E+00  0.00000000000E+00  0.64999999231E+04  0.65000000000E+04  0.10000000000E+01 0.  0.
    9000001   -1    0    0    0    0 -0.00000000000E+00 -0.00000000000E+00 -0.64999999231E+04  0.65000000000E+04  0.10000000000E+01 0.  0.
    9000001    1    1    2    0    0  0.30440766496E+04  0.56965316460E+04  0.73015310596E+03  0.65000000000E+04  0.10000000000E+01 0.  0.
    9000001    1    1    2    0    0 -0.30440766496E+04 -0.56965316460E+04 -0.73015310596E+03  0.65000000000E+04  0.10000000000E+01 0.  0.
</event>
<event>
 4    1  0.2193160E-006  0.1300000E+05  0.7957747E-01  0.1322471E+00
    9000001   -1    0    0    0    0  0.00000000000E+00  0.00000000000E+00  0.64999999231E+04  0.65000000000E+04  0.10000000000E+01 0.  0.
    9000001   -1    0    0    0    0 -0.00000000000E+00 -0.00000000000E+00 -0.64999999231E+04  0.65000000000E+04  0.10000000000E+01 0.  0.
    9000001    1    1    2    0    0 -0.21650907207E+04  0.34816623642E+04 -0.50438485656E+04  0.65000000000E+04  0.10000000000E+01 0.  0.
    9000001    1    1    2    0    0  0.21650907207E+04 -0.34816623642E+04  0.50438485656E+04  0.65000000000E+04  0.10000000000E+01 0.  0.
</event>
<event>
 4    1  0.2193160E-006  0.1300000E+05  0.7957747E-01  0.1322471E+00
    9000001   -1    0    0    0    0  0.00000000000E+00  0.00000000000E+00  0.64999999231E+04  0.65000000000E+04  0.10000000000E+01 0.  0.
    9000001   -1    0    0    0    0 -0.00000000000E+00 -0.00000000000E+00 -0.64999999231E+04  0.65000000000E+04  0.10000000000E+01 0.  0.
    9000001    1    1    2    0    0  0.71415593483E+03 -0.34448412016E+04  0.54656243373E+04  0.65000000000E+04  0.10000000000E+01 0.  0.
    9000001    1    1    2    0    0 -0.71415593483E+03  0.34448412016E+04 -0.54656243373E+04  0.65000000000E+04  0.10000000000E+01 0.  0.
</event>
<event>
 4    1  0.2193160E-006  0.1300000E+05  0.7957747E-01  0.1322471E+00
    9000001   -1    0    0    0    0  0.00000000000E+00  0.00000000000E+00  0.64999999231E+04  0.65000000000E+04  0.10000000000E+01 0.  0.
    9000001   -1    0    0    0    0 -0.00000000000E+00 -0.00000000000E+00 -0.64999999231E+04  0.65000000000E+04  0.10000000000E+01 0.  0.
    9000001    1    1    2    0    0 -0.22825231491E+04 -0.35402799931E+04 -0.49504044930E+04  0.65000000000E+04  0.10000000000E+01 0.  0.
    9000001    1    1    2    0    0  0.22825231491E+04  0.35402799931E+04  0.49504044930E+04  0.65000000000E+04  0.10000000000E+01 0.  0.
</event>
<event>
 4    1  0.2193160E-006  0.1300000E+05  0.7957747E-01  0.1322471E+00
    9000001   -1    0    0    0    0  0.00000000000E+00  0.00000000000E+00  0.64999999231E+04  0.65000000000E+04  0.10000000000E+01 0.  0.
    9000001   -1    0    0    0    0 -0.00000000000E+00 -0.00000000000E+00 -0.64999999231E+04  0.65000000000E+04  0.10000000000E+01 0.  0.
    9000001    1    1    2    0    0 -0.50551588307E+04  0.15985488191E+03 -0.40828684295E+04  0.65000000000E+04  0.10000000000E+01 0.  0.
    9000001    1    1    2    0    0  0.50551588307E+04 -0.15985488191E+03  0.40828684295E+04  0.65000000000E+04  0.10000000000E+01 0.  0.
</event>
<event>
 4    1  0.2193160E-006  0.1300000E+05  0.7957747E-01  0.1322471E+00
    9000001   -1    0    0    0    0  0.00000000000E+00  0.00000000000E+00  0.64999999231E+04  0.65000000000E+04  0.10000000000E+01 0.  0.
    9000001   -1    0    0    0    0 -0.00000000000E+00 -0.00000000000E+00 -0.64999999231E+04  0.65000000000E+04  0.10000000000E+01 0.  0.
    9000001    1    1    2    0    0  0.27739733186E+04  0.89730783044E+03  0.58094672462E+04  0.65000000000E+04  0.10000000000E+01 0.  0.
    9000001    1    1    2    0    0 -0.27739733186E+04 -0.89730783044E+03 -0.58094672462E+04  0.65000000000E+04  0.10000000000E+01 0.  0.
</event>
<event>
 4    1  0.2193160E-006  0.1300000E+05  0.7957747E-01  0.1322471E+00
    9000001   -1    0    0    0    0  0.00000000000E+00  0.00000000000E+00  0.64999999231E+04  0.65000000000E+04  0.10000000000E+01 0.  0.
    9000001   -1    0    0    0    0 -0.00000000000E+00 -0.00000000000E+00 -0.64999999231E+04  0.65000000000E+04  0.10000000000E+01 0.  0.
    9000001    1    1    2    0    0  0.12638633998E+04 -0.16371087023E+04 -0.61621849537E+04  0.65000000000E+04  0.10000000000E+01 0.  0.
    9000001    1    1    2    0    0 -0.12638633998E+04  0.16371087023E+04  0.61621849537E+04  0.65000000000E+04  0.10000000000E+01 0.  0.
</event>
<event>
 4    1  0.2193160E-006  0.1300000E+05  0.7957747E-01  0.1322471E+00
    9000001   -1    0    0    0    0  0.00000000000E+00  0.00000000000E+00  0.64999999231E+04  0.65000000000E+04  0.10000000000E+01 0.  0.
    9000001   -1    0    0    0    0 -0.00000000000E+00 -0.00000000000E+00 -0.64999999231E+04  0.65000000000E+04  0.10000000000E+01 0.  0.
    9000001    1    1    2    0    0  0.24411831132E+04  0.46028996443E+04 -0.38863786321E+04  0.65000000000E+04  0.10000000000E+01 0.  0.
    9000001    1    1    2    0    0 -0.24411831132E+04 -0.46028996443E+04  0.38863786321E+04  0.65000000000E+04  0.10000000000E+01 0.  0.
</event>
<event>
 4    1  0.2193160E-006  0.1300000E+05  0.7957747E-01  0.1322471E+00
    9000001   -1    0    0    0    0  0.00000000000E+00  0.00000000000E+00  0.64999999231E+04  0.65000000000E+04  0.10000000000E+01 0.  0.
    9000001   -1    0    0    0    0 -0.00000000000E+00 -0.00000000000E+00 -0.64999999231E+04  0.65000000000E+04  0.10000000000E+01 0.  0.
    9000001    1    1    2    0    0  0.37836859959E+04  0.48982966171E+04 -0.19850464818E+04  0.65000000000E+04  0.10000000000E+01 0.  0.
    9000001    1    1    2    0    0 -0.37836859959E+04 -0.48982966171E+04  0.19850464818E+04  0.65000000000E+04  0.10000000000E+01 0.  0.
</event>
<event>
 4    1  0.2193160E-006  0.1300000E+05  0.7957747E-01  0.1322471E+00
    9000001   -1    0    0    0    0  0.00000000000E+00  0.00000000000E+00  0.64999999231E+04  0.65000000000E+04  0.10000000000E+01 0.  0.
    9000001   -1    0    0    0    0 -0.00000000000E+00 -0.00000000000E+00 -0.64999999231E+04  0.65000000000E+04  0.10000000000E+01 0.  0.
    9000001    1    1    2    0    0 -0.79352826991E+03  0.64019963626E+04 -0.79671479092E+03  0.65000000000E+04  0.10000000000E+01 0.  0.
    9000001    1    1    2    0    0  0.79352826991E+03 -0.64019963626E+04  0.79671479092E+03  0.65000000000E+04  0.10000000000E+01 0.  0.
</event>
<event>
 4    1  0.2193160E-006  0.1300000E+05  0.7957747E-01  0.1322471E+00
    9000001   -1    0    0    0    0  0.00000000000E+00  0.00000000000E+00  0.64999999231E+04  0.65000000000E+04  0.10000000000E+01 0.  0.
    9000001   -1    0    0    0    0 -0.00000000000E+00 -0.00000000000E+00 -0.64999999231E+04  0.65000000000E+04  0.10000000000E+01 0.  0.
    9000001    1    1    2    0    0 -0.34488841322E+04 -0.35805777807E+04 -0.41874407457E+04  0.65000000000E+04  0.10000000000E+01 0.  0.
    9000001    1    1    2    0    0  0.34488841322E+04  0.35805777807E+04  0.41874407457E+04  0.65000000000E+04  0.10000000000E+01 0.  0.
</event>
<event>
 4    1  0.2193160E-006  0.1300000E+05  0.7957747E-01  0.1322471E+00
    9000001   -1    0    0    0    0  0.00000000000E+00  0.00000000000E+00  0.64999999231E+04  0.65000000000E+04  0.10000000000E+01 0.  0.
    9000001   -1    0    0    0    0 -0.00000000000E+00 -0.00000000000E+00 -0.64999999231E+04  0.65000000000E+04  0.10000000000E+01 0.  0.
    9000001    1    1    2    0    0 -0.10124873936E+04  0.57728308280E+04  0.28105680047E+04  0.65000000000E+04  0.10000000000E+01 0.  0.
    9000001    1    1    2    0    0  0.10124873936E+04 -0.57728308280E+04 -0.28105680047E+04  0.65000000000E+04  0.10000000000E+01 0.  0.
</event>
<event>
 4    1  0.2193160E-006  0.1300000E+05  0.7957747E-01  0.1322471E+00
    9000001   -1    0    0    0    0  0.00000000000E+00  0.00000000000E+00  0.64999999231E+04  0.65000000000E+04  0.10000000000E+01 0.  0.
    9000001   -1    0    0    0    0 -0.00000000000E+00 -0.00000000000E+00 -0.64999999231E+04  0.65000000000E+04  0.10000000000E+01 0.  0.
    9000001    1    1    2    0    0 -0.29066510970E+04  0.31852748459E+04 -0.48636819958E+04  0.65000000000E+04  0.10000000000E+01 0.  0.
    9000001    1    1    2    0    0  0.29066510970E+04 -0.31852748459E+04  0.48636819958E+04  0.65000000000E+04  0.10000000000E+01 0.  0.
</event>
<event>
 4    1  0.2193160E-006  0.1300000E+05  0.7957747E-01  0.1322471E+00
    9000001   -1    0    0    0    0  0.00000000000E+00  0.00000000000E+00  0.64999999231E+04  0.65000000000E+04  0.10000000000E+01 0.  0.
    9000001   -1    0    0    0    0 -0.00000000000E+00 -0.00000000000E+00 -0.64999999231E+04  0.65000000000E+04  0.10000000000E+01 0.  0.
    9000001    1    1    2    0    0 -0.24501922537E+04  0.60195614859E+04 -0.10694127955E+03  0.65000000000E+04  0.10000000000E+01 0.  0.
    9000001    1    1    2    0    0  0.24501922537E+04 -0.60195614859E+04  0.10694127955E+03  0.65000000000E+04  0.10000000000E+01 0.  0.
</event>
<event>
 4    1  0.2193160E-006  0.1300000E+05  0.7957747E-01  0.1322471E+00
    9000001   -1    0    0    0    0  0.00000000000E+00  0.00000000000E+00  0.64999999231E+04  0.65000000000E+04  0.10000000000E+01 0.  0.
    9000001   -1    0    0    0    0 -0.00000000000E+00 -0.00000000000E+00 -0.64999999231E+04  0.65000000000E+04  0.10000000000E+01 0.  0.
    9000001    1    1    2    0    0 -0.29030704874E+04  0.12930590814E+04 -0.56701127817E+04  0.65000000000E+04  0.10000000000E+01 0.  0.
    9000001    1    1    2    0    0  0.29030704874E+04 -0.12930590814E+04  0.56701127817E+04  0.65000000000E+04  0.10000000000E+01 0.  0.
</event>
<event>
 4    1  0.2193160E-006  0.1300000E+05  0.7957747E-01  0.1322471E+00
    9000001   -1    0    0    0    0  0.00000000000E+00  0.00000000000E+00  0.64999999231E+04  0.65000000000E+04  0.10000000000E+01 0.  0.
    9000001   -1    0    0    0    0 -0.00000000000E+00 -0.00000000000E+00 -0.64999999231E+04  0.65000000000E+04  0.10000000000E+01 0.  0.
    9000001    1    1    2    0    0 -0.16603117494E+04  0.62838337191E+04  0.82448078919E+02  0.65000000000E+04  0.10000000000E+01 0.  0.
    9000001    1    1    2    0    0  0.16603117494E+04 -0.62838337191E+04 -0.82448078919E+02  0.65000000000E+04  0.10000000000E+01 0.  0.
</event>
<event>
 4    1  0.2193160E-006  0.1300000E+05  0.7957747E-01  0.1322471E+00
    9000001   -1    0    0    0    0  0.00000000000E+00  0.00000000000E+00  0.64999999231E+04  0.65000000000E+04  0.10000000000E+01 0.  0.
    9000001   -1    0    0    0    0 -0.00000000000E+00 -0.00000000000E+00 -0.64999999231E+04  0.65000000000E+04  0.10000000000E+01 0.  0.
    9000001    1    1    2    0    0 -0.37425332646E+04  0.34134541842E+04 -0.40733001725E+04  0.65000000000E+04  0.10000000000E+01 0.  0.
    9000001    1    1    2    0    0  0.37425332646E+04 -0.34134541842E+04  0.40733001725E+04  0.65000000000E+04  0.10000000000E+01 0.  0.
</event>
<event>
 4    1  0.2193160E-006  0.1300000E+05  0.7957747E-01  0.1322471E+00
    9000001   -1    0    0    0    0  0.00000000000E+00  0.00000000000E+00  0.64999999231E+04  0.65000000000E+04  0.10000000000E+01 0.  0.
    9000001   -1    0    0    0    0 -0.00000000000E+00 -0.00000000000E+00 -0.64999999231E+04  0.65000000000E+04  0.10000000000E+01 0.  0.
    9000001    1    1    2    0    0 -0.69766705114E+03 -0.60749217034E+04 -0.22042200395E+04  0.65000000000E+04  0.10000000000E+01 0.  0.
    9000001    1    1    2    0    0  0.69766705114E+03  0.60749217034E+04  0.22042200395E+04  0.65000000000E+04  0.10000000000E+01 0.  0.
</event>
<event>
 4    1  0.2193160E-006  0.1300000E+05  0.7957747E-01  0.1322471E+00
    9000001   -1    0    0    0    0  0.00000000000E+00  0.00000000000E+00  0.64999999231E+04  0.65000000000E+04  0.10000000000E+01 0.  0.
    9000001   -1    0    0    0    0 -0.00000000000E+00 -0.00000000000E+00 -0.64999999231E+04  0.65000000000E+04  0.10000000000E+01 0.  0.
    9000001    1    1    2    0    0 -0.36541428539E+04 -0.50126518912E+04  0.19417929911E+04  0.65000000000E+04  0.10000000000E+01 0.  0.
    9000001    1    1    2    0    0  0.36541428539E+04  0.50126518912E+04 -0.19417929911E+04  0.65000000000E+04  0.10000000000E+01 0.  0.
</event>
<event>
 4    1  0.2193160E-006  0.1300000E+05  0.7957747E-01  0.1322471E+00
    9000001   -1    0    0    0    0  0.00000000000E+00  0.00000000000E+00  0.64999999231E+04  0.65000000000E+04  0.10000000000E+01 0.  0.
    9000001   -1    0    0    0    0 -0.00000000000E+00 -0.00000000000E+00 -0.64999999231E+04  0.65000000000E+04  0.10000000000E+01 0.  0.
    9000001    1    1    2    0    0 -0.60028692318E+03  0.44794941376E+04 -0.46715936126E+04  0.65000000000E+04  0.10000000000E+01 0.  0.
    9000001    1    1    2    0    0  0.60028692318E+03 -0.44794941376E+04  0.46715936126E+04  0.65000000000E+04  0.10000000000E+01 0.  0.
</event>
<event>
 4    1  0.2193160E-006  0.1300000E+05  0.7957747E-01  0.1322471E+00
    9000001   -1    0    0    0    0  0.00000000000E+00  0.00000000000E+00  0.64999999231E+04  0.65000000000E+04  0.10000000000E+01 0.  0.
    9000001   -1    0    0    0    0 -0.00000000000E+00 -0.00000000000E+00 -0.64999999231E+04  0.65000000000E+04  0.10000000000E+01 0.  0.
    9000001    1    1    2    0    0 -0.19142531884E+04 -0.39756846191E+04  0.47727943115E+04  0.65000000000E+04  0.10000000000E+01 0.  0.
    9000001    1    1    2    0    0  0.19142531884E+04  0.39756846191E+04 -0.47727943115E+04  0.65000000000E+04  0.10000000000E+01 0.  0.
</event>
<event>
 4    1  0.2193160E-006  0.1300000E+05  0.7957747E-01  0.1322471E+00
    9000001   -1    0    0    0    0  0.00000000000E+00  0.00000000000E+00  0.64999999231E+04  0.65000000000E+04  0.10000000000E+01 0.  0.
    9000001   -1    0    0    0    0 -0.00000000000E+00 -0.00000000000E+00 -0.64999999231E+04  0.65000000000E+04  0.10000000000E+01 0.  0.
    9000001    1    1    2    0    0  0.42495792897E+04  0.49184414524E+04  0.29224082419E+01  0.65000000000E+04  0.10000000000E+01 0.  0.
    9000001    1    1    2    0    0 -0.42495792897E+04 -0.49184414524E+04 -0.29224082419E+01  0.65000000000E+04  0.10000000000E+01 0.  0.
</event>
<event>
 4    1  0.2193160E-006  0.1300000E+05  0.7957747E-01  0.1322471E+00
    9000001   -1    0    0    0    0  0.00000000000E+00  0.00000000000E+00  0.64999999231E+04  0.65000000000E+04  0.10000000000E+01 0.  0.
    9000001   -1    0    0    0    0 -0.00000000000E+00 -0.00000000000E+00 -0.64999999231E+04  0.65000000000E+04  0.10000000000E+01 0.  0.
    9000001    1    1    2    0    0  0.44601439130E+04 -0.34641747970E+04 -0.32181684622E+04  0.65000000000E+04  0.10000000000E+01 0.  0.
    9000001    1    1    2    0    0 -0.44601439130E+04  0.34641747970E+04  0.32181684622E+04  0.65000000000E+04  0.10000000000E+01 0.  0.
</event>
<event>
 4    1  0.2193160E-006  0.1300000E+05  0.7957747E-01  0.1322471E+00
    9000001   -1    0    0    0    0  0.00000000000E+00  0.00000000000E+00  0.64999999231E+04  0.65000000000E+04  0.10000000000E+01 0.  0.
    9000001   -1    0    0    0    0 -0.00000000000E+00 -0.00000000000E+00 -0.64999999231E+04  0.65000000000E+04  0.10000000000E+01 0.  0.
    9000001    1    1    2    0    0 -0.12626611415E+04 -0.57956816916E+04  0.26581496518E+04  0.65000000000E+04  0.10000000000E+01 0.  0.
    9000001    1    1    2    0    0  0.12626611415E+04  0.57956816916E+04 -0.26581496518E+04  0.65000000000E+04  0.10000000000E+01 0.  0.
</event>
<event>
 4    1  0.2193160E-006  0.1300000E+05  0.7957747E-01  0.1322471E+00
    9000001   -1    0    0    0    0  0.00000000000E+00  0.00000000000E+00  0.64999999231E+04  0.65000000000E+04  0.10000000000E+01 0.  0.
    9000001   -1    0    0    0    0 -0.00000000000E+00 -0.00000000000E+00 -0.64999999231E+04  0.65000000000E+04  0.10000000000E+01 0.  0.
    9000001    1    1    2    0    0  0.37947332269E+04  0.43357012241E+04 -0.30086032693E+04  0.65000000000E+04  0.10000000000E+01 0.  0.
    9000001    1    1    2    0    0 -0.37947332269E+04 -0.43357012241E+04  0.30086032693E+04  0.65000000000E+04  0.10000000000E+01 0.  0.
</event>
<event>
 4    1  0.2193160E-006  0.1300000E+05  0.7957747E-01  0.1322471E+00
    9000001   -1    0    0    0    0  0.00000000000E+00  0.00000000000E+00  0.64999999231E+04  0.65000000000E+04  0.10000000000E+01 0.  0.
    9000001   -1    0    0    0    0 -0.00000000000E+00 -0.00000000000E+00 -0.64999999231E+04  0.65000000000E+04  0.10000000000E+01 0.  0.
    9000001    1    1    2    0    0 -0.29978939008E+03 -0.40201741798E+04  0.50988552525E+04  0.65000000000E+04  0.10000000000E+01 0.  0.
    9000001    1    1    2    0    0  0.29978939008E+03  0.40201741798E+04 -0.50988552525E+04  0.65000000000E+04  0.10000000000E+01 0.  0.
</event>
<event>
 4    1  0.2193160E-006  0.1300000E+05  0.7957747E-01  0.1322471E+00
    9000001   -1    0    0    0    0  0.00000000000E+00  0.00000000000E+00  0.64999999231E+04  0.65000000000E+04  0.10000000000E+01 0.  0.
    9000001   -1    0    0    0    0 -0.00000000000E+00 -0.00000000000E+00 -0.64999999231E+04  0.65000000000E+04  0.10000000000E+01 0.  0.
    9000001    1    1    2    0    0  0.22542580389E+04 -0.77292090440E+03 -0.60473889382E+04  0.65000000000E+04  0.10000000000E+01 0.  0.
    9000001    1    1    2    0    0 -0.22542580389E+04  0.77292090440E+03  0.60473889382E+04  0.65000000000E+04  0.10000000000E+01 0.  0.
</event>
<event>
 4    1  0.2193160E-006  0.1300000E+05  0.7957747E-01  0.1322471E+00
    9000001   -1    0    0    0    0  0.00000000000E+00  0.00000000000E+00  0.64999999231E+04  0.65000000000E+04  0.10000000000E+01 0.  0.
    9000001   -1    0    0    0    0 -0.00000000000E+00 -0.00000000000E+00 -0.64999999231E+04  0.65000000000E+04  0.10000000000E+01 0.  0.
    9000001    1    1    2    0    0 -0.10118247198E+04  0.59675153824E+04  0.23695927703E+04  0.65000000000E+04  0.10000000000E+01 0.  0.
    9000001    1    1    2    0    0  0.10118247198E+04 -0.59675153824E+04 -0.23695927703E+04  0.65000000000E+04  0.10000000000E+01 0.  0.
</event>
<event>
 4    1  0.2193160E-006  0.1300000E+05  0.7957747E-01  0.1322471E+00
    9000001   -1    0    0    0    0  0.00000000000E+00  0.00000000000E+00  0.64999999231E+04  0.65000000000E+04  0.10000000000E+01 0.  0.
    9000001   -1    0    0    0    0 -0.00000000000E+00 -0.00000000000E+00 -0.64999999231E+04  0.65000000000E+04  0.10000000000E+01 0.  0.
    9000001    1    1    2    0    0  0.43959460167E+04 -0.43576387672E+04 -0.19840972741E+04  0.65000000000E+04  0.10000000000E+01 0.  0.
    9000001    1    1    2    0    0 -0.43959460167E+04  0.43576387672E+04  0.19840972741E+04  0.65000000000E+04  0.10000000000E+01 0.  0.
</event>
<event>
 4    1  0.2193160E-006  0.1300000E+05  0.7957747E-01  0.1322471E+00
    9000001   -1    0    0    0    0  0.00000000000E+00  0.00000000000E+00  0.64999999231E+04  0.65000000000E+04  0.10000000000E+01 0.  0.
    9000001   -1    0    0    0    0 -0.00000000000E+00 -0.00000000000E+00 -0.64999999231E+04  0.65000000000E+04  0.10000000000E+01 0.  0.
    9000001    1    1    2    0    0  0.44013992834E+04 -0.47228359058E+04 -0.75664017520E+03  0.65000000000E+04  0.10000000000E+01 0.  0.
    9000001    1    1    2    0    0 -0.44013992834E+04  0.47228359058E+04  0.75664017520E+03  0.65000000000E+04  0.10000000000E+01 0.  0.
</event>
<event>
 4    1  0.2193160E-006  0.1300000E+05  0.7957747E-01  0.1322471E+00
    9000001   -1    0    0    0    0  0.00000000000E+00  0.00000000000E+00  0.64999999231E+04  0.65000000000E+04  0.10000000000E+01 0.  0.
    9000001   -1    0    0    0    0 -0.00000000000E+00 -0.00000000000E+00 -0.64999999231E+04  0.65000000000E+04  0.10000000000E+01 0.  0.
    9000001    1    1    2    0    0 -0.39337677710E+04 -0.68214630969E+03  0.51293417254E+04  0.65000000000E+04  0.10000000000E+01 0.  0.
    9000001    1    1    2    0    0  0.39337677710E+04  0.68214630969E+03 -0.51293417254E+04  0.65000000000E+04  0.10000000000E+01 0.  0.
</event>
<event>
 4    1  0.2193160E-006  0.1300000E+05  0.7957747E-01  0.1322471E+00
    9000001   -1    0    0    0    0  0.00000000000E+00  0.00000000000E+00  0.64999999231E+04  0.65000000000E+04  0.10000000000E+01 0.  0.
    9000001   -1    0    0    0    0 -0.00000000000E+00 -0.00000000000E+00 -0.64999999231E+04  0.65000000000E+04  0.10000000000E+01 0.  0.
    9000001    1    1    2    0    0 -0.24549588018E+03  0.54153965079E+04  0.35865319509E+04  0.65000000000E+04  0.10000000000E+01 0.  0.
    9000001    1    1    2    0    0  0.24549588018E+03 -0.54153965079E+04 -0.35865319509E+04  0.65000000000E+04  0.10000000000E+01 0.  0.
</event>
<event>
 4    1  0.2193160E-006  0.1300000E+05  0.7957747E-01  0.1322471E+00
    9000001   -1    0    0    0    0  0.00000000000E+00  0.00000000000E+00  0.64999999231E+04  0.65000000000E+04  0.10000000000E+01 0.  0.
    9000001   -1    0    0    0    0 -0.00000000000E+00 -0.00000000000E+00 -0.64999999231E+04  0.65000000000E+04  0.10000000000E+01 0.  0.
    9000001    1    1    2    0    0  0.25492154152E+04 -0.46980652776E+04 -0.36986054688E+04  0.65000000000E+04  0.10000000000E+01 0.  0.
    9000001    1    1    2    0    0 -0.25492154152E+04  0.46980652776E+04  0.36986054688E+04  0.65000000000E+04  0.10000000000E+01 0.  0.
</event>
<event>
 4    1  0.2193160E-006  0.1300000E+05  0.7957747E-01  0.1322471E+00
    9000001   -1    0    0    0    0  0.00000000000E+00  0.00000000000E+00  0.64999999231E+04  0.65000000000E+04  0.10000000000E+01 0.  0.
    9000001   -1    0    0    0    0 -0.00000000000E+00 -0.00000000000E+00 -0.64999999231E+04  0.65000000000E+04  0.10000000000E+01 0.  0.
    9000001    1    1    2    0    0  0.71452535431E+02  0.22784126741E+04 -0.60871774429E+04  0.65000000000E+04  0.10000000000E+01 0.  0.
    9000001    1    1    2    0    0 -0.71452535431E+02 -0.22784126741E+04  0.60871774429E+04  0.65000000000E+04  0.10000000000E+01 0.  0.
</event>
<event>
 4    1  0.2193160E-006  0.1300000E+05  0.7957747E-01  0.1322471E+00
    9000001   -1    0    0    0    0  0.00000000000E+00  0.00000000000E+00  0.64999999231E+04  0.65000000000E+04  0.10000000000E+01 0.  0.
    9000001   -1    0    0    0    0 -0.00000000000E+00 -0.00000000000E+00 -0.64999999231E+04  0.65000000000E+04  0.10000000000E+01 0.  0.
    9000001    1    1    2    0    0 -0.29424093533E+03 -0.16103986140E+04 -0.62904719677E+04  0.65000000000E+04  0.10000000000E+01 0.  0.
    9000001    1    1    2    0    0  0.29424093533E+03  0.16103986140E+04  0.62904719677E+04  0.65000000000E+04  0.10000000000E+01 0.  0.
</event>
<event>
 4    1  0.2193160E-006  0.1300000E+05  0.7957747E-01  0.1322471E+00
    9000001   -1    0    0    0    0  0.00000000000E+00  0.00000000000E+00  0.64999999231E+04  0.65000000000E+04  0.10000000000E+01 0.  0.
    9000001   -1    0    0    0    0 -0.00000000000E+00 -0.00000000000E+00 -0.64999999231E+04  0.65000000000E+04  0.10000000000E+01 0.  0.
    9000001    1    1    2    0    0 -0.33994013526E+04 -0.51944106602E+04  0.19266985589E+04  0.65000000000E+04  0.10000000000E+01 0.  0.
    9000001    1    1    2    0    0  0.33994013526E+04  0.51944106602E+04 -0.19266985589E+04  0.65000000000E+04  0.10000000000E+01 0.  0.
</event>
<event>
 4    1  0.2193160E-006  0.1300000E+05  0.7957747E-01  0.1322471E+00
    9000001   -1    0    0    0    0  0.00000000000E+00  0.00000000000E+00  0.64999999231E+04  0.65000000000E+04  0.10000000000E+01 0.  0.
    9000001   -1    0    0    0    0 -0.00000000000E+00 -0.00000000000E+00 -0.64999999231E+04  0.65000000000E+04  0.10000000000E+01 0.  0.
    9000001    1    1    2    0    0  0.12812942753E+03  0.29999251597E+04 -0.57648964332E+04  0.65000000000E+04  0.10000000000E+01 0.  0.
    9000001    1    1    2    0    0 -0.12812942753E+03 -0.29999251597E+04  0.57648964332E+04  0.65000000000E+04  0.10000000000E+01 0.  0.
</event>
<event>
 4    1  0.2193160E-006  0.1300000E+05  0.7957747E-01  0.1322471E+00
    9000001   -1    0    0    0    0  0.00000000000E+00  0.00000000000E+00  0.64999999231E+04  0.65000000000E+04  0.10000000000E+01 0.  0.
    9000001   -1    0    0    0    0 -0.00000000000E+00 -0.00000000000E+00 -0.64999999231E+04  0.65000000000E+04  0.10000000000E+01 0.  0.
    9000001    1    1    2    0    0 -0.60561319548E+04  0.55170166069E+03  0.22954062872E+04  0.65000000000E+04  0.10000000000E+01 0.  0.
    9000001    1    1    2    0    0  0.60561319548E+04 -0.55170166069E+03 -0.22954062872E+04  0.65000000000E+04  0.10000000000E+01 0.  0.
</event>
<event>
 4    1  0.2193160E-006  0.1300000E+05  0.7957747E-01  0.1322471E+00
    9000001   -1    0    0    0    0  0.00000000000E+00  0.00000000000E+00  0.64999999231E+04  0.65000000000E+04  0.10000000000E+01 0.  0.
    9000001   -1    0    0    0    0 -0.00000000000E+00 -0.00000000000E+00 -0.64999999231E+04  0.65000000000E+04  0.10000000000E+01 0.  0.
    9000001    1    1    2    0    0 -0.10634688792E+04 -0.56748955310E+04 -0.29857316784E+04  0.65000000000E+04  0.10000000000E+01 0.  0.
    9000001    1    1    2    0    0  0.10634688792E+04  0.56748955310E+04  0.29857316784E+04  0.65000000000E+04  0.10000000000E+01 0.  0.
</event>
<event>
 4    1  0.2193160E-006  0.1300000E+05  0.7957747E-01  0.1322471E+00
    9000001   -1    0    0    0    0  0.00000000000E+00  0.00000000000E+00  0.64999999231E+04  0.65000000000E+04  0.10000000000E+01 0.  0.
    9000001   -1    0    0    0    0 -0.00000000000E+00 -0.00000000000E+00 -0.64999999231E+04  0.65000000000E+04  0.10000000000E+01 0.  0.
    9000001    1    1    2    0    0  0.16159170264E+03 -0.89599920837E+03 -0.64359204890E+04  0.65000000000E+04  0.10000000000E+01 0.  0.
    9000001    1    1    2    0    0 -0.16159170264E+03  0.89599920837E+03  0.64359204890E+04  0.65000000000E+04  0.10000000000E+01 0.  0.
</event>
<event>
 4    1  0.2193160E-006  0.1300000E+05  0.7957747E-01  0.1322471E+00
    9000001   -1    0    0    0    0  0.00000000000E+00  0.00000000000E+00  0.64999999231E+04  0.65000000000E+04  0.10000000000E+01 0.  0.
    9000001   -1    0    0    0    0 -0.00000000000E+00 -0.00000000000E+00 -0.64999999231E+04  0.65000000000E+04  0.10000000000E+01 0.  0.
    9000001    1    1    2    0    0  0.31797441316E+04 -0.53481339732E+04 -0.18806087478E+04  0.65000000000E+04  0.10000000000E+01 0.  0.
    9000001    1    1    2    0    0 -0.31797441316E+04  0.53481339732E+04  0.18806087478E+04  0.65000000000E+04  0.10000000000E+01 0.  0.
</event>
<event>
 4    1  0.2193160E-006  0.1300000E+05  0.7957747E-01  0.1322471E+00
    9000001   -1    0    0    0    0  0.00000000000E+00  0.00000000000E+00  0.64999999231E+04  0.65000000000E+04  0.10000000000E+01 0.  0.
    9000001   -1    0    0    0    0 -0.00000000000E+00 -0.00000000000E+00 -0.64999999231E+04  0.65000000000E+04  0.10000000000E+01 0.  0.
    9000001    1    1    2    0    0  0.11325463172E+04  0.29569384833E+04 -0.56766057328E+04  0.65000000000E+04  0.10000000000E+01 0.  0.
    9000001    1    1    2    0    0 -0.11325463172E+04 -0.29569384833E+04  0.56766057328E+04  0.65000000000E+04  0.10000000000E+01 0.  0.
</event>
<event>
 4    1  0.2193160E-006  0.1300000E+05  0.7957747E-01  0.1322471E+00
    9000001   -1    0    0    0    0  0.00000000000E+00  0.00000000000E+00  0.64999999231E+04  0.65000000000E+04  0.10000000000E+01 0.  0.
    9000001   -1    0    0    0    0 -0.00000000000E+00 -0.00000000000E+00 -0.64999999231E+04  0.65000000000E+04  0.10000000000E+01 0.  0.
    9000001    1    1    2    0    0  0.25305133853E+04  0.10837206045E+04  0.58882977726E+04  0.65000000000E+04  0.10000000000E+01 0.  0.
    9000001    1    1    2    0    0 -0.25305133853E+04 -0.10837206045E+04 -0.58882977726E+04  0.65000000000E+04  0.10000000000E+01 0.  0.
</event>
<event>
 4    1  0.2193160E-006  0.1300000E+05  0.7957747E-01  0.1322471E+00
    9000001   -1    0    0    0    0  0.00000000000E+00  0.00000000000E+00  0.64999999231E+04  0.65000000000E+04  0.10000000000E+01 0.  0.
    9000001   -1    0    0    0    0 -0.00000000000E+00 -0.00000000000E+00 -0.64999999231E+04  0.65000000000E+04  0.10000000000E+01 0.  0.
    9000001    1    1    2    0    0  0.23454973010E+04 -0.56969199024E+04  0.20721353807E+04  0.65000000000E+04  0.10000000000E+01 0.  0.
    9000001    1    1    2    0    0 -0.23454973010E+04  0.56969199024E+04 -0.20721353807E+04  0.65000000000E+04  0.10000000000E+01 0.  0.
</event>
<event>
 4    1  0.2193160E-006  0.1300000E+05  0.7957747E-01  0.1322471E+00
    9000001   -1    0    0    0    0  0.00000000000E+00  0.00000000000E+00  0.64999999231E+04  0.65000000000E+04  0.10000000000E+01 0.  0.
    9000001   -1    0    0    0    0 -0.00000000000E+00 -0.00000000000E+00 -0.64999999231E+04  0.65000000000E+04  0.10000000000E+01 0.  0.
    9000001    1    1    2    0    0  0.30178530629E+04 -0.51016299586E+04 -0.26675707407E+04  0.65000000000E+04  0.10000000000E+01 0.  0.
    9000001    1    1    2    0    0 -0.30178530629E+04  0.51016299586E+04  0.26675707407E+04  0.65000000000E+04  0.10000000000E+01 0.  0.
</event>
<event>
 4    1  0.2193160E-006  0.1300000E+05  0.7957747E-01  0.1322471E+00
    9000001   -1    0    0    0    0  0.00000000000E+00  0.00000000000E+00  0.64999999231E+04  0.65000000000E+04  0.10000000000E+01 0.  0.
    9000001   -1    0    0    0    0 -0.00000000000E+00 -0.00000000000E+00 -0.64999999231E+04  0.65000000000E+04  0.10000000000E+01 0.  0.
    9000001    1    1    2    0    0  0.46611426177E+04 -0.78071360192E+03 -0.44625368087E+04  0.65000000000E+04  0.10000000000E+01 0.  0.
    9000001    1    1    2    0    0 -0.46611426177E+04  0.78071360192E+03  0.44625368087E+04  0.65000000000E+04  0.10000000000E+01 0.  0.
</event>
<event>
 4    1  0.2193160E-006  0.1300000E+05  0.7957747E-01  0.1322471E+00
    9000001   -1    0    0    0    0  0.00000000000E+00  0.00000000000E+00  0.64999999231E+04  0.65000000000E+04  0.10000000000E+01 0.  0.
    9000001   -1    0    0    0    0 -0.00000000000E+00 -0.00000000000E+00 -0.64999999231E+04  0.65000000000E+04  0.10000000000E+01 0.  0.
    9000001    1    1    2    0    0 -0.41380317422E+04 -0.46727589780E+04  0.18143913123E+04  0.65000000000E+04  0.10000000000E+01 0.  0.
    9000001    1    1    2    0    0  0.41380317422E+04  0.46727589780E+04 -0.18143913123E+04  0.65000000000E+04  0.10000000000E+01 0.  0.
</event>
<event>
 4    1  0.2193160E-006  0.1300000E+05  0.7957747E-01  0.1322471E+00
    9000001   -1    0    0    0    0  0.00000000000E+00  0.00000000000E+00  0.64999999231E+04  0.65000000000E+04  0.10000000000E+01 0.  0.
    9000001   -1    0    0    0    0 -0.00000000000E+00 -0.00000000000E+00 -0.64999999231E+04  0.65000000000E+04  0.10000000000E+01 0.  0.
    9000001    1    1    2    0    0  0.11893601956E+04 -0.63724666944E+04 -0.47653914184E+03  0.65000000000E+04  0.10000000000E+01 0.  0.
    9000001    1    1    2    0    0 -0.11893601956E+04  0.63724666944E+04  0.47653914184E+03  0.65000000000E+04  0.10000000000E+01 0.  0.
</event>
<event>
 4    1  0.2193160E-006  0.1300000E+05  0.7957747E-01  0.1322471E+00
    9000001   -1    0    0    0    0  0.00000000000E+00  0.00000000000E+00  0.64999999231E+04  0.65000000000E+04  0.10000000000E+01 0.  0.
    9000001   -1    0    0    0    0 -0.00000000000E+00 -0.00000000000E+00 -0.64999999231E+04  0.65000000000E+04  0.10000000000E+01 0.  0.
    9000001    1    1    2    0    0  0.26747435358E+04  0.58083920898E+04 -0.11654730153E+04  0.65000000000E+04  0.10000000000E+01 0.  0.
    9000001    1    1    2    0    0 -0.26747435358E+04 -0.58083920898E+04  0.11654730153E+04  0.65000000000E+04  0.10000000000E+01 0.  0.
</event>
<event>
 4    1  0.2193160E-006  0.1300000E+05  0.7957747E-01  0.1322471E+00
    9000001   -1    0    0    0    0  0.00000000000E+00  0.00000000000E+00  0.64999999231E+04  0.65000000000E+04  0.10000000000E+01 0.  0.
    9000001   -1    0    0    0    0 -0.00000000000E+00 -0.00000000000E+00 -0.64999999231E+04  0.65000000000E+04  0.10000000000E+01 0.  0.
    9000001    1    1    2    0    0 -0.10739226050E+04  0.20221068815E+04  0.60834014332E+04  0.65000000000E+04  0.10000000000E+01 0.  0.
    9000001    1    1    2    0    0  0.10739226050E+04 -0.20221068815E+04 -0.60834014332E+04  0.65000000000E+04  0.10000000000E+01 0.  0.
</event>
<event>
 4    1  0.2193160E-006  0.1300000E+05  0.7957747E-01  0.1322471E+00
    9000001   -1    0    0    0    0  0.00000000000E+00  0.00000000000E+00  0.64999999231E+04  0.65000000000E+04  0.10000000000E+01 0.  0.
    9000001   -1    0    0    0    0 -0.00000000000E+00 -0.00000000000E+00 -0.64999999231E+04  0.65000000000E+04  0.10000000000E+01 0.  0.
    9000001    1    1    2    0    0 -0.44578062031E+04  0.22973383608E+04  0.41352387248E+04  0.65000000000E+04  0.10000000000E+01 0.  0.
    9000001    1    1    2    0    0  0.44578062031E+04 -0.22973383608E+04 -0.41352387248E+04  0.65000000000E+04  0.10000000000E+01 0.  0.
</event>
<event>
 4    1  0.2193160E-006  0.1300000E+05  0.7957747E-01  0.1322471E+00
    9000001   -1    0    0    0    0  0.00000000000E+00  0.00000000000E+00  0.64999999231E+04  0.65000000000E+04  0.10000000000E+01 0.  0.
    9000001   -1    0    0    0    0 -0.00000000000E+00 -0.00000000000E+00 -0.64999999231E+04  0.65000000000E+04  0.10000000000E+01 0.  0.
    9000001    1    1    2    0    0 -0.52875648651E+00 -0.40286833864E+04  0.51009517634E+04  0.65000000000E+04  0.10000000000E+01 0.  0.
    9000001    1    1    2    0    0  0.52875648651E+00  0.40286833864E+04 -0.51009517634E+04  0.65000000000E+04  0.10000000000E+01 0.  0.
</event>
<event>
 4    1  0.2193160E-006  0.1300000E+05  0.7957747E-01  0.1322471E+00
    9000001   -1    0    0    0    0  0.00000000000E+00  0.00000000000E+00  0.64999999231E+04  0.65000000000E+04  0.10000000000E+01 0.  0.
    9000001   -1    0    0    0    0 -0.00000000000E+00 -0.00000000000E+00 -0.64999999231E+04  0.65000000000E+04  0.10000000000E+01 0.  0.
    9000001    1    1    2    0    0 -0.33117546708E+04  0.15461310392E+04 -0.53751054696E+04  0.65000000000E+04  0.10000000000E+01 0.  0.
    9000001    1    1    2    0    0  0.33117546708E+04 -0.15461310392E+04  0.53751054696E+04  0.65000000000E+04  0.10000000000E+01 0.  0.
</event>
<event>
 4    1  0.2193160E-006  0.1300000E+05  0.7957747E-01  0.1322471E+00
    9000001   -1    0    0    0    0  0.00000000000E+00  0.00000000000E+00  0.64999999231E+04  0.65000000000E+04  0.10000000000E+01 0.  0.
    9000001   -1    0    0    0    0 -0.00000000000E+00 -0.00000000000E+00 -0.64999999231E+04  0.65000000000E+04  0.10000000000E+01 0.  0.
    9000001    1    1    2    0    0 -0.57729388869E+04 -0.29608893999E+04 -0.39536005134E+03  0.65000000000E+04  0.10000000000E+01 0.  0.
    9000001    1    1    2    0    0  0.57729388869E+04  0.29608893999E+04  0.39536005134E+03  0.65000000000E+04  0.10000000000E+01 0.  0.
</event>
<event>
 4    1  0.2193160E-006  0.1300000E+05  0.7957747E-01  0.1322471E+00
    9000001   -1    0    0    0    0  0.00000000000E+00  0.00000000000E+00  0.64999999231E+04  0.65000000000E+04  0.10000000000E+01 0.  0.
    9000001   -1    0    0    0    0 -0.00000000000E+00 -0.00000000000E+00 -0.64999999231E+04  0.65000000000E+04  0.10000000000E+01 0.  0.
    9000001    1    1    2    0    0 -0.60129291854E+03 -0.40048077027E+04  0.50842857011E+04  0.65000000000E+04  0.10000000000E+01 0.  0.
    9000001    1    1    2    0    0  0.60129291854E+03  0.40048077027E+04 -0.50842857011E+04  0.65000000000E+04  0.10000000000E+01 0.  0.
</event>
<event>
 4    1  0.2193160E-006  0.1300000E+05  0.7957747E-01  0.1322471E+00
    9000001   -1    0    0    0    0  0.00000000000E+00  0.00000000000E+00  0.64999999231E+04  0.65000000000E+04  0.10000000000E+01 0.  0.
    9000001   -1    0    0    0    0 -0.00000000000E+00 -0.00000000000E+00 -0.64999999231E+04  0.65000000000E+04  0.10000000000E+01 0.  0.
    9000001    1    1    2    0    0  0.52082997611E+04  0.33841519255E+04 -0.19160188786E+04  0.65000000000E+04  0.10000000000E+01 0.  0.
    9000001    1    1    2    0    0 -0.52082997611E+04 -0.33841519255E+04  0.19160188786E+04  0.65000000000E+04  0.10000000000E+01 0.  0.
</event>
<event>
 4    1  0.2193160E-006  0.1300000E+05  0.7957747E-01  0.1322471E+00
    9000001   -1    0    0    0    0  0.00000000000E+00  0.00000000000E+00  0.64999999231E+04  0.65000000000E+04  0.10000000000E+01 0.  0.
    9000001   -1    0    0    0    0 -0.00000000000E+00 -0.00000000000E+00 -0.64999999231E+04  0.65000000000E+04  0.10000000000E+01 0.  0.
    9000001    1    1    2    0    0  0.26957578729E+04  0.58619246922E+04  0.78786254746E+03  0.65000000000E+04  0.10000000000E+01 0.  0.
    9000001    1    1    2    0    0 -0.26957578729E+04 -0.58619246922E+04 -0.78786254746E+03  0.65000000000E+04  0.10000000000E+01 0.  0.
</event>
<event>
 4    1  0.2193160E-006  0.1300000E+05  0.7957747E-01  0.1322471E+00
    9000001   -1    0    0    0    0  0.00000000000E+00  0.00000000000E+00  0.64999999231E+04  0.65000000000E+04  0.10000000000E+01 0.  0.
    9000001   -1    0    0    0    0 -0.00000000000E+00 -0.00000000000E+00 -0.64999999231E+04  0.65000000000E+04  0.10000000000E+01 0.  0.
    9000001    1    1    2    0    0  0.29681365869E+04  0.21943603801E+04 -0.53502286609E+04  0.65000000000E+04  0.10000000000E+01 0.  0.
    9000001    1    1    2    0    0 -0.29681365869E+04 -0.21943603801E+04  0.53502286609E+04  0.65000000000E+04  0.10000000000E+01 0.  0.
</event>
<event>
 4    1  0.2193160E-006  0.1300000E+05  0.7957747E-01  0.1322471E+00
    9000001   -1    0    0    0    0  0.00000000000E+00  0.00000000000E+00  0.64999999231E+04  0.65000000000E+04  0.10000000000E+01 0.  0.
    9000001   -1    0    0    0    0 -0.00000000000E+00 -0.00000000000E+00 -0.64999999231E+04  0.65000000000E+04  0.10000000000E+01 0.  0.
    9000001    1    1    2    0    0 -0.48126321325E+04 -0.41399020245E+04  0.13963460118E+04  0.65000000000E+04  0.10000000000E+01 0.  0.
    9000001    1    1    2    0    0  0.48126321325E+04  0.41399020245E+04 -0.13963460118E+04  0.65000000000E+04  0.10000000000E+01 0.  0.
</event>
<event>
 4    1  0.2193160E-006  0.1300000E+05  0.7957747E-01  0.1322471E+00
    9000001   -1    0    0    0    0  0.00000000000E+00  0.00000000000E+00  0.64999999231E+04  0.65000000000E+04  0.10000000000E+01 0.  0.
    9000001   -1    0    0    0    0 -0.00000000000E+00 -0.00000000000E+00 -0.64999999231E+04  0.65000000000E+04  0.10000000000E+01 0.  0.
    9000001    1    1    2    0    0  0.61151925988E+04  0.21579901223E+04  0.44440647075E+03  0.65000000000E+04  0.10000000000E+01 0.  0.
    9000001    1    1    2    0    0 -0.61151925988E+04 -0.21579901223E+04 -0.44440647075E+03  0.65000000000E+04  0.10000000000E+01 0.  0.
</event>
<event>
 4    1  0.2193160E-006  0.1300000E+05  0.7957747E-01  0.1322471E+00
    9000001   -1    0    0    0    0  0.00000000000E+00  0.00000000000E+00  0.64999999231E+04  0.65000000000E+04  0.10000000000E+01 0.  0.
    9000001   -1    0    0    0    0 -0.00000000000E+00 -0.00000000000E+00 -0.64999999231E+04  0.65000000000E+04  0.10000000000E+01 0.  0.
    9000001    1    1    2    0    0  0.36674694767E+04  0.46235999905E+04 -0.27243329029E+04  0.65000000000E+04  0.10000000000E+01 0.  0.
    9000001    1    1    2    0    0 -0.36674694767E+04 -0.46235999905E+04  0.27243329029E+04  0.65000000000E+04  0.10000000000E+01 0.  0.
</event>
<event>
 4    1  0.2193160E-006  0.1300000E+05  0.7957747E-01  0.1322471E+00
    9000001   -1    0    0    0    0  0.00000000000E+00  0.00000000000E+00  0.64999999231E+04  0.65000000000E+04  0.10000000000E+01 0.  0.
    9000001   -1    0    0    0    0 -0.00000000000E+00 -0.00000000000E+00 -0.64999999231E+04  0.65000000000E+04  0.10000000000E+01 0.  0.
    9000001    1    1    2    0    0 -0.53529343596E+04 -0.27229203866E+04 -0.24863220446E+04  0.65000000000E+04  0.10000000000E+01 0.  0.
    9000001    1    1    2    0    0  0.53529343596E+04  0.27229203866E+04  0.24863220446E+04  0.65000000000E+04  0.10000000000E+01 0.  0.
</event>
<event>
 4    1  0.2193160E-006  0.1300000E+05  0.7957747E-01  0.1322471E+00
    9000001   -1    0    0    0    0  0.00000000000E+00  0.00000000000E+00  0.64999999231E+04  0.65000000000E+04  0.10000000000E+01 0.  0.
    9000001   -1    0    0    0    0 -0.00000000000E+00 -0.00000000000E+00 -0.64999999231E+04  0.65000000000E+04  0.10000000000E+01 0.  0.
    9000001    1    1    2    0    0  0.22983311730E+04 -0.43182966183E+04  0.42801854090E+04  0.65000000000E+04  0.10000000000E+01 0.  0.
    9000001    1    1    2    0    0 -0.22983311730E+04  0.43182966183E+04 -0.42801854090E+04  0.65000000000E+04  0.10000000000E+01 0.  0.
</event>
<event>
 4    1  0.2193160E-006  0.1300000E+05  0.7957747E-01  0.1322471E+00
    9000001   -1    0    0    0    0  0.00000000000E+00  0.00000000000E+00  0.64999999231E+04  0.65000000000E+04  0.10000000000E+01 0.  0.
    9000001   -1    0    0    0    0 -0.00000000000E+00 -0.00000000000E+00 -0.64999999231E+04  0.65000000000E+04  0.10000000000E+01 0.  0.
    9000001    1    1    2    0    0  0.16682069037E+04 -0.54955087701E+04 -0.30440873975E+04  0.65000000000E+04  0.10000000000E+01 0.  0.
    9000001    1    1    2    0    0 -0.16682069037E+04  0.54955087701E+04  0.30440873975E+04  0.65000000000E+04  0.10000000000E+01 0.  0.
</event>
<event>
 4    1  0.2193160E-006  0.1300000E+05  0.7957747E-01  0.1322471E+00
    9000001   -1    0    0    0    0  0.00000000000E+00  0.00000000000E+00  0.64999999231E+04  0.65000000000E+04  0.10000000000E+01 0.  0.
    9000001   -1    0    0    0    0 -0.00000000000E+00 -0.00000000000E+00 -0.64999999231E+04  0.65000000000E+04  0.10000000000E+01 0.  0.
    9000001    1    1    2    0    0 -0.40822745240E+04 -0.48682676084E+04 -0.13729545526E+04  0.65000000000E+04  0.10000000000E+01 0.  0.
    9000001    1    1    2    0    0  0.40822745240E+04  0.48682676084E+04  0.13729545526E+04  0.65000000000E+04  0.10000000000E+01 0.  0.
</event>
<event>
 4    1  0.2193160E-006  0.1300000E+05  0.7957747E-01  0.1322471E+00
    9000001   -1    0    0    0    0  0.00000000000E+00  0.00000000000E+00  0.64999999231E+04  0.65000000000E+04  0.10000000000E+01 0.  0.
    9000001   -1    0    0    0    0 -0.00000000000E+00 -0.00000000000E+00 -0.64999999231E+04  0.65000000000E+04  0.10000000000E+01 0.  0.
    9000001    1    1    2    0    0 -0.23725394136E+04  0.59893775040E+04 -0.86510857459E+03  0.65000000000E+04  0.10000000000E+01 0.  0.
    9000001    1    1    2    0    0  0.23725394136E+04 -0.59893775040E+04  0.86510857459E+03  0.65000000000E+04  0.10000000000E+01 0.  0.
</event>
<event>
 4    1  0.2193160E-006  0.1300000E+05  0.7957747E-01  0.1322471E+00
    9000001   -1    0    0    0    0  0.00000000000E+00  0.00000000000E+00  0.64999999231E+04  0.65000000000E+04  0.10000000000E+01 0.  0.
    9000001   -1    0    0    0    0 -0.00000000000E+00 -0.00000000000E+00 -0.64999999231E+04  0.65000000000E+04  0.10000000000E+01 0.  0.
    9000001    1    1    2    0    0 -0.13782283901E+04  0.53267251689E+04 -0.34607057778E+04  0.65000000000E+04  0.10000000000E+01 0.  0.
    9000001    1    1    2    0    0  0.13782283901E+04 -0.53267251689E+04  0.34607057778E+04  0.65000000000E+04  0.10000000000E+01 0.  0.
</event>
<event>
 4    1  0.2193160E-006  0.1300000E+05  0.7957747E-01  0.1322471E+00
    9000001   -1    0    0    0    0  0.00000000000E+00  0.00000000000E+00  0.64999999231E+04  0.65000000000E+04  0.10000000000E+01 0.  0.
    9000001   -1    0    0    0    0 -0.00000000000E+00 -0.00000000000E+00 -0.64999999231E+04  0.65000000000E+04  0.10000000000E+01 0.  0.
    9000001    1    1    2    0    0  0.38271101110E+04 -0.50356354672E+04  0.14985334965E+04  0.65000000000E+04  0.10000000000E+01 0.  0.
    9000001    1    1    2    0    0 -0.38271101110E+04  0.50356354672E+04 -0.14985334965E+04  0.65000000000E+04  0.10000000000E+01 0.  0.
</event>
<event>
 4    1  0.2193160E-006  0.1300000E+05  0.7957747E-01  0.1322471E+00
    9000001   -1    0    0    0    0  0.00000000000E+00  0.00000000000E+00  0.64999999231E+04  0.65000000000E+04  0.10000000000E+01 0.  0.
    9000001   -1    0    0    0    0 -0.00000000000E+00 -0.00000000000E+00 -0.64999999231E+04  0.65000000000E+04  0.10000000000E+01 0.  0.
    9000001    1    1    2    0    0 -0.29152419013E+04 -0.39537190786E+04  0.42566969712E+04  0.65000000000E+04  0.10000000000E+01 0.  0.
    9000001    1    1    2    0    0  0.29152419013E+04  0.39537190786E+04 -0.42566969712E+04  0.65000000000E+04  0.10000000000E+01 0.  0.
</event>
<event>
 4    1  0.2193160E-006  0.1300000E+05  0.7957747E-01  0.1322471E+00
    9000001   -1    0    0    0    0  0.00000000000E+00  0.00000000000E+00  0.64999999231E+04  0.65000000000E+04  0.10000000000E+01 0.  0.
    9000001   -1    0    0    0    0 -0.00000000000E+00 -0.00000000000E+00 -0.64999999231E+04  0.65000000000E+04  0.10000000000E+01 0.  0.
    9000001    1    1    2    0    0  0.28007790695E+04  0.19880764706E+03  0.58622616048E+04  0.65000000000E+04  0.10000000000E+01 0.  0.
    9000001    1    1    2    0    0 -0.28007790695E+04 -0.19880764706E+03 -0.58622616048E+04  0.65000000000E+04  0.10000000000E+01 0.  0.
</event>
<event>
 4    1  0.2193160E-006  0.1300000E+05  0.7957747E-01  0.1322471E+00
    9000001   -1    0    0    0    0  0.00000000000E+00  0.00000000000E+00  0.64999999231E+04  0.65000000000E+04  0.10000000000E+01 0.  0.
    9000001   -1    0    0    0    0 -0.00000000000E+00 -0.00000000000E+00 -0.64999999231E+04  0.65000000000E+04  0.10000000000E+01 0.  0.
    9000001    1    1    2    0    0 -0.17429972738E+04 -0.53160720710E+04  0.33092804716E+04  0.65000000000E+04  0.10000000000E+01 0.  0.
    9000001    1    1    2    0    0  0.17429972738E+04  0.53160720710E+04 -0.33092804716E+04  0.65000000000E+04  0.10000000000E+01 0.  0.
</event>
<event>
 4    1  0.2193160E-006  0.1300000E+05  0.7957747E-01  0.1322471E+00
    9000001   -1    0    0    0    0  0.00000000000E+00  0.00000000000E+00  0.64999999231E+04  0.65000000000E+04  0.10000000000E+01 0.  0.
    9000001   -1    0    0    0    0 -0.00000000000E+00 -0.00000000000E+00 -0.64999999231E+04  0.65000000000E+04  0.10000000000E+01 0.  0.
    9000001    1    1    2    0    0  0.64228690568E+04 -0.31905951716E+03  0.94601961061E+03  0.65000000000E+04  0.10000000000E+01 0.  0.
    9000001    1    1    2    0    0 -0.64228690568E+04  0.31905951716E+03 -0.94601961061E+03  0.65000000000E+04  0.10000000000E+01 0.  0.
</event>
<event>
 4    1  0.2193160E-006  0.1300000E+05  0.7957747E-01  0.1322471E+00
    9000001   -1    0    0    0    0  0.00000000000E+00  0.00000000000E+00  0.64999999231E+04  0.65000000000E+04  0.10000000000E+01 0.  0.
    9000001   -1    0    0    0    0 -0.00000000000E+00 -0.00000000000E+00 -0.64999999231E+04  0.65000000000E+04  0.10000000000E+01 0.  0.
    9000001    1    1    2    0    0 -0.57457714651E+03  0.50042861899E+04  0.41081601517E+04  0.65000000000E+04  0.10000000000E+01 0.  0.
    9000001    1    1    2    0    0  0.57457714651E+03 -0.50042861899E+04 -0.41081601517E+04  0.65000000000E+04  0.10000000000E+01 0.  0.
</event>
<event>
 4    1  0.2193160E-006  0.1300000E+05  0.7957747E-01  0.1322471E+00
    9000001   -1    0    0    0    0  0.00000000000E+00  0.00000000000E+00  0.64999999231E+04  0.65000000000E+04  0.10000000000E+01 0.  0.
    9000001   -1    0    0    0    0 -0.00000000000E+00 -0.00000000000E+00 -0.64999999231E+04  0.65000000000E+04  0.10000000000E+01 0.  0.
    9000001    1    1    2    0    0  0.52340640713E+04  0.30224048790E+04  0.23915771040E+04  0.65000000000E+04  0.10000000000E+01 0.  0.
    9000001    1    1    2    0    0 -0.52340640713E+04 -0.30224048790E+04 -0.23915771040E+04  0.65000000000E+04  0.10000000000E+01 0.  0.
</event>
<event>
 4    1  0.2193160E-006  0.1300000E+05  0.7957747E-01  0.1322471E+00
    9000001   -1    0    0    0    0  0.00000000000E+00  0.00000000000E+00  0.64999999231E+04  0.65000000000E+04  0.10000000000E+01 0.  0.
    9000001   -1    0    0    0    0 -0.00000000000E+00 -0.00000000000E+00 -0.64999999231E+04  0.65000000000E+04  0.10000000000E+01 0.  0.
    9000001    1    1    2    0    0 -0.37430876360E+04  0.28446590504E+04 -0.44885642288E+04  0.65000000000E+04  0.10000000000E+01 0.  0.
    9000001    1    1    2    0    0  0.37430876360E+04 -0.28446590504E+04  0.44885642288E+04  0.65000000000E+04  0.10000000000E+01 0.  0.
</event>
<event>
 4    1  0.2193160E-006  0.1300000E+05  0.7957747E-01  0.1322471E+00
    9000001   -1    0    0    0    0  0.00000000000E+00  0.00000000000E+00  0.64999999231E+04  0.65000000000E+04  0.10000000000E+01 0.  0.
    9000001   -1    0    0    0    0 -0.00000000000E+00 -0.00000000000E+00 -0.64999999231E+04  0.65000000000E+04  0.10000000000E+01 0.  0.
    9000001    1    1    2    0    0  0.45160661539E+04 -0.43976447224E+04  0.15861482871E+04  0.65000000000E+04  0.10000000000E+01 0.  0.
    9000001    1    1    2    0    0 -0.45160661539E+04  0.43976447224E+04 -0.15861482871E+04  0.65000000000E+04  0.10000000000E+01 0.  0.
</event>
<event>
 4    1  0.2193160E-006  0.1300000E+05  0.7957747E-01  0.1322471E+00
    9000001   -1    0    0    0    0  0.00000000000E+00  0.00000000000E+00  0.64999999231E+04  0.65000000000E+04  0.10000000000E+01 0.  0.
    9000001   -1    0    0    0    0 -0.00000000000E+00 -0.00000000000E+00 -0.64999999231E+04  0.65000000000E+04  0.10000000000E+01 0.  0.
    9000001    1    1    2    0    0 -0.42077019980E+04 -0.42439491843E+04  0.25561960444E+04  0.65000000000E+04  0.10000000000E+01 0.  0.
    9000001    1    1    2    0    0  0.42077019980E+04  0.42439491843E+04 -0.25561960444E+04  0.65000000000E+04  0.10000000000E+01 0.  0.
</event>
<event>
 4    1  0.2193160E-006  0.1300000E+05  0.7957747E-01  0.1322471E+00
    9000001   -1    0    0    0    0  0.00000000000E+00  0.00000000000E+00  0.64999999231E+04  0.65000000000E+04  0.10000000000E+01 0.  0.
    9000001   -1    0    0    0    0 -0.00000000000E+00 -0.00000000000E+00 -0.64999999231E+04  0.65000000000E+04  0.10000000000E+01 0.  0.
    9000001    1    1    2    0    0  0.34106123518E+04 -0.52525022928E+04  0.17403856039E+04  0.65000000000E+04  0.10000000000E+01 0.  0.
    9000001    1    1    2    0    0 -0.34106123518E+04  0.52525022928E+04 -0.17403856039E+04  0.65000000000E+04  0.10000000000E+01 0.  0.
</event>
<event>
 4    1  0.2193160E-006  0.1300000E+05  0.7957747E-01  0.1322471E+00
    9000001   -1    0    0    0    0  0.00000000000E+00  0.00000000000E+00  0.64999999231E+04  0.65000000000E+04  0.10000000000E+01 0.  0.
    9000001   -1    0    0    0    0 -0.00000000000E+00 -0.00000000000E+00 -0.64999999231E+04  0.65000000000E+04  0.10000000000E+01 0.  0.
    9000001    1    1    2    0    0 -0.76072925938E+03  0.64551160856E+04  0.52595775672E+02  0.65000000000E+04  0.10000000000E+01 0.  0.
    9000001    1    1    2    0    0  0.76072925938E+03 -0.64551160856E+04 -0.52595775672E+02  0.65000000000E+04  0.10000000000E+01 0.  0.
</event>
<event>
 4    1  0.2193160E-006  0.1300000E+05  0.7957747E-01  0.1322471E+00
    9000001   -1    0    0    0    0  0.00000000000E+00  0.00000000000E+00  0.64999999231E+04  0.65000000000E+04  0.10000000000E+01 0.  0.
    9000001   -1    0    0    0    0 -0.00000000000E+00 -0.00000000000E+00 -0.64999999231E+04  0.65000000000E+04  0.10000000000E+01 0.  0.
    9000001    1    1    2    0    0  0.47988483656E+04 -0.37374373634E+04 -0.22918584858E+04  0.65000000000E+04  0.10000000000E+01 0.  0.
    9000001    1    1    2    0    0 -0.47988483656E+04  0.37374373634E+04  0.22918584858E+04  0.65000000000E+04  0.10000000000E+01 0.  0.
</event>
<event>
 4    1  0.2193160E-006  0.1300000E+05  0.7957747E-01  0.1322471E+00
    9000001   -1    0    0    0    0  0.00000000000E+00  0.00000000000E+00  0.64999999231E+04  0.65000000000E+04  0.10000000000E+01 0.  0.
    9000001   -1    0    0    0    0 -0.00000000000E+00 -0.00000000000E+00 -0.64999999231E+04  0.65000000000E+04  0.10000000000E+01 0.  0.
    9000001    1    1    2    0    0  0.48041102671E+04 -0.23511634016E+04 -0.36935828406E+04  0.65000000000E+04  0.10000000000E+01 0.  0.
    9000001    1    1    2    0    0 -0.48041102671E+04  0.23511634016E+04  0.36935828406E+04  0.65000000000E+04  0.10000000000E+01 0.  0.
</event>
<event>
 4    1  0.2193160E-006  0.1300000E+05  0.7957747E-01  0.1322471E+00
    9000001   -1    0    0    0    0  0.00000000000E+00  0.00000000000E+00  0.64999999231E+04  0.65000000000E+04  0.10000000000E+01 0.  0.
    9000001   -1    0    0    0    0 -0.00000000000E+00 -0.00000000000E+00 -0.64999999231E+04  0.65000000000E+04  0.10000000000E+01 0.  0.
    9000001    1    1    2    0    0  0.17606383885E+04 -0.48191090084E+04 -0.39907818570E+04  0.65000000000E+04  0.10000000000E+01 0.  0.
    9000001    1    1    2    0    0 -0.17606383885E+04  0.48191090084E+04  0.39907818570E+04  0.65000000000E+04  0.10000000000E+01 0.  0.
</event>
<event>
 4    1  0.2193160E-006  0.1300000E+05  0.7957747E-01  0.1322471E+00
    9000001   -1    0    0    0    0  0.00000000000E+00  0.00000000000E+00  0.64999999231E+04  0.65000000000E+04  0.10000000000E+01 0.  0.
    9000001   -1    0    0    0    0 -0.00000000000E+00 -0.00000000000E+00 -0.64999999231E+04  0.65000000000E+04  0.10000000000E+01 0.  0.
    9000001    1    1    2    0    0 -0.24931015307E+04 -0.38703310750E+04  0.45885707064E+04  0.65000000000E+04  0.10000000000E+01 0.  0.
    9000001    1    1    2    0    0  0.24931015307E+04  0.38703310750E+04 -0.45885707064E+04  0.65000000000E+04  0.10000000000E+01 0.  0.
</event>
<event>
 4    1  0.2193160E-006  0.1300000E+05  0.7957747E-01  0.1322471E+00
    9000001   -1    0    0    0    0  0.00000000000E+00  0.00000000000E+00  0.64999999231E+04  0.65000000000E+04  0.10000000000E+01 0.  0.
    9000001   -1    0    0    0    0 -0.00000000000E+00 -0.00000000000E+00 -0.64999999231E+04  0.65000000000E+04  0.10000000000E+01 0.  0.
    9000001    1    1    2    0    0  0.39733250488E+03 -0.13660000287E+04  0.63424104095E+04  0.65000000000E+04  0.10000000000E+01 0.  0.
    9000001    1    1    2    0    0 -0.39733250488E+03  0.13660000287E+04 -0.63424104095E+04  0.65000000000E+04  0.10000000000E+01 0.  0.
</event>
<event>
 4    1  0.2193160E-006  0.1300000E+05  0.7957747E-01  0.1322471E+00
    9000001   -1    0    0    0    0  0.00000000000E+00  0.00000000000E+00  0.64999999231E+04  0.65000000000E+04  0.10000000000E+01 0.  0.
    9000001   -1    0    0    0    0 -0.00000000000E+00 -0.00000000000E+00 -0.64999999231E+04  0.65000000000E+04  0.10000000000E+01 0.  0.
    9000001    1    1    2    0    0 -0.53535374439E+04 -0.35716391605E+04  0.91270452198E+03  0.65000000000E+04  0.10000000000E+01 0.  0.
    9000001    1    1    2    0    0  0.53535374439E+04  0.35716391605E+04 -0.91270452198E+03  0.65000000000E+04  0.10000000000E+01 0.  0.
</event>
<event>
 4    1  0.2193160E-006  0.1300000E+05  0.7957747E-01  0.1322471E+00
    9000001   -1    0    0    0    0  0.00000000000E+00  0.00000000000E+00  0.64999999231E+04  0.65000000000E+04  0.10000000000E+01 0.  0.
    9000001   -1    0    0    0    0 -0.00000000000E+00 -0.00000000000E+00 -0.64999999231E+04  0.65000000000E+04  0.10000000000E+01 0.  0.
    9000001    1    1    2    0    0 -0.27274990522E+04  0.41323183239E+03  0.58855745151E+04  0.65000000000E+04  0.10000000000E+01 0.  0.
    9000001    1    1    2    0    0  0.27274990522E+04 -0.41323183239E+03 -0.58855745151E+04  0.65000000000E+04  0.10000000000E+01 0.  0.
</event>
<event>
 4    1  0.2193160E-006  0.1300000E+05  0.7957747E-01  0.1322471E+00
    9000001   -1    0    0    0    0  0.00000000000E+00  0.00000000000E+00  0.64999999231E+04  0.65000000000E+04  0.10000000000E+01 0.  0.
    9000001   -1    0    0    0    0 -0.00000000000E+00 -0.00000000000E+00 -0.64999999231E+04  0.65000000000E+04  0.10000000000E+01 0.  0.
    9000001    1    1    2    0    0  0.41978489405E+04 -0.43996003139E+04  0.22959922368E+04  0.65000000000E+04  0.10000000000E+01 0.  0.
    9000001    1    1    2    0    0 -0.41978489405E+04  0.43996003139E+04 -0.22959922368E+04  0.65000000000E+04  0.10000000000E+01 0.  0.
</event>
<event>
 4    1  0.2193160E-006  0.1300000E+05  0.7957747E-01  0.1322471E+00
    9000001   -1    0    0    0    0  0.00000000000E+00  0.00000000000E+00  0.64999999231E+04  0.65000000000E+04  0.10000000000E+01 0.  0.
    9000001   -1    0    0    0    0 -0.00000000000E+00 -0.00000000000E+00 -0.64999999231E+04  0.65000000000E+04  0.10000000000E+01 0.  0.
    9000001    1    1    2    0    0 -0.26021214797E+04 -0.50203713215E+04  0.32054382850E+04  0.65000000000E+04  0.10000000000E+01 0.  0.
    9000001    1    1    2    0    0  0.26021214797E+04  0.50203713215E+04 -0.32054382850E+04  0.65000000000E+04  0.10000000000E+01 0.  0.
</event>
<event>
 4    1  0.2193160E-006  0.1300000E+05  0.7957747E-01  0.1322471E+00
    9000001   -1    0    0    0    0  0.00000000000E+00  0.00000000000E+00  0.64999999231E+04  0.65000000000E+04  0.10000000000E+01 0.  0.
    9000001   -1    0    0    0    0 -0.00000000000E+00 -0.00000000000E+00 -0.64999999231E+04  0.65000000000E+04  0.10000000000E+01 0.  0.
    9000001    1    1    2    0    0  0.45098659545E+04  0.10139088039E+04  0.45698027321E+04  0.65000000000E+04  0.10000000000E+01 0.  0.
    9000001    1    1    2    0    0 -0.45098659545E+04 -0.10139088039E+04 -0.45698027321E+04  0.65000000000E+04  0.10000000000E+01 0.  0.
</event>
<event>
 4    1  0.2193160E-006  0.1300000E+05  0.7957747E-01  0.1322471E+00
    9000001   -1    0    0    0    0  0.00000000000E+00  0.00000000000E+00  0.64999999231E+04  0.65000000000E+04  0.10000000000E+01 0.  0.
    9000001   -1    0    0    0    0 -0.00000000000E+00 -0.00000000000E+00 -0.64999999231E+04  0.65000000000E+04  0.10000000000E+01 0.  0.
    9000001    1    1    2    0    0 -0.55983391213E+04  0.33000818653E+04  0.13437918528E+03  0.65000000000E+04  0.10000000000E+01 0.  0.
    9000001    1    1    2    0    0  0.55983391213E+04 -0.33000818653E+04 -0.13437918528E+03  0.65000000000E+04  0.10000000000E+01 0.  0.
</event>
<event>
 4    1  0.2193160E-006  0.1300000E+05  0.7957747E-01  0.1322471E+00
    9000001   -1    0    0    0    0  0.00000000000E+00  0.00000000000E+00  0.64999999231E+04  0.65000000000E+04  0.10000000000E+01 0.  0.
    9000001   -1    0    0    0    0 -0.00000000000E+00 -0.00000000000E+00 -0.64999999231E+04  0.65000000000E+04  0.10000000000E+01 0.  0.
    9000001    1    1    2    0    0 -0.96572917349E+03  0.95871029087E+03 -0.63559610400E+04  0.65000000000E+04  0.10000000000E+01 0.  0.
    9000001    1    1    2    0    0  0.96572917349E+03 -0.95871029087E+03  0.63559610400E+04  0.65000000000E+04  0.10000000000E+01 0.  0.
</event>
<event>
 4    1  0.2193160E-006  0.1300000E+05  0.7957747E-01  0.1322471E+00
    9000001   -1    0    0    0    0  0.00000000000E+00  0.00000000000E+00  0.64999999231E+04  0.65000000000E+04  0.10000000000E+01 0.  0.
    9000001   -1    0    0    0    0 -0.00000000000E+00 -0.00000000000E+00 -0.64999999231E+04  0.65000000000E+04  0.10000000000E+01 0.  0.
    9000001    1    1    2    0    0 -0.76890025685E+03 -0.38050655031E+04 -0.52134698534E+04  0.65000000000E+04  0.10000000000E+01 0.  0.
    9000001    1    1    2    0    0  0.76890025685E+03  0.38050655031E+04  0.52134698534E+04  0.65000000000E+04  0.10000000000E+01 0.  0.
</event>
<event>
 4    1  0.2193160E-006  0.1300000E+05  0.7957747E-01  0.1322471E+00
    9000001   -1    0    0    0    0  0.00000000000E+00  0.00000000000E+00  0.64999999231E+04  0.65000000000E+04  0.10000000000E+01 0.  0.
    9000001   -1    0    0    0    0 -0.00000000000E+00 -0.00000000000E+00 -0.64999999231E+04  0.65000000000E+04  0.10000000000E+01 0.  0.
    9000001    1    1    2    0    0 -0.56516454680E+04  0.25456111687E+04  0.19567233535E+04  0.65000000000E+04  0.10000000000E+01 0.  0.
    9000001    1    1    2    0    0  0.56516454680E+04 -0.25456111687E+04 -0.19567233535E+04  0.65000000000E+04  0.10000000000E+01 0.  0.
</event>
<event>
 4    1  0.2193160E-006  0.1300000E+05  0.7957747E-01  0.1322471E+00
    9000001   -1    0    0    0    0  0.00000000000E+00  0.00000000000E+00  0.64999999231E+04  0.65000000000E+04  0.10000000000E+01 0.  0.
    9000001   -1    0    0    0    0 -0.00000000000E+00 -0.00000000000E+00 -0.64999999231E+04  0.65000000000E+04  0.10000000000E+01 0.  0.
    9000001    1    1    2    0    0 -0.70725112286E+03 -0.43990000621E+04  0.47327152147E+04  0.65000000000E+04  0.10000000000E+01 0.  0.
    9000001    1    1    2    0    0  0.70725112286E+03  0.43990000621E+04 -0.47327152147E+04  0.65000000000E+04  0.10000000000E+01 0.  0.
</event>
<event>
 4    1  0.2193160E-006  0.1300000E+05  0.7957747E-01  0.1322471E+00
    9000001   -1    0    0    0    0  0.00000000000E+00  0.00000000000E+00  0.64999999231E+04  0.65000000000E+04  0.10000000000E+01 0.  0.
    9000001   -1    0    0    0    0 -0.00000000000E+00 -0.00000000000E+00 -0.64999999231E+04  0.65000000000E+04  0.10000000000E+01 0.  0.
    9000001    1    1    2    0    0  0.99531946619E+03  0.35600913743E+04  0.53465023676E+04  0.65000000000E+04  0.10000000000E+01 0.  0.
    9000001    1    1    2    0    0 -0.99531946619E+03 -0.35600913743E+04 -0.53465023676E+04  0.65000000000E+04  0.10000000000E+01 0.  0.
</event>
<event>
 4    1  0.2193160E-006  0.1300000E+05  0.7957747E-01  0.1322471E+00
    9000001   -1    0    0    0    0  0.00000000000E+00  0.00000000000E+00  0.64999999231E+04  0.65000000000E+04  0.10000000000E+01 0.  0.
    9000001   -1    0    0    0    0 -0.00000000000E+00 -0.00000000000E+00 -0.64999999231E+04  0.65000000000E+04  0.10000000000E+01 0.  0.
    9000001    1    1    2    0    0 -0.20322180587E+04 -0.20277616100E+04  0.58316611368E+04  0.65000000000E+04  0.10000000000E+01 0.  0.
    9000001    1    1    2    0    0  0.20322180587E+04  0.20277616100E+04 -0.58316611368E+04  0.65000000000E+04  0.10000000000E+01 0.  0.
</event>
<event>
 4    1  0.2193160E-006  0.1300000E+05  0.7957747E-01  0.1322471E+00
    9000001   -1    0    0    0    0  0.00000000000E+00  0.00000000000E+00  0.64999999231E+04  0.65000000000E+04  0.10000000000E+01 0.  0.
    9000001   -1    0    0    0    0 -0.00000000000E+00 -0.00000000000E+00 -0.64999999231E+04  0.65000000000E+04  0.10000000000E+01 0.  0.
    9000001    1    1    2    0    0  0.58299526181E+04 -0.28387536912E+04  0.45069829262E+03  0.65000000000E+04  0.10000000000E+01 0.  0.
    9000001    1    1    2    0    0 -0.58299526181E+04  0.28387536912E+04 -0.45069829262E+03  0.65000000000E+04  0.10000000000E+01 0.  0.
</event>
<event>
 4    1  0.2193160E-006  0.1300000E+05  0.7957747E-01  0.1322471E+00
    9000001   -1    0    0    0    0  0.00000000000E+00  0.00000000000E+00  0.64999999231E+04  0.65000000000E+04  0.10000000000E+01 0.  0.
    9000001   -1    0    0    0    0 -0.00000000000E+00 -0.00000000000E+00 -0.64999999231E+04  0.65000000000E+04  0.10000000000E+01 0.  0.
    9000001    1    1    2    0    0  0.77074979227E+03  0.64448473915E+04  0.34624537196E+03  0.65000000000E+04  0.10000000000E+01 0.  0.
    9000001    1    1    2    0    0 -0.77074979227E+03 -0.64448473915E+04 -0.34624537196E+03  0.65000000000E+04  0.10000000000E+01 0.  0.
</event>
<event>
 4    1  0.2193160E-006  0.1300000E+05  0.7957747E-01  0.1322471E+00
    9000001   -1    0    0    0    0  0.00000000000E+00  0.00000000000E+00  0.64999999231E+04  0.65000000000E+04  0.10000000000E+01 0.  0.
    9000001   -1    0    0    0    0 -0.00000000000E+00 -0.00000000000E+00 -0.64999999231E+04  0.65000000000E+04  0.10000000000E+01 0.  0.
    9000001    1    1    2    0    0 -0.32975947794E+04  0.63918719129E+03  0.55648277067E+04  0.65000000000E+04  0.10000000000E+01 0.  0.
    9000001    1    1    2    0    0  0.32975947794E+04 -0.63918719129E+03 -0.55648277067E+04  0.65000000000E+04  0.10000000000E+01 0.  0.
</event>
<event>
 4    1  0.2193160E-006  0.1300000E+05  0.7957747E-01  0.1322471E+00
    9000001   -1    0    0    0    0  0.00000000000E+00  0.00000000000E+00  0.64999999231E+04  0.65000000000E+04  0.10000000000E+01 0.  0.
    9000001   -1    0    0    0    0 -0.00000000000E+00 -0.00000000000E+00 -0.64999999231E+04  0.65000000000E+04  0.10000000000E+01 0.  0.
    9000001    1    1    2    0    0  0.47736896684E+04 -0.34269562776E+04 -0.27781030616E+04  0.65000000000E+04  0.10000000000E+01 0.  0.
    9000001    1    1    2    0    0 -0.47736896684E+04  0.34269562776E+04  0.27781030616E+04  0.65000000000E+04  0.10000000000E+01 0.  0.
</event>
<event>
 4    1  0.2193160E-006  0.1300000E+05  0.7957747E-01  0.1322471E+00
    9000001   -1    0    0    0    0  0.00000000000E+00  0.00000000000E+00  0.64999999231E+04  0.65000000000E+04  0.10000000000E+01 0.  0.
    9000001   -1    0    0    0    0 -0.00000000000E+00 -0.00000000000E+00 -0.64999999231E+04  0.65000000000E+04  0.10000000000E+01 0.  0.
    9000001    1    1    2    0    0  0.34516782188E+04 -0.52290287779E+04  0.17300793373E+04  0.65000000000E+04  0.10000000000E+01 0.  0.
    9000001    1    1    2    0    0 -0.34516782188E+04  0.52290287779E+04 -0.17300793373E+04  0.65000000000E+04  0.10000000000E+01 0.  0.
</event>
<event>
 4    1  0.2193160E-006  0.1300000E+05  0.7957747E-01  0.1322471E+00
    9000001   -1    0    0    0    0  0.00000000000E+00  0.00000000000E+00  0.64999999231E+04  0.65000000000E+04  0.10000000000E+01 0.  0.
    9000001   -1    0    0    0    0 -0.00000000000E+00 -0.00000000000E+00 -0.64999999231E+04  0.65000000000E+04  0.10000000000E+01 0.  0.
    9000001    1    1    2    0    0  0.20503506425E+04 -0.61662938201E+04  0.15126720522E+03  0.65000000000E+04  0.10000000000E+01 0.  0.
    9000001    1    1    2    0    0 -0.20503506425E+04  0.61662938201E+04 -0.15126720522E+03  0.65000000000E+04  0.10000000000E+01 0.  0.
</event>
<event>
 4    1  0.2193160E-006  0.1300000E+05  0.7957747E-01  0.1322471E+00
    9000001   -1    0    0    0    0  0.00000000000E+00  0.00000000000E+00  0.64999999231E+04  0.65000000000E+04  0.10000000000E+01 0.  0.
    9000001   -1    0    0    0    0 -0.00000000000E+00 -0.00000000000E+00 -0.64999999231E+04  0.65000000000E+04  0.10000000000E+01 0.  0.
    9000001    1    1    2    0    0  0.45641035906E+03 -0.26273653954E+04  0.59277853928E+04  0.65000000000E+04  0.10000000000E+01 0.  0.
    9000001    1    1    2    0    0 -0.45641035906E+03  0.26273653954E+04 -0.59277853928E+04  0.65000000000E+04  0.10000000000E+01 0.  0.
</event>
<event>
 4    1  0.2193160E-006  0.1300000E+05  0.7957747E-01  0.1322471E+00
    9000001   -1    0    0    0    0  0.00000000000E+00  0.00000000000E+00  0.64999999231E+04  0.65000000000E+04  0.10000000000E+01 0.  0.
    9000001   -1    0    0    0    0 -0.00000000000E+00 -0.00000000000E+00 -0.64999999231E+04  0.65000000000E+04  0.10000000000E+01 0.  0.
    9000001    1    1    2    0    0  0.49795607530E+04 -0.11722354345E+04  0.40099673057E+04  0.65000000000E+04  0.10000000000E+01 0.  0.
    9000001    1    1    2    0    0 -0.49795607530E+04  0.11722354345E+04 -0.40099673057E+04  0.65000000000E+04  0.10000000000E+01 0.  0.
</event>
<event>
 4    1  0.2193160E-006  0.1300000E+05  0.7957747E-01  0.1322471E+00
    9000001   -1    0    0    0    0  0.00000000000E+00  0.00000000000E+00  0.64999999231E+04  0.65000000000E+04  0.10000000000E+01 0.  0.
    9000001   -1    0    0    0    0 -0.00000000000E+00 -0.00000000000E+00 -0.64999999231E+04  0.65000000000E+04  0.10000000000E+01 0.  0.
    9000001    1    1    2    0    0 -0.15449688898E+04  0.11072563089E+04 -0.62158711052E+04  0.65000000000E+04  0.10000000000E+01 0.  0.
    9000001    1    1    2    0    0  0.15449688898E+04 -0.11072563089E+04  0.62158711052E+04  0.65000000000E+04  0.10000000000E+01 0.  0.
</event>
<event>
 4    1  0.2193160E-006  0.1300000E+05  0.7957747E-01  0.1322471E+00
    9000001   -1    0    0    0    0  0.00000000000E+00  0.00000000000E+00  0.64999999231E+04  0.65000000000E+04  0.10000000000E+01 0.  0.
    9000001   -1    0    0    0    0 -0.00000000000E+00 -0.00000000000E+00 -0.64999999231E+04  0.65000000000E+04  0.10000000000E+01 0.  0.
    9000001    1    1    2    0    0 -0.45167877037E+04  0.29454447785E+04 -0.36294604140E+04  0.65000000000E+04  0.10000000000E+01 0.  0.
    9000001    1    1    2    0    0  0.45167877037E+04 -0.29454447785E+04  0.36294604140E+04  0.65000000000E+04  0.10000000000E+01 0.  0.
</event>
<event>
 4    1  0.2193160E-006  0.1300000E+05  0.7957747E-01  0.1322471E+00
    9000001   -1    0    0    0    0  0.00000000000E+00  0.00000000000E+00  0.64999999231E+04  0.65000000000E+04  0.10000000000E+01 0.  0.
    9000001   -1    0    0    0    0 -0.00000000000E+00 -0.00000000000E+00 -0.64999999231E+04  0.65000000000E+04  0.10000000000E+01 0.  0.
    9000001    1    1    2    0    0 -0.36068780262E+04  0.32541318554E+04 -0.43186868110E+04  0.65000000000E+04  0.10000000000E+01 0.  0.
    9000001    1    1    2    0    0  0.36068780262E+04 -0.32541318554E+04  0.43186868110E+04  0.65000000000E+04  0.10000000000E+01 0.  0.
</event>
<event>
 4    1  0.2193160E-006  0.1300000E+05  0.7957747E-01  0.1322471E+00
    9000001   -1    0    0    0    0  0.00000000000E+00  0.00000000000E+00  0.64999999231E+04  0.65000000000E+04  0.10000000000E+01 0.  0.
    9000001   -1    0    0    0    0 -0.00000000000E+00 -0.00000000000E+00 -0.64999999231E+04  0.65000000000E+04  0.10000000000E+01 0.  0.
    9000001    1    1    2    0    0  0.40986250331E+04 -0.41266774910E+04  0.29020345834E+04  0.65000000000E+04  0.10000000000E+01 0.  0.
    9000001    1    1    2    0    0 -0.40986250331E+04  0.41266774910E+04 -0.29020345834E+04  0.65000000000E+04  0.10000000000E+01 0.  0.
</event>
<event>
 4    1  0.2193160E-006  0.1300000E+05  0.7957747E-01  0.1322471E+00
    9000001   -1    0    0    0    0  0.00000000000E+00  0.00000000000E+00  0.64999999231E+04  0.65000000000E+04  0.10000000000E+01 0.  0.
    9000001   -1    0    0    0    0 -0.00000000000E+00 -0.00000000000E+00 -0.64999999231E+04  0.65000000000E+04  0.10000000000E+01 0.  0.
    9000001    1    1    2    0    0  0.13991227682E+04  0.41118382808E+04 -0.48358288257E+04  0.65000000000E+04  0.10000000000E+01 0.  0.
    9000001    1    1    2    0    0 -0.13991227682E+04 -0.41118382808E+04  0.48358288257E+04  0.65000000000E+04  0.10000000000E+01 0.  0.
</event>
<event>
 4    1  0.2193160E-006  0.1300000E+05  0.7957747E-01  0.1322471E+00
    9000001   -1    0    0    0    0  0.00000000000E+00  0.00000000000E+00  0.64999999231E+04  0.65000000000E+04  0.10000000000E+01 0.  0.
    9000001   -1    0    0    0    0 -0.00000000000E+00 -0.00000000000E+00 -0.64999999231E+04  0.65000000000E+04  0.10000000000E+01 0.  0.
    9000001    1    1    2    0    0  0.12988613407E+04 -0.59234884420E+04 -0.23399236943E+04  0.65000000000E+04  0.10000000000E+01 0.  0.
    9000001    1    1    2    0    0 -0.12988613407E+04  0.59234884420E+04  0.23399236943E+04  0.65000000000E+04  0.10000000000E+01 0.  0.
</event>
<event>
 4    1  0.2193160E-006  0.1300000E+05  0.7957747E-01  0.1322471E+00
    9000001   -1    0    0    0    0  0.00000000000E+00  0.00000000000E+00  0.64999999231E+04  0.65000000000E+04  0.10000000000E+01 0.  0.
    9000001   -1    0    0    0    0 -0.00000000000E+00 -0.00000000000E+00 -0.64999999231E+04  0.65000000000E+04  0.10000000000E+01 0.  0.
    9000001    1    1    2    0    0 -0.51466115431E+04  0.36593022160E+04  0.15400960736E+04  0.65000000000E+04  0.10000000000E+01 0.  0.
    9000001    1    1    2    0    0  0.51466115431E+04 -0.36593022160E+04 -0.15400960736E+04  0.65000000000E+04  0.10000000000E+01 0.  0.
</event>
<event>
 4    1  0.2193160E-006  0.1300000E+05  0.7957747E-01  0.1322471E+00
    9000001   -1    0    0    0    0  0.00000000000E+00  0.00000000000E+00  0.64999999231E+04  0.65000000000E+04  0.10000000000E+01 0.  0.
    9000001   -1    0    0    0    0 -0.00000000000E+00 -0.00000000000E+00 -0.64999999231E+04  0.65000000000E+04  0.10000000000E+01 0.  0.
    9000001    1    1    2    0    0 -0.10774163878E+04  0.13861584326E+04  0.62584133554E+04  0.65000000000E+04  0.10000000000E+01 0.  0.
    9000001    1    1    2    0    0  0.10774163878E+04 -0.13861584326E+04 -0.62584133554E+04  0.65000000000E+04  0.10000000000E+01 0.  0.
</event>
<event>
 4    1  0.2193160E-006  0.1300000E+05  0.7957747E-01  0.1322471E+00
    9000001   -1    0    0    0    0  0.00000000000E+00  0.00000000000E+00  0.64999999231E+04  0.65000000000E+04  0.10000000000E+01 0.  0.
    9000001   -1    0    0    0    0 -0.00000000000E+00 -0.00000000000E+00 -0.64999999231E+04  0.65000000000E+04  0.10000000000E+01 0.  0.
    9000001    1    1    2    0    0  0.31792924469E+04  0.34420648214E+04  0.45049182348E+04  0.65000000000E+04  0.10000000000E+01 0.  0.
    9000001    1    1    2    0    0 -0.31792924469E+04 -0.34420648214E+04 -0.45049182348E+04  0.65000000000E+04  0.10000000000E+01 0.  0.
</event>
<event>
 4    1  0.2193160E-006  0.1300000E+05  0.7957747E-01  0.1322471E+00
    9000001   -1    0    0    0    0  0.00000000000E+00  0.00000000000E+00  0.64999999231E+04  0.65000000000E+04  0.10000000000E+01 0.  0.
    9000001   -1    0    0    0    0 -0.00000000000E+00 -0.00000000000E+00 -0.64999999231E+04  0.65000000000E+04  0.10000000000E+01 0.  0.
    9000001    1    1    2    0    0 -0.34579606593E+04  0.96250282593E+03 -0.54190493068E+04  0.65000000000E+04  0.10000000000E+01 0.  0.
    9000001    1    1    2    0    0  0.34579606593E+04 -0.96250282593E+03  0.54190493068E+04  0.65000000000E+04  0.10000000000E+01 0.  0.
</event>
<event>
 4    1  0.2193160E-006  0.1300000E+05  0.7957747E-01  0.1322471E+00
    9000001   -1    0    0    0    0  0.00000000000E+00  0.00000000000E+00  0.64999999231E+04  0.65000000000E+04  0.10000000000E+01 0.  0.
    9000001   -1    0    0    0    0 -0.00000000000E+00 -0.00000000000E+00 -0.64999999231E+04  0.65000000000E+04  0.10000000000E+01 0.  0.
    9000001    1    1    2    0    0  0.14391627721E+03 -0.62585740406E+04 -0.17491535334E+04  0.65000000000E+04  0.10000000000E+01 0.  0.
    9000001    1    1    2    0    0 -0.14391627721E+03  0.62585740406E+04  0.17491535334E+04  0.65000000000E+04  0.10000000000E+01 0.  0.
</event>
<event>
 4    1  0.2193160E-006  0.1300000E+05  0.7957747E-01  0.1322471E+00
    9000001   -1    0    0    0    0  0.00000000000E+00  0.00000000000E+00  0.64999999231E+04  0.65000000000E+04  0.10000000000E+01 0.  0.
    9000001   -1    0    0    0    0 -0.00000000000E+00 -0.00000000000E+00 -0.64999999231E+04  0.65000000000E+04  0.10000000000E+01 0.  0.
    9000001    1    1    2    0    0  0.21136852442E+04  0.46232442770E+04  0.40506722952E+04  0.65000000000E+04  0.10000000000E+01 0.  0.
    9000001    1    1    2    0    0 -0.21136852442E+04 -0.46232442770E+04 -0.40506722952E+04  0.65000000000E+04  0.10000000000E+01 0.  0.
</event>
<event>
 4    1  0.2193160E-006  0.1300000E+05  0.7957747E-01  0.1322471E+00
    9000001   -1    0    0    0    0  0.00000000000E+00  0.00000000000E+00  0.64999999231E+04  0.65000000000E+04  0.10000000000E+01 0.  0.
    9000001   -1    0    0    0    0 -0.00000000000E+00 -0.00000000000E+00 -0.64999999231E+04  0.65000000000E+04  0.10000000000E+01 0.  0.
    9000001    1    1    2    0    0  0.64614939276E+04 -0.61325162732E+03 -0.35073874164E+03  0.65000000000E+04  0.10000000000E+01 0.  0.
    9000001    1    1    2    0    0 -0.64614939276E+04  0.61325162732E+03  0.35073874164E+03  0.65000000000E+04  0.10000000000E+01 0.  0.
</event>
<event>
 4    1  0.2193160E-006  0.1300000E+05  0.7957747E-01  0.1322471E+00
    9000001   -1    0    0    0    0  0.00000000000E+00  0.00000000000E+00  0.64999999231E+04  0.65000000000E+04  0.10000000000E+01 0.  0.
    9000001   -1    0    0    0    0 -0.00000000000E+00 -0.00000000000E+00 -0.64999999231E+04  0.65000000000E+04  0.10000000000E+01 0.  0.
    9000001    1    1    2    0    0  0.17794987716E+04  0.39860075626E+04 -0.48161319368E+04  0.65000000000E+04  0.10000000000E+01 0.  0.
    9000001    1    1    2    0    0 -0.17794987716E+04 -0.39860075626E+04  0.48161319368E+04  0.65000000000E+04  0.10000000000E+01 0.  0.
</event>
<event>
 4    1  0.2193160E-006  0.1300000E+05  0.7957747E-01  0.1322471E+00
    9000001   -1    0    0    0    0  0.00000000000E+00  0.00000000000E+00  0.64999999231E+04  0.65000000000E+04  0.10000000000E+01 0.  0.
    9000001   -1    0    0    0    0 -0.00000000000E+00 -0.00000000000E+00 -0.64999999231E+04  0.65000000000E+04  0.10000000000E+01 0.  0.
    9000001    1    1    2    0    0 -0.37698352854E+04  0.24239698603E+04 -0.47077288620E+04  0.65000000000E+04  0.10000000000E+01 0.  0.
    9000001    1    1    2    0    0  0.37698352854E+04 -0.24239698603E+04  0.47077288620E+04  0.65000000000E+04  0.10000000000E+01 0.  0.
</event>
<event>
 4    1  0.2193160E-006  0.1300000E+05  0.7957747E-01  0.1322471E+00
    9000001   -1    0    0    0    0  0.00000000000E+00  0.00000000000E+00  0.64999999231E+04  0.65000000000E+04  0.10000000000E+01 0.  0.
    9000001   -1    0    0    0    0 -0.00000000000E+00 -0.00000000000E+00 -0.64999999231E+04  0.65000000000E+04  0.10000000000E+01 0.  0.
    9000001    1    1    2    0    0  0.39383625870E+03  0.10236870952E+04 -0.64067898930E+04  0.65000000000E+04  0.10000000000E+01 0.  0.
    9000001    1    1    2    0    0 -0.39383625870E+03 -0.10236870952E+04  0.64067898930E+04  0.65000000000E+04  0.10000000000E+01 0.  0.
</event>
<event>
 4    1  0.2193160E-006  0.1300000E+05  0.7957747E-01  0.1322471E+00
    9000001   -1    0    0    0    0  0.00000000000E+00  0.00000000000E+00  0.64999999231E+04  0.65000000000E+04  0.10000000000E+01 0.  0.
    9000001   -1    0    0    0    0 -0.00000000000E+00 -0.00000000000E+00 -0.64999999231E+04  0.65000000000E+04  0.10000000000E+01 0.  0.
    9000001    1    1    2    0    0  0.42398006143E+04  0.40122608701E+04  0.28593447608E+04  0.65000000000E+04  0.10000000000E+01 0.  0.
    9000001    1    1    2    0    0 -0.42398006143E+04 -0.40122608701E+04 -0.28593447608E+04  0.65000000000E+04  0.10000000000E+01 0.  0.
</event>
<event>
 4    1  0.2193160E-006  0.1300000E+05  0.7957747E-01  0.1322471E+00
    9000001   -1    0    0    0    0  0.00000000000E+00  0.00000000000E+00  0.64999999231E+04  0.65000000000E+04  0.10000000000E+01 0.  0.
    9000001   -1    0    0    0    0 -0.00000000000E+00 -0.00000000000E+00 -0.64999999231E+04  0.65000000000E+04  0.10000000000E+01 0.  0.
    9000001    1    1    2    0    0 -0.52911636732E+03  0.45706761792E+04 -0.45911822154E+04  0.65000000000E+04  0.10000000000E+01 0.  0.
    9000001    1    1    2    0    0  0.52911636732E+03 -0.45706761792E+04  0.45911822154E+04  0.65000000000E+04  0.10000000000E+01 0.  0.
</event>
<event>
 4    1  0.2193160E-006  0.1300000E+05  0.7957747E-01  0.1322471E+00
    9000001   -1    0    0    0    0  0.00000000000E+00  0.00000000000E+00  0.64999999231E+04  0.65000000000E+04  0.10000000000E+01 0.  0.
    9000001   -1    0    0    0    0 -0.00000000000E+00 -0.00000000000E+00 -0.64999999231E+04  0.65000000000E+04  0.10000000000E+01 0.  0.
    9000001    1    1    2    0    0  0.55135838991E+04  0.30959095194E+04  0.15052361393E+04  0.65000000000E+04  0.10000000000E+01 0.  0.
    9000001    1    1    2    0    0 -0.55135838991E+04 -0.30959095194E+04 -0.15052361393E+04  0.65000000000E+04  0.10000000000E+01 0.  0.
</event>
<event>
 4    1  0.2193160E-006  0.1300000E+05  0.7957747E-01  0.1322471E+00
    9000001   -1    0    0    0    0  0.00000000000E+00  0.00000000000E+00  0.64999999231E+04  0.65000000000E+04  0.10000000000E+01 0.  0.
    9000001   -1    0    0    0    0 -0.00000000000E+00 -0.00000000000E+00 -0.64999999231E+04  0.65000000000E+04  0.10000000000E+01 0.  0.
    9000001    1    1    2    0    0  0.11881813102E+04  0.56971402883E+04 -0.28949640256E+04  0.65000000000E+04  0.10000000000E+01 0.  0.
    9000001    1    1    2    0    0 -0.11881813102E+04 -0.56971402883E+04  0.28949640256E+04  0.65000000000E+04  0.10000000000E+01 0.  0.
</event>
<event>
 4    1  0.2193160E-006  0.1300000E+05  0.7957747E-01  0.1322471E+00
    9000001   -1    0    0    0    0  0.00000000000E+00  0.00000000000E+00  0.64999999231E+04  0.65000000000E+04  0.10000000000E+01 0.  0.
    9000001   -1    0    0    0    0 -0.00000000000E+00 -0.00000000000E+00 -0.64999999231E+04  0.65000000000E+04  0.10000000000E+01 0.  0.
    9000001    1    1    2    0    0  0.44111387073E+04  0.32547833521E+04 -0.34925978348E+04  0.65000000000E+04  0.10000000000E+01 0.  0.
    9000001    1    1    2    0    0 -0.44111387073E+04 -0.32547833521E+04  0.34925978348E+04  0.65000000000E+04  0.10000000000E+01 0.  0.
</event>
<event>
 4    1  0.2193160E-006  0.1300000E+05  0.7957747E-01  0.1322471E+00
    9000001   -1    0    0    0    0  0.00000000000E+00  0.00000000000E+00  0.64999999231E+04  0.65000000000E+04  0.10000000000E+01 0.  0.
    9000001   -1    0    0    0    0 -0.00000000000E+00 -0.00000000000E+00 -0.64999999231E+04  0.65000000000E+04  0.10000000000E+01 0.  0.
    9000001    1    1    2    0    0  0.44424702531E+04 -0.49677937773E+03  0.47188629245E+04  0.65000000000E+04  0.10000000000E+01 0.  0.
    9000001    1    1    2    0    0 -0.44424702531E+04  0.49677937773E+03 -0.47188629245E+04  0.65000000000E+04  0.10000000000E+01 0.  0.
</event>
<event>
 4    1  0.2193160E-006  0.1300000E+05  0.7957747E-01  0.1322471E+00
    9000001   -1    0    0    0    0  0.00000000000E+00  0.00000000000E+00  0.64999999231E+04  0.65000000000E+04  0.10000000000E+01 0.  0.
    9000001   -1    0    0    0    0 -0.00000000000E+00 -0.00000000000E+00 -0.64999999231E+04  0.65000000000E+04  0.10000000000E+01 0.  0.
    9000001    1    1    2    0    0 -0.56993081550E+04  0.18817396262E+04 -0.24953840453E+04  0.65000000000E+04  0.10000000000E+01 0.  0.
    9000001    1    1    2    0    0  0.56993081550E+04 -0.18817396262E+04  0.24953840453E+04  0.65000000000E+04  0.10000000000E+01 0.  0.
</event>
<event>
 4    1  0.2193160E-006  0.1300000E+05  0.7957747E-01  0.1322471E+00
    9000001   -1    0    0    0    0  0.00000000000E+00  0.00000000000E+00  0.64999999231E+04  0.65000000000E+04  0.10000000000E+01 0.  0.
    9000001   -1    0    0    0    0 -0.00000000000E+00 -0.00000000000E+00 -0.64999999231E+04  0.65000000000E+04  0.10000000000E+01 0.  0.
    9000001    1    1    2    0    0 -0.37264604387E+04  0.51237316892E+02  0.53254921215E+04  0.65000000000E+04  0.10000000000E+01 0.  0.
    9000001    1    1    2    0    0  0.37264604387E+04 -0.51237316892E+02 -0.53254921215E+04  0.65000000000E+04  0.10000000000E+01 0.  0.
</event>
<event>
 4    1  0.2193160E-006  0.1300000E+05  0.7957747E-01  0.1322471E+00
    9000001   -1    0    0    0    0  0.00000000000E+00  0.00000000000E+00  0.64999999231E+04  0.65000000000E+04  0.10000000000E+01 0.  0.
    9000001   -1    0    0    0    0 -0.00000000000E+00 -0.00000000000E+00 -0.64999999231E+04  0.65000000000E+04  0.10000000000E+01 0.  0.
    9000001    1    1    2    0    0  0.81303152977E+03  0.47102056295E+04 -0.44048770311E+04  0.65000000000E+04  0.10000000000E+01 0.  0.
    9000001    1    1    2    0    0 -0.81303152977E+03 -0.47102056295E+04  0.44048770311E+04  0.65000000000E+04  0.10000000000E+01 0.  0.
</event>
<event>
 4    1  0.2193160E-006  0.1300000E+05  0.7957747E-01  0.1322471E+00
    9000001   -1    0    0    0    0  0.00000000000E+00  0.00000000000E+00  0.64999999231E+04  0.65000000000E+04  0.10000000000E+01 0.  0.
    9000001   -1    0    0    0    0 -0.00000000000E+00 -0.00000000000E+00 -0.64999999231E+04  0.65000000000E+04  0.10000000000E+01 0.  0.
    9000001    1    1    2    0    0 -0.48970833941E+04 -0.23709422285E+04 -0.35562910708E+04  0.65000000000E+04  0.10000000000E+01 0.  0.
    9000001    1    1    2    0    0  0.48970833941E+04  0.23709422285E+04  0.35562910708E+04  0.65000000000E+04  0.10000000000E+01 0.  0.
</event>
<event>
 4    1  0.2193160E-006  0.1300000E+05  0.7957747E-01  0.1322471E+00
    9000001   -1    0    0    0    0  0.00000000000E+00  0.00000000000E+00  0.64999999231E+04  0.65000000000E+04  0.10000000000E+01 0.  0.
    9000001   -1    0    0    0    0 -0.00000000000E+00 -0.00000000000E+00 -0.64999999231E+04  0.65000000000E+04  0.10000000000E+01 0.  0.
    9000001    1    1    2    0    0 -0.44784231694E+04  0.26697918673E+04  0.38814863520E+04  0.65000000000E+04  0.10000000000E+01 0.  0.
    9000001    1    1    2    0    0  0.44784231694E+04 -0.26697918673E+04 -0.38814863520E+04  0.65000000000E+04  0.10000000000E+01 0.  0.
</event>
<event>
 4    1  0.2193160E-006  0.1300000E+05  0.7957747E-01  0.1322471E+00
    9000001   -1    0    0    0    0  0.00000000000E+00  0.00000000000E+00  0.64999999231E+04  0.65000000000E+04  0.10000000000E+01 0.  0.
    9000001   -1    0    0    0    0 -0.00000000000E+00 -0.00000000000E+00 -0.64999999231E+04  0.65000000000E+04  0.10000000000E+01 0.  0.
    9000001    1    1    2    0    0  0.16731808918E+04  0.62113934024E+04  0.93223210832E+03  0.65000000000E+04  0.10000000000E+01 0.  0.
    9000001    1    1    2    0    0 -0.16731808918E+04 -0.62113934024E+04 -0.93223210832E+03  0.65000000000E+04  0.10000000000E+01 0.  0.
</event>
<event>
 4    1  0.2193160E-006  0.1300000E+05  0.7957747E-01  0.1322471E+00
    9000001   -1    0    0    0    0  0.00000000000E+00  0.00000000000E+00  0.64999999231E+04  0.65000000000E+04  0.10000000000E+01 0.  0.
    9000001   -1    0    0    0    0 -0.00000000000E+00 -0.00000000000E+00 -0.64999999231E+04  0.65000000000E+04  0.10000000000E+01 0.  0.
    9000001    1    1    2    0    0  0.46422273736E+04 -0.74633515539E+03  0.44880628168E+04  0.65000000000E+04  0.10000000000E+01 0.  0.
    9000001    1    1    2    0    0 -0.46422273736E+04  0.74633515539E+03 -0.44880628168E+04  0.65000000000E+04  0.10000000000E+01 0.  0.
</event>
<event>
 4    1  0.2193160E-006  0.1300000E+05  0.7957747E-01  0.1322471E+00
    9000001   -1    0    0    0    0  0.00000000000E+00  0.00000000000E+00  0.64999999231E+04  0.65000000000E+04  0.10000000000E+01 0.  0.
    9000001   -1    0    0    0    0 -0.00000000000E+00 -0.00000000000E+00 -0.64999999231E+04  0.65000000000E+04  0.10000000000E+01 0.  0.
    9000001    1    1    2    0    0 -0.63309870621E+04 -0.12531103825E+04 -0.77350901042E+03  0.65000000000E+04  0.10000000000E+01 0.  0.
    9000001    1    1    2    0    0  0.63309870621E+04  0.12531103825E+04  0.77350901042E+03  0.65000000000E+04  0.10000000000E+01 0.  0.
</event>
<event>
 4    1  0.2193160E-006  0.1300000E+05  0.7957747E-01  0.1322471E+00
    9000001   -1    0    0    0    0  0.00000000000E+00  0.00000000000E+00  0.64999999231E+04  0.65000000000E+04  0.10000000000E+01 0.  0.
    9000001   -1    0    0    0    0 -0.00000000000E+00 -0.00000000000E+00 -0.64999999231E+04  0.65000000000E+04  0.10000000000E+01 0.  0.
    9000001    1    1    2    0    0 -0.18449115001E+03  0.64919105458E+04 -0.26656984297E+03  0.65000000000E+04  0.10000000000E+01 0.  0.
    9000001    1    1    2    0    0  0.18449115001E+03 -0.64919105458E+04  0.26656984297E+03  0.65000000000E+04  0.10000000000E+01 0.  0.
</event>
<event>
 4    1  0.2193160E-006  0.1300000E+05  0.7957747E-01  0.1322471E+00
    9000001   -1    0    0    0    0  0.00000000000E+00  0.00000000000E+00  0.64999999231E+04  0.65000000000E+04  0.10000000000E+01 0.  0.
    9000001   -1    0    0    0    0 -0.00000000000E+00 -0.00000000000E+00 -0.64999999231E+04  0.65000000000E+04  0.10000000000E+01 0.  0.
    9000001    1    1    2    0    0  0.51832480746E+04 -0.39222360018E+04 -0.17728802378E+01  0.65000000000E+04  0.10000000000E+01 0.  0.
    9000001    1    1    2    0    0 -0.51832480746E+04  0.39222360018E+04  0.17728802378E+01  0.65000000000E+04  0.10000000000E+01 0.  0.
</event>
<event>
 4    1  0.2193160E-006  0.1300000E+05  0.7957747E-01  0.1322471E+00
    9000001   -1    0    0    0    0  0.00000000000E+00  0.00000000000E+00  0.64999999231E+04  0.65000000000E+04  0.10000000000E+01 0.  0.
    9000001   -1    0    0    0    0 -0.00000000000E+00 -0.00000000000E+00 -0.64999999231E+04  0.65000000000E+04  0.10000000000E+01 0.  0.
    9000001    1    1    2    0    0  0.19766284733E+04 -0.54623225777E+04  0.29164997747E+04  0.65000000000E+04  0.10000000000E+01 0.  0.
    9000001    1    1    2    0    0 -0.19766284733E+04  0.54623225777E+04 -0.29164997747E+04  0.65000000000E+04  0.10000000000E+01 0.  0.
</event>
<event>
 4    1  0.2193160E-006  0.1300000E+05  0.7957747E-01  0.1322471E+00
    9000001   -1    0    0    0    0  0.00000000000E+00  0.00000000000E+00  0.64999999231E+04  0.65000000000E+04  0.10000000000E+01 0.  0.
    9000001   -1    0    0    0    0 -0.00000000000E+00 -0.00000000000E+00 -0.64999999231E+04  0.65000000000E+04  0.10000000000E+01 0.  0.
    9000001    1    1    2    0    0  0.37594672847E+04 -0.46941522447E+04  0.24660371933E+04  0.65000000000E+04  0.10000000000E+01 0.  0.
    9000001    1    1    2    0    0 -0.37594672847E+04  0.46941522447E+04 -0.24660371933E+04  0.65000000000E+04  0.10000000000E+01 0.  0.
</event>
<event>
 4    1  0.2193160E-006  0.1300000E+05  0.7957747E-01  0.1322471E+00
    9000001   -1    0    0    0    0  0.00000000000E+00  0.00000000000E+00  0.64999999231E+04  0.65000000000E+04  0.10000000000E+01 0.  0.
    9000001   -1    0    0    0    0 -0.00000000000E+00 -0.00000000000E+00 -0.64999999231E+04  0.65000000000E+04  0.10000000000E+01 0.  0.
    9000001    1    1    2    0    0 -0.56870347947E+04 -0.61641121030E+03  0.30866926417E+04  0.65000000000E+04  0.10000000000E+01 0.  0.
    9000001    1    1    2    0    0  0.56870347947E+04  0.61641121030E+03 -0.30866926417E+04  0.65000000000E+04  0.10000000000E+01 0.  0.
</event>
<event>
 4    1  0.2193160E-006  0.1300000E+05  0.7957747E-01  0.1322471E+00
    9000001   -1    0    0    0    0  0.00000000000E+00  0.00000000000E+00  0.64999999231E+04  0.65000000000E+04  0.10000000000E+01 0.  0.
    9000001   -1    0    0    0    0 -0.00000000000E+00 -0.00000000000E+00 -0.64999999231E+04  0.65000000000E+04  0.10000000000E+01 0.  0.
    9000001    1    1    2    0    0 -0.10926661602E+04  0.46900806477E+04  0.43656870227E+04  0.65000000000E+04  0.10000000000E+01 0.  0.
    9000001    1    1    2    0    0  0.10926661602E+04 -0.46900806477E+04 -0.43656870227E+04  0.65000000000E+04  0.10000000000E+01 0.  0.
</event>
<event>
 4    1  0.2193160E-006  0.1300000E+05  0.7957747E-01  0.1322471E+00
    9000001   -1    0    0    0    0  0.00000000000E+00  0.00000000000E+00  0.64999999231E+04  0.65000000000E+04  0.10000000000E+01 0.  0.
    9000001   -1    0    0    0    0 -0.00000000000E+00 -0.00000000000E+00 -0.64999999231E+04  0.65000000000E+04  0.10000000000E+01 0.  0.
    9000001    1    1    2    0    0  0.21563273514E+03 -0.59890817673E+04  0.25168236148E+04  0.65000000000E+04  0.10000000000E+01 0.  0.
    9000001    1    1    2    0    0 -0.21563273514E+03  0.59890817673E+04 -0.25168236148E+04  0.65000000000E+04  0.10000000000E+01 0.  0.
</event>
<event>
 4    1  0.2193160E-006  0.1300000E+05  0.7957747E-01  0.1322471E+00
    9000001   -1    0    0    0    0  0.00000000000E+00  0.00000000000E+00  0.64999999231E+04  0.65000000000E+04  0.10000000000E+01 0.  0.
    9000001   -1    0    0    0    0 -0.00000000000E+00 -0.00000000000E+00 -0.64999999231E+04  0.65000000000E+04  0.10000000000E+01 0.  0.
    9000001    1    1    2    0    0 -0.34806377720E+04  0.51726857738E+04  0.18380646304E+04  0.65000000000E+04  0.10000000000E+01 0.  0.
    9000001    1    1    2    0    0  0.34806377720E+04 -0.51726857738E+04 -0.18380646304E+04  0.65000000000E+04  0.10000000000E+01 0.  0.
</event>
<event>
 4    1  0.2193160E-006  0.1300000E+05  0.7957747E-01  0.1322471E+00
    9000001   -1    0    0    0    0  0.00000000000E+00  0.00000000000E+00  0.64999999231E+04  0.65000000000E+04  0.10000000000E+01 0.  0.
    9000001   -1    0    0    0    0 -0.00000000000E+00 -0.00000000000E+00 -0.64999999231E+04  0.65000000000E+04  0.10000000000E+01 0.  0.
    9000001    1    1    2    0    0 -0.60877020462E+04 -0.95917827525E+03  0.20663639159E+04  0.65000000000E+04  0.10000000000E+01 0.  0.
    9000001    1    1    2    0    0  0.60877020462E+04  0.95917827525E+03 -0.20663639159E+04  0.65000000000E+04  0.10000000000E+01 0.  0.
</event>
<event>
 4    1  0.2193160E-006  0.1300000E+05  0.7957747E-01  0.1322471E+00
    9000001   -1    0    0    0    0  0.00000000000E+00  0.00000000000E+00  0.64999999231E+04  0.65000000000E+04  0.10000000000E+01 0.  0.
    9000001   -1    0    0    0    0 -0.00000000000E+00 -0.00000000000E+00 -0.64999999231E+04  0.65000000000E+04  0.10000000000E+01 0.  0.
    9000001    1    1    2    0    0  0.29660962666E+04 -0.52008446021E+04 -0.25305112847E+04  0.65000000000E+04  0.10000000000E+01 0.  0.
    9000001    1    1    2    0    0 -0.29660962666E+04  0.52008446021E+04  0.25305112847E+04  0.65000000000E+04  0.10000000000E+01 0.  0.
</event>
<event>
 4    1  0.2193160E-006  0.1300000E+05  0.7957747E-01  0.1322471E+00
    9000001   -1    0    0    0    0  0.00000000000E+00  0.00000000000E+00  0.64999999231E+04  0.65000000000E+04  0.10000000000E+01 0.  0.
    9000001   -1    0    0    0    0 -0.00000000000E+00 -0.00000000000E+00 -0.64999999231E+04  0.65000000000E+04  0.10000000000E+01 0.  0.
    9000001    1    1    2    0    0 -0.91845382022E+03  0.43946428787E+04  0.47003782347E+04  0.65000000000E+04  0.10000000000E+01 0.  0.
    9000001    1    1    2    0    0  0.91845382022E+03 -0.43946428787E+04 -0.47003782347E+04  0.65000000000E+04  0.10000000000E+01 0.  0.
</event>
<event>
 4    1  0.2193160E-006  0.1300000E+05  0.7957747E-01  0.1322471E+00
    9000001   -1    0    0    0    0  0.00000000000E+00  0.00000000000E+00  0.64999999231E+04  0.65000000000E+04  0.10000000000E+01 0.  0.
    9000001   -1    0    0    0    0 -0.00000000000E+00 -0.00000000000E+00 -0.64999999231E+04  0.65000000000E+04  0.10000000000E+01 0.  0.
    9000001    1    1    2    0    0 -0.62855213264E+03 -0.44702527259E+04  0.46767255407E+04  0.65000000000E+04  0.10000000000E+01 0.  0.
    9000001    1    1    2    0    0  0.62855213264E+03  0.44702527259E+04 -0.46767255407E+04  0.65000000000E+04  0.10000000000E+01 0.  0.
</event>
<event>
 4    1  0.2193160E-006  0.1300000E+05  0.7957747E-01  0.1322471E+00
    9000001   -1    0    0    0    0  0.00000000000E+00  0.00000000000E+00  0.64999999231E+04  0.65000000000E+04  0.10000000000E+01 0.  0.
    9000001   -1    0    0    0    0 -0.00000000000E+00 -0.00000000000E+00 -0.64999999231E+04  0.65000000000E+04  0.10000000000E+01 0.  0.
    9000001    1    1    2    0    0 -0.59439452505E+04 -0.24151100852E+04 -0.10424764438E+04  0.65000000000E+04  0.10000000000E+01 0.  0.
    9000001    1    1    2    0    0  0.59439452505E+04  0.24151100852E+04  0.10424764438E+04  0.65000000000E+04  0.10000000000E+01 0.  0.
</event>
<event>
 4    1  0.2193160E-006  0.1300000E+05  0.7957747E-01  0.1322471E+00
    9000001   -1    0    0    0    0  0.00000000000E+00  0.00000000000E+00  0.64999999231E+04  0.65000000000E+04  0.10000000000E+01 0.  0.
    9000001   -1    0    0    0    0 -0.00000000000E+00 -0.00000000000E+00 -0.64999999231E+04  0.65000000000E+04  0.10000000000E+01 0.  0.
    9000001    1    1    2    0    0  0.24974777155E+04  0.54940128430E+04  0.24142135244E+04  0.65000000000E+04  0.10000000000E+01 0.  0.
    9000001    1    1    2    0    0 -0.24974777155E+04 -0.54940128430E+04 -0.24142135244E+04  0.65000000000E+04  0.10000000000E+01 0.  0.
</event>
<event>
 4    1  0.2193160E-006  0.1300000E+05  0.7957747E-01  0.1322471E+00
    9000001   -1    0    0    0    0  0.00000000000E+00  0.00000000000E+00  0.64999999231E+04  0.65000000000E+04  0.10000000000E+01 0.  0.
    9000001   -1    0    0    0    0 -0.00000000000E+00 -0.00000000000E+00 -0.64999999231E+04  0.65000000000E+04  0.10000000000E+01 0.  0.
    9000001    1    1    2    0    0  0.10089621629E+04  0.46462029287E+04 -0.44322446569E+04  0.65000000000E+04  0.10000000000E+01 0.  0.
    9000001    1    1    2    0    0 -0.10089621629E+04 -0.46462029287E+04  0.44322446569E+04  0.65000000000E+04  0.10000000000E+01 0.  0.
</event>
<event>
 4    1  0.2193160E-006  0.1300000E+05  0.7957747E-01  0.1322471E+00
    9000001   -1    0    0    0    0  0.00000000000E+00  0.00000000000E+00  0.64999999231E+04  0.65000000000E+04  0.10000000000E+01 0.  0.
    9000001   -1    0    0    0    0 -0.00000000000E+00 -0.00000000000E+00 -0.64999999231E+04  0.65000000000E+04  0.10000000000E+01 0.  0.
    9000001    1    1    2    0    0 -0.46993758544E+04  0.38431375640E+04 -0.23229634615E+04  0.65000000000E+04  0.10000000000E+01 0.  0.
    9000001    1    1    2    0    0  0.46993758544E+04 -0.38431375640E+04  0.23229634615E+04  0.65000000000E+04  0.10000000000E+01 0.  0.
</event>
<event>
 4    1  0.2193160E-006  0.1300000E+05  0.7957747E-01  0.1322471E+00
    9000001   -1    0    0    0    0  0.00000000000E+00  0.00000000000E+00  0.64999999231E+04  0.65000000000E+04  0.10000000000E+01 0.  0.
    9000001   -1    0    0    0    0 -0.00000000000E+00 -0.00000000000E+00 -0.64999999231E+04  0.65000000000E+04  0.10000000000E+01 0.  0.
    9000001    1    1    2    0    0  0.19290142967E+04 -0.61515705549E+04 -0.82890442843E+03  0.65000000000E+04  0.10000000000E+01 0.  0.
    9000001    1    1    2    0    0 -0.19290142967E+04  0.61515705549E+04  0.82890442843E+03  0.65000000000E+04  0.10000000000E+01 0.  0.
</event>
<event>
 4    1  0.2193160E-006  0.1300000E+05  0.7957747E-01  0.1322471E+00
    9000001   -1    0    0    0    0  0.00000000000E+00  0.00000000000E+00  0.64999999231E+04  0.65000000000E+04  0.10000000000E+01 0.  0.
    9000001   -1    0    0    0    0 -0.00000000000E+00 -0.00000000000E+00 -0.64999999231E+04  0.65000000000E+04  0.10000000000E+01 0.  0.
    9000001    1    1    2    0    0  0.29567224687E+04 -0.51872027635E+04 -0.25691863952E+04  0.65000000000E+04  0.10000000000E+01 0.  0.
    9000001    1    1    2    0    0 -0.29567224687E+04  0.51872027635E+04  0.25691863952E+04  0.65000000000E+04  0.10000000000E+01 0.  0.
</event>
<event>
 4    1  0.2193160E-006  0.1300000E+05  0.7957747E-01  0.1322471E+00
    9000001   -1    0    0    0    0  0.00000000000E+00  0.00000000000E+00  0.64999999231E+04  0.65000000000E+04  0.10000000000E+01 0.  0.
    9000001   -1    0    0    0    0 -0.00000000000E+00 -0.00000000000E+00 -0.64999999231E+04  0.65000000000E+04  0.10000000000E+01 0.  0.
    9000001    1    1    2    0    0 -0.29954456315E+04 -0.50859771527E+04 -0.27221573928E+04  0.65000000000E+04  0.10000000000E+01 0.  0.
    9000001    1    1    2    0    0  0.29954456315E+04  0.50859771527E+04  0.27221573928E+04  0.65000000000E+04  0.10000000000E+01 0.  0.
</event>
<event>
 4    1  0.2193160E-006  0.1300000E+05  0.7957747E-01  0.1322471E+00
    9000001   -1    0    0    0    0  0.00000000000E+00  0.00000000000E+00  0.64999999231E+04  0.65000000000E+04  0.10000000000E+01 0.  0.
    9000001   -1    0    0    0    0 -0.00000000000E+00 -0.00000000000E+00 -0.64999999231E+04  0.65000000000E+04  0.10000000000E+01 0.  0.
    9000001    1    1    2    0    0  0.53491471300E+04  0.36597366767E+04  0.49290104393E+03  0.65000000000E+04  0.10000000000E+01 0.  0.
    9000001    1    1    2    0    0 -0.53491471300E+04 -0.36597366767E+04 -0.49290104393E+03  0.65000000000E+04  0.10000000000E+01 0.  0.
</event>
<event>
 4    1  0.2193160E-006  0.1300000E+05  0.7957747E-01  0.1322471E+00
    9000001   -1    0    0    0    0  0.00000000000E+00  0.00000000000E+00  0.64999999231E+04  0.65000000000E+04  0.10000000000E+01 0.  0.
    9000001   -1    0    0    0    0 -0.00000000000E+00 -0.00000000000E+00 -0.64999999231E+04  0.65000000000E+04  0.10000000000E+01 0.  0.
    9000001    1    1    2    0    0  0.54880110793E+04  0.33158410227E+04 -0.10662699967E+04  0.65000000000E+04  0.10000000000E+01 0.  0.
    9000001    1    1    2    0    0 -0.54880110793E+04 -0.33158410227E+04  0.10662699967E+04  0.65000000000E+04  0.10000000000E+01 0.  0.
</event>
<event>
 4    1  0.2193160E-006  0.1300000E+05  0.7957747E-01  0.1322471E+00
    9000001   -1    0    0    0    0  0.00000000000E+00  0.00000000000E+00  0.64999999231E+04  0.65000000000E+04  0.10000000000E+01 0.  0.
    9000001   -1    0    0    0    0 -0.00000000000E+00 -0.00000000000E+00 -0.64999999231E+04  0.65000000000E+04  0.10000000000E+01 0.  0.
    9000001    1    1    2    0    0 -0.40250912548E+04  0.50989472398E+04  0.22220809245E+03  0.65000000000E+04  0.10000000000E+01 0.  0.
    9000001    1    1    2    0    0  0.40250912548E+04 -0.50989472398E+04 -0.22220809245E+03  0.65000000000E+04  0.10000000000E+01 0.  0.
</event>
<event>
 4    1  0.2193160E-006  0.1300000E+05  0.7957747E-01  0.1322471E+00
    9000001   -1    0    0    0    0  0.00000000000E+00  0.00000000000E+00  0.64999999231E+04  0.65000000000E+04  0.10000000000E+01 0.  0.
    9000001   -1    0    0    0    0 -0.00000000000E+00 -0.00000000000E+00 -0.64999999231E+04  0.65000000000E+04  0.10000000000E+01 0.  0.
    9000001    1    1    2    0    0 -0.32690546374E+04  0.26093039455E+04  0.49754209568E+04  0.65000000000E+04  0.10000000000E+01 0.  0.
    9000001    1    1    2    0    0  0.32690546374E+04 -0.26093039455E+04 -0.49754209568E+04  0.65000000000E+04  0.10000000000E+01 0.  0.
</event>
<event>
 4    1  0.2193160E-006  0.1300000E+05  0.7957747E-01  0.1322471E+00
    9000001   -1    0    0    0    0  0.00000000000E+00  0.00000000000E+00  0.64999999231E+04  0.65000000000E+04  0.10000000000E+01 0.  0.
    9000001   -1    0    0    0    0 -0.00000000000E+00 -0.00000000000E+00 -0.64999999231E+04  0.65000000000E+04  0.10000000000E+01 0.  0.
    9000001    1    1    2    0    0 -0.52116351616E+04  0.46942586941E+02  0.38841542627E+04  0.65000000000E+04  0.10000000000E+01 0.  0.
    9000001    1    1    2    0    0  0.52116351616E+04 -0.46942586941E+02 -0.38841542627E+04  0.65000000000E+04  0.10000000000E+01 0.  0.
</event>
<event>
 4    1  0.2193160E-006  0.1300000E+05  0.7957747E-01  0.1322471E+00
    9000001   -1    0    0    0    0  0.00000000000E+00  0.00000000000E+00  0.64999999231E+04  0.65000000000E+04  0.10000000000E+01 0.  0.
    9000001   -1    0    0    0    0 -0.00000000000E+00 -0.00000000000E+00 -0.64999999231E+04  0.65000000000E+04  0.10000000000E+01 0.  0.
    9000001    1    1    2    0    0  0.34155451257E+04 -0.25894205029E+04  0.48866094538E+04  0.65000000000E+04  0.10000000000E+01 0.  0.
    9000001    1    1    2    0    0 -0.34155451257E+04  0.25894205029E+04 -0.48866094538E+04  0.65000000000E+04  0.10000000000E+01 0.  0.
</event>
<event>
 4    1  0.2193160E-006  0.1300000E+05  0.7957747E-01  0.1322471E+00
    9000001   -1    0    0    0    0  0.00000000000E+00  0.00000000000E+00  0.64999999231E+04  0.65000000000E+04  0.10000000000E+01 0.  0.
    9000001   -1    0    0    0    0 -0.00000000000E+00 -0.00000000000E+00 -0.64999999231E+04  0.65000000000E+04  0.10000000000E+01 0.  0.
    9000001    1    1    2    0    0 -0.26549245462E+04  0.59113526695E+04  0.50723196978E+03  0.65000000000E+04  0.10000000000E+01 0.  0.
    9000001    1    1    2    0    0  0.26549245462E+04 -0.59113526695E+04 -0.50723196978E+03  0.65000000000E+04  0.10000000000E+01 0.  0.
</event>
<event>
 4    1  0.2193160E-006  0.1300000E+05  0.7957747E-01  0.1322471E+00
    9000001   -1    0    0    0    0  0.00000000000E+00  0.00000000000E+00  0.64999999231E+04  0.65000000000E+04  0.10000000000E+01 0.  0.
    9000001   -1    0    0    0    0 -0.00000000000E+00 -0.00000000000E+00 -0.64999999231E+04  0.65000000000E+04  0.10000000000E+01 0.  0.
    9000001    1    1    2    0    0  0.52338479089E+03  0.44616149171E+04  0.46978782117E+04  0.65000000000E+04  0.10000000000E+01 0.  0.
    9000001    1    1    2    0    0 -0.52338479089E+03 -0.44616149171E+04 -0.46978782117E+04  0.65000000000E+04  0.10000000000E+01 0.  0.
</event>
<event>
 4    1  0.2193160E-006  0.1300000E+05  0.7957747E-01  0.1322471E+00
    9000001   -1    0    0    0    0  0.00000000000E+00  0.00000000000E+00  0.64999999231E+04  0.65000000000E+04  0.10000000000E+01 0.  0.
    9000001   -1    0    0    0    0 -0.00000000000E+00 -0.00000000000E+00 -0.64999999231E+04  0.65000000000E+04  0.10000000000E+01 0.  0.
    9000001    1    1    2    0    0 -0.62986793810E+03  0.58106119071E+04  0.28443021369E+04  0.65000000000E+04  0.10000000000E+01 0.  0.
    9000001    1    1    2    0    0  0.62986793810E+03 -0.58106119071E+04 -0.28443021369E+04  0.65000000000E+04  0.10000000000E+01 0.  0.
</event>
<event>
 4    1  0.2193160E-006  0.1300000E+05  0.7957747E-01  0.1322471E+00
    9000001   -1    0    0    0    0  0.00000000000E+00  0.00000000000E+00  0.64999999231E+04  0.65000000000E+04  0.10000000000E+01 0.  0.
    9000001   -1    0    0    0    0 -0.00000000000E+00 -0.00000000000E+00 -0.64999999231E+04  0.65000000000E+04  0.10000000000E+01 0.  0.
    9000001    1    1    2    0    0  0.64289669775E+04  0.95026682640E+03  0.12399822724E+03  0.65000000000E+04  0.10000000000E+01 0.  0.
    9000001    1    1    2    0    0 -0.64289669775E+04 -0.95026682640E+03 -0.12399822724E+03  0.65000000000E+04  0.10000000000E+01 0.  0.
</event>
<event>
 4    1  0.2193160E-006  0.1300000E+05  0.7957747E-01  0.1322471E+00
    9000001   -1    0    0    0    0  0.00000000000E+00  0.00000000000E+00  0.64999999231E+04  0.65000000000E+04  0.10000000000E+01 0.  0.
    9000001   -1    0    0    0    0 -0.00000000000E+00 -0.00000000000E+00 -0.64999999231E+04  0.65000000000E+04  0.10000000000E+01 0.  0.
    9000001    1    1    2    0    0  0.24321027312E+04 -0.64693092614E+03 -0.59930255866E+04  0.65000000000E+04  0.10000000000E+01 0.  0.
    9000001    1    1    2    0    0 -0.24321027312E+04  0.64693092614E+03  0.59930255866E+04  0.65000000000E+04  0.10000000000E+01 0.  0.
</event>
<event>
 4    1  0.2193160E-006  0.1300000E+05  0.7957747E-01  0.1322471E+00
    9000001   -1    0    0    0    0  0.00000000000E+00  0.00000000000E+00  0.64999999231E+04  0.65000000000E+04  0.10000000000E+01 0.  0.
    9000001   -1    0    0    0    0 -0.00000000000E+00 -0.00000000000E+00 -0.64999999231E+04  0.65000000000E+04  0.10000000000E+01 0.  0.
    9000001    1    1    2    0    0 -0.43189413033E+04  0.10348215667E+03 -0.48565457335E+04  0.65000000000E+04  0.10000000000E+01 0.  0.
    9000001    1    1    2    0    0  0.43189413033E+04 -0.10348215667E+03  0.48565457335E+04  0.65000000000E+04  0.10000000000E+01 0.  0.
</event>
<event>
 4    1  0.2193160E-006  0.1300000E+05  0.7957747E-01  0.1322471E+00
    9000001   -1    0    0    0    0  0.00000000000E+00  0.00000000000E+00  0.64999999231E+04  0.65000000000E+04  0.10000000000E+01 0.  0.
    9000001   -1    0    0    0    0 -0.00000000000E+00 -0.00000000000E+00 -0.64999999231E+04  0.65000000000E+04  0.10000000000E+01 0.  0.
    9000001    1    1    2    0    0  0.13286476406E+04  0.63293622129E+04 -0.65105178327E+03  0.65000000000E+04  0.10000000000E+01 0.  0.
    9000001    1    1    2    0    0 -0.13286476406E+04 -0.63293622129E+04  0.65105178327E+03  0.65000000000E+04  0.10000000000E+01 0.  0.
</event>
<event>
 4    1  0.2193160E-006  0.1300000E+05  0.7957747E-01  0.1322471E+00
    9000001   -1    0    0    0    0  0.00000000000E+00  0.00000000000E+00  0.64999999231E+04  0.65000000000E+04  0.10000000000E+01 0.  0.
    9000001   -1    0    0    0    0 -0.00000000000E+00 -0.00000000000E+00 -0.64999999231E+04  0.65000000000E+04  0.10000000000E+01 0.  0.
    9000001    1    1    2    0    0  0.44716455482E+04 -0.46292244003E+04  0.90811152593E+03  0.65000000000E+04  0.10000000000E+01 0.  0.
    9000001    1    1    2    0    0 -0.44716455482E+04  0.46292244003E+04 -0.90811152593E+03  0.65000000000E+04  0.10000000000E+01 0.  0.
</event>
<event>
 4    1  0.2193160E-006  0.1300000E+05  0.7957747E-01  0.1322471E+00
    9000001   -1    0    0    0    0  0.00000000000E+00  0.00000000000E+00  0.64999999231E+04  0.65000000000E+04  0.10000000000E+01 0.  0.
    9000001   -1    0    0    0    0 -0.00000000000E+00 -0.00000000000E+00 -0.64999999231E+04  0.65000000000E+04  0.10000000000E+01 0.  0.
    9000001    1    1    2    0    0 -0.32681225234E+04 -0.49209991081E+03  0.55970717210E+04  0.65000000000E+04  0.10000000000E+01 0.  0.
    9000001    1    1    2    0    0  0.32681225234E+04  0.49209991081E+03 -0.55970717210E+04  0.65000000000E+04  0.10000000000E+01 0.  0.
</event>
<event>
 4    1  0.2193160E-006  0.1300000E+05  0.7957747E-01  0.1322471E+00
    9000001   -1    0    0    0    0  0.00000000000E+00  0.00000000000E+00  0.64999999231E+04  0.65000000000E+04  0.10000000000E+01 0.  0.
    9000001   -1    0    0    0    0 -0.00000000000E+00 -0.00000000000E+00 -0.64999999231E+04  0.65000000000E+04  0.10000000000E+01 0.  0.
    9000001    1    1    2    0    0  0.47753030950E+04  0.35303446799E+03  0.43956621817E+04  0.65000000000E+04  0.10000000000E+01 0.  0.
    9000001    1    1    2    0    0 -0.47753030950E+04 -0.35303446799E+03 -0.43956621817E+04  0.65000000000E+04  0.10000000000E+01 0.  0.
</event>
<event>
 4    1  0.2193160E-006  0.1300000E+05  0.7957747E-01  0.1322471E+00
    9000001   -1    0    0    0    0  0.00000000000E+00  0.00000000000E+00  0.64999999231E+04  0.65000000000E+04  0.10000000000E+01 0.  0.
    9000001   -1    0    0    0    0 -0.00000000000E+00 -0.00000000000E+00 -0.64999999231E+04  0.65000000000E+04  0.10000000000E+01 0.  0.
    9000001    1    1    2    0    0  0.29163807599E+04  0.39032870101E+04  0.43022171935E+04  0.65000000000E+04  0.10000000000E+01 0.  0.
    9000001    1    1    2    0    0 -0.29163807599E+04 -0.39032870101E+04 -0.43022171935E+04  0.65000000000E+04  0.10000000000E+01 0.  0.
</event>
<event>
 4    1  0.2193160E-006  0.1300000E+05  0.7957747E-01  0.1322471E+00
    9000001   -1    0    0    0    0  0.00000000000E+00  0.00000000000E+00  0.64999999231E+04  0.65000000000E+04  0.10000000000E+01 0.  0.
    9000001   -1    0    0    0    0 -0.00000000000E+00 -0.00000000000E+00 -0.64999999231E+04  0.65000000000E+04  0.10000000000E+01 0.  0.
    9000001    1    1    2    0    0 -0.62924681031E+04  0.14501300378E+04 -0.74294484623E+03  0.65000000000E+04  0.10000000000E+01 0.  0.
    9000001    1    1    2    0    0  0.62924681031E+04 -0.14501300378E+04  0.74294484623E+03  0.65000000000E+04  0.10000000000E+01 0.  0.
</event>
<event>
 4    1  0.2193160E-006  0.1300000E+05  0.7957747E-01  0.1322471E+00
    9000001   -1    0    0    0    0  0.00000000000E+00  0.00000000000E+00  0.64999999231E+04  0.65000000000E+04  0.10000000000E+01 0.  0.
    9000001   -1    0    0    0    0 -0.00000000000E+00 -0.00000000000E+00 -0.64999999231E+04  0.65000000000E+04  0.10000000000E+01 0.  0.
    9000001    1    1    2    0    0  0.15623798656E+04 -0.82348099171E+03  0.62554653873E+04  0.65000000000E+04  0.10000000000E+01 0.  0.
    9000001    1    1    2    0    0 -0.15623798656E+04  0.82348099171E+03 -0.62554653873E+04  0.65000000000E+04  0.10000000000E+01 0.  0.
</event>
<event>
 4    1  0.2193160E-006  0.1300000E+05  0.7957747E-01  0.1322471E+00
    9000001   -1    0    0    0    0  0.00000000000E+00  0.00000000000E+00  0.64999999231E+04  0.65000000000E+04  0.10000000000E+01 0.  0.
    9000001   -1    0    0    0    0 -0.00000000000E+00 -0.00000000000E+00 -0.64999999231E+04  0.65000000000E+04  0.10000000000E+01 0.  0.
    9000001    1    1    2    0    0 -0.50132350370E+04 -0.39885143709E+04  0.10996483876E+04  0.65000000000E+04  0.10000000000E+01 0.  0.
    9000001    1    1    2    0    0  0.50132350370E+04  0.39885143709E+04 -0.10996483876E+04  0.65000000000E+04  0.10000000000E+01 0.  0.
</event>
<event>
 4    1  0.2193160E-006  0.1300000E+05  0.7957747E-01  0.1322471E+00
    9000001   -1    0    0    0    0  0.00000000000E+00  0.00000000000E+00  0.64999999231E+04  0.65000000000E+04  0.10000000000E+01 0.  0.
    9000001   -1    0    0    0    0 -0.00000000000E+00 -0.00000000000E+00 -0.64999999231E+04  0.65000000000E+04  0.10000000000E+01 0.  0.
    9000001    1    1    2    0    0 -0.19569428754E+04  0.44923263011E+04 -0.42707584792E+04  0.65000000000E+04  0.10000000000E+01 0.  0.
    9000001    1    1    2    0    0  0.19569428754E+04 -0.44923263011E+04  0.42707584792E+04  0.65000000000E+04  0.10000000000E+01 0.  0.
</event>
<event>
 4    1  0.2193160E-006  0.1300000E+05  0.7957747E-01  0.1322471E+00
    9000001   -1    0    0    0    0  0.00000000000E+00  0.00000000000E+00  0.64999999231E+04  0.65000000000E+04  0.10000000000E+01 0.  0.
    9000001   -1    0    0    0    0 -0.00000000000E+00 -0.00000000000E+00 -0.64999999231E+04  0.65000000000E+04  0.10000000000E+01 0.  0.
    9000001    1    1    2    0    0  0.40002936085E+04  0.22573403655E+04  0.45991373669E+04  0.65000000000E+04  0.10000000000E+01 0.  0.
    9000001    1    1    2    0    0 -0.40002936085E+04 -0.22573403655E+04 -0.45991373669E+04  0.65000000000E+04  0.10000000000E+01 0.  0.
</event>
<event>
 4    1  0.2193160E-006  0.1300000E+05  0.7957747E-01  0.1322471E+00
    9000001   -1    0    0    0    0  0.00000000000E+00  0.00000000000E+00  0.64999999231E+04  0.65000000000E+04  0.10000000000E+01 0.  0.
    9000001   -1    0    0    0    0 -0.00000000000E+00 -0.00000000000E+00 -0.64999999231E+04  0.65000000000E+04  0.10000000000E+01 0.  0.
    9000001    1    1    2    0    0  0.77130336803E+03 -0.41023740428E+04 -0.49825312169E+04  0.65000000000E+04  0.10000000000E+01 0.  0.
    9000001    1    1    2    0    0 -0.77130336803E+03  0.41023740428E+04  0.49825312169E+04  0.65000000000E+04  0.10000000000E+01 0.  0.
</event>
<event>
 4    1  0.2193160E-006  0.1300000E+05  0.7957747E-01  0.1322471E+00
    9000001   -1    0    0    0    0  0.00000000000E+00  0.00000000000E+00  0.64999999231E+04  0.65000000000E+04  0.10000000000E+01 0.  0.
    9000001   -1    0    0    0    0 -0.00000000000E+00 -0.00000000000E+00 -0.64999999231E+04  0.65000000000E+04  0.10000000000E+01 0.  0.
    9000001    1    1    2    0    0  0.27780012524E+04  0.58603448299E+04 -0.43481779690E+03  0.65000000000E+04  0.10000000000E+01 0.  0.
    9000001    1    1    2    0    0 -0.27780012524E+04 -0.58603448299E+04  0.43481779690E+03  0.65000000000E+04  0.10000000000E+01 0.  0.
</event>
<event>
 4    1  0.2193160E-006  0.1300000E+05  0.7957747E-01  0.1322471E+00
    9000001   -1    0    0    0    0  0.00000000000E+00  0.00000000000E+00  0.64999999231E+04  0.65000000000E+04  0.10000000000E+01 0.  0.
    9000001   -1    0    0    0    0 -0.00000000000E+00 -0.00000000000E+00 -0.64999999231E+04  0.65000000000E+04  0.10000000000E+01 0.  0.
    9000001    1    1    2    0    0  0.39387607827E+04 -0.33386514850E+04 -0.39483627947E+04  0.65000000000E+04  0.10000000000E+01 0.  0.
    9000001    1    1    2    0    0 -0.39387607827E+04  0.33386514850E+04  0.39483627947E+04  0.65000000000E+04  0.10000000000E+01 0.  0.
</event>
<event>
 4    1  0.2193160E-006  0.1300000E+05  0.7957747E-01  0.1322471E+00
    9000001   -1    0    0    0    0  0.00000000000E+00  0.00000000000E+00  0.64999999231E+04  0.65000000000E+04  0.10000000000E+01 0.  0.
    9000001   -1    0    0    0    0 -0.00000000000E+00 -0.00000000000E+00 -0.64999999231E+04  0.65000000000E+04  0.10000000000E+01 0.  0.
    9000001    1    1    2    0    0  0.17075507736E+04  0.60899102480E+04 -0.14990872312E+04  0.65000000000E+04  0.10000000000E+01 0.  0.
    9000001    1    1    2    0    0 -0.17075507736E+04 -0.60899102480E+04  0.14990872312E+04  0.65000000000E+04  0.10000000000E+01 0.  0.
</event>
<event>
 4    1  0.2193160E-006  0.1300000E+05  0.7957747E-01  0.1322471E+00
    9000001   -1    0    0    0    0  0.00000000000E+00  0.00000000000E+00  0.64999999231E+04  0.65000000000E+04  0.10000000000E+01 0.  0.
    9000001   -1    0    0    0    0 -0.00000000000E+00 -0.00000000000E+00 -0.64999999231E+04  0.65000000000E+04  0.10000000000E+01 0.  0.
    9000001    1    1    2    0    0  0.18737908513E+04  0.23487640906E+04  0.57638714500E+04  0.65000000000E+04  0.10000000000E+01 0.  0.
    9000001    1    1    2    0    0 -0.18737908513E+04 -0.23487640906E+04 -0.57638714500E+04  0.65000000000E+04  0.10000000000E+01 0.  0.
</event>
<event>
 4    1  0.2193160E-006  0.1300000E+05  0.7957747E-01  0.1322471E+00
    9000001   -1    0    0    0    0  0.00000000000E+00  0.00000000000E+00  0.64999999231E+04  0.65000000000E+04  0.10000000000E+01 0.  0.
    9000001   -1    0    0    0    0 -0.00000000000E+00 -0.00000000000E+00 -0.64999999231E+04  0.65000000000E+04  0.10000000000E+01 0.  0.
    9000001    1    1    2    0    0 -0.29868093883E+04 -0.50412398132E+04 -0.28133378440E+04  0.65000000000E+04  0.10000000000E+01 0.  0.
    9000001    1    1    2    0    0  0.29868093883E+04  0.50412398132E+04  0.28133378440E+04  0.65000000000E+04  0.10000000000E+01 0.  0.
</event>
<event>
 4    1  0.2193160E-006  0.1300000E+05  0.7957747E-01  0.1322471E+00
    9000001   -1    0    0    0    0  0.00000000000E+00  0.00000000000E+00  0.64999999231E+04  0.65000000000E+04  0.10000000000E+01 0.  0.
    9000001   -1    0    0    0    0 -0.00000000000E+00 -0.00000000000E+00 -0.64999999231E+04  0.65000000000E+04  0.10000000000E+01 0.  0.
    9000001    1    1    2    0    0  0.33240095043E+04 -0.37924598227E+04 -0.41010008911E+04  0.65000000000E+04  0.10000000000E+01 0.  0.
    9000001    1    1    2    0    0 -0.33240095043E+04  0.37924598227E+04  0.41010008911E+04  0.65000000000E+04  0.10000000000E+01 0.  0.
</event>
<event>
 4    1  0.2193160E-006  0.1300000E+05  0.7957747E-01  0.1322471E+00
    9000001   -1    0    0    0    0  0.00000000000E+00  0.00000000000E+00  0.64999999231E+04  0.65000000000E+04  0.10000000000E+01 0.  0.
    9000001   -1    0    0    0    0 -0.00000000000E+00 -0.00000000000E+00 -0.64999999231E+04  0.65000000000E+04  0.10000000000E+01 0.  0.
    9000001    1    1    2    0    0  0.89135260073E+03 -0.44171278279E+04  0.46844926399E+04  0.65000000000E+04  0.10000000000E+01 0.  0.
    9000001    1    1    2    0    0 -0.89135260073E+03  0.44171278279E+04 -0.46844926399E+04  0.65000000000E+04  0.10000000000E+01 0.  0.
</event>
<event>
 4    1  0.2193160E-006  0.1300000E+05  0.7957747E-01  0.1322471E+00
    9000001   -1    0    0    0    0  0.00000000000E+00  0.00000000000E+00  0.64999999231E+04  0.65000000000E+04  0.10000000000E+01 0.  0.
    9000001   -1    0    0    0    0 -0.00000000000E+00 -0.00000000000E+00 -0.64999999231E+04  0.65000000000E+04  0.10000000000E+01 0.  0.
    9000001    1    1    2    0    0  0.32952478272E+04  0.42739659754E+04 -0.36227828528E+04  0.65000000000E+04  0.10000000000E+01 0.  0.
    9000001    1    1    2    0    0 -0.32952478272E+04 -0.42739659754E+04  0.36227828528E+04  0.65000000000E+04  0.10000000000E+01 0.  0.
</event>
<event>
 4    1  0.2193160E-006  0.1300000E+05  0.7957747E-01  0.1322471E+00
    9000001   -1    0    0    0    0  0.00000000000E+00  0.00000000000E+00  0.64999999231E+04  0.65000000000E+04  0.10000000000E+01 0.  0.
    9000001   -1    0    0    0    0 -0.00000000000E+00 -0.00000000000E+00 -0.64999999231E+04  0.65000000000E+04  0.10000000000E+01 0.  0.
    9000001    1    1    2    0    0  0.47540936989E+04  0.40759539282E+04  0.17421801505E+04  0.65000000000E+04  0.10000000000E+01 0.  0.
    9000001    1    1    2    0    0 -0.47540936989E+04 -0.40759539282E+04 -0.17421801505E+04  0.65000000000E+04  0.10000000000E+01 0.  0.
</event>
<event>
 4    1  0.2193160E-006  0.1300000E+05  0.7957747E-01  0.1322471E+00
    9000001   -1    0    0    0    0  0.00000000000E+00  0.00000000000E+00  0.64999999231E+04  0.65000000000E+04  0.10000000000E+01 0.  0.
    9000001   -1    0    0    0    0 -0.00000000000E+00 -0.00000000000E+00 -0.64999999231E+04  0.65000000000E+04  0.10000000000E+01 0.  0.
    9000001    1    1    2    0    0 -0.40104762028E+04 -0.22589883990E+04  0.45894499715E+04  0.65000000000E+04  0.10000000000E+01 0.  0.
    9000001    1    1    2    0    0  0.40104762028E+04  0.22589883990E+04 -0.45894499715E+04  0.65000000000E+04  0.10000000000E+01 0.  0.
</event>
<event>
 4    1  0.2193160E-006  0.1300000E+05  0.7957747E-01  0.1322471E+00
    9000001   -1    0    0    0    0  0.00000000000E+00  0.00000000000E+00  0.64999999231E+04  0.65000000000E+04  0.10000000000E+01 0.  0.
    9000001   -1    0    0    0    0 -0.00000000000E+00 -0.00000000000E+00 -0.64999999231E+04  0.65000000000E+04  0.10000000000E+01 0.  0.
    9000001    1    1    2    0    0  0.62633073206E+04  0.68206919285E+03 -0.15986750840E+04  0.65000000000E+04  0.10000000000E+01 0.  0.
    9000001    1    1    2    0    0 -0.62633073206E+04 -0.68206919285E+03  0.15986750840E+04  0.65000000000E+04  0.10000000000E+01 0.  0.
</event>
<event>
 4    1  0.2193160E-006  0.1300000E+05  0.7957747E-01  0.1322471E+00
    9000001   -1    0    0    0    0  0.00000000000E+00  0.00000000000E+00  0.64999999231E+04  0.65000000000E+04  0.10000000000E+01 0.  0.
    9000001   -1    0    0    0    0 -0.00000000000E+00 -0.00000000000E+00 -0.64999999231E+04  0.65000000000E+04  0.10000000000E+01 0.  0.
    9000001    1    1    2    0    0 -0.39958364057E+04  0.21793228335E+04 -0.46404571333E+04  0.65000000000E+04  0.10000000000E+01 0.  0.
    9000001    1    1    2    0    0  0.39958364057E+04 -0.21793228335E+04  0.46404571333E+04  0.65000000000E+04  0.10000000000E+01 0.  0.
</event>
<event>
 4    1  0.2193160E-006  0.1300000E+05  0.7957747E-01  0.1322471E+00
    9000001   -1    0    0    0    0  0.00000000000E+00  0.00000000000E+00  0.64999999231E+04  0.65000000000E+04  0.10000000000E+01 0.  0.
    9000001   -1    0    0    0    0 -0.00000000000E+00 -0.00000000000E+00 -0.64999999231E+04  0.65000000000E+04  0.10000000000E+01 0.  0.
    9000001    1    1    2    0    0 -0.48112568334E+04  0.43599603397E+04  0.30422445610E+03  0.65000000000E+04  0.10000000000E+01 0.  0.
    9000001    1    1    2    0    0  0.48112568334E+04 -0.43599603397E+04 -0.30422445610E+03  0.65000000000E+04  0.10000000000E+01 0.  0.
</event>
<event>
 4    1  0.2193160E-006  0.1300000E+05  0.7957747E-01  0.1322471E+00
    9000001   -1    0    0    0    0  0.00000000000E+00  0.00000000000E+00  0.64999999231E+04  0.65000000000E+04  0.10000000000E+01 0.  0.
    9000001   -1    0    0    0    0 -0.00000000000E+00 -0.00000000000E+00 -0.64999999231E+04  0.65000000000E+04  0.10000000000E+01 0.  0.
    9000001    1    1    2    0    0  0.58572883024E+04 -0.36787044848E+03  0.27940730263E+04  0.65000000000E+04  0.10000000000E+01 0.  0.
    9000001    1    1    2    0    0 -0.58572883024E+04  0.36787044848E+03 -0.27940730263E+04  0.65000000000E+04  0.10000000000E+01 0.  0.
</event>
<event>
 4    1  0.2193160E-006  0.1300000E+05  0.7957747E-01  0.1322471E+00
    9000001   -1    0    0    0    0  0.00000000000E+00  0.00000000000E+00  0.64999999231E+04  0.65000000000E+04  0.10000000000E+01 0.  0.
    9000001   -1    0    0    0    0 -0.00000000000E+00 -0.00000000000E+00 -0.64999999231E+04  0.65000000000E+04  0.10000000000E+01 0.  0.
    9000001    1    1    2    0    0 -0.64819858793E+04 -0.43644724884E+03 -0.20825911754E+03  0.65000000000E+04  0.10000000000E+01 0.  0.
    9000001    1    1    2    0    0  0.64819858793E+04  0.43644724884E+03  0.20825911754E+03  0.65000000000E+04  0.10000000000E+01 0.  0.
</event>
<event>
 4    1  0.2193160E-006  0.1300000E+05  0.7957747E-01  0.1322471E+00
    9000001   -1    0    0    0    0  0.00000000000E+00  0.00000000000E+00  0.64999999231E+04  0.65000000000E+04  0.10000000000E+01 0.  0.
    9000001   -1    0    0    0    0 -0.00000000000E+00 -0.00000000000E+00 -0.64999999231E+04  0.65000000000E+04  0.10000000000E+01 0.  0.
    9000001    1    1    2    0    0 -0.83542225414E+03 -0.62260361193E+04  0.16698930800E+04  0.65000000000E+04  0.10000000000E+01 0.  0.
    9000001    1    1    2    0    0  0.83542225414E+03  0.62260361193E+04 -0.16698930800E+04  0.65000000000E+04  0.10000000000E+01 0.  0.
</event>
<event>
 4    1  0.2193160E-006  0.1300000E+05  0.7957747E-01  0.1322471E+00
    9000001   -1    0    0    0    0  0.00000000000E+00  0.00000000000E+00  0.64999999231E+04  0.65000000000E+04  0.10000000000E+01 0.  0.
    9000001   -1    0    0    0    0 -0.00000000000E+00 -0.00000000000E+00 -0.64999999231E+04  0.65000000000E+04  0.10000000000E+01 0.  0.
    9000001    1    1    2    0    0 -0.31895546236E+04 -0.30133124844E+04 -0.47954862292E+04  0.65000000000E+04  0.10000000000E+01 0.  0.
    9000001    1    1    2    0    0  0.31895546236E+04  0.30133124844E+04  0.47954862292E+04  0.65000000000E+04  0.10000000000E+01 0.  0.
</event>
<event>
 4    1  0.2193160E-006  0.1300000E+05  0.7957747E-01  0.1322471E+00
    9000001   -1    0    0    0    0  0.00000000000E+00  0.00000000000E+00  0.64999999231E+04  0.65000000000E+04  0.10000000000E+01 0.  0.
    9000001   -1    0    0    0    0 -0.00000000000E+00 -0.00000000000E+00 -0.64999999231E+04  0.65000000000E+04  0.10000000000E+01 0.  0.
    9000001    1    1    2    0    0 -0.14875866855E+04 -0.58491838344E+04  0.24133241234E+04  0.65000000000E+04  0.10000000000E+01 0.  0.
    9000001    1    1    2    0    0  0.14875866855E+04  0.58491838344E+04 -0.24133241234E+04  0.65000000000E+04  0.10000000000E+01 0.  0.
</event>
<event>
 4    1  0.2193160E-006  0.1300000E+05  0.7957747E-01  0.1322471E+00
    9000001   -1    0    0    0    0  0.00000000000E+00  0.00000000000E+00  0.64999999231E+04  0.65000000000E+04  0.10000000000E+01 0.  0.
    9000001   -1    0    0    0    0 -0.00000000000E+00 -0.00000000000E+00 -0.64999999231E+04  0.65000000000E+04  0.10000000000E+01 0.  0.
    9000001    1    1    2    0    0 -0.57547827386E+02 -0.33620527726E+04  0.55626691796E+04  0.65000000000E+04  0.10000000000E+01 0.  0.
    9000001    1    1    2    0    0  0.57547827386E+02  0.33620527726E+04 -0.55626691796E+04  0.65000000000E+04  0.10000000000E+01 0.  0.
</event>
<event>
 4    1  0.2193160E-006  0.1300000E+05  0.7957747E-01  0.1322471E+00
    9000001   -1    0    0    0    0  0.00000000000E+00  0.00000000000E+00  0.64999999231E+04  0.65000000000E+04  0.10000000000E+01 0.  0.
    9000001   -1    0    0    0    0 -0.00000000000E+00 -0.00000000000E+00 -0.64999999231E+04  0.65000000000E+04  0.10000000000E+01 0.  0.
    9000001    1    1    2    0    0 -0.22572664925E+03  0.30599367551E+04  0.57302559746E+04  0.65000000000E+04  0.10000000000E+01 0.  0.
    9000001    1    1    2    0    0  0.22572664925E+03 -0.30599367551E+04 -0.57302559746E+04  0.65000000000E+04  0.10000000000E+01 0.  0.
</event>
<event>
 4    1  0.2193160E-006  0.1300000E+05  0.7957747E-01  0.1322471E+00
    9000001   -1    0    0    0    0  0.00000000000E+00  0.00000000000E+00  0.64999999231E+04  0.65000000000E+04  0.10000000000E+01 0.  0.
    9000001   -1    0    0    0    0 -0.00000000000E+00 -0.00000000000E+00 -0.64999999231E+04  0.65000000000E+04  0.10000000000E+01 0.  0.
    9000001    1    1    2    0    0 -0.15742675945E+04 -0.32586516149E+04 -0.53993397924E+04  0.65000000000E+04  0.10000000000E+01 0.  0.
    9000001    1    1    2    0    0  0.15742675945E+04  0.32586516149E+04  0.53993397924E+04  0.65000000000E+04  0.10000000000E+01 0.  0.
</event>
<event>
 4    1  0.2193160E-006  0.1300000E+05  0.7957747E-01  0.1322471E+00
    9000001   -1    0    0    0    0  0.00000000000E+00  0.00000000000E+00  0.64999999231E+04  0.65000000000E+04  0.10000000000E+01 0.  0.
    9000001   -1    0    0    0    0 -0.00000000000E+00 -0.00000000000E+00 -0.64999999231E+04  0.65000000000E+04  0.10000000000E+01 0.  0.
    9000001    1    1    2    0    0  0.99013049831E+03  0.60689717268E+04 -0.21064716414E+04  0.65000000000E+04  0.10000000000E+01 0.  0.
    9000001    1    1    2    0    0 -0.99013049831E+03 -0.60689717268E+04  0.21064716414E+04  0.65000000000E+04  0.10000000000E+01 0.  0.
</event>
<event>
 4    1  0.2193160E-006  0.1300000E+05  0.7957747E-01  0.1322471E+00
    9000001   -1    0    0    0    0  0.00000000000E+00  0.00000000000E+00  0.64999999231E+04  0.65000000000E+04  0.10000000000E+01 0.  0.
    9000001   -1    0    0    0    0 -0.00000000000E+00 -0.00000000000E+00 -0.64999999231E+04  0.65000000000E+04  0.10000000000E+01 0.  0.
    9000001    1    1    2    0    0  0.29497778609E+04 -0.35397052944E+04  0.45846805778E+04  0.65000000000E+04  0.10000000000E+01 0.  0.
    9000001    1    1    2    0    0 -0.29497778609E+04  0.35397052944E+04 -0.45846805778E+04  0.65000000000E+04  0.10000000000E+01 0.  0.
</event>
<event>
 4    1  0.2193160E-006  0.1300000E+05  0.7957747E-01  0.1322471E+00
    9000001   -1    0    0    0    0  0.00000000000E+00  0.00000000000E+00  0.64999999231E+04  0.65000000000E+04  0.10000000000E+01 0.  0.
    9000001   -1    0    0    0    0 -0.00000000000E+00 -0.00000000000E+00 -0.64999999231E+04  0.65000000000E+04  0.10000000000E+01 0.  0.
    9000001    1    1    2    0    0  0.59839298434E+04 -0.12394621755E+04 -0.22150205744E+04  0.65000000000E+04  0.10000000000E+01 0.  0.
    9000001    1    1    2    0    0 -0.59839298434E+04  0.12394621755E+04  0.22150205744E+04  0.65000000000E+04  0.10000000000E+01 0.  0.
</event>
<event>
 4    1  0.2193160E-006  0.1300000E+05  0.7957747E-01  0.1322471E+00
    9000001   -1    0    0    0    0  0.00000000000E+00  0.00000000000E+00  0.64999999231E+04  0.65000000000E+04  0.10000000000E+01 0.  0.
    9000001   -1    0    0    0    0 -0.00000000000E+00 -0.00000000000E+00 -0.64999999231E+04  0.65000000000E+04  0.10000000000E+01 0.  0.
    9000001    1    1    2    0    0  0.27241541887E+04 -0.56609283750E+04  0.16681944999E+04  0.65000000000E+04  0.10000000000E+01 0.  0.
    9000001    1    1    2    0    0 -0.27241541887E+04  0.56609283750E+04 -0.16681944999E+04  0.65000000000E+04  0.10000000000E+01 0.  0.
</event>
<event>
 4    1  0.2193160E-006  0.1300000E+05  0.7957747E-01  0.1322471E+00
    9000001   -1    0    0    0    0  0.00000000000E+00  0.00000000000E+00  0.64999999231E+04  0.65000000000E+04  0.10000000000E+01 0.  0.
    9000001   -1    0    0    0    0 -0.00000000000E+00 -0.00000000000E+00 -0.64999999231E+04  0.65000000000E+04  0.10000000000E+01 0.  0.
    9000001    1    1    2    0    0 -0.48752905891E+04  0.80032604437E+03  0.42238630298E+04  0.65000000000E+04  0.10000000000E+01 0.  0.
    9000001    1    1    2    0    0  0.48752905891E+04 -0.80032604437E+03 -0.42238630298E+04  0.65000000000E+04  0.10000000000E+01 0.  0.
</event>
<event>
 4    1  0.2193160E-006  0.1300000E+05  0.7957747E-01  0.1322471E+00
    9000001   -1    0    0    0    0  0.00000000000E+00  0.00000000000E+00  0.64999999231E+04  0.65000000000E+04  0.10000000000E+01 0.  0.
    9000001   -1    0    0    0    0 -0.00000000000E+00 -0.00000000000E+00 -0.64999999231E+04  0.65000000000E+04  0.10000000000E+01 0.  0.
    9000001    1    1    2    0    0 -0.17061383099E+02 -0.29839933462E+04  0.57745555343E+04  0.65000000000E+04  0.10000000000E+01 0.  0.
    9000001    1    1    2    0    0  0.17061383099E+02  0.29839933462E+04 -0.57745555343E+04  0.65000000000E+04  0.10000000000E+01 0.  0.
</event>
<event>
 4    1  0.2193160E-006  0.1300000E+05  0.7957747E-01  0.1322471E+00
    9000001   -1    0    0    0    0  0.00000000000E+00  0.00000000000E+00  0.64999999231E+04  0.65000000000E+04  0.10000000000E+01 0.  0.
    9000001   -1    0    0    0    0 -0.00000000000E+00 -0.00000000000E+00 -0.64999999231E+04  0.65000000000E+04  0.10000000000E+01 0.  0.
    9000001    1    1    2    0    0  0.45874050684E+04  0.42625327094E+04  0.17425638122E+04  0.65000000000E+04  0.10000000000E+01 0.  0.
    9000001    1    1    2    0    0 -0.45874050684E+04 -0.42625327094E+04 -0.17425638122E+04  0.65000000000E+04  0.10000000000E+01 0.  0.
</event>
<event>
 4    1  0.2193160E-006  0.1300000E+05  0.7957747E-01  0.1322471E+00
    9000001   -1    0    0    0    0  0.00000000000E+00  0.00000000000E+00  0.64999999231E+04  0.65000000000E+04  0.10000000000E+01 0.  0.
    9000001   -1    0    0    0    0 -0.00000000000E+00 -0.00000000000E+00 -0.64999999231E+04  0.65000000000E+04  0.10000000000E+01 0.  0.
    9000001    1    1    2    0    0 -0.25672356861E+03 -0.63844121757E+04 -0.11930520443E+04  0.65000000000E+04  0.10000000000E+01 0.  0.
    9000001    1    1    2    0    0  0.25672356861E+03  0.63844121757E+04  0.11930520443E+04  0.65000000000E+04  0.10000000000E+01 0.  0.
</event>
<event>
 4    1  0.2193160E-006  0.1300000E+05  0.7957747E-01  0.1322471E+00
    9000001   -1    0    0    0    0  0.00000000000E+00  0.00000000000E+00  0.64999999231E+04  0.65000000000E+04  0.10000000000E+01 0.  0.
    9000001   -1    0    0    0    0 -0.00000000000E+00 -0.00000000000E+00 -0.64999999231E+04  0.65000000000E+04  0.10000000000E+01 0.  0.
    9000001    1    1    2    0    0 -0.63898543503E+04 -0.10853569399E+04  0.49169166679E+03  0.65000000000E+04  0.10000000000E+01 0.  0.
    9000001    1    1    2    0    0  0.63898543503E+04  0.10853569399E+04 -0.49169166679E+03  0.65000000000E+04  0.10000000000E+01 0.  0.
</event>
<event>
 4    1  0.2193160E-006  0.1300000E+05  0.7957747E-01  0.1322471E+00
    9000001   -1    0    0    0    0  0.00000000000E+00  0.00000000000E+00  0.64999999231E+04  0.65000000000E+04  0.10000000000E+01 0.  0.
    9000001   -1    0    0    0    0 -0.00000000000E+00 -0.00000000000E+00 -0.64999999231E+04  0.65000000000E+04  0.10000000000E+01 0.  0.
    9000001    1    1    2    0    0  0.42953165760E+04  0.41254512644E+04 -0.26040173534E+04  0.65000000000E+04  0.10000000000E+01 0.  0.
    9000001    1    1    2    0    0 -0.42953165760E+04 -0.41254512644E+04  0.26040173534E+04  0.65000000000E+04  0.10000000000E+01 0.  0.
</event>
<event>
 4    1  0.2193160E-006  0.1300000E+05  0.7957747E-01  0.1322471E+00
    9000001   -1    0    0    0    0  0.00000000000E+00  0.00000000000E+00  0.64999999231E+04  0.65000000000E+04  0.10000000000E+01 0.  0.
    9000001   -1    0    0    0    0 -0.00000000000E+00 -0.00000000000E+00 -0.64999999231E+04  0.65000000000E+04  0.10000000000E+01 0.  0.
    9000001    1    1    2    0    0  0.59897027708E+03  0.16839691278E+04 -0.62494385015E+04  0.65000000000E+04  0.10000000000E+01 0.  0.
    9000001    1    1    2    0    0 -0.59897027708E+03 -0.16839691278E+04  0.62494385015E+04  0.65000000000E+04  0.10000000000E+01 0.  0.
</event>
<event>
 4    1  0.2193160E-006  0.1300000E+05  0.7957747E-01  0.1322471E+00
    9000001   -1    0    0    0    0  0.00000000000E+00  0.00000000000E+00  0.64999999231E+04  0.65000000000E+04  0.10000000000E+01 0.  0.
    9000001   -1    0    0    0    0 -0.00000000000E+00 -0.00000000000E+00 -0.64999999231E+04  0.65000000000E+04  0.10000000000E+01 0.  0.
    9000001    1    1    2    0    0  0.63089191156E+04 -0.36166423101E+03  0.15220833016E+04  0.65000000000E+04  0.10000000000E+01 0.  0.
    9000001    1    1    2    0    0 -0.63089191156E+04  0.36166423101E+03 -0.15220833016E+04  0.65000000000E+04  0.10000000000E+01 0.  0.
</event>
<event>
 4    1  0.2193160E-006  0.1300000E+05  0.7957747E-01  0.1322471E+00
    9000001   -1    0    0    0    0  0.00000000000E+00  0.00000000000E+00  0.64999999231E+04  0.65000000000E+04  0.10000000000E+01 0.  0.
    9000001   -1    0    0    0    0 -0.00000000000E+00 -0.00000000000E+00 -0.64999999231E+04  0.65000000000E+04  0.10000000000E+01 0.  0.
    9000001    1    1    2    0    0  0.64990943511E+04  0.10507653986E+03 -0.27028427002E+02  0.65000000000E+04  0.10000000000E+01 0.  0.
    9000001    1    1    2    0    0 -0.64990943511E+04 -0.10507653986E+03  0.27028427002E+02  0.65000000000E+04  0.10000000000E+01 0.  0.
</event>
<event>
 4    1  0.2193160E-006  0.1300000E+05  0.7957747E-01  0.1322471E+00
    9000001   -1    0    0    0    0  0.00000000000E+00  0.00000000000E+00  0.64999999231E+04  0.65000000000E+04  0.10000000000E+01 0.  0.
    9000001   -1    0    0    0    0 -0.00000000000E+00 -0.00000000000E+00 -0.64999999231E+04  0.65000000000E+04  0.10000000000E+01 0.  0.
    9000001    1    1    2    0    0 -0.48019863258E+03 -0.62392607579E+04 -0.17581335183E+04  0.65000000000E+04  0.10000000000E+01 0.  0.
    9000001    1    1    2    0    0  0.48019863258E+03  0.62392607579E+04  0.17581335183E+04  0.65000000000E+04  0.10000000000E+01 0.  0.
</event>
<event>
 4    1  0.2193160E-006  0.1300000E+05  0.7957747E-01  0.1322471E+00
    9000001   -1    0    0    0    0  0.00000000000E+00  0.00000000000E+00  0.64999999231E+04  0.65000000000E+04  0.10000000000E+01 0.  0.
    9000001   -1    0    0    0    0 -0.00000000000E+00 -0.00000000000E+00 -0.64999999231E+04  0.65000000000E+04  0.10000000000E+01 0.  0.
    9000001    1    1    2    0    0 -0.64200653633E+04 -0.24841234602E+03  0.98541921928E+03  0.65000000000E+04  0.10000000000E+01 0.  0.
    9000001    1    1    2    0    0  0.64200653633E+04  0.24841234602E+03 -0.98541921928E+03  0.65000000000E+04  0.10000000000E+01 0.  0.
</event>
<event>
 4    1  0.2193160E-006  0.1300000E+05  0.7957747E-01  0.1322471E+00
    9000001   -1    0    0    0    0  0.00000000000E+00  0.00000000000E+00  0.64999999231E+04  0.65000000000E+04  0.10000000000E+01 0.  0.
    9000001   -1    0    0    0    0 -0.00000000000E+00 -0.00000000000E+00 -0.64999999231E+04  0.65000000000E+04  0.10000000000E+01 0.  0.
    9000001    1    1    2    0    0 -0.51701974657E+04  0.11089874459E+04 -0.37801063492E+04  0.65000000000E+04  0.10000000000E+01 0.  0.
    9000001    1    1    2    0    0  0.51701974657E+04 -0.11089874459E+04  0.37801063492E+04  0.65000000000E+04  0.10000000000E+01 0.  0.
</event>
<event>
 4    1  0.2193160E-006  0.1300000E+05  0.7957747E-01  0.1322471E+00
    9000001   -1    0    0    0    0  0.00000000000E+00  0.00000000000E+00  0.64999999231E+04  0.65000000000E+04  0.10000000000E+01 0.  0.
    9000001   -1    0    0    0    0 -0.00000000000E+00 -0.00000000000E+00 -0.64999999231E+04  0.65000000000E+04  0.10000000000E+01 0.  0.
    9000001    1    1    2    0    0 -0.58940764929E+04 -0.26466442444E+04 -0.71072887906E+03  0.65000000000E+04  0.10000000000E+01 0.  0.
    9000001    1    1    2    0    0  0.58940764929E+04  0.26466442444E+04  0.71072887906E+03  0.65000000000E+04  0.10000000000E+01 0.  0.
</event>
<event>
 4    1  0.2193160E-006  0.1300000E+05  0.7957747E-01  0.1322471E+00
    9000001   -1    0    0    0    0  0.00000000000E+00  0.00000000000E+00  0.64999999231E+04  0.65000000000E+04  0.10000000000E+01 0.  0.
    9000001   -1    0    0    0    0 -0.00000000000E+00 -0.00000000000E+00 -0.64999999231E+04  0.65000000000E+04  0.10000000000E+01 0.  0.
    9000001    1    1    2    0    0  0.30163248866E+04 -0.44526346553E+04 -0.36504558353E+04  0.65000000000E+04  0.10000000000E+01 0.  0.
    9000001    1    1    2    0    0 -0.30163248866E+04  0.44526346553E+04  0.36504558353E+04  0.65000000000E+04  0.10000000000E+01 0.  0.
</event>
<event>
 4    1  0.2193160E-006  0.1300000E+05  0.7957747E-01  0.1322471E+00
    9000001   -1    0    0    0    0  0.00000000000E+00  0.00000000000E+00  0.64999999231E+04  0.65000000000E+04  0.10000000000E+01 0.  0.
    9000001   -1    0    0    0    0 -0.00000000000E+00 -0.00000000000E+00 -0.64999999231E+04  0.65000000000E+04  0.10000000000E+01 0.  0.
    9000001    1    1    2    0    0 -0.46467829704E+04  0.25872903400E+04 -0.37367547046E+04  0.65000000000E+04  0.10000000000E+01 0.  0.
    9000001    1    1    2    0    0  0.46467829704E+04 -0.25872903400E+04  0.37367547046E+04  0.65000000000E+04  0.10000000000E+01 0.  0.
</event>
<event>
 4    1  0.2193160E-006  0.1300000E+05  0.7957747E-01  0.1322471E+00
    9000001   -1    0    0    0    0  0.00000000000E+00  0.00000000000E+00  0.64999999231E+04  0.65000000000E+04  0.10000000000E+01 0.  0.
    9000001   -1    0    0    0    0 -0.00000000000E+00 -0.00000000000E+00 -0.64999999231E+04  0.65000000000E+04  0.10000000000E+01 0.  0.
    9000001    1    1    2    0    0 -0.22695038519E+04  0.12924147000E+03 -0.60895523570E+04  0.65000000000E+04  0.10000000000E+01 0.  0.
    9000001    1    1    2    0    0  0.22695038519E+04 -0.12924147000E+03  0.60895523570E+04  0.65000000000E+04  0.10000000000E+01 0.  0.
</event>
<event>
 4    1  0.2193160E-006  0.1300000E+05  0.7957747E-01  0.1322471E+00
    9000001   -1    0    0    0    0  0.00000000000E+00  0.00000000000E+00  0.64999999231E+04  0.65000000000E+04  0.10000000000E+01 0.  0.
    9000001   -1    0    0    0    0 -0.00000000000E+00 -0.00000000000E+00 -0.64999999231E+04  0.65000000000E+04  0.10000000000E+01 0.  0.
    9000001    1    1    2    0    0  0.48400563170E+04  0.29128246976E+04 -0.32154791445E+04  0.65000000000E+04  0.10000000000E+01 0.  0.
    9000001    1    1    2    0    0 -0.48400563170E+04 -0.29128246976E+04  0.32154791445E+04  0.65000000000E+04  0.10000000000E+01 0.  0.
</event>
<event>
 4    1  0.2193160E-006  0.1300000E+05  0.7957747E-01  0.1322471E+00
    9000001   -1    0    0    0    0  0.00000000000E+00  0.00000000000E+00  0.64999999231E+04  0.65000000000E+04  0.10000000000E+01 0.  0.
    9000001   -1    0    0    0    0 -0.00000000000E+00 -0.00000000000E+00 -0.64999999231E+04  0.65000000000E+04  0.10000000000E+01 0.  0.
    9000001    1    1    2    0    0 -0.37651608279E+04 -0.46345006642E+04  0.25680666919E+04  0.65000000000E+04  0.10000000000E+01 0.  0.
    9000001    1    1    2    0    0  0.37651608279E+04  0.46345006642E+04 -0.25680666919E+04  0.65000000000E+04  0.10000000000E+01 0.  0.
</event>
<event>
 4    1  0.2193160E-006  0.1300000E+05  0.7957747E-01  0.1322471E+00
    9000001   -1    0    0    0    0  0.00000000000E+00  0.00000000000E+00  0.64999999231E+04  0.65000000000E+04  0.10000000000E+01 0.  0.
    9000001   -1    0    0    0    0 -0.00000000000E+00 -0.00000000000E+00 -0.64999999231E+04  0.65000000000E+04  0.10000000000E+01 0.  0.
    9000001    1    1    2    0    0  0.44557518667E+04  0.36875488380E+04  0.29661857444E+04  0.65000000000E+04  0.10000000000E+01 0.  0.
    9000001    1    1    2    0    0 -0.44557518667E+04 -0.36875488380E+04 -0.29661857444E+04  0.65000000000E+04  0.10000000000E+01 0.  0.
</event>
<event>
 4    1  0.2193160E-006  0.1300000E+05  0.7957747E-01  0.1322471E+00
    9000001   -1    0    0    0    0  0.00000000000E+00  0.00000000000E+00  0.64999999231E+04  0.65000000000E+04  0.10000000000E+01 0.  0.
    9000001   -1    0    0    0    0 -0.00000000000E+00 -0.00000000000E+00 -0.64999999231E+04  0.65000000000E+04  0.10000000000E+01 0.  0.
    9000001    1    1    2    0    0 -0.31921677700E+04  0.22927137672E+04 -0.51772123300E+04  0.65000000000E+04  0.10000000000E+01 0.  0.
    9000001    1    1    2    0    0  0.31921677700E+04 -0.22927137672E+04  0.51772123300E+04  0.65000000000E+04  0.10000000000E+01 0.  0.
</event>
<event>
 4    1  0.2193160E-006  0.1300000E+05  0.7957747E-01  0.1322471E+00
    9000001   -1    0    0    0    0  0.00000000000E+00  0.00000000000E+00  0.64999999231E+04  0.65000000000E+04  0.10000000000E+01 0.  0.
    9000001   -1    0    0    0    0 -0.00000000000E+00 -0.00000000000E+00 -0.64999999231E+04  0.65000000000E+04  0.10000000000E+01 0.  0.
    9000001    1    1    2    0    0  0.25835143290E+04 -0.10329691312E+04  0.58743874136E+04  0.65000000000E+04  0.10000000000E+01 0.  0.
    9000001    1    1    2    0    0 -0.25835143290E+04  0.10329691312E+04 -0.58743874136E+04  0.65000000000E+04  0.10000000000E+01 0.  0.
</event>
<event>
 4    1  0.2193160E-006  0.1300000E+05  0.7957747E-01  0.1322471E+00
    9000001   -1    0    0    0    0  0.00000000000E+00  0.00000000000E+00  0.64999999231E+04  0.65000000000E+04  0.10000000000E+01 0.  0.
    9000001   -1    0    0    0    0 -0.00000000000E+00 -0.00000000000E+00 -0.64999999231E+04  0.65000000000E+04  0.10000000000E+01 0.  0.
    9000001    1    1    2    0    0 -0.16703649164E+04  0.35021623829E+04  0.52148574947E+04  0.65000000000E+04  0.10000000000E+01 0.  0.
    9000001    1    1    2    0    0  0.16703649164E+04 -0.35021623829E+04 -0.52148574947E+04  0.65000000000E+04  0.10000000000E+01 0.  0.
</event>
<event>
 4    1  0.2193160E-006  0.1300000E+05  0.7957747E-01  0.1322471E+00
    9000001   -1    0    0    0    0  0.00000000000E+00  0.00000000000E+00  0.64999999231E+04  0.65000000000E+04  0.10000000000E+01 0.  0.
    9000001   -1    0    0    0    0 -0.00000000000E+00 -0.00000000000E+00 -0.64999999231E+04  0.65000000000E+04  0.10000000000E+01 0.  0.
    9000001    1    1    2    0    0  0.33524742020E+04 -0.15567514024E+04 -0.53467224349E+04  0.65000000000E+04  0.10000000000E+01 0.  0.
    9000001    1    1    2    0    0 -0.33524742020E+04  0.15567514024E+04  0.53467224349E+04  0.65000000000E+04  0.10000000000E+01 0.  0.
</event>
<event>
 4    1  0.2193160E-006  0.1300000E+05  0.7957747E-01  0.1322471E+00
    9000001   -1    0    0    0    0  0.00000000000E+00  0.00000000000E+00  0.64999999231E+04  0.65000000000E+04  0.10000000000E+01 0.  0.
    9000001   -1    0    0    0    0 -0.00000000000E+00 -0.00000000000E+00 -0.64999999231E+04  0.65000000000E+04  0.10000000000E+01 0.  0.
    9000001    1    1    2    0    0  0.14841828830E+04  0.51212753249E+04 -0.37174909841E+04  0.65000000000E+04  0.10000000000E+01 0.  0.
    9000001    1    1    2    0    0 -0.14841828830E+04 -0.51212753249E+04  0.37174909841E+04  0.65000000000E+04  0.10000000000E+01 0.  0.
</event>
<event>
 4    1  0.2193160E-006  0.1300000E+05  0.7957747E-01  0.1322471E+00
    9000001   -1    0    0    0    0  0.00000000000E+00  0.00000000000E+00  0.64999999231E+04  0.65000000000E+04  0.10000000000E+01 0.  0.
    9000001   -1    0    0    0    0 -0.00000000000E+00 -0.00000000000E+00 -0.64999999231E+04  0.65000000000E+04  0.10000000000E+01 0.  0.
    9000001    1    1    2    0    0  0.37922373945E+04  0.27109047667E+04  0.45298929226E+04  0.65000000000E+04  0.10000000000E+01 0.  0.
    9000001    1    1    2    0    0 -0.37922373945E+04 -0.27109047667E+04 -0.45298929226E+04  0.65000000000E+04  0.10000000000E+01 0.  0.
</event>
<event>
 4    1  0.2193160E-006  0.1300000E+05  0.7957747E-01  0.1322471E+00
    9000001   -1    0    0    0    0  0.00000000000E+00  0.00000000000E+00  0.64999999231E+04  0.65000000000E+04  0.10000000000E+01 0.  0.
    9000001   -1    0    0    0    0 -0.00000000000E+00 -0.00000000000E+00 -0.64999999231E+04  0.65000000000E+04  0.10000000000E+01 0.  0.
    9000001    1    1    2    0    0 -0.46666331043E+04 -0.21193450899E+04 -0.39976131453E+04  0.65000000000E+04  0.10000000000E+01 0.  0.
    9000001    1    1    2    0    0  0.46666331043E+04  0.21193450899E+04  0.39976131453E+04  0.65000000000E+04  0.10000000000E+01 0.  0.
</event>
<event>
 4    1  0.2193160E-006  0.1300000E+05  0.7957747E-01  0.1322471E+00
    9000001   -1    0    0    0    0  0.00000000000E+00  0.00000000000E+00  0.64999999231E+04  0.65000000000E+04  0.10000000000E+01 0.  0.
    9000001   -1    0    0    0    0 -0.00000000000E+00 -0.00000000000E+00 -0.64999999231E+04  0.65000000000E+04  0.10000000000E+01 0.  0.
    9000001    1    1    2    0    0 -0.35425109699E+04  0.37349942526E+04  0.39686815141E+04  0.65000000000E+04  0.10000000000E+01 0.  0.
    9000001    1    1    2    0    0  0.35425109699E+04 -0.37349942526E+04 -0.39686815141E+04  0.65000000000E+04  0.10000000000E+01 0.  0.
</event>
<event>
 4    1  0.2193160E-006  0.1300000E+05  0.7957747E-01  0.1322471E+00
    9000001   -1    0    0    0    0  0.00000000000E+00  0.00000000000E+00  0.64999999231E+04  0.65000000000E+04  0.10000000000E+01 0.  0.
    9000001   -1    0    0    0    0 -0.00000000000E+00 -0.00000000000E+00 -0.64999999231E+04  0.65000000000E+04  0.10000000000E+01 0.  0.
    9000001    1    1    2    0    0  0.21009323276E+04 -0.42125831331E+04  0.44822121438E+04  0.65000000000E+04  0.10000000000E+01 0.  0.
    9000001    1    1    2    0    0 -0.21009323276E+04  0.42125831331E+04 -0.44822121438E+04  0.65000000000E+04  0.10000000000E+01 0.  0.
</event>
<event>
 4    1  0.2193160E-006  0.1300000E+05  0.7957747E-01  0.1322471E+00
    9000001   -1    0    0    0    0  0.00000000000E+00  0.00000000000E+00  0.64999999231E+04  0.65000000000E+04  0.10000000000E+01 0.  0.
    9000001   -1    0    0    0    0 -0.00000000000E+00 -0.00000000000E+00 -0.64999999231E+04  0.65000000000E+04  0.10000000000E+01 0.  0.
    9000001    1    1    2    0    0 -0.51978029104E+04  0.37859553949E+04  0.94835945339E+03  0.65000000000E+04  0.10000000000E+01 0.  0.
    9000001    1    1    2    0    0  0.51978029104E+04 -0.37859553949E+04 -0.94835945339E+03  0.65000000000E+04  0.10000000000E+01 0.  0.
</event>
<event>
 4    1  0.2193160E-006  0.1300000E+05  0.7957747E-01  0.1322471E+00
    9000001   -1    0    0    0    0  0.00000000000E+00  0.00000000000E+00  0.64999999231E+04  0.65000000000E+04  0.10000000000E+01 0.  0.
    9000001   -1    0    0    0    0 -0.00000000000E+00 -0.00000000000E+00 -0.64999999231E+04  0.65000000000E+04  0.10000000000E+01 0.  0.
    9000001    1    1    2    0    0  0.26267846830E+04 -0.27026697229E+04 -0.52958075492E+04  0.65000000000E+04  0.10000000000E+01 0.  0.
    9000001    1    1    2    0    0 -0.26267846830E+04  0.27026697229E+04  0.52958075492E+04  0.65000000000E+04  0.10000000000E+01 0.  0.
</event>
<event>
 4    1  0.2193160E-006  0.1300000E+05  0.7957747E-01  0.1322471E+00
    9000001   -1    0    0    0    0  0.00000000000E+00  0.00000000000E+00  0.64999999231E+04  0.65000000000E+04  0.10000000000E+01 0.  0.
    9000001   -1    0    0    0    0 -0.00000000000E+00 -0.00000000000E+00 -0.64999999231E+04  0.65000000000E+04  0.10000000000E+01 0.  0.
    9000001    1    1    2    0    0 -0.56867070934E+04  0.18256366554E+04  0.25648415616E+04  0.65000000000E+04  0.10000000000E+01 0.  0.
    9000001    1    1    2    0    0  0.56867070934E+04 -0.18256366554E+04 -0.25648415616E+04  0.65000000000E+04  0.10000000000E+01 0.  0.
</event>
<event>
 4    1  0.2193160E-006  0.1300000E+05  0.7957747E-01  0.1322471E+00
    9000001   -1    0    0    0    0  0.00000000000E+00  0.00000000000E+00  0.64999999231E+04  0.65000000000E+04  0.10000000000E+01 0.  0.
    9000001   -1    0    0    0    0 -0.00000000000E+00 -0.00000000000E+00 -0.64999999231E+04  0.65000000000E+04  0.10000000000E+01 0.  0.
    9000001    1    1    2    0    0 -0.40225579177E+04 -0.50922459033E+04  0.37156218713E+03  0.65000000000E+04  0.10000000000E+01 0.  0.
    9000001    1    1    2    0    0  0.40225579177E+04  0.50922459033E+04 -0.37156218713E+03  0.65000000000E+04  0.10000000000E+01 0.  0.
</event>
<event>
 4    1  0.2193160E-006  0.1300000E+05  0.7957747E-01  0.1322471E+00
    9000001   -1    0    0    0    0  0.00000000000E+00  0.00000000000E+00  0.64999999231E+04  0.65000000000E+04  0.10000000000E+01 0.  0.
    9000001   -1    0    0    0    0 -0.00000000000E+00 -0.00000000000E+00 -0.64999999231E+04  0.65000000000E+04  0.10000000000E+01 0.  0.
    9000001    1    1    2    0    0 -0.26114476721E+04 -0.51684920234E+04 -0.29524617288E+04  0.65000000000E+04  0.10000000000E+01 0.  0.
    9000001    1    1    2    0    0  0.26114476721E+04  0.51684920234E+04  0.29524617288E+04  0.65000000000E+04  0.10000000000E+01 0.  0.
</event>
<event>
 4    1  0.2193160E-006  0.1300000E+05  0.7957747E-01  0.1322471E+00
    9000001   -1    0    0    0    0  0.00000000000E+00  0.00000000000E+00  0.64999999231E+04  0.65000000000E+04  0.10000000000E+01 0.  0.
    9000001   -1    0    0    0    0 -0.00000000000E+00 -0.00000000000E+00 -0.64999999231E+04  0.65000000000E+04  0.10000000000E+01 0.  0.
    9000001    1    1    2    0    0 -0.33896243540E+04  0.54874762512E+03  0.55189964470E+04  0.65000000000E+04  0.10000000000E+01 0.  0.
    9000001    1    1    2    0    0  0.33896243540E+04 -0.54874762512E+03 -0.55189964470E+04  0.65000000000E+04  0.10000000000E+01 0.  0.
</event>
<event>
 4    1  0.2193160E-006  0.1300000E+05  0.7957747E-01  0.1322471E+00
    9000001   -1    0    0    0    0  0.00000000000E+00  0.00000000000E+00  0.64999999231E+04  0.65000000000E+04  0.10000000000E+01 0.  0.
    9000001   -1    0    0    0    0 -0.00000000000E+00 -0.00000000000E+00 -0.64999999231E+04  0.65000000000E+04  0.10000000000E+01 0.  0.
    9000001    1    1    2    0    0 -0.60053334173E+04 -0.91773175609E+03  0.23116526494E+04  0.65000000000E+04  0.10000000000E+01 0.  0.
    9000001    1    1    2    0    0  0.60053334173E+04  0.91773175609E+03 -0.23116526494E+04  0.65000000000E+04  0.10000000000E+01 0.  0.
</event>
<event>
 4    1  0.2193160E-006  0.1300000E+05  0.7957747E-01  0.1322471E+00
    9000001   -1    0    0    0    0  0.00000000000E+00  0.00000000000E+00  0.64999999231E+04  0.65000000000E+04  0.10000000000E+01 0.  0.
    9000001   -1    0    0    0    0 -0.00000000000E+00 -0.00000000000E+00 -0.64999999231E+04  0.65000000000E+04  0.10000000000E+01 0.  0.
    9000001    1    1    2    0    0 -0.17917739907E+04 -0.61520776347E+04  0.10915519881E+04  0.65000000000E+04  0.10000000000E+01 0.  0.
    9000001    1    1    2    0    0  0.17917739907E+04  0.61520776347E+04 -0.10915519881E+04  0.65000000000E+04  0.10000000000E+01 0.  0.
</event>
<event>
 4    1  0.2193160E-006  0.1300000E+05  0.7957747E-01  0.1322471E+00
    9000001   -1    0    0    0    0  0.00000000000E+00  0.00000000000E+00  0.64999999231E+04  0.65000000000E+04  0.10000000000E+01 0.  0.
    9000001   -1    0    0    0    0 -0.00000000000E+00 -0.00000000000E+00 -0.64999999231E+04  0.65000000000E+04  0.10000000000E+01 0.  0.
    9000001    1    1    2    0    0 -0.10098390941E+04 -0.29705765835E+04 -0.56926179185E+04  0.65000000000E+04  0.10000000000E+01 0.  0.
    9000001    1    1    2    0    0  0.10098390941E+04  0.29705765835E+04  0.56926179185E+04  0.65000000000E+04  0.10000000000E+01 0.  0.
</event>
<event>
 4    1  0.2193160E-006  0.1300000E+05  0.7957747E-01  0.1322471E+00
    9000001   -1    0    0    0    0  0.00000000000E+00  0.00000000000E+00  0.64999999231E+04  0.65000000000E+04  0.10000000000E+01 0.  0.
    9000001   -1    0    0    0    0 -0.00000000000E+00 -0.00000000000E+00 -0.64999999231E+04  0.65000000000E+04  0.10000000000E+01 0.  0.
    9000001    1    1    2    0    0  0.80633221564E+03 -0.38525265450E+04  0.51728006513E+04  0.65000000000E+04  0.10000000000E+01 0.  0.
    9000001    1    1    2    0    0 -0.80633221564E+03  0.38525265450E+04 -0.51728006513E+04  0.65000000000E+04  0.10000000000E+01 0.  0.
</event>
<event>
 4    1  0.2193160E-006  0.1300000E+05  0.7957747E-01  0.1322471E+00
    9000001   -1    0    0    0    0  0.00000000000E+00  0.00000000000E+00  0.64999999231E+04  0.65000000000E+04  0.10000000000E+01 0.  0.
    9000001   -1    0    0    0    0 -0.00000000000E+00 -0.00000000000E+00 -0.64999999231E+04  0.65000000000E+04  0.10000000000E+01 0.  0.
    9000001    1    1    2    0    0 -0.37588889410E+04 -0.43240281450E+02 -0.53027241308E+04  0.65000000000E+04  0.10000000000E+01 0.  0.
    9000001    1    1    2    0    0  0.37588889410E+04  0.43240281450E+02  0.53027241308E+04  0.65000000000E+04  0.10000000000E+01 0.  0.
</event>
<event>
 4    1  0.2193160E-006  0.1300000E+05  0.7957747E-01  0.1322471E+00
    9000001   -1    0    0    0    0  0.00000000000E+00  0.00000000000E+00  0.64999999231E+04  0.65000000000E+04  0.10000000000E+01 0.  0.
    9000001   -1    0    0    0    0 -0.00000000000E+00 -0.00000000000E+00 -0.64999999231E+04  0.65000000000E+04  0.10000000000E+01 0.  0.
    9000001    1    1    2    0    0 -0.16110381542E+04  0.59565653728E+04  0.20430085721E+04  0.65000000000E+04  0.10000000000E+01 0.  0.
    9000001    1    1    2    0    0  0.16110381542E+04 -0.59565653728E+04 -0.20430085721E+04  0.65000000000E+04  0.10000000000E+01 0.  0.
</event>
<event>
 4    1  0.2193160E-006  0.1300000E+05  0.7957747E-01  0.1322471E+00
    9000001   -1    0    0    0    0  0.00000000000E+00  0.00000000000E+00  0.64999999231E+04  0.65000000000E+04  0.10000000000E+01 0.  0.
    9000001   -1    0    0    0    0 -0.00000000000E+00 -0.00000000000E+00 -0.64999999231E+04  0.65000000000E+04  0.10000000000E+01 0.  0.
    9000001    1    1    2    0    0  0.46519804863E+04 -0.16886889523E+04 -0.42139537465E+04  0.65000000000E+04  0.10000000000E+01 0.  0.
    9000001    1    1    2    0    0 -0.46519804863E+04  0.16886889523E+04  0.42139537465E+04  0.65000000000E+04  0.10000000000E+01 0.  0.
</event>
<event>
 4    1  0.2193160E-006  0.1300000E+05  0.7957747E-01  0.1322471E+00
    9000001   -1    0    0    0    0  0.00000000000E+00  0.00000000000E+00  0.64999999231E+04  0.65000000000E+04  0.10000000000E+01 0.  0.
    9000001   -1    0    0    0    0 -0.00000000000E+00 -0.00000000000E+00 -0.64999999231E+04  0.65000000000E+04  0.10000000000E+01 0.  0.
    9000001    1    1    2    0    0 -0.26782638420E+04  0.39133203891E+04 -0.44455399363E+04  0.65000000000E+04  0.10000000000E+01 0.  0.
    9000001    1    1    2    0    0  0.26782638420E+04 -0.39133203891E+04  0.44455399363E+04  0.65000000000E+04  0.10000000000E+01 0.  0.
</event>
<event>
 4    1  0.2193160E-006  0.1300000E+05  0.7957747E-01  0.1322471E+00
    9000001   -1    0    0    0    0  0.00000000000E+00  0.00000000000E+00  0.64999999231E+04  0.65000000000E+04  0.10000000000E+01 0.  0.
    9000001   -1    0    0    0    0 -0.00000000000E+00 -0.00000000000E+00 -0.64999999231E+04  0.65000000000E+04  0.10000000000E+01 0.  0.
    9000001    1    1    2    0    0  0.43129938204E+04 -0.48607423138E+04  0.14583368856E+03  0.65000000000E+04  0.10000000000E+01 0.  0.
    9000001    1    1    2    0    0 -0.43129938204E+04  0.48607423138E+04 -0.14583368856E+03  0.65000000000E+04  0.10000000000E+01 0.  0.
</event>
<event>
 4    1  0.2193160E-006  0.1300000E+05  0.7957747E-01  0.1322471E+00
    9000001   -1    0    0    0    0  0.00000000000E+00  0.00000000000E+00  0.64999999231E+04  0.65000000000E+04  0.10000000000E+01 0.  0.
    9000001   -1    0    0    0    0 -0.00000000000E+00 -0.00000000000E+00 -0.64999999231E+04  0.65000000000E+04  0.10000000000E+01 0.  0.
    9000001    1    1    2    0    0  0.53905516090E+04  0.34534363770E+04 -0.11250464613E+04  0.65000000000E+04  0.10000000000E+01 0.  0.
    9000001    1    1    2    0    0 -0.53905516090E+04 -0.34534363770E+04  0.11250464613E+04  0.65000000000E+04  0.10000000000E+01 0.  0.
</event>
<event>
 4    1  0.2193160E-006  0.1300000E+05  0.7957747E-01  0.1322471E+00
    9000001   -1    0    0    0    0  0.00000000000E+00  0.00000000000E+00  0.64999999231E+04  0.65000000000E+04  0.10000000000E+01 0.  0.
    9000001   -1    0    0    0    0 -0.00000000000E+00 -0.00000000000E+00 -0.64999999231E+04  0.65000000000E+04  0.10000000000E+01 0.  0.
    9000001    1    1    2    0    0  0.55072856236E+03 -0.14896750193E+04  0.63029806748E+04  0.65000000000E+04  0.10000000000E+01 0.  0.
    9000001    1    1    2    0    0 -0.55072856236E+03  0.14896750193E+04 -0.63029806748E+04  0.65000000000E+04  0.10000000000E+01 0.  0.
</event>
<event>
 4    1  0.2193160E-006  0.1300000E+05  0.7957747E-01  0.1322471E+00
    9000001   -1    0    0    0    0  0.00000000000E+00  0.00000000000E+00  0.64999999231E+04  0.65000000000E+04  0.10000000000E+01 0.  0.
    9000001   -1    0    0    0    0 -0.00000000000E+00 -0.00000000000E+00 -0.64999999231E+04  0.65000000000E+04  0.10000000000E+01 0.  0.
    9000001    1    1    2    0    0  0.50544805726E+04 -0.23786698318E+04 -0.33232747362E+04  0.65000000000E+04  0.10000000000E+01 0.  0.
    9000001    1    1    2    0    0 -0.50544805726E+04  0.23786698318E+04  0.33232747362E+04  0.65000000000E+04  0.10000000000E+01 0.  0.
</event>
<event>
 4    1  0.2193160E-006  0.1300000E+05  0.7957747E-01  0.1322471E+00
    9000001   -1    0    0    0    0  0.00000000000E+00  0.00000000000E+00  0.64999999231E+04  0.65000000000E+04  0.10000000000E+01 0.  0.
    9000001   -1    0    0    0    0 -0.00000000000E+00 -0.00000000000E+00 -0.64999999231E+04  0.65000000000E+04  0.10000000000E+01 0.  0.
    9000001    1    1    2    0    0  0.63164287745E+04  0.10153892338E+04 -0.11496570101E+04  0.65000000000E+04  0.10000000000E+01 0.  0.
    9000001    1    1    2    0    0 -0.63164287745E+04 -0.10153892338E+04  0.11496570101E+04  0.65000000000E+04  0.10000000000E+01 0.  0.
</event>
<event>
 4    1  0.2193160E-006  0.1300000E+05  0.7957747E-01  0.1322471E+00
    9000001   -1    0    0    0    0  0.00000000000E+00  0.00000000000E+00  0.64999999231E+04  0.65000000000E+04  0.10000000000E+01 0.  0.
    9000001   -1    0    0    0    0 -0.00000000000E+00 -0.00000000000E+00 -0.64999999231E+04  0.65000000000E+04  0.10000000000E+01 0.  0.
    9000001    1    1    2    0    0 -0.64930354252E+03 -0.61387163495E+04 -0.20358205937E+04  0.65000000000E+04  0.10000000000E+01 0.  0.
    9000001    1    1    2    0    0  0.64930354252E+03  0.61387163495E+04  0.20358205937E+04  0.65000000000E+04  0.10000000000E+01 0.  0.
</event>
<event>
 4    1  0.2193160E-006  0.1300000E+05  0.7957747E-01  0.1322471E+00
    9000001   -1    0    0    0    0  0.00000000000E+00  0.00000000000E+00  0.64999999231E+04  0.65000000000E+04  0.10000000000E+01 0.  0.
    9000001   -1    0    0    0    0 -0.00000000000E+00 -0.00000000000E+00 -0.64999999231E+04  0.65000000000E+04  0.10000000000E+01 0.  0.
    9000001    1    1    2    0    0 -0.12419687637E+04  0.63700612048E+04 -0.36032323975E+03  0.65000000000E+04  0.10000000000E+01 0.  0.
    9000001    1    1    2    0    0  0.12419687637E+04 -0.63700612048E+04  0.36032323975E+03  0.65000000000E+04  0.10000000000E+01 0.  0.
</event>
<event>
 4    1  0.2193160E-006  0.1300000E+05  0.7957747E-01  0.1322471E+00
    9000001   -1    0    0    0    0  0.00000000000E+00  0.00000000000E+00  0.64999999231E+04  0.65000000000E+04  0.10000000000E+01 0.  0.
    9000001   -1    0    0    0    0 -0.00000000000E+00 -0.00000000000E+00 -0.64999999231E+04  0.65000000000E+04  0.10000000000E+01 0.  0.
    9000001    1    1    2    0    0 -0.38947121929E+04  0.49203674738E+04 -0.16944615244E+04  0.65000000000E+04  0.10000000000E+01 0.  0.
    9000001    1    1    2    0    0  0.38947121929E+04 -0.49203674738E+04  0.16944615244E+04  0.65000000000E+04  0.10000000000E+01 0.  0.
</event>
<event>
 4    1  0.2193160E-006  0.1300000E+05  0.7957747E-01  0.1322471E+00
    9000001   -1    0    0    0    0  0.00000000000E+00  0.00000000000E+00  0.64999999231E+04  0.65000000000E+04  0.10000000000E+01 0.  0.
    9000001   -1    0    0    0    0 -0.00000000000E+00 -0.00000000000E+00 -0.64999999231E+04  0.65000000000E+04  0.10000000000E+01 0.  0.
    9000001    1    1    2    0    0 -0.55731096063E+04  0.33039234514E+04  0.52396387631E+03  0.65000000000E+04  0.10000000000E+01 0.  0.
    9000001    1    1    2    0    0  0.55731096063E+04 -0.33039234514E+04 -0.52396387631E+03  0.65000000000E+04  0.10000000000E+01 0.  0.
</event>
<event>
 4    1  0.2193160E-006  0.1300000E+05  0.7957747E-01  0.1322471E+00
    9000001   -1    0    0    0    0  0.00000000000E+00  0.00000000000E+00  0.64999999231E+04  0.65000000000E+04  0.10000000000E+01 0.  0.
    9000001   -1    0    0    0    0 -0.00000000000E+00 -0.00000000000E+00 -0.64999999231E+04  0.65000000000E+04  0.10000000000E+01 0.  0.
    9000001    1    1    2    0    0 -0.64618959831E+04  0.49128176519E+03  0.50253510446E+03  0.65000000000E+04  0.10000000000E+01 0.  0.
    9000001    1    1    2    0    0  0.64618959831E+04 -0.49128176519E+03 -0.50253510446E+03  0.65000000000E+04  0.10000000000E+01 0.  0.
</event>
<event>
 4    1  0.2193160E-006  0.1300000E+05  0.7957747E-01  0.1322471E+00
    9000001   -1    0    0    0    0  0.00000000000E+00  0.00000000000E+00  0.64999999231E+04  0.65000000000E+04  0.10000000000E+01 0.  0.
    9000001   -1    0    0    0    0 -0.00000000000E+00 -0.00000000000E+00 -0.64999999231E+04  0.65000000000E+04  0.10000000000E+01 0.  0.
    9000001    1    1    2    0    0 -0.10310476407E+04 -0.51495338407E+04  0.38300445148E+04  0.65000000000E+04  0.10000000000E+01 0.  0.
    9000001    1    1    2    0    0  0.10310476407E+04  0.51495338407E+04 -0.38300445148E+04  0.65000000000E+04  0.10000000000E+01 0.  0.
</event>
<event>
 4    1  0.2193160E-006  0.1300000E+05  0.7957747E-01  0.1322471E+00
    9000001   -1    0    0    0    0  0.00000000000E+00  0.00000000000E+00  0.64999999231E+04  0.65000000000E+04  0.10000000000E+01 0.  0.
    9000001   -1    0    0    0    0 -0.00000000000E+00 -0.00000000000E+00 -0.64999999231E+04  0.65000000000E+04  0.10000000000E+01 0.  0.
    9000001    1    1    2    0    0  0.54508839932E+04 -0.23759852584E+04  0.26253679257E+04  0.65000000000E+04  0.10000000000E+01 0.  0.
    9000001    1    1    2    0    0 -0.54508839932E+04  0.23759852584E+04 -0.26253679257E+04  0.65000000000E+04  0.10000000000E+01 0.  0.
</event>
<event>
 4    1  0.2193160E-006  0.1300000E+05  0.7957747E-01  0.1322471E+00
    9000001   -1    0    0    0    0  0.00000000000E+00  0.00000000000E+00  0.64999999231E+04  0.65000000000E+04  0.10000000000E+01 0.  0.
    9000001   -1    0    0    0    0 -0.00000000000E+00 -0.00000000000E+00 -0.64999999231E+04  0.65000000000E+04  0.10000000000E+01 0.  0.
    9000001    1    1    2    0    0 -0.59281443894E+04 -0.25198227730E+04 -0.87040007489E+03  0.65000000000E+04  0.10000000000E+01 0.  0.
    9000001    1    1    2    0    0  0.59281443894E+04  0.25198227730E+04  0.87040007489E+03  0.65000000000E+04  0.10000000000E+01 0.  0.
</event>
<event>
 4    1  0.2193160E-006  0.1300000E+05  0.7957747E-01  0.1322471E+00
    9000001   -1    0    0    0    0  0.00000000000E+00  0.00000000000E+00  0.64999999231E+04  0.65000000000E+04  0.10000000000E+01 0.  0.
    9000001   -1    0    0    0    0 -0.00000000000E+00 -0.00000000000E+00 -0.64999999231E+04  0.65000000000E+04  0.10000000000E+01 0.  0.
    9000001    1    1    2    0    0  0.74390892662E+03 -0.33527839963E+03 -0.64485802239E+04  0.65000000000E+04  0.10000000000E+01 0.  0.
    9000001    1    1    2    0    0 -0.74390892662E+03  0.33527839963E+03  0.64485802239E+04  0.65000000000E+04  0.10000000000E+01 0.  0.
</event>
<event>
 4    1  0.2193160E-006  0.1300000E+05  0.7957747E-01  0.1322471E+00
    9000001   -1    0    0    0    0  0.00000000000E+00  0.00000000000E+00  0.64999999231E+04  0.65000000000E+04  0.10000000000E+01 0.  0.
    9000001   -1    0    0    0    0 -0.00000000000E+00 -0.00000000000E+00 -0.64999999231E+04  0.65000000000E+04  0.10000000000E+01 0.  0.
    9000001    1    1    2    0    0 -0.72603997244E+03  0.40202671742E+04 -0.50557211955E+04  0.65000000000E+04  0.10000000000E+01 0.  0.
    9000001    1    1    2    0    0  0.72603997244E+03 -0.40202671742E+04  0.50557211955E+04  0.65000000000E+04  0.10000000000E+01 0.  0.
</event>
<event>
 4    1  0.2193160E-006  0.1300000E+05  0.7957747E-01  0.1322471E+00
    9000001   -1    0    0    0    0  0.00000000000E+00  0.00000000000E+00  0.64999999231E+04  0.65000000000E+04  0.10000000000E+01 0.  0.
    9000001   -1    0    0    0    0 -0.00000000000E+00 -0.00000000000E+00 -0.64999999231E+04  0.65000000000E+04  0.10000000000E+01 0.  0.
    9000001    1    1    2    0    0  0.35245259282E+04  0.36050978658E+03 -0.54495640812E+04  0.65000000000E+04  0.10000000000E+01 0.  0.
    9000001    1    1    2    0    0 -0.35245259282E+04 -0.36050978658E+03  0.54495640812E+04  0.65000000000E+04  0.10000000000E+01 0.  0.
</event>
<event>
 4    1  0.2193160E-006  0.1300000E+05  0.7957747E-01  0.1322471E+00
    9000001   -1    0    0    0    0  0.00000000000E+00  0.00000000000E+00  0.64999999231E+04  0.65000000000E+04  0.10000000000E+01 0.  0.
    9000001   -1    0    0    0    0 -0.00000000000E+00 -0.00000000000E+00 -0.64999999231E+04  0.65000000000E+04  0.10000000000E+01 0.  0.
    9000001    1    1    2    0    0  0.53037303046E+03  0.62501859703E+04 -0.17040771068E+04  0.65000000000E+04  0.10000000000E+01 0.  0.
    9000001    1    1    2    0    0 -0.53037303046E+03 -0.62501859703E+04  0.17040771068E+04  0.65000000000E+04  0.10000000000E+01 0.  0.
</event>
<event>
 4    1  0.2193160E-006  0.1300000E+05  0.7957747E-01  0.1322471E+00
    9000001   -1    0    0    0    0  0.00000000000E+00  0.00000000000E+00  0.64999999231E+04  0.65000000000E+04  0.10000000000E+01 0.  0.
    9000001   -1    0    0    0    0 -0.00000000000E+00 -0.00000000000E+00 -0.64999999231E+04  0.65000000000E+04  0.10000000000E+01 0.  0.
    9000001    1    1    2    0    0 -0.38570328720E+04 -0.20097638731E+04 -0.48305429921E+04  0.65000000000E+04  0.10000000000E+01 0.  0.
    9000001    1    1    2    0    0  0.38570328720E+04  0.20097638731E+04  0.48305429921E+04  0.65000000000E+04  0.10000000000E+01 0.  0.
</event>
<event>
 4    1  0.2193160E-006  0.1300000E+05  0.7957747E-01  0.1322471E+00
    9000001   -1    0    0    0    0  0.00000000000E+00  0.00000000000E+00  0.64999999231E+04  0.65000000000E+04  0.10000000000E+01 0.  0.
    9000001   -1    0    0    0    0 -0.00000000000E+00 -0.00000000000E+00 -0.64999999231E+04  0.65000000000E+04  0.10000000000E+01 0.  0.
    9000001    1    1    2    0    0  0.88028017157E+03 -0.57487748613E+04 -0.29028767479E+04  0.65000000000E+04  0.10000000000E+01 0.  0.
    9000001    1    1    2    0    0 -0.88028017157E+03  0.57487748613E+04  0.29028767479E+04  0.65000000000E+04  0.10000000000E+01 0.  0.
</event>
<event>
 4    1  0.2193160E-006  0.1300000E+05  0.7957747E-01  0.1322471E+00
    9000001   -1    0    0    0    0  0.00000000000E+00  0.00000000000E+00  0.64999999231E+04  0.65000000000E+04  0.10000000000E+01 0.  0.
    9000001   -1    0    0    0    0 -0.00000000000E+00 -0.00000000000E+00 -0.64999999231E+04  0.65000000000E+04  0.10000000000E+01 0.  0.
    9000001    1    1    2    0    0 -0.13516904215E+04 -0.19921969830E+03 -0.63547811541E+04  0.65000000000E+04  0.10000000000E+01 0.  0.
    9000001    1    1    2    0    0  0.13516904215E+04  0.19921969830E+03  0.63547811541E+04  0.65000000000E+04  0.10000000000E+01 0.  0.
</event>
<event>
 4    1  0.2193160E-006  0.1300000E+05  0.7957747E-01  0.1322471E+00
    9000001   -1    0    0    0    0  0.00000000000E+00  0.00000000000E+00  0.64999999231E+04  0.65000000000E+04  0.10000000000E+01 0.  0.
    9000001   -1    0    0    0    0 -0.00000000000E+00 -0.00000000000E+00 -0.64999999231E+04  0.65000000000E+04  0.10000000000E+01 0.  0.
    9000001    1    1    2    0    0 -0.57028304833E+04 -0.12205134456E+04  0.28702038965E+04  0.65000000000E+04  0.10000000000E+01 0.  0.
    9000001    1    1    2    0    0  0.57028304833E+04  0.12205134456E+04 -0.28702038965E+04  0.65000000000E+04  0.10000000000E+01 0.  0.
</event>
<event>
 4    1  0.2193160E-006  0.1300000E+05  0.7957747E-01  0.1322471E+00
    9000001   -1    0    0    0    0  0.00000000000E+00  0.00000000000E+00  0.64999999231E+04  0.65000000000E+04  0.10000000000E+01 0.  0.
    9000001   -1    0    0    0    0 -0.00000000000E+00 -0.00000000000E+00 -0.64999999231E+04  0.65000000000E+04  0.10000000000E+01 0.  0.
    9000001    1    1    2    0    0  0.33721861458E+04 -0.41205264070E+04  0.37282196457E+04  0.65000000000E+04  0.10000000000E+01 0.  0.
    9000001    1    1    2    0    0 -0.33721861458E+04  0.41205264070E+04 -0.37282196457E+04  0.65000000000E+04  0.10000000000E+01 0.  0.
</event>
<event>
 4    1  0.2193160E-006  0.1300000E+05  0.7957747E-01  0.1322471E+00
    9000001   -1    0    0    0    0  0.00000000000E+00  0.00000000000E+00  0.64999999231E+04  0.65000000000E+04  0.10000000000E+01 0.  0.
    9000001   -1    0    0    0    0 -0.00000000000E+00 -0.00000000000E+00 -0.64999999231E+04  0.65000000000E+04  0.10000000000E+01 0.  0.
    9000001    1    1    2    0    0  0.42314407817E+04  0.46110683736E+04  0.17558349482E+04  0.65000000000E+04  0.10000000000E+01 0.  0.
    9000001    1    1    2    0    0 -0.42314407817E+04 -0.46110683736E+04 -0.17558349482E+04  0.65000000000E+04  0.10000000000E+01 0.  0.
</event>
<event>
 4    1  0.2193160E-006  0.1300000E+05  0.7957747E-01  0.1322471E+00
    9000001   -1    0    0    0    0  0.00000000000E+00  0.00000000000E+00  0.64999999231E+04  0.65000000000E+04  0.10000000000E+01 0.  0.
    9000001   -1    0    0    0    0 -0.00000000000E+00 -0.00000000000E+00 -0.64999999231E+04  0.65000000000E+04  0.10000000000E+01 0.  0.
    9000001    1    1    2    0    0 -0.59478968193E+04 -0.10823609718E+03 -0.26193142947E+04  0.65000000000E+04  0.10000000000E+01 0.  0.
    9000001    1    1    2    0    0  0.59478968193E+04  0.10823609718E+03  0.26193142947E+04  0.65000000000E+04  0.10000000000E+01 0.  0.
</event>
<event>
 4    1  0.2193160E-006  0.1300000E+05  0.7957747E-01  0.1322471E+00
    9000001   -1    0    0    0    0  0.00000000000E+00  0.00000000000E+00  0.64999999231E+04  0.65000000000E+04  0.10000000000E+01 0.  0.
    9000001   -1    0    0    0    0 -0.00000000000E+00 -0.00000000000E+00 -0.64999999231E+04  0.65000000000E+04  0.10000000000E+01 0.  0.
    9000001    1    1    2    0    0  0.41223765145E+04 -0.18059187573E+04 -0.46898473658E+04  0.65000000000E+04  0.10000000000E+01 0.  0.
    9000001    1    1    2    0    0 -0.41223765145E+04  0.18059187573E+04  0.46898473658E+04  0.65000000000E+04  0.10000000000E+01 0.  0.
</event>
<event>
 4    1  0.2193160E-006  0.1300000E+05  0.7957747E-01  0.1322471E+00
    9000001   -1    0    0    0    0  0.00000000000E+00  0.00000000000E+00  0.64999999231E+04  0.65000000000E+04  0.10000000000E+01 0.  0.
    9000001   -1    0    0    0    0 -0.00000000000E+00 -0.00000000000E+00 -0.64999999231E+04  0.65000000000E+04  0.10000000000E+01 0.  0.
    9000001    1    1    2    0    0 -0.24167308399E+04  0.29859487274E+04  0.52434264794E+04  0.65000000000E+04  0.10000000000E+01 0.  0.
    9000001    1    1    2    0    0  0.24167308399E+04 -0.29859487274E+04 -0.52434264794E+04  0.65000000000E+04  0.10000000000E+01 0.  0.
</event>
<event>
 4    1  0.2193160E-006  0.1300000E+05  0.7957747E-01  0.1322471E+00
    9000001   -1    0    0    0    0  0.00000000000E+00  0.00000000000E+00  0.64999999231E+04  0.65000000000E+04  0.10000000000E+01 0.  0.
    9000001   -1    0    0    0    0 -0.00000000000E+00 -0.00000000000E+00 -0.64999999231E+04  0.65000000000E+04  0.10000000000E+01 0.  0.
    9000001    1    1    2    0    0 -0.11024876317E+04 -0.61641961927E+04  0.17427579636E+04  0.65000000000E+04  0.10000000000E+01 0.  0.
    9000001    1    1    2    0    0  0.11024876317E+04  0.61641961927E+04 -0.17427579636E+04  0.65000000000E+04  0.10000000000E+01 0.  0.
</event>
<event>
 4    1  0.2193160E-006  0.1300000E+05  0.7957747E-01  0.1322471E+00
    9000001   -1    0    0    0    0  0.00000000000E+00  0.00000000000E+00  0.64999999231E+04  0.65000000000E+04  0.10000000000E+01 0.  0.
    9000001   -1    0    0    0    0 -0.00000000000E+00 -0.00000000000E+00 -0.64999999231E+04  0.65000000000E+04  0.10000000000E+01 0.  0.
    9000001    1    1    2    0    0 -0.48940476572E+04 -0.33924163653E+04 -0.26057259514E+04  0.65000000000E+04  0.10000000000E+01 0.  0.
    9000001    1    1    2    0    0  0.48940476572E+04  0.33924163653E+04  0.26057259514E+04  0.65000000000E+04  0.10000000000E+01 0.  0.
</event>
<event>
 4    1  0.2193160E-006  0.1300000E+05  0.7957747E-01  0.1322471E+00
    9000001   -1    0    0    0    0  0.00000000000E+00  0.00000000000E+00  0.64999999231E+04  0.65000000000E+04  0.10000000000E+01 0.  0.
    9000001   -1    0    0    0    0 -0.00000000000E+00 -0.00000000000E+00 -0.64999999231E+04  0.65000000000E+04  0.10000000000E+01 0.  0.
    9000001    1    1    2    0    0  0.58764326865E+04  0.26800387027E+04  0.73138938548E+03  0.65000000000E+04  0.10000000000E+01 0.  0.
    9000001    1    1    2    0    0 -0.58764326865E+04 -0.26800387027E+04 -0.73138938548E+03  0.65000000000E+04  0.10000000000E+01 0.  0.
</event>
<event>
 4    1  0.2193160E-006  0.1300000E+05  0.7957747E-01  0.1322471E+00
    9000001   -1    0    0    0    0  0.00000000000E+00  0.00000000000E+00  0.64999999231E+04  0.65000000000E+04  0.10000000000E+01 0.  0.
    9000001   -1    0    0    0    0 -0.00000000000E+00 -0.00000000000E+00 -0.64999999231E+04  0.65000000000E+04  0.10000000000E+01 0.  0.
    9000001    1    1    2    0    0  0.26008463495E+04 -0.59149430683E+04 -0.70643171309E+03  0.65000000000E+04  0.10000000000E+01 0.  0.
    9000001    1    1    2    0    0 -0.26008463495E+04  0.59149430683E+04  0.70643171309E+03  0.65000000000E+04  0.10000000000E+01 0.  0.
</event>
<event>
 4    1  0.2193160E-006  0.1300000E+05  0.7957747E-01  0.1322471E+00
    9000001   -1    0    0    0    0  0.00000000000E+00  0.00000000000E+00  0.64999999231E+04  0.65000000000E+04  0.10000000000E+01 0.  0.
    9000001   -1    0    0    0    0 -0.00000000000E+00 -0.00000000000E+00 -0.64999999231E+04  0.65000000000E+04  0.10000000000E+01 0.  0.
    9000001    1    1    2    0    0  0.25969697341E+04 -0.43988800824E+04 -0.40194030925E+04  0.65000000000E+04  0.10000000000E+01 0.  0.
    9000001    1    1    2    0    0 -0.25969697341E+04  0.43988800824E+04  0.40194030925E+04  0.65000000000E+04  0.10000000000E+01 0.  0.
</event>
<event>
 4    1  0.2193160E-006  0.1300000E+05  0.7957747E-01  0.1322471E+00
    9000001   -1    0    0    0    0  0.00000000000E+00  0.00000000000E+00  0.64999999231E+04  0.65000000000E+04  0.10000000000E+01 0.  0.
    9000001   -1    0    0    0    0 -0.00000000000E+00 -0.00000000000E+00 -0.64999999231E+04  0.65000000000E+04  0.10000000000E+01 0.  0.
    9000001    1    1    2    0    0  0.26176059182E+04  0.47958186578E+04 -0.35211165358E+04  0.65000000000E+04  0.10000000000E+01 0.  0.
    9000001    1    1    2    0    0 -0.26176059182E+04 -0.47958186578E+04  0.35211165358E+04  0.65000000000E+04  0.10000000000E+01 0.  0.
</event>
<event>
 4    1  0.2193160E-006  0.1300000E+05  0.7957747E-01  0.1322471E+00
    9000001   -1    0    0    0    0  0.00000000000E+00  0.00000000000E+00  0.64999999231E+04  0.65000000000E+04  0.10000000000E+01 0.  0.
    9000001   -1    0    0    0    0 -0.00000000000E+00 -0.00000000000E+00 -0.64999999231E+04  0.65000000000E+04  0.10000000000E+01 0.  0.
    9000001    1    1    2    0    0 -0.43589806057E+03  0.50596233257E+04  0.40571176570E+04  0.65000000000E+04  0.10000000000E+01 0.  0.
    9000001    1    1    2    0    0  0.43589806057E+03 -0.50596233257E+04 -0.40571176570E+04  0.65000000000E+04  0.10000000000E+01 0.  0.
</event>
<event>
 4    1  0.2193160E-006  0.1300000E+05  0.7957747E-01  0.1322471E+00
    9000001   -1    0    0    0    0  0.00000000000E+00  0.00000000000E+00  0.64999999231E+04  0.65000000000E+04  0.10000000000E+01 0.  0.
    9000001   -1    0    0    0    0 -0.00000000000E+00 -0.00000000000E+00 -0.64999999231E+04  0.65000000000E+04  0.10000000000E+01 0.  0.
    9000001    1    1    2    0    0 -0.34980814463E+04  0.52144973652E+04  0.16800126260E+04  0.65000000000E+04  0.10000000000E+01 0.  0.
    9000001    1    1    2    0    0  0.34980814463E+04 -0.52144973652E+04 -0.16800126260E+04  0.65000000000E+04  0.10000000000E+01 0.  0.
</event>
<event>
 4    1  0.2193160E-006  0.1300000E+05  0.7957747E-01  0.1322471E+00
    9000001   -1    0    0    0    0  0.00000000000E+00  0.00000000000E+00  0.64999999231E+04  0.65000000000E+04  0.10000000000E+01 0.  0.
    9000001   -1    0    0    0    0 -0.00000000000E+00 -0.00000000000E+00 -0.64999999231E+04  0.65000000000E+04  0.10000000000E+01 0.  0.
    9000001    1    1    2    0    0 -0.32235798354E+04  0.56130106368E+04  0.59383805516E+03  0.65000000000E+04  0.10000000000E+01 0.  0.
    9000001    1    1    2    0    0  0.32235798354E+04 -0.56130106368E+04 -0.59383805516E+03  0.65000000000E+04  0.10000000000E+01 0.  0.
</event>
<event>
 4    1  0.2193160E-006  0.1300000E+05  0.7957747E-01  0.1322471E+00
    9000001   -1    0    0    0    0  0.00000000000E+00  0.00000000000E+00  0.64999999231E+04  0.65000000000E+04  0.10000000000E+01 0.  0.
    9000001   -1    0    0    0    0 -0.00000000000E+00 -0.00000000000E+00 -0.64999999231E+04  0.65000000000E+04  0.10000000000E+01 0.  0.
    9000001    1    1    2    0    0 -0.14019306268E+04  0.62629731191E+04  0.10294451066E+04  0.65000000000E+04  0.10000000000E+01 0.  0.
    9000001    1    1    2    0    0  0.14019306268E+04 -0.62629731191E+04 -0.10294451066E+04  0.65000000000E+04  0.10000000000E+01 0.  0.
</event>
<event>
 4    1  0.2193160E-006  0.1300000E+05  0.7957747E-01  0.1322471E+00
    9000001   -1    0    0    0    0  0.00000000000E+00  0.00000000000E+00  0.64999999231E+04  0.65000000000E+04  0.10000000000E+01 0.  0.
    9000001   -1    0    0    0    0 -0.00000000000E+00 -0.00000000000E+00 -0.64999999231E+04  0.65000000000E+04  0.10000000000E+01 0.  0.
    9000001    1    1    2    0    0  0.13606029209E+04 -0.62932323548E+04  0.89105848311E+03  0.65000000000E+04  0.10000000000E+01 0.  0.
    9000001    1    1    2    0    0 -0.13606029209E+04  0.62932323548E+04 -0.89105848311E+03  0.65000000000E+04  0.10000000000E+01 0.  0.
</event>
<event>
 4    1  0.2193160E-006  0.1300000E+05  0.7957747E-01  0.1322471E+00
    9000001   -1    0    0    0    0  0.00000000000E+00  0.00000000000E+00  0.64999999231E+04  0.65000000000E+04  0.10000000000E+01 0.  0.
    9000001   -1    0    0    0    0 -0.00000000000E+00 -0.00000000000E+00 -0.64999999231E+04  0.65000000000E+04  0.10000000000E+01 0.  0.
    9000001    1    1    2    0    0  0.58341002337E+04  0.25297163684E+04  0.13467771004E+04  0.65000000000E+04  0.10000000000E+01 0.  0.
    9000001    1    1    2    0    0 -0.58341002337E+04 -0.25297163684E+04 -0.13467771004E+04  0.65000000000E+04  0.10000000000E+01 0.  0.
</event>
<event>
 4    1  0.2193160E-006  0.1300000E+05  0.7957747E-01  0.1322471E+00
    9000001   -1    0    0    0    0  0.00000000000E+00  0.00000000000E+00  0.64999999231E+04  0.65000000000E+04  0.10000000000E+01 0.  0.
    9000001   -1    0    0    0    0 -0.00000000000E+00 -0.00000000000E+00 -0.64999999231E+04  0.65000000000E+04  0.10000000000E+01 0.  0.
    9000001    1    1    2    0    0  0.22914731126E+03  0.64918613994E+04  0.23070778298E+03  0.65000000000E+04  0.10000000000E+01 0.  0.
    9000001    1    1    2    0    0 -0.22914731126E+03 -0.64918613994E+04 -0.23070778298E+03  0.65000000000E+04  0.10000000000E+01 0.  0.
</event>
<event>
 4    1  0.2193160E-006  0.1300000E+05  0.7957747E-01  0.1322471E+00
    9000001   -1    0    0    0    0  0.00000000000E+00  0.00000000000E+00  0.64999999231E+04  0.65000000000E+04  0.10000000000E+01 0.  0.
    9000001   -1    0    0    0    0 -0.00000000000E+00 -0.00000000000E+00 -0.64999999231E+04  0.65000000000E+04  0.10000000000E+01 0.  0.
    9000001    1    1    2    0    0 -0.30129219679E+04  0.55932887343E+04 -0.13738345426E+04  0.65000000000E+04  0.10000000000E+01 0.  0.
    9000001    1    1    2    0    0  0.30129219679E+04 -0.55932887343E+04  0.13738345426E+04  0.65000000000E+04  0.10000000000E+01 0.  0.
</event>
<event>
 4    1  0.2193160E-006  0.1300000E+05  0.7957747E-01  0.1322471E+00
    9000001   -1    0    0    0    0  0.00000000000E+00  0.00000000000E+00  0.64999999231E+04  0.65000000000E+04  0.10000000000E+01 0.  0.
    9000001   -1    0    0    0    0 -0.00000000000E+00 -0.00000000000E+00 -0.64999999231E+04  0.65000000000E+04  0.10000000000E+01 0.  0.
    9000001    1    1    2    0    0  0.92652504711E+03  0.58721053666E+04  0.26286743617E+04  0.65000000000E+04  0.10000000000E+01 0.  0.
    9000001    1    1    2    0    0 -0.92652504711E+03 -0.58721053666E+04 -0.26286743617E+04  0.65000000000E+04  0.10000000000E+01 0.  0.
</event>
<event>
 4    1  0.2193160E-006  0.1300000E+05  0.7957747E-01  0.1322471E+00
    9000001   -1    0    0    0    0  0.00000000000E+00  0.00000000000E+00  0.64999999231E+04  0.65000000000E+04  0.10000000000E+01 0.  0.
    9000001   -1    0    0    0    0 -0.00000000000E+00 -0.00000000000E+00 -0.64999999231E+04  0.65000000000E+04  0.10000000000E+01 0.  0.
    9000001    1    1    2    0    0 -0.20969021339E+04  0.13877362724E+04  0.59939293022E+04  0.65000000000E+04  0.10000000000E+01 0.  0.
    9000001    1    1    2    0    0  0.20969021339E+04 -0.13877362724E+04 -0.59939293022E+04  0.65000000000E+04  0.10000000000E+01 0.  0.
</event>
<event>
 4    1  0.2193160E-006  0.1300000E+05  0.7957747E-01  0.1322471E+00
    9000001   -1    0    0    0    0  0.00000000000E+00  0.00000000000E+00  0.64999999231E+04  0.65000000000E+04  0.10000000000E+01 0.  0.
    9000001   -1    0    0    0    0 -0.00000000000E+00 -0.00000000000E+00 -0.64999999231E+04  0.65000000000E+04  0.10000000000E+01 0.  0.
    9000001    1    1    2    0    0 -0.49402775490E+04  0.35047335345E+04  0.23580711589E+04  0.65000000000E+04  0.10000000000E+01 0.  0.
    9000001    1    1    2    0    0  0.49402775490E+04 -0.35047335345E+04 -0.23580711589E+04  0.65000000000E+04  0.10000000000E+01 0.  0.
</event>
<event>
 4    1  0.2193160E-006  0.1300000E+05  0.7957747E-01  0.1322471E+00
    9000001   -1    0    0    0    0  0.00000000000E+00  0.00000000000E+00  0.64999999231E+04  0.65000000000E+04  0.10000000000E+01 0.  0.
    9000001   -1    0    0    0    0 -0.00000000000E+00 -0.00000000000E+00 -0.64999999231E+04  0.65000000000E+04  0.10000000000E+01 0.  0.
    9000001    1    1    2    0    0  0.54007071662E+04 -0.25617304560E+04 -0.25534091282E+04  0.65000000000E+04  0.10000000000E+01 0.  0.
    9000001    1    1    2    0    0 -0.54007071662E+04  0.25617304560E+04  0.25534091282E+04  0.65000000000E+04  0.10000000000E+01 0.  0.
</event>
<event>
 4    1  0.2193160E-006  0.1300000E+05  0.7957747E-01  0.1322471E+00
    9000001   -1    0    0    0    0  0.00000000000E+00  0.00000000000E+00  0.64999999231E+04  0.65000000000E+04  0.10000000000E+01 0.  0.
    9000001   -1    0    0    0    0 -0.00000000000E+00 -0.00000000000E+00 -0.64999999231E+04  0.65000000000E+04  0.10000000000E+01 0.  0.
    9000001    1    1    2    0    0 -0.54219676528E+03 -0.33946145910E+04  0.55165762431E+04  0.65000000000E+04  0.10000000000E+01 0.  0.
    9000001    1    1    2    0    0  0.54219676528E+03  0.33946145910E+04 -0.55165762431E+04  0.65000000000E+04  0.10000000000E+01 0.  0.
</event>
<event>
 4    1  0.2193160E-006  0.1300000E+05  0.7957747E-01  0.1322471E+00
    9000001   -1    0    0    0    0  0.00000000000E+00  0.00000000000E+00  0.64999999231E+04  0.65000000000E+04  0.10000000000E+01 0.  0.
    9000001   -1    0    0    0    0 -0.00000000000E+00 -0.00000000000E+00 -0.64999999231E+04  0.65000000000E+04  0.10000000000E+01 0.  0.
    9000001    1    1    2    0    0  0.84673921031E+03  0.51045969811E+04  0.39339701791E+04  0.65000000000E+04  0.10000000000E+01 0.  0.
    9000001    1    1    2    0    0 -0.84673921031E+03 -0.51045969811E+04 -0.39339701791E+04  0.65000000000E+04  0.10000000000E+01 0.  0.
</event>
<event>
 4    1  0.2193160E-006  0.1300000E+05  0.7957747E-01  0.1322471E+00
    9000001   -1    0    0    0    0  0.00000000000E+00  0.00000000000E+00  0.64999999231E+04  0.65000000000E+04  0.10000000000E+01 0.  0.
    9000001   -1    0    0    0    0 -0.00000000000E+00 -0.00000000000E+00 -0.64999999231E+04  0.65000000000E+04  0.10000000000E+01 0.  0.
    9000001    1    1    2    0    0 -0.29378497558E+04 -0.98164886837E+03  0.57144906432E+04  0.65000000000E+04  0.10000000000E+01 0.  0.
    9000001    1    1    2    0    0  0.29378497558E+04  0.98164886837E+03 -0.57144906432E+04  0.65000000000E+04  0.10000000000E+01 0.  0.
</event>
<event>
 4    1  0.2193160E-006  0.1300000E+05  0.7957747E-01  0.1322471E+00
    9000001   -1    0    0    0    0  0.00000000000E+00  0.00000000000E+00  0.64999999231E+04  0.65000000000E+04  0.10000000000E+01 0.  0.
    9000001   -1    0    0    0    0 -0.00000000000E+00 -0.00000000000E+00 -0.64999999231E+04  0.65000000000E+04  0.10000000000E+01 0.  0.
    9000001    1    1    2    0    0 -0.28307018466E+04 -0.75410594737E+03  0.58024520916E+04  0.65000000000E+04  0.10000000000E+01 0.  0.
    9000001    1    1    2    0    0  0.28307018466E+04  0.75410594737E+03 -0.58024520916E+04  0.65000000000E+04  0.10000000000E+01 0.  0.
</event>
<event>
 4    1  0.2193160E-006  0.1300000E+05  0.7957747E-01  0.1322471E+00
    9000001   -1    0    0    0    0  0.00000000000E+00  0.00000000000E+00  0.64999999231E+04  0.65000000000E+04  0.10000000000E+01 0.  0.
    9000001   -1    0    0    0    0 -0.00000000000E+00 -0.00000000000E+00 -0.64999999231E+04  0.65000000000E+04  0.10000000000E+01 0.  0.
    9000001    1    1    2    0    0  0.18692099251E+04  0.11635428305E+04 -0.61157355516E+04  0.65000000000E+04  0.10000000000E+01 0.  0.
    9000001    1    1    2    0    0 -0.18692099251E+04 -0.11635428305E+04  0.61157355516E+04  0.65000000000E+04  0.10000000000E+01 0.  0.
</event>
<event>
 4    1  0.2193160E-006  0.1300000E+05  0.7957747E-01  0.1322471E+00
    9000001   -1    0    0    0    0  0.00000000000E+00  0.00000000000E+00  0.64999999231E+04  0.65000000000E+04  0.10000000000E+01 0.  0.
    9000001   -1    0    0    0    0 -0.00000000000E+00 -0.00000000000E+00 -0.64999999231E+04  0.65000000000E+04  0.10000000000E+01 0.  0.
    9000001    1    1    2    0    0 -0.37674869684E+04 -0.33227463318E+04  0.41249724554E+04  0.65000000000E+04  0.10000000000E+01 0.  0.
    9000001    1    1    2    0    0  0.37674869684E+04  0.33227463318E+04 -0.41249724554E+04  0.65000000000E+04  0.10000000000E+01 0.  0.
</event>
<event>
 4    1  0.2193160E-006  0.1300000E+05  0.7957747E-01  0.1322471E+00
    9000001   -1    0    0    0    0  0.00000000000E+00  0.00000000000E+00  0.64999999231E+04  0.65000000000E+04  0.10000000000E+01 0.  0.
    9000001   -1    0    0    0    0 -0.00000000000E+00 -0.00000000000E+00 -0.64999999231E+04  0.65000000000E+04  0.10000000000E+01 0.  0.
    9000001    1    1    2    0    0 -0.14731866558E+04  0.27748337830E+04  0.56903442386E+04  0.65000000000E+04  0.10000000000E+01 0.  0.
    9000001    1    1    2    0    0  0.14731866558E+04 -0.27748337830E+04 -0.56903442386E+04  0.65000000000E+04  0.10000000000E+01 0.  0.
</event>
<event>
 4    1  0.2193160E-006  0.1300000E+05  0.7957747E-01  0.1322471E+00
    9000001   -1    0    0    0    0  0.00000000000E+00  0.00000000000E+00  0.64999999231E+04  0.65000000000E+04  0.10000000000E+01 0.  0.
    9000001   -1    0    0    0    0 -0.00000000000E+00 -0.00000000000E+00 -0.64999999231E+04  0.65000000000E+04  0.10000000000E+01 0.  0.
    9000001    1    1    2    0    0 -0.34406851289E+04  0.37868474626E+04  0.40089239378E+04  0.65000000000E+04  0.10000000000E+01 0.  0.
    9000001    1    1    2    0    0  0.34406851289E+04 -0.37868474626E+04 -0.40089239378E+04  0.65000000000E+04  0.10000000000E+01 0.  0.
</event>
<event>
 4    1  0.2193160E-006  0.1300000E+05  0.7957747E-01  0.1322471E+00
    9000001   -1    0    0    0    0  0.00000000000E+00  0.00000000000E+00  0.64999999231E+04  0.65000000000E+04  0.10000000000E+01 0.  0.
    9000001   -1    0    0    0    0 -0.00000000000E+00 -0.00000000000E+00 -0.64999999231E+04  0.65000000000E+04  0.10000000000E+01 0.  0.
    9000001    1    1    2    0    0  0.49937257039E+04  0.34849387521E+04 -0.22733025508E+04  0.65000000000E+04  0.10000000000E+01 0.  0.
    9000001    1    1    2    0    0 -0.49937257039E+04 -0.34849387521E+04  0.22733025508E+04  0.65000000000E+04  0.10000000000E+01 0.  0.
</event>
<event>
 4    1  0.2193160E-006  0.1300000E+05  0.7957747E-01  0.1322471E+00
    9000001   -1    0    0    0    0  0.00000000000E+00  0.00000000000E+00  0.64999999231E+04  0.65000000000E+04  0.10000000000E+01 0.  0.
    9000001   -1    0    0    0    0 -0.00000000000E+00 -0.00000000000E+00 -0.64999999231E+04  0.65000000000E+04  0.10000000000E+01 0.  0.
    9000001    1    1    2    0    0  0.21644821123E+04  0.61237872342E+04 -0.25346813516E+03  0.65000000000E+04  0.10000000000E+01 0.  0.
    9000001    1    1    2    0    0 -0.21644821123E+04 -0.61237872342E+04  0.25346813516E+03  0.65000000000E+04  0.10000000000E+01 0.  0.
</event>
<event>
 4    1  0.2193160E-006  0.1300000E+05  0.7957747E-01  0.1322471E+00
    9000001   -1    0    0    0    0  0.00000000000E+00  0.00000000000E+00  0.64999999231E+04  0.65000000000E+04  0.10000000000E+01 0.  0.
    9000001   -1    0    0    0    0 -0.00000000000E+00 -0.00000000000E+00 -0.64999999231E+04  0.65000000000E+04  0.10000000000E+01 0.  0.
    9000001    1    1    2    0    0  0.61411676668E+04  0.12154380589E+04  0.17489336790E+04  0.65000000000E+04  0.10000000000E+01 0.  0.
    9000001    1    1    2    0    0 -0.61411676668E+04 -0.12154380589E+04 -0.17489336790E+04  0.65000000000E+04  0.10000000000E+01 0.  0.
</event>
<event>
 4    1  0.2193160E-006  0.1300000E+05  0.7957747E-01  0.1322471E+00
    9000001   -1    0    0    0    0  0.00000000000E+00  0.00000000000E+00  0.64999999231E+04  0.65000000000E+04  0.10000000000E+01 0.  0.
    9000001   -1    0    0    0    0 -0.00000000000E+00 -0.00000000000E+00 -0.64999999231E+04  0.65000000000E+04  0.10000000000E+01 0.  0.
    9000001    1    1    2    0    0 -0.50430731482E+04  0.37319141629E+04 -0.17000673230E+04  0.65000000000E+04  0.10000000000E+01 0.  0.
    9000001    1    1    2    0    0  0.50430731482E+04 -0.37319141629E+04  0.17000673230E+04  0.65000000000E+04  0.10000000000E+01 0.  0.
</event>
<event>
 4    1  0.2193160E-006  0.1300000E+05  0.7957747E-01  0.1322471E+00
    9000001   -1    0    0    0    0  0.00000000000E+00  0.00000000000E+00  0.64999999231E+04  0.65000000000E+04  0.10000000000E+01 0.  0.
    9000001   -1    0    0    0    0 -0.00000000000E+00 -0.00000000000E+00 -0.64999999231E+04  0.65000000000E+04  0.10000000000E+01 0.  0.
    9000001    1    1    2    0    0 -0.32074397555E+04  0.12830652367E+04 -0.55060033430E+04  0.65000000000E+04  0.10000000000E+01 0.  0.
    9000001    1    1    2    0    0  0.32074397555E+04 -0.12830652367E+04  0.55060033430E+04  0.65000000000E+04  0.10000000000E+01 0.  0.
</event>
<event>
 4    1  0.2193160E-006  0.1300000E+05  0.7957747E-01  0.1322471E+00
    9000001   -1    0    0    0    0  0.00000000000E+00  0.00000000000E+00  0.64999999231E+04  0.65000000000E+04  0.10000000000E+01 0.  0.
    9000001   -1    0    0    0    0 -0.00000000000E+00 -0.00000000000E+00 -0.64999999231E+04  0.65000000000E+04  0.10000000000E+01 0.  0.
    9000001    1    1    2    0    0  0.25325992942E+03 -0.52726084953E+03  0.64736276078E+04  0.65000000000E+04  0.10000000000E+01 0.  0.
    9000001    1    1    2    0    0 -0.25325992942E+03  0.52726084953E+03 -0.64736276078E+04  0.65000000000E+04  0.10000000000E+01 0.  0.
</event>
<event>
 4    1  0.2193160E-006  0.1300000E+05  0.7957747E-01  0.1322471E+00
    9000001   -1    0    0    0    0  0.00000000000E+00  0.00000000000E+00  0.64999999231E+04  0.65000000000E+04  0.10000000000E+01 0.  0.
    9000001   -1    0    0    0    0 -0.00000000000E+00 -0.00000000000E+00 -0.64999999231E+04  0.65000000000E+04  0.10000000000E+01 0.  0.
    9000001    1    1    2    0    0  0.62036237718E+04 -0.35404126244E+03 -0.19078013214E+04  0.65000000000E+04  0.10000000000E+01 0.  0.
    9000001    1    1    2    0    0 -0.62036237718E+04  0.35404126244E+03  0.19078013214E+04  0.65000000000E+04  0.10000000000E+01 0.  0.
</event>
<event>
 4    1  0.2193160E-006  0.1300000E+05  0.7957747E-01  0.1322471E+00
    9000001   -1    0    0    0    0  0.00000000000E+00  0.00000000000E+00  0.64999999231E+04  0.65000000000E+04  0.10000000000E+01 0.  0.
    9000001   -1    0    0    0    0 -0.00000000000E+00 -0.00000000000E+00 -0.64999999231E+04  0.65000000000E+04  0.10000000000E+01 0.  0.
    9000001    1    1    2    0    0 -0.21304988931E+04 -0.61167923033E+04 -0.54389832180E+03  0.65000000000E+04  0.10000000000E+01 0.  0.
    9000001    1    1    2    0    0  0.21304988931E+04  0.61167923033E+04  0.54389832180E+03  0.65000000000E+04  0.10000000000E+01 0.  0.
</event>
<event>
 4    1  0.2193160E-006  0.1300000E+05  0.7957747E-01  0.1322471E+00
    9000001   -1    0    0    0    0  0.00000000000E+00  0.00000000000E+00  0.64999999231E+04  0.65000000000E+04  0.10000000000E+01 0.  0.
    9000001   -1    0    0    0    0 -0.00000000000E+00 -0.00000000000E+00 -0.64999999231E+04  0.65000000000E+04  0.10000000000E+01 0.  0.
    9000001    1    1    2    0    0 -0.51283514832E+04 -0.13453242005E+04 -0.37603341421E+04  0.65000000000E+04  0.10000000000E+01 0.  0.
    9000001    1    1    2    0    0  0.51283514832E+04  0.13453242005E+04  0.37603341421E+04  0.65000000000E+04  0.10000000000E+01 0.  0.
</event>
<event>
 4    1  0.2193160E-006  0.1300000E+05  0.7957747E-01  0.1322471E+00
    9000001   -1    0    0    0    0  0.00000000000E+00  0.00000000000E+00  0.64999999231E+04  0.65000000000E+04  0.10000000000E+01 0.  0.
    9000001   -1    0    0    0    0 -0.00000000000E+00 -0.00000000000E+00 -0.64999999231E+04  0.65000000000E+04  0.10000000000E+01 0.  0.
    9000001    1    1    2    0    0 -0.10831090053E+04  0.26473089558E+04 -0.58368338314E+04  0.65000000000E+04  0.10000000000E+01 0.  0.
    9000001    1    1    2    0    0  0.10831090053E+04 -0.26473089558E+04  0.58368338314E+04  0.65000000000E+04  0.10000000000E+01 0.  0.
</event>
<event>
 4    1  0.2193160E-006  0.1300000E+05  0.7957747E-01  0.1322471E+00
    9000001   -1    0    0    0    0  0.00000000000E+00  0.00000000000E+00  0.64999999231E+04  0.65000000000E+04  0.10000000000E+01 0.  0.
    9000001   -1    0    0    0    0 -0.00000000000E+00 -0.00000000000E+00 -0.64999999231E+04  0.65000000000E+04  0.10000000000E+01 0.  0.
    9000001    1    1    2    0    0 -0.34134814672E+04  0.42944579718E+04 -0.34865131581E+04  0.65000000000E+04  0.10000000000E+01 0.  0.
    9000001    1    1    2    0    0  0.34134814672E+04 -0.42944579718E+04  0.34865131581E+04  0.65000000000E+04  0.10000000000E+01 0.  0.
</event>
<event>
 4    1  0.2193160E-006  0.1300000E+05  0.7957747E-01  0.1322471E+00
    9000001   -1    0    0    0    0  0.00000000000E+00  0.00000000000E+00  0.64999999231E+04  0.65000000000E+04  0.10000000000E+01 0.  0.
    9000001   -1    0    0    0    0 -0.00000000000E+00 -0.00000000000E+00 -0.64999999231E+04  0.65000000000E+04  0.10000000000E+01 0.  0.
    9000001    1    1    2    0    0 -0.48395576600E+03 -0.47006839727E+04  0.44631105751E+04  0.65000000000E+04  0.10000000000E+01 0.  0.
    9000001    1    1    2    0    0  0.48395576600E+03  0.47006839727E+04 -0.44631105751E+04  0.65000000000E+04  0.10000000000E+01 0.  0.
</event>
<event>
 4    1  0.2193160E-006  0.1300000E+05  0.7957747E-01  0.1322471E+00
    9000001   -1    0    0    0    0  0.00000000000E+00  0.00000000000E+00  0.64999999231E+04  0.65000000000E+04  0.10000000000E+01 0.  0.
    9000001   -1    0    0    0    0 -0.00000000000E+00 -0.00000000000E+00 -0.64999999231E+04  0.65000000000E+04  0.10000000000E+01 0.  0.
    9000001    1    1    2    0    0  0.25786712852E+04  0.52743865349E+04  0.27894981776E+04  0.65000000000E+04  0.10000000000E+01 0.  0.
    9000001    1    1    2    0    0 -0.25786712852E+04 -0.52743865349E+04 -0.27894981776E+04  0.65000000000E+04  0.10000000000E+01 0.  0.
</event>
<event>
 4    1  0.2193160E-006  0.1300000E+05  0.7957747E-01  0.1322471E+00
    9000001   -1    0    0    0    0  0.00000000000E+00  0.00000000000E+00  0.64999999231E+04  0.65000000000E+04  0.10000000000E+01 0.  0.
    9000001   -1    0    0    0    0 -0.00000000000E+00 -0.00000000000E+00 -0.64999999231E+04  0.65000000000E+04  0.10000000000E+01 0.  0.
    9000001    1    1    2    0    0  0.50290167000E+04 -0.41179720931E+04 -0.35998207103E+02  0.65000000000E+04  0.10000000000E+01 0.  0.
    9000001    1    1    2    0    0 -0.50290167000E+04  0.41179720931E+04  0.35998207103E+02  0.65000000000E+04  0.10000000000E+01 0.  0.
</event>
<event>
 4    1  0.2193160E-006  0.1300000E+05  0.7957747E-01  0.1322471E+00
    9000001   -1    0    0    0    0  0.00000000000E+00  0.00000000000E+00  0.64999999231E+04  0.65000000000E+04  0.10000000000E+01 0.  0.
    9000001   -1    0    0    0    0 -0.00000000000E+00 -0.00000000000E+00 -0.64999999231E+04  0.65000000000E+04  0.10000000000E+01 0.  0.
    9000001    1    1    2    0    0  0.22795488127E+04 -0.59416696792E+04  0.13229579108E+04  0.65000000000E+04  0.10000000000E+01 0.  0.
    9000001    1    1    2    0    0 -0.22795488127E+04  0.59416696792E+04 -0.13229579108E+04  0.65000000000E+04  0.10000000000E+01 0.  0.
</event>
<event>
 4    1  0.2193160E-006  0.1300000E+05  0.7957747E-01  0.1322471E+00
    9000001   -1    0    0    0    0  0.00000000000E+00  0.00000000000E+00  0.64999999231E+04  0.65000000000E+04  0.10000000000E+01 0.  0.
    9000001   -1    0    0    0    0 -0.00000000000E+00 -0.00000000000E+00 -0.64999999231E+04  0.65000000000E+04  0.10000000000E+01 0.  0.
    9000001    1    1    2    0    0 -0.14308628661E+04 -0.51872580424E+04  0.36462287998E+04  0.65000000000E+04  0.10000000000E+01 0.  0.
    9000001    1    1    2    0    0  0.14308628661E+04  0.51872580424E+04 -0.36462287998E+04  0.65000000000E+04  0.10000000000E+01 0.  0.
</event>
<event>
 4    1  0.2193160E-006  0.1300000E+05  0.7957747E-01  0.1322471E+00
    9000001   -1    0    0    0    0  0.00000000000E+00  0.00000000000E+00  0.64999999231E+04  0.65000000000E+04  0.10000000000E+01 0.  0.
    9000001   -1    0    0    0    0 -0.00000000000E+00 -0.00000000000E+00 -0.64999999231E+04  0.65000000000E+04  0.10000000000E+01 0.  0.
    9000001    1    1    2    0    0 -0.13469516109E+04 -0.60739224249E+04  0.18823354467E+04  0.65000000000E+04  0.10000000000E+01 0.  0.
    9000001    1    1    2    0    0  0.13469516109E+04  0.60739224249E+04 -0.18823354467E+04  0.65000000000E+04  0.10000000000E+01 0.  0.
</event>
<event>
 4    1  0.2193160E-006  0.1300000E+05  0.7957747E-01  0.1322471E+00
    9000001   -1    0    0    0    0  0.00000000000E+00  0.00000000000E+00  0.64999999231E+04  0.65000000000E+04  0.10000000000E+01 0.  0.
    9000001   -1    0    0    0    0 -0.00000000000E+00 -0.00000000000E+00 -0.64999999231E+04  0.65000000000E+04  0.10000000000E+01 0.  0.
    9000001    1    1    2    0    0 -0.30498253557E+04 -0.40257467690E+04 -0.40916900240E+04  0.65000000000E+04  0.10000000000E+01 0.  0.
    9000001    1    1    2    0    0  0.30498253557E+04  0.40257467690E+04  0.40916900240E+04  0.65000000000E+04  0.10000000000E+01 0.  0.
</event>
<event>
 4    1  0.2193160E-006  0.1300000E+05  0.7957747E-01  0.1322471E+00
    9000001   -1    0    0    0    0  0.00000000000E+00  0.00000000000E+00  0.64999999231E+04  0.65000000000E+04  0.10000000000E+01 0.  0.
    9000001   -1    0    0    0    0 -0.00000000000E+00 -0.00000000000E+00 -0.64999999231E+04  0.65000000000E+04  0.10000000000E+01 0.  0.
    9000001    1    1    2    0    0 -0.59738620772E+04  0.20294553873E+04  0.15634198773E+04  0.65000000000E+04  0.10000000000E+01 0.  0.
    9000001    1    1    2    0    0  0.59738620772E+04 -0.20294553873E+04 -0.15634198773E+04  0.65000000000E+04  0.10000000000E+01 0.  0.
</event>
<event>
 4    1  0.2193160E-006  0.1300000E+05  0.7957747E-01  0.1322471E+00
    9000001   -1    0    0    0    0  0.00000000000E+00  0.00000000000E+00  0.64999999231E+04  0.65000000000E+04  0.10000000000E+01 0.  0.
    9000001   -1    0    0    0    0 -0.00000000000E+00 -0.00000000000E+00 -0.64999999231E+04  0.65000000000E+04  0.10000000000E+01 0.  0.
    9000001    1    1    2    0    0  0.13159602523E+04 -0.46689739324E+04  0.43265378807E+04  0.65000000000E+04  0.10000000000E+01 0.  0.
    9000001    1    1    2    0    0 -0.13159602523E+04  0.46689739324E+04 -0.43265378807E+04  0.65000000000E+04  0.10000000000E+01 0.  0.
</event>
<event>
 4    1  0.2193160E-006  0.1300000E+05  0.7957747E-01  0.1322471E+00
    9000001   -1    0    0    0    0  0.00000000000E+00  0.00000000000E+00  0.64999999231E+04  0.65000000000E+04  0.10000000000E+01 0.  0.
    9000001   -1    0    0    0    0 -0.00000000000E+00 -0.00000000000E+00 -0.64999999231E+04  0.65000000000E+04  0.10000000000E+01 0.  0.
    9000001    1    1    2    0    0 -0.42741009856E+04 -0.46543460534E+04  0.15228665665E+04  0.65000000000E+04  0.10000000000E+01 0.  0.
    9000001    1    1    2    0    0  0.42741009856E+04  0.46543460534E+04 -0.15228665665E+04  0.65000000000E+04  0.10000000000E+01 0.  0.
</event>
<event>
 4    1  0.2193160E-006  0.1300000E+05  0.7957747E-01  0.1322471E+00
    9000001   -1    0    0    0    0  0.00000000000E+00  0.00000000000E+00  0.64999999231E+04  0.65000000000E+04  0.10000000000E+01 0.  0.
    9000001   -1    0    0    0    0 -0.00000000000E+00 -0.00000000000E+00 -0.64999999231E+04  0.65000000000E+04  0.10000000000E+01 0.  0.
    9000001    1    1    2    0    0  0.49444658287E+04 -0.13872482175E+04 -0.39846956034E+04  0.65000000000E+04  0.10000000000E+01 0.  0.
    9000001    1    1    2    0    0 -0.49444658287E+04  0.13872482175E+04  0.39846956034E+04  0.65000000000E+04  0.10000000000E+01 0.  0.
</event>
<event>
 4    1  0.2193160E-006  0.1300000E+05  0.7957747E-01  0.1322471E+00
    9000001   -1    0    0    0    0  0.00000000000E+00  0.00000000000E+00  0.64999999231E+04  0.65000000000E+04  0.10000000000E+01 0.  0.
    9000001   -1    0    0    0    0 -0.00000000000E+00 -0.00000000000E+00 -0.64999999231E+04  0.65000000000E+04  0.10000000000E+01 0.  0.
    9000001    1    1    2    0    0  0.35962432706E+04  0.50949093301E+04  0.18327390040E+04  0.65000000000E+04  0.10000000000E+01 0.  0.
    9000001    1    1    2    0    0 -0.35962432706E+04 -0.50949093301E+04 -0.18327390040E+04  0.65000000000E+04  0.10000000000E+01 0.  0.
</event>
<event>
 4    1  0.2193160E-006  0.1300000E+05  0.7957747E-01  0.1322471E+00
    9000001   -1    0    0    0    0  0.00000000000E+00  0.00000000000E+00  0.64999999231E+04  0.65000000000E+04  0.10000000000E+01 0.  0.
    9000001   -1    0    0    0    0 -0.00000000000E+00 -0.00000000000E+00 -0.64999999231E+04  0.65000000000E+04  0.10000000000E+01 0.  0.
    9000001    1    1    2    0    0  0.16886394183E+04 -0.46324995951E+04  0.42353799613E+04  0.65000000000E+04  0.10000000000E+01 0.  0.
    9000001    1    1    2    0    0 -0.16886394183E+04  0.46324995951E+04 -0.42353799613E+04  0.65000000000E+04  0.10000000000E+01 0.  0.
</event>
<event>
 4    1  0.2193160E-006  0.1300000E+05  0.7957747E-01  0.1322471E+00
    9000001   -1    0    0    0    0  0.00000000000E+00  0.00000000000E+00  0.64999999231E+04  0.65000000000E+04  0.10000000000E+01 0.  0.
    9000001   -1    0    0    0    0 -0.00000000000E+00 -0.00000000000E+00 -0.64999999231E+04  0.65000000000E+04  0.10000000000E+01 0.  0.
    9000001    1    1    2    0    0 -0.37023426960E+04  0.42215094857E+04 -0.32743724931E+04  0.65000000000E+04  0.10000000000E+01 0.  0.
    9000001    1    1    2    0    0  0.37023426960E+04 -0.42215094857E+04  0.32743724931E+04  0.65000000000E+04  0.10000000000E+01 0.  0.
</event>
<event>
 4    1  0.2193160E-006  0.1300000E+05  0.7957747E-01  0.1322471E+00
    9000001   -1    0    0    0    0  0.00000000000E+00  0.00000000000E+00  0.64999999231E+04  0.65000000000E+04  0.10000000000E+01 0.  0.
    9000001   -1    0    0    0    0 -0.00000000000E+00 -0.00000000000E+00 -0.64999999231E+04  0.65000000000E+04  0.10000000000E+01 0.  0.
    9000001    1    1    2    0    0 -0.18352758031E+04 -0.74971289633E+03  0.61902901628E+04  0.65000000000E+04  0.10000000000E+01 0.  0.
    9000001    1    1    2    0    0  0.18352758031E+04  0.74971289633E+03 -0.61902901628E+04  0.65000000000E+04  0.10000000000E+01 0.  0.
</event>
<event>
 4    1  0.2193160E-006  0.1300000E+05  0.7957747E-01  0.1322471E+00
    9000001   -1    0    0    0    0  0.00000000000E+00  0.00000000000E+00  0.64999999231E+04  0.65000000000E+04  0.10000000000E+01 0.  0.
    9000001   -1    0    0    0    0 -0.00000000000E+00 -0.00000000000E+00 -0.64999999231E+04  0.65000000000E+04  0.10000000000E+01 0.  0.
    9000001    1    1    2    0    0 -0.52184341928E+04 -0.10790526724E+04  0.37220409597E+04  0.65000000000E+04  0.10000000000E+01 0.  0.
    9000001    1    1    2    0    0  0.52184341928E+04  0.10790526724E+04 -0.37220409597E+04  0.65000000000E+04  0.10000000000E+01 0.  0.
</event>
<event>
 4    1  0.2193160E-006  0.1300000E+05  0.7957747E-01  0.1322471E+00
    9000001   -1    0    0    0    0  0.00000000000E+00  0.00000000000E+00  0.64999999231E+04  0.65000000000E+04  0.10000000000E+01 0.  0.
    9000001   -1    0    0    0    0 -0.00000000000E+00 -0.00000000000E+00 -0.64999999231E+04  0.65000000000E+04  0.10000000000E+01 0.  0.
    9000001    1    1    2    0    0 -0.58124803374E+04  0.26681779491E+04  0.11601283375E+04  0.65000000000E+04  0.10000000000E+01 0.  0.
    9000001    1    1    2    0    0  0.58124803374E+04 -0.26681779491E+04 -0.11601283375E+04  0.65000000000E+04  0.10000000000E+01 0.  0.
</event>
<event>
 4    1  0.2193160E-006  0.1300000E+05  0.7957747E-01  0.1322471E+00
    9000001   -1    0    0    0    0  0.00000000000E+00  0.00000000000E+00  0.64999999231E+04  0.65000000000E+04  0.10000000000E+01 0.  0.
    9000001   -1    0    0    0    0 -0.00000000000E+00 -0.00000000000E+00 -0.64999999231E+04  0.65000000000E+04  0.10000000000E+01 0.  0.
    9000001    1    1    2    0    0  0.17997583635E+04 -0.33087257344E+04 -0.52974713636E+04  0.65000000000E+04  0.10000000000E+01 0.  0.
    9000001    1    1    2    0    0 -0.17997583635E+04  0.33087257344E+04  0.52974713636E+04  0.65000000000E+04  0.10000000000E+01 0.  0.
</event>
<event>
 4    1  0.2193160E-006  0.1300000E+05  0.7957747E-01  0.1322471E+00
    9000001   -1    0    0    0    0  0.00000000000E+00  0.00000000000E+00  0.64999999231E+04  0.65000000000E+04  0.10000000000E+01 0.  0.
    9000001   -1    0    0    0    0 -0.00000000000E+00 -0.00000000000E+00 -0.64999999231E+04  0.65000000000E+04  0.10000000000E+01 0.  0.
    9000001    1    1    2    0    0 -0.63862415288E+04 -0.11957903830E+04 -0.18974587079E+03  0.65000000000E+04  0.10000000000E+01 0.  0.
    9000001    1    1    2    0    0  0.63862415288E+04  0.11957903830E+04  0.18974587079E+03  0.65000000000E+04  0.10000000000E+01 0.  0.
</event>
<event>
 4    1  0.2193160E-006  0.1300000E+05  0.7957747E-01  0.1322471E+00
    9000001   -1    0    0    0    0  0.00000000000E+00  0.00000000000E+00  0.64999999231E+04  0.65000000000E+04  0.10000000000E+01 0.  0.
    9000001   -1    0    0    0    0 -0.00000000000E+00 -0.00000000000E+00 -0.64999999231E+04  0.65000000000E+04  0.10000000000E+01 0.  0.
    9000001    1    1    2    0    0 -0.48955238109E+04  0.25306794983E+04 -0.34466660548E+04  0.65000000000E+04  0.10000000000E+01 0.  0.
    9000001    1    1    2    0    0  0.48955238109E+04 -0.25306794983E+04  0.34466660548E+04  0.65000000000E+04  0.10000000000E+01 0.  0.
</event>
<event>
 4    1  0.2193160E-006  0.1300000E+05  0.7957747E-01  0.1322471E+00
    9000001   -1    0    0    0    0  0.00000000000E+00  0.00000000000E+00  0.64999999231E+04  0.65000000000E+04  0.10000000000E+01 0.  0.
    9000001   -1    0    0    0    0 -0.00000000000E+00 -0.00000000000E+00 -0.64999999231E+04  0.65000000000E+04  0.10000000000E+01 0.  0.
    9000001    1    1    2    0    0 -0.34023899288E+04  0.28818004278E+04 -0.47295843440E+04  0.65000000000E+04  0.10000000000E+01 0.  0.
    9000001    1    1    2    0    0  0.34023899288E+04 -0.28818004278E+04  0.47295843440E+04  0.65000000000E+04  0.10000000000E+01 0.  0.
</event>
<event>
 4    1  0.2193160E-006  0.1300000E+05  0.7957747E-01  0.1322471E+00
    9000001   -1    0    0    0    0  0.00000000000E+00  0.00000000000E+00  0.64999999231E+04  0.65000000000E+04  0.10000000000E+01 0.  0.
    9000001   -1    0    0    0    0 -0.00000000000E+00 -0.00000000000E+00 -0.64999999231E+04  0.65000000000E+04  0.10000000000E+01 0.  0.
    9000001    1    1    2    0    0  0.49448252959E+03  0.56169767136E+04 -0.32334283086E+04  0.65000000000E+04  0.10000000000E+01 0.  0.
    9000001    1    1    2    0    0 -0.49448252959E+03 -0.56169767136E+04  0.32334283086E+04  0.65000000000E+04  0.10000000000E+01 0.  0.
</event>
<event>
 4    1  0.2193160E-006  0.1300000E+05  0.7957747E-01  0.1322471E+00
    9000001   -1    0    0    0    0  0.00000000000E+00  0.00000000000E+00  0.64999999231E+04  0.65000000000E+04  0.10000000000E+01 0.  0.
    9000001   -1    0    0    0    0 -0.00000000000E+00 -0.00000000000E+00 -0.64999999231E+04  0.65000000000E+04  0.10000000000E+01 0.  0.
    9000001    1    1    2    0    0  0.33503279398E+04  0.47227409919E+04  0.29531371826E+04  0.65000000000E+04  0.10000000000E+01 0.  0.
    9000001    1    1    2    0    0 -0.33503279398E+04 -0.47227409919E+04 -0.29531371826E+04  0.65000000000E+04  0.10000000000E+01 0.  0.
</event>
<event>
 4    1  0.2193160E-006  0.1300000E+05  0.7957747E-01  0.1322471E+00
    9000001   -1    0    0    0    0  0.00000000000E+00  0.00000000000E+00  0.64999999231E+04  0.65000000000E+04  0.10000000000E+01 0.  0.
    9000001   -1    0    0    0    0 -0.00000000000E+00 -0.00000000000E+00 -0.64999999231E+04  0.65000000000E+04  0.10000000000E+01 0.  0.
    9000001    1    1    2    0    0  0.48948719268E+04 -0.20108290957E+04 -0.37744925710E+04  0.65000000000E+04  0.10000000000E+01 0.  0.
    9000001    1    1    2    0    0 -0.48948719268E+04  0.20108290957E+04  0.37744925710E+04  0.65000000000E+04  0.10000000000E+01 0.  0.
</event>
<event>
 4    1  0.2193160E-006  0.1300000E+05  0.7957747E-01  0.1322471E+00
    9000001   -1    0    0    0    0  0.00000000000E+00  0.00000000000E+00  0.64999999231E+04  0.65000000000E+04  0.10000000000E+01 0.  0.
    9000001   -1    0    0    0    0 -0.00000000000E+00 -0.00000000000E+00 -0.64999999231E+04  0.65000000000E+04  0.10000000000E+01 0.  0.
    9000001    1    1    2    0    0 -0.37440576818E+04 -0.52900735766E+04 -0.49714447467E+03  0.65000000000E+04  0.10000000000E+01 0.  0.
    9000001    1    1    2    0    0  0.37440576818E+04  0.52900735766E+04  0.49714447467E+03  0.65000000000E+04  0.10000000000E+01 0.  0.
</event>
<event>
 4    1  0.2193160E-006  0.1300000E+05  0.7957747E-01  0.1322471E+00
    9000001   -1    0    0    0    0  0.00000000000E+00  0.00000000000E+00  0.64999999231E+04  0.65000000000E+04  0.10000000000E+01 0.  0.
    9000001   -1    0    0    0    0 -0.00000000000E+00 -0.00000000000E+00 -0.64999999231E+04  0.65000000000E+04  0.10000000000E+01 0.  0.
    9000001    1    1    2    0    0 -0.20280173452E+04 -0.55916511512E+04  0.26211795152E+04  0.65000000000E+04  0.10000000000E+01 0.  0.
    9000001    1    1    2    0    0  0.20280173452E+04  0.55916511512E+04 -0.26211795152E+04  0.65000000000E+04  0.10000000000E+01 0.  0.
</event>
<event>
 4    1  0.2193160E-006  0.1300000E+05  0.7957747E-01  0.1322471E+00
    9000001   -1    0    0    0    0  0.00000000000E+00  0.00000000000E+00  0.64999999231E+04  0.65000000000E+04  0.10000000000E+01 0.  0.
    9000001   -1    0    0    0    0 -0.00000000000E+00 -0.00000000000E+00 -0.64999999231E+04  0.65000000000E+04  0.10000000000E+01 0.  0.
    9000001    1    1    2    0    0 -0.51591743855E+04  0.39530717462E+04 -0.78373649167E+02  0.65000000000E+04  0.10000000000E+01 0.  0.
    9000001    1    1    2    0    0  0.51591743855E+04 -0.39530717462E+04  0.78373649167E+02  0.65000000000E+04  0.10000000000E+01 0.  0.
</event>
<event>
 4    1  0.2193160E-006  0.1300000E+05  0.7957747E-01  0.1322471E+00
    9000001   -1    0    0    0    0  0.00000000000E+00  0.00000000000E+00  0.64999999231E+04  0.65000000000E+04  0.10000000000E+01 0.  0.
    9000001   -1    0    0    0    0 -0.00000000000E+00 -0.00000000000E+00 -0.64999999231E+04  0.65000000000E+04  0.10000000000E+01 0.  0.
    9000001    1    1    2    0    0  0.61765580487E+04 -0.19855496259E+04  0.39714273821E+03  0.65000000000E+04  0.10000000000E+01 0.  0.
    9000001    1    1    2    0    0 -0.61765580487E+04  0.19855496259E+04 -0.39714273821E+03  0.65000000000E+04  0.10000000000E+01 0.  0.
</event>
<event>
 4    1  0.2193160E-006  0.1300000E+05  0.7957747E-01  0.1322471E+00
    9000001   -1    0    0    0    0  0.00000000000E+00  0.00000000000E+00  0.64999999231E+04  0.65000000000E+04  0.10000000000E+01 0.  0.
    9000001   -1    0    0    0    0 -0.00000000000E+00 -0.00000000000E+00 -0.64999999231E+04  0.65000000000E+04  0.10000000000E+01 0.  0.
    9000001    1    1    2    0    0 -0.44093048067E+04 -0.30477019245E+04  0.36768931316E+04  0.65000000000E+04  0.10000000000E+01 0.  0.
    9000001    1    1    2    0    0  0.44093048067E+04  0.30477019245E+04 -0.36768931316E+04  0.65000000000E+04  0.10000000000E+01 0.  0.
</event>
<event>
 4    1  0.2193160E-006  0.1300000E+05  0.7957747E-01  0.1322471E+00
    9000001   -1    0    0    0    0  0.00000000000E+00  0.00000000000E+00  0.64999999231E+04  0.65000000000E+04  0.10000000000E+01 0.  0.
    9000001   -1    0    0    0    0 -0.00000000000E+00 -0.00000000000E+00 -0.64999999231E+04  0.65000000000E+04  0.10000000000E+01 0.  0.
    9000001    1    1    2    0    0 -0.16375222862E+04 -0.62675808206E+04 -0.53474332162E+03  0.65000000000E+04  0.10000000000E+01 0.  0.
    9000001    1    1    2    0    0  0.16375222862E+04  0.62675808206E+04  0.53474332162E+03  0.65000000000E+04  0.10000000000E+01 0.  0.
</event>
<event>
 4    1  0.2193160E-006  0.1300000E+05  0.7957747E-01  0.1322471E+00
    9000001   -1    0    0    0    0  0.00000000000E+00  0.00000000000E+00  0.64999999231E+04  0.65000000000E+04  0.10000000000E+01 0.  0.
    9000001   -1    0    0    0    0 -0.00000000000E+00 -0.00000000000E+00 -0.64999999231E+04  0.65000000000E+04  0.10000000000E+01 0.  0.
    9000001    1    1    2    0    0 -0.85891570070E+03 -0.49321320378E+04 -0.41456406478E+04  0.65000000000E+04  0.10000000000E+01 0.  0.
    9000001    1    1    2    0    0  0.85891570070E+03  0.49321320378E+04  0.41456406478E+04  0.65000000000E+04  0.10000000000E+01 0.  0.
</event>
<event>
 4    1  0.2193160E-006  0.1300000E+05  0.7957747E-01  0.1322471E+00
    9000001   -1    0    0    0    0  0.00000000000E+00  0.00000000000E+00  0.64999999231E+04  0.65000000000E+04  0.10000000000E+01 0.  0.
    9000001   -1    0    0    0    0 -0.00000000000E+00 -0.00000000000E+00 -0.64999999231E+04  0.65000000000E+04  0.10000000000E+01 0.  0.
    9000001    1    1    2    0    0 -0.10928857906E+04 -0.18484905177E+03  0.64047974579E+04  0.65000000000E+04  0.10000000000E+01 0.  0.
    9000001    1    1    2    0    0  0.10928857906E+04  0.18484905177E+03 -0.64047974579E+04  0.65000000000E+04  0.10000000000E+01 0.  0.
</event>
<event>
 4    1  0.2193160E-006  0.1300000E+05  0.7957747E-01  0.1322471E+00
    9000001   -1    0    0    0    0  0.00000000000E+00  0.00000000000E+00  0.64999999231E+04  0.65000000000E+04  0.10000000000E+01 0.  0.
    9000001   -1    0    0    0    0 -0.00000000000E+00 -0.00000000000E+00 -0.64999999231E+04  0.65000000000E+04  0.10000000000E+01 0.  0.
    9000001    1    1    2    0    0 -0.46788011158E+04  0.44638604194E+04  0.65785201606E+03  0.65000000000E+04  0.10000000000E+01 0.  0.
    9000001    1    1    2    0    0  0.46788011158E+04 -0.44638604194E+04 -0.65785201606E+03  0.65000000000E+04  0.10000000000E+01 0.  0.
</event>
<event>
 4    1  0.2193160E-006  0.1300000E+05  0.7957747E-01  0.1322471E+00
    9000001   -1    0    0    0    0  0.00000000000E+00  0.00000000000E+00  0.64999999231E+04  0.65000000000E+04  0.10000000000E+01 0.  0.
    9000001   -1    0    0    0    0 -0.00000000000E+00 -0.00000000000E+00 -0.64999999231E+04  0.65000000000E+04  0.10000000000E+01 0.  0.
    9000001    1    1    2    0    0 -0.15681721210E+04 -0.26491083000E+04 -0.57247760143E+04  0.65000000000E+04  0.10000000000E+01 0.  0.
    9000001    1    1    2    0    0  0.15681721210E+04  0.26491083000E+04  0.57247760143E+04  0.65000000000E+04  0.10000000000E+01 0.  0.
</event>
<event>
 4    1  0.2193160E-006  0.1300000E+05  0.7957747E-01  0.1322471E+00
    9000001   -1    0    0    0    0  0.00000000000E+00  0.00000000000E+00  0.64999999231E+04  0.65000000000E+04  0.10000000000E+01 0.  0.
    9000001   -1    0    0    0    0 -0.00000000000E+00 -0.00000000000E+00 -0.64999999231E+04  0.65000000000E+04  0.10000000000E+01 0.  0.
    9000001    1    1    2    0    0 -0.63778701341E+04 -0.16893487693E+03 -0.12426715415E+04  0.65000000000E+04  0.10000000000E+01 0.  0.
    9000001    1    1    2    0    0  0.63778701341E+04  0.16893487693E+03  0.12426715415E+04  0.65000000000E+04  0.10000000000E+01 0.  0.
</event>
<event>
 4    1  0.2193160E-006  0.1300000E+05  0.7957747E-01  0.1322471E+00
    9000001   -1    0    0    0    0  0.00000000000E+00  0.00000000000E+00  0.64999999231E+04  0.65000000000E+04  0.10000000000E+01 0.  0.
    9000001   -1    0    0    0    0 -0.00000000000E+00 -0.00000000000E+00 -0.64999999231E+04  0.65000000000E+04  0.10000000000E+01 0.  0.
    9000001    1    1    2    0    0 -0.62984942980E+04  0.12227545422E+04 -0.10410763219E+04  0.65000000000E+04  0.10000000000E+01 0.  0.
    9000001    1    1    2    0    0  0.62984942980E+04 -0.12227545422E+04  0.10410763219E+04  0.65000000000E+04  0.10000000000E+01 0.  0.
</event>
<event>
 4    1  0.2193160E-006  0.1300000E+05  0.7957747E-01  0.1322471E+00
    9000001   -1    0    0    0    0  0.00000000000E+00  0.00000000000E+00  0.64999999231E+04  0.65000000000E+04  0.10000000000E+01 0.  0.
    9000001   -1    0    0    0    0 -0.00000000000E+00 -0.00000000000E+00 -0.64999999231E+04  0.65000000000E+04  0.10000000000E+01 0.  0.
    9000001    1    1    2    0    0  0.33027939036E+04 -0.27782785420E+04  0.48603209537E+04  0.65000000000E+04  0.10000000000E+01 0.  0.
    9000001    1    1    2    0    0 -0.33027939036E+04  0.27782785420E+04 -0.48603209537E+04  0.65000000000E+04  0.10000000000E+01 0.  0.
</event>
<event>
 4    1  0.2193160E-006  0.1300000E+05  0.7957747E-01  0.1322471E+00
    9000001   -1    0    0    0    0  0.00000000000E+00  0.00000000000E+00  0.64999999231E+04  0.65000000000E+04  0.10000000000E+01 0.  0.
    9000001   -1    0    0    0    0 -0.00000000000E+00 -0.00000000000E+00 -0.64999999231E+04  0.65000000000E+04  0.10000000000E+01 0.  0.
    9000001    1    1    2    0    0  0.29895052277E+04 -0.27511477031E+04  0.50738588677E+04  0.65000000000E+04  0.10000000000E+01 0.  0.
    9000001    1    1    2    0    0 -0.29895052277E+04  0.27511477031E+04 -0.50738588677E+04  0.65000000000E+04  0.10000000000E+01 0.  0.
</event>
<event>
 4    1  0.2193160E-006  0.1300000E+05  0.7957747E-01  0.1322471E+00
    9000001   -1    0    0    0    0  0.00000000000E+00  0.00000000000E+00  0.64999999231E+04  0.65000000000E+04  0.10000000000E+01 0.  0.
    9000001   -1    0    0    0    0 -0.00000000000E+00 -0.00000000000E+00 -0.64999999231E+04  0.65000000000E+04  0.10000000000E+01 0.  0.
    9000001    1    1    2    0    0 -0.14259414854E+04 -0.36996307353E+04  0.51506720244E+04  0.65000000000E+04  0.10000000000E+01 0.  0.
    9000001    1    1    2    0    0  0.14259414854E+04  0.36996307353E+04 -0.51506720244E+04  0.65000000000E+04  0.10000000000E+01 0.  0.
</event>
<event>
 4    1  0.2193160E-006  0.1300000E+05  0.7957747E-01  0.1322471E+00
    9000001   -1    0    0    0    0  0.00000000000E+00  0.00000000000E+00  0.64999999231E+04  0.65000000000E+04  0.10000000000E+01 0.  0.
    9000001   -1    0    0    0    0 -0.00000000000E+00 -0.00000000000E+00 -0.64999999231E+04  0.65000000000E+04  0.10000000000E+01 0.  0.
    9000001    1    1    2    0    0 -0.47847076054E+04 -0.42983726758E+04  0.93838396753E+03  0.65000000000E+04  0.10000000000E+01 0.  0.
    9000001    1    1    2    0    0  0.47847076054E+04  0.42983726758E+04 -0.93838396753E+03  0.65000000000E+04  0.10000000000E+01 0.  0.
</event>
<event>
 4    1  0.2193160E-006  0.1300000E+05  0.7957747E-01  0.1322471E+00
    9000001   -1    0    0    0    0  0.00000000000E+00  0.00000000000E+00  0.64999999231E+04  0.65000000000E+04  0.10000000000E+01 0.  0.
    9000001   -1    0    0    0    0 -0.00000000000E+00 -0.00000000000E+00 -0.64999999231E+04  0.65000000000E+04  0.10000000000E+01 0.  0.
    9000001    1    1    2    0    0 -0.64425989733E+04 -0.81297748309E+03  0.28633037078E+03  0.65000000000E+04  0.10000000000E+01 0.  0.
    9000001    1    1    2    0    0  0.64425989733E+04  0.81297748309E+03 -0.28633037078E+03  0.65000000000E+04  0.10000000000E+01 0.  0.
</event>
<event>
 4    1  0.2193160E-006  0.1300000E+05  0.7957747E-01  0.1322471E+00
    9000001   -1    0    0    0    0  0.00000000000E+00  0.00000000000E+00  0.64999999231E+04  0.65000000000E+04  0.10000000000E+01 0.  0.
    9000001   -1    0    0    0    0 -0.00000000000E+00 -0.00000000000E+00 -0.64999999231E+04  0.65000000000E+04  0.10000000000E+01 0.  0.
    9000001    1    1    2    0    0  0.19785149647E+04  0.25206489425E+04  0.56552459224E+04  0.65000000000E+04  0.10000000000E+01 0.  0.
    9000001    1    1    2    0    0 -0.19785149647E+04 -0.25206489425E+04 -0.56552459224E+04  0.65000000000E+04  0.10000000000E+01 0.  0.
</event>
<event>
 4    1  0.2193160E-006  0.1300000E+05  0.7957747E-01  0.1322471E+00
    9000001   -1    0    0    0    0  0.00000000000E+00  0.00000000000E+00  0.64999999231E+04  0.65000000000E+04  0.10000000000E+01 0.  0.
    9000001   -1    0    0    0    0 -0.00000000000E+00 -0.00000000000E+00 -0.64999999231E+04  0.65000000000E+04  0.10000000000E+01 0.  0.
    9000001    1    1    2    0    0 -0.58473084427E+04 -0.11939470734E+04  0.25755530206E+04  0.65000000000E+04  0.10000000000E+01 0.  0.
    9000001    1    1    2    0    0  0.58473084427E+04  0.11939470734E+04 -0.25755530206E+04  0.65000000000E+04  0.10000000000E+01 0.  0.
</event>
<event>
 4    1  0.2193160E-006  0.1300000E+05  0.7957747E-01  0.1322471E+00
    9000001   -1    0    0    0    0  0.00000000000E+00  0.00000000000E+00  0.64999999231E+04  0.65000000000E+04  0.10000000000E+01 0.  0.
    9000001   -1    0    0    0    0 -0.00000000000E+00 -0.00000000000E+00 -0.64999999231E+04  0.65000000000E+04  0.10000000000E+01 0.  0.
    9000001    1    1    2    0    0 -0.38973695072E+04  0.35090909556E+04  0.38401550216E+04  0.65000000000E+04  0.10000000000E+01 0.  0.
    9000001    1    1    2    0    0  0.38973695072E+04 -0.35090909556E+04 -0.38401550216E+04  0.65000000000E+04  0.10000000000E+01 0.  0.
</event>
<event>
 4    1  0.2193160E-006  0.1300000E+05  0.7957747E-01  0.1322471E+00
    9000001   -1    0    0    0    0  0.00000000000E+00  0.00000000000E+00  0.64999999231E+04  0.65000000000E+04  0.10000000000E+01 0.  0.
    9000001   -1    0    0    0    0 -0.00000000000E+00 -0.00000000000E+00 -0.64999999231E+04  0.65000000000E+04  0.10000000000E+01 0.  0.
    9000001    1    1    2    0    0 -0.53427008660E+04 -0.25276617324E+04  0.27048978951E+04  0.65000000000E+04  0.10000000000E+01 0.  0.
    9000001    1    1    2    0    0  0.53427008660E+04  0.25276617324E+04 -0.27048978951E+04  0.65000000000E+04  0.10000000000E+01 0.  0.
</event>
<event>
 4    1  0.2193160E-006  0.1300000E+05  0.7957747E-01  0.1322471E+00
    9000001   -1    0    0    0    0  0.00000000000E+00  0.00000000000E+00  0.64999999231E+04  0.65000000000E+04  0.10000000000E+01 0.  0.
    9000001   -1    0    0    0    0 -0.00000000000E+00 -0.00000000000E+00 -0.64999999231E+04  0.65000000000E+04  0.10000000000E+01 0.  0.
    9000001    1    1    2    0    0  0.17868172492E+04 -0.34691730762E+04 -0.51982806086E+04  0.65000000000E+04  0.10000000000E+01 0.  0.
    9000001    1    1    2    0    0 -0.17868172492E+04  0.34691730762E+04  0.51982806086E+04  0.65000000000E+04  0.10000000000E+01 0.  0.
</event>
<event>
 4    1  0.2193160E-006  0.1300000E+05  0.7957747E-01  0.1322471E+00
    9000001   -1    0    0    0    0  0.00000000000E+00  0.00000000000E+00  0.64999999231E+04  0.65000000000E+04  0.10000000000E+01 0.  0.
    9000001   -1    0    0    0    0 -0.00000000000E+00 -0.00000000000E+00 -0.64999999231E+04  0.65000000000E+04  0.10000000000E+01 0.  0.
    9000001    1    1    2    0    0  0.45112522536E+04 -0.27630567618E+04  0.37767869195E+04  0.65000000000E+04  0.10000000000E+01 0.  0.
    9000001    1    1    2    0    0 -0.45112522536E+04  0.27630567618E+04 -0.37767869195E+04  0.65000000000E+04  0.10000000000E+01 0.  0.
</event>
<event>
 4    1  0.2193160E-006  0.1300000E+05  0.7957747E-01  0.1322471E+00
    9000001   -1    0    0    0    0  0.00000000000E+00  0.00000000000E+00  0.64999999231E+04  0.65000000000E+04  0.10000000000E+01 0.  0.
    9000001   -1    0    0    0    0 -0.00000000000E+00 -0.00000000000E+00 -0.64999999231E+04  0.65000000000E+04  0.10000000000E+01 0.  0.
    9000001    1    1    2    0    0  0.42968644967E+03 -0.20846889516E+04  0.61416154658E+04  0.65000000000E+04  0.10000000000E+01 0.  0.
    9000001    1    1    2    0    0 -0.42968644967E+03  0.20846889516E+04 -0.61416154658E+04  0.65000000000E+04  0.10000000000E+01 0.  0.
</event>
<event>
 4    1  0.2193160E-006  0.1300000E+05  0.7957747E-01  0.1322471E+00
    9000001   -1    0    0    0    0  0.00000000000E+00  0.00000000000E+00  0.64999999231E+04  0.65000000000E+04  0.10000000000E+01 0.  0.
    9000001   -1    0    0    0    0 -0.00000000000E+00 -0.00000000000E+00 -0.64999999231E+04  0.65000000000E+04  0.10000000000E+01 0.  0.
    9000001    1    1    2    0    0 -0.58979165489E+04 -0.27320904355E+04 -0.16162740466E+02  0.65000000000E+04  0.10000000000E+01 0.  0.
    9000001    1    1    2    0    0  0.58979165489E+04  0.27320904355E+04  0.16162740466E+02  0.65000000000E+04  0.10000000000E+01 0.  0.
</event>
<event>
 4    1  0.2193160E-006  0.1300000E+05  0.7957747E-01  0.1322471E+00
    9000001   -1    0    0    0    0  0.00000000000E+00  0.00000000000E+00  0.64999999231E+04  0.65000000000E+04  0.10000000000E+01 0.  0.
    9000001   -1    0    0    0    0 -0.00000000000E+00 -0.00000000000E+00 -0.64999999231E+04  0.65000000000E+04  0.10000000000E+01 0.  0.
    9000001    1    1    2    0    0 -0.22727867251E+04 -0.40489231309E+04  0.45486988229E+04  0.65000000000E+04  0.10000000000E+01 0.  0.
    9000001    1    1    2    0    0  0.22727867251E+04  0.40489231309E+04 -0.45486988229E+04  0.65000000000E+04  0.10000000000E+01 0.  0.
</event>
<event>
 4    1  0.2193160E-006  0.1300000E+05  0.7957747E-01  0.1322471E+00
    9000001   -1    0    0    0    0  0.00000000000E+00  0.00000000000E+00  0.64999999231E+04  0.65000000000E+04  0.10000000000E+01 0.  0.
    9000001   -1    0    0    0    0 -0.00000000000E+00 -0.00000000000E+00 -0.64999999231E+04  0.65000000000E+04  0.10000000000E+01 0.  0.
    9000001    1    1    2    0    0  0.64838630453E+04 -0.43131615046E+03  0.15324943259E+03  0.65000000000E+04  0.10000000000E+01 0.  0.
    9000001    1    1    2    0    0 -0.64838630453E+04  0.43131615046E+03 -0.15324943259E+03  0.65000000000E+04  0.10000000000E+01 0.  0.
</event>
<event>
 4    1  0.2193160E-006  0.1300000E+05  0.7957747E-01  0.1322471E+00
    9000001   -1    0    0    0    0  0.00000000000E+00  0.00000000000E+00  0.64999999231E+04  0.65000000000E+04  0.10000000000E+01 0.  0.
    9000001   -1    0    0    0    0 -0.00000000000E+00 -0.00000000000E+00 -0.64999999231E+04  0.65000000000E+04  0.10000000000E+01 0.  0.
    9000001    1    1    2    0    0 -0.63563838299E+04  0.13153370246E+04 -0.34098697751E+03  0.65000000000E+04  0.10000000000E+01 0.  0.
    9000001    1    1    2    0    0  0.63563838299E+04 -0.13153370246E+04  0.34098697751E+03  0.65000000000E+04  0.10000000000E+01 0.  0.
</event>
<event>
 4    1  0.2193160E-006  0.1300000E+05  0.7957747E-01  0.1322471E+00
    9000001   -1    0    0    0    0  0.00000000000E+00  0.00000000000E+00  0.64999999231E+04  0.65000000000E+04  0.10000000000E+01 0.  0.
    9000001   -1    0    0    0    0 -0.00000000000E+00 -0.00000000000E+00 -0.64999999231E+04  0.65000000000E+04  0.10000000000E+01 0.  0.
    9000001    1    1    2    0    0 -0.28005381453E+04  0.52612751659E+04  0.25934472667E+04  0.65000000000E+04  0.10000000000E+01 0.  0.
    9000001    1    1    2    0    0  0.28005381453E+04 -0.52612751659E+04 -0.25934472667E+04  0.65000000000E+04  0.10000000000E+01 0.  0.
</event>
<event>
 4    1  0.2193160E-006  0.1300000E+05  0.7957747E-01  0.1322471E+00
    9000001   -1    0    0    0    0  0.00000000000E+00  0.00000000000E+00  0.64999999231E+04  0.65000000000E+04  0.10000000000E+01 0.  0.
    9000001   -1    0    0    0    0 -0.00000000000E+00 -0.00000000000E+00 -0.64999999231E+04  0.65000000000E+04  0.10000000000E+01 0.  0.
    9000001    1    1    2    0    0  0.87753282836E+03 -0.35188980286E+04  0.53941905602E+04  0.65000000000E+04  0.10000000000E+01 0.  0.
    9000001    1    1    2    0    0 -0.87753282836E+03  0.35188980286E+04 -0.53941905602E+04  0.65000000000E+04  0.10000000000E+01 0.  0.
</event>
<event>
 4    1  0.2193160E-006  0.1300000E+05  0.7957747E-01  0.1322471E+00
    9000001   -1    0    0    0    0  0.00000000000E+00  0.00000000000E+00  0.64999999231E+04  0.65000000000E+04  0.10000000000E+01 0.  0.
    9000001   -1    0    0    0    0 -0.00000000000E+00 -0.00000000000E+00 -0.64999999231E+04  0.65000000000E+04  0.10000000000E+01 0.  0.
    9000001    1    1    2    0    0  0.11140353158E+04  0.37869839569E+04 -0.51640756022E+04  0.65000000000E+04  0.10000000000E+01 0.  0.
    9000001    1    1    2    0    0 -0.11140353158E+04 -0.37869839569E+04  0.51640756022E+04  0.65000000000E+04  0.10000000000E+01 0.  0.
</event>
<event>
 4    1  0.2193160E-006  0.1300000E+05  0.7957747E-01  0.1322471E+00
    9000001   -1    0    0    0    0  0.00000000000E+00  0.00000000000E+00  0.64999999231E+04  0.65000000000E+04  0.10000000000E+01 0.  0.
    9000001   -1    0    0    0    0 -0.00000000000E+00 -0.00000000000E+00 -0.64999999231E+04  0.65000000000E+04  0.10000000000E+01 0.  0.
    9000001    1    1    2    0    0 -0.46049004661E+04 -0.41588514717E+04 -0.19361934650E+04  0.65000000000E+04  0.10000000000E+01 0.  0.
    9000001    1    1    2    0    0  0.46049004661E+04  0.41588514717E+04  0.19361934650E+04  0.65000000000E+04  0.10000000000E+01 0.  0.
</event>
<event>
 4    1  0.2193160E-006  0.1300000E+05  0.7957747E-01  0.1322471E+00
    9000001   -1    0    0    0    0  0.00000000000E+00  0.00000000000E+00  0.64999999231E+04  0.65000000000E+04  0.10000000000E+01 0.  0.
    9000001   -1    0    0    0    0 -0.00000000000E+00 -0.00000000000E+00 -0.64999999231E+04  0.65000000000E+04  0.10000000000E+01 0.  0.
    9000001    1    1    2    0    0  0.16266297851E+04  0.46738248166E+04  0.42141946000E+04  0.65000000000E+04  0.10000000000E+01 0.  0.
    9000001    1    1    2    0    0 -0.16266297851E+04 -0.46738248166E+04 -0.42141946000E+04  0.65000000000E+04  0.10000000000E+01 0.  0.
</event>
<event>
 4    1  0.2193160E-006  0.1300000E+05  0.7957747E-01  0.1322471E+00
    9000001   -1    0    0    0    0  0.00000000000E+00  0.00000000000E+00  0.64999999231E+04  0.65000000000E+04  0.10000000000E+01 0.  0.
    9000001   -1    0    0    0    0 -0.00000000000E+00 -0.00000000000E+00 -0.64999999231E+04  0.65000000000E+04  0.10000000000E+01 0.  0.
    9000001    1    1    2    0    0  0.28710431653E+04  0.29740540279E+04  0.50161850825E+04  0.65000000000E+04  0.10000000000E+01 0.  0.
    9000001    1    1    2    0    0 -0.28710431653E+04 -0.29740540279E+04 -0.50161850825E+04  0.65000000000E+04  0.10000000000E+01 0.  0.
</event>
<event>
 4    1  0.2193160E-006  0.1300000E+05  0.7957747E-01  0.1322471E+00
    9000001   -1    0    0    0    0  0.00000000000E+00  0.00000000000E+00  0.64999999231E+04  0.65000000000E+04  0.10000000000E+01 0.  0.
    9000001   -1    0    0    0    0 -0.00000000000E+00 -0.00000000000E+00 -0.64999999231E+04  0.65000000000E+04  0.10000000000E+01 0.  0.
    9000001    1    1    2    0    0  0.28620421412E+04  0.51027073181E+04 -0.28321532105E+04  0.65000000000E+04  0.10000000000E+01 0.  0.
    9000001    1    1    2    0    0 -0.28620421412E+04 -0.51027073181E+04  0.28321532105E+04  0.65000000000E+04  0.10000000000E+01 0.  0.
</event>
<event>
 4    1  0.2193160E-006  0.1300000E+05  0.7957747E-01  0.1322471E+00
    9000001   -1    0    0    0    0  0.00000000000E+00  0.00000000000E+00  0.64999999231E+04  0.65000000000E+04  0.10000000000E+01 0.  0.
    9000001   -1    0    0    0    0 -0.00000000000E+00 -0.00000000000E+00 -0.64999999231E+04  0.65000000000E+04  0.10000000000E+01 0.  0.
    9000001    1    1    2    0    0 -0.58516923429E+04 -0.11418648504E+04  0.25891775505E+04  0.65000000000E+04  0.10000000000E+01 0.  0.
    9000001    1    1    2    0    0  0.58516923429E+04  0.11418648504E+04 -0.25891775505E+04  0.65000000000E+04  0.10000000000E+01 0.  0.
</event>
<event>
 4    1  0.2193160E-006  0.1300000E+05  0.7957747E-01  0.1322471E+00
    9000001   -1    0    0    0    0  0.00000000000E+00  0.00000000000E+00  0.64999999231E+04  0.65000000000E+04  0.10000000000E+01 0.  0.
    9000001   -1    0    0    0    0 -0.00000000000E+00 -0.00000000000E+00 -0.64999999231E+04  0.65000000000E+04  0.10000000000E+01 0.  0.
    9000001    1    1    2    0    0 -0.26391396862E+04 -0.52477274201E+04  0.27832171386E+04  0.65000000000E+04  0.10000000000E+01 0.  0.
    9000001    1    1    2    0    0  0.26391396862E+04  0.52477274201E+04 -0.27832171386E+04  0.65000000000E+04  0.10000000000E+01 0.  0.
</event>
<event>
 4    1  0.2193160E-006  0.1300000E+05  0.7957747E-01  0.1322471E+00
    9000001   -1    0    0    0    0  0.00000000000E+00  0.00000000000E+00  0.64999999231E+04  0.65000000000E+04  0.10000000000E+01 0.  0.
    9000001   -1    0    0    0    0 -0.00000000000E+00 -0.00000000000E+00 -0.64999999231E+04  0.65000000000E+04  0.10000000000E+01 0.  0.
    9000001    1    1    2    0    0 -0.31417361102E+04 -0.41998643299E+04  0.38393531778E+04  0.65000000000E+04  0.10000000000E+01 0.  0.
    9000001    1    1    2    0    0  0.31417361102E+04  0.41998643299E+04 -0.38393531778E+04  0.65000000000E+04  0.10000000000E+01 0.  0.
</event>
<event>
 4    1  0.2193160E-006  0.1300000E+05  0.7957747E-01  0.1322471E+00
    9000001   -1    0    0    0    0  0.00000000000E+00  0.00000000000E+00  0.64999999231E+04  0.65000000000E+04  0.10000000000E+01 0.  0.
    9000001   -1    0    0    0    0 -0.00000000000E+00 -0.00000000000E+00 -0.64999999231E+04  0.65000000000E+04  0.10000000000E+01 0.  0.
    9000001    1    1    2    0    0  0.28085309184E+04  0.46542637107E+04  0.35637034658E+04  0.65000000000E+04  0.10000000000E+01 0.  0.
    9000001    1    1    2    0    0 -0.28085309184E+04 -0.46542637107E+04 -0.35637034658E+04  0.65000000000E+04  0.10000000000E+01 0.  0.
</event>
<event>
 4    1  0.2193160E-006  0.1300000E+05  0.7957747E-01  0.1322471E+00
    9000001   -1    0    0    0    0  0.00000000000E+00  0.00000000000E+00  0.64999999231E+04  0.65000000000E+04  0.10000000000E+01 0.  0.
    9000001   -1    0    0    0    0 -0.00000000000E+00 -0.00000000000E+00 -0.64999999231E+04  0.65000000000E+04  0.10000000000E+01 0.  0.
    9000001    1    1    2    0    0  0.37514530597E+03 -0.41546090095E+04 -0.49848258723E+04  0.65000000000E+04  0.10000000000E+01 0.  0.
    9000001    1    1    2    0    0 -0.37514530597E+03  0.41546090095E+04  0.49848258723E+04  0.65000000000E+04  0.10000000000E+01 0.  0.
</event>
<event>
 4    1  0.2193160E-006  0.1300000E+05  0.7957747E-01  0.1322471E+00
    9000001   -1    0    0    0    0  0.00000000000E+00  0.00000000000E+00  0.64999999231E+04  0.65000000000E+04  0.10000000000E+01 0.  0.
    9000001   -1    0    0    0    0 -0.00000000000E+00 -0.00000000000E+00 -0.64999999231E+04  0.65000000000E+04  0.10000000000E+01 0.  0.
    9000001    1    1    2    0    0 -0.39484924321E+04  0.48311652983E+04  0.18218804502E+04  0.65000000000E+04  0.10000000000E+01 0.  0.
    9000001    1    1    2    0    0  0.39484924321E+04 -0.48311652983E+04 -0.18218804502E+04  0.65000000000E+04  0.10000000000E+01 0.  0.
</event>
<event>
 4    1  0.2193160E-006  0.1300000E+05  0.7957747E-01  0.1322471E+00
    9000001   -1    0    0    0    0  0.00000000000E+00  0.00000000000E+00  0.64999999231E+04  0.65000000000E+04  0.10000000000E+01 0.  0.
    9000001   -1    0    0    0    0 -0.00000000000E+00 -0.00000000000E+00 -0.64999999231E+04  0.65000000000E+04  0.10000000000E+01 0.  0.
    9000001    1    1    2    0    0 -0.59687916772E+03  0.55584475349E+04  0.33162320879E+04  0.65000000000E+04  0.10000000000E+01 0.  0.
    9000001    1    1    2    0    0  0.59687916772E+03 -0.55584475349E+04 -0.33162320879E+04  0.65000000000E+04  0.10000000000E+01 0.  0.
</event>
<event>
 4    1  0.2193160E-006  0.1300000E+05  0.7957747E-01  0.1322471E+00
    9000001   -1    0    0    0    0  0.00000000000E+00  0.00000000000E+00  0.64999999231E+04  0.65000000000E+04  0.10000000000E+01 0.  0.
    9000001   -1    0    0    0    0 -0.00000000000E+00 -0.00000000000E+00 -0.64999999231E+04  0.65000000000E+04  0.10000000000E+01 0.  0.
    9000001    1    1    2    0    0 -0.11129027107E+04 -0.62096095941E+04 -0.15659486725E+04  0.65000000000E+04  0.10000000000E+01 0.  0.
    9000001    1    1    2    0    0  0.11129027107E+04  0.62096095941E+04  0.15659486725E+04  0.65000000000E+04  0.10000000000E+01 0.  0.
</event>
<event>
 4    1  0.2193160E-006  0.1300000E+05  0.7957747E-01  0.1322471E+00
    9000001   -1    0    0    0    0  0.00000000000E+00  0.00000000000E+00  0.64999999231E+04  0.65000000000E+04  0.10000000000E+01 0.  0.
    9000001   -1    0    0    0    0 -0.00000000000E+00 -0.00000000000E+00 -0.64999999231E+04  0.65000000000E+04  0.10000000000E+01 0.  0.
    9000001    1    1    2    0    0 -0.31750265073E+04 -0.10953790023E+04 -0.55650112776E+04  0.65000000000E+04  0.10000000000E+01 0.  0.
    9000001    1    1    2    0    0  0.31750265073E+04  0.10953790023E+04  0.55650112776E+04  0.65000000000E+04  0.10000000000E+01 0.  0.
</event>
<event>
 4    1  0.2193160E-006  0.1300000E+05  0.7957747E-01  0.1322471E+00
    9000001   -1    0    0    0    0  0.00000000000E+00  0.00000000000E+00  0.64999999231E+04  0.65000000000E+04  0.10000000000E+01 0.  0.
    9000001   -1    0    0    0    0 -0.00000000000E+00 -0.00000000000E+00 -0.64999999231E+04  0.65000000000E+04  0.10000000000E+01 0.  0.
    9000001    1    1    2    0    0 -0.53945032250E+04 -0.21287929875E+02 -0.36261385494E+04  0.65000000000E+04  0.10000000000E+01 0.  0.
    9000001    1    1    2    0    0  0.53945032250E+04  0.21287929875E+02  0.36261385494E+04  0.65000000000E+04  0.10000000000E+01 0.  0.
</event>
<event>
 4    1  0.2193160E-006  0.1300000E+05  0.7957747E-01  0.1322471E+00
    9000001   -1    0    0    0    0  0.00000000000E+00  0.00000000000E+00  0.64999999231E+04  0.65000000000E+04  0.10000000000E+01 0.  0.
    9000001   -1    0    0    0    0 -0.00000000000E+00 -0.00000000000E+00 -0.64999999231E+04  0.65000000000E+04  0.10000000000E+01 0.  0.
    9000001    1    1    2    0    0  0.51870957950E+04  0.39165486275E+04  0.68432898626E+02  0.65000000000E+04  0.10000000000E+01 0.  0.
    9000001    1    1    2    0    0 -0.51870957950E+04 -0.39165486275E+04 -0.68432898626E+02  0.65000000000E+04  0.10000000000E+01 0.  0.
</event>
<event>
 4    1  0.2193160E-006  0.1300000E+05  0.7957747E-01  0.1322471E+00
    9000001   -1    0    0    0    0  0.00000000000E+00  0.00000000000E+00  0.64999999231E+04  0.65000000000E+04  0.10000000000E+01 0.  0.
    9000001   -1    0    0    0    0 -0.00000000000E+00 -0.00000000000E+00 -0.64999999231E+04  0.65000000000E+04  0.10000000000E+01 0.  0.
    9000001    1    1    2    0    0 -0.23400169422E+04  0.33587677887E+04 -0.50490591848E+04  0.65000000000E+04  0.10000000000E+01 0.  0.
    9000001    1    1    2    0    0  0.23400169422E+04 -0.33587677887E+04  0.50490591848E+04  0.65000000000E+04  0.10000000000E+01 0.  0.
</event>
<event>
 4    1  0.2193160E-006  0.1300000E+05  0.7957747E-01  0.1322471E+00
    9000001   -1    0    0    0    0  0.00000000000E+00  0.00000000000E+00  0.64999999231E+04  0.65000000000E+04  0.10000000000E+01 0.  0.
    9000001   -1    0    0    0    0 -0.00000000000E+00 -0.00000000000E+00 -0.64999999231E+04  0.65000000000E+04  0.10000000000E+01 0.  0.
    9000001    1    1    2    0    0  0.29832649110E+04  0.55408652534E+04  0.16275569774E+04  0.65000000000E+04  0.10000000000E+01 0.  0.
    9000001    1    1    2    0    0 -0.29832649110E+04 -0.55408652534E+04 -0.16275569774E+04  0.65000000000E+04  0.10000000000E+01 0.  0.
</event>
<event>
 4    1  0.2193160E-006  0.1300000E+05  0.7957747E-01  0.1322471E+00
    9000001   -1    0    0    0    0  0.00000000000E+00  0.00000000000E+00  0.64999999231E+04  0.65000000000E+04  0.10000000000E+01 0.  0.
    9000001   -1    0    0    0    0 -0.00000000000E+00 -0.00000000000E+00 -0.64999999231E+04  0.65000000000E+04  0.10000000000E+01 0.  0.
    9000001    1    1    2    0    0 -0.38726149551E+04  0.41664730736E+04  0.31453703338E+04  0.65000000000E+04  0.10000000000E+01 0.  0.
    9000001    1    1    2    0    0  0.38726149551E+04 -0.41664730736E+04 -0.31453703338E+04  0.65000000000E+04  0.10000000000E+01 0.  0.
</event>
<event>
 4    1  0.2193160E-006  0.1300000E+05  0.7957747E-01  0.1322471E+00
    9000001   -1    0    0    0    0  0.00000000000E+00  0.00000000000E+00  0.64999999231E+04  0.65000000000E+04  0.10000000000E+01 0.  0.
    9000001   -1    0    0    0    0 -0.00000000000E+00 -0.00000000000E+00 -0.64999999231E+04  0.65000000000E+04  0.10000000000E+01 0.  0.
    9000001    1    1    2    0    0 -0.20892051523E+04 -0.45976181659E+03 -0.61379019138E+04  0.65000000000E+04  0.10000000000E+01 0.  0.
    9000001    1    1    2    0    0  0.20892051523E+04  0.45976181659E+03  0.61379019138E+04  0.65000000000E+04  0.10000000000E+01 0.  0.
</event>
<event>
 4    1  0.2193160E-006  0.1300000E+05  0.7957747E-01  0.1322471E+00
    9000001   -1    0    0    0    0  0.00000000000E+00  0.00000000000E+00  0.64999999231E+04  0.65000000000E+04  0.10000000000E+01 0.  0.
    9000001   -1    0    0    0    0 -0.00000000000E+00 -0.00000000000E+00 -0.64999999231E+04  0.65000000000E+04  0.10000000000E+01 0.  0.
    9000001    1    1    2    0    0  0.33485400880E+04 -0.25369213504E+04  0.49599705988E+04  0.65000000000E+04  0.10000000000E+01 0.  0.
    9000001    1    1    2    0    0 -0.33485400880E+04  0.25369213504E+04 -0.49599705988E+04  0.65000000000E+04  0.10000000000E+01 0.  0.
</event>
<event>
 4    1  0.2193160E-006  0.1300000E+05  0.7957747E-01  0.1322471E+00
    9000001   -1    0    0    0    0  0.00000000000E+00  0.00000000000E+00  0.64999999231E+04  0.65000000000E+04  0.10000000000E+01 0.  0.
    9000001   -1    0    0    0    0 -0.00000000000E+00 -0.00000000000E+00 -0.64999999231E+04  0.65000000000E+04  0.10000000000E+01 0.  0.
    9000001    1    1    2    0    0  0.44255621075E+04 -0.37030279403E+04 -0.29919864815E+04  0.65000000000E+04  0.10000000000E+01 0.  0.
    9000001    1    1    2    0    0 -0.44255621075E+04  0.37030279403E+04  0.29919864815E+04  0.65000000000E+04  0.10000000000E+01 0.  0.
</event>
<event>
 4    1  0.2193160E-006  0.1300000E+05  0.7957747E-01  0.1322471E+00
    9000001   -1    0    0    0    0  0.00000000000E+00  0.00000000000E+00  0.64999999231E+04  0.65000000000E+04  0.10000000000E+01 0.  0.
    9000001   -1    0    0    0    0 -0.00000000000E+00 -0.00000000000E+00 -0.64999999231E+04  0.65000000000E+04  0.10000000000E+01 0.  0.
    9000001    1    1    2    0    0  0.15278538523E+03  0.38787655335E+04  0.52136200055E+04  0.65000000000E+04  0.10000000000E+01 0.  0.
    9000001    1    1    2    0    0 -0.15278538523E+03 -0.38787655335E+04 -0.52136200055E+04  0.65000000000E+04  0.10000000000E+01 0.  0.
</event>
<event>
 4    1  0.2193160E-006  0.1300000E+05  0.7957747E-01  0.1322471E+00
    9000001   -1    0    0    0    0  0.00000000000E+00  0.00000000000E+00  0.64999999231E+04  0.65000000000E+04  0.10000000000E+01 0.  0.
    9000001   -1    0    0    0    0 -0.00000000000E+00 -0.00000000000E+00 -0.64999999231E+04  0.65000000000E+04  0.10000000000E+01 0.  0.
    9000001    1    1    2    0    0  0.47628880108E+04  0.11092147078E+04 -0.42818850438E+04  0.65000000000E+04  0.10000000000E+01 0.  0.
    9000001    1    1    2    0    0 -0.47628880108E+04 -0.11092147078E+04  0.42818850438E+04  0.65000000000E+04  0.10000000000E+01 0.  0.
</event>
<event>
 4    1  0.2193160E-006  0.1300000E+05  0.7957747E-01  0.1322471E+00
    9000001   -1    0    0    0    0  0.00000000000E+00  0.00000000000E+00  0.64999999231E+04  0.65000000000E+04  0.10000000000E+01 0.  0.
    9000001   -1    0    0    0    0 -0.00000000000E+00 -0.00000000000E+00 -0.64999999231E+04  0.65000000000E+04  0.10000000000E+01 0.  0.
    9000001    1    1    2    0    0 -0.46448713774E+04 -0.40988468583E+04 -0.19684062894E+04  0.65000000000E+04  0.10000000000E+01 0.  0.
    9000001    1    1    2    0    0  0.46448713774E+04  0.40988468583E+04  0.19684062894E+04  0.65000000000E+04  0.10000000000E+01 0.  0.
</event>
<event>
 4    1  0.2193160E-006  0.1300000E+05  0.7957747E-01  0.1322471E+00
    9000001   -1    0    0    0    0  0.00000000000E+00  0.00000000000E+00  0.64999999231E+04  0.65000000000E+04  0.10000000000E+01 0.  0.
    9000001   -1    0    0    0    0 -0.00000000000E+00 -0.00000000000E+00 -0.64999999231E+04  0.65000000000E+04  0.10000000000E+01 0.  0.
    9000001    1    1    2    0    0  0.36873143451E+04  0.48382928708E+04 -0.22901165947E+04  0.65000000000E+04  0.10000000000E+01 0.  0.
    9000001    1    1    2    0    0 -0.36873143451E+04 -0.48382928708E+04  0.22901165947E+04  0.65000000000E+04  0.10000000000E+01 0.  0.
</event>
<event>
 4    1  0.2193160E-006  0.1300000E+05  0.7957747E-01  0.1322471E+00
    9000001   -1    0    0    0    0  0.00000000000E+00  0.00000000000E+00  0.64999999231E+04  0.65000000000E+04  0.10000000000E+01 0.  0.
    9000001   -1    0    0    0    0 -0.00000000000E+00 -0.00000000000E+00 -0.64999999231E+04  0.65000000000E+04  0.10000000000E+01 0.  0.
    9000001    1    1    2    0    0 -0.35079122789E+04 -0.21976533141E+04 -0.50114738705E+04  0.65000000000E+04  0.10000000000E+01 0.  0.
    9000001    1    1    2    0    0  0.35079122789E+04  0.21976533141E+04  0.50114738705E+04  0.65000000000E+04  0.10000000000E+01 0.  0.
</event>
<event>
 4    1  0.2193160E-006  0.1300000E+05  0.7957747E-01  0.1322471E+00
    9000001   -1    0    0    0    0  0.00000000000E+00  0.00000000000E+00  0.64999999231E+04  0.65000000000E+04  0.10000000000E+01 0.  0.
    9000001   -1    0    0    0    0 -0.00000000000E+00 -0.00000000000E+00 -0.64999999231E+04  0.65000000000E+04  0.10000000000E+01 0.  0.
    9000001    1    1    2    0    0  0.38917270854E+04  0.49738186117E+04 -0.15380467195E+04  0.65000000000E+04  0.10000000000E+01 0.  0.
    9000001    1    1    2    0    0 -0.38917270854E+04 -0.49738186117E+04  0.15380467195E+04  0.65000000000E+04  0.10000000000E+01 0.  0.
</event>
<event>
 4    1  0.2193160E-006  0.1300000E+05  0.7957747E-01  0.1322471E+00
    9000001   -1    0    0    0    0  0.00000000000E+00  0.00000000000E+00  0.64999999231E+04  0.65000000000E+04  0.10000000000E+01 0.  0.
    9000001   -1    0    0    0    0 -0.00000000000E+00 -0.00000000000E+00 -0.64999999231E+04  0.65000000000E+04  0.10000000000E+01 0.  0.
    9000001    1    1    2    0    0 -0.91002621971E+03 -0.57190390281E+04 -0.29520236913E+04  0.65000000000E+04  0.10000000000E+01 0.  0.
    9000001    1    1    2    0    0  0.91002621971E+03  0.57190390281E+04  0.29520236913E+04  0.65000000000E+04  0.10000000000E+01 0.  0.
</event>
<event>
 4    1  0.2193160E-006  0.1300000E+05  0.7957747E-01  0.1322471E+00
    9000001   -1    0    0    0    0  0.00000000000E+00  0.00000000000E+00  0.64999999231E+04  0.65000000000E+04  0.10000000000E+01 0.  0.
    9000001   -1    0    0    0    0 -0.00000000000E+00 -0.00000000000E+00 -0.64999999231E+04  0.65000000000E+04  0.10000000000E+01 0.  0.
    9000001    1    1    2    0    0  0.46155342068E+04  0.21369678824E+04 -0.40472473677E+04  0.65000000000E+04  0.10000000000E+01 0.  0.
    9000001    1    1    2    0    0 -0.46155342068E+04 -0.21369678824E+04  0.40472473677E+04  0.65000000000E+04  0.10000000000E+01 0.  0.
</event>
<event>
 4    1  0.2193160E-006  0.1300000E+05  0.7957747E-01  0.1322471E+00
    9000001   -1    0    0    0    0  0.00000000000E+00  0.00000000000E+00  0.64999999231E+04  0.65000000000E+04  0.10000000000E+01 0.  0.
    9000001   -1    0    0    0    0 -0.00000000000E+00 -0.00000000000E+00 -0.64999999231E+04  0.65000000000E+04  0.10000000000E+01 0.  0.
    9000001    1    1    2    0    0 -0.33899927042E+04  0.72545352558E+02  0.55455104037E+04  0.65000000000E+04  0.10000000000E+01 0.  0.
    9000001    1    1    2    0    0  0.33899927042E+04 -0.72545352558E+02 -0.55455104037E+04  0.65000000000E+04  0.10000000000E+01 0.  0.
</event>
<event>
 4    1  0.2193160E-006  0.1300000E+05  0.7957747E-01  0.1322471E+00
    9000001   -1    0    0    0    0  0.00000000000E+00  0.00000000000E+00  0.64999999231E+04  0.65000000000E+04  0.10000000000E+01 0.  0.
    9000001   -1    0    0    0    0 -0.00000000000E+00 -0.00000000000E+00 -0.64999999231E+04  0.65000000000E+04  0.10000000000E+01 0.  0.
    9000001    1    1    2    0    0  0.18572092092E+03  0.63747123268E+04 -0.12564033949E+04  0.65000000000E+04  0.10000000000E+01 0.  0.
    9000001    1    1    2    0    0 -0.18572092092E+03 -0.63747123268E+04  0.12564033949E+04  0.65000000000E+04  0.10000000000E+01 0.  0.
</event>
<event>
 4    1  0.2193160E-006  0.1300000E+05  0.7957747E-01  0.1322471E+00
    9000001   -1    0    0    0    0  0.00000000000E+00  0.00000000000E+00  0.64999999231E+04  0.65000000000E+04  0.10000000000E+01 0.  0.
    9000001   -1    0    0    0    0 -0.00000000000E+00 -0.00000000000E+00 -0.64999999231E+04  0.65000000000E+04  0.10000000000E+01 0.  0.
    9000001    1    1    2    0    0 -0.56767637959E+04  0.21524793302E+04  0.23218924477E+04  0.65000000000E+04  0.10000000000E+01 0.  0.
    9000001    1    1    2    0    0  0.56767637959E+04 -0.21524793302E+04 -0.23218924477E+04  0.65000000000E+04  0.10000000000E+01 0.  0.
</event>
<event>
 4    1  0.2193160E-006  0.1300000E+05  0.7957747E-01  0.1322471E+00
    9000001   -1    0    0    0    0  0.00000000000E+00  0.00000000000E+00  0.64999999231E+04  0.65000000000E+04  0.10000000000E+01 0.  0.
    9000001   -1    0    0    0    0 -0.00000000000E+00 -0.00000000000E+00 -0.64999999231E+04  0.65000000000E+04  0.10000000000E+01 0.  0.
    9000001    1    1    2    0    0  0.26638069302E+04 -0.48493538971E+04  0.34114364158E+04  0.65000000000E+04  0.10000000000E+01 0.  0.
    9000001    1    1    2    0    0 -0.26638069302E+04  0.48493538971E+04 -0.34114364158E+04  0.65000000000E+04  0.10000000000E+01 0.  0.
</event>
<event>
 4    1  0.2193160E-006  0.1300000E+05  0.7957747E-01  0.1322471E+00
    9000001   -1    0    0    0    0  0.00000000000E+00  0.00000000000E+00  0.64999999231E+04  0.65000000000E+04  0.10000000000E+01 0.  0.
    9000001   -1    0    0    0    0 -0.00000000000E+00 -0.00000000000E+00 -0.64999999231E+04  0.65000000000E+04  0.10000000000E+01 0.  0.
    9000001    1    1    2    0    0  0.33810223795E+04  0.55242484039E+04 -0.54896834262E+03  0.65000000000E+04  0.10000000000E+01 0.  0.
    9000001    1    1    2    0    0 -0.33810223795E+04 -0.55242484039E+04  0.54896834262E+03  0.65000000000E+04  0.10000000000E+01 0.  0.
</event>
<event>
 4    1  0.2193160E-006  0.1300000E+05  0.7957747E-01  0.1322471E+00
    9000001   -1    0    0    0    0  0.00000000000E+00  0.00000000000E+00  0.64999999231E+04  0.65000000000E+04  0.10000000000E+01 0.  0.
    9000001   -1    0    0    0    0 -0.00000000000E+00 -0.00000000000E+00 -0.64999999231E+04  0.65000000000E+04  0.10000000000E+01 0.  0.
    9000001    1    1    2    0    0 -0.59407054938E+04  0.21604569712E+04 -0.15134209299E+04  0.65000000000E+04  0.10000000000E+01 0.  0.
    9000001    1    1    2    0    0  0.59407054938E+04 -0.21604569712E+04  0.15134209299E+04  0.65000000000E+04  0.10000000000E+01 0.  0.
</event>
<event>
 4    1  0.2193160E-006  0.1300000E+05  0.7957747E-01  0.1322471E+00
    9000001   -1    0    0    0    0  0.00000000000E+00  0.00000000000E+00  0.64999999231E+04  0.65000000000E+04  0.10000000000E+01 0.  0.
    9000001   -1    0    0    0    0 -0.00000000000E+00 -0.00000000000E+00 -0.64999999231E+04  0.65000000000E+04  0.10000000000E+01 0.  0.
    9000001    1    1    2    0    0  0.62382012857E+04  0.18196666556E+04  0.15380826436E+03  0.65000000000E+04  0.10000000000E+01 0.  0.
    9000001    1    1    2    0    0 -0.62382012857E+04 -0.18196666556E+04 -0.15380826436E+03  0.65000000000E+04  0.10000000000E+01 0.  0.
</event>
<event>
 4    1  0.2193160E-006  0.1300000E+05  0.7957747E-01  0.1322471E+00
    9000001   -1    0    0    0    0  0.00000000000E+00  0.00000000000E+00  0.64999999231E+04  0.65000000000E+04  0.10000000000E+01 0.  0.
    9000001   -1    0    0    0    0 -0.00000000000E+00 -0.00000000000E+00 -0.64999999231E+04  0.65000000000E+04  0.10000000000E+01 0.  0.
    9000001    1    1    2    0    0  0.46782244814E+04 -0.44721580299E+04  0.60333842736E+03  0.65000000000E+04  0.10000000000E+01 0.  0.
    9000001    1    1    2    0    0 -0.46782244814E+04  0.44721580299E+04 -0.60333842736E+03  0.65000000000E+04  0.10000000000E+01 0.  0.
</event>
<event>
 4    1  0.2193160E-006  0.1300000E+05  0.7957747E-01  0.1322471E+00
    9000001   -1    0    0    0    0  0.00000000000E+00  0.00000000000E+00  0.64999999231E+04  0.65000000000E+04  0.10000000000E+01 0.  0.
    9000001   -1    0    0    0    0 -0.00000000000E+00 -0.00000000000E+00 -0.64999999231E+04  0.65000000000E+04  0.10000000000E+01 0.  0.
    9000001    1    1    2    0    0 -0.27487470921E+04 -0.33059122323E+04  0.48749700241E+04  0.65000000000E+04  0.10000000000E+01 0.  0.
    9000001    1    1    2    0    0  0.27487470921E+04  0.33059122323E+04 -0.48749700241E+04  0.65000000000E+04  0.10000000000E+01 0.  0.
</event>
<event>
 4    1  0.2193160E-006  0.1300000E+05  0.7957747E-01  0.1322471E+00
    9000001   -1    0    0    0    0  0.00000000000E+00  0.00000000000E+00  0.64999999231E+04  0.65000000000E+04  0.10000000000E+01 0.  0.
    9000001   -1    0    0    0    0 -0.00000000000E+00 -0.00000000000E+00 -0.64999999231E+04  0.65000000000E+04  0.10000000000E+01 0.  0.
    9000001    1    1    2    0    0 -0.10265576154E+04  0.90774688647E+03 -0.63539101388E+04  0.65000000000E+04  0.10000000000E+01 0.  0.
    9000001    1    1    2    0    0  0.10265576154E+04 -0.90774688647E+03  0.63539101388E+04  0.65000000000E+04  0.10000000000E+01 0.  0.
</event>
<event>
 4    1  0.2193160E-006  0.1300000E+05  0.7957747E-01  0.1322471E+00
    9000001   -1    0    0    0    0  0.00000000000E+00  0.00000000000E+00  0.64999999231E+04  0.65000000000E+04  0.10000000000E+01 0.  0.
    9000001   -1    0    0    0    0 -0.00000000000E+00 -0.00000000000E+00 -0.64999999231E+04  0.65000000000E+04  0.10000000000E+01 0.  0.
    9000001    1    1    2    0    0 -0.24259401206E+04 -0.41792442873E+04  0.43472670401E+04  0.65000000000E+04  0.10000000000E+01 0.  0.
    9000001    1    1    2    0    0  0.24259401206E+04  0.41792442873E+04 -0.43472670401E+04  0.65000000000E+04  0.10000000000E+01 0.  0.
</event>
<event>
 4    1  0.2193160E-006  0.1300000E+05  0.7957747E-01  0.1322471E+00
    9000001   -1    0    0    0    0  0.00000000000E+00  0.00000000000E+00  0.64999999231E+04  0.65000000000E+04  0.10000000000E+01 0.  0.
    9000001   -1    0    0    0    0 -0.00000000000E+00 -0.00000000000E+00 -0.64999999231E+04  0.65000000000E+04  0.10000000000E+01 0.  0.
    9000001    1    1    2    0    0 -0.15278885937E+04  0.48542735525E+01  0.63178740001E+04  0.65000000000E+04  0.10000000000E+01 0.  0.
    9000001    1    1    2    0    0  0.15278885937E+04 -0.48542735525E+01 -0.63178740001E+04  0.65000000000E+04  0.10000000000E+01 0.  0.
</event>
<event>
 4    1  0.2193160E-006  0.1300000E+05  0.7957747E-01  0.1322471E+00
    9000001   -1    0    0    0    0  0.00000000000E+00  0.00000000000E+00  0.64999999231E+04  0.65000000000E+04  0.10000000000E+01 0.  0.
    9000001   -1    0    0    0    0 -0.00000000000E+00 -0.00000000000E+00 -0.64999999231E+04  0.65000000000E+04  0.10000000000E+01 0.  0.
    9000001    1    1    2    0    0 -0.33327650118E+04  0.36056354074E+04  0.42593508526E+04  0.65000000000E+04  0.10000000000E+01 0.  0.
    9000001    1    1    2    0    0  0.33327650118E+04 -0.36056354074E+04 -0.42593508526E+04  0.65000000000E+04  0.10000000000E+01 0.  0.
</event>
<event>
 4    1  0.2193160E-006  0.1300000E+05  0.7957747E-01  0.1322471E+00
    9000001   -1    0    0    0    0  0.00000000000E+00  0.00000000000E+00  0.64999999231E+04  0.65000000000E+04  0.10000000000E+01 0.  0.
    9000001   -1    0    0    0    0 -0.00000000000E+00 -0.00000000000E+00 -0.64999999231E+04  0.65000000000E+04  0.10000000000E+01 0.  0.
    9000001    1    1    2    0    0  0.37057039465E+04 -0.71013789941E+03  0.52927744543E+04  0.65000000000E+04  0.10000000000E+01 0.  0.
    9000001    1    1    2    0    0 -0.37057039465E+04  0.71013789941E+03 -0.52927744543E+04  0.65000000000E+04  0.10000000000E+01 0.  0.
</event>
<event>
 4    1  0.2193160E-006  0.1300000E+05  0.7957747E-01  0.1322471E+00
    9000001   -1    0    0    0    0  0.00000000000E+00  0.00000000000E+00  0.64999999231E+04  0.65000000000E+04  0.10000000000E+01 0.  0.
    9000001   -1    0    0    0    0 -0.00000000000E+00 -0.00000000000E+00 -0.64999999231E+04  0.65000000000E+04  0.10000000000E+01 0.  0.
    9000001    1    1    2    0    0 -0.45539097073E+04 -0.45480215597E+04 -0.90961820024E+03  0.65000000000E+04  0.10000000000E+01 0.  0.
    9000001    1    1    2    0    0  0.45539097073E+04  0.45480215597E+04  0.90961820024E+03  0.65000000000E+04  0.10000000000E+01 0.  0.
</event>
<event>
 4    1  0.2193160E-006  0.1300000E+05  0.7957747E-01  0.1322471E+00
    9000001   -1    0    0    0    0  0.00000000000E+00  0.00000000000E+00  0.64999999231E+04  0.65000000000E+04  0.10000000000E+01 0.  0.
    9000001   -1    0    0    0    0 -0.00000000000E+00 -0.00000000000E+00 -0.64999999231E+04  0.65000000000E+04  0.10000000000E+01 0.  0.
    9000001    1    1    2    0    0  0.44138574431E+04  0.13946020523E+04 -0.45632166930E+04  0.65000000000E+04  0.10000000000E+01 0.  0.
    9000001    1    1    2    0    0 -0.44138574431E+04 -0.13946020523E+04  0.45632166930E+04  0.65000000000E+04  0.10000000000E+01 0.  0.
</event>
<event>
 4    1  0.2193160E-006  0.1300000E+05  0.7957747E-01  0.1322471E+00
    9000001   -1    0    0    0    0  0.00000000000E+00  0.00000000000E+00  0.64999999231E+04  0.65000000000E+04  0.10000000000E+01 0.  0.
    9000001   -1    0    0    0    0 -0.00000000000E+00 -0.00000000000E+00 -0.64999999231E+04  0.65000000000E+04  0.10000000000E+01 0.  0.
    9000001    1    1    2    0    0  0.43826992638E+04 -0.30034204248E+04 -0.37445175811E+04  0.65000000000E+04  0.10000000000E+01 0.  0.
    9000001    1    1    2    0    0 -0.43826992638E+04  0.30034204248E+04  0.37445175811E+04  0.65000000000E+04  0.10000000000E+01 0.  0.
</event>
<event>
 4    1  0.2193160E-006  0.1300000E+05  0.7957747E-01  0.1322471E+00
    9000001   -1    0    0    0    0  0.00000000000E+00  0.00000000000E+00  0.64999999231E+04  0.65000000000E+04  0.10000000000E+01 0.  0.
    9000001   -1    0    0    0    0 -0.00000000000E+00 -0.00000000000E+00 -0.64999999231E+04  0.65000000000E+04  0.10000000000E+01 0.  0.
    9000001    1    1    2    0    0  0.66831343904E+03  0.53115391190E+04  0.36865849149E+04  0.65000000000E+04  0.10000000000E+01 0.  0.
    9000001    1    1    2    0    0 -0.66831343904E+03 -0.53115391190E+04 -0.36865849149E+04  0.65000000000E+04  0.10000000000E+01 0.  0.
</event>
<event>
 4    1  0.2193160E-006  0.1300000E+05  0.7957747E-01  0.1322471E+00
    9000001   -1    0    0    0    0  0.00000000000E+00  0.00000000000E+00  0.64999999231E+04  0.65000000000E+04  0.10000000000E+01 0.  0.
    9000001   -1    0    0    0    0 -0.00000000000E+00 -0.00000000000E+00 -0.64999999231E+04  0.65000000000E+04  0.10000000000E+01 0.  0.
    9000001    1    1    2    0    0  0.22838060411E+03 -0.47400333545E+04 -0.44418380314E+04  0.65000000000E+04  0.10000000000E+01 0.  0.
    9000001    1    1    2    0    0 -0.22838060411E+03  0.47400333545E+04  0.44418380314E+04  0.65000000000E+04  0.10000000000E+01 0.  0.
</event>
<event>
 4    1  0.2193160E-006  0.1300000E+05  0.7957747E-01  0.1322471E+00
    9000001   -1    0    0    0    0  0.00000000000E+00  0.00000000000E+00  0.64999999231E+04  0.65000000000E+04  0.10000000000E+01 0.  0.
    9000001   -1    0    0    0    0 -0.00000000000E+00 -0.00000000000E+00 -0.64999999231E+04  0.65000000000E+04  0.10000000000E+01 0.  0.
    9000001    1    1    2    0    0 -0.34363517943E+04 -0.16918955149E+03 -0.55147856025E+04  0.65000000000E+04  0.10000000000E+01 0.  0.
    9000001    1    1    2    0    0  0.34363517943E+04  0.16918955149E+03  0.55147856025E+04  0.65000000000E+04  0.10000000000E+01 0.  0.
</event>
<event>
 4    1  0.2193160E-006  0.1300000E+05  0.7957747E-01  0.1322471E+00
    9000001   -1    0    0    0    0  0.00000000000E+00  0.00000000000E+00  0.64999999231E+04  0.65000000000E+04  0.10000000000E+01 0.  0.
    9000001   -1    0    0    0    0 -0.00000000000E+00 -0.00000000000E+00 -0.64999999231E+04  0.65000000000E+04  0.10000000000E+01 0.  0.
    9000001    1    1    2    0    0  0.53902626180E+03  0.14186796892E+04  0.63203479041E+04  0.65000000000E+04  0.10000000000E+01 0.  0.
    9000001    1    1    2    0    0 -0.53902626180E+03 -0.14186796892E+04 -0.63203479041E+04  0.65000000000E+04  0.10000000000E+01 0.  0.
</event>
<event>
 4    1  0.2193160E-006  0.1300000E+05  0.7957747E-01  0.1322471E+00
    9000001   -1    0    0    0    0  0.00000000000E+00  0.00000000000E+00  0.64999999231E+04  0.65000000000E+04  0.10000000000E+01 0.  0.
    9000001   -1    0    0    0    0 -0.00000000000E+00 -0.00000000000E+00 -0.64999999231E+04  0.65000000000E+04  0.10000000000E+01 0.  0.
    9000001    1    1    2    0    0  0.14660756718E+03 -0.56865011025E+04  0.31451884574E+04  0.65000000000E+04  0.10000000000E+01 0.  0.
    9000001    1    1    2    0    0 -0.14660756718E+03  0.56865011025E+04 -0.31451884574E+04  0.65000000000E+04  0.10000000000E+01 0.  0.
</event>
<event>
 4    1  0.2193160E-006  0.1300000E+05  0.7957747E-01  0.1322471E+00
    9000001   -1    0    0    0    0  0.00000000000E+00  0.00000000000E+00  0.64999999231E+04  0.65000000000E+04  0.10000000000E+01 0.  0.
    9000001   -1    0    0    0    0 -0.00000000000E+00 -0.00000000000E+00 -0.64999999231E+04  0.65000000000E+04  0.10000000000E+01 0.  0.
    9000001    1    1    2    0    0 -0.24550858771E+04 -0.38385346550E+04  0.46355370820E+04  0.65000000000E+04  0.10000000000E+01 0.  0.
    9000001    1    1    2    0    0  0.24550858771E+04  0.38385346550E+04 -0.46355370820E+04  0.65000000000E+04  0.10000000000E+01 0.  0.
</event>
<event>
 4    1  0.2193160E-006  0.1300000E+05  0.7957747E-01  0.1322471E+00
    9000001   -1    0    0    0    0  0.00000000000E+00  0.00000000000E+00  0.64999999231E+04  0.65000000000E+04  0.10000000000E+01 0.  0.
    9000001   -1    0    0    0    0 -0.00000000000E+00 -0.00000000000E+00 -0.64999999231E+04  0.65000000000E+04  0.10000000000E+01 0.  0.
    9000001    1    1    2    0    0  0.23190546886E+04  0.54890617250E+04 -0.25965719189E+04  0.65000000000E+04  0.10000000000E+01 0.  0.
    9000001    1    1    2    0    0 -0.23190546886E+04 -0.54890617250E+04  0.25965719189E+04  0.65000000000E+04  0.10000000000E+01 0.  0.
</event>
<event>
 4    1  0.2193160E-006  0.1300000E+05  0.7957747E-01  0.1322471E+00
    9000001   -1    0    0    0    0  0.00000000000E+00  0.00000000000E+00  0.64999999231E+04  0.65000000000E+04  0.10000000000E+01 0.  0.
    9000001   -1    0    0    0    0 -0.00000000000E+00 -0.00000000000E+00 -0.64999999231E+04  0.65000000000E+04  0.10000000000E+01 0.  0.
    9000001    1    1    2    0    0 -0.49650001085E+04 -0.22863748199E+03 -0.41888539989E+04  0.65000000000E+04  0.10000000000E+01 0.  0.
    9000001    1    1    2    0    0  0.49650001085E+04  0.22863748199E+03  0.41888539989E+04  0.65000000000E+04  0.10000000000E+01 0.  0.
</event>
<event>
 4    1  0.2193160E-006  0.1300000E+05  0.7957747E-01  0.1322471E+00
    9000001   -1    0    0    0    0  0.00000000000E+00  0.00000000000E+00  0.64999999231E+04  0.65000000000E+04  0.10000000000E+01 0.  0.
    9000001   -1    0    0    0    0 -0.00000000000E+00 -0.00000000000E+00 -0.64999999231E+04  0.65000000000E+04  0.10000000000E+01 0.  0.
    9000001    1    1    2    0    0 -0.58116035746E+04  0.23507111868E+04 -0.17173874950E+04  0.65000000000E+04  0.10000000000E+01 0.  0.
    9000001    1    1    2    0    0  0.58116035746E+04 -0.23507111868E+04  0.17173874950E+04  0.65000000000E+04  0.10000000000E+01 0.  0.
</event>
<event>
 4    1  0.2193160E-006  0.1300000E+05  0.7957747E-01  0.1322471E+00
    9000001   -1    0    0    0    0  0.00000000000E+00  0.00000000000E+00  0.64999999231E+04  0.65000000000E+04  0.10000000000E+01 0.  0.
    9000001   -1    0    0    0    0 -0.00000000000E+00 -0.00000000000E+00 -0.64999999231E+04  0.65000000000E+04  0.10000000000E+01 0.  0.
    9000001    1    1    2    0    0  0.23231826832E+03 -0.21282408102E+04 -0.61373136042E+04  0.65000000000E+04  0.10000000000E+01 0.  0.
    9000001    1    1    2    0    0 -0.23231826832E+03  0.21282408102E+04  0.61373136042E+04  0.65000000000E+04  0.10000000000E+01 0.  0.
</event>
<event>
 4    1  0.2193160E-006  0.1300000E+05  0.7957747E-01  0.1322471E+00
    9000001   -1    0    0    0    0  0.00000000000E+00  0.00000000000E+00  0.64999999231E+04  0.65000000000E+04  0.10000000000E+01 0.  0.
    9000001   -1    0    0    0    0 -0.00000000000E+00 -0.00000000000E+00 -0.64999999231E+04  0.65000000000E+04  0.10000000000E+01 0.  0.
    9000001    1    1    2    0    0 -0.37713054505E+04 -0.52939056140E+04 -0.42632719342E+02  0.65000000000E+04  0.10000000000E+01 0.  0.
    9000001    1    1    2    0    0  0.37713054505E+04  0.52939056140E+04  0.42632719342E+02  0.65000000000E+04  0.10000000000E+01 0.  0.
</event>
<event>
 4    1  0.2193160E-006  0.1300000E+05  0.7957747E-01  0.1322471E+00
    9000001   -1    0    0    0    0  0.00000000000E+00  0.00000000000E+00  0.64999999231E+04  0.65000000000E+04  0.10000000000E+01 0.  0.
    9000001   -1    0    0    0    0 -0.00000000000E+00 -0.00000000000E+00 -0.64999999231E+04  0.65000000000E+04  0.10000000000E+01 0.  0.
    9000001    1    1    2    0    0 -0.94688440434E+03  0.45536379335E+04  0.45406817214E+04  0.65000000000E+04  0.10000000000E+01 0.  0.
    9000001    1    1    2    0    0  0.94688440434E+03 -0.45536379335E+04 -0.45406817214E+04  0.65000000000E+04  0.10000000000E+01 0.  0.
</event>
<event>
 4    1  0.2193160E-006  0.1300000E+05  0.7957747E-01  0.1322471E+00
    9000001   -1    0    0    0    0  0.00000000000E+00  0.00000000000E+00  0.64999999231E+04  0.65000000000E+04  0.10000000000E+01 0.  0.
    9000001   -1    0    0    0    0 -0.00000000000E+00 -0.00000000000E+00 -0.64999999231E+04  0.65000000000E+04  0.10000000000E+01 0.  0.
    9000001    1    1    2    0    0  0.61021064265E+04 -0.12543237442E+04 -0.18549846641E+04  0.65000000000E+04  0.10000000000E+01 0.  0.
    9000001    1    1    2    0    0 -0.61021064265E+04  0.12543237442E+04  0.18549846641E+04  0.65000000000E+04  0.10000000000E+01 0.  0.
</event>
<event>
 4    1  0.2193160E-006  0.1300000E+05  0.7957747E-01  0.1322471E+00
    9000001   -1    0    0    0    0  0.00000000000E+00  0.00000000000E+00  0.64999999231E+04  0.65000000000E+04  0.10000000000E+01 0.  0.
    9000001   -1    0    0    0    0 -0.00000000000E+00 -0.00000000000E+00 -0.64999999231E+04  0.65000000000E+04  0.10000000000E+01 0.  0.
    9000001    1    1    2    0    0 -0.11317546871E+04  0.67821884791E+03 -0.63646798445E+04  0.65000000000E+04  0.10000000000E+01 0.  0.
    9000001    1    1    2    0    0  0.11317546871E+04 -0.67821884791E+03  0.63646798445E+04  0.65000000000E+04  0.10000000000E+01 0.  0.
</event>
<event>
 4    1  0.2193160E-006  0.1300000E+05  0.7957747E-01  0.1322471E+00
    9000001   -1    0    0    0    0  0.00000000000E+00  0.00000000000E+00  0.64999999231E+04  0.65000000000E+04  0.10000000000E+01 0.  0.
    9000001   -1    0    0    0    0 -0.00000000000E+00 -0.00000000000E+00 -0.64999999231E+04  0.65000000000E+04  0.10000000000E+01 0.  0.
    9000001    1    1    2    0    0 -0.21916085393E+04  0.48264338356E+04 -0.37619659011E+04  0.65000000000E+04  0.10000000000E+01 0.  0.
    9000001    1    1    2    0    0  0.21916085393E+04 -0.48264338356E+04  0.37619659011E+04  0.65000000000E+04  0.10000000000E+01 0.  0.
</event>
<event>
 4    1  0.2193160E-006  0.1300000E+05  0.7957747E-01  0.1322471E+00
    9000001   -1    0    0    0    0  0.00000000000E+00  0.00000000000E+00  0.64999999231E+04  0.65000000000E+04  0.10000000000E+01 0.  0.
    9000001   -1    0    0    0    0 -0.00000000000E+00 -0.00000000000E+00 -0.64999999231E+04  0.65000000000E+04  0.10000000000E+01 0.  0.
    9000001    1    1    2    0    0  0.40588488006E+04 -0.17343415050E+04  0.47715621088E+04  0.65000000000E+04  0.10000000000E+01 0.  0.
    9000001    1    1    2    0    0 -0.40588488006E+04  0.17343415050E+04 -0.47715621088E+04  0.65000000000E+04  0.10000000000E+01 0.  0.
</event>
<event>
 4    1  0.2193160E-006  0.1300000E+05  0.7957747E-01  0.1322471E+00
    9000001   -1    0    0    0    0  0.00000000000E+00  0.00000000000E+00  0.64999999231E+04  0.65000000000E+04  0.10000000000E+01 0.  0.
    9000001   -1    0    0    0    0 -0.00000000000E+00 -0.00000000000E+00 -0.64999999231E+04  0.65000000000E+04  0.10000000000E+01 0.  0.
    9000001    1    1    2    0    0  0.57734906596E+04 -0.18632396335E+04  0.23334829488E+04  0.65000000000E+04  0.10000000000E+01 0.  0.
    9000001    1    1    2    0    0 -0.57734906596E+04  0.18632396335E+04 -0.23334829488E+04  0.65000000000E+04  0.10000000000E+01 0.  0.
</event>
<event>
 4    1  0.2193160E-006  0.1300000E+05  0.7957747E-01  0.1322471E+00
    9000001   -1    0    0    0    0  0.00000000000E+00  0.00000000000E+00  0.64999999231E+04  0.65000000000E+04  0.10000000000E+01 0.  0.
    9000001   -1    0    0    0    0 -0.00000000000E+00 -0.00000000000E+00 -0.64999999231E+04  0.65000000000E+04  0.10000000000E+01 0.  0.
    9000001    1    1    2    0    0 -0.29566674237E+04 -0.52684293133E+04 -0.23982846612E+04  0.65000000000E+04  0.10000000000E+01 0.  0.
    9000001    1    1    2    0    0  0.29566674237E+04  0.52684293133E+04  0.23982846612E+04  0.65000000000E+04  0.10000000000E+01 0.  0.
</event>
<event>
 4    1  0.2193160E-006  0.1300000E+05  0.7957747E-01  0.1322471E+00
    9000001   -1    0    0    0    0  0.00000000000E+00  0.00000000000E+00  0.64999999231E+04  0.65000000000E+04  0.10000000000E+01 0.  0.
    9000001   -1    0    0    0    0 -0.00000000000E+00 -0.00000000000E+00 -0.64999999231E+04  0.65000000000E+04  0.10000000000E+01 0.  0.
    9000001    1    1    2    0    0  0.57467111345E+04  0.25449401410E+04 -0.16578871541E+04  0.65000000000E+04  0.10000000000E+01 0.  0.
    9000001    1    1    2    0    0 -0.57467111345E+04 -0.25449401410E+04  0.16578871541E+04  0.65000000000E+04  0.10000000000E+01 0.  0.
</event>
<event>
 4    1  0.2193160E-006  0.1300000E+05  0.7957747E-01  0.1322471E+00
    9000001   -1    0    0    0    0  0.00000000000E+00  0.00000000000E+00  0.64999999231E+04  0.65000000000E+04  0.10000000000E+01 0.  0.
    9000001   -1    0    0    0    0 -0.00000000000E+00 -0.00000000000E+00 -0.64999999231E+04  0.65000000000E+04  0.10000000000E+01 0.  0.
    9000001    1    1    2    0    0  0.15597058908E+04  0.10574412413E+04 -0.62208628465E+04  0.65000000000E+04  0.10000000000E+01 0.  0.
    9000001    1    1    2    0    0 -0.15597058908E+04 -0.10574412413E+04  0.62208628465E+04  0.65000000000E+04  0.10000000000E+01 0.  0.
</event>
<event>
 4    1  0.2193160E-006  0.1300000E+05  0.7957747E-01  0.1322471E+00
    9000001   -1    0    0    0    0  0.00000000000E+00  0.00000000000E+00  0.64999999231E+04  0.65000000000E+04  0.10000000000E+01 0.  0.
    9000001   -1    0    0    0    0 -0.00000000000E+00 -0.00000000000E+00 -0.64999999231E+04  0.65000000000E+04  0.10000000000E+01 0.  0.
    9000001    1    1    2    0    0  0.29588664414E+04  0.50280880069E+04  0.28659098689E+04  0.65000000000E+04  0.10000000000E+01 0.  0.
    9000001    1    1    2    0    0 -0.29588664414E+04 -0.50280880069E+04 -0.28659098689E+04  0.65000000000E+04  0.10000000000E+01 0.  0.
</event>
<event>
 4    1  0.2193160E-006  0.1300000E+05  0.7957747E-01  0.1322471E+00
    9000001   -1    0    0    0    0  0.00000000000E+00  0.00000000000E+00  0.64999999231E+04  0.65000000000E+04  0.10000000000E+01 0.  0.
    9000001   -1    0    0    0    0 -0.00000000000E+00 -0.00000000000E+00 -0.64999999231E+04  0.65000000000E+04  0.10000000000E+01 0.  0.
    9000001    1    1    2    0    0  0.50720120657E+04 -0.40570644492E+04 -0.25479533120E+03  0.65000000000E+04  0.10000000000E+01 0.  0.
    9000001    1    1    2    0    0 -0.50720120657E+04  0.40570644492E+04  0.25479533120E+03  0.65000000000E+04  0.10000000000E+01 0.  0.
</event>
<event>
 4    1  0.2193160E-006  0.1300000E+05  0.7957747E-01  0.1322471E+00
    9000001   -1    0    0    0    0  0.00000000000E+00  0.00000000000E+00  0.64999999231E+04  0.65000000000E+04  0.10000000000E+01 0.  0.
    9000001   -1    0    0    0    0 -0.00000000000E+00 -0.00000000000E+00 -0.64999999231E+04  0.65000000000E+04  0.10000000000E+01 0.  0.
    9000001    1    1    2    0    0 -0.17780294977E+04  0.60806407022E+04  0.14541041077E+04  0.65000000000E+04  0.10000000000E+01 0.  0.
    9000001    1    1    2    0    0  0.17780294977E+04 -0.60806407022E+04 -0.14541041077E+04  0.65000000000E+04  0.10000000000E+01 0.  0.
</event>
<event>
 4    1  0.2193160E-006  0.1300000E+05  0.7957747E-01  0.1322471E+00
    9000001   -1    0    0    0    0  0.00000000000E+00  0.00000000000E+00  0.64999999231E+04  0.65000000000E+04  0.10000000000E+01 0.  0.
    9000001   -1    0    0    0    0 -0.00000000000E+00 -0.00000000000E+00 -0.64999999231E+04  0.65000000000E+04  0.10000000000E+01 0.  0.
    9000001    1    1    2    0    0 -0.33428433027E+04 -0.31898311318E+03  0.55653973288E+04  0.65000000000E+04  0.10000000000E+01 0.  0.
    9000001    1    1    2    0    0  0.33428433027E+04  0.31898311318E+03 -0.55653973288E+04  0.65000000000E+04  0.10000000000E+01 0.  0.
</event>
<event>
 4    1  0.2193160E-006  0.1300000E+05  0.7957747E-01  0.1322471E+00
    9000001   -1    0    0    0    0  0.00000000000E+00  0.00000000000E+00  0.64999999231E+04  0.65000000000E+04  0.10000000000E+01 0.  0.
    9000001   -1    0    0    0    0 -0.00000000000E+00 -0.00000000000E+00 -0.64999999231E+04  0.65000000000E+04  0.10000000000E+01 0.  0.
    9000001    1    1    2    0    0  0.18817663288E+04 -0.39341755494E+04  0.48198773044E+04  0.65000000000E+04  0.10000000000E+01 0.  0.
    9000001    1    1    2    0    0 -0.18817663288E+04  0.39341755494E+04 -0.48198773044E+04  0.65000000000E+04  0.10000000000E+01 0.  0.
</event>
<event>
 4    1  0.2193160E-006  0.1300000E+05  0.7957747E-01  0.1322471E+00
    9000001   -1    0    0    0    0  0.00000000000E+00  0.00000000000E+00  0.64999999231E+04  0.65000000000E+04  0.10000000000E+01 0.  0.
    9000001   -1    0    0    0    0 -0.00000000000E+00 -0.00000000000E+00 -0.64999999231E+04  0.65000000000E+04  0.10000000000E+01 0.  0.
    9000001    1    1    2    0    0 -0.12149810450E+04 -0.56753427860E+04 -0.29264832686E+04  0.65000000000E+04  0.10000000000E+01 0.  0.
    9000001    1    1    2    0    0  0.12149810450E+04  0.56753427860E+04  0.29264832686E+04  0.65000000000E+04  0.10000000000E+01 0.  0.
</event>
<event>
 4    1  0.2193160E-006  0.1300000E+05  0.7957747E-01  0.1322471E+00
    9000001   -1    0    0    0    0  0.00000000000E+00  0.00000000000E+00  0.64999999231E+04  0.65000000000E+04  0.10000000000E+01 0.  0.
    9000001   -1    0    0    0    0 -0.00000000000E+00 -0.00000000000E+00 -0.64999999231E+04  0.65000000000E+04  0.10000000000E+01 0.  0.
    9000001    1    1    2    0    0 -0.31467330771E+04  0.74470357256E+03  0.56385713200E+04  0.65000000000E+04  0.10000000000E+01 0.  0.
    9000001    1    1    2    0    0  0.31467330771E+04 -0.74470357256E+03 -0.56385713200E+04  0.65000000000E+04  0.10000000000E+01 0.  0.
</event>
<event>
 4    1  0.2193160E-006  0.1300000E+05  0.7957747E-01  0.1322471E+00
    9000001   -1    0    0    0    0  0.00000000000E+00  0.00000000000E+00  0.64999999231E+04  0.65000000000E+04  0.10000000000E+01 0.  0.
    9000001   -1    0    0    0    0 -0.00000000000E+00 -0.00000000000E+00 -0.64999999231E+04  0.65000000000E+04  0.10000000000E+01 0.  0.
    9000001    1    1    2    0    0  0.22342227862E+04 -0.48309961135E+04  0.37309146457E+04  0.65000000000E+04  0.10000000000E+01 0.  0.
    9000001    1    1    2    0    0 -0.22342227862E+04  0.48309961135E+04 -0.37309146457E+04  0.65000000000E+04  0.10000000000E+01 0.  0.
</event>
<event>
 4    1  0.2193160E-006  0.1300000E+05  0.7957747E-01  0.1322471E+00
    9000001   -1    0    0    0    0  0.00000000000E+00  0.00000000000E+00  0.64999999231E+04  0.65000000000E+04  0.10000000000E+01 0.  0.
    9000001   -1    0    0    0    0 -0.00000000000E+00 -0.00000000000E+00 -0.64999999231E+04  0.65000000000E+04  0.10000000000E+01 0.  0.
    9000001    1    1    2    0    0  0.43940051991E+04 -0.47136989987E+04  0.85074030110E+03  0.65000000000E+04  0.10000000000E+01 0.  0.
    9000001    1    1    2    0    0 -0.43940051991E+04  0.47136989987E+04 -0.85074030110E+03  0.65000000000E+04  0.10000000000E+01 0.  0.
</event>
<event>
 4    1  0.2193160E-006  0.1300000E+05  0.7957747E-01  0.1322471E+00
    9000001   -1    0    0    0    0  0.00000000000E+00  0.00000000000E+00  0.64999999231E+04  0.65000000000E+04  0.10000000000E+01 0.  0.
    9000001   -1    0    0    0    0 -0.00000000000E+00 -0.00000000000E+00 -0.64999999231E+04  0.65000000000E+04  0.10000000000E+01 0.  0.
    9000001    1    1    2    0    0  0.16012114049E+04  0.62985247107E+04  0.12127450287E+03  0.65000000000E+04  0.10000000000E+01 0.  0.
    9000001    1    1    2    0    0 -0.16012114049E+04 -0.62985247107E+04 -0.12127450287E+03  0.65000000000E+04  0.10000000000E+01 0.  0.
</event>
<event>
 4    1  0.2193160E-006  0.1300000E+05  0.7957747E-01  0.1322471E+00
    9000001   -1    0    0    0    0  0.00000000000E+00  0.00000000000E+00  0.64999999231E+04  0.65000000000E+04  0.10000000000E+01 0.  0.
    9000001   -1    0    0    0    0 -0.00000000000E+00 -0.00000000000E+00 -0.64999999231E+04  0.65000000000E+04  0.10000000000E+01 0.  0.
    9000001    1    1    2    0    0  0.23184704352E+04 -0.56124486181E+04 -0.23184292851E+04  0.65000000000E+04  0.10000000000E+01 0.  0.
    9000001    1    1    2    0    0 -0.23184704352E+04  0.56124486181E+04  0.23184292851E+04  0.65000000000E+04  0.10000000000E+01 0.  0.
</event>
<event>
 4    1  0.2193160E-006  0.1300000E+05  0.7957747E-01  0.1322471E+00
    9000001   -1    0    0    0    0  0.00000000000E+00  0.00000000000E+00  0.64999999231E+04  0.65000000000E+04  0.10000000000E+01 0.  0.
    9000001   -1    0    0    0    0 -0.00000000000E+00 -0.00000000000E+00 -0.64999999231E+04  0.65000000000E+04  0.10000000000E+01 0.  0.
    9000001    1    1    2    0    0 -0.53406745989E+04  0.30355411843E+04  0.21243077807E+04  0.65000000000E+04  0.10000000000E+01 0.  0.
    9000001    1    1    2    0    0  0.53406745989E+04 -0.30355411843E+04 -0.21243077807E+04  0.65000000000E+04  0.10000000000E+01 0.  0.
</event>
<event>
 4    1  0.2193160E-006  0.1300000E+05  0.7957747E-01  0.1322471E+00
    9000001   -1    0    0    0    0  0.00000000000E+00  0.00000000000E+00  0.64999999231E+04  0.65000000000E+04  0.10000000000E+01 0.  0.
    9000001   -1    0    0    0    0 -0.00000000000E+00 -0.00000000000E+00 -0.64999999231E+04  0.65000000000E+04  0.10000000000E+01 0.  0.
    9000001    1    1    2    0    0 -0.57528153243E+04  0.22194763669E+03 -0.30175907760E+04  0.65000000000E+04  0.10000000000E+01 0.  0.
    9000001    1    1    2    0    0  0.57528153243E+04 -0.22194763669E+03  0.30175907760E+04  0.65000000000E+04  0.10000000000E+01 0.  0.
</event>
<event>
 4    1  0.2193160E-006  0.1300000E+05  0.7957747E-01  0.1322471E+00
    9000001   -1    0    0    0    0  0.00000000000E+00  0.00000000000E+00  0.64999999231E+04  0.65000000000E+04  0.10000000000E+01 0.  0.
    9000001   -1    0    0    0    0 -0.00000000000E+00 -0.00000000000E+00 -0.64999999231E+04  0.65000000000E+04  0.10000000000E+01 0.  0.
    9000001    1    1    2    0    0 -0.56444131242E+03  0.64050563222E+04  0.95218617608E+03  0.65000000000E+04  0.10000000000E+01 0.  0.
    9000001    1    1    2    0    0  0.56444131242E+03 -0.64050563222E+04 -0.95218617608E+03  0.65000000000E+04  0.10000000000E+01 0.  0.
</event>
<event>
 4    1  0.2193160E-006  0.1300000E+05  0.7957747E-01  0.1322471E+00
    9000001   -1    0    0    0    0  0.00000000000E+00  0.00000000000E+00  0.64999999231E+04  0.65000000000E+04  0.10000000000E+01 0.  0.
    9000001   -1    0    0    0    0 -0.00000000000E+00 -0.00000000000E+00 -0.64999999231E+04  0.65000000000E+04  0.10000000000E+01 0.  0.
    9000001    1    1    2    0    0  0.55546185457E+04  0.12925116790E+04  0.31185934926E+04  0.65000000000E+04  0.10000000000E+01 0.  0.
    9000001    1    1    2    0    0 -0.55546185457E+04 -0.12925116790E+04 -0.31185934926E+04  0.65000000000E+04  0.10000000000E+01 0.  0.
</event>
<event>
 4    1  0.2193160E-006  0.1300000E+05  0.7957747E-01  0.1322471E+00
    9000001   -1    0    0    0    0  0.00000000000E+00  0.00000000000E+00  0.64999999231E+04  0.65000000000E+04  0.10000000000E+01 0.  0.
    9000001   -1    0    0    0    0 -0.00000000000E+00 -0.00000000000E+00 -0.64999999231E+04  0.65000000000E+04  0.10000000000E+01 0.  0.
    9000001    1    1    2    0    0 -0.41174926087E+04 -0.41703768712E+04  0.28114427560E+04  0.65000000000E+04  0.10000000000E+01 0.  0.
    9000001    1    1    2    0    0  0.41174926087E+04  0.41703768712E+04 -0.28114427560E+04  0.65000000000E+04  0.10000000000E+01 0.  0.
</event>
<event>
 4    1  0.2193160E-006  0.1300000E+05  0.7957747E-01  0.1322471E+00
    9000001   -1    0    0    0    0  0.00000000000E+00  0.00000000000E+00  0.64999999231E+04  0.65000000000E+04  0.10000000000E+01 0.  0.
    9000001   -1    0    0    0    0 -0.00000000000E+00 -0.00000000000E+00 -0.64999999231E+04  0.65000000000E+04  0.10000000000E+01 0.  0.
    9000001    1    1    2    0    0 -0.38998803224E+04  0.32047745616E+04 -0.40951620823E+04  0.65000000000E+04  0.10000000000E+01 0.  0.
    9000001    1    1    2    0    0  0.38998803224E+04 -0.32047745616E+04  0.40951620823E+04  0.65000000000E+04  0.10000000000E+01 0.  0.
</event>
<event>
 4    1  0.2193160E-006  0.1300000E+05  0.7957747E-01  0.1322471E+00
    9000001   -1    0    0    0    0  0.00000000000E+00  0.00000000000E+00  0.64999999231E+04  0.65000000000E+04  0.10000000000E+01 0.  0.
    9000001   -1    0    0    0    0 -0.00000000000E+00 -0.00000000000E+00 -0.64999999231E+04  0.65000000000E+04  0.10000000000E+01 0.  0.
    9000001    1    1    2    0    0 -0.49440515753E+04  0.42196940001E+04  0.23142316126E+02  0.65000000000E+04  0.10000000000E+01 0.  0.
    9000001    1    1    2    0    0  0.49440515753E+04 -0.42196940001E+04 -0.23142316126E+02  0.65000000000E+04  0.10000000000E+01 0.  0.
</event>
<event>
 4    1  0.2193160E-006  0.1300000E+05  0.7957747E-01  0.1322471E+00
    9000001   -1    0    0    0    0  0.00000000000E+00  0.00000000000E+00  0.64999999231E+04  0.65000000000E+04  0.10000000000E+01 0.  0.
    9000001   -1    0    0    0    0 -0.00000000000E+00 -0.00000000000E+00 -0.64999999231E+04  0.65000000000E+04  0.10000000000E+01 0.  0.
    9000001    1    1    2    0    0 -0.34580642904E+04 -0.52200865714E+04  0.17442724990E+04  0.65000000000E+04  0.10000000000E+01 0.  0.
    9000001    1    1    2    0    0  0.34580642904E+04  0.52200865714E+04 -0.17442724990E+04  0.65000000000E+04  0.10000000000E+01 0.  0.
</event>
<event>
 4    1  0.2193160E-006  0.1300000E+05  0.7957747E-01  0.1322471E+00
    9000001   -1    0    0    0    0  0.00000000000E+00  0.00000000000E+00  0.64999999231E+04  0.65000000000E+04  0.10000000000E+01 0.  0.
    9000001   -1    0    0    0    0 -0.00000000000E+00 -0.00000000000E+00 -0.64999999231E+04  0.65000000000E+04  0.10000000000E+01 0.  0.
    9000001    1    1    2    0    0 -0.13761985477E+04 -0.17991419481E+04  0.60925499430E+04  0.65000000000E+04  0.10000000000E+01 0.  0.
    9000001    1    1    2    0    0  0.13761985477E+04  0.17991419481E+04 -0.60925499430E+04  0.65000000000E+04  0.10000000000E+01 0.  0.
</event>
<event>
 4    1  0.2193160E-006  0.1300000E+05  0.7957747E-01  0.1322471E+00
    9000001   -1    0    0    0    0  0.00000000000E+00  0.00000000000E+00  0.64999999231E+04  0.65000000000E+04  0.10000000000E+01 0.  0.
    9000001   -1    0    0    0    0 -0.00000000000E+00 -0.00000000000E+00 -0.64999999231E+04  0.65000000000E+04  0.10000000000E+01 0.  0.
    9000001    1    1    2    0    0  0.44800510267E+04  0.35928497504E+04 -0.30447614799E+04  0.65000000000E+04  0.10000000000E+01 0.  0.
    9000001    1    1    2    0    0 -0.44800510267E+04 -0.35928497504E+04  0.30447614799E+04  0.65000000000E+04  0.10000000000E+01 0.  0.
</event>
<event>
 4    1  0.2193160E-006  0.1300000E+05  0.7957747E-01  0.1322471E+00
    9000001   -1    0    0    0    0  0.00000000000E+00  0.00000000000E+00  0.64999999231E+04  0.65000000000E+04  0.10000000000E+01 0.  0.
    9000001   -1    0    0    0    0 -0.00000000000E+00 -0.00000000000E+00 -0.64999999231E+04  0.65000000000E+04  0.10000000000E+01 0.  0.
    9000001    1    1    2    0    0  0.20765716320E+04 -0.10133936361E+04 -0.60754327085E+04  0.65000000000E+04  0.10000000000E+01 0.  0.
    9000001    1    1    2    0    0 -0.20765716320E+04  0.10133936361E+04  0.60754327085E+04  0.65000000000E+04  0.10000000000E+01 0.  0.
</event>
<event>
 4    1  0.2193160E-006  0.1300000E+05  0.7957747E-01  0.1322471E+00
    9000001   -1    0    0    0    0  0.00000000000E+00  0.00000000000E+00  0.64999999231E+04  0.65000000000E+04  0.10000000000E+01 0.  0.
    9000001   -1    0    0    0    0 -0.00000000000E+00 -0.00000000000E+00 -0.64999999231E+04  0.65000000000E+04  0.10000000000E+01 0.  0.
    9000001    1    1    2    0    0  0.18708901157E+04  0.45821883817E+04 -0.42134687384E+04  0.65000000000E+04  0.10000000000E+01 0.  0.
    9000001    1    1    2    0    0 -0.18708901157E+04 -0.45821883817E+04  0.42134687384E+04  0.65000000000E+04  0.10000000000E+01 0.  0.
</event>
<event>
 4    1  0.2193160E-006  0.1300000E+05  0.7957747E-01  0.1322471E+00
    9000001   -1    0    0    0    0  0.00000000000E+00  0.00000000000E+00  0.64999999231E+04  0.65000000000E+04  0.10000000000E+01 0.  0.
    9000001   -1    0    0    0    0 -0.00000000000E+00 -0.00000000000E+00 -0.64999999231E+04  0.65000000000E+04  0.10000000000E+01 0.  0.
    9000001    1    1    2    0    0 -0.97935562850E+03  0.63207103537E+04 -0.11573600034E+04  0.65000000000E+04  0.10000000000E+01 0.  0.
    9000001    1    1    2    0    0  0.97935562850E+03 -0.63207103537E+04  0.11573600034E+04  0.65000000000E+04  0.10000000000E+01 0.  0.
</event>
<event>
 4    1  0.2193160E-006  0.1300000E+05  0.7957747E-01  0.1322471E+00
    9000001   -1    0    0    0    0  0.00000000000E+00  0.00000000000E+00  0.64999999231E+04  0.65000000000E+04  0.10000000000E+01 0.  0.
    9000001   -1    0    0    0    0 -0.00000000000E+00 -0.00000000000E+00 -0.64999999231E+04  0.65000000000E+04  0.10000000000E+01 0.  0.
    9000001    1    1    2    0    0 -0.55104513334E+04 -0.22187166555E+04  0.26386021877E+04  0.65000000000E+04  0.10000000000E+01 0.  0.
    9000001    1    1    2    0    0  0.55104513334E+04  0.22187166555E+04 -0.26386021877E+04  0.65000000000E+04  0.10000000000E+01 0.  0.
</event>
<event>
 4    1  0.2193160E-006  0.1300000E+05  0.7957747E-01  0.1322471E+00
    9000001   -1    0    0    0    0  0.00000000000E+00  0.00000000000E+00  0.64999999231E+04  0.65000000000E+04  0.10000000000E+01 0.  0.
    9000001   -1    0    0    0    0 -0.00000000000E+00 -0.00000000000E+00 -0.64999999231E+04  0.65000000000E+04  0.10000000000E+01 0.  0.
    9000001    1    1    2    0    0 -0.45667830107E+03  0.43872158448E+04 -0.47742833033E+04  0.65000000000E+04  0.10000000000E+01 0.  0.
    9000001    1    1    2    0    0  0.45667830107E+03 -0.43872158448E+04  0.47742833033E+04  0.65000000000E+04  0.10000000000E+01 0.  0.
</event>
<event>
 4    1  0.2193160E-006  0.1300000E+05  0.7957747E-01  0.1322471E+00
    9000001   -1    0    0    0    0  0.00000000000E+00  0.00000000000E+00  0.64999999231E+04  0.65000000000E+04  0.10000000000E+01 0.  0.
    9000001   -1    0    0    0    0 -0.00000000000E+00 -0.00000000000E+00 -0.64999999231E+04  0.65000000000E+04  0.10000000000E+01 0.  0.
    9000001    1    1    2    0    0  0.62283337848E+04  0.10936906554E+04 -0.15038942832E+04  0.65000000000E+04  0.10000000000E+01 0.  0.
    9000001    1    1    2    0    0 -0.62283337848E+04 -0.10936906554E+04  0.15038942832E+04  0.65000000000E+04  0.10000000000E+01 0.  0.
</event>
<event>
 4    1  0.2193160E-006  0.1300000E+05  0.7957747E-01  0.1322471E+00
    9000001   -1    0    0    0    0  0.00000000000E+00  0.00000000000E+00  0.64999999231E+04  0.65000000000E+04  0.10000000000E+01 0.  0.
    9000001   -1    0    0    0    0 -0.00000000000E+00 -0.00000000000E+00 -0.64999999231E+04  0.65000000000E+04  0.10000000000E+01 0.  0.
    9000001    1    1    2    0    0 -0.11362426685E+04  0.26166970397E+03 -0.63945664876E+04  0.65000000000E+04  0.10000000000E+01 0.  0.
    9000001    1    1    2    0    0  0.11362426685E+04 -0.26166970397E+03  0.63945664876E+04  0.65000000000E+04  0.10000000000E+01 0.  0.
</event>
<event>
 4    1  0.2193160E-006  0.1300000E+05  0.7957747E-01  0.1322471E+00
    9000001   -1    0    0    0    0  0.00000000000E+00  0.00000000000E+00  0.64999999231E+04  0.65000000000E+04  0.10000000000E+01 0.  0.
    9000001   -1    0    0    0    0 -0.00000000000E+00 -0.00000000000E+00 -0.64999999231E+04  0.65000000000E+04  0.10000000000E+01 0.  0.
    9000001    1    1    2    0    0  0.51267876567E+04 -0.17797541186E+04 -0.35775022851E+04  0.65000000000E+04  0.10000000000E+01 0.  0.
    9000001    1    1    2    0    0 -0.51267876567E+04  0.17797541186E+04  0.35775022851E+04  0.65000000000E+04  0.10000000000E+01 0.  0.
</event>
<event>
 4    1  0.2193160E-006  0.1300000E+05  0.7957747E-01  0.1322471E+00
    9000001   -1    0    0    0    0  0.00000000000E+00  0.00000000000E+00  0.64999999231E+04  0.65000000000E+04  0.10000000000E+01 0.  0.
    9000001   -1    0    0    0    0 -0.00000000000E+00 -0.00000000000E+00 -0.64999999231E+04  0.65000000000E+04  0.10000000000E+01 0.  0.
    9000001    1    1    2    0    0  0.27283383880E+04  0.16357149220E+04 -0.56683864842E+04  0.65000000000E+04  0.10000000000E+01 0.  0.
    9000001    1    1    2    0    0 -0.27283383880E+04 -0.16357149220E+04  0.56683864842E+04  0.65000000000E+04  0.10000000000E+01 0.  0.
</event>
<event>
 4    1  0.2193160E-006  0.1300000E+05  0.7957747E-01  0.1322471E+00
    9000001   -1    0    0    0    0  0.00000000000E+00  0.00000000000E+00  0.64999999231E+04  0.65000000000E+04  0.10000000000E+01 0.  0.
    9000001   -1    0    0    0    0 -0.00000000000E+00 -0.00000000000E+00 -0.64999999231E+04  0.65000000000E+04  0.10000000000E+01 0.  0.
    9000001    1    1    2    0    0 -0.47923216674E+04 -0.37850272256E+04  0.22264817398E+04  0.65000000000E+04  0.10000000000E+01 0.  0.
    9000001    1    1    2    0    0  0.47923216674E+04  0.37850272256E+04 -0.22264817398E+04  0.65000000000E+04  0.10000000000E+01 0.  0.
</event>
<event>
 4    1  0.2193160E-006  0.1300000E+05  0.7957747E-01  0.1322471E+00
    9000001   -1    0    0    0    0  0.00000000000E+00  0.00000000000E+00  0.64999999231E+04  0.65000000000E+04  0.10000000000E+01 0.  0.
    9000001   -1    0    0    0    0 -0.00000000000E+00 -0.00000000000E+00 -0.64999999231E+04  0.65000000000E+04  0.10000000000E+01 0.  0.
    9000001    1    1    2    0    0  0.51948836737E+04 -0.42267082397E+03  0.38838810476E+04  0.65000000000E+04  0.10000000000E+01 0.  0.
    9000001    1    1    2    0    0 -0.51948836737E+04  0.42267082397E+03 -0.38838810476E+04  0.65000000000E+04  0.10000000000E+01 0.  0.
</event>
<event>
 4    1  0.2193160E-006  0.1300000E+05  0.7957747E-01  0.1322471E+00
    9000001   -1    0    0    0    0  0.00000000000E+00  0.00000000000E+00  0.64999999231E+04  0.65000000000E+04  0.10000000000E+01 0.  0.
    9000001   -1    0    0    0    0 -0.00000000000E+00 -0.00000000000E+00 -0.64999999231E+04  0.65000000000E+04  0.10000000000E+01 0.  0.
    9000001    1    1    2    0    0  0.63490015437E+04  0.13915689653E+04 -0.60944344412E+02  0.65000000000E+04  0.10000000000E+01 0.  0.
    9000001    1    1    2    0    0 -0.63490015437E+04 -0.13915689653E+04  0.60944344412E+02  0.65000000000E+04  0.10000000000E+01 0.  0.
</event>
<event>
 4    1  0.2193160E-006  0.1300000E+05  0.7957747E-01  0.1322471E+00
    9000001   -1    0    0    0    0  0.00000000000E+00  0.00000000000E+00  0.64999999231E+04  0.65000000000E+04  0.10000000000E+01 0.  0.
    9000001   -1    0    0    0    0 -0.00000000000E+00 -0.00000000000E+00 -0.64999999231E+04  0.65000000000E+04  0.10000000000E+01 0.  0.
    9000001    1    1    2    0    0  0.58967863142E+04  0.19250093061E+04  0.19422279312E+04  0.65000000000E+04  0.10000000000E+01 0.  0.
    9000001    1    1    2    0    0 -0.58967863142E+04 -0.19250093061E+04 -0.19422279312E+04  0.65000000000E+04  0.10000000000E+01 0.  0.
</event>
<event>
 4    1  0.2193160E-006  0.1300000E+05  0.7957747E-01  0.1322471E+00
    9000001   -1    0    0    0    0  0.00000000000E+00  0.00000000000E+00  0.64999999231E+04  0.65000000000E+04  0.10000000000E+01 0.  0.
    9000001   -1    0    0    0    0 -0.00000000000E+00 -0.00000000000E+00 -0.64999999231E+04  0.65000000000E+04  0.10000000000E+01 0.  0.
    9000001    1    1    2    0    0 -0.11380751217E+04  0.31061839528E+04  0.55952127099E+04  0.65000000000E+04  0.10000000000E+01 0.  0.
    9000001    1    1    2    0    0  0.11380751217E+04 -0.31061839528E+04 -0.55952127099E+04  0.65000000000E+04  0.10000000000E+01 0.  0.
</event>
<event>
 4    1  0.2193160E-006  0.1300000E+05  0.7957747E-01  0.1322471E+00
    9000001   -1    0    0    0    0  0.00000000000E+00  0.00000000000E+00  0.64999999231E+04  0.65000000000E+04  0.10000000000E+01 0.  0.
    9000001   -1    0    0    0    0 -0.00000000000E+00 -0.00000000000E+00 -0.64999999231E+04  0.65000000000E+04  0.10000000000E+01 0.  0.
    9000001    1    1    2    0    0  0.10118324713E+04  0.62553546200E+04 -0.14480098855E+04  0.65000000000E+04  0.10000000000E+01 0.  0.
    9000001    1    1    2    0    0 -0.10118324713E+04 -0.62553546200E+04  0.14480098855E+04  0.65000000000E+04  0.10000000000E+01 0.  0.
</event>
<event>
 4    1  0.2193160E-006  0.1300000E+05  0.7957747E-01  0.1322471E+00
    9000001   -1    0    0    0    0  0.00000000000E+00  0.00000000000E+00  0.64999999231E+04  0.65000000000E+04  0.10000000000E+01 0.  0.
    9000001   -1    0    0    0    0 -0.00000000000E+00 -0.00000000000E+00 -0.64999999231E+04  0.65000000000E+04  0.10000000000E+01 0.  0.
    9000001    1    1    2    0    0 -0.53242124833E+04  0.29472203738E+04  0.22839992340E+04  0.65000000000E+04  0.10000000000E+01 0.  0.
    9000001    1    1    2    0    0  0.53242124833E+04 -0.29472203738E+04 -0.22839992340E+04  0.65000000000E+04  0.10000000000E+01 0.  0.
</event>
<event>
 4    1  0.2193160E-006  0.1300000E+05  0.7957747E-01  0.1322471E+00
    9000001   -1    0    0    0    0  0.00000000000E+00  0.00000000000E+00  0.64999999231E+04  0.65000000000E+04  0.10000000000E+01 0.  0.
    9000001   -1    0    0    0    0 -0.00000000000E+00 -0.00000000000E+00 -0.64999999231E+04  0.65000000000E+04  0.10000000000E+01 0.  0.
    9000001    1    1    2    0    0 -0.56950707245E+04 -0.23581382618E+04  0.20628505474E+04  0.65000000000E+04  0.10000000000E+01 0.  0.
    9000001    1    1    2    0    0  0.56950707245E+04  0.23581382618E+04 -0.20628505474E+04  0.65000000000E+04  0.10000000000E+01 0.  0.
</event>
<event>
 4    1  0.2193160E-006  0.1300000E+05  0.7957747E-01  0.1322471E+00
    9000001   -1    0    0    0    0  0.00000000000E+00  0.00000000000E+00  0.64999999231E+04  0.65000000000E+04  0.10000000000E+01 0.  0.
    9000001   -1    0    0    0    0 -0.00000000000E+00 -0.00000000000E+00 -0.64999999231E+04  0.65000000000E+04  0.10000000000E+01 0.  0.
    9000001    1    1    2    0    0 -0.23128491096E+03 -0.34769527467E+04  0.54870124737E+04  0.65000000000E+04  0.10000000000E+01 0.  0.
    9000001    1    1    2    0    0  0.23128491096E+03  0.34769527467E+04 -0.54870124737E+04  0.65000000000E+04  0.10000000000E+01 0.  0.
</event>
<event>
 4    1  0.2193160E-006  0.1300000E+05  0.7957747E-01  0.1322471E+00
    9000001   -1    0    0    0    0  0.00000000000E+00  0.00000000000E+00  0.64999999231E+04  0.65000000000E+04  0.10000000000E+01 0.  0.
    9000001   -1    0    0    0    0 -0.00000000000E+00 -0.00000000000E+00 -0.64999999231E+04  0.65000000000E+04  0.10000000000E+01 0.  0.
    9000001    1    1    2    0    0  0.49292710446E+04 -0.39172952465E+04  0.16146466860E+04  0.65000000000E+04  0.10000000000E+01 0.  0.
    9000001    1    1    2    0    0 -0.49292710446E+04  0.39172952465E+04 -0.16146466860E+04  0.65000000000E+04  0.10000000000E+01 0.  0.
</event>
<event>
 4    1  0.2193160E-006  0.1300000E+05  0.7957747E-01  0.1322471E+00
    9000001   -1    0    0    0    0  0.00000000000E+00  0.00000000000E+00  0.64999999231E+04  0.65000000000E+04  0.10000000000E+01 0.  0.
    9000001   -1    0    0    0    0 -0.00000000000E+00 -0.00000000000E+00 -0.64999999231E+04  0.65000000000E+04  0.10000000000E+01 0.  0.
    9000001    1    1    2    0    0  0.57798459060E+04 -0.24581747705E+04  0.16735462647E+04  0.65000000000E+04  0.10000000000E+01 0.  0.
    9000001    1    1    2    0    0 -0.57798459060E+04  0.24581747705E+04 -0.16735462647E+04  0.65000000000E+04  0.10000000000E+01 0.  0.
</event>
<event>
 4    1  0.2193160E-006  0.1300000E+05  0.7957747E-01  0.1322471E+00
    9000001   -1    0    0    0    0  0.00000000000E+00  0.00000000000E+00  0.64999999231E+04  0.65000000000E+04  0.10000000000E+01 0.  0.
    9000001   -1    0    0    0    0 -0.00000000000E+00 -0.00000000000E+00 -0.64999999231E+04  0.65000000000E+04  0.10000000000E+01 0.  0.
    9000001    1    1    2    0    0  0.12385974754E+04  0.22364212597E+04  0.59761438439E+04  0.65000000000E+04  0.10000000000E+01 0.  0.
    9000001    1    1    2    0    0 -0.12385974754E+04 -0.22364212597E+04 -0.59761438439E+04  0.65000000000E+04  0.10000000000E+01 0.  0.
</event>
<event>
 4    1  0.2193160E-006  0.1300000E+05  0.7957747E-01  0.1322471E+00
    9000001   -1    0    0    0    0  0.00000000000E+00  0.00000000000E+00  0.64999999231E+04  0.65000000000E+04  0.10000000000E+01 0.  0.
    9000001   -1    0    0    0    0 -0.00000000000E+00 -0.00000000000E+00 -0.64999999231E+04  0.65000000000E+04  0.10000000000E+01 0.  0.
    9000001    1    1    2    0    0 -0.46070613924E+04 -0.34965365625E+04  0.29663473150E+04  0.65000000000E+04  0.10000000000E+01 0.  0.
    9000001    1    1    2    0    0  0.46070613924E+04  0.34965365625E+04 -0.29663473150E+04  0.65000000000E+04  0.10000000000E+01 0.  0.
</event>
<event>
 4    1  0.2193160E-006  0.1300000E+05  0.7957747E-01  0.1322471E+00
    9000001   -1    0    0    0    0  0.00000000000E+00  0.00000000000E+00  0.64999999231E+04  0.65000000000E+04  0.10000000000E+01 0.  0.
    9000001   -1    0    0    0    0 -0.00000000000E+00 -0.00000000000E+00 -0.64999999231E+04  0.65000000000E+04  0.10000000000E+01 0.  0.
    9000001    1    1    2    0    0 -0.30730320652E+04  0.88461711579E+03  0.56589685884E+04  0.65000000000E+04  0.10000000000E+01 0.  0.
    9000001    1    1    2    0    0  0.30730320652E+04 -0.88461711579E+03 -0.56589685884E+04  0.65000000000E+04  0.10000000000E+01 0.  0.
</event>
<event>
 4    1  0.2193160E-006  0.1300000E+05  0.7957747E-01  0.1322471E+00
    9000001   -1    0    0    0    0  0.00000000000E+00  0.00000000000E+00  0.64999999231E+04  0.65000000000E+04  0.10000000000E+01 0.  0.
    9000001   -1    0    0    0    0 -0.00000000000E+00 -0.00000000000E+00 -0.64999999231E+04  0.65000000000E+04  0.10000000000E+01 0.  0.
    9000001    1    1    2    0    0  0.81417231747E+03  0.32498580402E+04 -0.55700579132E+04  0.65000000000E+04  0.10000000000E+01 0.  0.
    9000001    1    1    2    0    0 -0.81417231747E+03 -0.32498580402E+04  0.55700579132E+04  0.65000000000E+04  0.10000000000E+01 0.  0.
</event>
<event>
 4    1  0.2193160E-006  0.1300000E+05  0.7957747E-01  0.1322471E+00
    9000001   -1    0    0    0    0  0.00000000000E+00  0.00000000000E+00  0.64999999231E+04  0.65000000000E+04  0.10000000000E+01 0.  0.
    9000001   -1    0    0    0    0 -0.00000000000E+00 -0.00000000000E+00 -0.64999999231E+04  0.65000000000E+04  0.10000000000E+01 0.  0.
    9000001    1    1    2    0    0  0.38506435482E+04 -0.44796535007E+04  0.27120560057E+04  0.65000000000E+04  0.10000000000E+01 0.  0.
    9000001    1    1    2    0    0 -0.38506435482E+04  0.44796535007E+04 -0.27120560057E+04  0.65000000000E+04  0.10000000000E+01 0.  0.
</event>
<event>
 4    1  0.2193160E-006  0.1300000E+05  0.7957747E-01  0.1322471E+00
    9000001   -1    0    0    0    0  0.00000000000E+00  0.00000000000E+00  0.64999999231E+04  0.65000000000E+04  0.10000000000E+01 0.  0.
    9000001   -1    0    0    0    0 -0.00000000000E+00 -0.00000000000E+00 -0.64999999231E+04  0.65000000000E+04  0.10000000000E+01 0.  0.
    9000001    1    1    2    0    0 -0.40511502543E+04 -0.20274106514E+04 -0.46613073990E+04  0.65000000000E+04  0.10000000000E+01 0.  0.
    9000001    1    1    2    0    0  0.40511502543E+04  0.20274106514E+04  0.46613073990E+04  0.65000000000E+04  0.10000000000E+01 0.  0.
</event>
<event>
 4    1  0.2193160E-006  0.1300000E+05  0.7957747E-01  0.1322471E+00
    9000001   -1    0    0    0    0  0.00000000000E+00  0.00000000000E+00  0.64999999231E+04  0.65000000000E+04  0.10000000000E+01 0.  0.
    9000001   -1    0    0    0    0 -0.00000000000E+00 -0.00000000000E+00 -0.64999999231E+04  0.65000000000E+04  0.10000000000E+01 0.  0.
    9000001    1    1    2    0    0 -0.23100988849E+04 -0.34911399134E+04 -0.49724625939E+04  0.65000000000E+04  0.10000000000E+01 0.  0.
    9000001    1    1    2    0    0  0.23100988849E+04  0.34911399134E+04  0.49724625939E+04  0.65000000000E+04  0.10000000000E+01 0.  0.
</event>
<event>
 4    1  0.2193160E-006  0.1300000E+05  0.7957747E-01  0.1322471E+00
    9000001   -1    0    0    0    0  0.00000000000E+00  0.00000000000E+00  0.64999999231E+04  0.65000000000E+04  0.10000000000E+01 0.  0.
    9000001   -1    0    0    0    0 -0.00000000000E+00 -0.00000000000E+00 -0.64999999231E+04  0.65000000000E+04  0.10000000000E+01 0.  0.
    9000001    1    1    2    0    0  0.62713693479E+04 -0.30608747278E+03 -0.16811412673E+04  0.65000000000E+04  0.10000000000E+01 0.  0.
    9000001    1    1    2    0    0 -0.62713693479E+04  0.30608747278E+03  0.16811412673E+04  0.65000000000E+04  0.10000000000E+01 0.  0.
</event>
<event>
 4    1  0.2193160E-006  0.1300000E+05  0.7957747E-01  0.1322471E+00
    9000001   -1    0    0    0    0  0.00000000000E+00  0.00000000000E+00  0.64999999231E+04  0.65000000000E+04  0.10000000000E+01 0.  0.
    9000001   -1    0    0    0    0 -0.00000000000E+00 -0.00000000000E+00 -0.64999999231E+04  0.65000000000E+04  0.10000000000E+01 0.  0.
    9000001    1    1    2    0    0  0.13832486583E+04 -0.19222606632E+03 -0.63482022092E+04  0.65000000000E+04  0.10000000000E+01 0.  0.
    9000001    1    1    2    0    0 -0.13832486583E+04  0.19222606632E+03  0.63482022092E+04  0.65000000000E+04  0.10000000000E+01 0.  0.
</event>
<event>
 4    1  0.2193160E-006  0.1300000E+05  0.7957747E-01  0.1322471E+00
    9000001   -1    0    0    0    0  0.00000000000E+00  0.00000000000E+00  0.64999999231E+04  0.65000000000E+04  0.10000000000E+01 0.  0.
    9000001   -1    0    0    0    0 -0.00000000000E+00 -0.00000000000E+00 -0.64999999231E+04  0.65000000000E+04  0.10000000000E+01 0.  0.
    9000001    1    1    2    0    0  0.14165526733E+04 -0.36195697088E+04 -0.52098073522E+04  0.65000000000E+04  0.10000000000E+01 0.  0.
    9000001    1    1    2    0    0 -0.14165526733E+04  0.36195697088E+04  0.52098073522E+04  0.65000000000E+04  0.10000000000E+01 0.  0.
</event>
<event>
 4    1  0.2193160E-006  0.1300000E+05  0.7957747E-01  0.1322471E+00
    9000001   -1    0    0    0    0  0.00000000000E+00  0.00000000000E+00  0.64999999231E+04  0.65000000000E+04  0.10000000000E+01 0.  0.
    9000001   -1    0    0    0    0 -0.00000000000E+00 -0.00000000000E+00 -0.64999999231E+04  0.65000000000E+04  0.10000000000E+01 0.  0.
    9000001    1    1    2    0    0  0.63215627942E+04  0.14705018593E+04 -0.35421338356E+03  0.65000000000E+04  0.10000000000E+01 0.  0.
    9000001    1    1    2    0    0 -0.63215627942E+04 -0.14705018593E+04  0.35421338356E+03  0.65000000000E+04  0.10000000000E+01 0.  0.
</event>
<event>
 4    1  0.2193160E-006  0.1300000E+05  0.7957747E-01  0.1322471E+00
    9000001   -1    0    0    0    0  0.00000000000E+00  0.00000000000E+00  0.64999999231E+04  0.65000000000E+04  0.10000000000E+01 0.  0.
    9000001   -1    0    0    0    0 -0.00000000000E+00 -0.00000000000E+00 -0.64999999231E+04  0.65000000000E+04  0.10000000000E+01 0.  0.
    9000001    1    1    2    0    0 -0.60307311403E+04 -0.23496849805E+04  0.59938418915E+03  0.65000000000E+04  0.10000000000E+01 0.  0.
    9000001    1    1    2    0    0  0.60307311403E+04  0.23496849805E+04 -0.59938418915E+03  0.65000000000E+04  0.10000000000E+01 0.  0.
</event>
<event>
 4    1  0.2193160E-006  0.1300000E+05  0.7957747E-01  0.1322471E+00
    9000001   -1    0    0    0    0  0.00000000000E+00  0.00000000000E+00  0.64999999231E+04  0.65000000000E+04  0.10000000000E+01 0.  0.
    9000001   -1    0    0    0    0 -0.00000000000E+00 -0.00000000000E+00 -0.64999999231E+04  0.65000000000E+04  0.10000000000E+01 0.  0.
    9000001    1    1    2    0    0  0.56999886334E+03  0.64183303455E+04 -0.85447988417E+03  0.65000000000E+04  0.10000000000E+01 0.  0.
    9000001    1    1    2    0    0 -0.56999886334E+03 -0.64183303455E+04  0.85447988417E+03  0.65000000000E+04  0.10000000000E+01 0.  0.
</event>
<event>
 4    1  0.2193160E-006  0.1300000E+05  0.7957747E-01  0.1322471E+00
    9000001   -1    0    0    0    0  0.00000000000E+00  0.00000000000E+00  0.64999999231E+04  0.65000000000E+04  0.10000000000E+01 0.  0.
    9000001   -1    0    0    0    0 -0.00000000000E+00 -0.00000000000E+00 -0.64999999231E+04  0.65000000000E+04  0.10000000000E+01 0.  0.
    9000001    1    1    2    0    0 -0.39814817850E+04 -0.33595159303E+04 -0.38873454323E+04  0.65000000000E+04  0.10000000000E+01 0.  0.
    9000001    1    1    2    0    0  0.39814817850E+04  0.33595159303E+04  0.38873454323E+04  0.65000000000E+04  0.10000000000E+01 0.  0.
</event>
<event>
 4    1  0.2193160E-006  0.1300000E+05  0.7957747E-01  0.1322471E+00
    9000001   -1    0    0    0    0  0.00000000000E+00  0.00000000000E+00  0.64999999231E+04  0.65000000000E+04  0.10000000000E+01 0.  0.
    9000001   -1    0    0    0    0 -0.00000000000E+00 -0.00000000000E+00 -0.64999999231E+04  0.65000000000E+04  0.10000000000E+01 0.  0.
    9000001    1    1    2    0    0  0.48646913438E+03  0.55005799945E+04  0.34288433188E+04  0.65000000000E+04  0.10000000000E+01 0.  0.
    9000001    1    1    2    0    0 -0.48646913438E+03 -0.55005799945E+04 -0.34288433188E+04  0.65000000000E+04  0.10000000000E+01 0.  0.
</event>
<event>
 4    1  0.2193160E-006  0.1300000E+05  0.7957747E-01  0.1322471E+00
    9000001   -1    0    0    0    0  0.00000000000E+00  0.00000000000E+00  0.64999999231E+04  0.65000000000E+04  0.10000000000E+01 0.  0.
    9000001   -1    0    0    0    0 -0.00000000000E+00 -0.00000000000E+00 -0.64999999231E+04  0.65000000000E+04  0.10000000000E+01 0.  0.
    9000001    1    1    2    0    0 -0.34051743204E+04 -0.59464812415E+03  0.55046508024E+04  0.65000000000E+04  0.10000000000E+01 0.  0.
    9000001    1    1    2    0    0  0.34051743204E+04  0.59464812415E+03 -0.55046508024E+04  0.65000000000E+04  0.10000000000E+01 0.  0.
</event>
<event>
 4    1  0.2193160E-006  0.1300000E+05  0.7957747E-01  0.1322471E+00
    9000001   -1    0    0    0    0  0.00000000000E+00  0.00000000000E+00  0.64999999231E+04  0.65000000000E+04  0.10000000000E+01 0.  0.
    9000001   -1    0    0    0    0 -0.00000000000E+00 -0.00000000000E+00 -0.64999999231E+04  0.65000000000E+04  0.10000000000E+01 0.  0.
    9000001    1    1    2    0    0  0.10412492073E+04 -0.18421845786E+04 -0.61459055530E+04  0.65000000000E+04  0.10000000000E+01 0.  0.
    9000001    1    1    2    0    0 -0.10412492073E+04  0.18421845786E+04  0.61459055530E+04  0.65000000000E+04  0.10000000000E+01 0.  0.
</event>
<event>
 4    1  0.2193160E-006  0.1300000E+05  0.7957747E-01  0.1322471E+00
    9000001   -1    0    0    0    0  0.00000000000E+00  0.00000000000E+00  0.64999999231E+04  0.65000000000E+04  0.10000000000E+01 0.  0.
    9000001   -1    0    0    0    0 -0.00000000000E+00 -0.00000000000E+00 -0.64999999231E+04  0.65000000000E+04  0.10000000000E+01 0.  0.
    9000001    1    1    2    0    0 -0.27981149183E+04  0.49247277431E+04 -0.31886687756E+04  0.65000000000E+04  0.10000000000E+01 0.  0.
    9000001    1    1    2    0    0  0.27981149183E+04 -0.49247277431E+04  0.31886687756E+04  0.65000000000E+04  0.10000000000E+01 0.  0.
</event>
<event>
 4    1  0.2193160E-006  0.1300000E+05  0.7957747E-01  0.1322471E+00
    9000001   -1    0    0    0    0  0.00000000000E+00  0.00000000000E+00  0.64999999231E+04  0.65000000000E+04  0.10000000000E+01 0.  0.
    9000001   -1    0    0    0    0 -0.00000000000E+00 -0.00000000000E+00 -0.64999999231E+04  0.65000000000E+04  0.10000000000E+01 0.  0.
    9000001    1    1    2    0    0 -0.54522997166E+04  0.22665000740E+04  0.27176100190E+04  0.65000000000E+04  0.10000000000E+01 0.  0.
    9000001    1    1    2    0    0  0.54522997166E+04 -0.22665000740E+04 -0.27176100190E+04  0.65000000000E+04  0.10000000000E+01 0.  0.
</event>
<event>
 4    1  0.2193160E-006  0.1300000E+05  0.7957747E-01  0.1322471E+00
    9000001   -1    0    0    0    0  0.00000000000E+00  0.00000000000E+00  0.64999999231E+04  0.65000000000E+04  0.10000000000E+01 0.  0.
    9000001   -1    0    0    0    0 -0.00000000000E+00 -0.00000000000E+00 -0.64999999231E+04  0.65000000000E+04  0.10000000000E+01 0.  0.
    9000001    1    1    2    0    0 -0.39547418326E+04  0.11803482582E+04  0.50216326058E+04  0.65000000000E+04  0.10000000000E+01 0.  0.
    9000001    1    1    2    0    0  0.39547418326E+04 -0.11803482582E+04 -0.50216326058E+04  0.65000000000E+04  0.10000000000E+01 0.  0.
</event>
<event>
 4    1  0.2193160E-006  0.1300000E+05  0.7957747E-01  0.1322471E+00
    9000001   -1    0    0    0    0  0.00000000000E+00  0.00000000000E+00  0.64999999231E+04  0.65000000000E+04  0.10000000000E+01 0.  0.
    9000001   -1    0    0    0    0 -0.00000000000E+00 -0.00000000000E+00 -0.64999999231E+04  0.65000000000E+04  0.10000000000E+01 0.  0.
    9000001    1    1    2    0    0  0.26658102831E+04 -0.53590823307E+04  0.25345001690E+04  0.65000000000E+04  0.10000000000E+01 0.  0.
    9000001    1    1    2    0    0 -0.26658102831E+04  0.53590823307E+04 -0.25345001690E+04  0.65000000000E+04  0.10000000000E+01 0.  0.
</event>
<event>
 4    1  0.2193160E-006  0.1300000E+05  0.7957747E-01  0.1322471E+00
    9000001   -1    0    0    0    0  0.00000000000E+00  0.00000000000E+00  0.64999999231E+04  0.65000000000E+04  0.10000000000E+01 0.  0.
    9000001   -1    0    0    0    0 -0.00000000000E+00 -0.00000000000E+00 -0.64999999231E+04  0.65000000000E+04  0.10000000000E+01 0.  0.
    9000001    1    1    2    0    0  0.36884417307E+04  0.47137413532E+03  0.53313415782E+04  0.65000000000E+04  0.10000000000E+01 0.  0.
    9000001    1    1    2    0    0 -0.36884417307E+04 -0.47137413532E+03 -0.53313415782E+04  0.65000000000E+04  0.10000000000E+01 0.  0.
</event>
<event>
 4    1  0.2193160E-006  0.1300000E+05  0.7957747E-01  0.1322471E+00
    9000001   -1    0    0    0    0  0.00000000000E+00  0.00000000000E+00  0.64999999231E+04  0.65000000000E+04  0.10000000000E+01 0.  0.
    9000001   -1    0    0    0    0 -0.00000000000E+00 -0.00000000000E+00 -0.64999999231E+04  0.65000000000E+04  0.10000000000E+01 0.  0.
    9000001    1    1    2    0    0  0.13464933141E+04 -0.50888106589E+04 -0.38132611808E+04  0.65000000000E+04  0.10000000000E+01 0.  0.
    9000001    1    1    2    0    0 -0.13464933141E+04  0.50888106589E+04  0.38132611808E+04  0.65000000000E+04  0.10000000000E+01 0.  0.
</event>
<event>
 4    1  0.2193160E-006  0.1300000E+05  0.7957747E-01  0.1322471E+00
    9000001   -1    0    0    0    0  0.00000000000E+00  0.00000000000E+00  0.64999999231E+04  0.65000000000E+04  0.10000000000E+01 0.  0.
    9000001   -1    0    0    0    0 -0.00000000000E+00 -0.00000000000E+00 -0.64999999231E+04  0.65000000000E+04  0.10000000000E+01 0.  0.
    9000001    1    1    2    0    0 -0.47005422230E+04  0.41743869654E+04  0.16520881553E+04  0.65000000000E+04  0.10000000000E+01 0.  0.
    9000001    1    1    2    0    0  0.47005422230E+04 -0.41743869654E+04 -0.16520881553E+04  0.65000000000E+04  0.10000000000E+01 0.  0.
</event>
<event>
 4    1  0.2193160E-006  0.1300000E+05  0.7957747E-01  0.1322471E+00
    9000001   -1    0    0    0    0  0.00000000000E+00  0.00000000000E+00  0.64999999231E+04  0.65000000000E+04  0.10000000000E+01 0.  0.
    9000001   -1    0    0    0    0 -0.00000000000E+00 -0.00000000000E+00 -0.64999999231E+04  0.65000000000E+04  0.10000000000E+01 0.  0.
    9000001    1    1    2    0    0  0.47523745058E+04  0.15071646505E+04  0.41705383673E+04  0.65000000000E+04  0.10000000000E+01 0.  0.
    9000001    1    1    2    0    0 -0.47523745058E+04 -0.15071646505E+04 -0.41705383673E+04  0.65000000000E+04  0.10000000000E+01 0.  0.
</event>
<event>
 4    1  0.2193160E-006  0.1300000E+05  0.7957747E-01  0.1322471E+00
    9000001   -1    0    0    0    0  0.00000000000E+00  0.00000000000E+00  0.64999999231E+04  0.65000000000E+04  0.10000000000E+01 0.  0.
    9000001   -1    0    0    0    0 -0.00000000000E+00 -0.00000000000E+00 -0.64999999231E+04  0.65000000000E+04  0.10000000000E+01 0.  0.
    9000001    1    1    2    0    0  0.82485498007E+03  0.61601774694E+04 -0.19031097730E+04  0.65000000000E+04  0.10000000000E+01 0.  0.
    9000001    1    1    2    0    0 -0.82485498007E+03 -0.61601774694E+04  0.19031097730E+04  0.65000000000E+04  0.10000000000E+01 0.  0.
</event>
<event>
 4    1  0.2193160E-006  0.1300000E+05  0.7957747E-01  0.1322471E+00
    9000001   -1    0    0    0    0  0.00000000000E+00  0.00000000000E+00  0.64999999231E+04  0.65000000000E+04  0.10000000000E+01 0.  0.
    9000001   -1    0    0    0    0 -0.00000000000E+00 -0.00000000000E+00 -0.64999999231E+04  0.65000000000E+04  0.10000000000E+01 0.  0.
    9000001    1    1    2    0    0 -0.56275514232E+04 -0.20560299236E+04 -0.25205961463E+04  0.65000000000E+04  0.10000000000E+01 0.  0.
    9000001    1    1    2    0    0  0.56275514232E+04  0.20560299236E+04  0.25205961463E+04  0.65000000000E+04  0.10000000000E+01 0.  0.
</event>
<event>
 4    1  0.2193160E-006  0.1300000E+05  0.7957747E-01  0.1322471E+00
    9000001   -1    0    0    0    0  0.00000000000E+00  0.00000000000E+00  0.64999999231E+04  0.65000000000E+04  0.10000000000E+01 0.  0.
    9000001   -1    0    0    0    0 -0.00000000000E+00 -0.00000000000E+00 -0.64999999231E+04  0.65000000000E+04  0.10000000000E+01 0.  0.
    9000001    1    1    2    0    0  0.40058521250E+04 -0.31738542219E+04 -0.40161918692E+04  0.65000000000E+04  0.10000000000E+01 0.  0.
    9000001    1    1    2    0    0 -0.40058521250E+04  0.31738542219E+04  0.40161918692E+04  0.65000000000E+04  0.10000000000E+01 0.  0.
</event>
<event>
 4    1  0.2193160E-006  0.1300000E+05  0.7957747E-01  0.1322471E+00
    9000001   -1    0    0    0    0  0.00000000000E+00  0.00000000000E+00  0.64999999231E+04  0.65000000000E+04  0.10000000000E+01 0.  0.
    9000001   -1    0    0    0    0 -0.00000000000E+00 -0.00000000000E+00 -0.64999999231E+04  0.65000000000E+04  0.10000000000E+01 0.  0.
    9000001    1    1    2    0    0 -0.15317452317E+04 -0.50829641547E+04 -0.37506307399E+04  0.65000000000E+04  0.10000000000E+01 0.  0.
    9000001    1    1    2    0    0  0.15317452317E+04  0.50829641547E+04  0.37506307399E+04  0.65000000000E+04  0.10000000000E+01 0.  0.
</event>
<event>
 4    1  0.2193160E-006  0.1300000E+05  0.7957747E-01  0.1322471E+00
    9000001   -1    0    0    0    0  0.00000000000E+00  0.00000000000E+00  0.64999999231E+04  0.65000000000E+04  0.10000000000E+01 0.  0.
    9000001   -1    0    0    0    0 -0.00000000000E+00 -0.00000000000E+00 -0.64999999231E+04  0.65000000000E+04  0.10000000000E+01 0.  0.
    9000001    1    1    2    0    0  0.35214229286E+04  0.52882307982E+04 -0.13726596747E+04  0.65000000000E+04  0.10000000000E+01 0.  0.
    9000001    1    1    2    0    0 -0.35214229286E+04 -0.52882307982E+04  0.13726596747E+04  0.65000000000E+04  0.10000000000E+01 0.  0.
</event>
<event>
 4    1  0.2193160E-006  0.1300000E+05  0.7957747E-01  0.1322471E+00
    9000001   -1    0    0    0    0  0.00000000000E+00  0.00000000000E+00  0.64999999231E+04  0.65000000000E+04  0.10000000000E+01 0.  0.
    9000001   -1    0    0    0    0 -0.00000000000E+00 -0.00000000000E+00 -0.64999999231E+04  0.65000000000E+04  0.10000000000E+01 0.  0.
    9000001    1    1    2    0    0  0.35388196573E+04 -0.40190895163E+04  0.36842467199E+04  0.65000000000E+04  0.10000000000E+01 0.  0.
    9000001    1    1    2    0    0 -0.35388196573E+04  0.40190895163E+04 -0.36842467199E+04  0.65000000000E+04  0.10000000000E+01 0.  0.
</event>
<event>
 4    1  0.2193160E-006  0.1300000E+05  0.7957747E-01  0.1322471E+00
    9000001   -1    0    0    0    0  0.00000000000E+00  0.00000000000E+00  0.64999999231E+04  0.65000000000E+04  0.10000000000E+01 0.  0.
    9000001   -1    0    0    0    0 -0.00000000000E+00 -0.00000000000E+00 -0.64999999231E+04  0.65000000000E+04  0.10000000000E+01 0.  0.
    9000001    1    1    2    0    0 -0.60542530367E+04  0.17146715655E+04  0.16296995397E+04  0.65000000000E+04  0.10000000000E+01 0.  0.
    9000001    1    1    2    0    0  0.60542530367E+04 -0.17146715655E+04 -0.16296995397E+04  0.65000000000E+04  0.10000000000E+01 0.  0.
</event>
<event>
 4    1  0.2193160E-006  0.1300000E+05  0.7957747E-01  0.1322471E+00
    9000001   -1    0    0    0    0  0.00000000000E+00  0.00000000000E+00  0.64999999231E+04  0.65000000000E+04  0.10000000000E+01 0.  0.
    9000001   -1    0    0    0    0 -0.00000000000E+00 -0.00000000000E+00 -0.64999999231E+04  0.65000000000E+04  0.10000000000E+01 0.  0.
    9000001    1    1    2    0    0 -0.27170892533E+04 -0.58366584583E+04 -0.89489833515E+03  0.65000000000E+04  0.10000000000E+01 0.  0.
    9000001    1    1    2    0    0  0.27170892533E+04  0.58366584583E+04  0.89489833515E+03  0.65000000000E+04  0.10000000000E+01 0.  0.
</event>
<event>
 4    1  0.2193160E-006  0.1300000E+05  0.7957747E-01  0.1322471E+00
    9000001   -1    0    0    0    0  0.00000000000E+00  0.00000000000E+00  0.64999999231E+04  0.65000000000E+04  0.10000000000E+01 0.  0.
    9000001   -1    0    0    0    0 -0.00000000000E+00 -0.00000000000E+00 -0.64999999231E+04  0.65000000000E+04  0.10000000000E+01 0.  0.
    9000001    1    1    2    0    0 -0.63916685571E+04  0.11263791196E+04 -0.35755018589E+03  0.65000000000E+04  0.10000000000E+01 0.  0.
    9000001    1    1    2    0    0  0.63916685571E+04 -0.11263791196E+04  0.35755018589E+03  0.65000000000E+04  0.10000000000E+01 0.  0.
</event>
<event>
 4    1  0.2193160E-006  0.1300000E+05  0.7957747E-01  0.1322471E+00
    9000001   -1    0    0    0    0  0.00000000000E+00  0.00000000000E+00  0.64999999231E+04  0.65000000000E+04  0.10000000000E+01 0.  0.
    9000001   -1    0    0    0    0 -0.00000000000E+00 -0.00000000000E+00 -0.64999999231E+04  0.65000000000E+04  0.10000000000E+01 0.  0.
    9000001    1    1    2    0    0 -0.49627958019E+04  0.11661476197E+04 -0.40324628403E+04  0.65000000000E+04  0.10000000000E+01 0.  0.
    9000001    1    1    2    0    0  0.49627958019E+04 -0.11661476197E+04  0.40324628403E+04  0.65000000000E+04  0.10000000000E+01 0.  0.
</event>
<event>
 4    1  0.2193160E-006  0.1300000E+05  0.7957747E-01  0.1322471E+00
    9000001   -1    0    0    0    0  0.00000000000E+00  0.00000000000E+00  0.64999999231E+04  0.65000000000E+04  0.10000000000E+01 0.  0.
    9000001   -1    0    0    0    0 -0.00000000000E+00 -0.00000000000E+00 -0.64999999231E+04  0.65000000000E+04  0.10000000000E+01 0.  0.
    9000001    1    1    2    0    0 -0.58654645559E+04  0.77037731108E+03 -0.26931103471E+04  0.65000000000E+04  0.10000000000E+01 0.  0.
    9000001    1    1    2    0    0  0.58654645559E+04 -0.77037731108E+03  0.26931103471E+04  0.65000000000E+04  0.10000000000E+01 0.  0.
</event>
<event>
 4    1  0.2193160E-006  0.1300000E+05  0.7957747E-01  0.1322471E+00
    9000001   -1    0    0    0    0  0.00000000000E+00  0.00000000000E+00  0.64999999231E+04  0.65000000000E+04  0.10000000000E+01 0.  0.
    9000001   -1    0    0    0    0 -0.00000000000E+00 -0.00000000000E+00 -0.64999999231E+04  0.65000000000E+04  0.10000000000E+01 0.  0.
    9000001    1    1    2    0    0  0.34629517622E+03 -0.48187853338E+04 -0.43484924465E+04  0.65000000000E+04  0.10000000000E+01 0.  0.
    9000001    1    1    2    0    0 -0.34629517622E+03  0.48187853338E+04  0.43484924465E+04  0.65000000000E+04  0.10000000000E+01 0.  0.
</event>
<event>
 4    1  0.2193160E-006  0.1300000E+05  0.7957747E-01  0.1322471E+00
    9000001   -1    0    0    0    0  0.00000000000E+00  0.00000000000E+00  0.64999999231E+04  0.65000000000E+04  0.10000000000E+01 0.  0.
    9000001   -1    0    0    0    0 -0.00000000000E+00 -0.00000000000E+00 -0.64999999231E+04  0.65000000000E+04  0.10000000000E+01 0.  0.
    9000001    1    1    2    0    0 -0.56280369003E+04 -0.24464047163E+04 -0.21424993847E+04  0.65000000000E+04  0.10000000000E+01 0.  0.
    9000001    1    1    2    0    0  0.56280369003E+04  0.24464047163E+04  0.21424993847E+04  0.65000000000E+04  0.10000000000E+01 0.  0.
</event>
<event>
 4    1  0.2193160E-006  0.1300000E+05  0.7957747E-01  0.1322471E+00
    9000001   -1    0    0    0    0  0.00000000000E+00  0.00000000000E+00  0.64999999231E+04  0.65000000000E+04  0.10000000000E+01 0.  0.
    9000001   -1    0    0    0    0 -0.00000000000E+00 -0.00000000000E+00 -0.64999999231E+04  0.65000000000E+04  0.10000000000E+01 0.  0.
    9000001    1    1    2    0    0 -0.56246247631E+04  0.41738903867E+03  0.32310031980E+04  0.65000000000E+04  0.10000000000E+01 0.  0.
    9000001    1    1    2    0    0  0.56246247631E+04 -0.41738903867E+03 -0.32310031980E+04  0.65000000000E+04  0.10000000000E+01 0.  0.
</event>
<event>
 4    1  0.2193160E-006  0.1300000E+05  0.7957747E-01  0.1322471E+00
    9000001   -1    0    0    0    0  0.00000000000E+00  0.00000000000E+00  0.64999999231E+04  0.65000000000E+04  0.10000000000E+01 0.  0.
    9000001   -1    0    0    0    0 -0.00000000000E+00 -0.00000000000E+00 -0.64999999231E+04  0.65000000000E+04  0.10000000000E+01 0.  0.
    9000001    1    1    2    0    0  0.29277240956E+04 -0.25401201556E+04 -0.52178750670E+04  0.65000000000E+04  0.10000000000E+01 0.  0.
    9000001    1    1    2    0    0 -0.29277240956E+04  0.25401201556E+04  0.52178750670E+04  0.65000000000E+04  0.10000000000E+01 0.  0.
</event>
<event>
 4    1  0.2193160E-006  0.1300000E+05  0.7957747E-01  0.1322471E+00
    9000001   -1    0    0    0    0  0.00000000000E+00  0.00000000000E+00  0.64999999231E+04  0.65000000000E+04  0.10000000000E+01 0.  0.
    9000001   -1    0    0    0    0 -0.00000000000E+00 -0.00000000000E+00 -0.64999999231E+04  0.65000000000E+04  0.10000000000E+01 0.  0.
    9000001    1    1    2    0    0  0.62505379573E+04  0.77619635263E+03 -0.16057065318E+04  0.65000000000E+04  0.10000000000E+01 0.  0.
    9000001    1    1    2    0    0 -0.62505379573E+04 -0.77619635263E+03  0.16057065318E+04  0.65000000000E+04  0.10000000000E+01 0.  0.
</event>
<event>
 4    1  0.2193160E-006  0.1300000E+05  0.7957747E-01  0.1322471E+00
    9000001   -1    0    0    0    0  0.00000000000E+00  0.00000000000E+00  0.64999999231E+04  0.65000000000E+04  0.10000000000E+01 0.  0.
    9000001   -1    0    0    0    0 -0.00000000000E+00 -0.00000000000E+00 -0.64999999231E+04  0.65000000000E+04  0.10000000000E+01 0.  0.
    9000001    1    1    2    0    0  0.13548486330E+04  0.56997639751E+04 -0.28155061375E+04  0.65000000000E+04  0.10000000000E+01 0.  0.
    9000001    1    1    2    0    0 -0.13548486330E+04 -0.56997639751E+04  0.28155061375E+04  0.65000000000E+04  0.10000000000E+01 0.  0.
</event>
<event>
 4    1  0.2193160E-006  0.1300000E+05  0.7957747E-01  0.1322471E+00
    9000001   -1    0    0    0    0  0.00000000000E+00  0.00000000000E+00  0.64999999231E+04  0.65000000000E+04  0.10000000000E+01 0.  0.
    9000001   -1    0    0    0    0 -0.00000000000E+00 -0.00000000000E+00 -0.64999999231E+04  0.65000000000E+04  0.10000000000E+01 0.  0.
    9000001    1    1    2    0    0 -0.58245298244E+04 -0.13313598870E+04 -0.25597523661E+04  0.65000000000E+04  0.10000000000E+01 0.  0.
    9000001    1    1    2    0    0  0.58245298244E+04  0.13313598870E+04  0.25597523661E+04  0.65000000000E+04  0.10000000000E+01 0.  0.
</event>
<event>
 4    1  0.2193160E-006  0.1300000E+05  0.7957747E-01  0.1322471E+00
    9000001   -1    0    0    0    0  0.00000000000E+00  0.00000000000E+00  0.64999999231E+04  0.65000000000E+04  0.10000000000E+01 0.  0.
    9000001   -1    0    0    0    0 -0.00000000000E+00 -0.00000000000E+00 -0.64999999231E+04  0.65000000000E+04  0.10000000000E+01 0.  0.
    9000001    1    1    2    0    0  0.61680490663E+04 -0.13787494777E+04 -0.15179656101E+04  0.65000000000E+04  0.10000000000E+01 0.  0.
    9000001    1    1    2    0    0 -0.61680490663E+04  0.13787494777E+04  0.15179656101E+04  0.65000000000E+04  0.10000000000E+01 0.  0.
</event>
<event>
 4    1  0.2193160E-006  0.1300000E+05  0.7957747E-01  0.1322471E+00
    9000001   -1    0    0    0    0  0.00000000000E+00  0.00000000000E+00  0.64999999231E+04  0.65000000000E+04  0.10000000000E+01 0.  0.
    9000001   -1    0    0    0    0 -0.00000000000E+00 -0.00000000000E+00 -0.64999999231E+04  0.65000000000E+04  0.10000000000E+01 0.  0.
    9000001    1    1    2    0    0 -0.51860961216E+04 -0.28518679463E+04 -0.26872393333E+04  0.65000000000E+04  0.10000000000E+01 0.  0.
    9000001    1    1    2    0    0  0.51860961216E+04  0.28518679463E+04  0.26872393333E+04  0.65000000000E+04  0.10000000000E+01 0.  0.
</event>
<event>
 4    1  0.2193160E-006  0.1300000E+05  0.7957747E-01  0.1322471E+00
    9000001   -1    0    0    0    0  0.00000000000E+00  0.00000000000E+00  0.64999999231E+04  0.65000000000E+04  0.10000000000E+01 0.  0.
    9000001   -1    0    0    0    0 -0.00000000000E+00 -0.00000000000E+00 -0.64999999231E+04  0.65000000000E+04  0.10000000000E+01 0.  0.
    9000001    1    1    2    0    0 -0.37844911201E+04  0.64727824592E+03 -0.52448695726E+04  0.65000000000E+04  0.10000000000E+01 0.  0.
    9000001    1    1    2    0    0  0.37844911201E+04 -0.64727824592E+03  0.52448695726E+04  0.65000000000E+04  0.10000000000E+01 0.  0.
</event>
<event>
 4    1  0.2193160E-006  0.1300000E+05  0.7957747E-01  0.1322471E+00
    9000001   -1    0    0    0    0  0.00000000000E+00  0.00000000000E+00  0.64999999231E+04  0.65000000000E+04  0.10000000000E+01 0.  0.
    9000001   -1    0    0    0    0 -0.00000000000E+00 -0.00000000000E+00 -0.64999999231E+04  0.65000000000E+04  0.10000000000E+01 0.  0.
    9000001    1    1    2    0    0  0.81404256378E+03  0.60709681155E+04  0.21750126079E+04  0.65000000000E+04  0.10000000000E+01 0.  0.
    9000001    1    1    2    0    0 -0.81404256378E+03 -0.60709681155E+04 -0.21750126079E+04  0.65000000000E+04  0.10000000000E+01 0.  0.
</event>
<event>
 4    1  0.2193160E-006  0.1300000E+05  0.7957747E-01  0.1322471E+00
    9000001   -1    0    0    0    0  0.00000000000E+00  0.00000000000E+00  0.64999999231E+04  0.65000000000E+04  0.10000000000E+01 0.  0.
    9000001   -1    0    0    0    0 -0.00000000000E+00 -0.00000000000E+00 -0.64999999231E+04  0.65000000000E+04  0.10000000000E+01 0.  0.
    9000001    1    1    2    0    0  0.24147787261E+04 -0.35471919633E+04 -0.48822404570E+04  0.65000000000E+04  0.10000000000E+01 0.  0.
    9000001    1    1    2    0    0 -0.24147787261E+04  0.35471919633E+04  0.48822404570E+04  0.65000000000E+04  0.10000000000E+01 0.  0.
</event>
<event>
 4    1  0.2193160E-006  0.1300000E+05  0.7957747E-01  0.1322471E+00
    9000001   -1    0    0    0    0  0.00000000000E+00  0.00000000000E+00  0.64999999231E+04  0.65000000000E+04  0.10000000000E+01 0.  0.
    9000001   -1    0    0    0    0 -0.00000000000E+00 -0.00000000000E+00 -0.64999999231E+04  0.65000000000E+04  0.10000000000E+01 0.  0.
    9000001    1    1    2    0    0 -0.57882335182E+04  0.12086799314E+04 -0.26991562685E+04  0.65000000000E+04  0.10000000000E+01 0.  0.
    9000001    1    1    2    0    0  0.57882335182E+04 -0.12086799314E+04  0.26991562685E+04  0.65000000000E+04  0.10000000000E+01 0.  0.
</event>
<event>
 4    1  0.2193160E-006  0.1300000E+05  0.7957747E-01  0.1322471E+00
    9000001   -1    0    0    0    0  0.00000000000E+00  0.00000000000E+00  0.64999999231E+04  0.65000000000E+04  0.10000000000E+01 0.  0.
    9000001   -1    0    0    0    0 -0.00000000000E+00 -0.00000000000E+00 -0.64999999231E+04  0.65000000000E+04  0.10000000000E+01 0.  0.
    9000001    1    1    2    0    0 -0.48038012413E+04 -0.43268068900E+04  0.67248402973E+03  0.65000000000E+04  0.10000000000E+01 0.  0.
    9000001    1    1    2    0    0  0.48038012413E+04  0.43268068900E+04 -0.67248402973E+03  0.65000000000E+04  0.10000000000E+01 0.  0.
</event>
<event>
 4    1  0.2193160E-006  0.1300000E+05  0.7957747E-01  0.1322471E+00
    9000001   -1    0    0    0    0  0.00000000000E+00  0.00000000000E+00  0.64999999231E+04  0.65000000000E+04  0.10000000000E+01 0.  0.
    9000001   -1    0    0    0    0 -0.00000000000E+00 -0.00000000000E+00 -0.64999999231E+04  0.65000000000E+04  0.10000000000E+01 0.  0.
    9000001    1    1    2    0    0 -0.20258498475E+04 -0.43228190627E+04 -0.44112545548E+04  0.65000000000E+04  0.10000000000E+01 0.  0.
    9000001    1    1    2    0    0  0.20258498475E+04  0.43228190627E+04  0.44112545548E+04  0.65000000000E+04  0.10000000000E+01 0.  0.
</event>
<event>
 4    1  0.2193160E-006  0.1300000E+05  0.7957747E-01  0.1322471E+00
    9000001   -1    0    0    0    0  0.00000000000E+00  0.00000000000E+00  0.64999999231E+04  0.65000000000E+04  0.10000000000E+01 0.  0.
    9000001   -1    0    0    0    0 -0.00000000000E+00 -0.00000000000E+00 -0.64999999231E+04  0.65000000000E+04  0.10000000000E+01 0.  0.
    9000001    1    1    2    0    0 -0.61067780705E+04  0.70303680729E+03  0.21125813227E+04  0.65000000000E+04  0.10000000000E+01 0.  0.
    9000001    1    1    2    0    0  0.61067780705E+04 -0.70303680729E+03 -0.21125813227E+04  0.65000000000E+04  0.10000000000E+01 0.  0.
</event>
<event>
 4    1  0.2193160E-006  0.1300000E+05  0.7957747E-01  0.1322471E+00
    9000001   -1    0    0    0    0  0.00000000000E+00  0.00000000000E+00  0.64999999231E+04  0.65000000000E+04  0.10000000000E+01 0.  0.
    9000001   -1    0    0    0    0 -0.00000000000E+00 -0.00000000000E+00 -0.64999999231E+04  0.65000000000E+04  0.10000000000E+01 0.  0.
    9000001    1    1    2    0    0 -0.20713665630E+04  0.50235649245E+04 -0.35669643972E+04  0.65000000000E+04  0.10000000000E+01 0.  0.
    9000001    1    1    2    0    0  0.20713665630E+04 -0.50235649245E+04  0.35669643972E+04  0.65000000000E+04  0.10000000000E+01 0.  0.
</event>
<event>
 4    1  0.2193160E-006  0.1300000E+05  0.7957747E-01  0.1322471E+00
    9000001   -1    0    0    0    0  0.00000000000E+00  0.00000000000E+00  0.64999999231E+04  0.65000000000E+04  0.10000000000E+01 0.  0.
    9000001   -1    0    0    0    0 -0.00000000000E+00 -0.00000000000E+00 -0.64999999231E+04  0.65000000000E+04  0.10000000000E+01 0.  0.
    9000001    1    1    2    0    0  0.50999447656E+04 -0.10127028124E+04 -0.39006403835E+04  0.65000000000E+04  0.10000000000E+01 0.  0.
    9000001    1    1    2    0    0 -0.50999447656E+04  0.10127028124E+04  0.39006403835E+04  0.65000000000E+04  0.10000000000E+01 0.  0.
</event>
<event>
 4    1  0.2193160E-006  0.1300000E+05  0.7957747E-01  0.1322471E+00
    9000001   -1    0    0    0    0  0.00000000000E+00  0.00000000000E+00  0.64999999231E+04  0.65000000000E+04  0.10000000000E+01 0.  0.
    9000001   -1    0    0    0    0 -0.00000000000E+00 -0.00000000000E+00 -0.64999999231E+04  0.65000000000E+04  0.10000000000E+01 0.  0.
    9000001    1    1    2    0    0 -0.15772670271E+04  0.28581599400E+04  0.56207783698E+04  0.65000000000E+04  0.10000000000E+01 0.  0.
    9000001    1    1    2    0    0  0.15772670271E+04 -0.28581599400E+04 -0.56207783698E+04  0.65000000000E+04  0.10000000000E+01 0.  0.
</event>
<event>
 4    1  0.2193160E-006  0.1300000E+05  0.7957747E-01  0.1322471E+00
    9000001   -1    0    0    0    0  0.00000000000E+00  0.00000000000E+00  0.64999999231E+04  0.65000000000E+04  0.10000000000E+01 0.  0.
    9000001   -1    0    0    0    0 -0.00000000000E+00 -0.00000000000E+00 -0.64999999231E+04  0.65000000000E+04  0.10000000000E+01 0.  0.
    9000001    1    1    2    0    0  0.71056271081E+03  0.54846938980E+04  0.34151475047E+04  0.65000000000E+04  0.10000000000E+01 0.  0.
    9000001    1    1    2    0    0 -0.71056271081E+03 -0.54846938980E+04 -0.34151475047E+04  0.65000000000E+04  0.10000000000E+01 0.  0.
</event>
<event>
 4    1  0.2193160E-006  0.1300000E+05  0.7957747E-01  0.1322471E+00
    9000001   -1    0    0    0    0  0.00000000000E+00  0.00000000000E+00  0.64999999231E+04  0.65000000000E+04  0.10000000000E+01 0.  0.
    9000001   -1    0    0    0    0 -0.00000000000E+00 -0.00000000000E+00 -0.64999999231E+04  0.65000000000E+04  0.10000000000E+01 0.  0.
    9000001    1    1    2    0    0  0.21447440742E+04 -0.47212728593E+04 -0.39191395031E+04  0.65000000000E+04  0.10000000000E+01 0.  0.
    9000001    1    1    2    0    0 -0.21447440742E+04  0.47212728593E+04  0.39191395031E+04  0.65000000000E+04  0.10000000000E+01 0.  0.
</event>
<event>
 4    1  0.2193160E-006  0.1300000E+05  0.7957747E-01  0.1322471E+00
    9000001   -1    0    0    0    0  0.00000000000E+00  0.00000000000E+00  0.64999999231E+04  0.65000000000E+04  0.10000000000E+01 0.  0.
    9000001   -1    0    0    0    0 -0.00000000000E+00 -0.00000000000E+00 -0.64999999231E+04  0.65000000000E+04  0.10000000000E+01 0.  0.
    9000001    1    1    2    0    0  0.40162508092E+04  0.20359656566E+04 -0.46877043724E+04  0.65000000000E+04  0.10000000000E+01 0.  0.
    9000001    1    1    2    0    0 -0.40162508092E+04 -0.20359656566E+04  0.46877043724E+04  0.65000000000E+04  0.10000000000E+01 0.  0.
</event>
<event>
 4    1  0.2193160E-006  0.1300000E+05  0.7957747E-01  0.1322471E+00
    9000001   -1    0    0    0    0  0.00000000000E+00  0.00000000000E+00  0.64999999231E+04  0.65000000000E+04  0.10000000000E+01 0.  0.
    9000001   -1    0    0    0    0 -0.00000000000E+00 -0.00000000000E+00 -0.64999999231E+04  0.65000000000E+04  0.10000000000E+01 0.  0.
    9000001    1    1    2    0    0  0.19951173457E+04  0.61821485704E+04  0.22482177437E+03  0.65000000000E+04  0.10000000000E+01 0.  0.
    9000001    1    1    2    0    0 -0.19951173457E+04 -0.61821485704E+04 -0.22482177437E+03  0.65000000000E+04  0.10000000000E+01 0.  0.
</event>
<event>
 4    1  0.2193160E-006  0.1300000E+05  0.7957747E-01  0.1322471E+00
    9000001   -1    0    0    0    0  0.00000000000E+00  0.00000000000E+00  0.64999999231E+04  0.65000000000E+04  0.10000000000E+01 0.  0.
    9000001   -1    0    0    0    0 -0.00000000000E+00 -0.00000000000E+00 -0.64999999231E+04  0.65000000000E+04  0.10000000000E+01 0.  0.
    9000001    1    1    2    0    0 -0.24006030151E+04 -0.35861595980E+04 -0.48607163568E+04  0.65000000000E+04  0.10000000000E+01 0.  0.
    9000001    1    1    2    0    0  0.24006030151E+04  0.35861595980E+04  0.48607163568E+04  0.65000000000E+04  0.10000000000E+01 0.  0.
</event>
<event>
 4    1  0.2193160E-006  0.1300000E+05  0.7957747E-01  0.1322471E+00
    9000001   -1    0    0    0    0  0.00000000000E+00  0.00000000000E+00  0.64999999231E+04  0.65000000000E+04  0.10000000000E+01 0.  0.
    9000001   -1    0    0    0    0 -0.00000000000E+00 -0.00000000000E+00 -0.64999999231E+04  0.65000000000E+04  0.10000000000E+01 0.  0.
    9000001    1    1    2    0    0 -0.31790107310E+04 -0.38662228720E+03  0.56563604004E+04  0.65000000000E+04  0.10000000000E+01 0.  0.
    9000001    1    1    2    0    0  0.31790107310E+04  0.38662228720E+03 -0.56563604004E+04  0.65000000000E+04  0.10000000000E+01 0.  0.
</event>
<event>
 4    1  0.2193160E-006  0.1300000E+05  0.7957747E-01  0.1322471E+00
    9000001   -1    0    0    0    0  0.00000000000E+00  0.00000000000E+00  0.64999999231E+04  0.65000000000E+04  0.10000000000E+01 0.  0.
    9000001   -1    0    0    0    0 -0.00000000000E+00 -0.00000000000E+00 -0.64999999231E+04  0.65000000000E+04  0.10000000000E+01 0.  0.
    9000001    1    1    2    0    0 -0.30837447730E+04 -0.56857162991E+04  0.64276538553E+03  0.65000000000E+04  0.10000000000E+01 0.  0.
    9000001    1    1    2    0    0  0.30837447730E+04  0.56857162991E+04 -0.64276538553E+03  0.65000000000E+04  0.10000000000E+01 0.  0.
</event>
<event>
 4    1  0.2193160E-006  0.1300000E+05  0.7957747E-01  0.1322471E+00
    9000001   -1    0    0    0    0  0.00000000000E+00  0.00000000000E+00  0.64999999231E+04  0.65000000000E+04  0.10000000000E+01 0.  0.
    9000001   -1    0    0    0    0 -0.00000000000E+00 -0.00000000000E+00 -0.64999999231E+04  0.65000000000E+04  0.10000000000E+01 0.  0.
    9000001    1    1    2    0    0  0.44747078375E+04 -0.18951886080E+04 -0.43168563688E+04  0.65000000000E+04  0.10000000000E+01 0.  0.
    9000001    1    1    2    0    0 -0.44747078375E+04  0.18951886080E+04  0.43168563688E+04  0.65000000000E+04  0.10000000000E+01 0.  0.
</event>
<event>
 4    1  0.2193160E-006  0.1300000E+05  0.7957747E-01  0.1322471E+00
    9000001   -1    0    0    0    0  0.00000000000E+00  0.00000000000E+00  0.64999999231E+04  0.65000000000E+04  0.10000000000E+01 0.  0.
    9000001   -1    0    0    0    0 -0.00000000000E+00 -0.00000000000E+00 -0.64999999231E+04  0.65000000000E+04  0.10000000000E+01 0.  0.
    9000001    1    1    2    0    0  0.60190090855E+04  0.11128480340E+04 -0.21870294652E+04  0.65000000000E+04  0.10000000000E+01 0.  0.
    9000001    1    1    2    0    0 -0.60190090855E+04 -0.11128480340E+04  0.21870294652E+04  0.65000000000E+04  0.10000000000E+01 0.  0.
</event>
<event>
 4    1  0.2193160E-006  0.1300000E+05  0.7957747E-01  0.1322471E+00
    9000001   -1    0    0    0    0  0.00000000000E+00  0.00000000000E+00  0.64999999231E+04  0.65000000000E+04  0.10000000000E+01 0.  0.
    9000001   -1    0    0    0    0 -0.00000000000E+00 -0.00000000000E+00 -0.64999999231E+04  0.65000000000E+04  0.10000000000E+01 0.  0.
    9000001    1    1    2    0    0 -0.56662749199E+03  0.49708134670E+03 -0.64561476455E+04  0.65000000000E+04  0.10000000000E+01 0.  0.
    9000001    1    1    2    0    0  0.56662749199E+03 -0.49708134670E+03  0.64561476455E+04  0.65000000000E+04  0.10000000000E+01 0.  0.
</event>
<event>
 4    1  0.2193160E-006  0.1300000E+05  0.7957747E-01  0.1322471E+00
    9000001   -1    0    0    0    0  0.00000000000E+00  0.00000000000E+00  0.64999999231E+04  0.65000000000E+04  0.10000000000E+01 0.  0.
    9000001   -1    0    0    0    0 -0.00000000000E+00 -0.00000000000E+00 -0.64999999231E+04  0.65000000000E+04  0.10000000000E+01 0.  0.
    9000001    1    1    2    0    0  0.13617378852E+04  0.57474804093E+04  0.27133259806E+04  0.65000000000E+04  0.10000000000E+01 0.  0.
    9000001    1    1    2    0    0 -0.13617378852E+04 -0.57474804093E+04 -0.27133259806E+04  0.65000000000E+04  0.10000000000E+01 0.  0.
</event>
<event>
 4    1  0.2193160E-006  0.1300000E+05  0.7957747E-01  0.1322471E+00
    9000001   -1    0    0    0    0  0.00000000000E+00  0.00000000000E+00  0.64999999231E+04  0.65000000000E+04  0.10000000000E+01 0.  0.
    9000001   -1    0    0    0    0 -0.00000000000E+00 -0.00000000000E+00 -0.64999999231E+04  0.65000000000E+04  0.10000000000E+01 0.  0.
    9000001    1    1    2    0    0 -0.48524922546E+04 -0.13737222751E+04 -0.41007566412E+04  0.65000000000E+04  0.10000000000E+01 0.  0.
    9000001    1    1    2    0    0  0.48524922546E+04  0.13737222751E+04  0.41007566412E+04  0.65000000000E+04  0.10000000000E+01 0.  0.
</event>
