<event>
 8    3  0.1508318E-003  0.1308751E+03  0.7818608E-02  0.1239247E+00
         -1   -1    0    0    0  501 -0.00000000000E+00  0.00000000000E+00  0.25160579137E+02  0.25160579642E+02  0.50400000000E-02 0.  1.
          1   -1    0    0  501    0  0.00000000000E+00 -0.00000000000E+00 -0.54812191115E+03  0.54812191118E+03  0.50400000000E-02 0. -1.
         25    2    1    2    0    0  0.32114727589E+02 -0.21750789035E+02 -0.34738365263E+03  0.37121920641E+03  0.12499537806E+03 0.  0.
         23    2    1    2    0    0 -0.32114727589E+02  0.21750789035E+02 -0.17557767938E+03  0.20206328441E+03  0.92182410781E+02 0.  0.
        -13    1    4    4    0    0  0.71617866906E+01  0.46343260471E+02 -0.51685810938E+02  0.69788417349E+02  0.10566000000E+00 0. -1.
         13    1    4    4    0    0 -0.39276514280E+02 -0.24592471436E+02 -0.12389186845E+03  0.13227486706E+03  0.10566000000E+00 0.  1.
    9000005    1    3    3    0    0 -0.40054438877E+02 -0.39019861846E+02 -0.13012048954E+03  0.14163067990E+03  0.10000000000E+01 0.  0.
    9000005    1    3    3    0    0  0.72169166466E+02  0.17269072810E+02 -0.21726316310E+03  0.22958852651E+03  0.10000000000E+01 0.  0.
<mgrwt>
<rscale>  0 0.12236408E+03</rscale>
<asrwt>0</asrwt>
<pdfrwt beam="2">  1        1 0.84326439E-01 0.13087512E+03</pdfrwt>
<pdfrwt beam="1">  1       -1 0.38708588E-02 0.13087512E+03</pdfrwt>
<totfact> 0.97991393E+03</totfact>
</mgrwt>
</event>
<event>
 8    3  0.1508318E-003  0.2328655E+03  0.7818608E-02  0.1127785E+00
         -1   -1    0    0    0  501 -0.00000000000E+00  0.00000000000E+00  0.80182547218E+02  0.80182547377E+02  0.50400000000E-02 0.  1.
          1   -1    0    0  501    0  0.00000000000E+00 -0.00000000000E+00 -0.11710085006E+04  0.11710085006E+04  0.50400000000E-02 0. -1.
         25    2    1    2    0    0  0.15365904984E+03  0.12242673660E+03 -0.13038324245E+03  0.26688222781E+03  0.12500769647E+03 0.  0.
         23    2    1    2    0    0 -0.15365904984E+03 -0.12242673660E+03 -0.96044271095E+03  0.98430882019E+03  0.88398207373E+02 0.  0.
        -13    1    4    4    0    0 -0.11595140654E+03 -0.65026247648E+02 -0.77981127778E+03  0.79106180648E+03  0.10566000000E+00 0. -1.
         13    1    4    4    0    0 -0.37707643298E+02 -0.57400488956E+02 -0.18063143317E+03  0.19324701371E+03  0.10566000000E+00 0.  1.
    9000005    1    3    3    0    0  0.17261009362E+03  0.12498074232E+03 -0.11401710017E+03  0.24169263435E+03  0.10000000000E+01 0.  0.
    9000005    1    3    3    0    0 -0.18951043780E+02 -0.25540057120E+01 -0.16366142279E+02  0.25189593459E+02  0.10000000000E+01 0.  0.
<mgrwt>
<rscale>  0 0.22838078E+03</rscale>
<asrwt>0</asrwt>
<pdfrwt beam="2">  1        1 0.18015514E+00 0.23286548E+03</pdfrwt>
<pdfrwt beam="1">  1       -1 0.12335777E-01 0.23286548E+03</pdfrwt>
<totfact> 0.53045915E+02</totfact>
</mgrwt>
</event>
<event>
 8    3  0.1508318E-003  0.1626856E+03  0.7818608E-02  0.1193026E+00
         -1   -1    0    0    0  501 -0.00000000000E+00  0.00000000000E+00  0.10161030418E+03  0.10161030430E+03  0.50400000000E-02 0.  1.
          1   -1    0    0  501    0  0.00000000000E+00 -0.00000000000E+00 -0.22946949329E+03  0.22946949335E+03  0.50400000000E-02 0. -1.
         25    2    1    2    0    0  0.10240494446E+03 -0.18807878156E+02 -0.41145909402E+02  0.16780814737E+03  0.12500431805E+03 0.  0.
         23    2    1    2    0    0 -0.10240494446E+03  0.18807878156E+02 -0.86713279712E+02  0.16327165029E+03  0.91092974360E+02 0.  0.
        -13    1    4    4    0    0 -0.97386031452E+02 -0.94284847521E+00 -0.28320203750E+02  0.10142471686E+03  0.10566000000E+00 0.  1.
         13    1    4    4    0    0 -0.50189130121E+01  0.19750726631E+02 -0.58393075962E+02  0.61846933429E+02  0.10566000000E+00 0. -1.
    9000005    1    3    3    0    0 -0.18924318757E+02 -0.33382071166E+02  0.13905781074E+01  0.38411277292E+02  0.10000000000E+01 0.  0.
    9000005    1    3    3    0    0  0.12132926322E+03  0.14574193010E+02 -0.42536487510E+02  0.12939687008E+03  0.10000000000E+01 0.  0.
<mgrwt>
<rscale>  0 0.15622483E+03</rscale>
<asrwt>0</asrwt>
<pdfrwt beam="2">  1        1 0.35302999E-01 0.16268555E+03</pdfrwt>
<pdfrwt beam="1">  1       -1 0.15632355E-01 0.16268555E+03</pdfrwt>
<totfact> 0.36030119E+03</totfact>
</mgrwt>
</event>
<event>
 8    3  0.1508318E-003  0.1989710E+03  0.7818608E-02  0.1154966E+00
          1   -1    0    0  501    0  0.00000000000E+00  0.00000000000E+00  0.21480011868E+04  0.21480011868E+04  0.50400000000E-02 0. -1.
         -1   -1    0    0    0  501 -0.00000000000E+00 -0.00000000000E+00 -0.18770903132E+02  0.18770903809E+02  0.50400000000E-02 0.  1.
         25    2    1    2    0    0  0.11846088285E+03 -0.99655347318E+02  0.75162962059E+03  0.77751948839E+03  0.12500119706E+03 0.  0.
         23    2    1    2    0    0 -0.11846088285E+03  0.99655347318E+02  0.13776006631E+04  0.13892526023E+04  0.90967229589E+02 0.  0.
        -13    1    4    4    0    0 -0.53832929420E+02  0.61369479022E+02  0.10491723124E+04  0.10523434560E+04  0.10566000000E+00 0.  1.
         13    1    4    4    0    0 -0.64627953428E+02  0.38285868297E+02  0.32842835075E+03  0.33690914623E+03  0.10566000000E+00 0. -1.
    9000005    1    3    3    0    0 -0.66452320641E+01 -0.46958364180E+02  0.35818641487E+03  0.36131392843E+03  0.10000000000E+01 0.  0.
    9000005    1    3    3    0    0  0.12510611491E+03 -0.52696983138E+02  0.39344320571E+03  0.41620555996E+03  0.10000000000E+01 0.  0.
<mgrwt>
<rscale>  0 0.19392795E+03</rscale>
<asrwt>0</asrwt>
<pdfrwt beam="1">  1        1 0.33046185E+00 0.19897102E+03</pdfrwt>
<pdfrwt beam="2">  1       -1 0.28878302E-02 0.19897102E+03</pdfrwt>
<totfact> 0.10859061E+03</totfact>
</mgrwt>
</event>
<event>
 8    3  0.1508318E-003  0.1256339E+03  0.7818608E-02  0.1249868E+00
          1   -1    0    0  501    0  0.00000000000E+00  0.00000000000E+00  0.90894006679E+02  0.90894006818E+02  0.50400000000E-02 0. -1.
         -1   -1    0    0    0  501 -0.00000000000E+00 -0.00000000000E+00 -0.12954320620E+03  0.12954320630E+03  0.50400000000E-02 0.  1.
         25    2    1    2    0    0  0.12468607516E+02 -0.17749004448E+01 -0.26021024016E+02  0.12830035379E+03  0.12500108258E+03 0.  0.
         23    2    1    2    0    0 -0.12468607516E+02  0.17749004448E+01 -0.12628175507E+02  0.92136859328E+02  0.90394212123E+02 0.  0.
        -13    1    4    4    0    0 -0.19483110222E+02 -0.41643648523E+02  0.13244575556E+01  0.45995112763E+02  0.10566000000E+00 0. -1.
         13    1    4    4    0    0  0.70145027054E+01  0.43418548968E+02 -0.13952633063E+02  0.46141746565E+02  0.10566000000E+00 0.  1.
    9000005    1    3    3    0    0  0.26005415544E+02  0.33152650809E+02  0.36271340597E+02  0.55605665557E+02  0.10000000000E+01 0.  0.
    9000005    1    3    3    0    0 -0.13536808028E+02 -0.34927551254E+02 -0.62292364613E+02  0.72694688233E+02  0.10000000000E+01 0.  0.
<mgrwt>
<rscale>  0 0.11598694E+03</rscale>
<asrwt>0</asrwt>
<pdfrwt beam="1">  1        1 0.13983693E-01 0.12563394E+03</pdfrwt>
<pdfrwt beam="2">  1       -1 0.19929724E-01 0.12563394E+03</pdfrwt>
<totfact> 0.77897221E+03</totfact>
</mgrwt>
</event>
<event>
 8    3  0.1508318E-003  0.1316455E+03  0.7818608E-02  0.1238072E+00
          1   -1    0    0  501    0  0.00000000000E+00  0.00000000000E+00  0.43865262682E+02  0.43865262971E+02  0.50400000000E-02 0. -1.
         -1   -1    0    0    0  501 -0.00000000000E+00 -0.00000000000E+00 -0.30845918708E+03  0.30845918712E+03  0.50400000000E-02 0.  1.
         25    2    1    2    0    0  0.41223880563E+02  0.21828348661E+01 -0.15951894182E+03  0.20682560541E+03  0.12500546050E+03 0.  0.
         23    2    1    2    0    0 -0.41223880563E+02 -0.21828348661E+01 -0.10507498258E+03  0.14549884469E+03  0.91787737444E+02 0.  0.
        -13    1    4    4    0    0 -0.28000484547E+02  0.16836035978E+02 -0.11554694497E+03  0.12007742044E+03  0.10566000000E+00 0.  1.
         13    1    4    4    0    0 -0.13223396016E+02 -0.19018870845E+02  0.10471962397E+02  0.25421424250E+02  0.10566000000E+00 0. -1.
    9000005    1    3    3    0    0 -0.34653521307E+02  0.96874534070E+01 -0.75222868747E+01  0.36773605919E+02  0.10000000000E+01 0.  0.
    9000005    1    3    3    0    0  0.75877401870E+02 -0.75046185409E+01 -0.15199665495E+03  0.17005199949E+03  0.10000000000E+01 0.  0.
<mgrwt>
<rscale>  0 0.12309806E+03</rscale>
<asrwt>0</asrwt>
<pdfrwt beam="1">  1        1 0.67485022E-02 0.13164550E+03</pdfrwt>
<pdfrwt beam="2">  1       -1 0.47455258E-01 0.13164550E+03</pdfrwt>
<totfact> 0.47382503E+03</totfact>
</mgrwt>
</event>
<event>
 8    3  0.1508318E-003  0.2503853E+03  0.7818608E-02  0.1115584E+00
         -1   -1    0    0    0  501 -0.00000000000E+00  0.00000000000E+00  0.16501138826E+03  0.16501138834E+03  0.50400000000E-02 0.  1.
          1   -1    0    0  501    0  0.00000000000E+00 -0.00000000000E+00 -0.37116524993E+03  0.37116524997E+03  0.50400000000E-02 0. -1.
         25    2    1    2    0    0  0.16464831228E+03 -0.14127648311E+03 -0.15888763157E+03  0.29654358359E+03  0.12499882434E+03 0.  0.
         23    2    1    2    0    0 -0.16464831228E+03  0.14127648311E+03 -0.47266230099E+02  0.23963305471E+03  0.90120990828E+02 0.  0.
        -13    1    4    4    0    0 -0.54953040255E+02  0.10385118419E+03 -0.10153120389E+02  0.11793219284E+03  0.10566000000E+00 0.  1.
         13    1    4    4    0    0 -0.10969527203E+03  0.37425298916E+02 -0.37113109710E+02  0.12170086187E+03  0.10566000000E+00 0. -1.
    9000005    1    3    3    0    0  0.53463590601E+02  0.20258795866E+01  0.27644598612E+01  0.53582664607E+02  0.10000000000E+01 0.  0.
    9000005    1    3    3    0    0  0.11118472168E+03 -0.14330236269E+03 -0.16165209143E+03  0.24296091898E+03  0.10000000000E+01 0.  0.
<mgrwt>
<rscale>  0 0.24642747E+03</rscale>
<asrwt>0</asrwt>
<pdfrwt beam="2">  1        1 0.57102346E-01 0.25038534E+03</pdfrwt>
<pdfrwt beam="1">  1       -1 0.25386368E-01 0.25038534E+03</pdfrwt>
<totfact> 0.90717748E+02</totfact>
</mgrwt>
</event>
<event>
 8    3  0.1508318E-003  0.1317368E+03  0.7818608E-02  0.1239548E+00
         -1   -1    0    0    0  501 -0.00000000000E+00  0.00000000000E+00  0.45686655867E+03  0.45686655870E+03  0.50400000000E-02 0.  1.
          1   -1    0    0  501    0  0.00000000000E+00 -0.00000000000E+00 -0.30385097381E+02  0.30385097799E+02  0.50400000000E-02 0. -1.
         25    2    1    2    0    0  0.11724629116E+02  0.39905037469E+02  0.29938965743E+03  0.32709136296E+03  0.12499885522E+03 0.  0.
         23    2    1    2    0    0 -0.11724629116E+02 -0.39905037469E+02  0.12709180386E+03  0.16016029354E+03  0.88142578096E+02 0.  0.
        -13    1    4    4    0    0 -0.20429901796E+01 -0.39673269460E+02  0.13914115784E+03  0.14470112331E+03  0.10566000000E+00 0.  1.
         13    1    4    4    0    0 -0.96816389366E+01 -0.23176800890E+00 -0.12049353974E+02  0.15459170228E+02  0.10566000000E+00 0. -1.
    9000005    1    3    3    0    0 -0.35672410540E+01  0.53165701655E+02  0.30199287785E+03  0.30665944517E+03  0.10000000000E+01 0.  0.
    9000005    1    3    3    0    0  0.15291870170E+02 -0.13260664186E+02 -0.26032204230E+01  0.20431917789E+02  0.10000000000E+01 0.  0.
<mgrwt>
<rscale>  0 0.12217718E+03</rscale>
<asrwt>0</asrwt>
<pdfrwt beam="2">  1        1 0.46746305E-02 0.13173683E+03</pdfrwt>
<pdfrwt beam="1">  1       -1 0.70287162E-01 0.13173683E+03</pdfrwt>
<totfact> 0.37247097E+03</totfact>
</mgrwt>
</event>
<event>
 8    3  0.1508318E-003  0.2364104E+03  0.7818608E-02  0.1124664E+00
         -1   -1    0    0    0  501 -0.00000000000E+00  0.00000000000E+00  0.53967458126E+02  0.53967458361E+02  0.50400000000E-02 0.  1.
          1   -1    0    0  501    0  0.00000000000E+00 -0.00000000000E+00 -0.12603342609E+04  0.12603342609E+04  0.50400000000E-02 0. -1.
         25    2    1    2    0    0  0.17744737263E+03 -0.93685688400E+02 -0.30496749250E+03  0.38586919920E+03  0.12500115659E+03 0.  0.
         23    2    1    2    0    0 -0.17744737263E+03  0.93685688400E+02 -0.90139931026E+03  0.92843252006E+03  0.95925228656E+02 0.  0.
        -13    1    4    4    0    0 -0.13745402877E+03  0.93797351090E+02 -0.54614905656E+03  0.57093813697E+03  0.10566000000E+00 0.  1.
         13    1    4    4    0    0 -0.39993343859E+02 -0.11166269044E+00 -0.35525025370E+03  0.35749438309E+03  0.10566000000E+00 0. -1.
    9000005    1    3    3    0    0  0.18048924617E+03 -0.56419978169E+02 -0.20385340595E+03  0.27805897402E+03  0.10000000000E+01 0.  0.
    9000005    1    3    3    0    0 -0.30418735429E+01 -0.37265710231E+02 -0.10111408655E+03  0.10781022517E+03  0.10000000000E+01 0.  0.
<mgrwt>
<rscale>  0 0.23282977E+03</rscale>
<asrwt>0</asrwt>
<pdfrwt beam="2">  1        1 0.19389756E+00 0.23641038E+03</pdfrwt>
<pdfrwt beam="1">  1       -1 0.83026868E-02 0.23641038E+03</pdfrwt>
<totfact> 0.84841915E+02</totfact>
</mgrwt>
</event>
<event>
 8    3  0.1508318E-003  0.1568048E+03  0.7818608E-02  0.1200639E+00
          1   -1    0    0  501    0  0.00000000000E+00  0.00000000000E+00  0.13534619231E+03  0.13534619240E+03  0.50400000000E-02 0. -1.
         -1   -1    0    0    0  501 -0.00000000000E+00 -0.00000000000E+00 -0.16193391103E+03  0.16193391111E+03  0.50400000000E-02 0.  1.
         25    2    1    2    0    0  0.37608656626E+02 -0.86883110766E+02  0.20694681418E+02  0.15816448869E+03  0.12499859861E+03 0.  0.
         23    2    1    2    0    0 -0.37608656626E+02  0.86883110766E+02 -0.47282400138E+02  0.13911561482E+03  0.90301954207E+02 0.  0.
        -13    1    4    4    0    0  0.36194677343E+01  0.88613128947E+02 -0.39668765262E+02  0.97154563815E+02  0.10566000000E+00 0. -1.
         13    1    4    4    0    0 -0.41228124361E+02 -0.17300181817E+01 -0.76136348751E+01  0.41961051003E+02  0.10566000000E+00 0.  1.
    9000005    1    3    3    0    0  0.15285306092E+02 -0.40930243842E+02 -0.52870276387E+02  0.68594398959E+02  0.10000000000E+01 0.  0.
    9000005    1    3    3    0    0  0.22323350535E+02 -0.45952866923E+02  0.73564957805E+02  0.89570089731E+02  0.10000000000E+01 0.  0.
<mgrwt>
<rscale>  0 0.14986478E+03</rscale>
<asrwt>0</asrwt>
<pdfrwt beam="1">  1        1 0.20822491E-01 0.15680477E+03</pdfrwt>
<pdfrwt beam="2">  1       -1 0.24912909E-01 0.15680477E+03</pdfrwt>
<totfact> 0.32956478E+03</totfact>
</mgrwt>
</event>
<event>
 8    3  0.1508318E-003  0.1453384E+03  0.7818608E-02  0.1215972E+00
          1   -1    0    0  501    0  0.00000000000E+00  0.00000000000E+00  0.11724232721E+04  0.11724232721E+04  0.50400000000E-02 0. -1.
         -1   -1    0    0    0  501 -0.00000000000E+00 -0.00000000000E+00 -0.14843223596E+02  0.14843224451E+02  0.50400000000E-02 0.  1.
         25    2    1    2    0    0  0.97474090832E+01 -0.73504037930E+02  0.61615028846E+03  0.63305957215E+03  0.12500155337E+03 0.  0.
         23    2    1    2    0    0 -0.97474090832E+01  0.73504037930E+02  0.54142976007E+03  0.55420692444E+03  0.92202355877E+02 0.  0.
        -13    1    4    4    0    0  0.37169496420E+02  0.19650457514E+02  0.13018721183E+03  0.13680801596E+03  0.10566000000E+00 0.  1.
         13    1    4    4    0    0 -0.46916905504E+02  0.53853580416E+02  0.41124254824E+03  0.41739890847E+03  0.10566000000E+00 0. -1.
    9000005    1    3    3    0    0  0.33232167964E+02 -0.89612749825E+02  0.57569514111E+03  0.58357580263E+03  0.10000000000E+01 0.  0.
    9000005    1    3    3    0    0 -0.23484758881E+02  0.16108711895E+02  0.40455147346E+02  0.49483769515E+02  0.10000000000E+01 0.  0.
<mgrwt>
<rscale>  0 0.13805364E+03</rscale>
<asrwt>0</asrwt>
<pdfrwt beam="1">  1        1 0.18037278E+00 0.14533838E+03</pdfrwt>
<pdfrwt beam="2">  1       -1 0.22835733E-02 0.14533838E+03</pdfrwt>
<totfact> 0.66036299E+03</totfact>
</mgrwt>
</event>
<event>
 8    3  0.1508318E-003  0.1272037E+03  0.7818608E-02  0.1244574E+00
          1   -1    0    0  501    0  0.00000000000E+00  0.00000000000E+00  0.42606223672E+02  0.42606223970E+02  0.50400000000E-02 0. -1.
         -1   -1    0    0    0  501 -0.00000000000E+00 -0.00000000000E+00 -0.38444526316E+03  0.38444526319E+03  0.50400000000E-02 0.  1.
         25    2    1    2    0    0  0.48947622671E+01 -0.23174052319E+02 -0.87039434600E+02  0.15413193434E+03  0.12497917670E+03 0.  0.
         23    2    1    2    0    0 -0.48947622671E+01  0.23174052319E+02 -0.25479960488E+03  0.27291955282E+03  0.94874908513E+02 0.  0.
        -13    1    4    4    0    0  0.27792049578E+02 -0.24929119086E-01 -0.21373901132E+03  0.21553833712E+03  0.10566000000E+00 0.  1.
         13    1    4    4    0    0 -0.32686811845E+02  0.23198981438E+02 -0.41060593559E+02  0.57381215705E+02  0.10566000000E+00 0. -1.
    9000005    1    3    3    0    0 -0.13755079018E+02  0.32550511191E+02  0.13363228775E+02  0.37793039847E+02  0.10000000000E+01 0.  0.
    9000005    1    3    3    0    0  0.18649841285E+02 -0.55724563510E+02 -0.10040266337E+03  0.11633889449E+03  0.10000000000E+01 0.  0.
<mgrwt>
<rscale>  0 0.11910908E+03</rscale>
<asrwt>0</asrwt>
<pdfrwt beam="1">  1        1 0.65548039E-02 0.12720373E+03</pdfrwt>
<pdfrwt beam="2">  1       -1 0.59145423E-01 0.12720373E+03</pdfrwt>
<totfact> 0.32750706E+03</totfact>
</mgrwt>
</event>
<event>
 8    3  0.1508318E-003  0.1558602E+03  0.7818608E-02  0.1201430E+00
         -1   -1    0    0    0  501 -0.00000000000E+00  0.00000000000E+00  0.76692569754E+02  0.76692569920E+02  0.50400000000E-02 0.  1.
          1   -1    0    0  501    0  0.00000000000E+00 -0.00000000000E+00 -0.31337590992E+03  0.31337590996E+03  0.50400000000E-02 0. -1.
         25    2    1    2    0    0  0.73448309631E+02  0.57202924167E+02 -0.53296769608E+02  0.16472078230E+03  0.12500224698E+03 0.  0.
         23    2    1    2    0    0 -0.73448309631E+02 -0.57202924167E+02 -0.18338657056E+03  0.22534769758E+03  0.92109292807E+02 0.  0.
        -13    1    4    4    0    0 -0.31492865614E+02  0.17306415062E+02 -0.98535212999E+02  0.10488332542E+03  0.10566000000E+00 0.  1.
         13    1    4    4    0    0 -0.41955444016E+02 -0.74509339230E+02 -0.84851357561E+02  0.12046437216E+03  0.10566000000E+00 0. -1.
    9000005    1    3    3    0    0  0.49757653658E+02  0.62606088065E+02 -0.90183827386E+02  0.12053824738E+03  0.10000000000E+01 0.  0.
    9000005    1    3    3    0    0  0.23690655973E+02 -0.54031638971E+01  0.36887057777E+02  0.44182534920E+02  0.10000000000E+01 0.  0.
<mgrwt>
<rscale>  0 0.14922355E+03</rscale>
<asrwt>0</asrwt>
<pdfrwt beam="2">  1        1 0.48211678E-01 0.15586016E+03</pdfrwt>
<pdfrwt beam="1">  1       -1 0.11798857E-01 0.15586016E+03</pdfrwt>
<totfact> 0.37883312E+03</totfact>
</mgrwt>
</event>
<event>
 8    3  0.1508318E-003  0.2032639E+03  0.7818608E-02  0.1150928E+00
         -1   -1    0    0    0  501 -0.00000000000E+00  0.00000000000E+00  0.44790431481E+03  0.44790431484E+03  0.50400000000E-02 0.  1.
          1   -1    0    0  501    0  0.00000000000E+00 -0.00000000000E+00 -0.97655799257E+02  0.97655799387E+02  0.50400000000E-02 0. -1.
         25    2    1    2    0    0  0.12319455310E+03 -0.10254029827E+03  0.28314487438E+03  0.34855018104E+03  0.12499919254E+03 0.  0.
         23    2    1    2    0    0 -0.12319455310E+03  0.10254029827E+03  0.67103641179E+02  0.19700993319E+03  0.92836439139E+02 0.  0.
        -13    1    4    4    0    0 -0.10274204770E+03  0.45446882303E+02  0.76109994369E+02  0.13569852572E+03  0.10566000000E+00 0.  1.
         13    1    4    4    0    0 -0.20452505407E+02  0.57093415962E+02 -0.90063531898E+01  0.61311407466E+02  0.10566000000E+00 0. -1.
    9000005    1    3    3    0    0  0.13810623412E+03 -0.11516769634E+03  0.23024770560E+03  0.29215053674E+03  0.10000000000E+01 0.  0.
    9000005    1    3    3    0    0 -0.14911681016E+02  0.12627398077E+02  0.52897168779E+02  0.56399644305E+02  0.10000000000E+01 0.  0.
<mgrwt>
<rscale>  0 0.19859705E+03</rscale>
<asrwt>0</asrwt>
<pdfrwt beam="2">  1        1 0.15023969E-01 0.20326389E+03</pdfrwt>
<pdfrwt beam="1">  1       -1 0.68908356E-01 0.20326389E+03</pdfrwt>
<totfact> 0.82061985E+02</totfact>
</mgrwt>
</event>
<event>
 8    3  0.1508318E-003  0.1265033E+03  0.7818608E-02  0.1247539E+00
         -1   -1    0    0    0  501 -0.00000000000E+00  0.00000000000E+00  0.84048224028E+03  0.84048224030E+03  0.50400000000E-02 0.  1.
          1   -1    0    0  501    0  0.00000000000E+00 -0.00000000000E+00 -0.14834134734E+02  0.14834135590E+02  0.50400000000E-02 0. -1.
         25    2    1    2    0    0  0.19081247183E+02  0.36418126991E+01  0.40187970903E+03  0.42131982034E+03  0.12500293471E+03 0.  0.
         23    2    1    2    0    0 -0.19081247183E+02 -0.36418126991E+01  0.42376839652E+03  0.43399655555E+03  0.91629687048E+02 0.  0.
        -13    1    4    4    0    0 -0.27514190372E+02  0.41519305685E+01  0.42134174543E+03  0.42225957278E+03  0.10566000000E+00 0.  1.
         13    1    4    4    0    0  0.84329431886E+01 -0.77937432676E+01  0.24266510853E+01  0.11736982767E+02  0.10566000000E+00 0. -1.
    9000005    1    3    3    0    0 -0.29775014868E+01 -0.58160544761E+02  0.23211007602E+03  0.23930650195E+03  0.10000000000E+01 0.  0.
    9000005    1    3    3    0    0  0.22058748670E+02  0.61802357460E+02  0.16976963301E+03  0.18201331839E+03  0.10000000000E+01 0.  0.
<mgrwt>
<rscale>  0 0.11734705E+03</rscale>
<asrwt>0</asrwt>
<pdfrwt beam="2">  1        1 0.22821746E-02 0.12650332E+03</pdfrwt>
<pdfrwt beam="1">  1       -1 0.12930496E+00 0.12650332E+03</pdfrwt>
<totfact> 0.26597601E+03</totfact>
</mgrwt>
</event>
<event>
 8    3  0.1508318E-003  0.1301239E+03  0.7818608E-02  0.1239508E+00
          1   -1    0    0  501    0  0.00000000000E+00  0.00000000000E+00  0.45833627239E+02  0.45833627516E+02  0.50400000000E-02 0. -1.
         -1   -1    0    0    0  501 -0.00000000000E+00 -0.00000000000E+00 -0.30155708431E+03  0.30155708435E+03  0.50400000000E-02 0.  1.
         25    2    1    2    0    0  0.28012872073E+02 -0.22833134606E+02 -0.11249821840E+03  0.17201188661E+03  0.12500466772E+03 0.  0.
         23    2    1    2    0    0 -0.28012872073E+02  0.22833134606E+02 -0.14322523867E+03  0.17537882526E+03  0.94542002946E+02 0.  0.
        -13    1    4    4    0    0 -0.38607835669E+01  0.27080090636E+02 -0.14790517167E+03  0.15041339012E+03  0.10566000000E+00 0.  1.
         13    1    4    4    0    0 -0.24152088506E+02 -0.42469560300E+01  0.46799329991E+01  0.24965435138E+02  0.10566000000E+00 0. -1.
    9000005    1    3    3    0    0 -0.47279551426E+02 -0.48182196752E+01 -0.20492376395E+02  0.51763971198E+02  0.10000000000E+01 0.  0.
    9000005    1    3    3    0    0  0.75292423499E+02 -0.18014914931E+02 -0.92005842009E+02  0.12024791541E+03  0.10000000000E+01 0.  0.
<mgrwt>
<rscale>  0 0.12220191E+03</rscale>
<asrwt>0</asrwt>
<pdfrwt beam="1">  1        1 0.70513275E-02 0.13012394E+03</pdfrwt>
<pdfrwt beam="2">  1       -1 0.46393396E-01 0.13012394E+03</pdfrwt>
<totfact> 0.46480141E+03</totfact>
</mgrwt>
</event>
<event>
 8    3  0.1508318E-003  0.1324592E+03  0.7818608E-02  0.1236427E+00
          1   -1    0    0  501    0  0.00000000000E+00  0.00000000000E+00  0.19116420382E+03  0.19116420389E+03  0.50400000000E-02 0. -1.
         -1   -1    0    0    0  501 -0.00000000000E+00 -0.00000000000E+00 -0.82621607885E+02  0.82621608039E+02  0.50400000000E-02 0.  1.
         25    2    1    2    0    0  0.15639106401E+02 -0.40936407015E+02  0.11639606999E+02  0.13296958010E+03  0.12500023085E+03 0.  0.
         23    2    1    2    0    0 -0.15639106401E+02  0.40936407015E+02  0.96902988938E+02  0.14081623183E+03  0.92296537386E+02 0.  0.
        -13    1    4    4    0    0 -0.19940231255E+02 -0.27001416946E+02  0.38921777614E+02  0.51396549264E+02  0.10566000000E+00 0. -1.
         13    1    4    4    0    0  0.43011248535E+01  0.67937823961E+02  0.57981211323E+02  0.89419682565E+02  0.10566000000E+00 0.  1.
    9000005    1    3    3    0    0  0.40825728796E+01 -0.52017580617E+02  0.61461414868E+02  0.80628788979E+02  0.10000000000E+01 0.  0.
    9000005    1    3    3    0    0  0.11556533522E+02  0.11081173602E+02 -0.49821807870E+02  0.52340791118E+02  0.10000000000E+01 0.  0.
<mgrwt>
<rscale>  0 0.12413492E+03</rscale>
<asrwt>0</asrwt>
<pdfrwt beam="1">  1        1 0.29409877E-01 0.13245916E+03</pdfrwt>
<pdfrwt beam="2">  1       -1 0.12711017E-01 0.13245916E+03</pdfrwt>
<totfact> 0.61762759E+03</totfact>
</mgrwt>
</event>
<event>
 8    3  0.1508318E-003  0.1494204E+03  0.7818608E-02  0.1219539E+00
         -1   -1    0    0    0  501 -0.00000000000E+00  0.00000000000E+00  0.25299649758E+02  0.25299650260E+02  0.50400000000E-02 0.  1.
          1   -1    0    0  501    0  0.00000000000E+00 -0.00000000000E+00 -0.65392932740E+03  0.65392932742E+03  0.50400000000E-02 0. -1.
         25    2    1    2    0    0  0.91558181101E+01  0.81349896245E+02 -0.29555670238E+03  0.33118003089E+03  0.12499925565E+03 0.  0.
         23    2    1    2    0    0 -0.91558181101E+01 -0.81349896245E+02 -0.33307297526E+03  0.34804894679E+03  0.59150890842E+02 0.  0.
        -13    1    4    4    0    0 -0.31869788151E+02 -0.26700822790E+02 -0.12579443831E+03  0.13248724168E+03  0.10566000000E+00 0.  1.
         13    1    4    4    0    0  0.22713970041E+02 -0.54649073455E+02 -0.20727853695E+03  0.21556170511E+03  0.10566000000E+00 0. -1.
    9000005    1    3    3    0    0 -0.19928948349E+02 -0.19798565962E+01 -0.20035739555E+03  0.20135830940E+03  0.10000000000E+01 0.  0.
    9000005    1    3    3    0    0  0.29084766459E+02  0.83329752842E+02 -0.95199306834E+02  0.12982172149E+03  0.10000000000E+01 0.  0.
<mgrwt>
<rscale>  0 0.13548301E+03</rscale>
<asrwt>0</asrwt>
<pdfrwt beam="2">  1        1 0.10060450E+00 0.14942038E+03</pdfrwt>
<pdfrwt beam="1">  1       -1 0.38922543E-02 0.14942038E+03</pdfrwt>
<totfact> 0.77056931E+03</totfact>
</mgrwt>
</event>
<event>
 8    3  0.1508318E-003  0.1482161E+03  0.7818608E-02  0.1211725E+00
          1   -1    0    0  501    0  0.00000000000E+00  0.00000000000E+00  0.21380192449E+03  0.21380192455E+03  0.50400000000E-02 0. -1.
         -1   -1    0    0    0  501 -0.00000000000E+00 -0.00000000000E+00 -0.10345759662E+03  0.10345759674E+03  0.50400000000E-02 0.  1.
         25    2    1    2    0    0 -0.61215666368E+02  0.50936456481E+02 -0.63866037446E+01  0.14835359200E+03  0.12500447650E+03 0.  0.
         23    2    1    2    0    0  0.61215666368E+02 -0.50936456481E+02  0.11673093161E+03  0.16890592929E+03  0.92526872563E+02 0.  0.
        -13    1    4    4    0    0  0.38564128411E+02 -0.13680272219E+01 -0.16066349187E+01  0.38621961866E+02  0.10566000000E+00 0.  1.
         13    1    4    4    0    0  0.22651537957E+02 -0.49568429259E+02  0.11833756653E+03  0.13028396743E+03  0.10566000000E+00 0. -1.
    9000005    1    3    3    0    0 -0.49758946754E+02 -0.27467066814E+02 -0.31800320129E+02  0.65135650007E+02  0.10000000000E+01 0.  0.
    9000005    1    3    3    0    0 -0.11456719614E+02  0.78403523295E+02  0.25413716385E+02  0.83217941995E+02  0.10000000000E+01 0.  0.
<mgrwt>
<rscale>  0 0.14119881E+03</rscale>
<asrwt>0</asrwt>
<pdfrwt beam="1">  1        1 0.32892604E-01 0.14821606E+03</pdfrwt>
<pdfrwt beam="2">  1       -1 0.15916553E-01 0.14821606E+03</pdfrwt>
<totfact> 0.38064565E+03</totfact>
</mgrwt>
</event>
<event>
 8    3  0.1508318E-003  0.1398341E+03  0.7818608E-02  0.1224704E+00
         -1   -1    0    0    0  501 -0.00000000000E+00  0.00000000000E+00  0.17108665935E+02  0.17108666677E+02  0.50400000000E-02 0.  1.
          1   -1    0    0  501    0  0.00000000000E+00 -0.00000000000E+00 -0.10528497440E+04  0.10528497440E+04  0.50400000000E-02 0. -1.
         25    2    1    2    0    0  0.62557591805E+02  0.38792512015E+01 -0.37909502496E+03  0.40406265241E+03  0.12500035297E+03 0.  0.
         23    2    1    2    0    0 -0.62557591805E+02 -0.38792512015E+01 -0.65664605306E+03  0.66589575823E+03  0.91129693033E+02 0.  0.
        -13    1    4    4    0    0 -0.25745466914E+02  0.23138265756E+02 -0.53240514427E+03  0.53352924682E+03  0.10566000000E+00 0. -1.
         13    1    4    4    0    0 -0.36812124891E+02 -0.27017516957E+02 -0.12424090879E+03  0.13236651141E+03  0.10566000000E+00 0.  1.
    9000005    1    3    3    0    0  0.30732466508E+02  0.52160581056E+02 -0.30016653037E+03  0.30621260044E+03  0.10000000000E+01 0.  0.
    9000005    1    3    3    0    0  0.31825125297E+02 -0.48281329855E+02 -0.78928494596E+02  0.97850051977E+02  0.10000000000E+01 0.  0.
<mgrwt>
<rscale>  0 0.13187185E+03</rscale>
<asrwt>0</asrwt>
<pdfrwt beam="2">  1        1 0.16197683E+00 0.13983415E+03</pdfrwt>
<pdfrwt beam="1">  1       -1 0.26321033E-02 0.13983415E+03</pdfrwt>
<totfact> 0.65112678E+03</totfact>
</mgrwt>
</event>
<event>
 8    3  0.1508318E-003  0.1589619E+03  0.7818608E-02  0.1198041E+00
          1   -1    0    0  501    0  0.00000000000E+00  0.00000000000E+00  0.30142602537E+03  0.30142602541E+03  0.50400000000E-02 0. -1.
         -1   -1    0    0    0  501 -0.00000000000E+00 -0.00000000000E+00 -0.10007058377E+03  0.10007058390E+03  0.50400000000E-02 0.  1.
         25    2    1    2    0    0  0.60264298223E+02  0.77539198700E+02 -0.15306613530E+01  0.15896923914E+03  0.12499905237E+03 0.  0.
         23    2    1    2    0    0 -0.60264298223E+02 -0.77539198700E+02  0.20288610295E+03  0.24252737017E+03  0.89513359537E+02 0.  0.
        -13    1    4    4    0    0  0.10012369750E+02  0.13622579705E+02  0.36278975117E+02  0.40024960030E+02  0.10566000000E+00 0.  1.
         13    1    4    4    0    0 -0.70276667973E+02 -0.91161778404E+02  0.16660712784E+03  0.20250241014E+03  0.10566000000E+00 0. -1.
    9000005    1    3    3    0    0 -0.35828979446E+02  0.15199084259E+02 -0.18616081162E+02  0.43154216576E+02  0.10000000000E+01 0.  0.
    9000005    1    3    3    0    0  0.96093277669E+02  0.62340114440E+02  0.17085419809E+02  0.11581502256E+03  0.10000000000E+01 0.  0.
<mgrwt>
<rscale>  0 0.15199650E+03</rscale>
<asrwt>0</asrwt>
<pdfrwt beam="1">  1        1 0.46373234E-01 0.15896187E+03</pdfrwt>
<pdfrwt beam="2">  1       -1 0.15395475E-01 0.15896187E+03</pdfrwt>
<totfact> 0.26269911E+03</totfact>
</mgrwt>
</event>
<event>
 8    3  0.1508318E-003  0.1526919E+03  0.7818608E-02  0.1205953E+00
         -1   -1    0    0    0  501 -0.00000000000E+00  0.00000000000E+00  0.12103823708E+02  0.12103824757E+02  0.50400000000E-02 0.  1.
          1   -1    0    0  501    0  0.00000000000E+00 -0.00000000000E+00 -0.16180096204E+04  0.16180096204E+04  0.50400000000E-02 0. -1.
         25    2    1    2    0    0 -0.72247477029E+02 -0.49701443061E+02 -0.94200376890E+03  0.95429865118E+03  0.12499953455E+03 0.  0.
         23    2    1    2    0    0  0.72247477029E+02  0.49701443061E+02 -0.66390202775E+03  0.67581479395E+03  0.90938451093E+02 0.  0.
        -13    1    4    4    0    0  0.14876645558E+02 -0.53452577068E+01 -0.14149346928E+02  0.21215596752E+02  0.10566000000E+00 0.  1.
         13    1    4    4    0    0  0.57370831471E+02  0.55046700768E+02 -0.64975268082E+03  0.65459919719E+03  0.10566000000E+00 0. -1.
    9000005    1    3    3    0    0  0.31782187213E+02  0.77445242399E+01 -0.25503298843E+03  0.25712430898E+03  0.10000000000E+01 0.  0.
    9000005    1    3    3    0    0 -0.10402966424E+03 -0.57445967301E+02 -0.68697078047E+03  0.69717434220E+03  0.10000000000E+01 0.  0.
<mgrwt>
<rscale>  0 0.14562643E+03</rscale>
<asrwt>0</asrwt>
<pdfrwt beam="2">  1        1 0.24892439E+00 0.15269190E+03</pdfrwt>
<pdfrwt beam="1">  1       -1 0.18621281E-02 0.15269190E+03</pdfrwt>
<totfact> 0.45045056E+03</totfact>
</mgrwt>
</event>
<event>
 8    3  0.1508318E-003  0.1289900E+03  0.7818608E-02  0.1243438E+00
         -1   -1    0    0    0  501 -0.00000000000E+00  0.00000000000E+00  0.21165500077E+03  0.21165500083E+03  0.50400000000E-02 0.  1.
          1   -1    0    0  501    0  0.00000000000E+00 -0.00000000000E+00 -0.87694353187E+02  0.87694353332E+02  0.50400000000E-02 0. -1.
         25    2    1    2    0    0  0.10698148610E+02 -0.29957818261E+02 -0.15657855041E+02  0.12993686575E+03  0.12500599744E+03 0.  0.
         23    2    1    2    0    0 -0.10698148610E+02  0.29957818261E+02  0.13961850263E+03  0.16941248842E+03  0.90528137600E+02 0.  0.
        -13    1    4    4    0    0 -0.22248568941E+02 -0.25135598970E+02  0.25463903069E+02  0.42133344029E+02  0.10566000000E+00 0.  1.
         13    1    4    4    0    0  0.11550420332E+02  0.55093417231E+02  0.11415459956E+03  0.12727914439E+03  0.10566000000E+00 0. -1.
    9000005    1    3    3    0    0  0.53891425529E+02  0.24579818203E+02 -0.10545328903E+02  0.60171896847E+02  0.10000000000E+01 0.  0.
    9000005    1    3    3    0    0 -0.43193276919E+02 -0.54537636464E+02 -0.51125261380E+01  0.69764968900E+02  0.10000000000E+01 0.  0.
<mgrwt>
<rscale>  0 0.11979353E+03</rscale>
<asrwt>0</asrwt>
<pdfrwt beam="2">  1        1 0.13491439E-01 0.12899000E+03</pdfrwt>
<pdfrwt beam="1">  1       -1 0.32562308E-01 0.12899000E+03</pdfrwt>
<totfact> 0.36450043E+03</totfact>
</mgrwt>
</event>
<event>
 8    3  0.1508318E-003  0.1307273E+03  0.7818608E-02  0.1238015E+00
          1   -1    0    0  501    0  0.00000000000E+00  0.00000000000E+00  0.80660330436E+03  0.80660330438E+03  0.50400000000E-02 0. -1.
         -1   -1    0    0    0  501 -0.00000000000E+00 -0.00000000000E+00 -0.18001950335E+02  0.18001951040E+02  0.50400000000E-02 0.  1.
         25    2    1    2    0    0  0.38121391014E+02 -0.35329489638E+01  0.33789599409E+03  0.36230283273E+03  0.12499567031E+03 0.  0.
         23    2    1    2    0    0 -0.38121391014E+02  0.35329489638E+01  0.45070535993E+03  0.46230242269E+03  0.95511708029E+02 0.  0.
        -13    1    4    4    0    0 -0.46810563774E+02  0.30685901755E+02  0.14755226545E+03  0.15781170949E+03  0.10566000000E+00 0.  1.
         13    1    4    4    0    0  0.86891727604E+01 -0.27152952791E+02  0.30315309448E+03  0.30449071320E+03  0.10566000000E+00 0. -1.
    9000005    1    3    3    0    0 -0.27236395208E+02  0.87669260894E+01  0.14414224218E+02  0.32053862120E+02  0.10000000000E+01 0.  0.
    9000005    1    3    3    0    0  0.65357786222E+02 -0.12299875053E+02  0.32348176988E+03  0.33024897061E+03  0.10000000000E+01 0.  0.
<mgrwt>
<rscale>  0 0.12313390E+03</rscale>
<asrwt>0</asrwt>
<pdfrwt beam="1">  1        1 0.12409279E+00 0.13072735E+03</pdfrwt>
<pdfrwt beam="2">  1       -1 0.27695314E-02 0.13072735E+03</pdfrwt>
<totfact> 0.92679565E+03</totfact>
</mgrwt>
</event>
<event>
 8    3  0.1508318E-003  0.1268171E+03  0.7818608E-02  0.1247536E+00
         -1   -1    0    0    0  501 -0.00000000000E+00  0.00000000000E+00  0.67645322590E+02  0.67645322778E+02  0.50400000000E-02 0.  1.
          1   -1    0    0  501    0  0.00000000000E+00 -0.00000000000E+00 -0.24736197335E+03  0.24736197340E+03  0.50400000000E-02 0. -1.
         25    2    1    2    0    0 -0.17807460088E+02 -0.11801868043E+02 -0.17479993146E+02  0.12801610536E+03  0.12500473330E+03 0.  0.
         23    2    1    2    0    0  0.17807460088E+02  0.11801868043E+02 -0.16223665761E+03  0.18699119081E+03  0.90490787620E+02 0.  0.
        -13    1    4    4    0    0  0.43576702137E+01 -0.31107456540E+02 -0.18656790923E+02  0.36534232627E+02  0.10566000000E+00 0.  1.
         13    1    4    4    0    0  0.13449789874E+02  0.42909324583E+02 -0.14357986669E+03  0.15045695818E+03  0.10566000000E+00 0. -1.
    9000005    1    3    3    0    0 -0.20119829574E+02 -0.65857110902E+02 -0.25239940332E+02  0.73348627706E+02  0.10000000000E+01 0.  0.
    9000005    1    3    3    0    0  0.23123694865E+01  0.54055242859E+02  0.77599471860E+01  0.54667477658E+02  0.10000000000E+01 0.  0.
<mgrwt>
<rscale>  0 0.11734883E+03</rscale>
<asrwt>0</asrwt>
<pdfrwt beam="2">  1        1 0.38055688E-01 0.12681709E+03</pdfrwt>
<pdfrwt beam="1">  1       -1 0.10406973E-01 0.12681709E+03</pdfrwt>
<totfact> 0.60863976E+03</totfact>
</mgrwt>
</event>
<event>
 8    3  0.1508318E-003  0.4068944E+03  0.7818608E-02  0.1042209E+00
         -1   -1    0    0    0  501 -0.00000000000E+00  0.00000000000E+00  0.24246059540E+03  0.24246059545E+03  0.50400000000E-02 0.  1.
          1   -1    0    0  501    0  0.00000000000E+00 -0.00000000000E+00 -0.71046939750E+03  0.71046939751E+03  0.50400000000E-02 0. -1.
         25    2    1    2    0    0 -0.38126191676E+03  0.67653667388E+02 -0.35374780895E+03  0.53916655067E+03  0.12500155656E+03 0.  0.
         23    2    1    2    0    0  0.38126191676E+03 -0.67653667388E+02 -0.11426099314E+03  0.41376344230E+03  0.90592183701E+02 0.  0.
        -13    1    4    4    0    0  0.31335600219E+03 -0.71340721174E+02 -0.60374952649E+02  0.32699637410E+03  0.10566000000E+00 0. -1.
         13    1    4    4    0    0  0.67905914567E+02  0.36870537859E+01 -0.53886040492E+02  0.86767068192E+02  0.10566000000E+00 0.  1.
    9000005    1    3    3    0    0 -0.34533972687E+03  0.45919020181E+02 -0.25462105849E+03  0.43151010045E+03  0.10000000000E+01 0.  0.
    9000005    1    3    3    0    0 -0.35922189889E+02  0.21734647207E+02 -0.99126750468E+02  0.10765645022E+03  0.10000000000E+01 0.  0.
<mgrwt>
<rscale>  0 0.40456945E+03</rscale>
<asrwt>0</asrwt>
<pdfrwt beam="2">  1        1 0.10930298E+00 0.40689441E+03</pdfrwt>
<pdfrwt beam="1">  1       -1 0.37301630E-01 0.40689441E+03</pdfrwt>
<totfact> 0.19163945E+02</totfact>
</mgrwt>
</event>
<event>
 8    3  0.1508318E-003  0.1732841E+03  0.7818608E-02  0.1180538E+00
         -1   -1    0    0    0  501 -0.00000000000E+00  0.00000000000E+00  0.23463199832E+03  0.23463199837E+03  0.50400000000E-02 0.  1.
          1   -1    0    0  501    0  0.00000000000E+00 -0.00000000000E+00 -0.11978564805E+03  0.11978564815E+03  0.50400000000E-02 0. -1.
         25    2    1    2    0    0  0.88059142200E+02  0.81535399263E+02  0.10587379797E+03  0.20306807055E+03  0.12499978529E+03 0.  0.
         23    2    1    2    0    0 -0.88059142200E+02 -0.81535399263E+02  0.89725522960E+01  0.15134957598E+03  0.91781008906E+02 0.  0.
        -13    1    4    4    0    0 -0.10385829867E+03 -0.53232550511E+02  0.17048504919E+02  0.11794453493E+03  0.10566000000E+00 0.  1.
         13    1    4    4    0    0  0.15799156467E+02 -0.28302848752E+02 -0.80759526233E+01  0.33405041047E+02  0.10566000000E+00 0. -1.
    9000005    1    3    3    0    0  0.32743754963E+02  0.93947391870E+02  0.10732661804E+03  0.14634981677E+03  0.10000000000E+01 0.  0.
    9000005    1    3    3    0    0  0.55315387236E+02 -0.12411992607E+02 -0.14528200698E+01  0.56718253779E+02  0.10000000000E+01 0.  0.
<mgrwt>
<rscale>  0 0.16744540E+03</rscale>
<asrwt>0</asrwt>
<pdfrwt beam="2">  1        1 0.18428561E-01 0.17328410E+03</pdfrwt>
<pdfrwt beam="1">  1       -1 0.36097230E-01 0.17328410E+03</pdfrwt>
<totfact> 0.20684145E+03</totfact>
</mgrwt>
</event>
<event>
 8    3  0.1508318E-003  0.1290206E+03  0.7818608E-02  0.1241502E+00
         -1   -1    0    0    0  501 -0.00000000000E+00  0.00000000000E+00  0.80066491756E+01  0.80066507619E+01  0.50400000000E-02 0.  1.
          1   -1    0    0  501    0  0.00000000000E+00 -0.00000000000E+00 -0.16337736762E+04  0.16337736762E+04  0.50400000000E-02 0. -1.
         25    2    1    2    0    0  0.31710233446E+02 -0.40200484697E+01 -0.92377749005E+03  0.93274388596E+03  0.12499842391E+03 0.  0.
         23    2    1    2    0    0 -0.31710233446E+02  0.40200484697E+01 -0.70198953699E+03  0.70903644102E+03  0.94454565599E+02 0.  0.
        -13    1    4    4    0    0 -0.43144538593E+02  0.32880706121E+02 -0.59948528070E+03  0.60193455208E+03  0.10566000000E+00 0. -1.
         13    1    4    4    0    0  0.11434305147E+02 -0.28860657652E+02 -0.10250425629E+03  0.10710188894E+03  0.10566000000E+00 0.  1.
    9000005    1    3    3    0    0  0.26712581765E+02 -0.28108506078E+02 -0.89051812258E+03  0.89136253948E+03  0.10000000000E+01 0.  0.
    9000005    1    3    3    0    0  0.49976516818E+01  0.24088457609E+02 -0.33259367467E+02  0.41381346481E+02  0.10000000000E+01 0.  0.
<mgrwt>
<rscale>  0 0.12097228E+03</rscale>
<asrwt>0</asrwt>
<pdfrwt beam="2">  1        1 0.25134953E+00 0.12902056E+03</pdfrwt>
<pdfrwt beam="1">  1       -1 0.12317936E-02 0.12902056E+03</pdfrwt>
<totfact> 0.79243357E+03</totfact>
</mgrwt>
</event>
<event>
 8    3  0.1508318E-003  0.1305115E+03  0.7818608E-02  0.1240280E+00
          1   -1    0    0  501    0  0.00000000000E+00  0.00000000000E+00  0.67640386410E+03  0.67640386412E+03  0.50400000000E-02 0. -1.
         -1   -1    0    0    0  501 -0.00000000000E+00 -0.00000000000E+00 -0.20208261993E+02  0.20208262622E+02  0.50400000000E-02 0.  1.
         25    2    1    2    0    0  0.20719927577E+02 -0.31288861431E+02  0.30395623843E+03  0.33079092210E+03  0.12499972406E+03 0.  0.
         23    2    1    2    0    0 -0.20719927577E+02  0.31288861431E+02  0.35223936368E+03  0.36582120464E+03  0.91347009758E+02 0.  0.
        -13    1    4    4    0    0 -0.47455168434E+02  0.41617006037E+02  0.29651005726E+03  0.30315374552E+03  0.10566000000E+00 0.  1.
         13    1    4    4    0    0  0.26735240857E+02 -0.10328144606E+02  0.55729306414E+02  0.62667459116E+02  0.10566000000E+00 0. -1.
    9000005    1    3    3    0    0  0.21378699330E+02 -0.67586125790E+02  0.94106160398E+02  0.11782148620E+03  0.10000000000E+01 0.  0.
    9000005    1    3    3    0    0 -0.65877175255E+00  0.36297264358E+02  0.20985007803E+03  0.21296943591E+03  0.10000000000E+01 0.  0.
<mgrwt>
<rscale>  0 0.12172406E+03</rscale>
<asrwt>0</asrwt>
<pdfrwt beam="1">  1        1 0.10406214E+00 0.13051145E+03</pdfrwt>
<pdfrwt beam="2">  1       -1 0.31089632E-02 0.13051145E+03</pdfrwt>
<totfact> 0.10123875E+04</totfact>
</mgrwt>
</event>
<event>
 8    3  0.1508318E-003  0.1308717E+03  0.7818608E-02  0.1240313E+00
         -1   -1    0    0    0  501 -0.00000000000E+00  0.00000000000E+00  0.80061546923E+02  0.80061547082E+02  0.50400000000E-02 0.  1.
          1   -1    0    0  501    0  0.00000000000E+00 -0.00000000000E+00 -0.17094902927E+03  0.17094902935E+03  0.50400000000E-02 0. -1.
         25    2    1    2    0    0 -0.11006532265E+02 -0.37163066358E+02 -0.25582899959E+02  0.13334875366E+03  0.12500067231E+03 0.  0.
         23    2    1    2    0    0  0.11006532265E+02  0.37163066358E+02 -0.65304582393E+02  0.11766182277E+03  0.89874238816E+02 0.  0.
        -13    1    4    4    0    0  0.45336004438E+02  0.37848521070E+02 -0.23495953992E+02  0.63560481933E+02  0.10566000000E+00 0.  1.
         13    1    4    4    0    0 -0.34329472172E+02 -0.68545471167E+00 -0.41808628400E+02  0.54101340838E+02  0.10566000000E+00 0. -1.
    9000005    1    3    3    0    0 -0.23739476868E+02 -0.19177239523E+02 -0.74049678064E+02  0.80097965636E+02  0.10000000000E+01 0.  0.
    9000005    1    3    3    0    0  0.12732944603E+02 -0.17985826835E+02  0.48466778105E+02  0.53250788023E+02  0.10000000000E+01 0.  0.
<mgrwt>
<rscale>  0 0.12170344E+03</rscale>
<asrwt>0</asrwt>
<pdfrwt beam="2">  1        1 0.26299851E-01 0.13087171E+03</pdfrwt>
<pdfrwt beam="1">  1       -1 0.12317161E-01 0.13087171E+03</pdfrwt>
<totfact> 0.74474469E+03</totfact>
</mgrwt>
</event>
<event>
 8    3  0.1508318E-003  0.1405280E+03  0.7818608E-02  0.1223745E+00
         -1   -1    0    0    0  501 -0.00000000000E+00  0.00000000000E+00  0.13540470962E+03  0.13540470972E+03  0.50400000000E-02 0.  1.
          1   -1    0    0  501    0  0.00000000000E+00 -0.00000000000E+00 -0.11851062918E+03  0.11851062929E+03  0.50400000000E-02 0. -1.
         25    2    1    2    0    0  0.29418090326E+02 -0.57081867863E+02  0.23790844644E+02  0.14252759602E+03  0.12499739061E+03 0.  0.
         23    2    1    2    0    0 -0.29418090326E+02  0.57081867863E+02 -0.68967642002E+01  0.11138774299E+03  0.90751860883E+02 0.  0.
        -13    1    4    4    0    0  0.39311420020E+01  0.73245614420E+02  0.15900400744E+01  0.73368339906E+02  0.10566000000E+00 0. -1.
         13    1    4    4    0    0 -0.33349232328E+02 -0.16163746557E+02 -0.84868042745E+01  0.38019403079E+02  0.10566000000E+00 0.  1.
    9000005    1    3    3    0    0  0.31697988780E+02 -0.36949176269E+01  0.66726737400E+02  0.73972105506E+02  0.10000000000E+01 0.  0.
    9000005    1    3    3    0    0 -0.22798984539E+01 -0.53386950236E+02 -0.42935892756E+02  0.68555490511E+02  0.10000000000E+01 0.  0.
<mgrwt>
<rscale>  0 0.13253266E+03</rscale>
<asrwt>0</asrwt>
<pdfrwt beam="2">  1        1 0.18232404E-01 0.14052797E+03</pdfrwt>
<pdfrwt beam="1">  1       -1 0.20831494E-01 0.14052797E+03</pdfrwt>
<totfact> 0.51949392E+03</totfact>
</mgrwt>
</event>
<event>
 8    3  0.1508318E-003  0.1299233E+03  0.7818608E-02  0.1241292E+00
         -1   -1    0    0    0  501 -0.00000000000E+00  0.00000000000E+00  0.21528077885E+03  0.21528077891E+03  0.50400000000E-02 0.  1.
          1   -1    0    0  501    0  0.00000000000E+00 -0.00000000000E+00 -0.66872359955E+02  0.66872360145E+02  0.50400000000E-02 0. -1.
         25    2    1    2    0    0  0.35093423003E+02 -0.47147602036E+01  0.39936760899E+02  0.13592279253E+03  0.12500513332E+03 0.  0.
         23    2    1    2    0    0 -0.35093423003E+02  0.47147602036E+01  0.10847165800E+03  0.14623034653E+03  0.91451825320E+02 0.  0.
        -13    1    4    4    0    0 -0.14020086366E+02 -0.41066193744E+02  0.71829523953E+02  0.83919525533E+02  0.10566000000E+00 0.  1.
         13    1    4    4    0    0 -0.21073336636E+02  0.45780953948E+02  0.36642134045E+02  0.62310820992E+02  0.10566000000E+00 0. -1.
    9000005    1    3    3    0    0  0.64953408290E+02 -0.41659851439E+02  0.42940681576E+02  0.88314158574E+02  0.10000000000E+01 0.  0.
    9000005    1    3    3    0    0 -0.29859985288E+02  0.36945091235E+02 -0.30039206775E+01  0.47608633956E+02  0.10000000000E+01 0.  0.
<mgrwt>
<rscale>  0 0.12110063E+03</rscale>
<asrwt>0</asrwt>
<pdfrwt beam="2">  1        1 0.10288055E-01 0.12992329E+03</pdfrwt>
<pdfrwt beam="1">  1       -1 0.33120120E-01 0.12992329E+03</pdfrwt>
<totfact> 0.50557258E+03</totfact>
</mgrwt>
</event>
<event>
 8    3  0.1508318E-003  0.1253232E+03  0.7818608E-02  0.1250050E+00
         -1   -1    0    0    0  501 -0.00000000000E+00  0.00000000000E+00  0.24415747769E+02  0.24415748289E+02  0.50400000000E-02 0.  1.
          1   -1    0    0  501    0  0.00000000000E+00 -0.00000000000E+00 -0.49481894640E+03  0.49481894643E+03  0.50400000000E-02 0. -1.
         25    2    1    2    0    0 -0.39147830770E+01  0.81052791056E+01 -0.22931345606E+03  0.26132461701E+03  0.12499949298E+03 0.  0.
         23    2    1    2    0    0  0.39147830770E+01 -0.81052791056E+01 -0.24108974257E+03  0.25791007771E+03  0.91171942704E+02 0.  0.
        -13    1    4    4    0    0 -0.40028775561E+02  0.12787462517E+02 -0.93566303937E+02  0.10256942267E+03  0.10566000000E+00 0.  1.
         13    1    4    4    0    0  0.43943558637E+02 -0.20892741622E+02 -0.14752343864E+03  0.15534065504E+03  0.10566000000E+00 0. -1.
    9000005    1    3    3    0    0 -0.23279977987E+02 -0.55109519782E+01  0.61102269028E+01  0.24711593222E+02  0.10000000000E+01 0.  0.
    9000005    1    3    3    0    0  0.19365194910E+02  0.13616231084E+02 -0.23542368297E+03  0.23661302378E+03  0.10000000000E+01 0.  0.
<mgrwt>
<rscale>  0 0.11588184E+03</rscale>
<asrwt>0</asrwt>
<pdfrwt beam="2">  1        1 0.76125984E-01 0.12532316E+03</pdfrwt>
<pdfrwt beam="1">  1       -1 0.37562693E-02 0.12532316E+03</pdfrwt>
<totfact> 0.11673924E+04</totfact>
</mgrwt>
</event>
<event>
 8    3  0.1508318E-003  0.1357494E+03  0.7818608E-02  0.1239592E+00
         -1   -1    0    0    0  501 -0.00000000000E+00  0.00000000000E+00  0.61500557088E+03  0.61500557090E+03  0.50400000000E-02 0.  1.
          1   -1    0    0  501    0  0.00000000000E+00 -0.00000000000E+00 -0.20672032950E+02  0.20672033564E+02  0.50400000000E-02 0. -1.
         25    2    1    2    0    0  0.14899507630E+02 -0.50856650894E+02  0.38414199971E+03  0.40742236300E+03  0.12497804470E+03 0.  0.
         23    2    1    2    0    0 -0.14899507630E+02  0.50856650894E+02  0.21019153822E+03  0.22825524147E+03  0.71495302313E+02 0.  0.
        -13    1    4    4    0    0 -0.32319821310E+02  0.97921284890E+01  0.14748171099E+03  0.15129878675E+03  0.10566000000E+00 0.  1.
         13    1    4    4    0    0  0.17420313680E+02  0.41064522405E+02  0.62709827228E+02  0.76956454726E+02  0.10566000000E+00 0. -1.
    9000005    1    3    3    0    0  0.31818683609E+02  0.12382777275E+02  0.29419122174E+03  0.29616758220E+03  0.10000000000E+01 0.  0.
    9000005    1    3    3    0    0 -0.16919175979E+02 -0.63239428169E+02  0.89950777975E+02  0.11125478079E+03  0.10000000000E+01 0.  0.
<mgrwt>
<rscale>  0 0.12215014E+03</rscale>
<asrwt>0</asrwt>
<pdfrwt beam="2">  1        1 0.31803130E-02 0.13574942E+03</pdfrwt>
<pdfrwt beam="1">  1       -1 0.94616236E-01 0.13574942E+03</pdfrwt>
<totfact> 0.34376036E+03</totfact>
</mgrwt>
</event>
<event>
 8    3  0.1508318E-003  0.1447130E+03  0.7818608E-02  0.1216541E+00
         -1   -1    0    0    0  501 -0.00000000000E+00  0.00000000000E+00  0.15605494509E+03  0.15605494518E+03  0.50400000000E-02 0.  1.
          1   -1    0    0  501    0  0.00000000000E+00 -0.00000000000E+00 -0.11806037673E+03  0.11806037684E+03  0.50400000000E-02 0. -1.
         25    2    1    2    0    0  0.66920964031E+02 -0.28917690460E+02 -0.12751219640E+02  0.14527372476E+03  0.12500885271E+03 0.  0.
         23    2    1    2    0    0 -0.66920964031E+02  0.28917690460E+02  0.50745788002E+02  0.12884159725E+03  0.93329384086E+02 0.  0.
        -13    1    4    4    0    0 -0.33312054292E+02  0.41525454014E+01 -0.25336398292E+02  0.42058065064E+02  0.10566000000E+00 0. -1.
         13    1    4    4    0    0 -0.33608909739E+02  0.24765145059E+02  0.76082186294E+02  0.86783532187E+02  0.10566000000E+00 0.  1.
    9000005    1    3    3    0    0  0.63190545084E+02 -0.63844293343E+02 -0.42362642341E+02  0.99321358461E+02  0.10000000000E+01 0.  0.
    9000005    1    3    3    0    0  0.37304189475E+01  0.34926602883E+02  0.29611422701E+02  0.45952366303E+02  0.10000000000E+01 0.  0.
<mgrwt>
<rscale>  0 0.13763969E+03</rscale>
<asrwt>0</asrwt>
<pdfrwt beam="2">  1        1 0.18163135E-01 0.14471303E+03</pdfrwt>
<pdfrwt beam="1">  1       -1 0.24008453E-01 0.14471303E+03</pdfrwt>
<totfact> 0.41520270E+03</totfact>
</mgrwt>
</event>
<event>
 8    3  0.1508318E-003  0.1268192E+03  0.7818608E-02  0.1247568E+00
         -1   -1    0    0    0  501 -0.00000000000E+00  0.00000000000E+00  0.13854930415E+02  0.13854931332E+02  0.50400000000E-02 0.  1.
          1   -1    0    0  501    0  0.00000000000E+00 -0.00000000000E+00 -0.87549354264E+03  0.87549354265E+03  0.50400000000E-02 0. -1.
         25    2    1    2    0    0  0.22164411768E+01  0.21294812635E+02 -0.46624132688E+03  0.48318121860E+03  0.12499893386E+03 0.  0.
         23    2    1    2    0    0 -0.22164411768E+01 -0.21294812635E+02 -0.39539728535E+03  0.40616725538E+03  0.90412634231E+02 0.  0.
        -13    1    4    4    0    0  0.24708181947E+02 -0.36658949747E+02 -0.33848508613E+03  0.34135983588E+03  0.10566000000E+00 0. -1.
         13    1    4    4    0    0 -0.26924623124E+02  0.15364137112E+02 -0.56912199215E+02  0.64807419506E+02  0.10566000000E+00 0.  1.
    9000005    1    3    3    0    0  0.40728856319E+02 -0.18526382518E+02 -0.36531428067E+03  0.36804563609E+03  0.10000000000E+01 0.  0.
    9000005    1    3    3    0    0 -0.38512415142E+02  0.39821195153E+02 -0.10092704620E+03  0.11513558251E+03  0.10000000000E+01 0.  0.
<mgrwt>
<rscale>  0 0.11732969E+03</rscale>
<asrwt>0</asrwt>
<pdfrwt beam="2">  1        1 0.13469127E+00 0.12681922E+03</pdfrwt>
<pdfrwt beam="1">  1       -1 0.21315285E-02 0.12681922E+03</pdfrwt>
<totfact> 0.11910151E+04</totfact>
</mgrwt>
</event>
<event>
 8    3  0.1508318E-003  0.1331198E+03  0.7818608E-02  0.1235894E+00
          1   -1    0    0  501    0  0.00000000000E+00  0.00000000000E+00  0.10446102592E+04  0.10446102592E+04  0.50400000000E-02 0. -1.
         -1   -1    0    0    0  501 -0.00000000000E+00 -0.00000000000E+00 -0.13654709960E+02  0.13654710890E+02  0.50400000000E-02 0.  1.
         25    2    1    2    0    0 -0.19776879966E+02 -0.41283939126E+02  0.67739990242E+03  0.69035608085E+03  0.12500160783E+03 0.  0.
         23    2    1    2    0    0  0.19776879966E+02  0.41283939126E+02  0.35355564680E+03  0.36790888923E+03  0.90883809224E+02 0.  0.
        -13    1    4    4    0    0 -0.20417963854E+02  0.34507193695E+02  0.28754408632E+03  0.29032611389E+03  0.10566000000E+00 0. -1.
         13    1    4    4    0    0  0.40194843821E+02  0.67767454314E+01  0.66011560479E+02  0.77582775339E+02  0.10566000000E+00 0.  1.
    9000005    1    3    3    0    0  0.34368589044E+02 -0.60475889391E+02  0.26525552567E+03  0.27422623326E+03  0.10000000000E+01 0.  0.
    9000005    1    3    3    0    0 -0.54145469011E+02  0.19191950265E+02  0.41214437675E+03  0.41612984759E+03  0.10000000000E+01 0.  0.
<mgrwt>
<rscale>  0 0.12447373E+03</rscale>
<asrwt>0</asrwt>
<pdfrwt beam="1">  1        1 0.16070924E+00 0.13311984E+03</pdfrwt>
<pdfrwt beam="2">  1       -1 0.21007251E-02 0.13311984E+03</pdfrwt>
<totfact> 0.91265524E+03</totfact>
</mgrwt>
</event>
<event>
 8    3  0.1508318E-003  0.1253805E+03  0.7818608E-02  0.1250262E+00
         -1   -1    0    0    0  501 -0.00000000000E+00  0.00000000000E+00  0.77492460726E+01  0.77492477116E+01  0.50400000000E-02 0.  1.
          1   -1    0    0  501    0  0.00000000000E+00 -0.00000000000E+00 -0.15130416852E+04  0.15130416852E+04  0.50400000000E-02 0. -1.
         25    2    1    2    0    0 -0.31844815765E+01  0.91682220511E+01 -0.85125853663E+03  0.86044253693E+03  0.12500426374E+03 0.  0.
         23    2    1    2    0    0  0.31844815765E+01 -0.91682220511E+01 -0.65403390250E+03  0.66034839600E+03  0.90584001084E+02 0.  0.
        -13    1    4    4    0    0  0.31520627541E+02 -0.26091687581E+02 -0.15782893571E+03  0.16304695714E+03  0.10566000000E+00 0.  1.
         13    1    4    4    0    0 -0.28336145964E+02  0.16923465530E+02 -0.49620496679E+03  0.49730143885E+03  0.10566000000E+00 0. -1.
    9000005    1    3    3    0    0  0.13716249440E+02  0.49082973626E+02 -0.72797150093E+03  0.72975391740E+03  0.10000000000E+01 0.  0.
    9000005    1    3    3    0    0 -0.16900731017E+02 -0.39914751575E+02 -0.12328703570E+03  0.13068861953E+03  0.10000000000E+01 0.  0.
<mgrwt>
<rscale>  0 0.11575905E+03</rscale>
<asrwt>0</asrwt>
<pdfrwt beam="2">  1        1 0.23277541E+00 0.12538047E+03</pdfrwt>
<pdfrwt beam="1">  1       -1 0.11921930E-02 0.12538047E+03</pdfrwt>
<totfact> 0.99127288E+03</totfact>
</mgrwt>
</event>
<event>
 8    3  0.1508318E-003  0.1514886E+03  0.7818608E-02  0.1207546E+00
         -1   -1    0    0    0  501 -0.00000000000E+00  0.00000000000E+00  0.34070615935E+02  0.34070616308E+02  0.50400000000E-02 0.  1.
          1   -1    0    0  501    0  0.00000000000E+00 -0.00000000000E+00 -0.63449716416E+03  0.63449716418E+03  0.50400000000E-02 0. -1.
         25    2    1    2    0    0  0.57023686553E+02 -0.63815226436E+02 -0.21231528623E+03  0.26081907392E+03  0.12499889840E+03 0.  0.
         23    2    1    2    0    0 -0.57023686553E+02  0.63815226436E+02 -0.38811126200E+03  0.40774870657E+03  0.91129424804E+02 0.  0.
        -13    1    4    4    0    0 -0.13863483317E+01 -0.20438874571E+02 -0.35713351979E+02  0.41171886392E+02  0.10566000000E+00 0.  1.
         13    1    4    4    0    0 -0.55637338221E+02  0.84254101007E+02 -0.35239791002E+03  0.36657682018E+03  0.10566000000E+00 0. -1.
    9000005    1    3    3    0    0 -0.37131675506E+02 -0.35856408747E+02 -0.55665785162E+02  0.75921821710E+02  0.10000000000E+01 0.  0.
    9000005    1    3    3    0    0  0.94155362058E+02 -0.27958817689E+02 -0.15664950107E+03  0.18489725221E+03  0.10000000000E+01 0.  0.
<mgrwt>
<rscale>  0 0.14438606E+03</rscale>
<asrwt>0</asrwt>
<pdfrwt beam="2">  1        1 0.97614940E-01 0.15148864E+03</pdfrwt>
<pdfrwt beam="1">  1       -1 0.52416337E-02 0.15148864E+03</pdfrwt>
<totfact> 0.51800956E+03</totfact>
</mgrwt>
</event>
<event>
 8    3  0.1508318E-003  0.1312287E+03  0.7818608E-02  0.1239166E+00
          1   -1    0    0  501    0  0.00000000000E+00  0.00000000000E+00  0.11323401412E+03  0.11323401423E+03  0.50400000000E-02 0. -1.
         -1   -1    0    0    0  501 -0.00000000000E+00 -0.00000000000E+00 -0.24186785863E+03  0.24186785868E+03  0.50400000000E-02 0.  1.
         25    2    1    2    0    0 -0.39769817921E+02 -0.37786336446E+01 -0.19540786439E+03  0.23538309876E+03  0.12500021291E+03 0.  0.
         23    2    1    2    0    0  0.39769817921E+02  0.37786336446E+01  0.66774019875E+02  0.11971877415E+03  0.90982958092E+02 0.  0.
        -13    1    4    4    0    0  0.38395112448E+02 -0.39897413686E+02  0.41896377652E+02  0.69435624164E+02  0.10566000000E+00 0. -1.
         13    1    4    4    0    0  0.13747054733E+01  0.43676047330E+02  0.24877642222E+02  0.50283149982E+02  0.10566000000E+00 0.  1.
    9000005    1    3    3    0    0 -0.43994509065E+02 -0.39237571797E+02 -0.29982094368E+02  0.66144008429E+02  0.10000000000E+01 0.  0.
    9000005    1    3    3    0    0  0.42246911445E+01  0.35458938152E+02 -0.16542577002E+03  0.16923909033E+03  0.10000000000E+01 0.  0.
<mgrwt>
<rscale>  0 0.12241432E+03</rscale>
<asrwt>0</asrwt>
<pdfrwt beam="1">  1        1 0.17420618E-01 0.13122869E+03</pdfrwt>
<pdfrwt beam="2">  1       -1 0.37210440E-01 0.13122869E+03</pdfrwt>
<totfact> 0.20869426E+03</totfact>
</mgrwt>
</event>
<event>
 8    3  0.1508318E-003  0.1731217E+03  0.7818608E-02  0.1180627E+00
          1   -1    0    0  501    0  0.00000000000E+00  0.00000000000E+00  0.10792250227E+04  0.10792250227E+04  0.50400000000E-02 0. -1.
         -1   -1    0    0    0  501 -0.00000000000E+00 -0.00000000000E+00 -0.29824796991E+02  0.29824797417E+02  0.50400000000E-02 0.  1.
         25    2    1    2    0    0 -0.10560188083E+03  0.56514571037E+02  0.79044262216E+03  0.80917899895E+03  0.12500183775E+03 0.  0.
         23    2    1    2    0    0  0.10560188083E+03 -0.56514571037E+02  0.25895760352E+03  0.29987082115E+03  0.92292009310E+02 0.  0.
        -13    1    4    4    0    0  0.30297946373E+02 -0.37400885747E+02  0.18996129995E+03  0.19596453366E+03  0.10566000000E+00 0. -1.
         13    1    4    4    0    0  0.75303934456E+02 -0.19113685290E+02  0.68996303566E+02  0.10390628749E+03  0.10566000000E+00 0.  1.
    9000005    1    3    3    0    0 -0.28375159156E+02  0.79090601725E+02  0.27688226520E+03  0.28935317817E+03  0.10000000000E+01 0.  0.
    9000005    1    3    3    0    0 -0.77226721673E+02 -0.22576030688E+02  0.51356035696E+03  0.51982582077E+03  0.10000000000E+01 0.  0.
<mgrwt>
<rscale>  0 0.16736180E+03</rscale>
<asrwt>0</asrwt>
<pdfrwt beam="1">  1        1 0.16603464E+00 0.17312167E+03</pdfrwt>
<pdfrwt beam="2">  1       -1 0.45884299E-02 0.17312167E+03</pdfrwt>
<totfact> 0.27764180E+03</totfact>
</mgrwt>
</event>
<event>
 8    3  0.1508318E-003  0.1342747E+03  0.7818608E-02  0.1233291E+00
          1   -1    0    0  501    0  0.00000000000E+00  0.00000000000E+00  0.31651070138E+02  0.31651070539E+02  0.50400000000E-02 0. -1.
         -1   -1    0    0    0  501 -0.00000000000E+00 -0.00000000000E+00 -0.46065234795E+03  0.46065234798E+03  0.50400000000E-02 0.  1.
         25    2    1    2    0    0 -0.19651003278E+02  0.44968935576E+02 -0.27654567793E+03  0.30742024603E+03  0.12498531350E+03 0.  0.
         23    2    1    2    0    0  0.19651003278E+02 -0.44968935576E+02 -0.15245559988E+03  0.18488317249E+03  0.92361845139E+02 0.  0.
        -13    1    4    4    0    0 -0.23405437598E+02 -0.54484532580E+02 -0.73393788635E+02  0.94355912236E+02  0.10566000000E+00 0. -1.
         13    1    4    4    0    0  0.43056440876E+02  0.95155970040E+01 -0.79061811248E+02  0.90527260254E+02  0.10566000000E+00 0.  1.
    9000005    1    3    3    0    0  0.43663915805E+02 -0.15653946769E+02 -0.87567979118E+02  0.99099619372E+02  0.10000000000E+01 0.  0.
    9000005    1    3    3    0    0 -0.63314919084E+02  0.60622882344E+02 -0.18897769881E+03  0.20832062665E+03  0.10000000000E+01 0.  0.
<mgrwt>
<rscale>  0 0.12614448E+03</rscale>
<asrwt>0</asrwt>
<pdfrwt beam="1">  1        1 0.48693958E-02 0.13427470E+03</pdfrwt>
<pdfrwt beam="2">  1       -1 0.70869587E-01 0.13427470E+03</pdfrwt>
<totfact> 0.34694724E+03</totfact>
</mgrwt>
</event>
<event>
 8    3  0.1508318E-003  0.2260949E+03  0.7818608E-02  0.1132473E+00
         -1   -1    0    0    0  501 -0.00000000000E+00  0.00000000000E+00  0.30793375278E+03  0.30793375282E+03  0.50400000000E-02 0.  1.
          1   -1    0    0  501    0  0.00000000000E+00 -0.00000000000E+00 -0.15550105895E+03  0.15550105903E+03  0.50400000000E-02 0. -1.
         25    2    1    2    0    0  0.78553181267E+02  0.17123099770E+03  0.99855783857E+02  0.24716409220E+03  0.12501301549E+03 0.  0.
         23    2    1    2    0    0 -0.78553181267E+02 -0.17123099770E+03  0.52576909974E+02  0.21627071965E+03  0.92293205891E+02 0.  0.
        -13    1    4    4    0    0  0.20688111942E+02 -0.27192193738E+02  0.15243625464E+02  0.37413803032E+02  0.10566000000E+00 0.  1.
         13    1    4    4    0    0 -0.99241293209E+02 -0.14403880396E+03  0.37333284511E+02  0.17885691661E+03  0.10566000000E+00 0. -1.
    9000005    1    3    3    0    0  0.60432008062E+02  0.86836964296E+02 -0.11326326028E+02  0.10640475378E+03  0.10000000000E+01 0.  0.
    9000005    1    3    3    0    0  0.18121173205E+02  0.84394033404E+02  0.11118210989E+03  0.14075933842E+03  0.10000000000E+01 0.  0.
<mgrwt>
<rscale>  0 0.22190159E+03</rscale>
<asrwt>0</asrwt>
<pdfrwt beam="2">  1        1 0.23923240E-01 0.22609492E+03</pdfrwt>
<pdfrwt beam="1">  1       -1 0.47374424E-01 0.22609492E+03</pdfrwt>
<totfact> 0.91839793E+02</totfact>
</mgrwt>
</event>
<event>
 8    3  0.1508318E-003  0.1412242E+03  0.7818608E-02  0.1222746E+00
          1   -1    0    0  501    0  0.00000000000E+00  0.00000000000E+00  0.58446412492E+02  0.58446412709E+02  0.50400000000E-02 0. -1.
         -1   -1    0    0    0  501 -0.00000000000E+00 -0.00000000000E+00 -0.35605658878E+03  0.35605658882E+03  0.50400000000E-02 0.  1.
         25    2    1    2    0    0 -0.14104605679E+02  0.64180345426E+02 -0.26110244959E+03  0.29684806597E+03  0.12500491370E+03 0.  0.
         23    2    1    2    0    0  0.14104605679E+02 -0.64180345426E+02 -0.36507726705E+02  0.11765493556E+03  0.90508635563E+02 0.  0.
        -13    1    4    4    0    0  0.48963575771E+02 -0.54095176138E+02 -0.12198773727E+02  0.73976625215E+02  0.10566000000E+00 0. -1.
         13    1    4    4    0    0 -0.34858970092E+02 -0.10085169288E+02 -0.24308952978E+02  0.43678310343E+02  0.10566000000E+00 0.  1.
    9000005    1    3    3    0    0  0.11516173934E+02 -0.14242799484E+02  0.43638516762E+01  0.18855312267E+02  0.10000000000E+01 0.  0.
    9000005    1    3    3    0    0 -0.25620779613E+02  0.78423144910E+02 -0.26546630126E+03  0.27799275370E+03  0.10000000000E+01 0.  0.
<mgrwt>
<rscale>  0 0.13322586E+03</rscale>
<asrwt>0</asrwt>
<pdfrwt beam="1">  1        1 0.89917560E-02 0.14122424E+03</pdfrwt>
<pdfrwt beam="2">  1       -1 0.54777936E-01 0.14122424E+03</pdfrwt>
<totfact> 0.24874453E+03</totfact>
</mgrwt>
</event>
<event>
 8    3  0.1508318E-003  0.1577432E+03  0.7818608E-02  0.1199049E+00
          1   -1    0    0  501    0  0.00000000000E+00  0.00000000000E+00  0.27146246192E+03  0.27146246196E+03  0.50400000000E-02 0. -1.
         -1   -1    0    0    0  501 -0.00000000000E+00 -0.00000000000E+00 -0.78900887057E+02  0.78900887218E+02  0.50400000000E-02 0.  1.
         25    2    1    2    0    0  0.39399426488E+02 -0.87780923549E+02  0.84348717508E+02  0.17887881343E+03  0.12500047361E+03 0.  0.
         23    2    1    2    0    0 -0.39399426488E+02  0.87780923549E+02  0.10821285735E+03  0.17148453575E+03  0.91864673067E+02 0.  0.
        -13    1    4    4    0    0 -0.67365097151E+02  0.53035636942E+02  0.54181329686E+02  0.10142220048E+03  0.10566000000E+00 0.  1.
         13    1    4    4    0    0  0.27965670663E+02  0.34745286606E+02  0.54031527665E+02  0.70062335265E+02  0.10566000000E+00 0. -1.
    9000005    1    3    3    0    0  0.30019006896E+02 -0.65768908186E+02 -0.17385725101E+02  0.74363657093E+02  0.10000000000E+01 0.  0.
    9000005    1    3    3    0    0  0.93804195914E+01 -0.22012015363E+02  0.10173444261E+03  0.10451515634E+03  0.10000000000E+01 0.  0.
<mgrwt>
<rscale>  0 0.15116465E+03</rscale>
<asrwt>0</asrwt>
<pdfrwt beam="1">  1        1 0.41763456E-01 0.15774322E+03</pdfrwt>
<pdfrwt beam="2">  1       -1 0.12138598E-01 0.15774322E+03</pdfrwt>
<totfact> 0.43362941E+03</totfact>
</mgrwt>
</event>
<event>
 8    3  0.1508318E-003  0.1358287E+03  0.7818608E-02  0.1231750E+00
         -1   -1    0    0    0  501 -0.00000000000E+00  0.00000000000E+00  0.28512631282E+03  0.28512631287E+03  0.50400000000E-02 0.  1.
          1   -1    0    0  501    0  0.00000000000E+00 -0.00000000000E+00 -0.50584077113E+02  0.50584077364E+02  0.50400000000E-02 0. -1.
         25    2    1    2    0    0 -0.52140466617E+02  0.10303298316E+02  0.12871267740E+03  0.18712668464E+03  0.12499862626E+03 0.  0.
         23    2    1    2    0    0  0.52140466617E+02 -0.10303298316E+02  0.10582955831E+03  0.14858370559E+03  0.89735366150E+02 0.  0.
        -13    1    4    4    0    0  0.74176987525E+02 -0.18612620675E+02  0.96790210236E+02  0.12335724984E+03  0.10566000000E+00 0.  1.
         13    1    4    4    0    0 -0.22036520908E+02  0.83093223594E+01  0.90393480746E+01  0.25226455745E+02  0.10566000000E+00 0. -1.
    9000005    1    3    3    0    0  0.21299183085E+02  0.34535680207E+01 -0.14511758476E+02  0.26022556873E+02  0.10000000000E+01 0.  0.
    9000005    1    3    3    0    0 -0.73439649702E+02  0.68497302953E+01  0.14322443587E+03  0.16110412777E+03  0.10000000000E+01 0.  0.
<mgrwt>
<rscale>  0 0.12714769E+03</rscale>
<asrwt>0</asrwt>
<pdfrwt beam="2">  1        1 0.77821659E-02 0.13582873E+03</pdfrwt>
<pdfrwt beam="1">  1       -1 0.43865586E-01 0.13582873E+03</pdfrwt>
<totfact> 0.45124713E+03</totfact>
</mgrwt>
</event>
<event>
 8    3  0.1508318E-003  0.1325528E+03  0.7818608E-02  0.1236367E+00
          1   -1    0    0  501    0  0.00000000000E+00  0.00000000000E+00  0.19980132486E+03  0.19980132493E+03  0.50400000000E-02 0. -1.
         -1   -1    0    0    0  501 -0.00000000000E+00 -0.00000000000E+00 -0.69743892783E+02  0.69743892965E+02  0.50400000000E-02 0.  1.
         25    2    1    2    0    0 -0.42995149493E+02  0.97826083665E+01  0.88205253157E+02  0.15921811067E+03  0.12500383103E+03 0.  0.
         23    2    1    2    0    0  0.42995149493E+02 -0.97826083665E+01  0.41852178926E+02  0.11032710723E+03  0.92066190330E+02 0.  0.
        -13    1    4    4    0    0 -0.12100882158E+02  0.30074359808E+02  0.23041610759E+02  0.39772169380E+02  0.10566000000E+00 0. -1.
         13    1    4    4    0    0  0.55096031651E+02 -0.39856968174E+02  0.18810568167E+02  0.70554937847E+02  0.10566000000E+00 0.  1.
    9000005    1    3    3    0    0  0.16602050638E+02 -0.31996968624E+02 -0.95827214327E+01  0.37313035746E+02  0.10000000000E+01 0.  0.
    9000005    1    3    3    0    0 -0.59597200131E+02  0.41779576991E+02  0.97787974589E+02  0.12190507492E+03  0.10000000000E+01 0.  0.
<mgrwt>
<rscale>  0 0.12417310E+03</rscale>
<asrwt>0</asrwt>
<pdfrwt beam="1">  1        1 0.30738665E-01 0.13255278E+03</pdfrwt>
<pdfrwt beam="2">  1       -1 0.10729830E-01 0.13255278E+03</pdfrwt>
<totfact> 0.75888006E+03</totfact>
</mgrwt>
</event>
<event>
 8    3  0.1508318E-003  0.1518063E+03  0.7818608E-02  0.1206924E+00
          1   -1    0    0  501    0  0.00000000000E+00  0.00000000000E+00  0.22182962641E+04  0.22182962641E+04  0.50400000000E-02 0. -1.
         -1   -1    0    0    0  501 -0.00000000000E+00 -0.00000000000E+00 -0.33900866187E+02  0.33900866562E+02  0.50400000000E-02 0.  1.
         25    2    1    2    0    0 -0.85478399387E+02  0.10736439672E+02  0.20883100585E+04  0.20938204429E+04  0.12499327615E+03 0.  0.
         23    2    1    2    0    0  0.85478399387E+02 -0.10736439672E+02  0.96085339433E+02  0.15837668771E+03  0.91809339714E+02 0.  0.
        -13    1    4    4    0    0  0.10367737453E+02  0.26681022083E+02 -0.27106755844E+01  0.28752840650E+02  0.10566000000E+00 0.  1.
         13    1    4    4    0    0  0.75110661934E+02 -0.37417461755E+02  0.98796015017E+02  0.12962384706E+03  0.10566000000E+00 0. -1.
    9000005    1    3    3    0    0 -0.97922577553E+01 -0.17696060027E+02  0.50523162057E+02  0.54430035427E+02  0.10000000000E+01 0.  0.
    9000005    1    3    3    0    0 -0.75686141632E+02  0.28432499698E+02  0.20377868964E+04  0.20393904075E+04  0.10000000000E+01 0.  0.
<mgrwt>
<rscale>  0 0.14486839E+03</rscale>
<asrwt>0</asrwt>
<pdfrwt beam="1">  1        1 0.34127637E+00 0.15180628E+03</pdfrwt>
<pdfrwt beam="2">  1       -1 0.52155176E-02 0.15180628E+03</pdfrwt>
<totfact> 0.41242480E+02</totfact>
</mgrwt>
</event>
<event>
 8    3  0.1508318E-003  0.1308525E+03  0.7818608E-02  0.1243365E+00
          1   -1    0    0  501    0  0.00000000000E+00  0.00000000000E+00  0.25829993513E+03  0.25829993518E+03  0.50400000000E-02 0. -1.
         -1   -1    0    0    0  501 -0.00000000000E+00 -0.00000000000E+00 -0.50062072344E+02  0.50062072598E+02  0.50400000000E-02 0.  1.
         25    2    1    2    0    0  0.40738730466E+01  0.38491188900E+02  0.91372743811E+02  0.15959751767E+03  0.12499688505E+03 0.  0.
         23    2    1    2    0    0 -0.40738730466E+01 -0.38491188900E+02  0.11686511898E+03  0.14876449011E+03  0.83517958660E+02 0.  0.
        -13    1    4    4    0    0  0.18580668317E+02 -0.17234033110E+01 -0.51281120009E+01  0.19352520529E+02  0.10566000000E+00 0.  1.
         13    1    4    4    0    0 -0.22654541364E+02 -0.36767785589E+02  0.12199323098E+03  0.12941196958E+03  0.10566000000E+00 0. -1.
    9000005    1    3    3    0    0  0.39784820819E+02  0.16511907997E+02  0.10659677301E+03  0.11497541950E+03  0.10000000000E+01 0.  0.
    9000005    1    3    3    0    0 -0.35710947773E+02  0.21979280903E+02 -0.15224029202E+02  0.44622098169E+02  0.10000000000E+01 0.  0.
<mgrwt>
<rscale>  0 0.11983784E+03</rscale>
<asrwt>0</asrwt>
<pdfrwt beam="1">  1        1 0.39738451E-01 0.13085255E+03</pdfrwt>
<pdfrwt beam="2">  1       -1 0.77018574E-02 0.13085255E+03</pdfrwt>
<totfact> 0.91247687E+03</totfact>
</mgrwt>
</event>
<event>
 8    3  0.1508318E-003  0.1260259E+03  0.7818608E-02  0.1249145E+00
          1   -1    0    0  501    0  0.00000000000E+00  0.00000000000E+00  0.18173044351E+04  0.18173044351E+04  0.50400000000E-02 0. -1.
         -1   -1    0    0    0  501 -0.00000000000E+00 -0.00000000000E+00 -0.76504198181E+01  0.76504214783E+01  0.50400000000E-02 0.  1.
         25    2    1    2    0    0 -0.75240734906E+01 -0.14198049133E+02  0.13728321455E+04  0.13786045928E+04  0.12499730971E+03 0.  0.
         23    2    1    2    0    0  0.75240734906E+01  0.14198049133E+02  0.43682186980E+03  0.44635026375E+03  0.90316198622E+02 0.  0.
        -13    1    4    4    0    0 -0.37525065811E+01 -0.24398045202E+02  0.36799686462E+02  0.44312233108E+02  0.10566000000E+00 0.  1.
         13    1    4    4    0    0  0.11276580072E+02  0.38596094335E+02  0.40002218333E+03  0.40203803064E+03  0.10566000000E+00 0. -1.
    9000005    1    3    3    0    0  0.99270758409E+01  0.46471721023E+02  0.28454307354E+03  0.28848557744E+03  0.10000000000E+01 0.  0.
    9000005    1    3    3    0    0 -0.17451149331E+02 -0.60669770156E+02  0.10882890720E+04  0.10901190154E+04  0.10000000000E+01 0.  0.
<mgrwt>
<rscale>  0 0.11640669E+03</rscale>
<asrwt>0</asrwt>
<pdfrwt beam="1">  1        1 0.27958562E+00 0.12602589E+03</pdfrwt>
<pdfrwt beam="2">  1       -1 0.11769865E-02 0.12602589E+03</pdfrwt>
<totfact> 0.64567181E+03</totfact>
</mgrwt>
</event>
<event>
 8    3  0.1508318E-003  0.1735938E+03  0.7818608E-02  0.1180671E+00
          1   -1    0    0  501    0  0.00000000000E+00  0.00000000000E+00  0.31608003338E+03  0.31608003342E+03  0.50400000000E-02 0. -1.
         -1   -1    0    0    0  501 -0.00000000000E+00 -0.00000000000E+00 -0.97668303334E+02  0.97668303464E+02  0.50400000000E-02 0.  1.
         25    2    1    2    0    0  0.11973894512E+03  0.13119910674E+02  0.35293603881E+02  0.17714530276E+03  0.12500109112E+03 0.  0.
         23    2    1    2    0    0 -0.11973894512E+03 -0.13119910674E+02  0.18311812616E+03  0.23660303412E+03  0.89102191853E+02 0.  0.
        -13    1    4    4    0    0 -0.11421692088E+03  0.18062441490E+02  0.12409502988E+03  0.16962117914E+03  0.10566000000E+00 0.  1.
         13    1    4    4    0    0 -0.55220242374E+01 -0.31182352163E+02  0.59023096285E+02  0.66981854985E+02  0.10566000000E+00 0. -1.
    9000005    1    3    3    0    0  0.14130477859E+03  0.23898301063E+02  0.12345741194E+02  0.14384570404E+03  0.10000000000E+01 0.  0.
    9000005    1    3    3    0    0 -0.21565833473E+02 -0.10778390389E+02  0.22947862688E+02  0.33299598717E+02  0.10000000000E+01 0.  0.
<mgrwt>
<rscale>  0 0.16732073E+03</rscale>
<asrwt>0</asrwt>
<pdfrwt beam="1">  1        1 0.48627698E-01 0.17359384E+03</pdfrwt>
<pdfrwt beam="2">  1       -1 0.15025893E-01 0.17359384E+03</pdfrwt>
<totfact> 0.25808440E+03</totfact>
</mgrwt>
</event>
<event>
 8    3  0.1508318E-003  0.1572767E+03  0.7818608E-02  0.1200776E+00
         -1   -1    0    0    0  501 -0.00000000000E+00  0.00000000000E+00  0.76484131389E+02  0.76484131555E+02  0.50400000000E-02 0.  1.
          1   -1    0    0  501    0  0.00000000000E+00 -0.00000000000E+00 -0.29068697217E+03  0.29068697221E+03  0.50400000000E-02 0. -1.
         25    2    1    2    0    0  0.94818098915E+02  0.10940619848E+02 -0.16737892624E+03  0.22967729280E+03  0.12500313930E+03 0.  0.
         23    2    1    2    0    0 -0.94818098915E+02 -0.10940619848E+02 -0.46823914543E+02  0.13749381097E+03  0.87188875648E+02 0.  0.
        -13    1    4    4    0    0 -0.69835888701E+02  0.88522099066E+01  0.11211631546E+02  0.71282009068E+02  0.10566000000E+00 0.  1.
         13    1    4    4    0    0 -0.24982210214E+02 -0.19792829755E+02 -0.58035546088E+02  0.66211801899E+02  0.10566000000E+00 0. -1.
    9000005    1    3    3    0    0 -0.30532427415E+02  0.87910187692E+01 -0.30396268095E+02  0.43982317458E+02  0.10000000000E+01 0.  0.
    9000005    1    3    3    0    0  0.12535052633E+03  0.21496010790E+01 -0.13698265814E+03  0.18569497534E+03  0.10000000000E+01 0.  0.
<mgrwt>
<rscale>  0 0.14975352E+03</rscale>
<asrwt>0</asrwt>
<pdfrwt beam="2">  1        1 0.44721072E-01 0.15727668E+03</pdfrwt>
<pdfrwt beam="1">  1       -1 0.11766790E-01 0.15727668E+03</pdfrwt>
<totfact> 0.41789671E+03</totfact>
</mgrwt>
</event>
<event>
 8    3  0.1508318E-003  0.1304028E+03  0.7818608E-02  0.1241179E+00
         -1   -1    0    0    0  501 -0.00000000000E+00  0.00000000000E+00  0.44286493289E+03  0.44286493292E+03  0.50400000000E-02 0.  1.
          1   -1    0    0  501    0  0.00000000000E+00 -0.00000000000E+00 -0.81317445901E+02  0.81317446057E+02  0.50400000000E-02 0. -1.
         25    2    1    2    0    0  0.19675662755E+02  0.31533033570E+02  0.39918040331E+03  0.41994033848E+03  0.12499371819E+03 0.  0.
         23    2    1    2    0    0 -0.19675662755E+02 -0.31533033570E+02 -0.37632916320E+02  0.10424204049E+03  0.89825957856E+02 0.  0.
        -13    1    4    4    0    0  0.11600099825E+02 -0.42232078802E+02  0.11262752802E+02  0.45221361773E+02  0.10566000000E+00 0.  1.
         13    1    4    4    0    0 -0.31275762580E+02  0.10699045233E+02 -0.48895669122E+02  0.59020678721E+02  0.10566000000E+00 0. -1.
    9000005    1    3    3    0    0 -0.40800504101E+01  0.13965334530E+02 -0.44356223182E+01  0.15243100907E+02  0.10000000000E+01 0.  0.
    9000005    1    3    3    0    0  0.23755713165E+02  0.17567699039E+02  0.40361602562E+03  0.40469723757E+03  0.10000000000E+01 0.  0.
<mgrwt>
<rscale>  0 0.12117001E+03</rscale>
<asrwt>0</asrwt>
<pdfrwt beam="2">  1        1 0.12510376E-01 0.13040281E+03</pdfrwt>
<pdfrwt beam="1">  1       -1 0.68133067E-01 0.13040281E+03</pdfrwt>
<totfact> 0.10572109E+03</totfact>
</mgrwt>
</event>
<event>
 8    3  0.1508318E-003  0.1320507E+03  0.7818608E-02  0.1242198E+00
          1   -1    0    0  501    0  0.00000000000E+00  0.00000000000E+00  0.28089798857E+03  0.28089798861E+03  0.50400000000E-02 0. -1.
         -1   -1    0    0    0  501 -0.00000000000E+00 -0.00000000000E+00 -0.45749211858E+02  0.45749212135E+02  0.50400000000E-02 0.  1.
         25    2    1    2    0    0 -0.28214247439E+01  0.42338778533E+02  0.11230747438E+03  0.17335035142E+03  0.12504736275E+03 0.  0.
         23    2    1    2    0    0  0.28214247439E+01 -0.42338778533E+02  0.12284130233E+03  0.15329684933E+03  0.81298252451E+02 0.  0.
        -13    1    4    4    0    0 -0.34073519580E+02 -0.18384294292E+02  0.25177354724E+02  0.46183301832E+02  0.10566000000E+00 0.  1.
         13    1    4    4    0    0  0.36894944324E+02 -0.23954484241E+02  0.97663947608E+02  0.10711354750E+03  0.10566000000E+00 0. -1.
    9000005    1    3    3    0    0  0.57510743648E+02  0.11172152661E+02  0.77141873244E+02  0.96871932145E+02  0.10000000000E+01 0.  0.
    9000005    1    3    3    0    0 -0.60332168391E+02  0.31166625872E+02  0.35165601135E+02  0.76478419271E+02  0.10000000000E+01 0.  0.
<mgrwt>
<rscale>  0 0.12054648E+03</rscale>
<asrwt>0</asrwt>
<pdfrwt beam="1">  1        1 0.43215075E-01 0.13205066E+03</pdfrwt>
<pdfrwt beam="2">  1       -1 0.70383403E-02 0.13205066E+03</pdfrwt>
<totfact> 0.94258147E+03</totfact>
</mgrwt>
</event>
<event>
 8    3  0.1508318E-003  0.1420102E+03  0.7818608E-02  0.1224987E+00
          1   -1    0    0  501    0  0.00000000000E+00  0.00000000000E+00  0.19457782227E+04  0.19457782227E+04  0.50400000000E-02 0. -1.
         -1   -1    0    0    0  501 -0.00000000000E+00 -0.00000000000E+00 -0.78456107359E+01  0.78456123548E+01  0.50400000000E-02 0.  1.
         25    2    1    2    0    0 -0.20200418137E+02  0.64292283113E+02  0.10836454737E+04  0.10929109790E+04  0.12500136321E+03 0.  0.
         23    2    1    2    0    0  0.20200418137E+02 -0.64292283113E+02  0.85428713829E+03  0.86071285608E+03  0.80489449063E+02 0.  0.
        -13    1    4    4    0    0 -0.30148052315E+02 -0.23723137088E+02  0.40215949528E+03  0.40398510258E+03  0.10566000000E+00 0.  1.
         13    1    4    4    0    0  0.50348470451E+02 -0.40569146025E+02  0.45212764300E+03  0.45672775350E+03  0.10566000000E+00 0. -1.
    9000005    1    3    3    0    0 -0.45356274939E+02 -0.74775172538E+01  0.17009560995E+03  0.17620051494E+03  0.10000000000E+01 0.  0.
    9000005    1    3    3    0    0  0.25155856802E+02  0.71769800367E+02  0.91354986372E+03  0.91671046404E+03  0.10000000000E+01 0.  0.
<mgrwt>
<rscale>  0 0.13167789E+03</rscale>
<asrwt>0</asrwt>
<pdfrwt beam="1">  1        1 0.29935128E+00 0.14201019E+03</pdfrwt>
<pdfrwt beam="2">  1       -1 0.12070140E-02 0.14201019E+03</pdfrwt>
<totfact> 0.51792233E+03</totfact>
</mgrwt>
</event>
<event>
 8    3  0.1508318E-003  0.2632141E+03  0.7818608E-02  0.1107620E+00
          1   -1    0    0  501    0  0.00000000000E+00  0.00000000000E+00  0.42525762222E+03  0.42525762225E+03  0.50400000000E-02 0. -1.
         -1   -1    0    0    0  501 -0.00000000000E+00 -0.00000000000E+00 -0.15337303437E+03  0.15337303445E+03  0.50400000000E-02 0.  1.
         25    2    1    2    0    0 -0.23101004707E+03  0.16959114227E+02  0.13838072696E+03  0.29737328503E+03  0.12501356587E+03 0.  0.
         23    2    1    2    0    0  0.23101004707E+03 -0.16959114227E+02  0.13350386089E+03  0.28125737167E+03  0.87345147785E+02 0.  0.
        -13    1    4    4    0    0  0.13764184740E+03 -0.46595173176E+02  0.53746662221E+02  0.15493580342E+03  0.10566000000E+00 0. -1.
         13    1    4    4    0    0  0.93368199677E+02  0.29636058948E+02  0.79757198672E+02  0.12632156825E+03  0.10566000000E+00 0.  1.
    9000005    1    3    3    0    0 -0.40925331728E+02 -0.36509349189E+02 -0.23322352908E+01  0.54902228340E+02  0.10000000000E+01 0.  0.
    9000005    1    3    3    0    0 -0.19008471535E+03  0.53468463416E+02  0.14071296225E+03  0.24247105669E+03  0.10000000000E+01 0.  0.
<mgrwt>
<rscale>  0 0.25920825E+03</rscale>
<asrwt>0</asrwt>
<pdfrwt beam="1">  1        1 0.65424249E-01 0.26321407E+03</pdfrwt>
<pdfrwt beam="2">  1       -1 0.23595852E-01 0.26321407E+03</pdfrwt>
<totfact> 0.86020184E+02</totfact>
</mgrwt>
</event>
<event>
 8    3  0.1508318E-003  0.1671678E+03  0.7818608E-02  0.1187643E+00
          1   -1    0    0  501    0  0.00000000000E+00  0.00000000000E+00  0.32492668090E+02  0.32492668481E+02  0.50400000000E-02 0.  1.
         -1   -1    0    0    0  501 -0.00000000000E+00 -0.00000000000E+00 -0.88394805802E+03  0.88394805804E+03  0.50400000000E-02 0. -1.
         25    2    1    2    0    0 -0.89464906945E+02  0.65721211194E+02 -0.27038754719E+03  0.31789069956E+03  0.12498729540E+03 0.  0.
         23    2    1    2    0    0  0.89464906945E+02 -0.65721211194E+02 -0.58106784274E+03  0.59855002696E+03  0.91099120382E+02 0.  0.
        -13    1    4    4    0    0  0.76353831219E+02 -0.43758401927E+02 -0.22550979238E+03  0.24207309413E+03  0.10566000000E+00 0.  1.
         13    1    4    4    0    0  0.13111075726E+02 -0.21962809267E+02 -0.35555805036E+03  0.35647693283E+03  0.10566000000E+00 0. -1.
    9000005    1    3    3    0    0 -0.58011456069E+02  0.42562640490E+02 -0.36357022334E+02  0.80620967953E+02  0.10000000000E+01 0.  0.
    9000005    1    3    3    0    0 -0.31453450875E+02  0.23158570704E+02 -0.23403052486E+03  0.23726973160E+03  0.10000000000E+01 0.  0.
<mgrwt>
<rscale>  0 0.16093725E+03</rscale>
<asrwt>0</asrwt>
<pdfrwt beam="1">  1        1 0.49988727E-02 0.16716779E+03</pdfrwt>
<pdfrwt beam="2">  1       -1 0.13599199E+00 0.16716779E+03</pdfrwt>
<totfact> 0.80328088E+02</totfact>
</mgrwt>
</event>
<event>
 8    3  0.1508318E-003  0.1285761E+03  0.7818608E-02  0.1234787E+00
         -1   -1    0    0    0  501 -0.00000000000E+00  0.00000000000E+00  0.58916005622E+02  0.58916005837E+02  0.50400000000E-02 0.  1.
          1   -1    0    0  501    0  0.00000000000E+00 -0.00000000000E+00 -0.25345926919E+03  0.25345926924E+03  0.50400000000E-02 0. -1.
         25    2    1    2    0    0 -0.21253419766E+02  0.21346166589E+02 -0.11017689714E+03  0.16932444404E+03  0.12499780801E+03 0.  0.
         23    2    1    2    0    0  0.21253419766E+02 -0.21346166589E+02 -0.84366366427E+02  0.14305083104E+03  0.11152797764E+03 0.  0.
        -13    1    4    4    0    0 -0.23106631847E+02  0.31150748439E+02 -0.67330836698E+01  0.39365354607E+02  0.10566000000E+00 0.  1.
         13    1    4    4    0    0  0.44360051613E+02 -0.52496915027E+02 -0.77633282758E+02  0.10368547643E+03  0.10566000000E+00 0. -1.
    9000005    1    3    3    0    0 -0.49749480333E+02  0.61194339928E+02 -0.76430652850E+02  0.10982897035E+03  0.10000000000E+01 0.  0.
    9000005    1    3    3    0    0  0.28496060568E+02 -0.39848173340E+02 -0.33746244293E+02  0.59495473695E+02  0.10000000000E+01 0.  0.
<mgrwt>
<rscale>  0 0.12518104E+03</rscale>
<asrwt>0</asrwt>
<pdfrwt beam="2">  1        1 0.38993733E-01 0.12857612E+03</pdfrwt>
<pdfrwt beam="1">  1       -1 0.90640010E-02 0.12857612E+03</pdfrwt>
<totfact> 0.72947024E+03</totfact>
</mgrwt>
</event>
<event>
 8    3  0.1508318E-003  0.2544277E+03  0.7818608E-02  0.1112892E+00
          1   -1    0    0  501    0  0.00000000000E+00  0.00000000000E+00  0.79113472579E+03  0.79113472581E+03  0.50400000000E-02 0. -1.
         -1   -1    0    0    0  501 -0.00000000000E+00 -0.00000000000E+00 -0.77533997441E+02  0.77533997605E+02  0.50400000000E-02 0.  1.
         25    2    1    2    0    0 -0.48223455596E+02 -0.21629404476E+03  0.39817910719E+03  0.47252519616E+03  0.12499937653E+03 0.  0.
         23    2    1    2    0    0  0.48223455596E+02  0.21629404476E+03  0.31542162116E+03  0.39614352726E+03  0.91270365529E+02 0.  0.
        -13    1    4    4    0    0  0.40310343063E+02  0.21311353612E+03  0.31991185469E+03  0.38650473344E+03  0.10566000000E+00 0. -1.
         13    1    4    4    0    0  0.79131125334E+01  0.31805086387E+01 -0.44902335254E+01  0.96387938206E+01  0.10566000000E+00 0.  1.
    9000005    1    3    3    0    0  0.40636067088E+02 -0.42054989294E+02  0.81560535640E+02  0.10036450093E+03  0.10000000000E+01 0.  0.
    9000005    1    3    3    0    0 -0.88859522685E+02 -0.17423905547E+03  0.31661857155E+03  0.37216069523E+03  0.10000000000E+01 0.  0.
<mgrwt>
<rscale>  0 0.25065367E+03</rscale>
<asrwt>0</asrwt>
<pdfrwt beam="1">  1        1 0.12171304E+00 0.25442771E+03</pdfrwt>
<pdfrwt beam="2">  1       -1 0.11928307E-01 0.25442771E+03</pdfrwt>
<totfact> 0.10857373E+03</totfact>
</mgrwt>
</event>
<event>
 8    3  0.1508318E-003  0.1681812E+03  0.7818608E-02  0.1186342E+00
         -1   -1    0    0    0  501 -0.00000000000E+00  0.00000000000E+00  0.17350701672E+04  0.17350701672E+04  0.50400000000E-02 0.  1.
          1   -1    0    0  501    0  0.00000000000E+00 -0.00000000000E+00 -0.16918504554E+02  0.16918505304E+02  0.50400000000E-02 0. -1.
         25    2    1    2    0    0 -0.38463160383E+02  0.10573829475E+03  0.12656342258E+04  0.12767595361E+04  0.12499967158E+03 0.  0.
         23    2    1    2    0    0  0.38463160383E+02 -0.10573829475E+03  0.45251743691E+03  0.47522913645E+03  0.91709867179E+02 0.  0.
        -13    1    4    4    0    0  0.48890527759E+02 -0.19113248620E+02  0.23651811173E+03  0.24227345773E+03  0.10566000000E+00 0. -1.
         13    1    4    4    0    0 -0.10427367376E+02 -0.86625046126E+02  0.21599932518E+03  0.23295567872E+03  0.10566000000E+00 0.  1.
    9000005    1    3    3    0    0 -0.71971692843E+02  0.32109357701E+02  0.42541318997E+03  0.43265265239E+03  0.10000000000E+01 0.  0.
    9000005    1    3    3    0    0  0.33508532460E+02  0.73628937044E+02  0.84022103579E+03  0.84410688370E+03  0.10000000000E+01 0.  0.
<mgrwt>
<rscale>  0 0.16210372E+03</rscale>
<asrwt>0</asrwt>
<pdfrwt beam="2">  1        1 0.26028496E-02 0.16818121E+03</pdfrwt>
<pdfrwt beam="1">  1       -1 0.26693359E+00 0.16818121E+03</pdfrwt>
<totfact> 0.25969105E+02</totfact>
</mgrwt>
</event>
<event>
 8    3  0.1508318E-003  0.1427938E+03  0.7818608E-02  0.1219788E+00
         -1   -1    0    0    0  501 -0.00000000000E+00  0.00000000000E+00  0.18675426572E+03  0.18675426579E+03  0.50400000000E-02 0.  1.
          1   -1    0    0  501    0  0.00000000000E+00 -0.00000000000E+00 -0.92425126510E+02  0.92425126647E+02  0.50400000000E-02 0. -1.
         25    2    1    2    0    0 -0.37357848313E+02  0.58054382432E+02  0.78581919762E+02  0.16298829406E+03  0.12499658290E+03 0.  0.
         23    2    1    2    0    0  0.37357848313E+02 -0.58054382432E+02  0.15747219451E+02  0.11619109838E+03  0.92122072662E+02 0.  0.
        -13    1    4    4    0    0  0.28782617569E+02 -0.26810438580E+02 -0.37185655341E+02  0.54129685184E+02  0.10566000000E+00 0. -1.
         13    1    4    4    0    0  0.85752307439E+01 -0.31243943851E+02  0.52932874792E+02  0.62061413193E+02  0.10566000000E+00 0.  1.
    9000005    1    3    3    0    0 -0.54095564255E+02  0.89922437306E+02  0.69432080693E+02  0.12583397249E+03  0.10000000000E+01 0.  0.
    9000005    1    3    3    0    0  0.16737715942E+02 -0.31868054874E+02  0.91498390688E+01  0.37154321571E+02  0.10000000000E+01 0.  0.
<mgrwt>
<rscale>  0 0.13530654E+03</rscale>
<asrwt>0</asrwt>
<pdfrwt beam="2">  1        1 0.14219250E-01 0.14279379E+03</pdfrwt>
<pdfrwt beam="1">  1       -1 0.28731425E-01 0.14279379E+03</pdfrwt>
<totfact> 0.42278153E+03</totfact>
</mgrwt>
</event>
<event>
 8    3  0.1508318E-003  0.1329577E+03  0.7818608E-02  0.1236372E+00
          1   -1    0    0  501    0  0.00000000000E+00  0.00000000000E+00  0.13827644158E+02  0.13827645076E+02  0.50400000000E-02 0. -1.
         -1   -1    0    0    0  501 -0.00000000000E+00 -0.00000000000E+00 -0.99794380155E+03  0.99794380157E+03  0.50400000000E-02 0.  1.
         25    2    1    2    0    0 -0.41950302704E+02  0.17116810562E+02 -0.60083450876E+03  0.61536969689E+03  0.12499977531E+03 0.  0.
         23    2    1    2    0    0  0.41950302704E+02 -0.17116810562E+02 -0.38328164863E+03  0.39640174975E+03  0.90425173088E+02 0.  0.
        -13    1    4    4    0    0  0.59065239990E+02 -0.40505555390E+02 -0.29053048369E+03  0.29922796612E+03  0.10566000000E+00 0.  1.
         13    1    4    4    0    0 -0.17114937285E+02  0.23388744828E+02 -0.92751164940E+02  0.97173783628E+02  0.10566000000E+00 0. -1.
    9000005    1    3    3    0    0 -0.32288183635E+02 -0.31493570277E+02 -0.77366294098E+02  0.89559562492E+02  0.10000000000E+01 0.  0.
    9000005    1    3    3    0    0 -0.96621190688E+01  0.48610380840E+02 -0.52346821467E+03  0.52581013440E+03  0.10000000000E+01 0.  0.
<mgrwt>
<rscale>  0 0.12417012E+03</rscale>
<asrwt>0</asrwt>
<pdfrwt beam="1">  1        1 0.21273307E-02 0.13295773E+03</pdfrwt>
<pdfrwt beam="2">  1       -1 0.15352976E+00 0.13295773E+03</pdfrwt>
<totfact> 0.19100579E+03</totfact>
</mgrwt>
</event>
<event>
 8    3  0.1508318E-003  0.1686199E+03  0.7818608E-02  0.1185671E+00
          1   -1    0    0  501    0  0.00000000000E+00  0.00000000000E+00  0.61939182771E+02  0.61939182976E+02  0.50400000000E-02 0.  1.
         -1   -1    0    0    0  501 -0.00000000000E+00 -0.00000000000E+00 -0.40109364750E+03  0.40109364753E+03  0.50400000000E-02 0. -1.
         25    2    1    2    0    0  0.86651102415E+02  0.72796784355E+02 -0.19357645944E+03  0.25671876358E+03  0.12499957026E+03 0.  0.
         23    2    1    2    0    0 -0.86651102415E+02 -0.72796784355E+02 -0.14557800529E+03  0.20631406692E+03  0.92545951963E+02 0.  0.
        -13    1    4    4    0    0 -0.11362332667E+02 -0.59961488579E+02 -0.30572293068E+02  0.68258032375E+02  0.10566000000E+00 0.  1.
         13    1    4    4    0    0 -0.75288769748E+02 -0.12835295776E+02 -0.11500571222E+03  0.13805603455E+03  0.10566000000E+00 0. -1.
    9000005    1    3    3    0    0  0.21100166678E+02 -0.11475366122E+02  0.10629578694E+02  0.26284767541E+02  0.10000000000E+01 0.  0.
    9000005    1    3    3    0    0  0.65550935737E+02  0.84272150477E+02 -0.20420603813E+03  0.23043399604E+03  0.10000000000E+01 0.  0.
<mgrwt>
<rscale>  0 0.16270979E+03</rscale>
<asrwt>0</asrwt>
<pdfrwt beam="1">  1        1 0.95291053E-02 0.16861992E+03</pdfrwt>
<pdfrwt beam="2">  1       -1 0.61706713E-01 0.16861992E+03</pdfrwt>
<totfact> 0.18512983E+03</totfact>
</mgrwt>
</event>
<event>
 8    3  0.1508318E-003  0.2934970E+03  0.7818608E-02  0.1090279E+00
         -1   -1    0    0    0  501 -0.00000000000E+00  0.00000000000E+00  0.15588380682E+03  0.15588380690E+03  0.50400000000E-02 0.  1.
          1   -1    0    0  501    0  0.00000000000E+00 -0.00000000000E+00 -0.52861147338E+03  0.52861147340E+03  0.50400000000E-02 0. -1.
         25    2    1    2    0    0 -0.85669174746E+01  0.26541121030E+03 -0.17887896028E+03  0.34371229629E+03  0.12499583017E+03 0.  0.
         23    2    1    2    0    0  0.85669174746E+01 -0.26541121030E+03 -0.19384870628E+03  0.34078298401E+03  0.89661689911E+02 0.  0.
        -13    1    4    4    0    0  0.45140650779E+02 -0.18779384959E+03 -0.14919630305E+03  0.24405687104E+03  0.10566000000E+00 0.  1.
         13    1    4    4    0    0 -0.36573733304E+02 -0.77617360711E+02 -0.44652403232E+02  0.96726112968E+02  0.10566000000E+00 0. -1.
    9000005    1    3    3    0    0 -0.49053582877E+02  0.23490768890E+03 -0.16472430823E+03  0.29107211137E+03  0.10000000000E+01 0.  0.
    9000005    1    3    3    0    0  0.40486665403E+02  0.30503521402E+02 -0.14154652049E+02  0.52640184916E+02  0.10000000000E+01 0.  0.
<mgrwt>
<rscale>  0 0.29013487E+03</rscale>
<asrwt>0</asrwt>
<pdfrwt beam="2">  1        1 0.81324841E-01 0.29349695E+03</pdfrwt>
<pdfrwt beam="1">  1       -1 0.23982124E-01 0.29349695E+03</pdfrwt>
<totfact> 0.62750907E+02</totfact>
</mgrwt>
</event>
<event>
 8    3  0.1508318E-003  0.1280449E+03  0.7818608E-02  0.1243990E+00
          1   -1    0    0  501    0  0.00000000000E+00  0.00000000000E+00  0.36322620484E+03  0.36322620487E+03  0.50400000000E-02 0. -1.
         -1   -1    0    0    0  501 -0.00000000000E+00 -0.00000000000E+00 -0.35158770365E+02  0.35158770726E+02  0.50400000000E-02 0.  1.
         25    2    1    2    0    0  0.27402957376E+02 -0.44135536780E+01  0.20463290034E+03  0.24139203163E+03  0.12500035002E+03 0.  0.
         23    2    1    2    0    0 -0.27402957376E+02  0.44135536780E+01  0.12343453414E+03  0.15699294397E+03  0.92953207100E+02 0.  0.
        -13    1    4    4    0    0 -0.45815270678E+02  0.13170556885E+02  0.12757250784E+03  0.13618832005E+03  0.10566000000E+00 0. -1.
         13    1    4    4    0    0  0.18412313302E+02 -0.87570032067E+01 -0.41379737034E+01  0.20804623926E+02  0.10566000000E+00 0.  1.
    9000005    1    3    3    0    0  0.14960748775E+02 -0.50584909500E+02  0.30785348639E+02  0.61085143561E+02  0.10000000000E+01 0.  0.
    9000005    1    3    3    0    0  0.12442208601E+02  0.46171355822E+02  0.17384755170E+03  0.18030688807E+03  0.10000000000E+01 0.  0.
<mgrwt>
<rscale>  0 0.11946052E+03</rscale>
<asrwt>0</asrwt>
<pdfrwt beam="1">  1        1 0.55880957E-01 0.12804487E+03</pdfrwt>
<pdfrwt beam="2">  1       -1 0.54090414E-02 0.12804487E+03</pdfrwt>
<totfact> 0.10121123E+04</totfact>
</mgrwt>
</event>
<event>
 8    3  0.1508318E-003  0.1254004E+03  0.7818608E-02  0.1249481E+00
         -1   -1    0    0    0  501 -0.00000000000E+00  0.00000000000E+00  0.55502641699E+03  0.55502641701E+03  0.50400000000E-02 0.  1.
          1   -1    0    0  501    0  0.00000000000E+00 -0.00000000000E+00 -0.23181048437E+02  0.23181048985E+02  0.50400000000E-02 0. -1.
         25    2    1    2    0    0 -0.64302333209E+01  0.76162987367E+01  0.38259546697E+03  0.40262208427E+03  0.12500358190E+03 0.  0.
         23    2    1    2    0    0  0.64302333209E+01 -0.76162987367E+01  0.14924990157E+03  0.17558538172E+03  0.91952907767E+02 0.  0.
        -13    1    4    4    0    0 -0.17599300649E+02  0.24955642017E+02  0.12544519726E+02  0.33013566772E+02  0.10566000000E+00 0. -1.
         13    1    4    4    0    0  0.24029533970E+02 -0.32571940754E+02  0.13670538185E+03  0.14257181495E+03  0.10566000000E+00 0.  1.
    9000005    1    3    3    0    0 -0.35622390270E+02 -0.41945133869E+02  0.99194848363E+02  0.11344146899E+03  0.10000000000E+01 0.  0.
    9000005    1    3    3    0    0  0.29192156949E+02  0.49561432606E+02  0.28340061861E+03  0.28918061529E+03  0.10000000000E+01 0.  0.
<mgrwt>
<rscale>  0 0.11621165E+03</rscale>
<asrwt>0</asrwt>
<pdfrwt beam="2">  1        1 0.35663152E-02 0.12540036E+03</pdfrwt>
<pdfrwt beam="1">  1       -1 0.85388680E-01 0.12540036E+03</pdfrwt>
<totfact> 0.36291937E+03</totfact>
</mgrwt>
</event>
<event>
 8    3  0.1508318E-003  0.2112886E+03  0.7818608E-02  0.1144293E+00
          1   -1    0    0  501    0  0.00000000000E+00  0.00000000000E+00  0.53118079293E+03  0.53118079295E+03  0.50400000000E-02 0. -1.
         -1   -1    0    0    0  501 -0.00000000000E+00 -0.00000000000E+00 -0.93054622062E+02  0.93054622199E+02  0.50400000000E-02 0.  1.
         25    2    1    2    0    0 -0.13691496171E+03  0.10132593995E+03  0.35684791634E+03  0.41470868658E+03  0.12502082418E+03 0.  0.
         23    2    1    2    0    0  0.13691496171E+03 -0.10132593995E+03  0.81278254525E+02  0.20952672857E+03  0.91009024167E+02 0.  0.
        -13    1    4    4    0    0  0.64899038245E+02 -0.60808557372E+02 -0.62508369758E+01  0.89155201428E+02  0.10566000000E+00 0.  1.
         13    1    4    4    0    0  0.72015923467E+02 -0.40517382580E+02  0.87529091501E+02  0.12037152714E+03  0.10566000000E+00 0. -1.
    9000005    1    3    3    0    0 -0.12227848079E+03  0.12746229293E+03  0.26828058824E+03  0.32120731158E+03  0.10000000000E+01 0.  0.
    9000005    1    3    3    0    0 -0.14636480926E+02 -0.26136352977E+02  0.88567328098E+02  0.93501375002E+02  0.10000000000E+01 0.  0.
<mgrwt>
<rscale>  0 0.20659212E+03</rscale>
<asrwt>0</asrwt>
<pdfrwt beam="1">  1        1 0.81720122E-01 0.21128857E+03</pdfrwt>
<pdfrwt beam="2">  1       -1 0.14316096E-01 0.21128857E+03</pdfrwt>
<totfact> 0.14367543E+03</totfact>
</mgrwt>
</event>
<event>
 8    3  0.1508318E-003  0.1321248E+03  0.7818608E-02  0.1238766E+00
          1   -1    0    0  501    0  0.00000000000E+00  0.00000000000E+00  0.74205073035E+01  0.74205090151E+01  0.50400000000E-02 0. -1.
         -1   -1    0    0    0  501 -0.00000000000E+00 -0.00000000000E+00 -0.20611794086E+04  0.20611794086E+04  0.50400000000E-02 0.  1.
         25    2    1    2    0    0  0.26095961550E+02  0.33922736296E+02 -0.15321114755E+04  0.15377979470E+04  0.12500080528E+03 0.  0.
         23    2    1    2    0    0 -0.26095961550E+02 -0.33922736296E+02 -0.52164742583E+03  0.53080197061E+03  0.88334273551E+02 0.  0.
        -13    1    4    4    0    0 -0.27657925543E+02 -0.47711931583E+02 -0.50914484700E+03  0.51212291069E+03  0.10566000000E+00 0.  1.
         13    1    4    4    0    0  0.15619639934E+01  0.13789195288E+02 -0.12502578828E+02  0.18679059922E+02  0.10566000000E+00 0. -1.
    9000005    1    3    3    0    0 -0.13908050864E+02  0.59044900893E+02 -0.12709240483E+04  0.12723712787E+04  0.10000000000E+01 0.  0.
    9000005    1    3    3    0    0  0.40004012413E+02 -0.25122164597E+02 -0.26118742715E+03  0.26542666834E+03  0.10000000000E+01 0.  0.
<mgrwt>
<rscale>  0 0.12266422E+03</rscale>
<asrwt>0</asrwt>
<pdfrwt beam="1">  1        1 0.11416183E-02 0.13212476E+03</pdfrwt>
<pdfrwt beam="2">  1       -1 0.31710407E+00 0.13212476E+03</pdfrwt>
<totfact> 0.40367137E+02</totfact>
</mgrwt>
</event>
<event>
 8    3  0.1508318E-003  0.1385369E+03  0.7818608E-02  0.1227323E+00
         -1   -1    0    0    0  501 -0.00000000000E+00  0.00000000000E+00  0.83272720322E+02  0.83272720475E+02  0.50400000000E-02 0.  1.
          1   -1    0    0  501    0  0.00000000000E+00 -0.00000000000E+00 -0.18716657949E+03  0.18716657955E+03  0.50400000000E-02 0. -1.
         25    2    1    2    0    0 -0.27666645061E+02  0.52931510292E+02 -0.80457253292E+02  0.16020560838E+03  0.12500111726E+03 0.  0.
         23    2    1    2    0    0  0.27666645061E+02 -0.52931510292E+02 -0.23436605873E+02  0.11023369165E+03  0.89638185223E+02 0.  0.
        -13    1    4    4    0    0  0.52647817695E+02 -0.55513982731E+02 -0.93687511837E+00  0.76514599167E+02  0.10566000000E+00 0.  1.
         13    1    4    4    0    0 -0.24981172633E+02  0.25824724396E+01 -0.22499730754E+02  0.33719092486E+02  0.10566000000E+00 0. -1.
    9000005    1    3    3    0    0 -0.33623549534E+02 -0.14928420088E+02  0.17608095760E+02  0.40797620591E+02  0.10000000000E+01 0.  0.
    9000005    1    3    3    0    0  0.59569044729E+01  0.67859930379E+02 -0.98065349052E+02  0.11940798778E+03  0.10000000000E+01 0.  0.
<mgrwt>
<rscale>  0 0.13008930E+03</rscale>
<asrwt>0</asrwt>
<pdfrwt beam="2">  1        1 0.28794858E-01 0.13853688E+03</pdfrwt>
<pdfrwt beam="1">  1       -1 0.12811188E-01 0.13853688E+03</pdfrwt>
<totfact> 0.62825824E+03</totfact>
</mgrwt>
</event>
<event>
 8    3  0.1508318E-003  0.1398462E+03  0.7818608E-02  0.1224521E+00
          1   -1    0    0  501    0  0.00000000000E+00  0.00000000000E+00  0.24756071105E+03  0.24756071110E+03  0.50400000000E-02 0. -1.
         -1   -1    0    0    0  501 -0.00000000000E+00 -0.00000000000E+00 -0.68021115609E+02  0.68021115796E+02  0.50400000000E-02 0.  1.
         25    2    1    2    0    0 -0.33088612213E+02  0.53261495442E+02  0.13965202731E+03  0.19763514806E+03  0.12500127945E+03 0.  0.
         23    2    1    2    0    0  0.33088612213E+02 -0.53261495442E+02  0.39887568129E+02  0.11794667883E+03  0.91590162144E+02 0.  0.
        -13    1    4    4    0    0  0.50871670486E+01 -0.34739040492E+02  0.66437423468E+02  0.75144012430E+02  0.10566000000E+00 0. -1.
         13    1    4    4    0    0  0.28001445165E+02 -0.18522454950E+02 -0.26549855339E+02  0.42802666404E+02  0.10566000000E+00 0.  1.
    9000005    1    3    3    0    0  0.43653708697E+02  0.11540797244E+02  0.79956869279E+02  0.91831025415E+02  0.10000000000E+01 0.  0.
    9000005    1    3    3    0    0 -0.76742320910E+02  0.41720698198E+02  0.59695158034E+02  0.10580412265E+03  0.10000000000E+01 0.  0.
<mgrwt>
<rscale>  0 0.13199763E+03</rscale>
<asrwt>0</asrwt>
<pdfrwt beam="1">  1        1 0.38086264E-01 0.13984621E+03</pdfrwt>
<pdfrwt beam="2">  1       -1 0.10464787E-01 0.13984621E+03</pdfrwt>
<totfact> 0.60671009E+03</totfact>
</mgrwt>
</event>
<event>
 8    3  0.1508318E-003  0.3376062E+03  0.7818608E-02  0.1068984E+00
          1   -1    0    0  501    0  0.00000000000E+00  0.00000000000E+00  0.19341597913E+04  0.19341597913E+04  0.50400000000E-02 0. -1.
         -1   -1    0    0    0  501 -0.00000000000E+00 -0.00000000000E+00 -0.57394023491E+02  0.57394023713E+02  0.50400000000E-02 0.  1.
         25    2    1    2    0    0  0.22220615259E+03  0.22130868483E+03  0.88031639528E+03  0.94283344740E+03  0.12499938199E+03 0.  0.
         23    2    1    2    0    0 -0.22220615259E+03 -0.22130868483E+03  0.99644937257E+03  0.10487203677E+04  0.92465935545E+02 0.  0.
        -13    1    4    4    0    0 -0.15735694493E+03 -0.92212583794E+02  0.54270491198E+03  0.57253209637E+03  0.10566000000E+00 0.  1.
         13    1    4    4    0    0 -0.64849207655E+02 -0.12909610104E+03  0.45374446059E+03  0.47618827129E+03  0.10566000000E+00 0. -1.
    9000005    1    3    3    0    0  0.11932216180E+03  0.19620797995E+03  0.55216917394E+03  0.59801935281E+03  0.10000000000E+01 0.  0.
    9000005    1    3    3    0    0  0.10288399079E+03  0.25100704878E+02  0.32814722135E+03  0.34481409459E+03  0.10000000000E+01 0.  0.
<mgrwt>
<rscale>  0 0.33491268E+03</rscale>
<asrwt>0</asrwt>
<pdfrwt beam="1">  1        1 0.29756303E+00 0.33760621E+03</pdfrwt>
<pdfrwt beam="2">  1       -1 0.88298503E-02 0.33760621E+03</pdfrwt>
<totfact> 0.27245935E+02</totfact>
</mgrwt>
</event>
<event>
 8    3  0.1508318E-003  0.1665829E+03  0.7818608E-02  0.1188256E+00
         -1   -1    0    0    0  501 -0.00000000000E+00  0.00000000000E+00  0.92222741063E+02  0.92222741201E+02  0.50400000000E-02 0.  1.
          1   -1    0    0  501    0  0.00000000000E+00 -0.00000000000E+00 -0.26182804258E+03  0.26182804263E+03  0.50400000000E-02 0. -1.
         25    2    1    2    0    0 -0.45878630427E+02 -0.10011681788E+03 -0.76760173880E+02  0.18341751922E+03  0.12498654372E+03 0.  0.
         23    2    1    2    0    0  0.45878630427E+02  0.10011681788E+03 -0.92845127641E+02  0.17063326461E+03  0.91472768145E+02 0.  0.
        -13    1    4    4    0    0 -0.21231444897E+02 -0.81188950766E+00 -0.80898967550E+01  0.22735237199E+02  0.10566000000E+00 0. -1.
         13    1    4    4    0    0  0.67110075324E+02  0.10092870739E+03 -0.84755230886E+02  0.14789802741E+03  0.10566000000E+00 0.  1.
    9000005    1    3    3    0    0  0.11120496749E+01 -0.11655844332E+03 -0.49419972279E+02  0.12661137794E+03  0.10000000000E+01 0.  0.
    9000005    1    3    3    0    0 -0.46990680102E+02  0.16441625442E+02 -0.27340201601E+02  0.56806141281E+02  0.10000000000E+01 0.  0.
<mgrwt>
<rscale>  0 0.16039104E+03</rscale>
<asrwt>0</asrwt>
<pdfrwt beam="2">  1        1 0.40281237E-01 0.16658290E+03</pdfrwt>
<pdfrwt beam="1">  1       -1 0.14188114E-01 0.16658290E+03</pdfrwt>
<totfact> 0.35653746E+03</totfact>
</mgrwt>
</event>
<event>
 8    3  0.1508318E-003  0.1756850E+03  0.7818608E-02  0.1177843E+00
         -1   -1    0    0    0  501 -0.00000000000E+00  0.00000000000E+00  0.12466587106E+03  0.12466587116E+03  0.50400000000E-02 0.  1.
          1   -1    0    0  501    0  0.00000000000E+00 -0.00000000000E+00 -0.22137818584E+03  0.22137818590E+03  0.50400000000E-02 0. -1.
         25    2    1    2    0    0  0.64709236961E+02 -0.10513287905E+03 -0.72737710891E+02  0.19014727686E+03  0.12500001882E+03 0.  0.
         23    2    1    2    0    0 -0.64709236961E+02  0.10513287905E+03 -0.23974603896E+02  0.15589678020E+03  0.92134775401E+02 0.  0.
        -13    1    4    4    0    0 -0.75754250871E+02  0.41576085230E+02 -0.29105917084E+02  0.91183567386E+02  0.10566000000E+00 0. -1.
         13    1    4    4    0    0  0.11045013909E+02  0.63556793824E+02  0.51313131879E+01  0.64713212813E+02  0.10566000000E+00 0.  1.
    9000005    1    3    3    0    0  0.44954646558E+02 -0.10553003324E+03  0.58561840616E-01  0.11471055572E+03  0.10000000000E+01 0.  0.
    9000005    1    3    3    0    0  0.19754590403E+02  0.39715418871E+00 -0.72796272732E+02  0.75436721145E+02  0.10000000000E+01 0.  0.
<mgrwt>
<rscale>  0 0.17000471E+03</rscale>
<asrwt>0</asrwt>
<pdfrwt beam="2">  1        1 0.34058182E-01 0.17568498E+03</pdfrwt>
<pdfrwt beam="1">  1       -1 0.19179365E-01 0.17568498E+03</pdfrwt>
<totfact> 0.27287903E+03</totfact>
</mgrwt>
</event>
<event>
 8    3  0.1508318E-003  0.1524761E+03  0.7818608E-02  0.1205380E+00
          1   -1    0    0  501    0  0.00000000000E+00  0.00000000000E+00  0.24750380180E+03  0.24750380186E+03  0.50400000000E-02 0. -1.
         -1   -1    0    0    0  501 -0.00000000000E+00 -0.00000000000E+00 -0.80804143375E+02  0.80804143533E+02  0.50400000000E-02 0.  1.
         25    2    1    2    0    0  0.38934843805E+02  0.78154258247E+02  0.10941055995E+03  0.18766893285E+03  0.12499979034E+03 0.  0.
         23    2    1    2    0    0 -0.38934843805E+02 -0.78154258247E+02  0.57289098477E+02  0.14063901254E+03  0.94198093921E+02 0.  0.
        -13    1    4    4    0    0 -0.60057433931E+02 -0.56820277768E+02  0.69715850676E+02  0.10814689240E+03  0.10566000000E+00 0. -1.
         13    1    4    4    0    0  0.21122590126E+02 -0.21333980478E+02 -0.12426752199E+02  0.32492120136E+02  0.10566000000E+00 0.  1.
    9000005    1    3    3    0    0  0.10539436850E+02  0.93227945058E+02  0.12132167263E+03  0.15337039388E+03  0.10000000000E+01 0.  0.
    9000005    1    3    3    0    0  0.28395406955E+02 -0.15073686811E+02 -0.11911112682E+02  0.34298538971E+02  0.10000000000E+01 0.  0.
<mgrwt>
<rscale>  0 0.14607567E+03</rscale>
<asrwt>0</asrwt>
<pdfrwt beam="1">  1        1 0.38077508E-01 0.15247609E+03</pdfrwt>
<pdfrwt beam="2">  1       -1 0.12431407E-01 0.15247609E+03</pdfrwt>
<totfact> 0.46781094E+03</totfact>
</mgrwt>
</event>
<event>
 8    3  0.1508318E-003  0.1380540E+03  0.7818608E-02  0.1227556E+00
          1   -1    0    0  501    0  0.00000000000E+00  0.00000000000E+00  0.39430534956E+03  0.39430534959E+03  0.50400000000E-02 0. -1.
         -1   -1    0    0    0  501 -0.00000000000E+00 -0.00000000000E+00 -0.39911230645E+02  0.39911230963E+02  0.50400000000E-02 0.  1.
         25    2    1    2    0    0  0.30860043222E+02 -0.49834332143E+02  0.15708749559E+03  0.20913008681E+03  0.12499243581E+03 0.  0.
         23    2    1    2    0    0 -0.30860043222E+02  0.49834332143E+02  0.19730662333E+03  0.22508649375E+03  0.91094583433E+02 0.  0.
        -13    1    4    4    0    0 -0.28550598406E+02  0.36011825175E+02  0.25203854501E+02  0.52414059827E+02  0.10566000000E+00 0.  1.
         13    1    4    4    0    0 -0.23094448152E+01  0.13822506968E+02  0.17210276883E+03  0.17267243392E+03  0.10566000000E+00 0. -1.
    9000005    1    3    3    0    0 -0.15371749127E+02 -0.63545317729E+02  0.14551273503E+03  0.15952822362E+03  0.10000000000E+01 0.  0.
    9000005    1    3    3    0    0  0.46231792349E+02  0.13710985586E+02  0.11574760558E+02  0.49601863186E+02  0.10000000000E+01 0.  0.
<mgrwt>
<rscale>  0 0.12993246E+03</rscale>
<asrwt>0</asrwt>
<pdfrwt beam="1">  1        1 0.60662361E-01 0.13805402E+03</pdfrwt>
<pdfrwt beam="2">  1       -1 0.61401894E-02 0.13805402E+03</pdfrwt>
<totfact> 0.76032239E+03</totfact>
</mgrwt>
</event>
<event>
 8    3  0.1508318E-003  0.1561539E+03  0.7818608E-02  0.1201763E+00
         -1   -1    0    0    0  501 -0.00000000000E+00  0.00000000000E+00  0.32386161008E+03  0.32386161012E+03  0.50400000000E-02 0.  1.
          1   -1    0    0  501    0  0.00000000000E+00 -0.00000000000E+00 -0.86059392383E+02  0.86059392531E+02  0.50400000000E-02 0. -1.
         25    2    1    2    0    0  0.16116182661E+02  0.92197711002E+02  0.23307057976E+03  0.28054576932E+03  0.12499553701E+03 0.  0.
         23    2    1    2    0    0 -0.16116182661E+02 -0.92197711002E+02  0.47316379363E+01  0.12937523334E+03  0.89193123873E+02 0.  0.
        -13    1    4    4    0    0 -0.21472749633E+02 -0.34609937990E+02  0.43620753657E+02  0.59680047739E+02  0.10566000000E+00 0.  1.
         13    1    4    4    0    0  0.53565669713E+01 -0.57587773012E+02 -0.38889115721E+02  0.69695185599E+02  0.10566000000E+00 0. -1.
    9000005    1    3    3    0    0 -0.71394292369E+01  0.52590329433E+02  0.11566520259E+02  0.54327696350E+02  0.10000000000E+01 0.  0.
    9000005    1    3    3    0    0  0.23255611898E+02  0.39607381569E+02  0.22150405951E+03  0.22621807297E+03  0.10000000000E+01 0.  0.
<mgrwt>
<rscale>  0 0.14895487E+03</rscale>
<asrwt>0</asrwt>
<pdfrwt beam="2">  1        1 0.13239907E-01 0.15615388E+03</pdfrwt>
<pdfrwt beam="1">  1       -1 0.49824861E-01 0.15615388E+03</pdfrwt>
<totfact> 0.17836512E+03</totfact>
</mgrwt>
</event>
<event>
 8    3  0.1508318E-003  0.1935553E+03  0.7818608E-02  0.1160299E+00
         -1   -1    0    0    0  501 -0.00000000000E+00  0.00000000000E+00  0.77971143937E+03  0.77971143939E+03  0.50400000000E-02 0.  1.
          1   -1    0    0  501    0  0.00000000000E+00 -0.00000000000E+00 -0.44857650658E+02  0.44857650941E+02  0.50400000000E-02 0. -1.
         25    2    1    2    0    0  0.11367500767E+03  0.94427345864E+02  0.47416855270E+03  0.51215180535E+03  0.12500049735E+03 0.  0.
         23    2    1    2    0    0 -0.11367500767E+03 -0.94427345864E+02  0.26068523601E+03  0.31241728498E+03  0.88369885492E+02 0.  0.
        -13    1    4    4    0    0 -0.11422318422E+03 -0.48892778843E+02  0.21220914275E+03  0.24590683412E+03  0.10566000000E+00 0.  1.
         13    1    4    4    0    0  0.54817654516E+00 -0.45534567021E+02  0.48476093259E+02  0.66510450855E+02  0.10566000000E+00 0. -1.
    9000005    1    3    3    0    0  0.20735245704E+02  0.21434366818E+02  0.30114178246E+03  0.30261651580E+03  0.10000000000E+01 0.  0.
    9000005    1    3    3    0    0  0.92939761970E+02  0.72992979046E+02  0.17302677025E+03  0.20953528955E+03  0.10000000000E+01 0.  0.
<mgrwt>
<rscale>  0 0.18797617E+03</rscale>
<asrwt>0</asrwt>
<pdfrwt beam="2">  1        1 0.69011773E-02 0.19355530E+03</pdfrwt>
<pdfrwt beam="1">  1       -1 0.11995560E+00 0.19355530E+03</pdfrwt>
<totfact> 0.70218440E+02</totfact>
</mgrwt>
</event>
<event>
 8    3  0.1508318E-003  0.1260287E+03  0.7818608E-02  0.1248628E+00
         -1   -1    0    0    0  501 -0.00000000000E+00  0.00000000000E+00  0.17926404568E+03  0.17926404575E+03  0.50400000000E-02 0.  1.
          1   -1    0    0  501    0  0.00000000000E+00 -0.00000000000E+00 -0.87283187719E+02  0.87283187864E+02  0.50400000000E-02 0. -1.
         25    2    1    2    0    0 -0.12366775233E+01  0.16129666680E+02  0.11547531636E+03  0.17093213368E+03  0.12498619972E+03 0.  0.
         23    2    1    2    0    0  0.12366775233E+01 -0.16129666680E+02 -0.23494458396E+02  0.95615099931E+02  0.91260956827E+02 0.  0.
        -13    1    4    4    0    0 -0.19597405014E+02 -0.22265792422E+02  0.27337050903E+02  0.40337938861E+02  0.10566000000E+00 0.  1.
         13    1    4    4    0    0  0.20834082537E+02  0.61361257416E+01 -0.50831509300E+02  0.55277161070E+02  0.10566000000E+00 0. -1.
    9000005    1    3    3    0    0  0.14760522510E+02  0.68967492356E+02  0.59121243125E+02  0.92036456990E+02  0.10000000000E+01 0.  0.
    9000005    1    3    3    0    0 -0.15997200034E+02 -0.52837825676E+02  0.56354073232E+02  0.78895676693E+02  0.10000000000E+01 0.  0.
<mgrwt>
<rscale>  0 0.11670864E+03</rscale>
<asrwt>0</asrwt>
<pdfrwt beam="2">  1        1 0.13428183E-01 0.12602875E+03</pdfrwt>
<pdfrwt beam="1">  1       -1 0.27579084E-01 0.12602875E+03</pdfrwt>
<totfact> 0.48383801E+03</totfact>
</mgrwt>
</event>
<event>
 8    3  0.1508318E-003  0.1509118E+03  0.7818608E-02  0.1207877E+00
          1   -1    0    0  501    0  0.00000000000E+00  0.00000000000E+00  0.12067210807E+04  0.12067210807E+04  0.50400000000E-02 0. -1.
         -1   -1    0    0    0  501 -0.00000000000E+00 -0.00000000000E+00 -0.15866037723E+02  0.15866038524E+02  0.50400000000E-02 0.  1.
         25    2    1    2    0    0 -0.19992890199E+02 -0.82166786328E+02  0.62326146317E+03  0.64127155955E+03  0.12499306053E+03 0.  0.
         23    2    1    2    0    0  0.19992890199E+02  0.82166786328E+02  0.56759357982E+03  0.58131555969E+03  0.92812777456E+02 0.  0.
        -13    1    4    4    0    0  0.50121401740E+02  0.39645246184E+02  0.41906949847E+03  0.42391409055E+03  0.10566000000E+00 0.  1.
         13    1    4    4    0    0 -0.30128511540E+02  0.42521540144E+02  0.14852408135E+03  0.15740146914E+03  0.10566000000E+00 0. -1.
    9000005    1    3    3    0    0  0.17868357006E+00 -0.77252708460E+02  0.16135717429E+03  0.17889983395E+03  0.10000000000E+01 0.  0.
    9000005    1    3    3    0    0 -0.20171573769E+02 -0.49140778672E+01  0.46190428888E+03  0.46237172560E+03  0.10000000000E+01 0.  0.
<mgrwt>
<rscale>  0 0.14413025E+03</rscale>
<asrwt>0</asrwt>
<pdfrwt beam="1">  1        1 0.18564940E+00 0.15091177E+03</pdfrwt>
<pdfrwt beam="2">  1       -1 0.24409289E-02 0.15091177E+03</pdfrwt>
<totfact> 0.56863182E+03</totfact>
</mgrwt>
</event>
<event>
 8    3  0.1508318E-003  0.1523248E+03  0.7818608E-02  0.1206529E+00
         -1   -1    0    0    0  501 -0.00000000000E+00  0.00000000000E+00  0.65243992214E+02  0.65243992408E+02  0.50400000000E-02 0.  1.
          1   -1    0    0  501    0  0.00000000000E+00 -0.00000000000E+00 -0.30734828404E+03  0.30734828408E+03  0.50400000000E-02 0. -1.
         25    2    1    2    0    0 -0.80526660456E+02  0.33087630193E+02 -0.96823162692E+02  0.18049256927E+03  0.12499403351E+03 0.  0.
         23    2    1    2    0    0  0.80526660456E+02 -0.33087630193E+02 -0.14528112914E+03  0.19209970722E+03  0.90644121232E+02 0.  0.
        -13    1    4    4    0    0  0.76310639892E+01 -0.73001791974E+01 -0.10383308395E+03  0.10436879917E+03  0.10566000000E+00 0. -1.
         13    1    4    4    0    0  0.72895596467E+02 -0.25787450996E+02 -0.41448045190E+02  0.87730908050E+02  0.10566000000E+00 0.  1.
    9000005    1    3    3    0    0 -0.37769357991E+02  0.32016104004E+02  0.22008999230E+02  0.54193646913E+02  0.10000000000E+01 0.  0.
    9000005    1    3    3    0    0 -0.42757302465E+02  0.10715261899E+01 -0.11883216192E+03  0.12629892236E+03  0.10000000000E+01 0.  0.
<mgrwt>
<rscale>  0 0.14517615E+03</rscale>
<asrwt>0</asrwt>
<pdfrwt beam="2">  1        1 0.47284351E-01 0.15232479E+03</pdfrwt>
<pdfrwt beam="1">  1       -1 0.10037537E-01 0.15232479E+03</pdfrwt>
<totfact> 0.49712071E+03</totfact>
</mgrwt>
</event>
<event>
 8    3  0.1508318E-003  0.1446459E+03  0.7818608E-02  0.1217199E+00
         -1   -1    0    0    0  501 -0.00000000000E+00  0.00000000000E+00  0.74052976861E+01  0.74052994012E+01  0.50400000000E-02 0.  1.
          1   -1    0    0  501    0  0.00000000000E+00 -0.00000000000E+00 -0.23108700155E+04  0.23108700155E+04  0.50400000000E-02 0. -1.
         25    2    1    2    0    0  0.23786035155E+02 -0.68787731793E+02 -0.12910550210E+04  0.12991326007E+04  0.12499967826E+03 0.  0.
         23    2    1    2    0    0 -0.23786035155E+02  0.68787731793E+02 -0.10124096968E+04  0.10191427142E+04  0.91547529212E+02 0.  0.
        -13    1    4    4    0    0 -0.37553023436E+02  0.52770653976E+02 -0.32406498583E+03  0.33047404996E+03  0.10566000000E+00 0.  1.
         13    1    4    4    0    0  0.13766988281E+02  0.16017077817E+02 -0.68834471098E+03  0.68866866420E+03  0.10566000000E+00 0. -1.
    9000005    1    3    3    0    0 -0.43974976723E+02 -0.45837344559E+02 -0.38013006784E+03  0.38540203582E+03  0.10000000000E+01 0.  0.
    9000005    1    3    3    0    0  0.67761011878E+02 -0.22950387234E+02 -0.91092495313E+03  0.91373056491E+03  0.10000000000E+01 0.  0.
<mgrwt>
<rscale>  0 0.13716219E+03</rscale>
<asrwt>0</asrwt>
<pdfrwt beam="2">  1        1 0.35551789E+00 0.14464594E+03</pdfrwt>
<pdfrwt beam="1">  1       -1 0.11392785E-02 0.14464594E+03</pdfrwt>
<totfact> 0.32871343E+03</totfact>
</mgrwt>
</event>
<event>
 8    3  0.1508318E-003  0.1327652E+03  0.7818608E-02  0.1235860E+00
         -1   -1    0    0    0  501 -0.00000000000E+00  0.00000000000E+00  0.78349480511E+03  0.78349480513E+03  0.50400000000E-02 0.  1.
          1   -1    0    0  501    0  0.00000000000E+00 -0.00000000000E+00 -0.17788699869E+02  0.17788700583E+02  0.50400000000E-02 0. -1.
         25    2    1    2    0    0  0.57460527125E+01  0.44369724532E+02  0.46204103430E+03  0.48073746209E+03  0.12499960204E+03 0.  0.
         23    2    1    2    0    0 -0.57460527125E+01 -0.44369724532E+02  0.30366507095E+03  0.32054604362E+03  0.92388317383E+02 0.  0.
        -13    1    4    4    0    0 -0.56202366604E+01 -0.66371990352E+02  0.28165488341E+03  0.28942410521E+03  0.10566000000E+00 0.  1.
         13    1    4    4    0    0 -0.12581605213E+00  0.22002265820E+02  0.22010187540E+02  0.31121938411E+02  0.10566000000E+00 0. -1.
    9000005    1    3    3    0    0 -0.54683511337E+02 -0.41448656077E+01  0.21043443625E+03  0.21746521166E+03  0.10000000000E+01 0.  0.
    9000005    1    3    3    0    0  0.60429564050E+02  0.48514590140E+02  0.25160659804E+03  0.26327225043E+03  0.10000000000E+01 0.  0.
<mgrwt>
<rscale>  0 0.12449567E+03</rscale>
<asrwt>0</asrwt>
<pdfrwt beam="2">  1        1 0.27367227E-02 0.13276517E+03</pdfrwt>
<pdfrwt beam="1">  1       -1 0.12053768E+00 0.13276517E+03</pdfrwt>
<totfact> 0.24511288E+03</totfact>
</mgrwt>
</event>
<event>
 8    3  0.1508318E-003  0.1371823E+03  0.7818608E-02  0.1229494E+00
         -1   -1    0    0    0  501 -0.00000000000E+00  0.00000000000E+00  0.93226190279E+01  0.93226203902E+01  0.50400000000E-02 0.  1.
          1   -1    0    0  501    0  0.00000000000E+00 -0.00000000000E+00 -0.18717062756E+04  0.18717062756E+04  0.50400000000E-02 0. -1.
         25    2    1    2    0    0 -0.40033772456E+02 -0.39941251848E+02 -0.66770429070E+03  0.68165094012E+03  0.12498391021E+03 0.  0.
         23    2    1    2    0    0  0.40033772456E+02  0.39941251848E+02 -0.11946793658E+04  0.11993779558E+04  0.89725622126E+02 0.  0.
        -13    1    4    4    0    0  0.48657733882E+02  0.40186105350E+02 -0.42588555297E+03  0.43053572851E+03  0.10566000000E+00 0.  1.
         13    1    4    4    0    0 -0.86239614267E+01 -0.24485350129E+00 -0.76879381287E+03  0.76884222734E+03  0.10566000000E+00 0. -1.
    9000005    1    3    3    0    0 -0.47302656061E+02  0.36041972021E+02 -0.34088424979E+03  0.34603415550E+03  0.10000000000E+01 0.  0.
    9000005    1    3    3    0    0  0.72688836054E+01 -0.75983223870E+02 -0.32682004090E+03  0.33561678461E+03  0.10000000000E+01 0.  0.
<mgrwt>
<rscale>  0 0.12863565E+03</rscale>
<asrwt>0</asrwt>
<pdfrwt beam="2">  1        1 0.28795451E+00 0.13718230E+03</pdfrwt>
<pdfrwt beam="1">  1       -1 0.14342507E-02 0.13718230E+03</pdfrwt>
<totfact> 0.45050653E+03</totfact>
</mgrwt>
</event>
<event>
 8    3  0.1508318E-003  0.1595096E+03  0.7818608E-02  0.1196777E+00
          1   -1    0    0  501    0  0.00000000000E+00  0.00000000000E+00  0.98138701727E+02  0.98138701856E+02  0.50400000000E-02 0. -1.
         -1   -1    0    0    0  501 -0.00000000000E+00 -0.00000000000E+00 -0.28710574815E+03  0.28710574819E+03  0.50400000000E-02 0.  1.
         25    2    1    2    0    0  0.97995870428E+02 -0.14458556349E+02 -0.84732206768E+01  0.15973448127E+03  0.12502427191E+03 0.  0.
         23    2    1    2    0    0 -0.97995870428E+02  0.14458556349E+02 -0.18049382574E+03  0.22550996878E+03  0.92002632645E+02 0.  0.
        -13    1    4    4    0    0 -0.47607469533E+02  0.32236311513E+02 -0.28048628202E+02  0.63971772238E+02  0.10566000000E+00 0. -1.
         13    1    4    4    0    0 -0.50388400895E+02 -0.17777755164E+02 -0.15244519754E+03  0.16153819654E+03  0.10566000000E+00 0.  1.
    9000005    1    3    3    0    0  0.93327729512E+02 -0.49350878836E+02  0.27801431063E+02  0.10917643476E+03  0.10000000000E+01 0.  0.
    9000005    1    3    3    0    0  0.46681409156E+01  0.34892322487E+02 -0.36274651740E+02  0.50558046511E+02  0.10000000000E+01 0.  0.
<mgrwt>
<rscale>  0 0.15304791E+03</rscale>
<asrwt>0</asrwt>
<pdfrwt beam="1">  1        1 0.15098262E-01 0.15950959E+03</pdfrwt>
<pdfrwt beam="2">  1       -1 0.44170115E-01 0.15950959E+03</pdfrwt>
<totfact> 0.18703753E+03</totfact>
</mgrwt>
</event>
<event>
 8    3  0.1508318E-003  0.1326298E+03  0.7818608E-02  0.1231675E+00
          1   -1    0    0  501    0  0.00000000000E+00  0.00000000000E+00  0.12240180916E+03  0.12240180927E+03  0.50400000000E-02 0. -1.
         -1   -1    0    0    0  501 -0.00000000000E+00 -0.00000000000E+00 -0.12250799352E+03  0.12250799362E+03  0.50400000000E-02 0.  1.
         25    2    1    2    0    0  0.10551631984E+02  0.43052231036E+02  0.31149979242E+01  0.13266640788E+03  0.12500336408E+03 0.  0.
         23    2    1    2    0    0 -0.10551631984E+02 -0.43052231036E+02 -0.32211822780E+01  0.11224339501E+03  0.10306974422E+03 0.  0.
        -13    1    4    4    0    0 -0.13094162189E+02 -0.27683522376E+02 -0.52379951486E+02  0.60675406685E+02  0.10566000000E+00 0.  1.
         13    1    4    4    0    0  0.25425302054E+01 -0.15368708660E+02  0.49158769208E+02  0.51567988325E+02  0.10566000000E+00 0. -1.
    9000005    1    3    3    0    0 -0.30020442997E+02 -0.33709270543E+02 -0.51553644527E+01  0.45443588116E+02  0.10000000000E+01 0.  0.
    9000005    1    3    3    0    0  0.40572074980E+02  0.76761501579E+02  0.82703623769E+01  0.87222819759E+02  0.10000000000E+01 0.  0.
<mgrwt>
<rscale>  0 0.12719686E+03</rscale>
<asrwt>0</asrwt>
<pdfrwt beam="1">  1        1 0.18831047E-01 0.13262983E+03</pdfrwt>
<pdfrwt beam="2">  1       -1 0.18847384E-01 0.13262983E+03</pdfrwt>
<totfact> 0.58317458E+03</totfact>
</mgrwt>
</event>
<event>
 8    3  0.1508318E-003  0.1360660E+03  0.7818608E-02  0.1230189E+00
         -1   -1    0    0    0  501 -0.00000000000E+00  0.00000000000E+00  0.37220055627E+03  0.37220055630E+03  0.50400000000E-02 0.  1.
          1   -1    0    0  501    0  0.00000000000E+00 -0.00000000000E+00 -0.12587302563E+03  0.12587302574E+03  0.50400000000E-02 0. -1.
         25    2    1    2    0    0 -0.51935603433E+02 -0.13853927836E+02 -0.77771286101E+02  0.15672369449E+03  0.12499882101E+03 0.  0.
         23    2    1    2    0    0  0.51935603433E+02  0.13853927836E+02  0.32409881674E+03  0.34134988755E+03  0.92684758716E+02 0.  0.
        -13    1    4    4    0    0  0.44387859782E+02 -0.99787723352E+01  0.30860032334E+03  0.31193593689E+03  0.10566000000E+00 0.  1.
         13    1    4    4    0    0  0.75477436512E+01  0.23832700172E+02  0.15498493395E+02  0.29413950657E+02  0.10566000000E+00 0. -1.
    9000005    1    3    3    0    0 -0.84601443890E+02  0.87271341375E+01 -0.21303901468E+02  0.87683655240E+02  0.10000000000E+01 0.  0.
    9000005    1    3    3    0    0  0.32665840456E+02 -0.22581061974E+02 -0.56467384633E+02  0.69040039251E+02  0.10000000000E+01 0.  0.
<mgrwt>
<rscale>  0 0.12817503E+03</rscale>
<asrwt>0</asrwt>
<pdfrwt beam="2">  1        1 0.19365081E-01 0.13606595E+03</pdfrwt>
<pdfrwt beam="1">  1       -1 0.57261622E-01 0.13606595E+03</pdfrwt>
<totfact> 0.84026957E+02</totfact>
</mgrwt>
</event>
<event>
 8    3  0.1508318E-003  0.1392133E+03  0.7818608E-02  0.1224018E+00
         -1   -1    0    0    0  501 -0.00000000000E+00  0.00000000000E+00  0.13110374187E+02  0.13110375156E+02  0.50400000000E-02 0.  1.
          1   -1    0    0  501    0  0.00000000000E+00 -0.00000000000E+00 -0.12821901038E+04  0.12821901038E+04  0.50400000000E-02 0. -1.
         25    2    1    2    0    0 -0.39950207384E+02  0.46466478687E+02 -0.83758882656E+03  0.84907913508E+03  0.12500073012E+03 0.  0.
         23    2    1    2    0    0  0.39950207384E+02 -0.46466478687E+02 -0.43149090304E+03  0.44622134388E+03  0.95780664088E+02 0.  0.
        -13    1    4    4    0    0  0.24876553982E+02 -0.28153334202E+02 -0.41643715790E+03  0.41812841426E+03  0.10566000000E+00 0. -1.
         13    1    4    4    0    0  0.15073653402E+02 -0.18313144485E+02 -0.15053745138E+02  0.28092929618E+02  0.10566000000E+00 0.  1.
    9000005    1    3    3    0    0 -0.33665261514E+02 -0.20146534649E+02 -0.62446535206E+03  0.62569737782E+03  0.10000000000E+01 0.  0.
    9000005    1    3    3    0    0 -0.62849458705E+01  0.66613013336E+02 -0.21312347450E+03  0.22338175725E+03  0.10000000000E+01 0.  0.
<mgrwt>
<rscale>  0 0.13234467E+03</rscale>
<asrwt>0</asrwt>
<pdfrwt beam="2">  1        1 0.19725992E+00 0.13921327E+03</pdfrwt>
<pdfrwt beam="1">  1       -1 0.20169817E-02 0.13921327E+03</pdfrwt>
<totfact> 0.66416758E+03</totfact>
</mgrwt>
</event>
<event>
 8    3  0.1508318E-003  0.1474469E+03  0.7818608E-02  0.1214217E+00
         -1   -1    0    0    0  501 -0.00000000000E+00  0.00000000000E+00  0.86972273600E+03  0.86972273602E+03  0.50400000000E-02 0.  1.
          1   -1    0    0  501    0  0.00000000000E+00 -0.00000000000E+00 -0.20927829347E+02  0.20927829954E+02  0.50400000000E-02 0. -1.
         25    2    1    2    0    0  0.61112869739E+02  0.48800354566E+02  0.38762209774E+03  0.41471853745E+03  0.12499726874E+03 0.  0.
         23    2    1    2    0    0 -0.61112869739E+02 -0.48800354566E+02  0.46117280891E+03  0.47593202852E+03  0.87833243356E+02 0.  0.
        -13    1    4    4    0    0 -0.43286122422E+02 -0.89291718229E+01  0.73197482076E+02  0.85506146271E+02  0.10566000000E+00 0. -1.
         13    1    4    4    0    0 -0.17826747317E+02 -0.39871182743E+02  0.38797532684E+03  0.39042588225E+03  0.10566000000E+00 0.  1.
    9000005    1    3    3    0    0  0.48517501240E+02  0.34526552071E+02  0.39086987464E+03  0.39538119534E+03  0.10000000000E+01 0.  0.
    9000005    1    3    3    0    0  0.12595368499E+02  0.14273802495E+02 -0.32477768954E+01  0.19337342115E+02  0.10000000000E+01 0.  0.
<mgrwt>
<rscale>  0 0.13934233E+03</rscale>
<asrwt>0</asrwt>
<pdfrwt beam="2">  1        1 0.32196667E-02 0.14744685E+03</pdfrwt>
<pdfrwt beam="1">  1       -1 0.13380347E+00 0.14744685E+03</pdfrwt>
<totfact> 0.15293099E+03</totfact>
</mgrwt>
</event>
<event>
 8    3  0.1508318E-003  0.1334492E+03  0.7818608E-02  0.1235146E+00
          1   -1    0    0  501    0  0.00000000000E+00  0.00000000000E+00  0.35781505473E+03  0.35781505476E+03  0.50400000000E-02 0.  1.
         -1   -1    0    0    0  501 -0.00000000000E+00 -0.00000000000E+00 -0.42606745311E+02  0.42606745609E+02  0.50400000000E-02 0. -1.
         25    2    1    2    0    0  0.41404472498E+02 -0.21570596834E+02  0.11800649551E+03  0.17814102359E+03  0.12501628019E+03 0.  0.
         23    2    1    2    0    0 -0.41404472498E+02  0.21570596834E+02  0.19720181390E+03  0.22228077678E+03  0.91326706543E+02 0.  0.
        -13    1    4    4    0    0 -0.55052778523E+01  0.21944575151E+02  0.81513832923E+00  0.22639524671E+02  0.10566000000E+00 0. -1.
         13    1    4    4    0    0 -0.35899194646E+02 -0.37397831693E+00  0.19638667557E+03  0.19964125211E+03  0.10566000000E+00 0.  1.
    9000005    1    3    3    0    0  0.82560828328E+02 -0.79925245789E+01  0.10303721241E+03  0.13227939357E+03  0.10000000000E+01 0.  0.
    9000005    1    3    3    0    0 -0.41156355830E+02 -0.13578072256E+02  0.14969283105E+02  0.45861630020E+02  0.10000000000E+01 0.  0.
<mgrwt>
<rscale>  0 0.12495106E+03</rscale>
<asrwt>0</asrwt>
<pdfrwt beam="1">  1        1 0.55048470E-01 0.13344921E+03</pdfrwt>
<pdfrwt beam="2">  1       -1 0.65548839E-02 0.13344921E+03</pdfrwt>
<totfact> 0.77719270E+03</totfact>
</mgrwt>
</event>
<event>
 8    3  0.1508318E-003  0.1261855E+03  0.7818608E-02  0.1250361E+00
          1   -1    0    0  501    0  0.00000000000E+00  0.00000000000E+00  0.47758663040E+02  0.47758663306E+02  0.50400000000E-02 0. -1.
         -1   -1    0    0    0  501 -0.00000000000E+00 -0.00000000000E+00 -0.25387775054E+03  0.25387775059E+03  0.50400000000E-02 0.  1.
         25    2    1    2    0    0  0.75348204159E+01  0.15532466684E+02 -0.88969737677E+02  0.15439685559E+03  0.12499897501E+03 0.  0.
         23    2    1    2    0    0 -0.75348204159E+01 -0.15532466684E+02 -0.11714934982E+03  0.14723955831E+03  0.87507064437E+02 0.  0.
        -13    1    4    4    0    0  0.24802040905E+02 -0.27294569261E+02 -0.10409777469E+03  0.11043773179E+03  0.10566000000E+00 0.  1.
         13    1    4    4    0    0 -0.32336861321E+02  0.11762102577E+02 -0.13051575131E+02  0.36801826511E+02  0.10566000000E+00 0. -1.
    9000005    1    3    3    0    0 -0.44422957932E+02  0.36449911404E+01 -0.90693432415E+02  0.10105930850E+03  0.10000000000E+01 0.  0.
    9000005    1    3    3    0    0  0.51957778348E+02  0.11887475543E+02  0.17236947375E+01  0.53337547086E+02  0.10000000000E+01 0.  0.
<mgrwt>
<rscale>  0 0.11570193E+03</rscale>
<asrwt>0</asrwt>
<pdfrwt beam="1">  1        1 0.73474868E-02 0.12618548E+03</pdfrwt>
<pdfrwt beam="2">  1       -1 0.39058115E-01 0.12618548E+03</pdfrwt>
<totfact> 0.59502492E+03</totfact>
</mgrwt>
</event>
<event>
 8    3  0.1508318E-003  0.1615857E+03  0.7818608E-02  0.1195568E+00
          1   -1    0    0  501    0  0.00000000000E+00  0.00000000000E+00  0.10644793205E+03  0.10644793217E+03  0.50400000000E-02 0. -1.
         -1   -1    0    0    0  501 -0.00000000000E+00 -0.00000000000E+00 -0.20777826081E+03  0.20777826087E+03  0.50400000000E-02 0.  1.
         25    2    1    2    0    0 -0.23283811278E+00  0.10240123317E+03 -0.74925110996E+02  0.17811152577E+03  0.12499550626E+03 0.  0.
         23    2    1    2    0    0  0.23283811278E+00 -0.10240123317E+03 -0.26405217761E+02  0.13611466727E+03  0.85696559753E+02 0.  0.
        -13    1    4    4    0    0  0.18518239602E+02 -0.84958997096E+02 -0.51037181737E+02  0.10082540091E+03  0.10566000000E+00 0.  1.
         13    1    4    4    0    0 -0.18285401489E+02 -0.17442236071E+02  0.24631963976E+02  0.35289266359E+02  0.10566000000E+00 0. -1.
    9000005    1    3    3    0    0  0.40219996019E+02  0.11208828243E+03 -0.63505460774E+02  0.13496434598E+03  0.10000000000E+01 0.  0.
    9000005    1    3    3    0    0 -0.40452834132E+02 -0.96870492591E+01 -0.11419650222E+02  0.43147179790E+02  0.10000000000E+01 0.  0.
<mgrwt>
<rscale>  0 0.15406218E+03</rscale>
<asrwt>0</asrwt>
<pdfrwt beam="1">  1        1 0.16376605E-01 0.16158572E+03</pdfrwt>
<pdfrwt beam="2">  1       -1 0.31965886E-01 0.16158572E+03</pdfrwt>
<totfact> 0.29595895E+03</totfact>
</mgrwt>
</event>
<event>
 8    3  0.1508318E-003  0.2362062E+03  0.7818608E-02  0.1125194E+00
         -1   -1    0    0    0  501 -0.00000000000E+00  0.00000000000E+00  0.36836395589E+02  0.36836395934E+02  0.50400000000E-02 0. -1.
          1   -1    0    0  501    0  0.00000000000E+00 -0.00000000000E+00 -0.21214395494E+04  0.21214395494E+04  0.50400000000E-02 0.  1.
         25    2    1    2    0    0  0.16171786094E+03 -0.11838749835E+03 -0.16902112819E+04  0.17066363204E+04  0.12500034563E+03 0.  0.
         23    2    1    2    0    0 -0.16171786094E+03  0.11838749835E+03 -0.39439187190E+03  0.45163962491E+03  0.90912792572E+02 0.  0.
        -13    1    4    4    0    0 -0.38055584767E+02  0.13047960378E+02 -0.23158359528E+02  0.46419797307E+02  0.10566000000E+00 0. -1.
         13    1    4    4    0    0 -0.12366227617E+03  0.10533953797E+03 -0.37123351237E+03  0.40521982760E+03  0.10566000000E+00 0.  1.
    9000005    1    3    3    0    0  0.50037361565E+02 -0.80213061834E+02 -0.11396841511E+04  0.11435990719E+04  0.10000000000E+01 0.  0.
    9000005    1    3    3    0    0  0.11168049938E+03 -0.38174436512E+02 -0.55052713074E+03  0.56303724853E+03  0.10000000000E+01 0.  0.
<mgrwt>
<rscale>  0 0.23206601E+03</rscale>
<asrwt>0</asrwt>
<pdfrwt beam="2">  1        1 0.32637522E+00 0.23620617E+03</pdfrwt>
<pdfrwt beam="1">  1       -1 0.56671394E-02 0.23620617E+03</pdfrwt>
<totfact> 0.41231013E+02</totfact>
</mgrwt>
</event>
<event>
 8    3  0.1508318E-003  0.2094820E+03  0.7818608E-02  0.1145838E+00
          1   -1    0    0  501    0  0.00000000000E+00  0.00000000000E+00  0.37191988733E+03  0.37191988736E+03  0.50400000000E-02 0. -1.
         -1   -1    0    0    0  501 -0.00000000000E+00 -0.00000000000E+00 -0.15479778705E+03  0.15479778714E+03  0.50400000000E-02 0.  1.
         25    2    1    2    0    0  0.35423871655E+02  0.16432151191E+03 -0.32954736774E+02  0.21205835001E+03  0.12500527657E+03 0.  0.
         23    2    1    2    0    0 -0.35423871655E+02 -0.16432151191E+03  0.25007683705E+03  0.31465932449E+03  0.90640256516E+02 0.  0.
        -13    1    4    4    0    0  0.24451720042E+02 -0.97966191252E+02  0.11987371410E+03  0.15673219113E+03  0.10566000000E+00 0. -1.
         13    1    4    4    0    0 -0.59875591697E+02 -0.66355320661E+02  0.13020312295E+03  0.15792713336E+03  0.10566000000E+00 0.  1.
    9000005    1    3    3    0    0  0.55775713385E+02  0.12938755398E+03  0.23259622284E+02  0.14280784067E+03  0.10000000000E+01 0.  0.
    9000005    1    3    3    0    0 -0.20351841730E+02  0.34933957930E+02 -0.56214359058E+02  0.69250509332E+02  0.10000000000E+01 0.  0.
<mgrwt>
<rscale>  0 0.20469402E+03</rscale>
<asrwt>0</asrwt>
<pdfrwt beam="1">  1        1 0.57218443E-01 0.20948205E+03</pdfrwt>
<pdfrwt beam="2">  1       -1 0.23815045E-01 0.20948205E+03</pdfrwt>
<totfact> 0.10049789E+03</totfact>
</mgrwt>
</event>
<event>
 8    3  0.1508318E-003  0.2398438E+03  0.7818608E-02  0.1122936E+00
         -1   -1    0    0    0  501 -0.00000000000E+00  0.00000000000E+00  0.71013248622E+03  0.71013248623E+03  0.50400000000E-02 0.  1.
          1   -1    0    0  501    0  0.00000000000E+00 -0.00000000000E+00 -0.87080960604E+02  0.87080960750E+02  0.50400000000E-02 0. -1.
         25    2    1    2    0    0  0.20123803154E+03  0.37476320592E+02  0.46886054209E+03  0.52664526624E+03  0.12499523422E+03 0.  0.
         23    2    1    2    0    0 -0.20123803154E+03 -0.37476320592E+02  0.15419098352E+03  0.27056818075E+03  0.86781686379E+02 0.  0.
        -13    1    4    4    0    0 -0.66104024856E+02 -0.46178868890E+02  0.89588068082E+02  0.12053324496E+03  0.10566000000E+00 0. -1.
         13    1    4    4    0    0 -0.13513400668E+03  0.87025482983E+01  0.64602915438E+02  0.15003493579E+03  0.10566000000E+00 0.  1.
    9000005    1    3    3    0    0  0.16130808393E+03  0.38649873020E+02  0.22501688925E+03  0.27954912104E+03  0.10000000000E+01 0.  0.
    9000005    1    3    3    0    0  0.39929947610E+02 -0.11735524283E+01  0.24384365284E+03  0.24709614520E+03  0.10000000000E+01 0.  0.
<mgrwt>
<rscale>  0 0.23534103E+03</rscale>
<asrwt>0</asrwt>
<pdfrwt beam="2">  1        1 0.13397071E-01 0.23984376E+03</pdfrwt>
<pdfrwt beam="1">  1       -1 0.10925115E+00 0.23984376E+03</pdfrwt>
<totfact> 0.35798834E+02</totfact>
</mgrwt>
</event>
<event>
 8    3  0.1508318E-003  0.2046897E+03  0.7818608E-02  0.1149804E+00
          1   -1    0    0  501    0  0.00000000000E+00  0.00000000000E+00  0.16088027329E+02  0.16088028119E+02  0.50400000000E-02 0. -1.
         -1   -1    0    0    0  501 -0.00000000000E+00 -0.00000000000E+00 -0.30464205512E+04  0.30464205512E+04  0.50400000000E-02 0.  1.
         25    2    1    2    0    0  0.18403852401E+02  0.16104491173E+03 -0.22888944679E+04  0.22980286679E+04  0.12499483246E+03 0.  0.
         23    2    1    2    0    0 -0.18403852401E+02 -0.16104491173E+03 -0.74143805602E+03  0.76447991142E+03  0.91787682621E+02 0.  0.
        -13    1    4    4    0    0 -0.52142300906E+02 -0.77952714429E+02 -0.31260806966E+03  0.32637288737E+03  0.10566000000E+00 0. -1.
         13    1    4    4    0    0  0.33738448505E+02 -0.83092197300E+02 -0.42882998636E+03  0.43810702405E+03  0.10566000000E+00 0.  1.
    9000005    1    3    3    0    0  0.51853004016E+02  0.10569392591E+03 -0.19122486913E+04  0.19158695147E+04  0.10000000000E+01 0.  0.
    9000005    1    3    3    0    0 -0.33449151615E+02  0.55350985822E+02 -0.37664577660E+03  0.38215915324E+03  0.10000000000E+01 0.  0.
<mgrwt>
<rscale>  0 0.19992258E+03</rscale>
<asrwt>0</asrwt>
<pdfrwt beam="1">  1        1 0.24750836E-02 0.20468970E+03</pdfrwt>
<pdfrwt beam="2">  1       -1 0.46867963E+00 0.20468970E+03</pdfrwt>
<totfact> 0.13617563E+01</totfact>
</mgrwt>
</event>
<event>
 8    3  0.1508318E-003  0.1314568E+03  0.7818608E-02  0.1238400E+00
          1   -1    0    0  501    0  0.00000000000E+00  0.00000000000E+00  0.21511862960E+03  0.21511862966E+03  0.50400000000E-02 0. -1.
         -1   -1    0    0    0  501 -0.00000000000E+00 -0.00000000000E+00 -0.68906567808E+02  0.68906567992E+02  0.50400000000E-02 0.  1.
         25    2    1    2    0    0  0.39511653894E+02 -0.97665636652E+01  0.38955912661E+02  0.13710740959E+03  0.12499728827E+03 0.  0.
         23    2    1    2    0    0 -0.39511653894E+02  0.97665636652E+01  0.10725614913E+03  0.14691778806E+03  0.91784521364E+02 0.  0.
        -13    1    4    4    0    0 -0.13180700029E+02 -0.35693974871E+01 -0.15503237137E+02  0.20659936530E+02  0.10566000000E+00 0.  1.
         13    1    4    4    0    0 -0.26330953864E+02  0.13335961152E+02  0.12275938627E+03  0.12625785153E+03  0.10566000000E+00 0. -1.
    9000005    1    3    3    0    0 -0.41118318268E+02 -0.19669334818E+02 -0.29639010661E+01  0.45687892695E+02  0.10000000000E+01 0.  0.
    9000005    1    3    3    0    0  0.80629972162E+02  0.99027711530E+01  0.41919813727E+02  0.91419516900E+02  0.10000000000E+01 0.  0.
<mgrwt>
<rscale>  0 0.12289236E+03</rscale>
<asrwt>0</asrwt>
<pdfrwt beam="1">  1        1 0.33095174E-01 0.13145676E+03</pdfrwt>
<pdfrwt beam="2">  1       -1 0.10601010E-01 0.13145676E+03</pdfrwt>
<totfact> 0.70494817E+03</totfact>
</mgrwt>
</event>
<event>
 8    3  0.1508318E-003  0.1529690E+03  0.7818608E-02  0.1207755E+00
         -1   -1    0    0    0  501 -0.00000000000E+00  0.00000000000E+00  0.22166142179E+02  0.22166142752E+02  0.50400000000E-02 0.  1.
          1   -1    0    0  501    0  0.00000000000E+00 -0.00000000000E+00 -0.85066671485E+03  0.85066671486E+03  0.50400000000E-02 0. -1.
         25    2    1    2    0    0 -0.76912662160E+02  0.43111130415E+02 -0.42971490112E+03  0.45612982699E+03  0.12500158263E+03 0.  0.
         23    2    1    2    0    0  0.76912662160E+02 -0.43111130415E+02 -0.39878567154E+03  0.41670303062E+03  0.82687826987E+02 0.  0.
        -13    1    4    4    0    0  0.90977067886E+02 -0.37235449604E+02 -0.27617151479E+03  0.29314505340E+03  0.10566000000E+00 0.  1.
         13    1    4    4    0    0 -0.14064405726E+02 -0.58756808110E+01 -0.12261415676E+03  0.12355797722E+03  0.10566000000E+00 0. -1.
    9000005    1    3    3    0    0 -0.85879616378E+02 -0.20804616589E+02 -0.25407761529E+03  0.26900664522E+03  0.10000000000E+01 0.  0.
    9000005    1    3    3    0    0  0.89669542182E+01  0.63915747004E+02 -0.17563728583E+03  0.18712318177E+03  0.10000000000E+01 0.  0.
<mgrwt>
<rscale>  0 0.14422453E+03</rscale>
<asrwt>0</asrwt>
<pdfrwt beam="2">  1        1 0.13087178E+00 0.15296903E+03</pdfrwt>
<pdfrwt beam="1">  1       -1 0.34101764E-02 0.15296903E+03</pdfrwt>
<totfact> 0.63595024E+03</totfact>
</mgrwt>
</event>
<event>
 8    3  0.1508318E-003  0.1622373E+03  0.7818608E-02  0.1193934E+00
          1   -1    0    0  501    0  0.00000000000E+00  0.00000000000E+00  0.49497802197E+03  0.49497802199E+03  0.50400000000E-02 0. -1.
         -1   -1    0    0    0  501 -0.00000000000E+00 -0.00000000000E+00 -0.45171318207E+02  0.45171318488E+02  0.50400000000E-02 0.  1.
         25    2    1    2    0    0 -0.42603464620E+02  0.94236303776E+02  0.25039043853E+03  0.29835600185E+03  0.12500158391E+03 0.  0.
         23    2    1    2    0    0  0.42603464620E+02 -0.94236303776E+02  0.19941626523E+03  0.24179333864E+03  0.89451862057E+02 0.  0.
        -13    1    4    4    0    0  0.70371388982E+02 -0.72458197874E+02  0.15598573445E+03  0.18583294472E+03  0.10566000000E+00 0.  1.
         13    1    4    4    0    0 -0.27767924362E+02 -0.21778105902E+02  0.43430530775E+02  0.55960393918E+02  0.10566000000E+00 0. -1.
    9000005    1    3    3    0    0  0.37925911681E+02  0.40234489808E+02  0.14478613511E+03  0.15498778619E+03  0.10000000000E+01 0.  0.
    9000005    1    3    3    0    0 -0.80529376301E+02  0.54001813968E+02  0.10560430342E+03  0.14336821566E+03  0.10000000000E+01 0.  0.
<mgrwt>
<rscale>  0 0.15544794E+03</rscale>
<asrwt>0</asrwt>
<pdfrwt beam="1">  1        1 0.76150467E-01 0.16223727E+03</pdfrwt>
<pdfrwt beam="2">  1       -1 0.69494334E-02 0.16223727E+03</pdfrwt>
<totfact> 0.47613985E+03</totfact>
</mgrwt>
</event>
<event>
 8    3  0.1508318E-003  0.1339054E+03  0.7818608E-02  0.1235713E+00
         -1   -1    0    0    0  501 -0.00000000000E+00  0.00000000000E+00  0.25971339420E+02  0.25971339909E+02  0.50400000000E-02 0.  1.
          1   -1    0    0  501    0  0.00000000000E+00 -0.00000000000E+00 -0.53042777197E+03  0.53042777200E+03  0.50400000000E-02 0. -1.
         25    2    1    2    0    0  0.59220042525E+01  0.47643194282E+02 -0.27053098407E+03  0.30185704350E+03  0.12500286907E+03 0.  0.
         23    2    1    2    0    0 -0.59220042525E+01 -0.47643194282E+02 -0.23392544848E+03  0.25454206840E+03  0.88122670423E+02 0.  0.
        -13    1    4    4    0    0 -0.30164488766E+02  0.96155004014E+01 -0.12666622928E+03  0.13056300791E+03  0.10566000000E+00 0. -1.
         13    1    4    4    0    0  0.24242484514E+02 -0.57258694684E+02 -0.10725921920E+03  0.12397906049E+03  0.10566000000E+00 0.  1.
    9000005    1    3    3    0    0 -0.55799802178E+02  0.31593561534E+02 -0.90957346169E+02  0.11129245201E+03  0.10000000000E+01 0.  0.
    9000005    1    3    3    0    0  0.61721806430E+02  0.16049632748E+02 -0.17957363790E+03  0.19056459149E+03  0.10000000000E+01 0.  0.
<mgrwt>
<rscale>  0 0.12458916E+03</rscale>
<asrwt>0</asrwt>
<pdfrwt beam="2">  1        1 0.81604265E-01 0.13390542E+03</pdfrwt>
<pdfrwt beam="1">  1       -1 0.39955911E-02 0.13390542E+03</pdfrwt>
<totfact> 0.97846392E+03</totfact>
</mgrwt>
</event>
<event>
 8    3  0.1508318E-003  0.1264518E+03  0.7818608E-02  0.1247931E+00
         -1   -1    0    0    0  501 -0.00000000000E+00  0.00000000000E+00  0.25851751994E+02  0.25851752485E+02  0.50400000000E-02 0.  1.
          1   -1    0    0  501    0  0.00000000000E+00 -0.00000000000E+00 -0.54648445428E+03  0.54648445431E+03  0.50400000000E-02 0. -1.
         25    2    1    2    0    0  0.43803898575E+00 -0.19084645264E+02 -0.40288301186E+03  0.42226151350E+03  0.12500259588E+03 0.  0.
         23    2    1    2    0    0 -0.43803898575E+00  0.19084645264E+02 -0.11774969043E+03  0.15007469329E+03  0.91065956357E+02 0.  0.
        -13    1    4    4    0    0 -0.42027800990E+02  0.25667439230E+02 -0.49107834647E+02  0.69546704311E+02  0.10566000000E+00 0.  1.
         13    1    4    4    0    0  0.41589762005E+02 -0.65827939659E+01 -0.68641855783E+02  0.80527988981E+02  0.10566000000E+00 0. -1.
    9000005    1    3    3    0    0  0.55988245300E+02 -0.16034844761E+02 -0.29689928984E+03  0.30255906558E+03  0.10000000000E+01 0.  0.
    9000005    1    3    3    0    0 -0.55550206314E+02 -0.30498005029E+01 -0.10598372202E+03  0.11970244792E+03  0.10000000000E+01 0.  0.
<mgrwt>
<rscale>  0 0.11711632E+03</rscale>
<asrwt>0</asrwt>
<pdfrwt beam="2">  1        1 0.84074523E-01 0.12645183E+03</pdfrwt>
<pdfrwt beam="1">  1       -1 0.39771931E-02 0.12645183E+03</pdfrwt>
<totfact> 0.94323843E+03</totfact>
</mgrwt>
</event>
<event>
 8    3  0.1508318E-003  0.1344579E+03  0.7818608E-02  0.1233985E+00
         -1   -1    0    0    0  501 -0.00000000000E+00  0.00000000000E+00  0.91627809007E+03  0.91627809008E+03  0.50400000000E-02 0.  1.
          1   -1    0    0  501    0  0.00000000000E+00 -0.00000000000E+00 -0.15614921991E+02  0.15614922804E+02  0.50400000000E-02 0. -1.
         25    2    1    2    0    0  0.46806019921E+02  0.16208952783E+02  0.57037221887E+03  0.58600630155E+03  0.12500153500E+03 0.  0.
         23    2    1    2    0    0 -0.46806019921E+02 -0.16208952783E+02  0.33029094921E+03  0.34588671134E+03  0.89955390587E+02 0.  0.
        -13    1    4    4    0    0 -0.15371819043E+02 -0.43321018749E+02  0.80753657912E+02  0.92920223398E+02  0.10566000000E+00 0. -1.
         13    1    4    4    0    0 -0.31434200878E+02  0.27112065966E+02  0.24953729130E+03  0.25296648794E+03  0.10566000000E+00 0.  1.
    9000005    1    3    3    0    0 -0.41550000053E+02  0.18681824993E+02  0.17089577914E+03  0.17686656105E+03  0.10000000000E+01 0.  0.
    9000005    1    3    3    0    0  0.88356019975E+02 -0.24728722108E+01  0.39947643972E+03  0.40913974050E+03  0.10000000000E+01 0.  0.
<mgrwt>
<rscale>  0 0.12569647E+03</rscale>
<asrwt>0</asrwt>
<pdfrwt beam="2">  1        1 0.24022952E-02 0.13445786E+03</pdfrwt>
<pdfrwt beam="1">  1       -1 0.14096589E+00 0.13445786E+03</pdfrwt>
<totfact> 0.20087246E+03</totfact>
</mgrwt>
</event>
<event>
 8    3  0.1508318E-003  0.1389360E+03  0.7818608E-02  0.1228914E+00
         -1   -1    0    0    0  501 -0.00000000000E+00  0.00000000000E+00  0.87200867289E+01  0.87200881854E+01  0.50400000000E-02 0.  1.
          1   -1    0    0  501    0  0.00000000000E+00 -0.00000000000E+00 -0.16946532843E+04  0.16946532844E+04  0.50400000000E-02 0. -1.
         25    2    1    2    0    0  0.28562641023E+02 -0.53504989955E+02 -0.10368883337E+04  0.10461551636E+04  0.12499840498E+03 0.  0.
         23    2    1    2    0    0 -0.28562641023E+02  0.53504989955E+02 -0.64904486387E+03  0.65721820894E+03  0.83653633730E+02 0.  0.
        -13    1    4    4    0    0 -0.35316180777E+02 -0.79584460591E+01 -0.34871445391E+03  0.35058857799E+03  0.10566000000E+00 0. -1.
         13    1    4    4    0    0  0.67535397539E+01  0.61463436014E+02 -0.30033040996E+03  0.30662963095E+03  0.10566000000E+00 0.  1.
    9000005    1    3    3    0    0  0.67687375293E+02 -0.63509190532E+01 -0.73319781216E+03  0.73634363357E+03  0.10000000000E+01 0.  0.
    9000005    1    3    3    0    0 -0.39124734269E+02 -0.47154070902E+02 -0.30369052159E+03  0.30981153003E+03  0.10000000000E+01 0.  0.
<mgrwt>
<rscale>  0 0.12902233E+03</rscale>
<asrwt>0</asrwt>
<pdfrwt beam="2">  1        1 0.26071563E+00 0.13893599E+03</pdfrwt>
<pdfrwt beam="1">  1       -1 0.13415533E-02 0.13893599E+03</pdfrwt>
<totfact> 0.64299870E+03</totfact>
</mgrwt>
</event>
<event>
 8    3  0.1508318E-003  0.1345051E+03  0.7818608E-02  0.1233454E+00
          1   -1    0    0  501    0  0.00000000000E+00  0.00000000000E+00  0.12345570410E+04  0.12345570410E+04  0.50400000000E-02 0. -1.
         -1   -1    0    0    0  501 -0.00000000000E+00 -0.00000000000E+00 -0.13064304264E+02  0.13064305236E+02  0.50400000000E-02 0.  1.
         25    2    1    2    0    0 -0.40892999206E+02 -0.28180104813E+02  0.89509281227E+03  0.90514239818E+03  0.12500105082E+03 0.  0.
         23    2    1    2    0    0  0.40892999206E+02  0.28180104813E+02  0.32639992449E+03  0.34247894809E+03  0.91041548148E+02 0.  0.
        -13    1    4    4    0    0  0.63161795483E+02 -0.49680094323E+01  0.21482459367E+03  0.22397256693E+03  0.10566000000E+00 0.  1.
         13    1    4    4    0    0 -0.22268796277E+02  0.33148114245E+02  0.11157533082E+03  0.11850638116E+03  0.10566000000E+00 0. -1.
    9000005    1    3    3    0    0 -0.45170179371E+02  0.73555813488E+00  0.85119557698E+03  0.85239415555E+03  0.10000000000E+01 0.  0.
    9000005    1    3    3    0    0  0.42771801648E+01 -0.28915662947E+02  0.43897235296E+02  0.52748242630E+02  0.10000000000E+01 0.  0.
<mgrwt>
<rscale>  0 0.12603899E+03</rscale>
<asrwt>0</asrwt>
<pdfrwt beam="1">  1        1 0.18993195E+00 0.13450509E+03</pdfrwt>
<pdfrwt beam="2">  1       -1 0.20098920E-02 0.13450509E+03</pdfrwt>
<totfact> 0.71775951E+03</totfact>
</mgrwt>
</event>
<event>
 8    3  0.1508318E-003  0.1314753E+03  0.7818608E-02  0.1238594E+00
          1   -1    0    0  501    0  0.00000000000E+00  0.00000000000E+00  0.25292541015E+04  0.25292541015E+04  0.50400000000E-02 0. -1.
         -1   -1    0    0    0  501 -0.00000000000E+00 -0.00000000000E+00 -0.52959863338E+01  0.52959887320E+01  0.50400000000E-02 0.  1.
         25    2    1    2    0    0 -0.37451297712E+02  0.16047756614E+02  0.14130862615E+04  0.14191893977E+04  0.12500253633E+03 0.  0.
         23    2    1    2    0    0  0.37451297712E+02 -0.16047756614E+02  0.11108718537E+04  0.11153606925E+04  0.91285644306E+02 0.  0.
        -13    1    4    4    0    0  0.24870484648E+02  0.89801066001E+01  0.83064898060E+02  0.87172081396E+02  0.10566000000E+00 0.  1.
         13    1    4    4    0    0  0.12580813064E+02 -0.25027863214E+02  0.10278069556E+04  0.10281886111E+04  0.10566000000E+00 0. -1.
    9000005    1    3    3    0    0  0.44068018000E+02  0.88691736194E+01  0.69535375817E+03  0.69680592811E+03  0.10000000000E+01 0.  0.
    9000005    1    3    3    0    0 -0.81519315711E+02  0.71785829941E+01  0.71773250328E+03  0.72238346960E+03  0.10000000000E+01 0.  0.
<mgrwt>
<rscale>  0 0.12277114E+03</rscale>
<asrwt>0</asrwt>
<pdfrwt beam="1">  1        1 0.38911662E+00 0.13147534E+03</pdfrwt>
<pdfrwt beam="2">  1       -1 0.81476606E-03 0.13147534E+03</pdfrwt>
<totfact> 0.38219843E+03</totfact>
</mgrwt>
</event>
<event>
 8    3  0.1508318E-003  0.1532232E+03  0.7818608E-02  0.1204033E+00
          1   -1    0    0  501    0  0.00000000000E+00  0.00000000000E+00  0.73779533546E+02  0.73779533718E+02  0.50400000000E-02 0. -1.
         -1   -1    0    0    0  501 -0.00000000000E+00 -0.00000000000E+00 -0.36017475717E+03  0.36017475720E+03  0.50400000000E-02 0.  1.
         25    2    1    2    0    0  0.67200825488E+02  0.57771517349E+02 -0.25881369359E+03  0.30076878563E+03  0.12499534095E+03 0.  0.
         23    2    1    2    0    0 -0.67200825488E+02 -0.57771517349E+02 -0.27581530037E+02  0.13318550529E+03  0.95520358343E+02 0.  0.
        -13    1    4    4    0    0 -0.31580261374E+02 -0.65356168095E+02 -0.52041669094E+02  0.89314545862E+02  0.10566000000E+00 0.  1.
         13    1    4    4    0    0 -0.35620564114E+02  0.75846507462E+01  0.24460139056E+02  0.43870959431E+02  0.10566000000E+00 0. -1.
    9000005    1    3    3    0    0  0.48777773373E+01  0.20809416167E+02  0.90823477852E+01  0.23244645711E+02  0.10000000000E+01 0.  0.
    9000005    1    3    3    0    0  0.62323048151E+02  0.36962101182E+02 -0.26789604137E+03  0.27752413992E+03  0.10000000000E+01 0.  0.
<mgrwt>
<rscale>  0 0.14713905E+03</rscale>
<asrwt>0</asrwt>
<pdfrwt beam="1">  1        1 0.11350698E-01 0.15322315E+03</pdfrwt>
<pdfrwt beam="2">  1       -1 0.55411500E-01 0.15322315E+03</pdfrwt>
<totfact> 0.17929730E+03</totfact>
</mgrwt>
</event>
<event>
 8    3  0.1508318E-003  0.1541555E+03  0.7818608E-02  0.1203658E+00
          1   -1    0    0  501    0  0.00000000000E+00  0.00000000000E+00  0.12045045703E+04  0.12045045703E+04  0.50400000000E-02 0. -1.
         -1   -1    0    0    0  501 -0.00000000000E+00 -0.00000000000E+00 -0.18383716842E+02  0.18383717533E+02  0.50400000000E-02 0.  1.
         25    2    1    2    0    0 -0.42311880379E+02  0.79677870505E+02  0.82841453227E+03  0.84263547986E+03  0.12500022547E+03 0.  0.
         23    2    1    2    0    0  0.42311880379E+02 -0.79677870505E+02  0.35770632122E+03  0.38025280802E+03  0.92192882023E+02 0.  0.
        -13    1    4    4    0    0  0.39962882427E+02 -0.69870212479E+02  0.13398152154E+03  0.15630079284E+03  0.10566000000E+00 0.  1.
         13    1    4    4    0    0  0.23489979523E+01 -0.98076580263E+01  0.22372479968E+03  0.22395201518E+03  0.10566000000E+00 0. -1.
    9000005    1    3    3    0    0  0.19163277771E+02 -0.19884545016E+02  0.30752066256E+03  0.30875975166E+03  0.10000000000E+01 0.  0.
    9000005    1    3    3    0    0 -0.61475158150E+02  0.99562415521E+02  0.52089386972E+03  0.53387572820E+03  0.10000000000E+01 0.  0.
<mgrwt>
<rscale>  0 0.14743756E+03</rscale>
<asrwt>0</asrwt>
<pdfrwt beam="1">  1        1 0.18530845E+00 0.15415549E+03</pdfrwt>
<pdfrwt beam="2">  1       -1 0.28282633E-02 0.15415549E+03</pdfrwt>
<totfact> 0.46084710E+03</totfact>
</mgrwt>
</event>
<event>
 8    3  0.1508318E-003  0.1807122E+03  0.7818608E-02  0.1172490E+00
         -1   -1    0    0    0  501 -0.00000000000E+00  0.00000000000E+00  0.16993832797E+03  0.16993832805E+03  0.50400000000E-02 0.  1.
          1   -1    0    0  501    0  0.00000000000E+00 -0.00000000000E+00 -0.17063892998E+03  0.17063893005E+03  0.50400000000E-02 0. -1.
         25    2    1    2    0    0  0.67209805815E+02  0.11186954650E+03 -0.36826148419E+01  0.18074972699E+03  0.12499979489E+03 0.  0.
         23    2    1    2    0    0 -0.67209805815E+02 -0.11186954650E+03  0.29820128368E+01  0.15982753111E+03  0.92217101827E+02 0.  0.
        -13    1    4    4    0    0 -0.53177898335E+02 -0.11512880974E+03  0.28997333565E+02  0.13008992359E+03  0.10566000000E+00 0.  1.
         13    1    4    4    0    0 -0.14031907480E+02  0.32592632369E+01 -0.26015320728E+02  0.29737607520E+02  0.10566000000E+00 0. -1.
    9000005    1    3    3    0    0 -0.34483686320E+02  0.49933880207E+02  0.74918988009E+01  0.61152641500E+02  0.10000000000E+01 0.  0.
    9000005    1    3    3    0    0  0.10169349214E+03  0.61935666291E+02 -0.11174513643E+02  0.11959708549E+03  0.10000000000E+01 0.  0.
<mgrwt>
<rscale>  0 0.17524055E+03</rscale>
<asrwt>0</asrwt>
<pdfrwt beam="2">  1        1 0.26252143E-01 0.18071221E+03</pdfrwt>
<pdfrwt beam="1">  1       -1 0.26144358E-01 0.18071221E+03</pdfrwt>
<totfact> 0.22817531E+03</totfact>
</mgrwt>
</event>
<event>
 8    3  0.1508318E-003  0.1457481E+03  0.7818608E-02  0.1215352E+00
          1   -1    0    0  501    0  0.00000000000E+00  0.00000000000E+00  0.17491968865E+03  0.17491968872E+03  0.50400000000E-02 0.  1.
         -1   -1    0    0    0  501 -0.00000000000E+00 -0.00000000000E+00 -0.10493447893E+03  0.10493447905E+03  0.50400000000E-02 0. -1.
         25    2    1    2    0    0 -0.20323841542E+02  0.72143340523E+02  0.84326958296E+01  0.14599182734E+03  0.12499913269E+03 0.  0.
         23    2    1    2    0    0  0.20323841542E+02 -0.72143340523E+02  0.61552513891E+02  0.13386234044E+03  0.92264262332E+02 0.  0.
        -13    1    4    4    0    0  0.17719986132E+02 -0.52135715007E+02  0.86028424299E+02  0.10214221282E+03  0.10566000000E+00 0.  1.
         13    1    4    4    0    0  0.26038554098E+01 -0.20007625516E+02 -0.24475910408E+02  0.31720127618E+02  0.10566000000E+00 0. -1.
    9000005    1    3    3    0    0 -0.22227398520E+02  0.45626137986E+02  0.65594378855E+02  0.82942294698E+02  0.10000000000E+01 0.  0.
    9000005    1    3    3    0    0  0.19035569780E+01  0.26517202536E+02 -0.57161683025E+02  0.63049532637E+02  0.10000000000E+01 0.  0.
<mgrwt>
<rscale>  0 0.13850693E+03</rscale>
<asrwt>0</asrwt>
<pdfrwt beam="1">  1        1 0.26910721E-01 0.14574808E+03</pdfrwt>
<pdfrwt beam="2">  1       -1 0.16143766E-01 0.14574808E+03</pdfrwt>
<totfact> 0.47769117E+03</totfact>
</mgrwt>
</event>
<event>
 8    3  0.1508318E-003  0.1354255E+03  0.7818608E-02  0.1231609E+00
         -1   -1    0    0    0  501 -0.00000000000E+00  0.00000000000E+00  0.12500810257E+03  0.12500810267E+03  0.50400000000E-02 0.  1.
          1   -1    0    0  501    0  0.00000000000E+00 -0.00000000000E+00 -0.11674259450E+03  0.11674259461E+03  0.50400000000E-02 0. -1.
         25    2    1    2    0    0  0.34478412409E+02 -0.38947623883E+02  0.13427591272E+02  0.13608956429E+03  0.12503755825E+03 0.  0.
         23    2    1    2    0    0 -0.34478412409E+02  0.38947623883E+02 -0.51620832016E+01  0.10566113299E+03  0.91825647800E+02 0.  0.
        -13    1    4    4    0    0 -0.64912629152E+01  0.58927453461E+02 -0.26770649884E+02  0.65048136983E+02  0.10566000000E+00 0. -1.
         13    1    4    4    0    0 -0.27987149493E+02 -0.19979829578E+02  0.21608566683E+02  0.40612996009E+02  0.10566000000E+00 0.  1.
    9000005    1    3    3    0    0 -0.37272036053E+02 -0.90650076238E+01 -0.28475760657E+02  0.47783344167E+02  0.10000000000E+01 0.  0.
    9000005    1    3    3    0    0  0.71750448462E+02 -0.29882616259E+02  0.41903351929E+02  0.88306220120E+02  0.10000000000E+01 0.  0.
<mgrwt>
<rscale>  0 0.12724023E+03</rscale>
<asrwt>0</asrwt>
<pdfrwt beam="2">  1        1 0.17960399E-01 0.13542551E+03</pdfrwt>
<pdfrwt beam="1">  1       -1 0.19232016E-01 0.13542551E+03</pdfrwt>
<totfact> 0.60067566E+03</totfact>
</mgrwt>
</event>
<event>
 8    3  0.1508318E-003  0.1261857E+03  0.7818608E-02  0.1248569E+00
          1   -1    0    0  501    0  0.00000000000E+00  0.00000000000E+00  0.28449099483E+03  0.28449099487E+03  0.50400000000E-02 0. -1.
         -1   -1    0    0    0  501 -0.00000000000E+00 -0.00000000000E+00 -0.44512714102E+02  0.44512714387E+02  0.50400000000E-02 0.  1.
         25    2    1    2    0    0 -0.16079901249E+02 -0.62686523513E+01  0.98858844314E+02  0.16029944838E+03  0.12499993130E+03 0.  0.
         23    2    1    2    0    0  0.16079901249E+02  0.62686523513E+01  0.14111943641E+03  0.16870426088E+03  0.90821655349E+02 0.  0.
        -13    1    4    4    0    0  0.16102998807E+02  0.37536301236E+02  0.12875880321E+03  0.13508190497E+03  0.10566000000E+00 0. -1.
         13    1    4    4    0    0 -0.23097558022E-01 -0.31267648885E+02  0.12360633203E+02  0.33622355918E+02  0.10566000000E+00 0.  1.
    9000005    1    3    3    0    0 -0.43817333751E+02 -0.43147234125E+02  0.96055330439E+02  0.11405818276E+03  0.10000000000E+01 0.  0.
    9000005    1    3    3    0    0  0.27737432502E+02  0.36878581774E+02  0.28035138750E+01  0.46241265613E+02  0.10000000000E+01 0.  0.
<mgrwt>
<rscale>  0 0.11674299E+03</rscale>
<asrwt>0</asrwt>
<pdfrwt beam="1">  1        1 0.43767844E-01 0.12618574E+03</pdfrwt>
<pdfrwt beam="2">  1       -1 0.68481100E-02 0.12618574E+03</pdfrwt>
<totfact> 0.96337446E+03</totfact>
</mgrwt>
</event>
<event>
 8    3  0.1508318E-003  0.1450549E+03  0.7818608E-02  0.1216124E+00
         -1   -1    0    0    0  501 -0.00000000000E+00  0.00000000000E+00  0.25063522657E+02  0.25063523164E+02  0.50400000000E-02 0.  1.
          1   -1    0    0  501    0  0.00000000000E+00 -0.00000000000E+00 -0.83724513548E+03  0.83724513549E+03  0.50400000000E-02 0. -1.
         25    2    1    2    0    0 -0.69160238212E+02 -0.25186080657E+02 -0.61767927120E+03  0.63448295281E+03  0.12499383238E+03 0.  0.
         23    2    1    2    0    0  0.69160238212E+02  0.25186080657E+02 -0.19450234163E+03  0.22782570585E+03  0.93037165365E+02 0.  0.
        -13    1    4    4    0    0  0.12600608152E+02  0.66259549693E+01  0.82917089818E+01  0.16475503237E+02  0.10566000000E+00 0.  1.
         13    1    4    4    0    0  0.56559630060E+02  0.18560125688E+02 -0.20279405061E+03  0.21135020261E+03  0.10566000000E+00 0. -1.
    9000005    1    3    3    0    0 -0.75605173942E+02  0.29721579014E+02 -0.25546376799E+03  0.26807135494E+03  0.10000000000E+01 0.  0.
    9000005    1    3    3    0    0  0.64449357309E+01 -0.54907659671E+02 -0.36221550321E+03  0.36641159787E+03  0.10000000000E+01 0.  0.
<mgrwt>
<rscale>  0 0.13794286E+03</rscale>
<asrwt>0</asrwt>
<pdfrwt beam="2">  1        1 0.12880692E+00 0.14505494E+03</pdfrwt>
<pdfrwt beam="1">  1       -1 0.38559273E-02 0.14505494E+03</pdfrwt>
<totfact> 0.54297621E+03</totfact>
</mgrwt>
</event>
<event>
 8    3  0.1508318E-003  0.1565983E+03  0.7818608E-02  0.1201588E+00
          1   -1    0    0  501    0  0.00000000000E+00  0.00000000000E+00  0.65306309411E+03  0.65306309413E+03  0.50400000000E-02 0. -1.
         -1   -1    0    0    0  501 -0.00000000000E+00 -0.00000000000E+00 -0.31893392423E+02  0.31893392821E+02  0.50400000000E-02 0.  1.
         25    2    1    2    0    0 -0.25373519664E+00 -0.94306671540E+02  0.39217426258E+03  0.42228390285E+03  0.12501691762E+03 0.  0.
         23    2    1    2    0    0  0.25373519664E+00  0.94306671540E+02  0.22899543910E+03  0.26267258410E+03  0.87545203361E+02 0.  0.
        -13    1    4    4    0    0 -0.13499058707E+02  0.60551024360E+02  0.21476105348E+03  0.22354188062E+03  0.10566000000E+00 0. -1.
         13    1    4    4    0    0  0.13752793904E+02  0.33755647180E+02  0.14234385621E+02  0.39130703479E+02  0.10566000000E+00 0.  1.
    9000005    1    3    3    0    0 -0.41440266866E+02 -0.92112109214E+02  0.34562518144E+03  0.36008291049E+03  0.10000000000E+01 0.  0.
    9000005    1    3    3    0    0  0.41186531669E+02 -0.21945623253E+01  0.46549081149E+02  0.62200992360E+02  0.10000000000E+01 0.  0.
<mgrwt>
<rscale>  0 0.14909610E+03</rscale>
<asrwt>0</asrwt>
<pdfrwt beam="1">  1        1 0.10047124E+00 0.15659835E+03</pdfrwt>
<pdfrwt beam="2">  1       -1 0.49066762E-02 0.15659835E+03</pdfrwt>
<totfact> 0.54969560E+03</totfact>
</mgrwt>
</event>
<event>
 8    3  0.1508318E-003  0.1286380E+03  0.7818608E-02  0.1243188E+00
          1   -1    0    0  501    0  0.00000000000E+00  0.00000000000E+00  0.12130073589E+04  0.12130073589E+04  0.50400000000E-02 0. -1.
         -1   -1    0    0    0  501 -0.00000000000E+00 -0.00000000000E+00 -0.14346759088E+02  0.14346759974E+02  0.50400000000E-02 0.  1.
         25    2    1    2    0    0 -0.28441864528E+02 -0.10627073654E+02  0.97529722482E+03  0.98374407708E+03  0.12500343237E+03 0.  0.
         23    2    1    2    0    0  0.28441864528E+02  0.10627073654E+02  0.22336337502E+03  0.24361004182E+03  0.92373052492E+02 0.  0.
        -13    1    4    4    0    0 -0.24764072152E+02 -0.15581622818E+02  0.32435724376E+02  0.43682188807E+02  0.10566000000E+00 0.  1.
         13    1    4    4    0    0  0.53205936680E+02  0.26208696471E+02  0.19092765064E+03  0.19992785302E+03  0.10566000000E+00 0. -1.
    9000005    1    3    3    0    0 -0.23949473029E+02  0.53951062496E+02  0.33304858054E+03  0.33824052300E+03  0.10000000000E+01 0.  0.
    9000005    1    3    3    0    0 -0.44923914991E+01 -0.64578136149E+02  0.64224864428E+03  0.64550355408E+03  0.10000000000E+01 0.  0.
<mgrwt>
<rscale>  0 0.11994514E+03</rscale>
<asrwt>0</asrwt>
<pdfrwt beam="1">  1        1 0.18661654E+00 0.12863799E+03</pdfrwt>
<pdfrwt beam="2">  1       -1 0.22071936E-02 0.12863799E+03</pdfrwt>
<totfact> 0.64726731E+03</totfact>
</mgrwt>
</event>
<event>
 8    3  0.1508318E-003  0.1263408E+03  0.7818608E-02  0.1249067E+00
          1   -1    0    0  501    0  0.00000000000E+00  0.00000000000E+00  0.65378935015E+03  0.65378935017E+03  0.50400000000E-02 0. -1.
         -1   -1    0    0    0  501 -0.00000000000E+00 -0.00000000000E+00 -0.20252561926E+02  0.20252562553E+02  0.50400000000E-02 0.  1.
         25    2    1    2    0    0  0.14987442246E+02  0.10596571764E+02  0.25378591322E+03  0.28349478863E+03  0.12500037870E+03 0.  0.
         23    2    1    2    0    0 -0.14987442246E+02 -0.10596571764E+02  0.37975087500E+03  0.39054712409E+03  0.89327589863E+02 0.  0.
        -13    1    4    4    0    0 -0.37022590984E+02 -0.39704514743E+02  0.20884814892E+03  0.21578851037E+03  0.10566000000E+00 0.  1.
         13    1    4    4    0    0  0.22035148737E+02  0.29107942979E+02  0.17090272608E+03  0.17475861372E+03  0.10566000000E+00 0. -1.
    9000005    1    3    3    0    0 -0.21931328208E+02 -0.21764770889E+02  0.22387150893E+03  0.22599588695E+03  0.10000000000E+01 0.  0.
    9000005    1    3    3    0    0  0.36918770455E+02  0.32361342653E+02  0.29914404288E+02  0.57498901677E+02  0.10000000000E+01 0.  0.
<mgrwt>
<rscale>  0 0.11645262E+03</rscale>
<asrwt>0</asrwt>
<pdfrwt beam="1">  1        1 0.10058298E+00 0.12634083E+03</pdfrwt>
<pdfrwt beam="2">  1       -1 0.31157786E-02 0.12634083E+03</pdfrwt>
<totfact> 0.10560750E+04</totfact>
</mgrwt>
</event>
<event>
 8    3  0.1508318E-003  0.1322226E+03  0.7818608E-02  0.1236970E+00
          1   -1    0    0  501    0  0.00000000000E+00  0.00000000000E+00  0.57395667117E+02  0.57395667338E+02  0.50400000000E-02 0. -1.
         -1   -1    0    0    0  501 -0.00000000000E+00 -0.00000000000E+00 -0.23811963897E+03  0.23811963902E+03  0.50400000000E-02 0.  1.
         25    2    1    2    0    0 -0.25322280509E+02  0.34877355894E+02 -0.10170096092E+03  0.16681100036E+03  0.12500070618E+03 0.  0.
         23    2    1    2    0    0  0.25322280509E+02 -0.34877355894E+02 -0.79023010927E+02  0.12870430599E+03  0.91991925087E+02 0.  0.
        -13    1    4    4    0    0  0.29174673437E+02 -0.55885546981E+02 -0.20320110143E+02  0.66236500298E+02  0.10566000000E+00 0. -1.
         13    1    4    4    0    0 -0.38523929281E+01  0.21008191087E+02 -0.58702900784E+02  0.62467805696E+02  0.10566000000E+00 0.  1.
    9000005    1    3    3    0    0  0.11087348080E+02  0.55544930494E+02  0.18952581908E+00  0.56649841227E+02  0.10000000000E+01 0.  0.
    9000005    1    3    3    0    0 -0.36409628589E+02 -0.20667574600E+02 -0.10189048674E+03  0.11016115914E+03  0.10000000000E+01 0.  0.
<mgrwt>
<rscale>  0 0.12379131E+03</rscale>
<asrwt>0</asrwt>
<pdfrwt beam="1">  1        1 0.88301028E-02 0.13222263E+03</pdfrwt>
<pdfrwt beam="2">  1       -1 0.36633790E-01 0.13222263E+03</pdfrwt>
<totfact> 0.52168442E+03</totfact>
</mgrwt>
</event>
<event>
 8    3  0.1508318E-003  0.1321871E+03  0.7818608E-02  0.1237833E+00
          1   -1    0    0  501    0  0.00000000000E+00  0.00000000000E+00  0.94517047469E+03  0.94517047470E+03  0.50400000000E-02 0. -1.
         -1   -1    0    0    0  501 -0.00000000000E+00 -0.00000000000E+00 -0.16907736269E+02  0.16907737020E+02  0.50400000000E-02 0.  1.
         25    2    1    2    0    0 -0.36021446440E+02 -0.23482900577E+02  0.32927611218E+03  0.35481851889E+03  0.12499772826E+03 0.  0.
         23    2    1    2    0    0  0.36021446440E+02  0.23482900577E+02  0.59898662624E+03  0.60725969283E+03  0.90168536101E+02 0.  0.
        -13    1    4    4    0    0  0.17942558038E+02 -0.65819287012E+01  0.21733673597E+02  0.28941681126E+02  0.10566000000E+00 0.  1.
         13    1    4    4    0    0  0.18078888402E+02  0.30064829278E+02  0.57725295264E+03  0.57831801171E+03  0.10566000000E+00 0. -1.
    9000005    1    3    3    0    0  0.37446238225E+02 -0.41090029684E+02  0.16183300151E+03  0.17111847263E+03  0.10000000000E+01 0.  0.
    9000005    1    3    3    0    0 -0.73467684665E+02  0.17607129107E+02  0.16744311067E+03  0.18370004626E+03  0.10000000000E+01 0.  0.
<mgrwt>
<rscale>  0 0.12324791E+03</rscale>
<asrwt>0</asrwt>
<pdfrwt beam="1">  1        1 0.14541088E+00 0.13218708E+03</pdfrwt>
<pdfrwt beam="2">  1       -1 0.26011895E-02 0.13218708E+03</pdfrwt>
<totfact> 0.79216044E+03</totfact>
</mgrwt>
</event>
<event>
 8    3  0.1508318E-003  0.1260076E+03  0.7818608E-02  0.1249403E+00
          1   -1    0    0  501    0  0.00000000000E+00  0.00000000000E+00  0.38431185503E+03  0.38431185506E+03  0.50400000000E-02 0. -1.
         -1   -1    0    0    0  501 -0.00000000000E+00 -0.00000000000E+00 -0.41325731646E+02  0.41325731954E+02  0.50400000000E-02 0.  1.
         25    2    1    2    0    0 -0.14532113367E+02 -0.65439548621E+01  0.85063960189E+02  0.15203218089E+03  0.12499560408E+03 0.  0.
         23    2    1    2    0    0  0.14532113367E+02  0.65439548621E+01  0.25792216319E+03  0.27360540612E+03  0.89900335534E+02 0.  0.
        -13    1    4    4    0    0  0.16556879012E+02  0.43485505083E+02  0.86343827969E+02  0.98083572464E+02  0.10566000000E+00 0. -1.
         13    1    4    4    0    0 -0.20247656447E+01 -0.36941550220E+02  0.17157833522E+03  0.17552183366E+03  0.10566000000E+00 0.  1.
    9000005    1    3    3    0    0 -0.10236046278E+01  0.31775841422E+02  0.10285823245E+03  0.10766414374E+03  0.10000000000E+01 0.  0.
    9000005    1    3    3    0    0 -0.13508508739E+02 -0.38319796285E+02 -0.17794272260E+02  0.44368037154E+02  0.10000000000E+01 0.  0.
<mgrwt>
<rscale>  0 0.11625662E+03</rscale>
<asrwt>0</asrwt>
<pdfrwt beam="1">  1        1 0.59124902E-01 0.12600757E+03</pdfrwt>
<pdfrwt beam="2">  1       -1 0.63578048E-02 0.12600757E+03</pdfrwt>
<totfact> 0.74099777E+03</totfact>
</mgrwt>
</event>
<event>
 8    3  0.1508318E-003  0.1570409E+03  0.7818608E-02  0.1201421E+00
          1   -1    0    0  501    0  0.00000000000E+00  0.00000000000E+00  0.75669976926E+02  0.75669977094E+02  0.50400000000E-02 0. -1.
         -1   -1    0    0    0  501 -0.00000000000E+00 -0.00000000000E+00 -0.50739121302E+03  0.50739121304E+03  0.50400000000E-02 0.  1.
         25    2    1    2    0    0 -0.48417470856E+02 -0.81807237712E+02 -0.27999821226E+02  0.15951752244E+03  0.12500069740E+03 0.  0.
         23    2    1    2    0    0  0.48417470856E+02  0.81807237712E+02 -0.40372141486E+03  0.42354366770E+03  0.85799661994E+02 0.  0.
        -13    1    4    4    0    0  0.25586028841E+02  0.11390400088E+02 -0.26347793982E+03  0.26496230302E+03  0.10566000000E+00 0.  1.
         13    1    4    4    0    0  0.22831442015E+02  0.70416837624E+02 -0.14024347504E+03  0.15858136467E+03  0.10566000000E+00 0. -1.
    9000005    1    3    3    0    0 -0.20530299482E+02  0.32974108103E+02 -0.88428050697E+01  0.39849469300E+02  0.10000000000E+01 0.  0.
    9000005    1    3    3    0    0 -0.27887171374E+02 -0.11478134581E+03 -0.19157016156E+02  0.11966805314E+03  0.10000000000E+01 0.  0.
<mgrwt>
<rscale>  0 0.14923110E+03</rscale>
<asrwt>0</asrwt>
<pdfrwt beam="1">  1        1 0.11641535E-01 0.15704092E+03</pdfrwt>
<pdfrwt beam="2">  1       -1 0.78060185E-01 0.15704092E+03</pdfrwt>
<totfact> 0.88936431E+02</totfact>
</mgrwt>
</event>
<event>
 8    3  0.1508318E-003  0.1288107E+03  0.7818608E-02  0.1243596E+00
         -1   -1    0    0    0  501 -0.00000000000E+00  0.00000000000E+00  0.16158776991E+02  0.16158777777E+02  0.50400000000E-02 0.  1.
          1   -1    0    0  501    0  0.00000000000E+00 -0.00000000000E+00 -0.10853530324E+04  0.10853530324E+04  0.50400000000E-02 0. -1.
         25    2    1    2    0    0  0.22799177674E+02  0.21147162192E+02 -0.30192690540E+03  0.32825607804E+03  0.12500076639E+03 0.  0.
         23    2    1    2    0    0 -0.22799177674E+02 -0.21147162192E+02 -0.76726734997E+03  0.77325573210E+03  0.90874836618E+02 0.  0.
        -13    1    4    4    0    0  0.31427939303E+01  0.54252652176E+01 -0.65451881897E+03  0.65454885700E+03  0.10566000000E+00 0. -1.
         13    1    4    4    0    0 -0.25941971604E+02 -0.26572427409E+02 -0.11274853100E+03  0.11870687510E+03  0.10566000000E+00 0.  1.
    9000005    1    3    3    0    0 -0.20157635087E+02  0.26988014134E+02 -0.13043309591E+02  0.36136008140E+02  0.10000000000E+01 0.  0.
    9000005    1    3    3    0    0  0.42956812762E+02 -0.58408519425E+01 -0.28888359581E+03  0.29212006990E+03  0.10000000000E+01 0.  0.
<mgrwt>
<rscale>  0 0.11969780E+03</rscale>
<asrwt>0</asrwt>
<pdfrwt beam="2">  1        1 0.16697733E+00 0.12881070E+03</pdfrwt>
<pdfrwt beam="1">  1       -1 0.24859666E-02 0.12881070E+03</pdfrwt>
<totfact> 0.66814208E+03</totfact>
</mgrwt>
</event>
<event>
 8    3  0.1508318E-003  0.1827055E+03  0.7818608E-02  0.1170337E+00
          1   -1    0    0  501    0  0.00000000000E+00  0.00000000000E+00  0.10665395548E+04  0.10665395548E+04  0.50400000000E-02 0. -1.
         -1   -1    0    0    0  501 -0.00000000000E+00 -0.00000000000E+00 -0.28816734608E+02  0.28816735048E+02  0.50400000000E-02 0.  1.
         25    2    1    2    0    0  0.10143350792E+03  0.86413452315E+02  0.45191079001E+03  0.48744709334E+03  0.12500106163E+03 0.  0.
         23    2    1    2    0    0 -0.10143350792E+03 -0.86413452315E+02  0.58581203022E+03  0.60790919656E+03  0.92853730351E+02 0.  0.
        -13    1    4    4    0    0 -0.91335228518E+02 -0.70823360575E+02  0.29998960235E+03  0.32148381772E+03  0.10566000000E+00 0.  1.
         13    1    4    4    0    0 -0.10098279403E+02 -0.15590091740E+02  0.28582242787E+03  0.28642537884E+03  0.10566000000E+00 0. -1.
    9000005    1    3    3    0    0  0.14385887778E+02  0.57258306624E+02  0.57230814558E+02  0.82230368962E+02  0.10000000000E+01 0.  0.
    9000005    1    3    3    0    0  0.87047620142E+02  0.29155145691E+02  0.39467997545E+03  0.40521672438E+03  0.10000000000E+01 0.  0.
<mgrwt>
<rscale>  0 0.17740616E+03</rscale>
<asrwt>0</asrwt>
<pdfrwt beam="1">  1        1 0.16408303E+00 0.18270552E+03</pdfrwt>
<pdfrwt beam="2">  1       -1 0.44333433E-02 0.18270552E+03</pdfrwt>
<totfact> 0.29868714E+03</totfact>
</mgrwt>
</event>
<event>
 8    3  0.1508318E-003  0.1881451E+03  0.7818608E-02  0.1165062E+00
         -1   -1    0    0    0  501 -0.00000000000E+00  0.00000000000E+00  0.17259609715E+04  0.17259609716E+04  0.50400000000E-02 0.  1.
          1   -1    0    0  501    0  0.00000000000E+00 -0.00000000000E+00 -0.18538731118E+02  0.18538731803E+02  0.50400000000E-02 0. -1.
         25    2    1    2    0    0 -0.13309800277E+03  0.45369431284E+02  0.81643521032E+03  0.83783354318E+03  0.12500051919E+03 0.  0.
         23    2    1    2    0    0  0.13309800277E+03 -0.45369431284E+02  0.89098703011E+03  0.90666616018E+03  0.91717907434E+02 0.  0.
        -13    1    4    4    0    0  0.13465176531E+03 -0.47721091849E+02  0.89222243158E+03  0.90358689626E+03  0.10566000000E+00 0.  1.
         13    1    4    4    0    0 -0.15537625406E+01  0.23516605652E+01 -0.12354014697E+01  0.30792639175E+01  0.10566000000E+00 0. -1.
    9000005    1    3    3    0    0 -0.21910140224E+02  0.14929681523E+02  0.50581018565E+03  0.50650557109E+03  0.10000000000E+01 0.  0.
    9000005    1    3    3    0    0 -0.11118786254E+03  0.30439749761E+02  0.31062502466E+03  0.33132797209E+03  0.10000000000E+01 0.  0.
<mgrwt>
<rscale>  0 0.18286190E+03</rscale>
<asrwt>0</asrwt>
<pdfrwt beam="2">  1        1 0.28521133E-02 0.18814514E+03</pdfrwt>
<pdfrwt beam="1">  1       -1 0.26553239E+00 0.18814514E+03</pdfrwt>
<totfact> 0.23294668E+02</totfact>
</mgrwt>
</event>
<event>
 8    3  0.1508318E-003  0.1496420E+03  0.7818608E-02  0.1208967E+00
          1   -1    0    0  501    0  0.00000000000E+00  0.00000000000E+00  0.29130231160E+03  0.29130231165E+03  0.50400000000E-02 0. -1.
         -1   -1    0    0    0  501 -0.00000000000E+00 -0.00000000000E+00 -0.65117888352E+02  0.65117888547E+02  0.50400000000E-02 0.  1.
         25    2    1    2    0    0  0.33460719777E+02 -0.75154734958E+02  0.12328967131E+03  0.19388933394E+03  0.12499950723E+03 0.  0.
         23    2    1    2    0    0 -0.33460719777E+02  0.75154734958E+02  0.10289475194E+03  0.16253086626E+03  0.95189802787E+02 0.  0.
        -13    1    4    4    0    0  0.19982540375E+02  0.67628564748E+02  0.46489212416E+02  0.84464091334E+02  0.10566000000E+00 0. -1.
         13    1    4    4    0    0 -0.53443260152E+02  0.75261702102E+01  0.56405539527E+02  0.78066774924E+02  0.10566000000E+00 0.  1.
    9000005    1    3    3    0    0 -0.32014853724E+02  0.15632233790E+02  0.44442671606E+02  0.56969014839E+02  0.10000000000E+01 0.  0.
    9000005    1    3    3    0    0  0.65475573501E+02 -0.90786968748E+02  0.78846999703E+02  0.13692031910E+03  0.10000000000E+01 0.  0.
<mgrwt>
<rscale>  0 0.14329191E+03</rscale>
<asrwt>0</asrwt>
<pdfrwt beam="1">  1        1 0.44815740E-01 0.14964201E+03</pdfrwt>
<pdfrwt beam="2">  1       -1 0.10018137E-01 0.14964201E+03</pdfrwt>
<totfact> 0.53239605E+03</totfact>
</mgrwt>
</event>
<event>
 8    3  0.1508318E-003  0.1318832E+03  0.7818608E-02  0.1237179E+00
          1   -1    0    0  501    0  0.00000000000E+00  0.00000000000E+00  0.50547010834E+03  0.50547010836E+03  0.50400000000E-02 0. -1.
         -1   -1    0    0    0  501 -0.00000000000E+00 -0.00000000000E+00 -0.28718264982E+02  0.28718265425E+02  0.50400000000E-02 0.  1.
         25    2    1    2    0    0  0.63421152852E+01  0.41569458578E+02  0.20306295457E+03  0.24213167606E+03  0.12499977088E+03 0.  0.
         23    2    1    2    0    0 -0.63421152852E+01 -0.41569458578E+02  0.27368888878E+03  0.29205669772E+03  0.92861534174E+02 0.  0.
        -13    1    4    4    0    0 -0.13658591819E+02 -0.37117584727E+02  0.27912429540E+03  0.28191249648E+03  0.10566000000E+00 0. -1.
         13    1    4    4    0    0  0.73164765341E+01 -0.44518738518E+01 -0.54354066178E+01  0.10144201240E+02  0.10566000000E+00 0.  1.
    9000005    1    3    3    0    0  0.32011255887E+02 -0.36883870985E+02  0.85688512362E+02  0.98633977884E+02  0.10000000000E+01 0.  0.
    9000005    1    3    3    0    0 -0.25669140601E+02  0.78453329564E+02  0.11737444221E+03  0.14349769818E+03  0.10000000000E+01 0.  0.
<mgrwt>
<rscale>  0 0.12365936E+03</rscale>
<asrwt>0</asrwt>
<pdfrwt beam="1">  1        1 0.77764632E-01 0.13188322E+03</pdfrwt>
<pdfrwt beam="2">  1       -1 0.44181946E-02 0.13188322E+03</pdfrwt>
<totfact> 0.89823628E+03</totfact>
</mgrwt>
</event>
<event>
 8    3  0.1508318E-003  0.1293298E+03  0.7818608E-02  0.1242795E+00
         -1   -1    0    0    0  501 -0.00000000000E+00  0.00000000000E+00  0.61831479383E+01  0.61831499924E+01  0.50400000000E-02 0.  1.
          1   -1    0    0  501    0  0.00000000000E+00 -0.00000000000E+00 -0.21068035776E+04  0.21068035776E+04  0.50400000000E-02 0. -1.
         25    2    1    2    0    0  0.14708036884E+02 -0.29776718828E+02 -0.13540962721E+04  0.13602583996E+04  0.12499288074E+03 0.  0.
         23    2    1    2    0    0 -0.14708036884E+02  0.29776718828E+02 -0.74652415751E+03  0.75272832795E+03  0.90546334072E+02 0.  0.
        -13    1    4    4    0    0  0.27473522737E+02  0.40628728113E+02 -0.28864191541E+03  0.29277919068E+03  0.10566000000E+00 0.  1.
         13    1    4    4    0    0 -0.42181559621E+02 -0.10852009285E+02 -0.45788224210E+03  0.45994913726E+03  0.10566000000E+00 0. -1.
    9000005    1    3    3    0    0 -0.30549104357E+01  0.74257925637E+01 -0.31504458236E+01  0.86833278100E+01  0.10000000000E+01 0.  0.
    9000005    1    3    3    0    0  0.17762947319E+02 -0.37202511391E+02 -0.13509458263E+04  0.13515750718E+04  0.10000000000E+01 0.  0.
<mgrwt>
<rscale>  0 0.12018321E+03</rscale>
<asrwt>0</asrwt>
<pdfrwt beam="2">  1        1 0.32412306E+00 0.12932981E+03</pdfrwt>
<pdfrwt beam="1">  1       -1 0.95125536E-03 0.12932981E+03</pdfrwt>
<totfact> 0.57334393E+03</totfact>
</mgrwt>
</event>
<event>
 8    3  0.1508318E-003  0.1934161E+03  0.7818608E-02  0.1160214E+00
         -1   -1    0    0    0  501 -0.00000000000E+00  0.00000000000E+00  0.59556709306E+02  0.59556709519E+02  0.50400000000E-02 0.  1.
          1   -1    0    0  501    0  0.00000000000E+00 -0.00000000000E+00 -0.57179984899E+03  0.57179984901E+03  0.50400000000E-02 0. -1.
         25    2    1    2    0    0  0.12344976853E+03 -0.80902045367E+02 -0.23176347744E+03  0.30186766101E+03  0.12499915598E+03 0.  0.
         23    2    1    2    0    0 -0.12344976853E+03  0.80902045367E+02 -0.28047966225E+03  0.32948889752E+03  0.90050576677E+02 0.  0.
        -13    1    4    4    0    0 -0.46379915823E+02  0.31640147904E+02 -0.31808877998E+02  0.64529151821E+02  0.10566000000E+00 0.  1.
         13    1    4    4    0    0 -0.77069852706E+02  0.49261897463E+02 -0.24867078425E+03  0.26495974570E+03  0.10566000000E+00 0. -1.
    9000005    1    3    3    0    0  0.66306536878E+02 -0.77882603614E+02 -0.22114915067E+03  0.24366001646E+03  0.10000000000E+01 0.  0.
    9000005    1    3    3    0    0  0.57143231650E+02 -0.30194417538E+01 -0.10614326769E+02  0.58207644556E+02  0.10000000000E+01 0.  0.
<mgrwt>
<rscale>  0 0.18806916E+03</rscale>
<asrwt>0</asrwt>
<pdfrwt beam="2">  1        1 0.87969204E-01 0.19341607E+03</pdfrwt>
<pdfrwt beam="1">  1       -1 0.91625710E-02 0.19341607E+03</pdfrwt>
<totfact> 0.25979478E+03</totfact>
</mgrwt>
</event>
<event>
 8    3  0.1508318E-003  0.1279799E+03  0.7818608E-02  0.1247176E+00
         -1   -1    0    0    0  501 -0.00000000000E+00  0.00000000000E+00  0.39009344604E+02  0.39009344930E+02  0.50400000000E-02 0.  1.
          1   -1    0    0  501    0  0.00000000000E+00 -0.00000000000E+00 -0.31459440266E+03  0.31459440270E+03  0.50400000000E-02 0. -1.
         25    2    1    2    0    0 -0.85924394455E+01  0.26080414976E+02 -0.18634696183E+03  0.22606204133E+03  0.12499935314E+03 0.  0.
         23    2    1    2    0    0  0.85924394455E+01 -0.26080414976E+02 -0.89238096222E+02  0.12754170630E+03  0.86887461505E+02 0.  0.
        -13    1    4    4    0    0  0.12470197881E+02  0.23363157169E+01  0.14874732732E+02  0.19550781166E+02  0.10566000000E+00 0.  1.
         13    1    4    4    0    0 -0.38777584355E+01 -0.28416730692E+02 -0.10411282895E+03  0.10799092513E+03  0.10566000000E+00 0. -1.
    9000005    1    3    3    0    0 -0.69360322621E+00  0.74847687802E+02 -0.84684304293E+02  0.11302693860E+03  0.10000000000E+01 0.  0.
    9000005    1    3    3    0    0 -0.78988362193E+01 -0.48767272827E+02 -0.10166265754E+03  0.11303510273E+03  0.10000000000E+01 0.  0.
<mgrwt>
<rscale>  0 0.11756110E+03</rscale>
<asrwt>0</asrwt>
<pdfrwt beam="2">  1        1 0.48399137E-01 0.12797991E+03</pdfrwt>
<pdfrwt beam="1">  1       -1 0.60014379E-02 0.12797991E+03</pdfrwt>
<totfact> 0.10370106E+04</totfact>
</mgrwt>
</event>
<event>
 8    3  0.1508318E-003  0.1413733E+03  0.7818608E-02  0.1222760E+00
         -1   -1    0    0    0  501 -0.00000000000E+00  0.00000000000E+00  0.15243564408E+03  0.15243564417E+03  0.50400000000E-02 0.  1.
          1   -1    0    0  501    0  0.00000000000E+00 -0.00000000000E+00 -0.11219818263E+03  0.11219818275E+03  0.50400000000E-02 0. -1.
         25    2    1    2    0    0 -0.62467655318E+02 -0.21271036221E+02  0.56004468249E+02  0.15206221999E+03  0.12502701045E+03 0.  0.
         23    2    1    2    0    0  0.62467655318E+02  0.21271036221E+02 -0.15767006802E+02  0.11257160692E+03  0.89828187332E+02 0.  0.
        -13    1    4    4    0    0  0.46211497436E+02 -0.59734557229E+01  0.31067181707E+02  0.56003264296E+02  0.10566000000E+00 0.  1.
         13    1    4    4    0    0  0.16256157881E+02  0.27244491944E+02 -0.46834188509E+02  0.56568342628E+02  0.10566000000E+00 0. -1.
    9000005    1    3    3    0    0 -0.18496545021E+02 -0.35649715129E+02 -0.32840288123E+02  0.51889390924E+02  0.10000000000E+01 0.  0.
    9000005    1    3    3    0    0 -0.43971110296E+02  0.14378678909E+02  0.88844756372E+02  0.10017282906E+03  0.10000000000E+01 0.  0.
<mgrwt>
<rscale>  0 0.13321627E+03</rscale>
<asrwt>0</asrwt>
<pdfrwt beam="2">  1        1 0.17261259E-01 0.14137333E+03</pdfrwt>
<pdfrwt beam="1">  1       -1 0.23451638E-01 0.14137333E+03</pdfrwt>
<totfact> 0.45995699E+03</totfact>
</mgrwt>
</event>
<event>
 8    3  0.1508318E-003  0.1625560E+03  0.7818608E-02  0.1194393E+00
          1   -1    0    0  501    0  0.00000000000E+00  0.00000000000E+00  0.12113284200E+03  0.12113284210E+03  0.50400000000E-02 0. -1.
         -1   -1    0    0    0  501 -0.00000000000E+00 -0.00000000000E+00 -0.20104926173E+03  0.20104926179E+03  0.50400000000E-02 0.  1.
         25    2    1    2    0    0 -0.10393134806E+03 -0.52528463431E+00 -0.92486562925E+02  0.18702463822E+03  0.12498979938E+03 0.  0.
         23    2    1    2    0    0  0.10393134806E+03  0.52528463431E+00  0.12570143192E+02  0.13515746567E+03  0.85484097898E+02 0.  0.
        -13    1    4    4    0    0  0.62361256358E+02  0.32020041082E+02  0.35037897158E+02  0.78370113734E+02  0.10566000000E+00 0. -1.
         13    1    4    4    0    0  0.41570091701E+02 -0.31494756447E+02 -0.22467753966E+02  0.56787351937E+02  0.10566000000E+00 0.  1.
    9000005    1    3    3    0    0 -0.56725810318E+02 -0.14175060758E+02  0.21963724261E+02  0.62467232107E+02  0.10000000000E+01 0.  0.
    9000005    1    3    3    0    0 -0.47205537741E+02  0.13649776124E+02 -0.11445028719E+03  0.12455740612E+03  0.10000000000E+01 0.  0.
<mgrwt>
<rscale>  0 0.15505674E+03</rscale>
<asrwt>0</asrwt>
<pdfrwt beam="1">  1        1 0.18635822E-01 0.16255599E+03</pdfrwt>
<pdfrwt beam="2">  1       -1 0.30930656E-01 0.16255599E+03</pdfrwt>
<totfact> 0.26502727E+03</totfact>
</mgrwt>
</event>
<event>
 8    3  0.1508318E-003  0.1500426E+03  0.7818608E-02  0.1209762E+00
         -1   -1    0    0    0  501 -0.00000000000E+00  0.00000000000E+00  0.68843563228E+02  0.68843563413E+02  0.50400000000E-02 0.  1.
          1   -1    0    0  501    0  0.00000000000E+00 -0.00000000000E+00 -0.40706381106E+03  0.40706381109E+03  0.50400000000E-02 0. -1.
         25    2    1    2    0    0  0.51640196978E+01  0.82824153272E+02 -0.42815438331E+02  0.15603187672E+03  0.12500510921E+03 0.  0.
         23    2    1    2    0    0 -0.51640196978E+01 -0.82824153272E+02 -0.29540480950E+03  0.31987549778E+03  0.90387085033E+02 0.  0.
        -13    1    4    4    0    0  0.30381339648E+02 -0.13007970135E+02 -0.35870562690E+02  0.48774394077E+02  0.10566000000E+00 0. -1.
         13    1    4    4    0    0 -0.35545359346E+02 -0.69816183137E+02 -0.25953424681E+03  0.27110110371E+03  0.10566000000E+00 0.  1.
    9000005    1    3    3    0    0 -0.14142826597E+01  0.90855614658E+02  0.19423774572E+02  0.92924840214E+02  0.10000000000E+01 0.  0.
    9000005    1    3    3    0    0  0.65783023576E+01 -0.80314613851E+01 -0.62239212903E+02  0.63107036507E+02  0.10000000000E+01 0.  0.
<mgrwt>
<rscale>  0 0.14268419E+03</rscale>
<asrwt>0</asrwt>
<pdfrwt beam="2">  1        1 0.62625200E-01 0.15004261E+03</pdfrwt>
<pdfrwt beam="1">  1       -1 0.10591318E-01 0.15004261E+03</pdfrwt>
<totfact> 0.32168501E+03</totfact>
</mgrwt>
</event>
<event>
 8    3  0.1508318E-003  0.1342650E+03  0.7818608E-02  0.1233035E+00
         -1   -1    0    0    0  501 -0.00000000000E+00  0.00000000000E+00  0.13784326719E+03  0.13784326729E+03  0.50400000000E-02 0.  1.
          1   -1    0    0  501    0  0.00000000000E+00 -0.00000000000E+00 -0.10453905011E+03  0.10453905023E+03  0.50400000000E-02 0. -1.
         25    2    1    2    0    0 -0.20309859437E+02  0.44604516697E+02  0.27529235245E+02  0.13705817323E+03  0.12500012302E+03 0.  0.
         23    2    1    2    0    0  0.20309859437E+02 -0.44604516697E+02  0.57749818358E+01  0.10532414429E+03  0.93047147488E+02 0.  0.
        -13    1    4    4    0    0  0.13544795990E+02 -0.42237071871E+02 -0.39554957728E+02  0.59430948029E+02  0.10566000000E+00 0. -1.
         13    1    4    4    0    0  0.67650634466E+01 -0.23674448254E+01  0.45329939564E+02  0.45893196264E+02  0.10566000000E+00 0.  1.
    9000005    1    3    3    0    0 -0.24765313005E+02  0.70233132530E+02 -0.24892945913E+02  0.78528163034E+02  0.10000000000E+01 0.  0.
    9000005    1    3    3    0    0  0.44554535687E+01 -0.25628615833E+02  0.52422181157E+02  0.58530010194E+02  0.10000000000E+01 0.  0.
<mgrwt>
<rscale>  0 0.12631083E+03</rscale>
<asrwt>0</asrwt>
<pdfrwt beam="2">  1        1 0.16082931E-01 0.13426498E+03</pdfrwt>
<pdfrwt beam="1">  1       -1 0.21206656E-01 0.13426498E+03</pdfrwt>
<totfact> 0.59123264E+03</totfact>
</mgrwt>
</event>
<event>
 8    3  0.1508318E-003  0.1536094E+03  0.7818608E-02  0.1210460E+00
         -1   -1    0    0    0  501 -0.00000000000E+00  0.00000000000E+00  0.21153198561E+03  0.21153198567E+03  0.50400000000E-02 0.  1.
          1   -1    0    0  501    0  0.00000000000E+00 -0.00000000000E+00 -0.83794164906E+02  0.83794165057E+02  0.50400000000E-02 0. -1.
         25    2    1    2    0    0  0.47893988616E+02  0.75356246020E+02  0.73536641911E+02  0.17030413746E+03  0.12499385414E+03 0.  0.
         23    2    1    2    0    0 -0.47893988616E+02 -0.75356246020E+02  0.54201178792E+02  0.12502201327E+03  0.68704716429E+02 0.  0.
        -13    1    4    4    0    0 -0.46700476743E+02 -0.18434670554E+02  0.44855150612E+02  0.67325829419E+02  0.10566000000E+00 0.  1.
         13    1    4    4    0    0 -0.11935118722E+01 -0.56921575465E+02  0.93460281803E+01  0.57696183850E+02  0.10566000000E+00 0. -1.
    9000005    1    3    3    0    0 -0.77830758012E+01  0.87876605672E+02  0.16772238870E+02  0.89806358851E+02  0.10000000000E+01 0.  0.
    9000005    1    3    3    0    0  0.55677064417E+02 -0.12520359652E+02  0.56764403041E+02  0.80497778606E+02  0.10000000000E+01 0.  0.
<mgrwt>
<rscale>  0 0.14215359E+03</rscale>
<asrwt>0</asrwt>
<pdfrwt beam="2">  1        1 0.12891410E-01 0.15360944E+03</pdfrwt>
<pdfrwt beam="1">  1       -1 0.32543382E-01 0.15360944E+03</pdfrwt>
<totfact> 0.39102811E+03</totfact>
</mgrwt>
</event>
<event>
 8    3  0.1508318E-003  0.1409221E+03  0.7818608E-02  0.1222856E+00
         -1   -1    0    0    0  501 -0.00000000000E+00  0.00000000000E+00  0.73121866936E+02  0.73121867110E+02  0.50400000000E-02 0.  1.
          1   -1    0    0  501    0  0.00000000000E+00 -0.00000000000E+00 -0.21999859156E+03  0.21999859162E+03  0.50400000000E-02 0. -1.
         25    2    1    2    0    0  0.33280426002E+02 -0.55914068042E+02 -0.90216530010E+02  0.16732624926E+03  0.12500032658E+03 0.  0.
         23    2    1    2    0    0 -0.33280426002E+02  0.55914068042E+02 -0.56660194618E+02  0.12579420947E+03  0.91541442650E+02 0.  0.
        -13    1    4    4    0    0  0.38629756775E+01  0.22575233552E+02 -0.70395427531E+02  0.74027637625E+02  0.10566000000E+00 0. -1.
         13    1    4    4    0    0 -0.37143401680E+02  0.33338834490E+02  0.13735232913E+02  0.51766571846E+02  0.10566000000E+00 0.  1.
    9000005    1    3    3    0    0 -0.41505008519E+02 -0.47706901758E+02 -0.56774526583E+02  0.84988005485E+02  0.10000000000E+01 0.  0.
    9000005    1    3    3    0    0  0.74785434521E+02 -0.82071662841E+01 -0.33442003427E+02  0.82338243776E+02  0.10000000000E+01 0.  0.
<mgrwt>
<rscale>  0 0.13314970E+03</rscale>
<asrwt>0</asrwt>
<pdfrwt beam="2">  1        1 0.33845937E-01 0.14092215E+03</pdfrwt>
<pdfrwt beam="1">  1       -1 0.11249518E-01 0.14092215E+03</pdfrwt>
<totfact> 0.62880929E+03</totfact>
</mgrwt>
</event>
<event>
 8    3  0.1508318E-003  0.1264549E+03  0.7818608E-02  0.1247290E+00
          1   -1    0    0  501    0  0.00000000000E+00  0.00000000000E+00  0.87555201566E+03  0.87555201568E+03  0.50400000000E-02 0. -1.
         -1   -1    0    0    0  501 -0.00000000000E+00 -0.00000000000E+00 -0.13913852613E+02  0.13913853526E+02  0.50400000000E-02 0.  1.
         25    2    1    2    0    0 -0.74150496752E+01  0.17627823429E+02  0.50292407311E+03  0.51857831380E+03  0.12500048446E+03 0.  0.
         23    2    1    2    0    0  0.74150496752E+01 -0.17627823429E+02  0.35871408994E+03  0.37088755540E+03  0.92282486466E+02 0.  0.
        -13    1    4    4    0    0  0.48842782270E+02 -0.65942369591E+01  0.22999713039E+03  0.23521860575E+03  0.10566000000E+00 0. -1.
         13    1    4    4    0    0 -0.41427732594E+02 -0.11033586470E+02  0.12871695955E+03  0.13566894965E+03  0.10566000000E+00 0.  1.
    9000005    1    3    3    0    0  0.26664105368E+02  0.61092930364E+02  0.34199307885E+03  0.34843017470E+03  0.10000000000E+01 0.  0.
    9000005    1    3    3    0    0 -0.34079155043E+02 -0.43465106935E+02  0.16093099426E+03  0.17014813911E+03  0.10000000000E+01 0.  0.
<mgrwt>
<rscale>  0 0.11749362E+03</rscale>
<asrwt>0</asrwt>
<pdfrwt beam="1">  1        1 0.13470032E+00 0.12645491E+03</pdfrwt>
<pdfrwt beam="2">  1       -1 0.21405926E-02 0.12645491E+03</pdfrwt>
<totfact> 0.11833967E+04</totfact>
</mgrwt>
</event>
<event>
 8    3  0.1508318E-003  0.1458410E+03  0.7818608E-02  0.1215539E+00
         -1   -1    0    0    0  501 -0.00000000000E+00  0.00000000000E+00  0.16648888564E+02  0.16648889327E+02  0.50400000000E-02 0.  1.
          1   -1    0    0  501    0  0.00000000000E+00 -0.00000000000E+00 -0.14506434068E+04  0.14506434068E+04  0.50400000000E-02 0. -1.
         25    2    1    2    0    0 -0.67960248309E+02  0.32029555955E+02 -0.11568037972E+04  0.11659608108E+04  0.12500039773E+03 0.  0.
         23    2    1    2    0    0  0.67960248309E+02 -0.32029555955E+02 -0.27719072101E+03  0.30133148526E+03  0.91222148550E+02 0.  0.
        -13    1    4    4    0    0 -0.68066039928E-01  0.89640141849E+01 -0.15707767113E+03  0.15733328991E+03  0.10566000000E+00 0. -1.
         13    1    4    4    0    0  0.68028314348E+02 -0.40993570140E+02 -0.12011304989E+03  0.14399819535E+03  0.10566000000E+00 0.  1.
    9000005    1    3    3    0    0 -0.77050276666E+02  0.77808921463E+01 -0.11079946471E+04  0.11106981703E+04  0.10000000000E+01 0.  0.
    9000005    1    3    3    0    0  0.90900283579E+01  0.24248663808E+02 -0.48809150086E+02  0.55262640583E+02  0.10000000000E+01 0.  0.
<mgrwt>
<rscale>  0 0.13837051E+03</rscale>
<asrwt>0</asrwt>
<pdfrwt beam="2">  1        1 0.22317581E+00 0.14584097E+03</pdfrwt>
<pdfrwt beam="1">  1       -1 0.25613687E-02 0.14584097E+03</pdfrwt>
<totfact> 0.36401924E+03</totfact>
</mgrwt>
</event>
<event>
 8    3  0.1508318E-003  0.1596329E+03  0.7818608E-02  0.1196536E+00
          1   -1    0    0  501    0  0.00000000000E+00  0.00000000000E+00  0.83545865409E+03  0.83545865411E+03  0.50400000000E-02 0. -1.
         -1   -1    0    0    0  501 -0.00000000000E+00 -0.00000000000E+00 -0.31739546545E+02  0.31739546946E+02  0.50400000000E-02 0.  1.
         25    2    1    2    0    0  0.77248520267E+02 -0.62360553656E+02  0.24616196614E+03  0.29339117994E+03  0.12500599330E+03 0.  0.
         23    2    1    2    0    0 -0.77248520267E+02  0.62360553656E+02  0.55755714141E+03  0.57380702111E+03  0.92349114787E+02 0.  0.
        -13    1    4    4    0    0 -0.44242374790E+02 -0.17264784350E+02  0.15441799342E+03  0.16155614616E+03  0.10566000000E+00 0. -1.
         13    1    4    4    0    0 -0.33006145476E+02  0.79625338006E+02  0.40313914799E+03  0.41225087495E+03  0.10566000000E+00 0.  1.
    9000005    1    3    3    0    0  0.78389606603E+02 -0.95288277202E+02  0.21574376295E+03  0.24853804024E+03  0.10000000000E+01 0.  0.
    9000005    1    3    3    0    0 -0.11410863361E+01  0.32927723546E+02  0.30418203184E+02  0.44853139699E+02  0.10000000000E+01 0.  0.
<mgrwt>
<rscale>  0 0.15324927E+03</rscale>
<asrwt>0</asrwt>
<pdfrwt beam="1">  1        1 0.12853211E+00 0.15963293E+03</pdfrwt>
<pdfrwt beam="2">  1       -1 0.48830068E-02 0.15963293E+03</pdfrwt>
<totfact> 0.38584726E+03</totfact>
</mgrwt>
</event>
<event>
 8    3  0.1508318E-003  0.1325559E+03  0.7818608E-02  0.1236995E+00
          1   -1    0    0  501    0  0.00000000000E+00  0.00000000000E+00  0.18194028147E+03  0.18194028154E+03  0.50400000000E-02 0. -1.
         -1   -1    0    0    0  501 -0.00000000000E+00 -0.00000000000E+00 -0.88238661345E+02  0.88238661489E+02  0.50400000000E-02 0.  1.
         25    2    1    2    0    0  0.20946927059E+02  0.38828741081E+02 -0.26118072043E-01  0.13255590947E+03  0.12499849426E+03 0.  0.
         23    2    1    2    0    0 -0.20946927059E+02 -0.38828741081E+02  0.93727738198E+02  0.13762303356E+03  0.90602238225E+02 0.  0.
        -13    1    4    4    0    0 -0.25319677998E+02 -0.53077829389E+02  0.10403166668E+03  0.11950289077E+03  0.10566000000E+00 0. -1.
         13    1    4    4    0    0  0.43727509389E+01  0.14249088308E+02 -0.10303928484E+02  0.18120142787E+02  0.10566000000E+00 0.  1.
    9000005    1    3    3    0    0 -0.42781029847E+02 -0.10296812000E+02  0.21885643535E+02  0.49155083613E+02  0.10000000000E+01 0.  0.
    9000005    1    3    3    0    0  0.63727956906E+02  0.49125553081E+02 -0.21911761607E+02  0.83400825857E+02  0.10000000000E+01 0.  0.
<mgrwt>
<rscale>  0 0.12377571E+03</rscale>
<asrwt>0</asrwt>
<pdfrwt beam="1">  1        1 0.27990812E-01 0.13255591E+03</pdfrwt>
<pdfrwt beam="2">  1       -1 0.13575179E-01 0.13255591E+03</pdfrwt>
<totfact> 0.59316732E+03</totfact>
</mgrwt>
</event>
<event>
 8    3  0.1508318E-003  0.1330284E+03  0.7818608E-02  0.1240490E+00
          1   -1    0    0  501    0  0.00000000000E+00  0.00000000000E+00  0.16551872790E+03  0.16551872798E+03  0.50400000000E-02 0. -1.
         -1   -1    0    0    0  501 -0.00000000000E+00 -0.00000000000E+00 -0.10186146440E+03  0.10186146453E+03  0.50400000000E-02 0.  1.
         25    2    1    2    0    0 -0.17679801060E+02 -0.41942493782E+02  0.10127538817E+03  0.16719228767E+03  0.12499923463E+03 0.  0.
         23    2    1    2    0    0  0.17679801060E+02  0.41942493782E+02 -0.37618124669E+02  0.10018790484E+03  0.80936671675E+02 0.  0.
        -13    1    4    4    0    0 -0.15776469895E+02 -0.16364600519E+02  0.82858252704E+00  0.22746315427E+02  0.10566000000E+00 0. -1.
         13    1    4    4    0    0  0.33456270955E+02  0.58307094301E+02 -0.38446707196E+02  0.77441589409E+02  0.10566000000E+00 0.  1.
    9000005    1    3    3    0    0 -0.13444857553E+02 -0.35448128466E+02 -0.21883139244E+02  0.43785908573E+02  0.10000000000E+01 0.  0.
    9000005    1    3    3    0    0 -0.42349435069E+01 -0.64943653164E+01  0.12315852741E+03  0.12340637910E+03  0.10000000000E+01 0.  0.
<mgrwt>
<rscale>  0 0.12159407E+03</rscale>
<asrwt>0</asrwt>
<pdfrwt beam="1">  1        1 0.25464419E-01 0.13302841E+03</pdfrwt>
<pdfrwt beam="2">  1       -1 0.15670995E-01 0.13302841E+03</pdfrwt>
<totfact> 0.53354506E+03</totfact>
</mgrwt>
</event>
<event>
 8    3  0.1508318E-003  0.1288893E+03  0.7818608E-02  0.1260217E+00
         -1   -1    0    0    0  501 -0.00000000000E+00  0.00000000000E+00  0.20834236974E+02  0.20834237583E+02  0.50400000000E-02 0.  1.
          1   -1    0    0  501    0  0.00000000000E+00 -0.00000000000E+00 -0.52001422829E+03  0.52001422831E+03  0.50400000000E-02 0. -1.
         25    2    1    2    0    0  0.31192365859E+02  0.38574303043E+01 -0.39889664193E+03  0.41920279986E+03  0.12499845205E+03 0.  0.
         23    2    1    2    0    0 -0.31192365859E+02 -0.38574303043E+01 -0.10028334939E+03  0.12164566603E+03  0.61262341155E+02 0.  0.
        -13    1    4    4    0    0 -0.98930193040E+01  0.51768552842E+01 -0.97733395087E+02  0.98369199147E+02  0.10566000000E+00 0. -1.
         13    1    4    4    0    0 -0.21299346555E+02 -0.90342855885E+01 -0.25499543022E+01  0.23276466887E+02  0.10566000000E+00 0.  1.
    9000005    1    3    3    0    0  0.57065047765E+02 -0.44469493633E+02 -0.19249370430E+03  0.20564236367E+03  0.10000000000E+01 0.  0.
    9000005    1    3    3    0    0 -0.25872681906E+02  0.48326923937E+02 -0.20640293762E+03  0.21356043619E+03  0.10000000000E+01 0.  0.
<mgrwt>
<rscale>  0 0.11019084E+03</rscale>
<asrwt>0</asrwt>
<pdfrwt beam="2">  1        1 0.80002179E-01 0.12888932E+03</pdfrwt>
<pdfrwt beam="1">  1       -1 0.32052677E-02 0.12888932E+03</pdfrwt>
<totfact> 0.13822389E+04</totfact>
</mgrwt>
</event>
<event>
 8    3  0.1508318E-003  0.1572389E+03  0.7818608E-02  0.1199619E+00
         -1   -1    0    0    0  501 -0.00000000000E+00  0.00000000000E+00  0.10795824171E+04  0.10795824171E+04  0.50400000000E-02 0.  1.
          1   -1    0    0  501    0  0.00000000000E+00 -0.00000000000E+00 -0.20491947271E+02  0.20491947890E+02  0.50400000000E-02 0. -1.
         25    2    1    2    0    0 -0.89373330131E+02 -0.33347069971E+02  0.69511400224E+03  0.71267632669E+03  0.12499780520E+03 0.  0.
         23    2    1    2    0    0  0.89373330131E+02  0.33347069971E+02  0.36397646760E+03  0.38739803832E+03  0.92188675621E+02 0.  0.
        -13    1    4    4    0    0  0.89129068569E+02 -0.23896735849E+01  0.19124067307E+03  0.21100404642E+03  0.10566000000E+00 0. -1.
         13    1    4    4    0    0  0.24426156262E+00  0.35736743555E+02  0.17273579452E+03  0.17639399190E+03  0.10566000000E+00 0.  1.
    9000005    1    3    3    0    0 -0.80684541882E+02 -0.30048564550E+02  0.69768785095E+03  0.70298097335E+03  0.10000000000E+01 0.  0.
    9000005    1    3    3    0    0 -0.86887882489E+01 -0.32985054209E+01 -0.25738487100E+01  0.96953533420E+01  0.10000000000E+01 0.  0.
<mgrwt>
<rscale>  0 0.15069681E+03</rscale>
<asrwt>0</asrwt>
<pdfrwt beam="2">  1        1 0.31526077E-02 0.15723890E+03</pdfrwt>
<pdfrwt beam="1">  1       -1 0.16608958E+00 0.15723890E+03</pdfrwt>
<totfact> 0.90121032E+02</totfact>
</mgrwt>
</event>
<event>
 8    3  0.1508318E-003  0.1899512E+03  0.7818608E-02  0.1163183E+00
          1   -1    0    0  501    0  0.00000000000E+00  0.00000000000E+00  0.15892638061E+03  0.15892638069E+03  0.50400000000E-02 0. -1.
         -1   -1    0    0    0  501 -0.00000000000E+00 -0.00000000000E+00 -0.30200876877E+03  0.30200876881E+03  0.50400000000E-02 0.  1.
         25    2    1    2    0    0 -0.18403927437E+02  0.14181674090E+03 -0.20516557800E+03  0.27959680548E+03  0.12502306465E+03 0.  0.
         23    2    1    2    0    0  0.18403927437E+02 -0.14181674090E+03  0.62083189842E+02  0.18133834403E+03  0.92620624107E+02 0.  0.
        -13    1    4    4    0    0  0.19123703220E+02 -0.96114333521E+02 -0.72807538077E+01  0.98268518219E+02  0.10566000000E+00 0.  1.
         13    1    4    4    0    0 -0.71977578253E+00 -0.45702407375E+02  0.69363943649E+02  0.83069825807E+02  0.10566000000E+00 0. -1.
    9000005    1    3    3    0    0 -0.12893292861E+02  0.58348669724E+01  0.15073290603E+02  0.20699921811E+02  0.10000000000E+01 0.  0.
    9000005    1    3    3    0    0 -0.55106345757E+01  0.13598187392E+03 -0.22023886860E+03  0.25889688366E+03  0.10000000000E+01 0.  0.
<mgrwt>
<rscale>  0 0.18485707E+03</rscale>
<asrwt>0</asrwt>
<pdfrwt beam="1">  1        1 0.24450212E-01 0.18995120E+03</pdfrwt>
<pdfrwt beam="2">  1       -1 0.46462887E-01 0.18995120E+03</pdfrwt>
<totfact> 0.92346453E+02</totfact>
</mgrwt>
</event>
<event>
 8    3  0.1508318E-003  0.1784952E+03  0.7818608E-02  0.1174994E+00
         -1   -1    0    0    0  501 -0.00000000000E+00  0.00000000000E+00  0.21697381022E+02  0.21697381607E+02  0.50400000000E-02 0.  1.
          1   -1    0    0  501    0  0.00000000000E+00 -0.00000000000E+00 -0.19119831439E+04  0.19119831439E+04  0.50400000000E-02 0. -1.
         25    2    1    2    0    0  0.12738235173E+03  0.31439870916E+01 -0.43806327799E+03  0.47303275552E+03  0.12499761628E+03 0.  0.
         23    2    1    2    0    0 -0.12738235173E+03 -0.31439870916E+01 -0.14522224849E+04  0.14606477700E+04  0.91135142561E+02 0.  0.
        -13    1    4    4    0    0 -0.51987506975E+02 -0.91343720633E+01 -0.10531256264E+04  0.10544475965E+04  0.10566000000E+00 0. -1.
         13    1    4    4    0    0 -0.75394844757E+02  0.59903849717E+01 -0.39909685846E+03  0.40620017347E+03  0.10566000000E+00 0.  1.
    9000005    1    3    3    0    0  0.12657241550E+03  0.41350754920E+02 -0.38683988397E+03  0.40911680133E+03  0.10000000000E+01 0.  0.
    9000005    1    3    3    0    0  0.80993623495E+00 -0.38206767828E+02 -0.51223394023E+02  0.63915954188E+02  0.10000000000E+01 0.  0.
<mgrwt>
<rscale>  0 0.17276597E+03</rscale>
<asrwt>0</asrwt>
<pdfrwt beam="2">  1        1 0.29415112E+00 0.17849524E+03</pdfrwt>
<pdfrwt beam="1">  1       -1 0.33380602E-02 0.17849524E+03</pdfrwt>
<totfact> 0.12473665E+03</totfact>
</mgrwt>
</event>
<event>
 8    3  0.1508318E-003  0.1481345E+03  0.7818608E-02  0.1217130E+00
         -1   -1    0    0    0  501 -0.00000000000E+00  0.00000000000E+00  0.58040618361E+03  0.58040618363E+03  0.50400000000E-02 0.  1.
          1   -1    0    0  501    0  0.00000000000E+00 -0.00000000000E+00 -0.35838319545E+02  0.35838319899E+02  0.50400000000E-02 0. -1.
         25    2    1    2    0    0  0.51319833239E+02 -0.60709520442E+02  0.44342364599E+03  0.46751293728E+03  0.12499778218E+03 0.  0.
         23    2    1    2    0    0 -0.51319833239E+02  0.60709520442E+02  0.10114421808E+03  0.14873156625E+03  0.74642848232E+02 0.  0.
        -13    1    4    4    0    0 -0.50064042235E+02  0.53597186626E+02  0.11307907874E+03  0.13478114094E+03  0.10566000000E+00 0.  1.
         13    1    4    4    0    0 -0.12557910041E+01  0.71123338167E+01 -0.11934860662E+02  0.13950425314E+02  0.10566000000E+00 0. -1.
    9000005    1    3    3    0    0  0.73446071832E+02  0.93045187141E+01  0.24466778594E+03  0.25562516506E+03  0.10000000000E+01 0.  0.
    9000005    1    3    3    0    0 -0.22126238593E+02 -0.70014039156E+02  0.19875586004E+03  0.21188777222E+03  0.10000000000E+01 0.  0.
<mgrwt>
<rscale>  0 0.13721261E+03</rscale>
<asrwt>0</asrwt>
<pdfrwt beam="2">  1        1 0.55135880E-02 0.14813445E+03</pdfrwt>
<pdfrwt beam="1">  1       -1 0.89293253E-01 0.14813445E+03</pdfrwt>
<totfact> 0.18335054E+03</totfact>
</mgrwt>
</event>
<event>
 8    3  0.1508318E-003  0.1537498E+03  0.7818608E-02  0.1204212E+00
         -1   -1    0    0    0  501 -0.00000000000E+00  0.00000000000E+00  0.44161884965E+02  0.44161885253E+02  0.50400000000E-02 0.  1.
          1   -1    0    0  501    0  0.00000000000E+00 -0.00000000000E+00 -0.86965053134E+03  0.86965053135E+03  0.50400000000E-02 0. -1.
         25    2    1    2    0    0  0.84724992902E+02  0.28915583459E+02 -0.11551398844E+03  0.19230830686E+03  0.12499827189E+03 0.  0.
         23    2    1    2    0    0 -0.84724992902E+02 -0.28915583459E+02 -0.70997465793E+03  0.72150410974E+03  0.92139731265E+02 0.  0.
        -13    1    4    4    0    0 -0.31468027197E+02 -0.43367125306E+02 -0.54321572798E+03  0.54585188703E+03  0.10566000000E+00 0. -1.
         13    1    4    4    0    0 -0.53256965706E+02  0.14451541847E+02 -0.16675892995E+03  0.17565222271E+03  0.10566000000E+00 0.  1.
    9000005    1    3    3    0    0 -0.11786291005E+02 -0.25344279200E+01  0.19768153489E+02  0.23175846757E+02  0.10000000000E+01 0.  0.
    9000005    1    3    3    0    0  0.96511283907E+02  0.31450011379E+02 -0.13528214193E+03  0.16913246011E+03  0.10000000000E+01 0.  0.
<mgrwt>
<rscale>  0 0.14699756E+03</rscale>
<asrwt>0</asrwt>
<pdfrwt beam="2">  1        1 0.13379238E+00 0.15374981E+03</pdfrwt>
<pdfrwt beam="1">  1       -1 0.67941369E-02 0.15374981E+03</pdfrwt>
<totfact> 0.22114549E+03</totfact>
</mgrwt>
</event>
<event>
 8    3  0.1508318E-003  0.1736680E+03  0.7818608E-02  0.1179776E+00
         -1   -1    0    0    0  501 -0.00000000000E+00  0.00000000000E+00  0.75006376506E+02  0.75006376676E+02  0.50400000000E-02 0.  1.
          1   -1    0    0  501    0  0.00000000000E+00 -0.00000000000E+00 -0.45937552715E+03  0.45937552718E+03  0.50400000000E-02 0. -1.
         25    2    1    2    0    0  0.76834561928E+02 -0.92901552857E+02 -0.74561684149E+02  0.18899744670E+03  0.12500536663E+03 0.  0.
         23    2    1    2    0    0 -0.76834561928E+02  0.92901552857E+02 -0.30980746649E+03  0.34538445715E+03  0.93677684191E+02 0.  0.
        -13    1    4    4    0    0 -0.10263848252E+02  0.82760088391E+02 -0.19829236629E+03  0.21511497508E+03  0.10566000000E+00 0. -1.
         13    1    4    4    0    0 -0.66570713675E+02  0.10141464466E+02 -0.11151510020E+03  0.13026948207E+03  0.10566000000E+00 0.  1.
    9000005    1    3    3    0    0  0.10974442676E+03 -0.53024688072E+02 -0.54759255679E+02  0.13362272574E+03  0.10000000000E+01 0.  0.
    9000005    1    3    3    0    0 -0.32909864837E+02 -0.39876864785E+02 -0.19802428470E+02  0.55374720965E+02  0.10000000000E+01 0.  0.
<mgrwt>
<rscale>  0 0.16816366E+03</rscale>
<asrwt>0</asrwt>
<pdfrwt beam="2">  1        1 0.70673156E-01 0.17366805E+03</pdfrwt>
<pdfrwt beam="1">  1       -1 0.11539443E-01 0.17366805E+03</pdfrwt>
<totfact> 0.24267748E+03</totfact>
</mgrwt>
</event>
<event>
 8    3  0.1508318E-003  0.1799740E+03  0.7818608E-02  0.1173183E+00
          1   -1    0    0  501    0  0.00000000000E+00  0.00000000000E+00  0.17774043561E+03  0.17774043568E+03  0.50400000000E-02 0. -1.
         -1   -1    0    0    0  501 -0.00000000000E+00 -0.00000000000E+00 -0.20673656439E+03  0.20673656445E+03  0.50400000000E-02 0.  1.
         25    2    1    2    0    0 -0.77816747026E+02  0.10348930505E+03  0.74252759958E+02  0.19468978118E+03  0.12500062463E+03 0.  0.
         23    2    1    2    0    0  0.77816747026E+02 -0.10348930505E+03 -0.10324888874E+03  0.18978721895E+03  0.92700448068E+02 0.  0.
        -13    1    4    4    0    0 -0.10180373760E+02 -0.41394968790E+02 -0.60285160981E+02  0.73834241714E+02  0.10566000000E+00 0.  1.
         13    1    4    4    0    0  0.87997120786E+02 -0.62094336262E+02 -0.42963727762E+02  0.11595297724E+03  0.10566000000E+00 0. -1.
    9000005    1    3    3    0    0  0.61938975879E+01 -0.86696863534E+01  0.51643250924E+02  0.52740432259E+02  0.10000000000E+01 0.  0.
    9000005    1    3    3    0    0 -0.84010644614E+02  0.11215899141E+03  0.22609509034E+02  0.14194934893E+03  0.10000000000E+01 0.  0.
<mgrwt>
<rscale>  0 0.17455147E+03</rscale>
<asrwt>0</asrwt>
<pdfrwt beam="1">  1        1 0.27344683E-01 0.17997399E+03</pdfrwt>
<pdfrwt beam="2">  1       -1 0.31805625E-01 0.17997399E+03</pdfrwt>
<totfact> 0.15580658E+03</totfact>
</mgrwt>
</event>
<event>
 8    3  0.1508318E-003  0.1503222E+03  0.7818608E-02  0.1208969E+00
         -1   -1    0    0    0  501 -0.00000000000E+00  0.00000000000E+00  0.14368618838E+02  0.14368619722E+02  0.50400000000E-02 0.  1.
          1   -1    0    0  501    0  0.00000000000E+00 -0.00000000000E+00 -0.13387925604E+04  0.13387925604E+04  0.50400000000E-02 0. -1.
         25    2    1    2    0    0  0.54464650109E+02  0.63303036521E+02 -0.82229557261E+03  0.83592271526E+03  0.12499241818E+03 0.  0.
         23    2    1    2    0    0 -0.54464650109E+02 -0.63303036521E+02 -0.50212836891E+03  0.51723846484E+03  0.91809901938E+02 0.  0.
        -13    1    4    4    0    0 -0.70021930350E+02 -0.50019138106E+02 -0.25224894804E+03  0.26652303438E+03  0.10566000000E+00 0.  1.
         13    1    4    4    0    0  0.15557280242E+02 -0.13283898414E+02 -0.24987942088E+03  0.25071543045E+03  0.10566000000E+00 0. -1.
    9000005    1    3    3    0    0 -0.24460852801E+02  0.43841627963E+02 -0.13869186026E+03  0.14750204665E+03  0.10000000000E+01 0.  0.
    9000005    1    3    3    0    0  0.78925502910E+02  0.19461408558E+02 -0.68360371235E+03  0.68842066861E+03  0.10000000000E+01 0.  0.
<mgrwt>
<rscale>  0 0.14329042E+03</rscale>
<asrwt>0</asrwt>
<pdfrwt beam="2">  1        1 0.20596799E+00 0.15032224E+03</pdfrwt>
<pdfrwt beam="1">  1       -1 0.22105579E-02 0.15032224E+03</pdfrwt>
<totfact> 0.53466206E+03</totfact>
</mgrwt>
</event>
<event>
 8    3  0.1508318E-003  0.1434678E+03  0.7818608E-02  0.1218908E+00
          1   -1    0    0  501    0  0.00000000000E+00  0.00000000000E+00  0.70068727118E+02  0.70068727299E+02  0.50400000000E-02 0. -1.
         -1   -1    0    0    0  501 -0.00000000000E+00 -0.00000000000E+00 -0.45106036819E+03  0.45106036821E+03  0.50400000000E-02 0.  1.
         25    2    1    2    0    0 -0.66118988336E+02  0.24212506940E+02 -0.37926615951E+03  0.40549453376E+03  0.12500012419E+03 0.  0.
         23    2    1    2    0    0  0.66118988336E+02 -0.24212506940E+02 -0.17254815584E+01  0.11563456175E+03  0.91708279203E+02 0.  0.
        -13    1    4    4    0    0 -0.22864588466E+02 -0.95549779248E+01 -0.54565977726E+01  0.25374645458E+02  0.10566000000E+00 0.  1.
         13    1    4    4    0    0  0.88983576802E+02 -0.14657529015E+02  0.37311162142E+01  0.90259916295E+02  0.10566000000E+00 0. -1.
    9000005    1    3    3    0    0 -0.92427288882E+02 -0.90849409130E+01 -0.18947645076E+03  0.21101579390E+03  0.10000000000E+01 0.  0.
    9000005    1    3    3    0    0  0.26308300546E+02  0.33297447853E+02 -0.18978970875E+03  0.19447873986E+03  0.10000000000E+01 0.  0.
<mgrwt>
<rscale>  0 0.13593320E+03</rscale>
<asrwt>0</asrwt>
<pdfrwt beam="1">  1        1 0.10779804E-01 0.14346776E+03</pdfrwt>
<pdfrwt beam="2">  1       -1 0.69393901E-01 0.14346776E+03</pdfrwt>
<totfact> 0.12436033E+03</totfact>
</mgrwt>
</event>
<event>
 8    3  0.1508318E-003  0.1276615E+03  0.7818608E-02  0.1245585E+00
         -1   -1    0    0    0  501 -0.00000000000E+00  0.00000000000E+00  0.83384284761E+02  0.83384284914E+02  0.50400000000E-02 0.  1.
          1   -1    0    0  501    0  0.00000000000E+00 -0.00000000000E+00 -0.14961990867E+03  0.14961990876E+03  0.50400000000E-02 0. -1.
         25    2    1    2    0    0 -0.43123372638E+01 -0.25568533324E+02 -0.48540912153E+02  0.13657843301E+03  0.12500040825E+03 0.  0.
         23    2    1    2    0    0  0.43123372638E+01  0.25568533324E+02 -0.17694711759E+02  0.96425760657E+02  0.91172793887E+02 0.  0.
        -13    1    4    4    0    0  0.22385285165E+01 -0.32466674601E+02 -0.20193064575E+02  0.38299699614E+02  0.10566000000E+00 0. -1.
         13    1    4    4    0    0  0.20738087473E+01  0.58035207925E+02  0.24983528155E+01  0.58126061043E+02  0.10566000000E+00 0.  1.
    9000005    1    3    3    0    0 -0.47348139284E+02 -0.41324778712E+02  0.84723174886E+01  0.63422108077E+02  0.10000000000E+01 0.  0.
    9000005    1    3    3    0    0  0.43035802020E+02  0.15756245388E+02 -0.57013229641E+02  0.73156324938E+02  0.10000000000E+01 0.  0.
<mgrwt>
<rscale>  0 0.11850415E+03</rscale>
<asrwt>0</asrwt>
<pdfrwt beam="2">  1        1 0.23018447E-01 0.12766146E+03</pdfrwt>
<pdfrwt beam="1">  1       -1 0.12828352E-01 0.12766146E+03</pdfrwt>
<totfact> 0.82508249E+03</totfact>
</mgrwt>
</event>
<event>
 8    3  0.1508318E-003  0.2249213E+03  0.7818608E-02  0.1133478E+00
          1   -1    0    0  501    0  0.00000000000E+00  0.00000000000E+00  0.90064846300E+03  0.90064846302E+03  0.50400000000E-02 0. -1.
         -1   -1    0    0    0  501 -0.00000000000E+00 -0.00000000000E+00 -0.60163029279E+02  0.60163029491E+02  0.50400000000E-02 0.  1.
         25    2    1    2    0    0 -0.14843444081E+03 -0.11371784541E+03  0.61130154089E+03  0.65136716219E+03  0.12500029803E+03 0.  0.
         23    2    1    2    0    0  0.14843444081E+03  0.11371784541E+03  0.22918389284E+03  0.30944433032E+03  0.90917573904E+02 0.  0.
        -13    1    4    4    0    0  0.21437304724E+02  0.39897631866E+02  0.11320525712E+02  0.46685592304E+02  0.10566000000E+00 0.  1.
         13    1    4    4    0    0  0.12699713609E+03  0.73820213543E+02  0.21786336713E+03  0.26275873801E+03  0.10566000000E+00 0. -1.
    9000005    1    3    3    0    0 -0.27622140325E+02 -0.64244202778E+02  0.90071866258E+02  0.11403614040E+03  0.10000000000E+01 0.  0.
    9000005    1    3    3    0    0 -0.12081230049E+03 -0.49473642631E+02  0.52122967463E+03  0.53733102179E+03  0.10000000000E+01 0.  0.
<mgrwt>
<rscale>  0 0.22054480E+03</rscale>
<asrwt>0</asrwt>
<pdfrwt beam="1">  1        1 0.13856130E+00 0.22492133E+03</pdfrwt>
<pdfrwt beam="2">  1       -1 0.92558510E-02 0.22492133E+03</pdfrwt>
<totfact> 0.13119917E+03</totfact>
</mgrwt>
</event>
<event>
 8    3  0.1508318E-003  0.1632921E+03  0.7818608E-02  0.1192117E+00
         -1   -1    0    0    0  501 -0.00000000000E+00  0.00000000000E+00  0.14169553342E+03  0.14169553351E+03  0.50400000000E-02 0.  1.
          1   -1    0    0  501    0  0.00000000000E+00 -0.00000000000E+00 -0.16339574491E+03  0.16339574499E+03  0.50400000000E-02 0. -1.
         25    2    1    2    0    0 -0.73393229449E+02 -0.75171807193E+02  0.31792594130E+01  0.16332301279E+03  0.12500772812E+03 0.  0.
         23    2    1    2    0    0  0.73393229449E+02  0.75171807193E+02 -0.24879470904E+02  0.14176826572E+03  0.91879738608E+02 0.  0.
        -13    1    4    4    0    0  0.64153598586E+00  0.40093138112E+02 -0.43208017624E+02  0.58947563504E+02  0.10566000000E+00 0. -1.
         13    1    4    4    0    0  0.72751693463E+02  0.35078669081E+02  0.18328546720E+02  0.82820702214E+02  0.10566000000E+00 0.  1.
    9000005    1    3    3    0    0  0.18837168371E+02  0.28660300298E+01 -0.32201338292E+02  0.37429657067E+02  0.10000000000E+01 0.  0.
    9000005    1    3    3    0    0 -0.92230397820E+02 -0.78037837223E+02  0.35380597705E+02  0.12589335572E+03  0.10000000000E+01 0.  0.
<mgrwt>
<rscale>  0 0.15700748E+03</rscale>
<asrwt>0</asrwt>
<pdfrwt beam="2">  1        1 0.25137807E-01 0.16329207E+03</pdfrwt>
<pdfrwt beam="1">  1       -1 0.21799313E-01 0.16329207E+03</pdfrwt>
<totfact> 0.32362371E+03</totfact>
</mgrwt>
</event>
<event>
 8    3  0.1508318E-003  0.1508837E+03  0.7818608E-02  0.1207543E+00
          1   -1    0    0  501    0  0.00000000000E+00  0.00000000000E+00  0.47348050002E+02  0.47348050270E+02  0.50400000000E-02 0. -1.
         -1   -1    0    0    0  501 -0.00000000000E+00 -0.00000000000E+00 -0.43103981596E+03  0.43103981599E+03  0.50400000000E-02 0.  1.
         25    2    1    2    0    0  0.69114337363E+02 -0.48631826028E+02 -0.15068347711E+03  0.21324024073E+03  0.12499617539E+03 0.  0.
         23    2    1    2    0    0 -0.69114337363E+02  0.48631826028E+02 -0.23300828885E+03  0.26514762553E+03  0.94173003122E+02 0.  0.
        -13    1    4    4    0    0 -0.47720117175E+02  0.44000098096E+02 -0.23439225649E+03  0.24321381392E+03  0.10566000000E+00 0.  1.
         13    1    4    4    0    0 -0.21394220188E+02  0.46317279321E+01  0.13839676388E+01  0.21933811605E+02  0.10566000000E+00 0. -1.
    9000005    1    3    3    0    0  0.93542099475E+02 -0.41678835214E+02 -0.15662686810E+03  0.18713691643E+03  0.10000000000E+01 0.  0.
    9000005    1    3    3    0    0 -0.24427762112E+02 -0.69529908142E+01  0.59433909971E+01  0.26103324302E+02  0.10000000000E+01 0.  0.
<mgrwt>
<rscale>  0 0.14438830E+03</rscale>
<asrwt>0</asrwt>
<pdfrwt beam="1">  1        1 0.72843157E-02 0.15088370E+03</pdfrwt>
<pdfrwt beam="2">  1       -1 0.66313815E-01 0.15088370E+03</pdfrwt>
<totfact> 0.23002351E+03</totfact>
</mgrwt>
</event>
<event>
 8    3  0.1508318E-003  0.1680820E+03  0.7818608E-02  0.1185963E+00
         -1   -1    0    0    0  501 -0.00000000000E+00  0.00000000000E+00  0.92294313451E+02  0.92294313589E+02  0.50400000000E-02 0.  1.
          1   -1    0    0  501    0  0.00000000000E+00 -0.00000000000E+00 -0.27239032086E+03  0.27239032091E+03  0.50400000000E-02 0. -1.
         25    2    1    2    0    0  0.69297381475E+02 -0.88457734015E+02 -0.11835226770E+03  0.20556953234E+03  0.12499870227E+03 0.  0.
         23    2    1    2    0    0 -0.69297381475E+02  0.88457734015E+02 -0.61743739709E+02  0.15911510216E+03  0.94225413539E+02 0.  0.
        -13    1    4    4    0    0 -0.67331757165E+02  0.17998939417E+02 -0.54073504136E+02  0.88212710856E+02  0.10566000000E+00 0.  1.
         13    1    4    4    0    0 -0.19656243101E+01  0.70458794598E+02 -0.76702355727E+01  0.70902391306E+02  0.10566000000E+00 0. -1.
    9000005    1    3    3    0    0 -0.27840829314E+02 -0.46276805133E+02 -0.11701325252E+02  0.55268214038E+02  0.10000000000E+01 0.  0.
    9000005    1    3    3    0    0  0.97138210789E+02 -0.42180928881E+02 -0.10665094245E+03  0.15030131830E+03  0.10000000000E+01 0.  0.
<mgrwt>
<rscale>  0 0.16244608E+03</rscale>
<asrwt>0</asrwt>
<pdfrwt beam="2">  1        1 0.41906203E-01 0.16808204E+03</pdfrwt>
<pdfrwt beam="1">  1       -1 0.14199125E-01 0.16808204E+03</pdfrwt>
<totfact> 0.33915079E+03</totfact>
</mgrwt>
</event>
<event>
 8    3  0.1508318E-003  0.1499121E+03  0.7818608E-02  0.1209772E+00
          1   -1    0    0  501    0  0.00000000000E+00  0.00000000000E+00  0.34879584694E+03  0.34879584698E+03  0.50400000000E-02 0. -1.
         -1   -1    0    0    0  501 -0.00000000000E+00 -0.00000000000E+00 -0.53385465253E+02  0.53385465491E+02  0.50400000000E-02 0.  1.
         25    2    1    2    0    0  0.48964726563E+02  0.66709993386E+02  0.16118520737E+03  0.22012342825E+03  0.12500353966E+03 0.  0.
         23    2    1    2    0    0 -0.48964726563E+02 -0.66709993386E+02  0.13422517432E+03  0.18205788421E+03  0.90999495153E+02 0.  0.
        -13    1    4    4    0    0 -0.58066901218E+02 -0.25815673673E+01  0.67209178769E+02  0.88856707017E+02  0.10566000000E+00 0. -1.
         13    1    4    4    0    0  0.91021746545E+01 -0.64128426018E+02  0.67015995551E+02  0.93201177196E+02  0.10566000000E+00 0.  1.
    9000005    1    3    3    0    0  0.30754487221E+02  0.15170906830E+02 -0.13662592901E+02  0.36927785515E+02  0.10000000000E+01 0.  0.
    9000005    1    3    3    0    0  0.18210239342E+02  0.51539086556E+02  0.17484780027E+03  0.18319564274E+03  0.10000000000E+01 0.  0.
<mgrwt>
<rscale>  0 0.14267660E+03</rscale>
<asrwt>0</asrwt>
<pdfrwt beam="1">  1        1 0.53660898E-01 0.14991215E+03</pdfrwt>
<pdfrwt beam="2">  1       -1 0.82131488E-02 0.14991215E+03</pdfrwt>
<totfact> 0.57570058E+03</totfact>
</mgrwt>
</event>
<event>
 8    3  0.1508318E-003  0.1421788E+03  0.7818608E-02  0.1220705E+00
          1   -1    0    0  501    0  0.00000000000E+00  0.00000000000E+00  0.59707664513E+02  0.59707664726E+02  0.50400000000E-02 0.  1.
         -1   -1    0    0    0  501 -0.00000000000E+00 -0.00000000000E+00 -0.38426958298E+03  0.38426958301E+03  0.50400000000E-02 0. -1.
         25    2    1    2    0    0  0.67622509993E+02 -0.40486316947E+01 -0.57352187209E+02  0.15331040265E+03  0.12500244360E+03 0.  0.
         23    2    1    2    0    0 -0.67622509993E+02  0.40486316947E+01 -0.26720973126E+03  0.29066684509E+03  0.92179059884E+02 0.  0.
        -13    1    4    4    0    0 -0.49491720237E+02 -0.34446978706E+02 -0.89390097337E+02  0.10782683052E+03  0.10566000000E+00 0.  1.
         13    1    4    4    0    0 -0.18130789757E+02  0.38495610401E+02 -0.17781963392E+03  0.18284001458E+03  0.10566000000E+00 0. -1.
    9000005    1    3    3    0    0 -0.16662707335E+02 -0.30302175653E+01 -0.66396108678E+02  0.68529346136E+02  0.10000000000E+01 0.  0.
    9000005    1    3    3    0    0  0.84285217328E+02 -0.10184141295E+01  0.90439214694E+01  0.84781056510E+02  0.10000000000E+01 0.  0.
<mgrwt>
<rscale>  0 0.13465661E+03</rscale>
<asrwt>0</asrwt>
<pdfrwt beam="1">  1        1 0.91857948E-02 0.14217878E+03</pdfrwt>
<pdfrwt beam="2">  1       -1 0.59118396E-01 0.14217878E+03</pdfrwt>
<totfact> 0.20956301E+03</totfact>
</mgrwt>
</event>
<event>
 8    3  0.1508318E-003  0.1304614E+03  0.7818608E-02  0.1240940E+00
         -1   -1    0    0    0  501 -0.00000000000E+00  0.00000000000E+00  0.37558712505E+02  0.37558712843E+02  0.50400000000E-02 0.  1.
          1   -1    0    0  501    0  0.00000000000E+00 -0.00000000000E+00 -0.41285453299E+03  0.41285453302E+03  0.50400000000E-02 0. -1.
         25    2    1    2    0    0  0.75991025128E+01  0.36568552553E+02 -0.12056157200E+03  0.17763805433E+03  0.12500072123E+03 0.  0.
         23    2    1    2    0    0 -0.75991025128E+01 -0.36568552553E+02 -0.25473424848E+03  0.27277519154E+03  0.90120820971E+02 0.  0.
        -13    1    4    4    0    0 -0.47159158204E+02 -0.65365698325E+01 -0.11444514547E+03  0.12395327923E+03  0.10566000000E+00 0.  1.
         13    1    4    4    0    0  0.39560055691E+02 -0.30031982721E+02 -0.14028910302E+03  0.14882191230E+03  0.10566000000E+00 0. -1.
    9000005    1    3    3    0    0 -0.29113638401E+02 -0.23101787519E+01 -0.12066742378E+03  0.12415541885E+03  0.10000000000E+01 0.  0.
    9000005    1    3    3    0    0  0.36712740914E+02  0.38878731305E+02  0.10585178145E+00  0.53482635480E+02  0.10000000000E+01 0.  0.
<mgrwt>
<rscale>  0 0.12131732E+03</rscale>
<asrwt>0</asrwt>
<pdfrwt beam="2">  1        1 0.63516079E-01 0.13046143E+03</pdfrwt>
<pdfrwt beam="1">  1       -1 0.57782638E-02 0.13046143E+03</pdfrwt>
<totfact> 0.78248649E+03</totfact>
</mgrwt>
</event>
<event>
 8    3  0.1508318E-003  0.1377670E+03  0.7818608E-02  0.1228450E+00
          1   -1    0    0  501    0  0.00000000000E+00  0.00000000000E+00  0.10541171255E+04  0.10541171255E+04  0.50400000000E-02 0. -1.
         -1   -1    0    0    0  501 -0.00000000000E+00 -0.00000000000E+00 -0.16982852548E+02  0.16982853296E+02  0.50400000000E-02 0.  1.
         25    2    1    2    0    0  0.49480672680E+02 -0.30132986315E+02  0.35809350968E+03  0.38368047261E+03  0.12499363805E+03 0.  0.
         23    2    1    2    0    0 -0.49480672680E+02  0.30132986315E+02  0.67904076329E+03  0.68741950622E+03  0.89960466228E+02 0.  0.
        -13    1    4    4    0    0 -0.46788995472E+02  0.56843712365E+02  0.58523438400E+03  0.58984719471E+03  0.10566000000E+00 0. -1.
         13    1    4    4    0    0 -0.26916772086E+01 -0.26710726049E+02  0.93806379293E+02  0.97572311505E+02  0.10566000000E+00 0.  1.
    9000005    1    3    3    0    0 -0.23764549574E+02  0.30592561925E+02  0.66632678885E+02  0.77081596747E+02  0.10000000000E+01 0.  0.
    9000005    1    3    3    0    0  0.73245222255E+02 -0.60725548241E+02  0.29146083079E+03  0.30659887586E+03  0.10000000000E+01 0.  0.
<mgrwt>
<rscale>  0 0.12933196E+03</rscale>
<asrwt>0</asrwt>
<pdfrwt beam="1">  1        1 0.16217183E+00 0.13776699E+03</pdfrwt>
<pdfrwt beam="2">  1       -1 0.26127471E-02 0.13776699E+03</pdfrwt>
<totfact> 0.65632889E+03</totfact>
</mgrwt>
</event>
<event>
 8    3  0.1508318E-003  0.1412069E+03  0.7818608E-02  0.1222400E+00
         -1   -1    0    0    0  501 -0.00000000000E+00  0.00000000000E+00  0.25967646139E+02  0.25967646628E+02  0.50400000000E-02 0.  1.
          1   -1    0    0  501    0  0.00000000000E+00 -0.00000000000E+00 -0.62374696114E+03  0.62374696116E+03  0.50400000000E-02 0. -1.
         25    2    1    2    0    0 -0.52784903236E+02  0.39070164688E+02 -0.30960054529E+03  0.34028207047E+03  0.12500666406E+03 0.  0.
         23    2    1    2    0    0  0.52784903236E+02 -0.39070164688E+02 -0.28817876971E+03  0.30943253732E+03  0.91590218152E+02 0.  0.
        -13    1    4    4    0    0  0.40732232307E+02 -0.13557074175E+02 -0.36999961798E+02  0.56673780057E+02  0.10566000000E+00 0.  1.
         13    1    4    4    0    0  0.12052670929E+02 -0.25513090513E+02 -0.25117880791E+03  0.25275875726E+03  0.10566000000E+00 0. -1.
    9000005    1    3    3    0    0 -0.48805062504E+02 -0.39335072785E+02 -0.13859280569E+03  0.15211228703E+03  0.10000000000E+01 0.  0.
    9000005    1    3    3    0    0 -0.39798407312E+01  0.78405237473E+02 -0.17100773961E+03  0.18816978344E+03  0.10000000000E+01 0.  0.
<mgrwt>
<rscale>  0 0.13346697E+03</rscale>
<asrwt>0</asrwt>
<pdfrwt beam="2">  1        1 0.95961060E-01 0.14120690E+03</pdfrwt>
<pdfrwt beam="1">  1       -1 0.39950230E-02 0.14120690E+03</pdfrwt>
<totfact> 0.78934551E+03</totfact>
</mgrwt>
</event>
<event>
 8    3  0.1508318E-003  0.1368282E+03  0.7818608E-02  0.1230853E+00
          1   -1    0    0  501    0  0.00000000000E+00  0.00000000000E+00  0.22938837592E+04  0.22938837592E+04  0.50400000000E-02 0. -1.
         -1   -1    0    0    0  501 -0.00000000000E+00 -0.00000000000E+00 -0.90904845576E+01  0.90904859548E+01  0.50400000000E-02 0.  1.
         25    2    1    2    0    0  0.17157212421E+02  0.52936307395E+02  0.61901832485E+03  0.63396029281E+03  0.12500137513E+03 0.  0.
         23    2    1    2    0    0 -0.17157212421E+02 -0.52936307395E+02  0.16657749498E+04  0.16690139524E+04  0.87776803284E+02 0.  0.
        -13    1    4    4    0    0 -0.75871467077E+01 -0.98455684069E+01  0.27893571059E+02  0.30537886025E+02  0.10566000000E+00 0.  1.
         13    1    4    4    0    0 -0.95700657130E+01 -0.43090738988E+02  0.16378813788E+04  0.16384760664E+04  0.10566000000E+00 0. -1.
    9000005    1    3    3    0    0  0.14303344017E+02 -0.27927281121E+02  0.38632233068E+03  0.38759574542E+03  0.10000000000E+01 0.  0.
    9000005    1    3    3    0    0  0.28538684033E+01  0.80863588516E+02  0.23269599417E+03  0.24636454740E+03  0.10000000000E+01 0.  0.
<mgrwt>
<rscale>  0 0.12773701E+03</rscale>
<asrwt>0</asrwt>
<pdfrwt beam="1">  1        1 0.35290527E+00 0.13682824E+03</pdfrwt>
<pdfrwt beam="2">  1       -1 0.13985359E-02 0.13682824E+03</pdfrwt>
<totfact> 0.25125372E+03</totfact>
</mgrwt>
</event>
<event>
 8    3  0.1508318E-003  0.1377563E+03  0.7818608E-02  0.1227959E+00
          1   -1    0    0  501    0  0.00000000000E+00  0.00000000000E+00  0.51835686200E+02  0.51835686445E+02  0.50400000000E-02 0. -1.
         -1   -1    0    0    0  501 -0.00000000000E+00 -0.00000000000E+00 -0.36814557620E+03  0.36814557623E+03  0.50400000000E-02 0.  1.
         25    2    1    2    0    0 -0.17721645334E+02 -0.55105839313E+02 -0.26846918017E+03  0.30174908356E+03  0.12500439387E+03 0.  0.
         23    2    1    2    0    0  0.17721645334E+02  0.55105839313E+02 -0.47840709824E+02  0.11823217912E+03  0.91320339588E+02 0.  0.
        -13    1    4    4    0    0 -0.32811227747E+02  0.44898261428E+02 -0.32654172889E+02  0.64488268055E+02  0.10566000000E+00 0. -1.
         13    1    4    4    0    0  0.50532873081E+02  0.10207577885E+02 -0.15186536934E+02  0.53743911062E+02  0.10566000000E+00 0.  1.
    9000005    1    3    3    0    0  0.24246212488E+01  0.32617357707E+01  0.12962582969E+02  0.13621536832E+02  0.10000000000E+01 0.  0.
    9000005    1    3    3    0    0 -0.20146266583E+02 -0.58367575084E+02 -0.28143176314E+03  0.28812754673E+03  0.10000000000E+01 0.  0.
<mgrwt>
<rscale>  0 0.12966150E+03</rscale>
<asrwt>0</asrwt>
<pdfrwt beam="1">  1        1 0.79747212E-02 0.13775634E+03</pdfrwt>
<pdfrwt beam="2">  1       -1 0.56637779E-01 0.13775634E+03</pdfrwt>
<totfact> 0.27409840E+03</totfact>
</mgrwt>
</event>
<event>
 8    3  0.1508318E-003  0.1680190E+03  0.7818608E-02  0.1186764E+00
          1   -1    0    0  501    0  0.00000000000E+00  0.00000000000E+00  0.58288162923E+02  0.58288163141E+02  0.50400000000E-02 0. -1.
         -1   -1    0    0    0  501 -0.00000000000E+00 -0.00000000000E+00 -0.50830534044E+03  0.50830534047E+03  0.50400000000E-02 0.  1.
         25    2    1    2    0    0  0.59129427199E+00 -0.11227191415E+03 -0.35814557109E+03  0.39559909033E+03  0.12500023138E+03 0.  0.
         23    2    1    2    0    0 -0.59129427199E+00  0.11227191415E+03 -0.91871606428E+02  0.17099441327E+03  0.90517208132E+02 0.  0.
        -13    1    4    4    0    0 -0.30499478586E+02  0.51065173350E+02 -0.83267953890E+02  0.10233002215E+03  0.10566000000E+00 0.  1.
         13    1    4    4    0    0  0.29908184314E+02  0.61206740796E+02 -0.86036525376E+01  0.68664391128E+02  0.10566000000E+00 0. -1.
    9000005    1    3    3    0    0 -0.34890257779E+02 -0.46255750164E+02 -0.28513399244E+03  0.29096274359E+03  0.10000000000E+01 0.  0.
    9000005    1    3    3    0    0  0.35481552051E+02 -0.66016163983E+02 -0.73011578647E+02  0.10463634674E+03  0.10000000000E+01 0.  0.
<mgrwt>
<rscale>  0 0.16172358E+03</rscale>
<asrwt>0</asrwt>
<pdfrwt beam="1">  1        1 0.89674100E-02 0.16801902E+03</pdfrwt>
<pdfrwt beam="2">  1       -1 0.78200819E-01 0.16801902E+03</pdfrwt>
<totfact> 0.12560772E+03</totfact>
</mgrwt>
</event>
<event>
 8    3  0.1508318E-003  0.2966295E+03  0.7818608E-02  0.1088373E+00
          1   -1    0    0  501    0  0.00000000000E+00  0.00000000000E+00  0.66103821599E+03  0.66103821601E+03  0.50400000000E-02 0. -1.
         -1   -1    0    0    0  501 -0.00000000000E+00 -0.00000000000E+00 -0.24198933329E+03  0.24198933334E+03  0.50400000000E-02 0.  1.
         25    2    1    2    0    0 -0.26895820476E+03  0.48126757919E+01 -0.97980213753E+02  0.31239271725E+03  0.12500963862E+03 0.  0.
         23    2    1    2    0    0  0.26895820476E+03 -0.48126757919E+01  0.51702909646E+03  0.59063483210E+03  0.95753540664E+02 0.  0.
        -13    1    4    4    0    0  0.17738520810E+03 -0.35646845730E+02  0.26647586752E+03  0.32209565163E+03  0.10566000000E+00 0.  1.
         13    1    4    4    0    0  0.91572996660E+02  0.30834169938E+02  0.25055322894E+03  0.26853918048E+03  0.10566000000E+00 0. -1.
    9000005    1    3    3    0    0 -0.53648202646E+02  0.26042510134E+02  0.23684838846E+02  0.64174088013E+02  0.10000000000E+01 0.  0.
    9000005    1    3    3    0    0 -0.21531000211E+03 -0.21229834342E+02 -0.12166505260E+03  0.24821862924E+03  0.10000000000E+01 0.  0.
<mgrwt>
<rscale>  0 0.29381622E+03</rscale>
<asrwt>0</asrwt>
<pdfrwt beam="1">  1        1 0.10169819E+00 0.29662955E+03</pdfrwt>
<pdfrwt beam="2">  1       -1 0.37229128E-01 0.29662955E+03</pdfrwt>
<totfact> 0.21638837E+02</totfact>
</mgrwt>
</event>
<event>
 8    3  0.1508318E-003  0.1348908E+03  0.7818608E-02  0.1232490E+00
         -1   -1    0    0    0  501 -0.00000000000E+00  0.00000000000E+00  0.17257308054E+02  0.17257308790E+02  0.50400000000E-02 0. -1.
          1   -1    0    0  501    0  0.00000000000E+00 -0.00000000000E+00 -0.85792586923E+03  0.85792586925E+03  0.50400000000E-02 0.  1.
         25    2    1    2    0    0 -0.25106654113E+02 -0.44059286914E+02 -0.54570786812E+03  0.56213218372E+03  0.12499579916E+03 0.  0.
         23    2    1    2    0    0  0.25106654113E+02  0.44059286914E+02 -0.29496069306E+03  0.31305099432E+03  0.91801687058E+02 0.  0.
        -13    1    4    4    0    0  0.47875147486E+02  0.16265649966E+02 -0.25211102386E+03  0.25713144622E+03  0.10566000000E+00 0.  1.
         13    1    4    4    0    0 -0.22768493373E+02  0.27793636948E+02 -0.42849669199E+02  0.55919548101E+02  0.10566000000E+00 0. -1.
    9000005    1    3    3    0    0 -0.43928919389E+02  0.66429586856E+01 -0.67127317298E+02  0.80504382405E+02  0.10000000000E+01 0.  0.
    9000005    1    3    3    0    0  0.18822265276E+02 -0.50702245600E+02 -0.47858055082E+03  0.48162780132E+03  0.10000000000E+01 0.  0.
<mgrwt>
<rscale>  0 0.12666492E+03</rscale>
<asrwt>0</asrwt>
<pdfrwt beam="2">  1        1 0.13198856E+00 0.13489075E+03</pdfrwt>
<pdfrwt beam="1">  1       -1 0.26549712E-02 0.13489075E+03</pdfrwt>
<totfact> 0.89821930E+03</totfact>
</mgrwt>
</event>
<event>
 8    3  0.1508318E-003  0.1315788E+03  0.7818608E-02  0.1234901E+00
          1   -1    0    0  501    0  0.00000000000E+00  0.00000000000E+00  0.16751818495E+03  0.16751818502E+03  0.50400000000E-02 0. -1.
         -1   -1    0    0    0  501 -0.00000000000E+00 -0.00000000000E+00 -0.18681389453E+03  0.18681389459E+03  0.50400000000E-02 0.  1.
         25    2    1    2    0    0  0.32193581148E+02  0.25508074831E+02 -0.14036722684E+03  0.19239529397E+03  0.12500360884E+03 0.  0.
         23    2    1    2    0    0 -0.32193581148E+02 -0.25508074831E+02  0.12107151726E+03  0.16193678565E+03  0.99388740341E+02 0.  0.
        -13    1    4    4    0    0 -0.96081723127E+01  0.33122973694E+02  0.79334425880E+02  0.86506708729E+02  0.10566000000E+00 0. -1.
         13    1    4    4    0    0 -0.22585408835E+02 -0.58631048525E+02  0.41737091377E+02  0.75430076919E+02  0.10566000000E+00 0.  1.
    9000005    1    3    3    0    0 -0.28975969789E+02  0.33801100515E+02 -0.11900900120E+03  0.12706794871E+03  0.10000000000E+01 0.  0.
    9000005    1    3    3    0    0  0.61169550936E+02 -0.82930256842E+01 -0.21358225634E+02  0.65327345262E+02  0.10000000000E+01 0.  0.
<mgrwt>
<rscale>  0 0.12510761E+03</rscale>
<asrwt>0</asrwt>
<pdfrwt beam="1">  1        1 0.25772028E-01 0.13157884E+03</pdfrwt>
<pdfrwt beam="2">  1       -1 0.28740599E-01 0.13157884E+03</pdfrwt>
<totfact> 0.19714651E+03</totfact>
</mgrwt>
</event>
<event>
 8    3  0.1508318E-003  0.1807690E+03  0.7818608E-02  0.1172695E+00
         -1   -1    0    0    0  501 -0.00000000000E+00  0.00000000000E+00  0.16503432111E+03  0.16503432118E+03  0.50400000000E-02 0.  1.
          1   -1    0    0  501    0  0.00000000000E+00 -0.00000000000E+00 -0.17511876632E+03  0.17511876639E+03  0.50400000000E-02 0. -1.
         25    2    1    2    0    0 -0.89339994390E+02  0.95238159323E+02 -0.12816754874E+02  0.18122278736E+03  0.12500195144E+03 0.  0.
         23    2    1    2    0    0  0.89339994390E+02 -0.95238159323E+02  0.27323096603E+01  0.15893030022E+03  0.90550721824E+02 0.  0.
        -13    1    4    4    0    0  0.25504930824E+02 -0.25705315069E+02 -0.41169494072E+02  0.54828853036E+02  0.10566000000E+00 0. -1.
         13    1    4    4    0    0  0.63835063566E+02 -0.69532844254E+02  0.43901803732E+02  0.10410144718E+03  0.10566000000E+00 0.  1.
    9000005    1    3    3    0    0 -0.85550382271E+02  0.22821304326E+02 -0.47885303304E+02  0.10066619150E+03  0.10000000000E+01 0.  0.
    9000005    1    3    3    0    0 -0.37896121193E+01  0.72416854997E+02  0.35068548430E+02  0.80556595861E+02  0.10000000000E+01 0.  0.
<mgrwt>
<rscale>  0 0.17503649E+03</rscale>
<asrwt>0</asrwt>
<pdfrwt beam="2">  1        1 0.26941349E-01 0.18076899E+03</pdfrwt>
<pdfrwt beam="1">  1       -1 0.25389895E-01 0.18076899E+03</pdfrwt>
<totfact> 0.23183729E+03</totfact>
</mgrwt>
</event>
<event>
 8    3  0.1508318E-003  0.1744599E+03  0.7818608E-02  0.1179319E+00
         -1   -1    0    0    0  501 -0.00000000000E+00  0.00000000000E+00  0.99861252394E+02  0.99861252521E+02  0.50400000000E-02 0.  1.
          1   -1    0    0  501    0  0.00000000000E+00 -0.00000000000E+00 -0.27405496157E+03  0.27405496162E+03  0.50400000000E-02 0. -1.
         25    2    1    2    0    0  0.12645620163E+02 -0.12103951617E+03 -0.63127008324E+02  0.18552971920E+03  0.12500312533E+03 0.  0.
         23    2    1    2    0    0 -0.12645620163E+02  0.12103951617E+03 -0.11106670086E+03  0.18838649494E+03  0.91341027218E+02 0.  0.
        -13    1    4    4    0    0 -0.25853457970E+02  0.11960737545E+03 -0.12077403802E+03  0.17193226857E+03  0.10566000000E+00 0.  1.
         13    1    4    4    0    0  0.13207837807E+02  0.14321407243E+01  0.97073371690E+01  0.16454226373E+02  0.10566000000E+00 0. -1.
    9000005    1    3    3    0    0  0.47072866968E+02 -0.54157518108E+02 -0.80989406752E+02  0.10820894408E+03  0.10000000000E+01 0.  0.
    9000005    1    3    3    0    0 -0.34427246805E+02 -0.66881998064E+02  0.17862398428E+02  0.77320775121E+02  0.10000000000E+01 0.  0.
<mgrwt>
<rscale>  0 0.16859674E+03</rscale>
<asrwt>0</asrwt>
<pdfrwt beam="2">  1        1 0.42162301E-01 0.17445990E+03</pdfrwt>
<pdfrwt beam="1">  1       -1 0.15363270E-01 0.17445990E+03</pdfrwt>
<totfact> 0.29777758E+03</totfact>
</mgrwt>
</event>
<event>
 8    3  0.1508318E-003  0.1262605E+03  0.7818608E-02  0.1247968E+00
          1   -1    0    0  501    0  0.00000000000E+00  0.00000000000E+00  0.27781491399E+04  0.27781491399E+04  0.50400000000E-02 0. -1.
         -1   -1    0    0    0  501 -0.00000000000E+00 -0.00000000000E+00 -0.44211464116E+01  0.44211492843E+01  0.50400000000E-02 0.  1.
         25    2    1    2    0    0  0.15166528975E+02 -0.93612221885E+01  0.14064973589E+04  0.14121531510E+04  0.12499618134E+03 0.  0.
         23    2    1    2    0    0 -0.15166528975E+02  0.93612221885E+01  0.13672306346E+04  0.13704171381E+04  0.91683522298E+02 0.  0.
        -13    1    4    4    0    0  0.10313003932E+02 -0.38031499829E+02  0.62120578942E+03  0.62245433327E+03  0.10566000000E+00 0.  1.
         13    1    4    4    0    0 -0.25479532907E+02  0.47392722017E+02  0.74602484517E+03  0.74796280487E+03  0.10566000000E+00 0. -1.
    9000005    1    3    3    0    0 -0.46450248170E+02  0.22297332515E+02  0.81173985877E+03  0.81337408055E+03  0.10000000000E+01 0.  0.
    9000005    1    3    3    0    0  0.61616777145E+02 -0.31658554703E+02  0.59475750012E+03  0.59877907049E+03  0.10000000000E+01 0.  0.
<mgrwt>
<rscale>  0 0.11709464E+03</rscale>
<asrwt>0</asrwt>
<pdfrwt beam="1">  1        1 0.42740725E+00 0.12626045E+03</pdfrwt>
<pdfrwt beam="2">  1       -1 0.68017708E-03 0.12626045E+03</pdfrwt>
<totfact> 0.33810253E+03</totfact>
</mgrwt>
</event>
<event>
 8    3  0.1508318E-003  0.1517876E+03  0.7818608E-02  0.1207205E+00
          1   -1    0    0  501    0  0.00000000000E+00  0.00000000000E+00  0.41899691914E+02  0.41899692217E+02  0.50400000000E-02 0. -1.
         -1   -1    0    0    0  501 -0.00000000000E+00 -0.00000000000E+00 -0.46607317873E+03  0.46607317876E+03  0.50400000000E-02 0.  1.
         25    2    1    2    0    0  0.91637313460E+01 -0.85616128202E+02 -0.26589855117E+03  0.30617237208E+03  0.12500154610E+03 0.  0.
         23    2    1    2    0    0 -0.91637313460E+01  0.85616128202E+02 -0.15827493564E+03  0.20180049890E+03  0.90875688289E+02 0.  0.
        -13    1    4    4    0    0 -0.71804096303E+01  0.25977453287E+02 -0.13513933363E+03  0.13780071487E+03  0.10566000000E+00 0.  1.
         13    1    4    4    0    0 -0.19833217158E+01  0.59638674916E+02 -0.23135602015E+02  0.63999784026E+02  0.10566000000E+00 0. -1.
    9000005    1    3    3    0    0  0.44700028475E+01 -0.43597656886E+02 -0.76699825453E+01  0.44503541922E+02  0.10000000000E+01 0.  0.
    9000005    1    3    3    0    0  0.46937284986E+01 -0.42018471316E+02 -0.25822856863E+03  0.26166883015E+03  0.10000000000E+01 0.  0.
<mgrwt>
<rscale>  0 0.14465035E+03</rscale>
<asrwt>0</asrwt>
<pdfrwt beam="1">  1        1 0.64461068E-02 0.15178762E+03</pdfrwt>
<pdfrwt beam="2">  1       -1 0.71703562E-01 0.15178762E+03</pdfrwt>
<totfact> 0.23277527E+03</totfact>
</mgrwt>
</event>
<event>
 8    3  0.1508318E-003  0.2304873E+03  0.7818608E-02  0.1129374E+00
          1   -1    0    0  501    0  0.00000000000E+00  0.00000000000E+00  0.13608255594E+03  0.13608255604E+03  0.50400000000E-02 0. -1.
         -1   -1    0    0    0  501 -0.00000000000E+00 -0.00000000000E+00 -0.36288160468E+03  0.36288160472E+03  0.50400000000E-02 0.  1.
         25    2    1    2    0    0  0.71999564534E+02  0.17976492242E+03 -0.12693193065E+03  0.26312753279E+03  0.12500007548E+03 0.  0.
         23    2    1    2    0    0 -0.71999564534E+02 -0.17976492242E+03 -0.99867118097E+02  0.23583662797E+03  0.90255798644E+02 0.  0.
        -13    1    4    4    0    0 -0.69893903296E+02 -0.11457811008E+03 -0.24960292227E+02  0.13651493830E+03  0.10566000000E+00 0. -1.
         13    1    4    4    0    0 -0.21056612376E+01 -0.65186812340E+02 -0.74906825871E+02  0.99321689667E+02  0.10566000000E+00 0.  1.
    9000005    1    3    3    0    0  0.40208294605E+02  0.93282306017E+01 -0.68844827128E+02  0.80276603463E+02  0.10000000000E+01 0.  0.
    9000005    1    3    3    0    0  0.31791269929E+02  0.17043669181E+03 -0.58087103517E+02  0.18285092933E+03  0.10000000000E+01 0.  0.
<mgrwt>
<rscale>  0 0.22615694E+03</rscale>
<asrwt>0</asrwt>
<pdfrwt beam="1">  1        1 0.20935778E-01 0.23048727E+03</pdfrwt>
<pdfrwt beam="2">  1       -1 0.55827939E-01 0.23048727E+03</pdfrwt>
<totfact> 0.80312327E+02</totfact>
</mgrwt>
</event>
<event>
 8    3  0.1508318E-003  0.1674540E+03  0.7818608E-02  0.1187333E+00
         -1   -1    0    0    0  501 -0.00000000000E+00  0.00000000000E+00  0.15296962365E+02  0.15296963195E+02  0.50400000000E-02 0.  1.
          1   -1    0    0  501    0  0.00000000000E+00 -0.00000000000E+00 -0.31441178470E+04  0.31441178470E+04  0.50400000000E-02 0. -1.
         25    2    1    2    0    0  0.97681427000E+02 -0.53616983560E+02 -0.27353594127E+04  0.27404802400E+04  0.12499754813E+03 0.  0.
         23    2    1    2    0    0 -0.97681427000E+02  0.53616983560E+02 -0.39346147194E+03  0.41893457021E+03  0.90982427480E+02 0.  0.
        -13    1    4    4    0    0 -0.32917455530E+02 -0.18656008494E+02 -0.54442766809E+02  0.66299559224E+02  0.10566000000E+00 0. -1.
         13    1    4    4    0    0 -0.64763971470E+02  0.72272992053E+02 -0.33901870513E+03  0.35263501099E+03  0.10566000000E+00 0.  1.
    9000005    1    3    3    0    0 -0.58951018921E+01  0.97184293973E+01 -0.12842382320E+04  0.12842889226E+04  0.10000000000E+01 0.  0.
    9000005    1    3    3    0    0  0.10357652889E+03 -0.63335412957E+02 -0.14511211806E+04  0.14561913174E+04  0.10000000000E+01 0.  0.
<mgrwt>
<rscale>  0 0.16121400E+03</rscale>
<asrwt>0</asrwt>
<pdfrwt beam="2">  1        1 0.48370993E+00 0.16745396E+03</pdfrwt>
<pdfrwt beam="1">  1       -1 0.23533814E-02 0.16745396E+03</pdfrwt>
<totfact> 0.31762905E+02</totfact>
</mgrwt>
</event>
<event>
 8    3  0.1508318E-003  0.1332161E+03  0.7818608E-02  0.1235281E+00
         -1   -1    0    0    0  501 -0.00000000000E+00  0.00000000000E+00  0.29647831445E+03  0.29647831449E+03  0.50400000000E-02 0.  1.
          1   -1    0    0  501    0  0.00000000000E+00 -0.00000000000E+00 -0.52289604820E+02  0.52289605063E+02  0.50400000000E-02 0. -1.
         25    2    1    2    0    0  0.44445643047E+02 -0.12300312346E+02  0.81066583020E+02  0.15594332422E+03  0.12497926474E+03 0.  0.
         23    2    1    2    0    0 -0.44445643047E+02  0.12300312346E+02  0.16312212661E+03  0.19282459534E+03  0.91900944003E+02 0.  0.
        -13    1    4    4    0    0 -0.31009334654E+02 -0.39132166414E+01  0.16826891792E+03  0.17114710632E+03  0.10566000000E+00 0.  1.
         13    1    4    4    0    0 -0.13436308393E+02  0.16213528988E+02 -0.51467913078E+01  0.21677489021E+02  0.10566000000E+00 0. -1.
    9000005    1    3    3    0    0 -0.63572866198E+01 -0.61760228597E+02  0.42238039211E+02  0.75098554486E+02  0.10000000000E+01 0.  0.
    9000005    1    3    3    0    0  0.50802929667E+02  0.49459916251E+02  0.38828543809E+02  0.80844769729E+02  0.10000000000E+01 0.  0.
<mgrwt>
<rscale>  0 0.12486472E+03</rscale>
<asrwt>0</asrwt>
<pdfrwt beam="2">  1        1 0.80445544E-02 0.13321610E+03</pdfrwt>
<pdfrwt beam="1">  1       -1 0.45612050E-01 0.13321610E+03</pdfrwt>
<totfact> 0.40204829E+03</totfact>
</mgrwt>
</event>
<event>
 8    3  0.1508318E-003  0.1424855E+03  0.7818608E-02  0.1220362E+00
          1   -1    0    0  501    0  0.00000000000E+00  0.00000000000E+00  0.37990244059E+03  0.37990244062E+03  0.50400000000E-02 0. -1.
         -1   -1    0    0    0  501 -0.00000000000E+00 -0.00000000000E+00 -0.79425108029E+02  0.79425108189E+02  0.50400000000E-02 0.  1.
         25    2    1    2    0    0  0.59465527302E+01  0.68128736203E+02  0.51385309369E+01  0.14257817524E+03  0.12500098147E+03 0.  0.
         23    2    1    2    0    0 -0.59465527302E+01 -0.68128736203E+02  0.29533880163E+03  0.31674937358E+03  0.91805619276E+02 0.  0.
        -13    1    4    4    0    0  0.18010909513E+01 -0.58367402751E+02  0.70405149205E+02  0.91470726635E+02  0.10566000000E+00 0.  1.
         13    1    4    4    0    0 -0.77476436815E+01 -0.97613334518E+01  0.22493365242E+03  0.22527864694E+03  0.10566000000E+00 0. -1.
    9000005    1    3    3    0    0  0.85338337219E+01  0.13156246625E+02  0.61691404855E+02  0.63661154374E+02  0.10000000000E+01 0.  0.
    9000005    1    3    3    0    0 -0.25872809918E+01  0.54972489577E+02 -0.56552873918E+02  0.78917020861E+02  0.10000000000E+01 0.  0.
<mgrwt>
<rscale>  0 0.13489890E+03</rscale>
<asrwt>0</asrwt>
<pdfrwt beam="1">  1        1 0.58446530E-01 0.14248555E+03</pdfrwt>
<pdfrwt beam="2">  1       -1 0.12219247E-01 0.14248555E+03</pdfrwt>
<totfact> 0.28099257E+03</totfact>
</mgrwt>
</event>
<event>
 8    3  0.1508318E-003  0.1298731E+03  0.7818608E-02  0.1242788E+00
         -1   -1    0    0    0  501 -0.00000000000E+00  0.00000000000E+00  0.26214961968E+03  0.26214961973E+03  0.50400000000E-02 0.  1.
          1   -1    0    0  501    0  0.00000000000E+00 -0.00000000000E+00 -0.52794096656E+02  0.52794096897E+02  0.50400000000E-02 0. -1.
         25    2    1    2    0    0  0.35242559189E+02  0.14169464749E+00  0.74139134784E+02  0.14954473541E+03  0.12499983411E+03 0.  0.
         23    2    1    2    0    0 -0.35242559189E+02 -0.14169464749E+00  0.13521638824E+03  0.16539898122E+03  0.88494594654E+02 0.  0.
        -13    1    4    4    0    0  0.19556243326E+02  0.27300830443E+02  0.40915936372E+02  0.52933042697E+02  0.10566000000E+00 0.  1.
         13    1    4    4    0    0 -0.54798802515E+02 -0.27442525090E+02  0.94300451871E+02  0.11246593852E+03  0.10566000000E+00 0. -1.
    9000005    1    3    3    0    0 -0.47134555890E+00 -0.11352021628E+02  0.10210499169E+03  0.10274005981E+03  0.10000000000E+01 0.  0.
    9000005    1    3    3    0    0  0.35713904748E+02  0.11493716276E+02 -0.27965856902E+02  0.46804675605E+02  0.10000000000E+01 0.  0.
<mgrwt>
<rscale>  0 0.12018778E+03</rscale>
<asrwt>0</asrwt>
<pdfrwt beam="2">  1        1 0.81221687E-02 0.12987308E+03</pdfrwt>
<pdfrwt beam="1">  1       -1 0.40330711E-01 0.12987308E+03</pdfrwt>
<totfact> 0.49285413E+03</totfact>
</mgrwt>
</event>
<event>
 8    3  0.1508318E-003  0.1284370E+03  0.7818608E-02  0.1244206E+00
          1   -1    0    0  501    0  0.00000000000E+00  0.00000000000E+00  0.10324390226E+03  0.10324390239E+03  0.50400000000E-02 0. -1.
         -1   -1    0    0    0  501 -0.00000000000E+00 -0.00000000000E+00 -0.13379594490E+03  0.13379594499E+03  0.50400000000E-02 0.  1.
         25    2    1    2    0    0 -0.10851572559E+02 -0.27448017336E+02  0.18053686489E+02  0.12969961036E+03  0.12499961220E+03 0.  0.
         23    2    1    2    0    0  0.10851572559E+02  0.27448017336E+02 -0.48605729124E+02  0.10734023702E+03  0.91039877507E+02 0.  0.
        -13    1    4    4    0    0  0.34348229087E+02  0.86605839459E+01 -0.64297246532E+02  0.73409492787E+02  0.10566000000E+00 0.  1.
         13    1    4    4    0    0 -0.23496656528E+02  0.18787433390E+02  0.15691517407E+02  0.33930744229E+02  0.10566000000E+00 0. -1.
    9000005    1    3    3    0    0 -0.24487147253E+02  0.46721184436E+02  0.33829704686E+01  0.52867134827E+02  0.10000000000E+01 0.  0.
    9000005    1    3    3    0    0  0.13635574694E+02 -0.74169201771E+02  0.14670716020E+02  0.76832475537E+02  0.10000000000E+01 0.  0.
<mgrwt>
<rscale>  0 0.11933036E+03</rscale>
<asrwt>0</asrwt>
<pdfrwt beam="1">  1        1 0.15883677E-01 0.12843696E+03</pdfrwt>
<pdfrwt beam="2">  1       -1 0.20583992E-01 0.12843696E+03</pdfrwt>
<totfact> 0.62838959E+03</totfact>
</mgrwt>
</event>
<event>
 8    3  0.1508318E-003  0.1578857E+03  0.7818608E-02  0.1199305E+00
          1   -1    0    0  501    0  0.00000000000E+00  0.00000000000E+00  0.75359185170E+03  0.75359185172E+03  0.50400000000E-02 0. -1.
         -1   -1    0    0    0  501 -0.00000000000E+00 -0.00000000000E+00 -0.28259470233E+02  0.28259470682E+02  0.50400000000E-02 0.  1.
         25    2    1    2    0    0 -0.81671106899E+02  0.51315755532E+02  0.34868074198E+03  0.38276122092E+03  0.12499766375E+03 0.  0.
         23    2    1    2    0    0  0.81671106899E+02 -0.51315755532E+02  0.37665163948E+03  0.39909010148E+03  0.90016526838E+02 0.  0.
        -13    1    4    4    0    0  0.77254687177E+02 -0.14830109807E+02  0.33232748111E+03  0.34151103161E+03  0.10566000000E+00 0.  1.
         13    1    4    4    0    0  0.44164197219E+01 -0.36485645725E+02  0.44324158377E+02  0.57579069869E+02  0.10566000000E+00 0. -1.
    9000005    1    3    3    0    0 -0.72451657654E+01 -0.26318591785E+02  0.18435742895E+03  0.18637012183E+03  0.10000000000E+01 0.  0.
    9000005    1    3    3    0    0 -0.74425941134E+02  0.77634347317E+02  0.16432331303E+03  0.19639109909E+03  0.10000000000E+01 0.  0.
<mgrwt>
<rscale>  0 0.15095443E+03</rscale>
<asrwt>0</asrwt>
<pdfrwt beam="1">  1        1 0.11593721E+00 0.15788569E+03</pdfrwt>
<pdfrwt beam="2">  1       -1 0.43476108E-02 0.15788569E+03</pdfrwt>
<totfact> 0.53530387E+03</totfact>
</mgrwt>
</event>
<event>
 8    3  0.1508318E-003  0.1814016E+03  0.7818608E-02  0.1171920E+00
          1   -1    0    0  501    0  0.00000000000E+00  0.00000000000E+00  0.45779186057E+02  0.45779186334E+02  0.50400000000E-02 0. -1.
         -1   -1    0    0    0  501 -0.00000000000E+00 -0.00000000000E+00 -0.64695973059E+03  0.64695973061E+03  0.50400000000E-02 0.  1.
         25    2    1    2    0    0  0.97379536558E+02 -0.88313053282E+02 -0.36260900714E+03  0.40545262578E+03  0.12499828068E+03 0.  0.
         23    2    1    2    0    0 -0.97379536558E+02  0.88313053282E+02 -0.23857153739E+03  0.28728629116E+03  0.91296577789E+02 0.  0.
        -13    1    4    4    0    0 -0.35730547121E+01  0.83504330519E+00 -0.93782443640E+02  0.93854258915E+02  0.10566000000E+00 0.  1.
         13    1    4    4    0    0 -0.93806481846E+02  0.87478009977E+02 -0.14478909375E+03  0.19343203225E+03  0.10566000000E+00 0. -1.
    9000005    1    3    3    0    0 -0.68784010670E+01 -0.59710335690E+02 -0.20995277311E+03  0.21838911036E+03  0.10000000000E+01 0.  0.
    9000005    1    3    3    0    0  0.10425793763E+03 -0.28602717592E+02 -0.15265623404E+03  0.18706351542E+03  0.10000000000E+01 0.  0.
<mgrwt>
<rscale>  0 0.17581136E+03</rscale>
<asrwt>0</asrwt>
<pdfrwt beam="1">  1        1 0.70429522E-02 0.18140160E+03</pdfrwt>
<pdfrwt beam="2">  1       -1 0.99532260E-01 0.18140160E+03</pdfrwt>
<totfact> 0.10453338E+03</totfact>
</mgrwt>
</event>
<event>
 8    3  0.1508318E-003  0.1402257E+03  0.7818608E-02  0.1219813E+00
          1   -1    0    0  501    0  0.00000000000E+00  0.00000000000E+00  0.48340790312E+03  0.48340790315E+03  0.50400000000E-02 0. -1.
         -1   -1    0    0    0  501 -0.00000000000E+00 -0.00000000000E+00 -0.35633105289E+02  0.35633105646E+02  0.50400000000E-02 0.  1.
         25    2    1    2    0    0 -0.43728820269E+02 -0.46130668246E+02  0.25962312955E+03  0.29507189733E+03  0.12499202743E+03 0.  0.
         23    2    1    2    0    0  0.43728820269E+02  0.46130668246E+02  0.18815166828E+03  0.22396911146E+03  0.10354160680E+03 0.  0.
        -13    1    4    4    0    0  0.57080101603E+02  0.68805473338E+02  0.11142797191E+03  0.14285844479E+03  0.10566000000E+00 0.  1.
         13    1    4    4    0    0 -0.13351281334E+02 -0.22674805092E+02  0.76723696371E+02  0.81110666673E+02  0.10566000000E+00 0. -1.
    9000005    1    3    3    0    0 -0.19827135033E+02  0.25872561417E+02  0.18774976701E+03  0.19056096067E+03  0.10000000000E+01 0.  0.
    9000005    1    3    3    0    0 -0.23901685235E+02 -0.72003229663E+02  0.71873362539E+02  0.10451093666E+03  0.10000000000E+01 0.  0.
<mgrwt>
<rscale>  0 0.13528843E+03</rscale>
<asrwt>0</asrwt>
<pdfrwt beam="1">  1        1 0.74370445E-01 0.14022573E+03</pdfrwt>
<pdfrwt beam="2">  1       -1 0.54820163E-02 0.14022573E+03</pdfrwt>
<totfact> 0.69463220E+03</totfact>
</mgrwt>
</event>
<event>
 8    3  0.1508318E-003  0.1281304E+03  0.7818608E-02  0.1234556E+00
         -1   -1    0    0    0  501 -0.00000000000E+00  0.00000000000E+00  0.14812254562E+02  0.14812255419E+02  0.50400000000E-02 0.  1.
          1   -1    0    0  501    0  0.00000000000E+00 -0.00000000000E+00 -0.10183811841E+04  0.10183811841E+04  0.50400000000E-02 0. -1.
         25    2    1    2    0    0  0.66857811471E+01 -0.27336859986E+02 -0.50200351943E+03  0.51809741595E+03  0.12500158125E+03 0.  0.
         23    2    1    2    0    0 -0.66857811471E+01  0.27336859986E+02 -0.50156541009E+03  0.51509602356E+03  0.11385977914E+03 0.  0.
        -13    1    4    4    0    0  0.45307749930E+02  0.42952366966E+02 -0.24288739399E+03  0.25078276526E+03  0.10566000000E+00 0.  1.
         13    1    4    4    0    0 -0.51993531077E+02 -0.15615506980E+02 -0.25867801611E+03  0.26431325830E+03  0.10566000000E+00 0. -1.
    9000005    1    3    3    0    0 -0.13875919182E+02  0.28984860152E+02 -0.38759457773E+03  0.38892572548E+03  0.10000000000E+01 0.  0.
    9000005    1    3    3    0    0  0.20561700329E+02 -0.56321720138E+02 -0.11440894170E+03  0.12917169047E+03  0.10000000000E+01 0.  0.
<mgrwt>
<rscale>  0 0.12532879E+03</rscale>
<asrwt>0</asrwt>
<pdfrwt beam="2">  1        1 0.15667397E+00 0.12813040E+03</pdfrwt>
<pdfrwt beam="1">  1       -1 0.22788093E-02 0.12813040E+03</pdfrwt>
<totfact> 0.84585535E+03</totfact>
</mgrwt>
</event>
<event>
 8    3  0.1508318E-003  0.1462168E+03  0.7818608E-02  0.1215650E+00
          1   -1    0    0  501    0  0.00000000000E+00  0.00000000000E+00  0.26980211446E+02  0.26980211917E+02  0.50400000000E-02 0. -1.
         -1   -1    0    0    0  501 -0.00000000000E+00 -0.00000000000E+00 -0.80557304069E+03  0.80557304071E+03  0.50400000000E-02 0.  1.
         25    2    1    2    0    0 -0.69612631407E+02 -0.30133928867E+02 -0.61042785319E+03  0.62769540043E+03  0.12500151858E+03 0.  0.
         23    2    1    2    0    0  0.69612631407E+02  0.30133928867E+02 -0.16816497606E+03  0.20485785220E+03  0.89069120996E+02 0.  0.
        -13    1    4    4    0    0  0.21109739583E+02 -0.26230318710E+02 -0.93941559381E+02  0.99793178463E+02  0.10566000000E+00 0.  1.
         13    1    4    4    0    0  0.48502891824E+02  0.56364247577E+02 -0.74223416678E+02  0.10506467374E+03  0.10566000000E+00 0. -1.
    9000005    1    3    3    0    0  0.60419787626E+01 -0.42660594485E+02 -0.42291981381E+03  0.42511010426E+03  0.10000000000E+01 0.  0.
    9000005    1    3    3    0    0 -0.75654610169E+02  0.12526665618E+02 -0.18750803937E+03  0.20258529616E+03  0.10000000000E+01 0.  0.
<mgrwt>
<rscale>  0 0.13828899E+03</rscale>
<asrwt>0</asrwt>
<pdfrwt beam="1">  1        1 0.41508024E-02 0.14621680E+03</pdfrwt>
<pdfrwt beam="2">  1       -1 0.12393430E+00 0.14621680E+03</pdfrwt>
<totfact> 0.12956807E+03</totfact>
</mgrwt>
</event>
<event>
 8    3  0.1508318E-003  0.1301441E+03  0.7818608E-02  0.1243492E+00
          1   -1    0    0  501    0  0.00000000000E+00  0.00000000000E+00  0.29859924291E+03  0.29859924295E+03  0.50400000000E-02 0. -1.
         -1   -1    0    0    0  501 -0.00000000000E+00 -0.00000000000E+00 -0.45586244233E+02  0.45586244512E+02  0.50400000000E-02 0.  1.
         25    2    1    2    0    0 -0.67028765784E+01 -0.35687299805E+02  0.96711772370E+02  0.16214390213E+03  0.12497586231E+03 0.  0.
         23    2    1    2    0    0  0.67028765784E+01  0.35687299805E+02  0.15630122630E+03  0.18204158533E+03  0.85968328613E+02 0.  0.
        -13    1    4    4    0    0 -0.91638828236E+01 -0.16618661864E+02  0.29066236716E+01  0.19199382692E+02  0.10566000000E+00 0.  1.
         13    1    4    4    0    0  0.15866759402E+02  0.52305961669E+02  0.15339460263E+03  0.16284220264E+03  0.10566000000E+00 0. -1.
    9000005    1    3    3    0    0  0.24836041264E+02  0.34597169196E+02  0.67357338825E+02  0.79698206728E+02  0.10000000000E+01 0.  0.
    9000005    1    3    3    0    0 -0.31538917842E+02 -0.70284469001E+02  0.29354433546E+02  0.82445695402E+02  0.10000000000E+01 0.  0.
<mgrwt>
<rscale>  0 0.11976081E+03</rscale>
<asrwt>0</asrwt>
<pdfrwt beam="1">  1        1 0.45938347E-01 0.13014407E+03</pdfrwt>
<pdfrwt beam="2">  1       -1 0.70132681E-02 0.13014407E+03</pdfrwt>
<totfact> 0.87776411E+03</totfact>
</mgrwt>
</event>
<event>
 8    3  0.1508318E-003  0.1560649E+03  0.7818608E-02  0.1201207E+00
         -1   -1    0    0    0  501 -0.00000000000E+00  0.00000000000E+00  0.71645831519E+02  0.71645831697E+02  0.50400000000E-02 0.  1.
          1   -1    0    0  501    0  0.00000000000E+00 -0.00000000000E+00 -0.31982849200E+03  0.31982849204E+03  0.50400000000E-02 0. -1.
         25    2    1    2    0    0  0.44406622908E+02 -0.82211419522E+02 -0.19562305304E+03  0.25024916458E+03  0.12500239932E+03 0.  0.
         23    2    1    2    0    0 -0.44406622908E+02  0.82211419522E+02 -0.52559607438E+02  0.14122515915E+03  0.91931319936E+02 0.  0.
        -13    1    4    4    0    0 -0.66930201243E+02  0.51304888248E+02 -0.11496646526E+02  0.85111852535E+02  0.10566000000E+00 0.  1.
         13    1    4    4    0    0  0.22523578335E+02  0.30906531274E+02 -0.41062960912E+02  0.56113306615E+02  0.10566000000E+00 0. -1.
    9000005    1    3    3    0    0  0.86958005799E+02 -0.42738138257E+02 -0.13645939043E+03  0.16736310367E+03  0.10000000000E+01 0.  0.
    9000005    1    3    3    0    0 -0.42551382891E+02 -0.39473281265E+02 -0.59163662608E+02  0.82886060908E+02  0.10000000000E+01 0.  0.
<mgrwt>
<rscale>  0 0.14940438E+03</rscale>
<asrwt>0</asrwt>
<pdfrwt beam="2">  1        1 0.49204382E-01 0.15606494E+03</pdfrwt>
<pdfrwt beam="1">  1       -1 0.11022436E-01 0.15606494E+03</pdfrwt>
<totfact> 0.41027364E+03</totfact>
</mgrwt>
</event>
<event>
 8    3  0.1508318E-003  0.2194347E+03  0.7818608E-02  0.1137750E+00
         -1   -1    0    0    0  501 -0.00000000000E+00  0.00000000000E+00  0.24902711897E+03  0.24902711902E+03  0.50400000000E-02 0.  1.
          1   -1    0    0  501    0  0.00000000000E+00 -0.00000000000E+00 -0.18649963606E+03  0.18649963613E+03  0.50400000000E-02 0. -1.
         25    2    1    2    0    0  0.12190325059E+03 -0.13291246910E+03 -0.13537107530E+02  0.21985186087E+03  0.12500184199E+03 0.  0.
         23    2    1    2    0    0 -0.12190325059E+03  0.13291246910E+03  0.76064590441E+02  0.21567489428E+03  0.90574340488E+02 0.  0.
        -13    1    4    4    0    0 -0.51056793171E+02  0.70464984239E+01  0.43897669285E+02  0.67701298375E+02  0.10566000000E+00 0.  1.
         13    1    4    4    0    0 -0.70846457424E+02  0.12586597068E+03  0.32166921156E+02  0.14797359590E+03  0.10566000000E+00 0. -1.
    9000005    1    3    3    0    0  0.43358384378E+02  0.10390390493E+02 -0.32716167157E+02  0.55310553278E+02  0.10000000000E+01 0.  0.
    9000005    1    3    3    0    0  0.78544866217E+02 -0.14330285959E+03  0.19179059628E+02  0.16454130759E+03  0.10000000000E+01 0.  0.
<mgrwt>
<rscale>  0 0.21489092E+03</rscale>
<asrwt>0</asrwt>
<pdfrwt beam="2">  1        1 0.28692252E-01 0.21943470E+03</pdfrwt>
<pdfrwt beam="1">  1       -1 0.38311865E-01 0.21943470E+03</pdfrwt>
<totfact> 0.10666303E+03</totfact>
</mgrwt>
</event>
<event>
 8    3  0.1508318E-003  0.2936083E+03  0.7818608E-02  0.1090607E+00
          1   -1    0    0  501    0  0.00000000000E+00  0.00000000000E+00  0.19923188141E+03  0.19923188147E+03  0.50400000000E-02 0. -1.
         -1   -1    0    0    0  501 -0.00000000000E+00 -0.00000000000E+00 -0.41248101881E+03  0.41248101884E+03  0.50400000000E-02 0.  1.
         25    2    1    2    0    0  0.17068878494E+03 -0.20358507499E+03 -0.13629703023E+03  0.32370162323E+03  0.12499726545E+03 0.  0.
         23    2    1    2    0    0 -0.17068878494E+03  0.20358507499E+03 -0.76952107166E+02  0.28801127708E+03  0.80295235628E+02 0.  0.
        -13    1    4    4    0    0 -0.10054152470E+03  0.95306812259E+02 -0.14808929862E+01  0.13854310109E+03  0.10566000000E+00 0.  1.
         13    1    4    4    0    0 -0.70147260238E+02  0.10827826273E+03 -0.75471214180E+02  0.14946817599E+03  0.10566000000E+00 0. -1.
    9000005    1    3    3    0    0  0.14647056384E+03 -0.15087211788E+03 -0.44232297227E+02  0.21488024140E+03  0.10000000000E+01 0.  0.
    9000005    1    3    3    0    0  0.24218221098E+02 -0.52712957108E+02 -0.92064733006E+02  0.10882138183E+03  0.10000000000E+01 0.  0.
<mgrwt>
<rscale>  0 0.28950628E+03</rscale>
<asrwt>0</asrwt>
<pdfrwt beam="1">  1        1 0.30651059E-01 0.29360835E+03</pdfrwt>
<pdfrwt beam="2">  1       -1 0.63458618E-01 0.29360835E+03</pdfrwt>
<totfact> 0.38544986E+02</totfact>
</mgrwt>
</event>
<event>
 8    3  0.1508318E-003  0.1464289E+03  0.7818608E-02  0.1214401E+00
         -1   -1    0    0    0  501 -0.00000000000E+00  0.00000000000E+00  0.17828164161E+02  0.17828164873E+02  0.50400000000E-02 0.  1.
          1   -1    0    0  501    0  0.00000000000E+00 -0.00000000000E+00 -0.10678885656E+04  0.10678885656E+04  0.50400000000E-02 0. -1.
         25    2    1    2    0    0 -0.64947766762E+02  0.39962285870E+02 -0.43063211658E+03  0.45484660078E+03  0.12500485474E+03 0.  0.
         23    2    1    2    0    0  0.64947766762E+02 -0.39962285870E+02 -0.61942828483E+03  0.63087012968E+03  0.92144038196E+02 0.  0.
        -13    1    4    4    0    0  0.55653469676E+02 -0.29508984813E+01 -0.53871774525E+03  0.54159286988E+03  0.10566000000E+00 0.  1.
         13    1    4    4    0    0  0.92942970860E+01 -0.37011387388E+02 -0.80710539578E+02  0.89277259802E+02  0.10566000000E+00 0. -1.
    9000005    1    3    3    0    0 -0.28782578740E+01 -0.12242468563E+02 -0.30528371311E+03  0.30554428140E+03  0.10000000000E+01 0.  0.
    9000005    1    3    3    0    0 -0.62069508888E+02  0.52204754432E+02 -0.12534840347E+03  0.14930231938E+03  0.10000000000E+01 0.  0.
<mgrwt>
<rscale>  0 0.13920625E+03</rscale>
<asrwt>0</asrwt>
<pdfrwt beam="2">  1        1 0.16429050E+00 0.14642886E+03</pdfrwt>
<pdfrwt beam="1">  1       -1 0.27427954E-02 0.14642886E+03</pdfrwt>
<totfact> 0.59944021E+03</totfact>
</mgrwt>
</event>
<event>
 8    3  0.1508318E-003  0.2095101E+03  0.7818608E-02  0.1145708E+00
         -1   -1    0    0    0  501 -0.00000000000E+00  0.00000000000E+00  0.36154196573E+02  0.36154196925E+02  0.50400000000E-02 0.  1.
          1   -1    0    0  501    0  0.00000000000E+00 -0.00000000000E+00 -0.12786057379E+04  0.12786057379E+04  0.50400000000E-02 0. -1.
         25    2    1    2    0    0  0.15634719800E+03  0.61846120003E+02 -0.88263483326E+03  0.90715969589E+03  0.12500030434E+03 0.  0.
         23    2    1    2    0    0 -0.15634719800E+03 -0.61846120003E+02 -0.35981670810E+03  0.40760023897E+03  0.91654255239E+02 0.  0.
        -13    1    4    4    0    0 -0.68502457282E+02 -0.75039386687E+02 -0.17048609482E+03  0.19846666193E+03  0.10566000000E+00 0. -1.
         13    1    4    4    0    0 -0.87844740718E+02  0.13193266684E+02 -0.18933061328E+03  0.20913357704E+03  0.10566000000E+00 0.  1.
    9000005    1    3    3    0    0  0.89048016420E+02  0.60601383157E+02 -0.26782076022E+03  0.28867115629E+03  0.10000000000E+01 0.  0.
    9000005    1    3    3    0    0  0.67299181580E+02  0.12447368459E+01 -0.61481407304E+03  0.61848853960E+03  0.10000000000E+01 0.  0.
<mgrwt>
<rscale>  0 0.20485302E+03</rscale>
<asrwt>0</asrwt>
<pdfrwt beam="2">  1        1 0.19670854E+00 0.20951006E+03</pdfrwt>
<pdfrwt beam="1">  1       -1 0.55621851E-02 0.20951006E+03</pdfrwt>
<totfact> 0.15147440E+03</totfact>
</mgrwt>
</event>
<event>
 8    3  0.1508318E-003  0.1830113E+03  0.7818608E-02  0.1169873E+00
          1   -1    0    0  501    0  0.00000000000E+00  0.00000000000E+00  0.71789633873E+03  0.71789633875E+03  0.50400000000E-02 0. -1.
         -1   -1    0    0    0  501 -0.00000000000E+00 -0.00000000000E+00 -0.65585214668E+02  0.65585214862E+02  0.50400000000E-02 0.  1.
         25    2    1    2    0    0  0.43730125828E+02  0.12633353541E+03  0.57377521243E+03  0.60225504709E+03  0.12498264390E+03 0.  0.
         23    2    1    2    0    0 -0.43730125828E+02 -0.12633353541E+03  0.78535911630E+02  0.18122650652E+03  0.93822551528E+02 0.  0.
        -13    1    4    4    0    0 -0.67239321023E+02 -0.54235755340E+02  0.31288558488E+02  0.91878335342E+02  0.10566000000E+00 0.  1.
         13    1    4    4    0    0  0.23509195194E+02 -0.72097780067E+02  0.47247353141E+02  0.89348171174E+02  0.10566000000E+00 0. -1.
    9000005    1    3    3    0    0  0.86513339059E+02  0.66676392376E+02  0.36147002337E+03  0.37761339613E+03  0.10000000000E+01 0.  0.
    9000005    1    3    3    0    0 -0.42783213230E+02  0.59657143030E+02  0.21230518906E+03  0.22464165097E+03  0.10000000000E+01 0.  0.
<mgrwt>
<rscale>  0 0.17787784E+03</rscale>
<asrwt>0</asrwt>
<pdfrwt beam="1">  1        1 0.11044559E+00 0.18301133E+03</pdfrwt>
<pdfrwt beam="2">  1       -1 0.10090033E-01 0.18301133E+03</pdfrwt>
<totfact> 0.16250507E+03</totfact>
</mgrwt>
</event>
<event>
 8    3  0.1508318E-003  0.1408390E+03  0.7818608E-02  0.1222492E+00
          1   -1    0    0  501    0  0.00000000000E+00  0.00000000000E+00  0.78692990377E+02  0.78692990539E+02  0.50400000000E-02 0. -1.
         -1   -1    0    0    0  501 -0.00000000000E+00 -0.00000000000E+00 -0.21355663088E+03  0.21355663094E+03  0.50400000000E-02 0.  1.
         25    2    1    2    0    0 -0.39478771186E+02  0.51501656202E+02 -0.45859748856E+02  0.14811736717E+03  0.12499857569E+03 0.  0.
         23    2    1    2    0    0  0.39478771186E+02 -0.51501656202E+02 -0.89003891647E+02  0.14413225431E+03  0.92959238585E+02 0.  0.
        -13    1    4    4    0    0  0.45369484076E+02 -0.37241253160E+02 -0.10600659284E+03  0.12117223242E+03  0.10566000000E+00 0.  1.
         13    1    4    4    0    0 -0.58907128893E+01 -0.14260403042E+02  0.17002701188E+02  0.22960021886E+02  0.10566000000E+00 0. -1.
    9000005    1    3    3    0    0  0.20290322292E+02 -0.20246197643E+02 -0.46610048795E+02  0.54727528232E+02  0.10000000000E+01 0.  0.
    9000005    1    3    3    0    0 -0.59769093478E+02  0.71747853845E+02  0.75029993928E+00  0.93389838936E+02  0.10000000000E+01 0.  0.
<mgrwt>
<rscale>  0 0.13340294E+03</rscale>
<asrwt>0</asrwt>
<pdfrwt beam="1">  1        1 0.12106614E-01 0.14083905E+03</pdfrwt>
<pdfrwt beam="2">  1       -1 0.32854866E-01 0.14083905E+03</pdfrwt>
<totfact> 0.41570389E+03</totfact>
</mgrwt>
</event>
<event>
 8    3  0.1508318E-003  0.1634487E+03  0.7818608E-02  0.1192134E+00
         -1   -1    0    0    0  501 -0.00000000000E+00  0.00000000000E+00  0.90275017487E+02  0.90275017628E+02  0.50400000000E-02 0.  1.
          1   -1    0    0  501    0  0.00000000000E+00 -0.00000000000E+00 -0.25410967001E+03  0.25410967006E+03  0.50400000000E-02 0. -1.
         25    2    1    2    0    0  0.17203800654E+02  0.10389394016E+03 -0.80202743687E+02  0.18206579642E+03  0.12500221027E+03 0.  0.
         23    2    1    2    0    0 -0.17203800654E+02 -0.10389394016E+03 -0.83631908835E+02  0.16231889127E+03  0.90902171206E+02 0.  0.
        -13    1    4    4    0    0  0.17239566085E+02 -0.49186146190E+02  0.52822690161E+01  0.52386955875E+02  0.10566000000E+00 0.  1.
         13    1    4    4    0    0 -0.34443366740E+02 -0.54707793967E+02 -0.88914177851E+02  0.10993193540E+03  0.10566000000E+00 0. -1.
    9000005    1    3    3    0    0  0.13299841427E+02  0.68514055783E+02  0.22522509032E+02  0.73343882055E+02  0.10000000000E+01 0.  0.
    9000005    1    3    3    0    0  0.39039592273E+01  0.35379884373E+02 -0.10272525272E+03  0.10872191436E+03  0.10000000000E+01 0.  0.
<mgrwt>
<rscale>  0 0.15699289E+03</rscale>
<asrwt>0</asrwt>
<pdfrwt beam="2">  1        1 0.39093795E-01 0.16344869E+03</pdfrwt>
<pdfrwt beam="1">  1       -1 0.13888464E-01 0.16344869E+03</pdfrwt>
<totfact> 0.38230588E+03</totfact>
</mgrwt>
</event>
<event>
 8    3  0.1508318E-003  0.1299481E+03  0.7818608E-02  0.1240558E+00
          1   -1    0    0  501    0  0.00000000000E+00  0.00000000000E+00  0.61571486721E+02  0.61571486927E+02  0.50400000000E-02 0. -1.
         -1   -1    0    0    0  501 -0.00000000000E+00 -0.00000000000E+00 -0.22611336592E+03  0.22611336598E+03  0.50400000000E-02 0.  1.
         25    2    1    2    0    0 -0.35506760907E+02  0.88051715451E+00 -0.59214958078E+02  0.14280381235E+03  0.12500004873E+03 0.  0.
         23    2    1    2    0    0  0.35506760907E+02 -0.88051715451E+00 -0.10532692112E+03  0.14488104055E+03  0.92926047038E+02 0.  0.
        -13    1    4    4    0    0 -0.21270172226E+02  0.28085007651E+02 -0.44688844091E+02  0.56905991174E+02  0.10566000000E+00 0. -1.
         13    1    4    4    0    0  0.56776933132E+02 -0.28965524806E+02 -0.60638077031E+02  0.87975049379E+02  0.10566000000E+00 0.  1.
    9000005    1    3    3    0    0 -0.28628309874E+02  0.46369314984E+02  0.14050323167E+02  0.56285922569E+02  0.10000000000E+01 0.  0.
    9000005    1    3    3    0    0 -0.68784510324E+01 -0.45488797829E+02 -0.73265281245E+02  0.86517889783E+02  0.10000000000E+01 0.  0.
<mgrwt>
<rscale>  0 0.12155257E+03</rscale>
<asrwt>0</asrwt>
<pdfrwt beam="1">  1        1 0.94725365E-02 0.12994813E+03</pdfrwt>
<pdfrwt beam="2">  1       -1 0.34786671E-01 0.12994813E+03</pdfrwt>
<totfact> 0.51871585E+03</totfact>
</mgrwt>
</event>
<event>
 8    3  0.1508318E-003  0.1362232E+03  0.7818608E-02  0.1231650E+00
         -1   -1    0    0    0  501 -0.00000000000E+00  0.00000000000E+00  0.45073541084E+03  0.45073541087E+03  0.50400000000E-02 0.  1.
          1   -1    0    0  501    0  0.00000000000E+00 -0.00000000000E+00 -0.37051039989E+02  0.37051040332E+02  0.50400000000E-02 0. -1.
         25    2    1    2    0    0  0.47503237374E+02  0.25976400928E+02  0.14087042027E+03  0.19596231167E+03  0.12500168527E+03 0.  0.
         23    2    1    2    0    0 -0.47503237374E+02 -0.25976400928E+02  0.27281395058E+03  0.29182413953E+03  0.88332020341E+02 0.  0.
        -13    1    4    4    0    0 -0.27905576430E+02 -0.96982512389E+00  0.25266341537E+03  0.25420164119E+03  0.10566000000E+00 0.  1.
         13    1    4    4    0    0 -0.19597660945E+02 -0.25006575804E+02  0.20150535212E+02  0.37622498340E+02  0.10566000000E+00 0. -1.
    9000005    1    3    3    0    0 -0.24222238142E+02  0.11107504380E+02 -0.98132896436E+01  0.28414681554E+02  0.10000000000E+01 0.  0.
    9000005    1    3    3    0    0  0.71725475517E+02  0.14868896548E+02  0.15068370992E+03  0.16754763011E+03  0.10000000000E+01 0.  0.
<mgrwt>
<rscale>  0 0.12721339E+03</rscale>
<asrwt>0</asrwt>
<pdfrwt beam="2">  1        1 0.57001599E-02 0.13622317E+03</pdfrwt>
<pdfrwt beam="1">  1       -1 0.69343912E-01 0.13622317E+03</pdfrwt>
<totfact> 0.29237752E+03</totfact>
</mgrwt>
</event>
<event>
 8    3  0.1508318E-003  0.1262185E+03  0.7818608E-02  0.1248155E+00
          1   -1    0    0  501    0  0.00000000000E+00  0.00000000000E+00  0.87623936707E+02  0.87623936852E+02  0.50400000000E-02 0. -1.
         -1   -1    0    0    0  501 -0.00000000000E+00 -0.00000000000E+00 -0.14904924188E+03  0.14904924196E+03  0.50400000000E-02 0.  1.
         25    2    1    2    0    0 -0.14796862473E+02 -0.91430937113E+01 -0.67866218730E+02  0.14330712482E+03  0.12501425950E+03 0.  0.
         23    2    1    2    0    0  0.14796862473E+02  0.91430937113E+01  0.64409135596E+01  0.93366053997E+02  0.91505143953E+02 0.  0.
        -13    1    4    4    0    0 -0.31306692622E+02 -0.15088570099E+02  0.19252580457E+02  0.39729673656E+02  0.10566000000E+00 0. -1.
         13    1    4    4    0    0  0.46103555094E+02  0.24231663810E+02 -0.12811666897E+02  0.53636380341E+02  0.10566000000E+00 0.  1.
    9000005    1    3    3    0    0  0.69065035384E+01  0.44199932145E+02  0.10585022878E+02  0.45982349897E+02  0.10000000000E+01 0.  0.
    9000005    1    3    3    0    0 -0.21703366011E+02 -0.53343025856E+02 -0.78451241607E+02  0.97324774921E+02  0.10000000000E+01 0.  0.
<mgrwt>
<rscale>  0 0.11698509E+03</rscale>
<asrwt>0</asrwt>
<pdfrwt beam="1">  1        1 0.13480606E-01 0.12621849E+03</pdfrwt>
<pdfrwt beam="2">  1       -1 0.22930653E-01 0.12621849E+03</pdfrwt>
<totfact> 0.65176007E+03</totfact>
</mgrwt>
</event>
<event>
 8    3  0.1508318E-003  0.1284120E+03  0.7818608E-02  0.1244342E+00
          1   -1    0    0  501    0  0.00000000000E+00  0.00000000000E+00  0.11823902874E+04  0.11823902874E+04  0.50400000000E-02 0. -1.
         -1   -1    0    0    0  501 -0.00000000000E+00 -0.00000000000E+00 -0.10656642118E+02  0.10656643309E+02  0.50400000000E-02 0.  1.
         25    2    1    2    0    0 -0.25350657227E+02 -0.14914748994E+02  0.71434546758E+03  0.72579548734E+03  0.12499814732E+03 0.  0.
         23    2    1    2    0    0  0.25350657227E+02  0.14914748994E+02  0.45738817767E+03  0.46725144335E+03  0.90856263838E+02 0.  0.
        -13    1    4    4    0    0  0.17424122004E+02  0.27296080091E+02  0.49830335537E+02  0.59428524461E+02  0.10566000000E+00 0.  1.
         13    1    4    4    0    0  0.79265352229E+01 -0.12381331096E+02  0.40755784214E+03  0.40782291889E+03  0.10566000000E+00 0. -1.
    9000005    1    3    3    0    0  0.49196709388E+02 -0.10743483367E+02  0.37251014348E+03  0.37589964837E+03  0.10000000000E+01 0.  0.
    9000005    1    3    3    0    0 -0.74547366615E+02 -0.41712656272E+01  0.34183532411E+03  0.34989583898E+03  0.10000000000E+01 0.  0.
<mgrwt>
<rscale>  0 0.11924862E+03</rscale>
<asrwt>0</asrwt>
<pdfrwt beam="1">  1        1 0.18190630E+00 0.12841200E+03</pdfrwt>
<pdfrwt beam="2">  1       -1 0.16394825E-02 0.12841200E+03</pdfrwt>
<totfact> 0.10417945E+04</totfact>
</mgrwt>
</event>
<event>
 8    3  0.1508318E-003  0.1264819E+03  0.7818608E-02  0.1246214E+00
         -1   -1    0    0    0  501 -0.00000000000E+00  0.00000000000E+00  0.23541956807E+02  0.23541957346E+02  0.50400000000E-02 0.  1.
          1   -1    0    0  501    0  0.00000000000E+00 -0.00000000000E+00 -0.89162879053E+03  0.89162879055E+03  0.50400000000E-02 0. -1.
         25    2    1    2    0    0 -0.11415401153E+02 -0.15555628988E+02 -0.75997624207E+03  0.77042946672E+03  0.12500154278E+03 0.  0.
         23    2    1    2    0    0  0.11415401153E+02  0.15555628988E+02 -0.10811059166E+03  0.14474128118E+03  0.94285998283E+02 0.  0.
        -13    1    4    4    0    0 -0.79868024639E+01 -0.81641036217E+01 -0.11311562232E+03  0.11369079461E+03  0.10566000000E+00 0. -1.
         13    1    4    4    0    0  0.19402203617E+02  0.23719732610E+02  0.50050306645E+01  0.31050486570E+02  0.10566000000E+00 0.  1.
    9000005    1    3    3    0    0  0.43034983588E+02 -0.36592369417E+02 -0.53600143662E+03  0.53897082609E+03  0.10000000000E+01 0.  0.
    9000005    1    3    3    0    0 -0.54450384741E+02  0.21036740429E+02 -0.22397480545E+03  0.23145864063E+03  0.10000000000E+01 0.  0.
<mgrwt>
<rscale>  0 0.11813001E+03</rscale>
<asrwt>0</asrwt>
<pdfrwt beam="2">  1        1 0.13717363E+00 0.12648191E+03</pdfrwt>
<pdfrwt beam="1">  1       -1 0.36218402E-02 0.12648191E+03</pdfrwt>
<totfact> 0.53618715E+03</totfact>
</mgrwt>
</event>
<event>
 8    3  0.1508318E-003  0.1368327E+03  0.7818608E-02  0.1229186E+00
          1   -1    0    0  501    0  0.00000000000E+00  0.00000000000E+00  0.21890583061E+02  0.21890583641E+02  0.50400000000E-02 0. -1.
         -1   -1    0    0    0  501 -0.00000000000E+00 -0.00000000000E+00 -0.68397309742E+03  0.68397309744E+03  0.50400000000E-02 0.  1.
         25    2    1    2    0    0 -0.79726727028E+01  0.55102671552E+02 -0.35227421088E+03  0.37791572577E+03  0.12499323266E+03 0.  0.
         23    2    1    2    0    0  0.79726727028E+01 -0.55102671552E+02 -0.30980830349E+03  0.32794795532E+03  0.92026129801E+02 0.  0.
        -13    1    4    4    0    0 -0.26091085253E+01 -0.36702343682E+02 -0.30384131577E+02  0.47718718495E+02  0.10566000000E+00 0. -1.
         13    1    4    4    0    0  0.10581781228E+02 -0.18400327870E+02 -0.27942417191E+03  0.28022923682E+03  0.10566000000E+00 0.  1.
    9000005    1    3    3    0    0 -0.19965079397E+02 -0.34173437106E+02 -0.17060057550E+03  0.17513419015E+03  0.10000000000E+01 0.  0.
    9000005    1    3    3    0    0  0.11992406695E+02  0.89276108658E+02 -0.18167363538E+03  0.20278153562E+03  0.10000000000E+01 0.  0.
<mgrwt>
<rscale>  0 0.12884061E+03</rscale>
<asrwt>0</asrwt>
<pdfrwt beam="1">  1        1 0.33677826E-02 0.13683266E+03</pdfrwt>
<pdfrwt beam="2">  1       -1 0.10522661E+00 0.13683266E+03</pdfrwt>
<totfact> 0.25152855E+03</totfact>
</mgrwt>
</event>
<event>
 8    3  0.1508318E-003  0.1275439E+03  0.7818608E-02  0.1244696E+00
         -1   -1    0    0    0  501 -0.00000000000E+00  0.00000000000E+00  0.14066216394E+02  0.14066217297E+02  0.50400000000E-02 0.  1.
          1   -1    0    0  501    0  0.00000000000E+00 -0.00000000000E+00 -0.11971366894E+04  0.11971366895E+04  0.50400000000E-02 0. -1.
         25    2    1    2    0    0  0.24169861484E+02  0.76515540758E+01 -0.95462220039E+03  0.96310487328E+03  0.12499889184E+03 0.  0.
         23    2    1    2    0    0 -0.24169861484E+02 -0.76515540758E+01 -0.22844827266E+03  0.24809803347E+03  0.93387860296E+02 0.  0.
        -13    1    4    4    0    0  0.27284758863E+02  0.20393904183E+02 -0.51921712243E+02  0.62098669554E+02  0.10566000000E+00 0.  1.
         13    1    4    4    0    0 -0.51454620346E+02 -0.28045458259E+02 -0.17652656041E+03  0.18599936392E+03  0.10566000000E+00 0. -1.
    9000005    1    3    3    0    0  0.32959658504E+02 -0.52961232171E+02 -0.59960628733E+03  0.60284320599E+03  0.10000000000E+01 0.  0.
    9000005    1    3    3    0    0 -0.87897970206E+01  0.60612786247E+02 -0.35501591306E+03  0.36026166728E+03  0.10000000000E+01 0.  0.
<mgrwt>
<rscale>  0 0.11903581E+03</rscale>
<asrwt>0</asrwt>
<pdfrwt beam="2">  1        1 0.18417480E+00 0.12754392E+03</pdfrwt>
<pdfrwt beam="1">  1       -1 0.21640343E-02 0.12754392E+03</pdfrwt>
<totfact> 0.68251556E+03</totfact>
</mgrwt>
</event>
<event>
 8    3  0.1508318E-003  0.1369001E+03  0.7818608E-02  0.1229684E+00
         -1   -1    0    0    0  501 -0.00000000000E+00  0.00000000000E+00  0.14359693799E+04  0.14359693799E+04  0.50400000000E-02 0.  1.
          1   -1    0    0  501    0  0.00000000000E+00 -0.00000000000E+00 -0.10297338685E+02  0.10297339918E+02  0.50400000000E-02 0. -1.
         25    2    1    2    0    0  0.47494226641E+01 -0.55627432428E+02  0.80443380771E+03  0.81599962439E+03  0.12499867107E+03 0.  0.
         23    2    1    2    0    0 -0.47494226641E+01  0.55627432428E+02  0.62123823348E+03  0.63026709540E+03  0.90458280793E+02 0.  0.
        -13    1    4    4    0    0 -0.32386184011E+02  0.27500648699E+02  0.11675813770E+03  0.12424823732E+03  0.10566000000E+00 0. -1.
         13    1    4    4    0    0  0.27636761347E+02  0.28126783729E+02  0.50448009577E+03  0.50601885808E+03  0.10566000000E+00 0.  1.
    9000005    1    3    3    0    0 -0.40201546598E+02 -0.68454498441E+02  0.33665077610E+03  0.34588571488E+03  0.10000000000E+01 0.  0.
    9000005    1    3    3    0    0  0.44950969262E+02  0.12827066013E+02  0.46778303160E+03  0.47011390951E+03  0.10000000000E+01 0.  0.
<mgrwt>
<rscale>  0 0.12850973E+03</rscale>
<asrwt>0</asrwt>
<pdfrwt beam="2">  1        1 0.15842071E-02 0.13690010E+03</pdfrwt>
<pdfrwt beam="1">  1       -1 0.22091823E+00 0.13690010E+03</pdfrwt>
<totfact> 0.10051727E+03</totfact>
</mgrwt>
</event>
<event>
 8    3  0.1508318E-003  0.1269164E+03  0.7818608E-02  0.1252090E+00
         -1   -1    0    0    0  501 -0.00000000000E+00  0.00000000000E+00  0.18056339068E+02  0.18056339771E+02  0.50400000000E-02 0.  1.
          1   -1    0    0  501    0  0.00000000000E+00 -0.00000000000E+00 -0.81186135929E+03  0.81186135930E+03  0.50400000000E-02 0. -1.
         25    2    1    2    0    0  0.18831410692E+02 -0.11369971072E+02 -0.25873404653E+03  0.28818582512E+03  0.12499545872E+03 0.  0.
         23    2    1    2    0    0 -0.18831410692E+02  0.11369971072E+02 -0.53507097369E+03  0.54173187395E+03  0.81783727558E+02 0.  0.
        -13    1    4    4    0    0  0.22557135104E+02  0.16765623277E+02 -0.38321242613E+03  0.38424170150E+03  0.10566000000E+00 0. -1.
         13    1    4    4    0    0 -0.41388545797E+02 -0.53956522049E+01 -0.15185854756E+03  0.15749017245E+03  0.10566000000E+00 0.  1.
    9000005    1    3    3    0    0 -0.31451708845E+02 -0.38206344461E+02 -0.44710004539E+02  0.66700219281E+02  0.10000000000E+01 0.  0.
    9000005    1    3    3    0    0  0.50283119537E+02  0.26836373389E+02 -0.21402404199E+03  0.22148560584E+03  0.10000000000E+01 0.  0.
<mgrwt>
<rscale>  0 0.11470883E+03</rscale>
<asrwt>0</asrwt>
<pdfrwt beam="2">  1        1 0.12490172E+00 0.12691636E+03</pdfrwt>
<pdfrwt beam="1">  1       -1 0.27778990E-02 0.12691636E+03</pdfrwt>
<totfact> 0.91206046E+03</totfact>
</mgrwt>
</event>
<event>
 8    3  0.1508318E-003  0.1412134E+03  0.7818608E-02  0.1224212E+00
         -1   -1    0    0    0  501 -0.00000000000E+00  0.00000000000E+00  0.28990242722E+02  0.28990243160E+02  0.50400000000E-02 0.  1.
          1   -1    0    0  501    0  0.00000000000E+00 -0.00000000000E+00 -0.81221157444E+03  0.81221157446E+03  0.50400000000E-02 0. -1.
         25    2    1    2    0    0 -0.64931352474E+02 -0.10000787632E+02 -0.18246882852E+03  0.23072947712E+03  0.12500048777E+03 0.  0.
         23    2    1    2    0    0  0.64931352474E+02  0.10000787632E+02 -0.60075250320E+03  0.61047234050E+03  0.86352835089E+02 0.  0.
        -13    1    4    4    0    0  0.86157844176E+02  0.58350982462E+01 -0.50256907788E+03  0.50993422290E+03  0.10566000000E+00 0. -1.
         13    1    4    4    0    0 -0.21226491702E+02  0.41656893860E+01 -0.98183425317E+02  0.10053811759E+03  0.10566000000E+00 0.  1.
    9000005    1    3    3    0    0 -0.22484680264E+02 -0.39991838823E+02 -0.17159041027E+03  0.17762087973E+03  0.10000000000E+01 0.  0.
    9000005    1    3    3    0    0 -0.42446672209E+02  0.29991051191E+02 -0.10878418253E+02  0.53108597391E+02  0.10000000000E+01 0.  0.
<mgrwt>
<rscale>  0 0.13221093E+03</rscale>
<asrwt>0</asrwt>
<pdfrwt beam="2">  1        1 0.12495561E+00 0.14121338E+03</pdfrwt>
<pdfrwt beam="1">  1       -1 0.44600380E-02 0.14121338E+03</pdfrwt>
<totfact> 0.45858511E+03</totfact>
</mgrwt>
</event>
<event>
 8    3  0.1508318E-003  0.1476988E+03  0.7818608E-02  0.1213866E+00
          1   -1    0    0  501    0  0.00000000000E+00  0.00000000000E+00  0.14755371354E+04  0.14755371354E+04  0.50400000000E-02 0. -1.
         -1   -1    0    0    0  501 -0.00000000000E+00 -0.00000000000E+00 -0.12047346747E+02  0.12047347802E+02  0.50400000000E-02 0.  1.
         25    2    1    2    0    0  0.78586204824E+02 -0.37039743887E+01  0.87965018850E+03  0.89196378219E+03  0.12500169439E+03 0.  0.
         23    2    1    2    0    0 -0.78586204824E+02  0.37039743887E+01  0.58383960011E+03  0.59562070097E+03  0.87782855717E+02 0.  0.
        -13    1    4    4    0    0 -0.45661067549E+02 -0.17848000782E+02  0.11347174032E+03  0.12360959201E+03  0.10566000000E+00 0.  1.
         13    1    4    4    0    0 -0.32925137276E+02  0.21551975171E+02  0.47036785979E+03  0.47201110897E+03  0.10566000000E+00 0. -1.
    9000005    1    3    3    0    0  0.37208244719E+00  0.51771837790E+02  0.31550470841E+03  0.31972594931E+03  0.10000000000E+01 0.  0.
    9000005    1    3    3    0    0  0.78214122377E+02 -0.55475812179E+02  0.56414548009E+03  0.57223783288E+03  0.10000000000E+01 0.  0.
<mgrwt>
<rscale>  0 0.13960191E+03</rscale>
<asrwt>0</asrwt>
<pdfrwt beam="1">  1        1 0.22700573E+00 0.14769880E+03</pdfrwt>
<pdfrwt beam="2">  1       -1 0.18534379E-02 0.14769880E+03</pdfrwt>
<totfact> 0.56035513E+03</totfact>
</mgrwt>
</event>
<event>
 8    3  0.1508318E-003  0.1443324E+03  0.7818608E-02  0.1217479E+00
         -1   -1    0    0    0  501 -0.00000000000E+00  0.00000000000E+00  0.46687497396E+02  0.46687497668E+02  0.50400000000E-02 0.  1.
          1   -1    0    0  501    0  0.00000000000E+00 -0.00000000000E+00 -0.40490663585E+03  0.40490663588E+03  0.50400000000E-02 0. -1.
         25    2    1    2    0    0  0.70613886237E+02 -0.14840056208E+02 -0.26586507794E+03  0.30251625803E+03  0.12500119402E+03 0.  0.
         23    2    1    2    0    0 -0.70613886237E+02  0.14840056208E+02 -0.92354060512E+02  0.14907787552E+03  0.92132471355E+02 0.  0.
        -13    1    4    4    0    0  0.36426891642E+00 -0.23679783226E+02  0.32787456267E+01  0.23908704741E+02  0.10566000000E+00 0.  1.
         13    1    4    4    0    0 -0.70978155153E+02  0.38519839433E+02 -0.95632806139E+02  0.12516917078E+03  0.10566000000E+00 0. -1.
    9000005    1    3    3    0    0  0.99207674901E+02 -0.59923315664E+01 -0.13140541225E+03  0.16476180737E+03  0.10000000000E+01 0.  0.
    9000005    1    3    3    0    0 -0.28593788664E+02 -0.88477246411E+01 -0.13445966569E+03  0.13775445067E+03  0.10000000000E+01 0.  0.
<mgrwt>
<rscale>  0 0.13695974E+03</rscale>
<asrwt>0</asrwt>
<pdfrwt beam="2">  1        1 0.62293327E-01 0.14433242E+03</pdfrwt>
<pdfrwt beam="1">  1       -1 0.71826922E-02 0.14433242E+03</pdfrwt>
<totfact> 0.58296128E+03</totfact>
</mgrwt>
</event>
<event>
 8    3  0.1508318E-003  0.1387783E+03  0.7818608E-02  0.1235362E+00
          1   -1    0    0  501    0  0.00000000000E+00  0.00000000000E+00  0.83326412422E+03  0.83326412424E+03  0.50400000000E-02 0. -1.
         -1   -1    0    0    0  501 -0.00000000000E+00 -0.00000000000E+00 -0.15833832524E+02  0.15833833326E+02  0.50400000000E-02 0.  1.
         25    2    1    2    0    0  0.58001666442E+02  0.16401219842E+02  0.50917822133E+03  0.52775172960E+03  0.12500493472E+03 0.  0.
         23    2    1    2    0    0 -0.58001666442E+02 -0.16401219842E+02  0.30825207037E+03  0.32134622796E+03  0.67903357898E+02 0.  0.
        -13    1    4    4    0    0 -0.45307382159E+02  0.15935665919E+02  0.24003703595E+03  0.24479480003E+03  0.10566000000E+00 0. -1.
         13    1    4    4    0    0 -0.12694284283E+02 -0.32336885760E+02  0.68215034418E+02  0.76551427934E+02  0.10566000000E+00 0.  1.
    9000005    1    3    3    0    0  0.41894296796E+02 -0.21749739632E+02  0.58510281515E+02  0.75184016394E+02  0.10000000000E+01 0.  0.
    9000005    1    3    3    0    0  0.16107369646E+02  0.38150959474E+02  0.45066793981E+03  0.45256771321E+03  0.10000000000E+01 0.  0.
<mgrwt>
<rscale>  0 0.12481273E+03</rscale>
<asrwt>0</asrwt>
<pdfrwt beam="1">  1        1 0.12819448E+00 0.13877834E+03</pdfrwt>
<pdfrwt beam="2">  1       -1 0.24359742E-02 0.13877834E+03</pdfrwt>
<totfact> 0.10664031E+04</totfact>
</mgrwt>
</event>
<event>
 8    3  0.1508318E-003  0.1292066E+03  0.7818608E-02  0.1244096E+00
          1   -1    0    0  501    0  0.00000000000E+00  0.00000000000E+00  0.99217482936E+01  0.99217495737E+01  0.50400000000E-02 0. -1.
         -1   -1    0    0    0  501 -0.00000000000E+00 -0.00000000000E+00 -0.13012688348E+04  0.13012688348E+04  0.50400000000E-02 0.  1.
         25    2    1    2    0    0 -0.63122196707E+01  0.32088889322E+02 -0.62497383735E+03  0.63819013107E+03  0.12499922035E+03 0.  0.
         23    2    1    2    0    0  0.63122196707E+01 -0.32088889322E+02 -0.66637324914E+03  0.67300045329E+03  0.88355882848E+02 0.  0.
        -13    1    4    4    0    0 -0.13004048343E+02 -0.19189438303E+02 -0.62594903068E+03  0.62637811264E+03  0.10566000000E+00 0.  1.
         13    1    4    4    0    0  0.19316268014E+02 -0.12899451018E+02 -0.40424218454E+02  0.46622340655E+02  0.10566000000E+00 0. -1.
    9000005    1    3    3    0    0 -0.62871234823E+02  0.35288425983E+02 -0.32348038251E+03  0.33141910483E+03  0.10000000000E+01 0.  0.
    9000005    1    3    3    0    0  0.56559015152E+02 -0.31995366613E+01 -0.30149345484E+03  0.30677102624E+03  0.10000000000E+01 0.  0.
<mgrwt>
<rscale>  0 0.11939676E+03</rscale>
<asrwt>0</asrwt>
<pdfrwt beam="1">  1        1 0.15264239E-02 0.12920660E+03</pdfrwt>
<pdfrwt beam="2">  1       -1 0.20019507E+00 0.12920660E+03</pdfrwt>
<totfact> 0.14377926E+03</totfact>
</mgrwt>
</event>
<event>
 8    3  0.1508318E-003  0.1411055E+03  0.7818608E-02  0.1223235E+00
         -1   -1    0    0    0  501 -0.00000000000E+00  0.00000000000E+00  0.71627975974E+02  0.71627976152E+02  0.50400000000E-02 0.  1.
          1   -1    0    0  501    0  0.00000000000E+00 -0.00000000000E+00 -0.25789072072E+03  0.25789072076E+03  0.50400000000E-02 0. -1.
         25    2    1    2    0    0  0.27452751508E+02  0.59404350879E+02 -0.16394466057E+03  0.21630675647E+03  0.12501292212E+03 0.  0.
         23    2    1    2    0    0 -0.27452751508E+02 -0.59404350879E+02 -0.22318084173E+02  0.11321194045E+03  0.89645502456E+02 0.  0.
        -13    1    4    4    0    0 -0.30235194271E+02 -0.81524341116E+02 -0.25684380450E+02  0.90664677412E+02  0.10566000000E+00 0. -1.
         13    1    4    4    0    0  0.27824427629E+01  0.22119990237E+02  0.33662962769E+01  0.22547263038E+02  0.10566000000E+00 0.  1.
    9000005    1    3    3    0    0  0.35920735949E+02 -0.12370320770E+00 -0.15044149914E+03  0.15467371863E+03  0.10000000000E+01 0.  0.
    9000005    1    3    3    0    0 -0.84679844410E+01  0.59528054087E+02 -0.13503161431E+02  0.61633037832E+02  0.10000000000E+01 0.  0.
<mgrwt>
<rscale>  0 0.13288599E+03</rscale>
<asrwt>0</asrwt>
<pdfrwt beam="2">  1        1 0.39675495E-01 0.14110550E+03</pdfrwt>
<pdfrwt beam="1">  1       -1 0.11019689E-01 0.14110550E+03</pdfrwt>
<totfact> 0.53311718E+03</totfact>
</mgrwt>
</event>
<event>
 8    3  0.1508318E-003  0.1304904E+03  0.7818608E-02  0.1240193E+00
         -1   -1    0    0    0  501 -0.00000000000E+00  0.00000000000E+00  0.52300360262E+03  0.52300360264E+03  0.50400000000E-02 0.  1.
          1   -1    0    0  501    0  0.00000000000E+00 -0.00000000000E+00 -0.29521270205E+02  0.29521270635E+02  0.50400000000E-02 0. -1.
         25    2    1    2    0    0  0.32112100747E+02 -0.19274114278E+02  0.17042131886E+03  0.21464195784E+03  0.12500026259E+03 0.  0.
         23    2    1    2    0    0 -0.32112100747E+02  0.19274114278E+02  0.32306101355E+03  0.33788291543E+03  0.91617506895E+02 0.  0.
        -13    1    4    4    0    0 -0.37466866784E+02  0.41843027787E+02  0.10948632868E+03  0.12305231576E+03  0.10566000000E+00 0. -1.
         13    1    4    4    0    0  0.53547660365E+01 -0.22568913509E+02  0.21357468487E+03  0.21483059968E+03  0.10566000000E+00 0.  1.
    9000005    1    3    3    0    0 -0.73238963568E+01  0.41094137168E+02  0.11888764544E+03  0.12600650700E+03  0.10000000000E+01 0.  0.
    9000005    1    3    3    0    0  0.39435997104E+02 -0.60368251446E+02  0.51533673422E+02  0.88635450846E+02  0.10000000000E+01 0.  0.
<mgrwt>
<rscale>  0 0.12177762E+03</rscale>
<asrwt>0</asrwt>
<pdfrwt beam="2">  1        1 0.45417343E-02 0.13049040E+03</pdfrwt>
<pdfrwt beam="1">  1       -1 0.80462086E-01 0.13049040E+03</pdfrwt>
<totfact> 0.29510657E+03</totfact>
</mgrwt>
</event>
<event>
 8    3  0.1508318E-003  0.2082119E+03  0.7818608E-02  0.1146196E+00
         -1   -1    0    0    0  501 -0.00000000000E+00  0.00000000000E+00  0.42168535324E+03  0.42168535327E+03  0.50400000000E-02 0.  1.
          1   -1    0    0  501    0  0.00000000000E+00 -0.00000000000E+00 -0.13101001949E+03  0.13101001958E+03  0.50400000000E-02 0. -1.
         25    2    1    2    0    0  0.34215830031E+02 -0.16296121655E+03  0.29347770901E+03  0.35983517331E+03  0.12500042056E+03 0.  0.
         23    2    1    2    0    0 -0.34215830031E+02  0.16296121655E+03 -0.28023752602E+01  0.19286019954E+03  0.97263159196E+02 0.  0.
        -13    1    4    4    0    0  0.89760992653E+01  0.36923819349E+02  0.37779512201E+02  0.53583966813E+02  0.10566000000E+00 0.  1.
         13    1    4    4    0    0 -0.43191929297E+02  0.12603739720E+03 -0.40581887461E+02  0.13927623273E+03  0.10566000000E+00 0. -1.
    9000005    1    3    3    0    0  0.31693339884E+02 -0.11559502491E+03  0.87345600694E+02  0.14831362560E+03  0.10000000000E+01 0.  0.
    9000005    1    3    3    0    0  0.25224901468E+01 -0.47366191635E+02  0.20613210832E+03  0.21152154771E+03  0.10000000000E+01 0.  0.
<mgrwt>
<rscale>  0 0.20425764E+03</rscale>
<asrwt>0</asrwt>
<pdfrwt beam="2">  1        1 0.20155387E-01 0.20821188E+03</pdfrwt>
<pdfrwt beam="1">  1       -1 0.64874671E-01 0.20821188E+03</pdfrwt>
<totfact> 0.63134432E+02</totfact>
</mgrwt>
</event>
<event>
 8    3  0.1508318E-003  0.1680486E+03  0.7818608E-02  0.1186349E+00
         -1   -1    0    0    0  501 -0.00000000000E+00  0.00000000000E+00  0.21928087036E+03  0.21928087042E+03  0.50400000000E-02 0.  1.
          1   -1    0    0  501    0  0.00000000000E+00 -0.00000000000E+00 -0.11713101758E+03  0.11713101768E+03  0.50400000000E-02 0. -1.
         25    2    1    2    0    0  0.47727618234E+02 -0.10167296002E+03  0.19712010270E+02  0.16920076514E+03  0.12500007694E+03 0.  0.
         23    2    1    2    0    0 -0.47727618234E+02  0.10167296002E+03  0.82437842515E+02  0.16721112296E+03  0.92456721887E+02 0.  0.
        -13    1    4    4    0    0  0.54231520105E+01  0.32677110731E+02 -0.15137937633E+02  0.36419396800E+02  0.10566000000E+00 0. -1.
         13    1    4    4    0    0 -0.53150770244E+02  0.68995849285E+02  0.97575780148E+02  0.13079172616E+03  0.10566000000E+00 0.  1.
    9000005    1    3    3    0    0  0.32569404584E+02 -0.50795804848E+02 -0.52212538251E+02  0.79800557992E+02  0.10000000000E+01 0.  0.
    9000005    1    3    3    0    0  0.15158213650E+02 -0.50877155167E+02  0.71924548521E+02  0.89400207152E+02  0.10000000000E+01 0.  0.
<mgrwt>
<rscale>  0 0.16209693E+03</rscale>
<asrwt>0</asrwt>
<pdfrwt beam="2">  1        1 0.18020156E-01 0.16804861E+03</pdfrwt>
<pdfrwt beam="1">  1       -1 0.33735519E-01 0.16804861E+03</pdfrwt>
<totfact> 0.23897857E+03</totfact>
</mgrwt>
</event>
<event>
 8    3  0.1508318E-003  0.1384182E+03  0.7818608E-02  0.1225659E+00
          1   -1    0    0  501    0  0.00000000000E+00  0.00000000000E+00  0.99720797346E+02  0.99720797473E+02  0.50400000000E-02 0. -1.
         -1   -1    0    0    0  501 -0.00000000000E+00 -0.00000000000E+00 -0.17038548982E+03  0.17038548989E+03  0.50400000000E-02 0.  1.
         25    2    1    2    0    0 -0.38869498190E+02 -0.44985481689E+02 -0.76524955607E+02  0.15816339436E+03  0.12500023613E+03 0.  0.
         23    2    1    2    0    0  0.38869498190E+02  0.44985481689E+02  0.58602631366E+01  0.11194289301E+03  0.94669621094E+02 0.  0.
        -13    1    4    4    0    0  0.33297244196E+02 -0.46174866751E-01  0.42238926396E+02  0.53785190065E+02  0.10566000000E+00 0. -1.
         13    1    4    4    0    0  0.55722539937E+01  0.45031656556E+02 -0.36378663259E+02  0.58157702941E+02  0.10566000000E+00 0.  1.
    9000005    1    3    3    0    0  0.64340865865E+01 -0.79795515149E+02 -0.34227676666E+02  0.87070405753E+02  0.10000000000E+01 0.  0.
    9000005    1    3    3    0    0 -0.45303584776E+02  0.34810033459E+02 -0.42297278941E+02  0.71092988605E+02  0.10000000000E+01 0.  0.
<mgrwt>
<rscale>  0 0.13121847E+03</rscale>
<asrwt>0</asrwt>
<pdfrwt beam="1">  1        1 0.15341661E-01 0.13841817E+03</pdfrwt>
<pdfrwt beam="2">  1       -1 0.26213152E-01 0.13841817E+03</pdfrwt>
<totfact> 0.44540893E+03</totfact>
</mgrwt>
</event>
<event>
 8    3  0.1508318E-003  0.1345781E+03  0.7818608E-02  0.1233178E+00
          1   -1    0    0  501    0  0.00000000000E+00  0.00000000000E+00  0.13083812642E+03  0.13083812652E+03  0.50400000000E-02 0. -1.
         -1   -1    0    0    0  501 -0.00000000000E+00 -0.00000000000E+00 -0.11510826786E+03  0.11510826797E+03  0.50400000000E-02 0.  1.
         25    2    1    2    0    0  0.49567110347E+02 -0.54809151511E+01 -0.19580164040E+02  0.13599499029E+03  0.12499726278E+03 0.  0.
         23    2    1    2    0    0 -0.49567110347E+02  0.54809151511E+01  0.35310022602E+02  0.10995140419E+03  0.91408832880E+02 0.  0.
        -13    1    4    4    0    0 -0.61579176514E+02  0.17242235878E+02  0.54797521152E+02  0.84214423744E+02  0.10566000000E+00 0. -1.
         13    1    4    4    0    0  0.12012066166E+02 -0.11761320727E+02 -0.19487498549E+02  0.25736980448E+02  0.10566000000E+00 0.  1.
    9000005    1    3    3    0    0  0.57117182112E+02  0.35958524645E+02 -0.50021519760E+02  0.84015120223E+02  0.10000000000E+01 0.  0.
    9000005    1    3    3    0    0 -0.75500717645E+01 -0.41439439796E+02  0.30441355719E+02  0.51979870068E+02  0.10000000000E+01 0.  0.
<mgrwt>
<rscale>  0 0.12621819E+03</rscale>
<asrwt>0</asrwt>
<pdfrwt beam="1">  1        1 0.20128942E-01 0.13457806E+03</pdfrwt>
<pdfrwt beam="2">  1       -1 0.17708964E-01 0.13457806E+03</pdfrwt>
<totfact> 0.59216520E+03</totfact>
</mgrwt>
</event>
<event>
 8    3  0.1508318E-003  0.1396444E+03  0.7818608E-02  0.1224136E+00
         -1   -1    0    0    0  501 -0.00000000000E+00  0.00000000000E+00  0.21864898485E+02  0.21864899066E+02  0.50400000000E-02 0.  1.
          1   -1    0    0  501    0  0.00000000000E+00 -0.00000000000E+00 -0.72751967399E+03  0.72751967401E+03  0.50400000000E-02 0. -1.
         25    2    1    2    0    0  0.49835879011E+02 -0.37310497711E+02 -0.37524204301E+03  0.40038375833E+03  0.12499950008E+03 0.  0.
         23    2    1    2    0    0 -0.49835879011E+02  0.37310497711E+02 -0.33041273250E+03  0.34900081474E+03  0.93559108683E+02 0.  0.
        -13    1    4    4    0    0 -0.40679136656E+01  0.35255760659E+02 -0.27418134882E+03  0.27646869585E+03  0.10566000000E+00 0. -1.
         13    1    4    4    0    0 -0.45767965346E+02  0.20547370521E+01 -0.56231383674E+02  0.72532118887E+02  0.10566000000E+00 0.  1.
    9000005    1    3    3    0    0  0.40071307270E+02 -0.40659189099E+02 -0.38312552359E+03  0.38735648459E+03  0.10000000000E+01 0.  0.
    9000005    1    3    3    0    0  0.97645717409E+01  0.33486913882E+01  0.78834805793E+01  0.13027273749E+02  0.10000000000E+01 0.  0.
<mgrwt>
<rscale>  0 0.13226313E+03</rscale>
<asrwt>0</asrwt>
<pdfrwt beam="2">  1        1 0.11192609E+00 0.13964442E+03</pdfrwt>
<pdfrwt beam="1">  1       -1 0.33638311E-02 0.13964442E+03</pdfrwt>
<totfact> 0.81657701E+03</totfact>
</mgrwt>
</event>
<event>
 8    3  0.1508318E-003  0.1297000E+03  0.7818608E-02  0.1241875E+00
          1   -1    0    0  501    0  0.00000000000E+00  0.00000000000E+00  0.11784337283E+04  0.11784337283E+04  0.50400000000E-02 0. -1.
         -1   -1    0    0    0  501 -0.00000000000E+00 -0.00000000000E+00 -0.10946199797E+02  0.10946200958E+02  0.50400000000E-02 0.  1.
         25    2    1    2    0    0 -0.11837043191E+01 -0.34556140166E+02  0.67654095183E+03  0.68886120460E+03  0.12500628675E+03 0.  0.
         23    2    1    2    0    0  0.11837043191E+01  0.34556140166E+02  0.49094657666E+03  0.50051872465E+03  0.91076476727E+02 0.  0.
        -13    1    4    4    0    0  0.15979045986E+02  0.58987257693E+02  0.41313469571E+03  0.41763035623E+03  0.10566000000E+00 0. -1.
         13    1    4    4    0    0 -0.14795341667E+02 -0.24431117527E+02  0.77811880953E+02  0.82888368425E+02  0.10566000000E+00 0.  1.
    9000005    1    3    3    0    0 -0.60341398287E+02 -0.22647535589E+02  0.44219691926E+03  0.44687035102E+03  0.10000000000E+01 0.  0.
    9000005    1    3    3    0    0  0.59157693968E+02 -0.11908604577E+02  0.23434403257E+03  0.24199085359E+03  0.10000000000E+01 0.  0.
<mgrwt>
<rscale>  0 0.12074411E+03</rscale>
<asrwt>0</asrwt>
<pdfrwt beam="1">  1        1 0.18129754E+00 0.12970004E+03</pdfrwt>
<pdfrwt beam="2">  1       -1 0.16840305E-02 0.12970004E+03</pdfrwt>
<totfact> 0.10093139E+04</totfact>
</mgrwt>
</event>
<event>
 8    3  0.1508318E-003  0.1423829E+03  0.7818608E-02  0.1219806E+00
         -1   -1    0    0    0  501 -0.00000000000E+00  0.00000000000E+00  0.86517530858E+02  0.86517531005E+02  0.50400000000E-02 0.  1.
          1   -1    0    0  501    0  0.00000000000E+00 -0.00000000000E+00 -0.19899248715E+03  0.19899248722E+03  0.50400000000E-02 0. -1.
         25    2    1    2    0    0 -0.44224243347E+02  0.51869117421E+02 -0.86391879368E+02  0.16654260625E+03  0.12500677516E+03 0.  0.
         23    2    1    2    0    0  0.44224243347E+02 -0.51869117421E+02 -0.26083076927E+02  0.11896741197E+03  0.93950674117E+02 0.  0.
        -13    1    4    4    0    0  0.58935657918E+02 -0.32193295960E+02 -0.50733513695E+02  0.84164842154E+02  0.10566000000E+00 0. -1.
         13    1    4    4    0    0 -0.14711414572E+02 -0.19675821461E+02  0.24650436768E+02  0.34802569815E+02  0.10566000000E+00 0.  1.
    9000005    1    3    3    0    0  0.67171732345E+01 -0.25081765429E+02 -0.67513462799E+02  0.72341433718E+02  0.10000000000E+01 0.  0.
    9000005    1    3    3    0    0 -0.50941416581E+02  0.76950882850E+02 -0.18878416569E+02  0.94201172534E+02  0.10000000000E+01 0.  0.
<mgrwt>
<rscale>  0 0.13529322E+03</rscale>
<asrwt>0</asrwt>
<pdfrwt beam="2">  1        1 0.30614229E-01 0.14238287E+03</pdfrwt>
<pdfrwt beam="1">  1       -1 0.13310389E-01 0.14238287E+03</pdfrwt>
<totfact> 0.54949561E+03</totfact>
</mgrwt>
</event>
<event>
 8    3  0.1508318E-003  0.1253382E+03  0.7818608E-02  0.1250102E+00
         -1   -1    0    0    0  501 -0.00000000000E+00  0.00000000000E+00  0.32115526554E+03  0.32115526558E+03  0.50400000000E-02 0.  1.
          1   -1    0    0  501    0  0.00000000000E+00 -0.00000000000E+00 -0.38836314961E+02  0.38836315288E+02  0.50400000000E-02 0. -1.
         25    2    1    2    0    0  0.72291022422E+01 -0.57389959588E+01  0.11920195309E+03  0.17297041907E+03  0.12499785702E+03 0.  0.
         23    2    1    2    0    0 -0.72291022422E+01  0.57389959588E+01  0.16311699749E+03  0.18702116180E+03  0.91019580842E+02 0.  0.
        -13    1    4    4    0    0  0.66862264445E+01  0.33165157001E+01  0.17078565421E+03  0.17094869332E+03  0.10566000000E+00 0.  1.
         13    1    4    4    0    0 -0.13915328687E+02  0.24224802587E+01 -0.76686567192E+01  0.16072468478E+02  0.10566000000E+00 0. -1.
    9000005    1    3    3    0    0  0.94979409844E+00  0.58499583469E+02  0.73148083060E+02  0.93673611173E+02  0.10000000000E+01 0.  0.
    9000005    1    3    3    0    0  0.62793081438E+01 -0.64238579427E+02  0.46053870027E+02  0.79296807894E+02  0.10000000000E+01 0.  0.
<mgrwt>
<rscale>  0 0.11585150E+03</rscale>
<asrwt>0</asrwt>
<pdfrwt beam="2">  1        1 0.59748177E-02 0.12533818E+03</pdfrwt>
<pdfrwt beam="1">  1       -1 0.49408503E-01 0.12533818E+03</pdfrwt>
<totfact> 0.51750616E+03</totfact>
</mgrwt>
</event>
<event>
 8    3  0.1508318E-003  0.1319800E+03  0.7818608E-02  0.1232721E+00
         -1   -1    0    0    0  501 -0.00000000000E+00  0.00000000000E+00  0.31351795246E+02  0.31351795651E+02  0.50400000000E-02 0.  1.
          1   -1    0    0  501    0  0.00000000000E+00 -0.00000000000E+00 -0.49539643711E+03  0.49539643714E+03  0.50400000000E-02 0. -1.
         25    2    1    2    0    0  0.38409609606E+02 -0.17842768914E+02 -0.30713779384E+03  0.33429380160E+03  0.12500023547E+03 0.  0.
         23    2    1    2    0    0 -0.38409609606E+02  0.17842768914E+02 -0.15690684803E+03  0.19245443119E+03  0.10307903092E+03 0.  0.
        -13    1    4    4    0    0 -0.16378816638E+02  0.45598370046E+02 -0.22437298170E+02  0.53394011822E+02  0.10566000000E+00 0.  1.
         13    1    4    4    0    0 -0.22030792968E+02 -0.27755601132E+02 -0.13446954986E+03  0.13906041937E+03  0.10566000000E+00 0. -1.
    9000005    1    3    3    0    0  0.24449136915E+02 -0.54054787586E+02 -0.60944514950E+02  0.85058299180E+02  0.10000000000E+01 0.  0.
    9000005    1    3    3    0    0  0.13960472690E+02  0.36212018672E+02 -0.24619327889E+03  0.24923550242E+03  0.10000000000E+01 0.  0.
<mgrwt>
<rscale>  0 0.12651491E+03</rscale>
<asrwt>0</asrwt>
<pdfrwt beam="2">  1        1 0.76214831E-01 0.13198000E+03</pdfrwt>
<pdfrwt beam="1">  1       -1 0.48233535E-02 0.13198000E+03</pdfrwt>
<totfact> 0.81027353E+03</totfact>
</mgrwt>
</event>
<event>
 8    3  0.1508318E-003  0.1310672E+03  0.7818608E-02  0.1239926E+00
          1   -1    0    0  501    0  0.00000000000E+00  0.00000000000E+00  0.31448704176E+02  0.31448704579E+02  0.50400000000E-02 0.  1.
         -1   -1    0    0    0  501 -0.00000000000E+00 -0.00000000000E+00 -0.49513131583E+03  0.49513131585E+03  0.50400000000E-02 0. -1.
         25    2    1    2    0    0  0.15286582927E+01  0.39392364774E+02 -0.36298259372E+03  0.38592093519E+03  0.12499803867E+03 0.  0.
         23    2    1    2    0    0 -0.15286582927E+01 -0.39392364774E+02 -0.10070001793E+03  0.14065908524E+03  0.89946592221E+02 0.  0.
        -13    1    4    4    0    0  0.37754264207E+02 -0.27826465117E+02 -0.84455240162E+02  0.96604323824E+02  0.10566000000E+00 0. -1.
         13    1    4    4    0    0 -0.39282922500E+02 -0.11565899657E+02 -0.16244777765E+02  0.44054761419E+02  0.10566000000E+00 0.  1.
    9000005    1    3    3    0    0 -0.18947281041E+02  0.66402377140E+02 -0.33474414678E+03  0.34179367893E+03  0.10000000000E+01 0.  0.
    9000005    1    3    3    0    0  0.20475939334E+02 -0.27010012365E+02 -0.28238446941E+02  0.44127256262E+02  0.10000000000E+01 0.  0.
<mgrwt>
<rscale>  0 0.12194257E+03</rscale>
<asrwt>0</asrwt>
<pdfrwt beam="1">  1        1 0.48382626E-02 0.13106718E+03</pdfrwt>
<pdfrwt beam="2">  1       -1 0.76174043E-01 0.13106718E+03</pdfrwt>
<totfact> 0.30258022E+03</totfact>
</mgrwt>
</event>
<event>
 8    3  0.1508318E-003  0.1337883E+03  0.7818608E-02  0.1233285E+00
          1   -1    0    0  501    0  0.00000000000E+00  0.00000000000E+00  0.15462674153E+03  0.15462674161E+03  0.50400000000E-02 0. -1.
         -1   -1    0    0    0  501 -0.00000000000E+00 -0.00000000000E+00 -0.95809698607E+02  0.95809698739E+02  0.50400000000E-02 0.  1.
         25    2    1    2    0    0 -0.36837618682E+02 -0.30290717334E+02  0.10579764409E+02  0.13420596352E+03  0.12499908608E+03 0.  0.
         23    2    1    2    0    0  0.36837618682E+02  0.30290717334E+02  0.48237278517E+02  0.11623047684E+03  0.94383001649E+02 0.  0.
        -13    1    4    4    0    0  0.54936282597E+02 -0.90526431687E+01  0.47070417619E+02  0.72908030235E+02  0.10566000000E+00 0. -1.
         13    1    4    4    0    0 -0.18098663915E+02  0.39343360503E+02  0.11668608980E+01  0.43322446602E+02  0.10566000000E+00 0.  1.
    9000005    1    3    3    0    0  0.19516718433E+02 -0.63570661595E+02  0.16381070109E+02  0.68494311967E+02  0.10000000000E+01 0.  0.
    9000005    1    3    3    0    0 -0.56354337114E+02  0.33279944261E+02 -0.58013057000E+01  0.65711651550E+02  0.10000000000E+01 0.  0.
<mgrwt>
<rscale>  0 0.12614844E+03</rscale>
<asrwt>0</asrwt>
<pdfrwt beam="1">  1        1 0.23788730E-01 0.13378830E+03</pdfrwt>
<pdfrwt beam="2">  1       -1 0.14739954E-01 0.13378830E+03</pdfrwt>
<totfact> 0.63996140E+03</totfact>
</mgrwt>
</event>
<event>
 8    3  0.1508318E-003  0.1822316E+03  0.7818608E-02  0.1171429E+00
          1   -1    0    0  501    0  0.00000000000E+00  0.00000000000E+00  0.10087523518E+04  0.10087523518E+04  0.50400000000E-02 0. -1.
         -1   -1    0    0    0  501 -0.00000000000E+00 -0.00000000000E+00 -0.30458756934E+02  0.30458757351E+02  0.50400000000E-02 0.  1.
         25    2    1    2    0    0  0.16905480135E+02 -0.13151451112E+03  0.63458530634E+03  0.66023242062E+03  0.12500590514E+03 0.  0.
         23    2    1    2    0    0 -0.16905480135E+02  0.13151451112E+03  0.34370828854E+03  0.37897868856E+03  0.88924669685E+02 0.  0.
        -13    1    4    4    0    0 -0.16180118495E+02  0.45266523780E+02  0.23672777451E+03  0.24155931942E+03  0.10566000000E+00 0. -1.
         13    1    4    4    0    0 -0.72536164066E+00  0.86247987336E+02  0.10698051403E+03  0.13741936914E+03  0.10566000000E+00 0.  1.
    9000005    1    3    3    0    0 -0.12666294156E+02 -0.12654121108E+03  0.60453610163E+03  0.61776857421E+03  0.10000000000E+01 0.  0.
    9000005    1    3    3    0    0  0.29571774292E+02 -0.49733000393E+01  0.30049204713E+02  0.42463846410E+02  0.10000000000E+01 0.  0.
<mgrwt>
<rscale>  0 0.17630424E+03</rscale>
<asrwt>0</asrwt>
<pdfrwt beam="1">  1        1 0.15519264E+00 0.18223155E+03</pdfrwt>
<pdfrwt beam="2">  1       -1 0.46859634E-02 0.18223155E+03</pdfrwt>
<totfact> 0.30308316E+03</totfact>
</mgrwt>
</event>
<event>
 8    3  0.1508318E-003  0.1648500E+03  0.7818608E-02  0.1191190E+00
         -1   -1    0    0    0  501 -0.00000000000E+00  0.00000000000E+00  0.73366972661E+03  0.73366972662E+03  0.50400000000E-02 0.  1.
          1   -1    0    0  501    0  0.00000000000E+00 -0.00000000000E+00 -0.49290140940E+02  0.49290141198E+02  0.50400000000E-02 0. -1.
         25    2    1    2    0    0  0.22877262100E+02 -0.10500411274E+03  0.12549477334E+03  0.20718219736E+03  0.12500516770E+03 0.  0.
         23    2    1    2    0    0 -0.22877262100E+02  0.10500411274E+03  0.55888481232E+03  0.57577767046E+03  0.87283787396E+02 0.  0.
        -13    1    4    4    0    0 -0.26907593740E+02  0.66189758525E+02  0.50036138535E+03  0.50543706814E+03  0.10566000000E+00 0.  1.
         13    1    4    4    0    0  0.40303316405E+01  0.38814354219E+02  0.58523426976E+02  0.70340602326E+02  0.10566000000E+00 0. -1.
    9000005    1    3    3    0    0  0.25698651075E+02 -0.49078333177E+02  0.13894365531E+03  0.14958423314E+03  0.10000000000E+01 0.  0.
    9000005    1    3    3    0    0 -0.28213889753E+01 -0.55925779568E+02 -0.13448881965E+02  0.57597964218E+02  0.10000000000E+01 0.  0.
<mgrwt>
<rscale>  0 0.15781125E+03</rscale>
<asrwt>0</asrwt>
<pdfrwt beam="2">  1        1 0.75830988E-02 0.16485001E+03</pdfrwt>
<pdfrwt beam="1">  1       -1 0.11287226E+00 0.16485001E+03</pdfrwt>
<totfact> 0.71050556E+02</totfact>
</mgrwt>
</event>
<event>
 8    3  0.1508318E-003  0.1398958E+03  0.7818608E-02  0.1224096E+00
         -1   -1    0    0    0  501 -0.00000000000E+00  0.00000000000E+00  0.95582365856E+03  0.95582365858E+03  0.50400000000E-02 0.  1.
          1   -1    0    0  501    0  0.00000000000E+00 -0.00000000000E+00 -0.19529831267E+02  0.19529831917E+02  0.50400000000E-02 0. -1.
         25    2    1    2    0    0 -0.32640648015E+02  0.53677915079E+02  0.70097133860E+03  0.71479482276E+03  0.12499636251E+03 0.  0.
         23    2    1    2    0    0  0.32640648015E+02 -0.53677915079E+02  0.23532248870E+03  0.26055866773E+03  0.92560332613E+02 0.  0.
        -13    1    4    4    0    0 -0.32500696041E+02 -0.13380005379E+02  0.68486087640E+02  0.76978407046E+02  0.10566000000E+00 0.  1.
         13    1    4    4    0    0  0.65141344057E+02 -0.40297909700E+02  0.16683640106E+03  0.18358026069E+03  0.10566000000E+00 0. -1.
    9000005    1    3    3    0    0 -0.37198824550E+02 -0.34975071037E+02  0.24672568421E+03  0.25195549486E+03  0.10000000000E+01 0.  0.
    9000005    1    3    3    0    0  0.45581765348E+01  0.88652986116E+02  0.45424565439E+03  0.46283932790E+03  0.10000000000E+01 0.  0.
<mgrwt>
<rscale>  0 0.13229047E+03</rscale>
<asrwt>0</asrwt>
<pdfrwt beam="2">  1        1 0.30045893E-02 0.13989575E+03</pdfrwt>
<pdfrwt beam="1">  1       -1 0.14704980E+00 0.13989575E+03</pdfrwt>
<totfact> 0.13247692E+03</totfact>
</mgrwt>
</event>
<event>
 8    3  0.1508318E-003  0.1252680E+03  0.7818608E-02  0.1250358E+00
          1   -1    0    0  501    0  0.00000000000E+00  0.00000000000E+00  0.10055621072E+04  0.10055621073E+04  0.50400000000E-02 0. -1.
         -1   -1    0    0    0  501 -0.00000000000E+00 -0.00000000000E+00 -0.13023396127E+02  0.13023397103E+02  0.50400000000E-02 0.  1.
         25    2    1    2    0    0 -0.38395829856E+01 -0.71754790505E+01  0.40245452639E+03  0.42149937967E+03  0.12500340535E+03 0.  0.
         23    2    1    2    0    0  0.38395829856E+01  0.71754790505E+01  0.59008418472E+03  0.59708612469E+03  0.90808949669E+02 0.  0.
        -13    1    4    4    0    0 -0.30501816091E+02  0.10951254137E+02  0.87383761586E+02  0.93199912580E+02  0.10566000000E+00 0.  1.
         13    1    4    4    0    0  0.34341399077E+02 -0.37757750862E+01  0.50270042314E+03  0.50388621211E+03  0.10566000000E+00 0. -1.
    9000005    1    3    3    0    0 -0.21024920610E+01  0.87275581402E+01  0.40514552807E+03  0.40524620869E+03  0.10000000000E+01 0.  0.
    9000005    1    3    3    0    0 -0.17370909246E+01 -0.15903037191E+02 -0.26910016773E+01  0.16253170977E+02  0.10000000000E+01 0.  0.
<mgrwt>
<rscale>  0 0.11570354E+03</rscale>
<asrwt>0</asrwt>
<pdfrwt beam="1">  1        1 0.15470183E+00 0.12526804E+03</pdfrwt>
<pdfrwt beam="2">  1       -1 0.20035999E-02 0.12526804E+03</pdfrwt>
<totfact> 0.10390593E+04</totfact>
</mgrwt>
</event>
<event>
 8    3  0.1508318E-003  0.1254097E+03  0.7818608E-02  0.1249901E+00
          1   -1    0    0  501    0  0.00000000000E+00  0.00000000000E+00  0.16696836417E+04  0.16696836417E+04  0.50400000000E-02 0. -1.
         -1   -1    0    0    0  501 -0.00000000000E+00 -0.00000000000E+00 -0.86146154943E+01  0.86146169686E+01  0.50400000000E-02 0.  1.
         25    2    1    2    0    0 -0.23070849366E+01 -0.98422422824E+01  0.12894136702E+04  0.12954980555E+04  0.12500162575E+03 0.  0.
         23    2    1    2    0    0  0.23070849366E+01  0.98422422824E+01  0.37165535604E+03  0.38280020324E+03  0.91137805314E+02 0.  0.
        -13    1    4    4    0    0 -0.22609746592E+02  0.19141366389E+02  0.38467514101E+02  0.48552583385E+02  0.10566000000E+00 0.  1.
         13    1    4    4    0    0  0.24916831529E+02 -0.92991241064E+01  0.33318784193E+03  0.33424761986E+03  0.10566000000E+00 0. -1.
    9000005    1    3    3    0    0  0.68942098451E+01 -0.22680538956E+02  0.12709833889E+04  0.12712048269E+04  0.10000000000E+01 0.  0.
    9000005    1    3    3    0    0 -0.92012947817E+01  0.12838296673E+02  0.18430281297E+02  0.24293228600E+02  0.10000000000E+01 0.  0.
<mgrwt>
<rscale>  0 0.11596766E+03</rscale>
<asrwt>0</asrwt>
<pdfrwt beam="1">  1        1 0.25687432E+00 0.12540972E+03</pdfrwt>
<pdfrwt beam="2">  1       -1 0.13253260E-02 0.12540972E+03</pdfrwt>
<totfact> 0.67633188E+03</totfact>
</mgrwt>
</event>
<event>
 8    3  0.1508318E-003  0.1353361E+03  0.7818608E-02  0.1231210E+00
          1   -1    0    0  501    0  0.00000000000E+00  0.00000000000E+00  0.92306692878E+02  0.92306693016E+02  0.50400000000E-02 0. -1.
         -1   -1    0    0    0  501 -0.00000000000E+00 -0.00000000000E+00 -0.16090778077E+03  0.16090778085E+03  0.50400000000E-02 0.  1.
         25    2    1    2    0    0 -0.65009203168E+01 -0.51441547353E+02 -0.53524954950E+02  0.14553622844E+03  0.12500951254E+03 0.  0.
         23    2    1    2    0    0  0.65009203168E+01  0.51441547353E+02 -0.15076132940E+02  0.10767824543E+03  0.93160184599E+02 0.  0.
        -13    1    4    4    0    0  0.10476970368E+02  0.72824748212E+02 -0.31888541086E+02  0.80187911039E+02  0.10566000000E+00 0.  1.
         13    1    4    4    0    0 -0.39760500509E+01 -0.21383200859E+02  0.16812408146E+02  0.27490334387E+02  0.10566000000E+00 0. -1.
    9000005    1    3    3    0    0 -0.64978552052E+02 -0.18350508257E+02 -0.33729134377E+02  0.75482500528E+02  0.10000000000E+01 0.  0.
    9000005    1    3    3    0    0  0.58477631735E+02 -0.33091039096E+02 -0.19795820572E+02  0.70053727909E+02  0.10000000000E+01 0.  0.
<mgrwt>
<rscale>  0 0.12750218E+03</rscale>
<asrwt>0</asrwt>
<pdfrwt beam="1">  1        1 0.14201030E-01 0.13533615E+03</pdfrwt>
<pdfrwt beam="2">  1       -1 0.24755043E-01 0.13533615E+03</pdfrwt>
<totfact> 0.54020574E+03</totfact>
</mgrwt>
</event>
<event>
 8    3  0.1508318E-003  0.1581338E+03  0.7818608E-02  0.1198835E+00
         -1   -1    0    0    0  501 -0.00000000000E+00  0.00000000000E+00  0.70645638708E+02  0.70645638888E+02  0.50400000000E-02 0.  1.
          1   -1    0    0  501    0  0.00000000000E+00 -0.00000000000E+00 -0.30189214335E+03  0.30189214340E+03  0.50400000000E-02 0. -1.
         25    2    1    2    0    0  0.94887459699E+01  0.96391850778E+02 -0.10829473844E+03  0.19166125140E+03  0.12499943887E+03 0.  0.
         23    2    1    2    0    0 -0.94887459699E+01 -0.96391850778E+02 -0.12295176621E+03  0.18087653089E+03  0.90651847284E+02 0.  0.
        -13    1    4    4    0    0 -0.14234257042E+02 -0.11171999858E+03 -0.11997971654E+03  0.16455733257E+03  0.10566000000E+00 0.  1.
         13    1    4    4    0    0  0.47455110724E+01  0.15328147805E+02 -0.29720496639E+01  0.16319198317E+02  0.10566000000E+00 0. -1.
    9000005    1    3    3    0    0 -0.20971090826E+02  0.99707930367E+02 -0.27937453309E+02  0.10565490678E+03  0.10000000000E+01 0.  0.
    9000005    1    3    3    0    0  0.30459836796E+02 -0.33160795890E+01 -0.80357285130E+02  0.86006344621E+02  0.10000000000E+01 0.  0.
<mgrwt>
<rscale>  0 0.15134044E+03</rscale>
<asrwt>0</asrwt>
<pdfrwt beam="2">  1        1 0.46444944E-01 0.15813376E+03</pdfrwt>
<pdfrwt beam="1">  1       -1 0.10868560E-01 0.15813376E+03</pdfrwt>
<totfact> 0.45079743E+03</totfact>
</mgrwt>
</event>
<event>
 8    3  0.1508318E-003  0.1287644E+03  0.7818608E-02  0.1252611E+00
         -1   -1    0    0    0  501 -0.00000000000E+00  0.00000000000E+00  0.68866467268E+01  0.68866485711E+01  0.50400000000E-02 0.  1.
          1   -1    0    0  501    0  0.00000000000E+00 -0.00000000000E+00 -0.16214762345E+04  0.16214762345E+04  0.50400000000E-02 0. -1.
         25    2    1    2    0    0  0.30472926812E+02 -0.50989559885E+01 -0.87345828097E+03  0.88289843503E+03  0.12500271743E+03 0.  0.
         23    2    1    2    0    0 -0.30472926812E+02  0.50989559885E+01 -0.74113130680E+03  0.74546444804E+03  0.74074494658E+02 0.  0.
        -13    1    4    4    0    0  0.18305239617E+02  0.17576643187E+01 -0.44046847474E+03  0.44085219698E+03  0.10566000000E+00 0. -1.
         13    1    4    4    0    0 -0.48778166429E+02  0.33412916697E+01 -0.30066283206E+03  0.30461225106E+03  0.10566000000E+00 0.  1.
    9000005    1    3    3    0    0  0.32435459532E+02  0.54305165443E+01 -0.87130706246E+03  0.87192806277E+03  0.10000000000E+01 0.  0.
    9000005    1    3    3    0    0 -0.19625327197E+01 -0.10529472533E+02 -0.21512185057E+01  0.10970372261E+02  0.10000000000E+01 0.  0.
<mgrwt>
<rscale>  0 0.11441195E+03</rscale>
<asrwt>0</asrwt>
<pdfrwt beam="2">  1        1 0.24945758E+00 0.12876443E+03</pdfrwt>
<pdfrwt beam="1">  1       -1 0.10594855E-02 0.12876443E+03</pdfrwt>
<totfact> 0.10003508E+04</totfact>
</mgrwt>
</event>
<event>
 8    3  0.1508318E-003  0.1612795E+03  0.7818608E-02  0.1194504E+00
          1   -1    0    0  501    0  0.00000000000E+00  0.00000000000E+00  0.18954251633E+04  0.18954251633E+04  0.50400000000E-02 0. -1.
         -1   -1    0    0    0  501 -0.00000000000E+00 -0.00000000000E+00 -0.20367783098E+02  0.20367783722E+02  0.50400000000E-02 0.  1.
         25    2    1    2    0    0 -0.80911630090E+02  0.61959203856E+02  0.35955860534E+03  0.39407291820E+03  0.12500175741E+03 0.  0.
         23    2    1    2    0    0  0.80911630090E+02 -0.61959203856E+02  0.15154987748E+04  0.15217200288E+04  0.92247898149E+02 0.  0.
        -13    1    4    4    0    0  0.85689222721E+02 -0.70691750869E+02  0.14928847133E+04  0.14970119388E+04  0.10566000000E+00 0. -1.
         13    1    4    4    0    0 -0.47775926307E+01  0.87325470130E+01  0.22614061531E+02  0.24708090004E+02  0.10566000000E+00 0.  1.
    9000005    1    3    3    0    0 -0.80726040046E+02  0.14782992589E+02  0.95904963145E+02  0.12622991867E+03  0.10000000000E+01 0.  0.
    9000005    1    3    3    0    0 -0.18559004458E+00  0.47176211267E+02  0.26365364220E+03  0.26784299953E+03  0.10000000000E+01 0.  0.
<mgrwt>
<rscale>  0 0.15496321E+03</rscale>
<asrwt>0</asrwt>
<pdfrwt beam="1">  1        1 0.29160393E+00 0.16127949E+03</pdfrwt>
<pdfrwt beam="2">  1       -1 0.31335045E-02 0.16127949E+03</pdfrwt>
<totfact> 0.14042408E+03</totfact>
</mgrwt>
</event>
<event>
 8    3  0.1508318E-003  0.1338663E+03  0.7818608E-02  0.1234421E+00
         -1   -1    0    0    0  501 -0.00000000000E+00  0.00000000000E+00  0.17755261371E+03  0.17755261378E+03  0.50400000000E-02 0.  1.
          1   -1    0    0  501    0  0.00000000000E+00 -0.00000000000E+00 -0.96713352263E+02  0.96713352395E+02  0.50400000000E-02 0. -1.
         25    2    1    2    0    0 -0.41659082123E+02  0.23643124409E+02 -0.13434128328E+02  0.13453873291E+03  0.12500287354E+03 0.  0.
         23    2    1    2    0    0  0.41659082123E+02 -0.23643124409E+02  0.94273389772E+02  0.13972723326E+03  0.91333188061E+02 0.  0.
        -13    1    4    4    0    0 -0.13872856026E+02 -0.34670404288E+02  0.67407000955E+02  0.77059769073E+02  0.10566000000E+00 0.  1.
         13    1    4    4    0    0  0.55531938149E+02  0.11027279879E+02  0.26866388817E+02  0.62667464191E+02  0.10566000000E+00 0. -1.
    9000005    1    3    3    0    0  0.21398721728E+02  0.49476798539E+02 -0.33523549315E+02  0.63487693642E+02  0.10000000000E+01 0.  0.
    9000005    1    3    3    0    0 -0.63057803850E+02 -0.25833674131E+02  0.20089420987E+02  0.71051039268E+02  0.10000000000E+01 0.  0.
<mgrwt>
<rscale>  0 0.12541572E+03</rscale>
<asrwt>0</asrwt>
<pdfrwt beam="2">  1        1 0.14878977E-01 0.13386633E+03</pdfrwt>
<pdfrwt beam="1">  1       -1 0.27315786E-01 0.13386633E+03</pdfrwt>
<totfact> 0.43199655E+03</totfact>
</mgrwt>
</event>
<event>
 8    3  0.1508318E-003  0.1295891E+03  0.7818608E-02  0.1241676E+00
         -1   -1    0    0    0  501 -0.00000000000E+00  0.00000000000E+00  0.14120158442E+02  0.14120159341E+02  0.50400000000E-02 0.  1.
          1   -1    0    0  501    0  0.00000000000E+00 -0.00000000000E+00 -0.24270500124E+04  0.24270500124E+04  0.50400000000E-02 0. -1.
         25    2    1    2    0    0 -0.70788901245E+01  0.33448225413E+02 -0.31053755301E+03  0.33649207907E+03  0.12499781190E+03 0.  0.
         23    2    1    2    0    0  0.70788901245E+01 -0.33448225413E+02 -0.21023923009E+04  0.21046780927E+04  0.91910784086E+02 0.  0.
        -13    1    4    4    0    0 -0.32964184207E+02 -0.14249898676E+02 -0.15780743901E+04  0.15784829707E+04  0.10566000000E+00 0.  1.
         13    1    4    4    0    0  0.40043074331E+02 -0.19198326737E+02 -0.52431791088E+03  0.52619512197E+03  0.10566000000E+00 0. -1.
    9000005    1    3    3    0    0  0.31735398602E+02  0.45148515072E+02 -0.55582619321E+02  0.78332314584E+02  0.10000000000E+01 0.  0.
    9000005    1    3    3    0    0 -0.38814288726E+02 -0.11700289659E+02 -0.25495493369E+03  0.25815976449E+03  0.10000000000E+01 0.  0.
<mgrwt>
<rscale>  0 0.12086583E+03</rscale>
<asrwt>0</asrwt>
<pdfrwt beam="2">  1        1 0.37339198E+00 0.12958915E+03</pdfrwt>
<pdfrwt beam="1">  1       -1 0.21723341E-02 0.12958915E+03</pdfrwt>
<totfact> 0.10949100E+03</totfact>
</mgrwt>
</event>
<event>
 8    3  0.1508318E-003  0.1261943E+03  0.7818608E-02  0.1246962E+00
         -1   -1    0    0    0  501 -0.00000000000E+00  0.00000000000E+00  0.12307475713E+02  0.12307476745E+02  0.50400000000E-02 0.  1.
          1   -1    0    0  501    0  0.00000000000E+00 -0.00000000000E+00 -0.16230765579E+04  0.16230765579E+04  0.50400000000E-02 0. -1.
         25    2    1    2    0    0 -0.10624007776E+02 -0.13910910979E+02 -0.36959955037E+03  0.39054939384E+03  0.12497447103E+03 0.  0.
         23    2    1    2    0    0  0.10624007776E+02  0.13910910979E+02 -0.12411695318E+04  0.12448346408E+04  0.93835458499E+02 0.  0.
        -13    1    4    4    0    0 -0.25928592630E+02  0.41967221992E+02 -0.62279677624E+03  0.62474744921E+03  0.10566000000E+00 0.  1.
         13    1    4    4    0    0  0.36552600406E+02 -0.28056311013E+02 -0.61837275560E+03  0.62008719163E+03  0.10566000000E+00 0. -1.
    9000005    1    3    3    0    0 -0.45260037936E+02 -0.53797724443E+02 -0.16752933932E+03  0.18168584349E+03  0.10000000000E+01 0.  0.
    9000005    1    3    3    0    0  0.34636030161E+02  0.39886813464E+02 -0.20207021105E+03  0.20886355036E+03  0.10000000000E+01 0.  0.
<mgrwt>
<rscale>  0 0.11768697E+03</rscale>
<asrwt>0</asrwt>
<pdfrwt beam="2">  1        1 0.24970392E+00 0.12619430E+03</pdfrwt>
<pdfrwt beam="1">  1       -1 0.18934592E-02 0.12619430E+03</pdfrwt>
<totfact> 0.43443687E+03</totfact>
</mgrwt>
</event>
<event>
 8    3  0.1508318E-003  0.1460223E+03  0.7818608E-02  0.1215299E+00
          1   -1    0    0  501    0  0.00000000000E+00  0.00000000000E+00  0.14191570065E+03  0.14191570074E+03  0.50400000000E-02 0. -1.
         -1   -1    0    0    0  501 -0.00000000000E+00 -0.00000000000E+00 -0.13001607279E+03  0.13001607289E+03  0.50400000000E-02 0.  1.
         25    2    1    2    0    0  0.71069350333E+02  0.25393753185E+02 -0.24629921296E+02  0.14808493005E+03  0.12500727269E+03 0.  0.
         23    2    1    2    0    0 -0.71069350333E+02 -0.25393753185E+02  0.36529549163E+02  0.12384684358E+03  0.91147887775E+02 0.  0.
        -13    1    4    4    0    0 -0.70338475911E+02  0.14778635316E+02  0.37147220167E+01  0.71970268716E+02  0.10566000000E+00 0.  1.
         13    1    4    4    0    0 -0.73087442199E+00 -0.40172388501E+02  0.32814827146E+02  0.51876574867E+02  0.10566000000E+00 0. -1.
    9000005    1    3    3    0    0 -0.33744807018E+02 -0.49131900388E+01  0.62587519660E+01  0.34684627910E+02  0.10000000000E+01 0.  0.
    9000005    1    3    3    0    0  0.10481415735E+03  0.30306943224E+02 -0.30888673262E+02  0.11340030214E+03  0.10000000000E+01 0.  0.
<mgrwt>
<rscale>  0 0.13854616E+03</rscale>
<asrwt>0</asrwt>
<pdfrwt beam="1">  1        1 0.21833185E-01 0.14602230E+03</pdfrwt>
<pdfrwt beam="2">  1       -1 0.20002473E-01 0.14602230E+03</pdfrwt>
<totfact> 0.44189805E+03</totfact>
</mgrwt>
</event>
<event>
 8    3  0.1508318E-003  0.1293790E+03  0.7818608E-02  0.1241601E+00
          1   -1    0    0  501    0  0.00000000000E+00  0.00000000000E+00  0.46117361305E+03  0.46117361308E+03  0.50400000000E-02 0. -1.
         -1   -1    0    0    0  501 -0.00000000000E+00 -0.00000000000E+00 -0.28915747195E+02  0.28915747634E+02  0.50400000000E-02 0.  1.
         25    2    1    2    0    0 -0.24334682906E+02 -0.22844356756E+02  0.28275778833E+03  0.31095159960E+03  0.12499955603E+03 0.  0.
         23    2    1    2    0    0  0.24334682906E+02  0.22844356756E+02  0.14950007752E+03  0.17913776111E+03  0.92876384765E+02 0.  0.
        -13    1    4    4    0    0  0.53602381096E+02  0.11937175060E+02  0.47986061361E+02  0.72927255923E+02  0.10566000000E+00 0.  1.
         13    1    4    4    0    0 -0.29267698189E+02  0.10907181696E+02  0.10151401616E+03  0.10621050518E+03  0.10566000000E+00 0. -1.
    9000005    1    3    3    0    0 -0.51026486250E+02 -0.56667675690E+02  0.11682784549E+03  0.13951585304E+03  0.10000000000E+01 0.  0.
    9000005    1    3    3    0    0  0.26691803343E+02  0.33823318934E+02  0.16592994284E+03  0.17143574656E+03  0.10000000000E+01 0.  0.
<mgrwt>
<rscale>  0 0.12091164E+03</rscale>
<asrwt>0</asrwt>
<pdfrwt beam="1">  1        1 0.70949779E-01 0.12937902E+03</pdfrwt>
<pdfrwt beam="2">  1       -1 0.44485770E-02 0.12937902E+03</pdfrwt>
<totfact> 0.99989700E+03</totfact>
</mgrwt>
</event>
<event>
 8    3  0.1508318E-003  0.1382316E+03  0.7818608E-02  0.1227105E+00
         -1   -1    0    0    0  501 -0.00000000000E+00  0.00000000000E+00  0.82152309411E+03  0.82152309412E+03  0.50400000000E-02 0.  1.
          1   -1    0    0  501    0  0.00000000000E+00 -0.00000000000E+00 -0.18633586172E+02  0.18633586854E+02  0.50400000000E-02 0. -1.
         25    2    1    2    0    0 -0.24857614045E+02 -0.53534241938E+02  0.42843932926E+03  0.45018689980E+03  0.12499667941E+03 0.  0.
         23    2    1    2    0    0  0.24857614045E+02  0.53534241938E+02  0.37445017867E+03  0.38996978117E+03  0.91540580522E+02 0.  0.
        -13    1    4    4    0    0  0.85012771334E+01  0.78082927157E+02  0.29289429756E+03  0.30324296519E+03  0.10566000000E+00 0.  1.
         13    1    4    4    0    0  0.16356336911E+02 -0.24548685219E+02  0.81555881113E+02  0.86726815987E+02  0.10566000000E+00 0. -1.
    9000005    1    3    3    0    0  0.24146568433E+02  0.14226893918E+02  0.26608834349E+03  0.26756208218E+03  0.10000000000E+01 0.  0.
    9000005    1    3    3    0    0 -0.49004182477E+02 -0.67761135856E+02  0.16235098577E+03  0.18262481763E+03  0.10000000000E+01 0.  0.
<mgrwt>
<rscale>  0 0.13023634E+03</rscale>
<asrwt>0</asrwt>
<pdfrwt beam="2">  1        1 0.28667058E-02 0.13823164E+03</pdfrwt>
<pdfrwt beam="1">  1       -1 0.12638816E+00 0.13823164E+03</pdfrwt>
<totfact> 0.20575427E+03</totfact>
</mgrwt>
</event>
<event>
 8    3  0.1508318E-003  0.1470663E+03  0.7818608E-02  0.1213610E+00
         -1   -1    0    0    0  501 -0.00000000000E+00  0.00000000000E+00  0.26480089812E+03  0.26480089816E+03  0.50400000000E-02 0.  1.
          1   -1    0    0  501    0  0.00000000000E+00 -0.00000000000E+00 -0.93716918526E+02  0.93716918661E+02  0.50400000000E-02 0. -1.
         25    2    1    2    0    0 -0.57552271415E+02  0.51889712026E+02 -0.29443617893E+01  0.14709575626E+03  0.12499474422E+03 0.  0.
         23    2    1    2    0    0  0.57552271415E+02 -0.51889712026E+02  0.17402834138E+03  0.21142206057E+03  0.91698516527E+02 0.  0.
        -13    1    4    4    0    0  0.28340864972E+02 -0.61024244700E+02  0.16696307769E+03  0.18001067619E+03  0.10566000000E+00 0.  1.
         13    1    4    4    0    0  0.29211406443E+02  0.91345326737E+01  0.70652636946E+01  0.31411384379E+02  0.10566000000E+00 0. -1.
    9000005    1    3    3    0    0  0.33228983118E+02  0.15615378187E+02  0.26157154328E+02  0.45091042098E+02  0.10000000000E+01 0.  0.
    9000005    1    3    3    0    0 -0.90781254533E+02  0.36274333839E+02 -0.29101516117E+02  0.10200471416E+03  0.10000000000E+01 0.  0.
<mgrwt>
<rscale>  0 0.13979149E+03</rscale>
<asrwt>0</asrwt>
<pdfrwt beam="2">  1        1 0.14417988E-01 0.14706629E+03</pdfrwt>
<pdfrwt beam="1">  1       -1 0.40738598E-01 0.14706629E+03</pdfrwt>
<totfact> 0.22852443E+03</totfact>
</mgrwt>
</event>
<event>
 8    3  0.1508318E-003  0.1397430E+03  0.7818608E-02  0.1225401E+00
         -1   -1    0    0    0  501 -0.00000000000E+00  0.00000000000E+00  0.10499097200E+03  0.10499097212E+03  0.50400000000E-02 0.  1.
          1   -1    0    0  501    0  0.00000000000E+00 -0.00000000000E+00 -0.14883512409E+03  0.14883512417E+03  0.50400000000E-02 0. -1.
         25    2    1    2    0    0 -0.62397584538E+02 -0.31421585818E+01 -0.13091151243E+02  0.14035480799E+03  0.12499904867E+03 0.  0.
         23    2    1    2    0    0  0.62397584538E+02  0.31421585818E+01 -0.30753000846E+02  0.11347128830E+03  0.89591598332E+02 0.  0.
        -13    1    4    4    0    0  0.89697995067E+01 -0.35289911107E+02  0.77410387127E+01  0.37225931466E+02  0.10566000000E+00 0. -1.
         13    1    4    4    0    0  0.53427785031E+02  0.38432069689E+02 -0.38494039559E+02  0.76245356839E+02  0.10566000000E+00 0.  1.
    9000005    1    3    3    0    0 -0.32220662791E+02 -0.52144784200E+02  0.30194504050E+02  0.68337088794E+02  0.10000000000E+01 0.  0.
    9000005    1    3    3    0    0 -0.30176921747E+02  0.49002625618E+02 -0.43285655293E+02  0.72017719193E+02  0.10000000000E+01 0.  0.
<mgrwt>
<rscale>  0 0.13139458E+03</rscale>
<asrwt>0</asrwt>
<pdfrwt beam="2">  1        1 0.22897712E-01 0.13974296E+03</pdfrwt>
<pdfrwt beam="1">  1       -1 0.16152457E-01 0.13974296E+03</pdfrwt>
<totfact> 0.58325203E+03</totfact>
</mgrwt>
</event>
<event>
 8    3  0.1508318E-003  0.1454512E+03  0.7818608E-02  0.1216219E+00
         -1   -1    0    0    0  501 -0.00000000000E+00  0.00000000000E+00  0.10749745022E+02  0.10749746203E+02  0.50400000000E-02 0.  1.
          1   -1    0    0  501    0  0.00000000000E+00 -0.00000000000E+00 -0.18529276064E+04  0.18529276064E+04  0.50400000000E-02 0. -1.
         25    2    1    2    0    0  0.69674621942E+02  0.26017171041E+02 -0.66854498925E+03  0.68418452793E+03  0.12499847787E+03 0.  0.
         23    2    1    2    0    0 -0.69674621942E+02 -0.26017171041E+02 -0.11736328722E+04  0.11794928247E+04  0.90872211437E+02 0.  0.
        -13    1    4    4    0    0 -0.69363067742E+02  0.66281234643E+01 -0.10226293701E+04  0.10250004912E+04  0.10566000000E+00 0. -1.
         13    1    4    4    0    0 -0.31155420031E+00 -0.32645294505E+02 -0.15100350201E+03  0.15449233348E+03  0.10566000000E+00 0.  1.
    9000005    1    3    3    0    0  0.10172432876E+03  0.21231633174E+02 -0.38453170762E+03  0.39832681993E+03  0.10000000000E+01 0.  0.
    9000005    1    3    3    0    0 -0.32049706815E+02  0.47855378666E+01 -0.28401328163E+03  0.28585770800E+03  0.10000000000E+01 0.  0.
<mgrwt>
<rscale>  0 0.13787340E+03</rscale>
<asrwt>0</asrwt>
<pdfrwt beam="2">  1        1 0.28506553E+00 0.14545125E+03</pdfrwt>
<pdfrwt beam="1">  1       -1 0.16538085E-02 0.14545125E+03</pdfrwt>
<totfact> 0.37779072E+03</totfact>
</mgrwt>
</event>
<event>
 8    3  0.1508318E-003  0.1314354E+03  0.7818608E-02  0.1239366E+00
          1   -1    0    0  501    0  0.00000000000E+00  0.00000000000E+00  0.48129854672E+02  0.48129854936E+02  0.50400000000E-02 0. -1.
         -1   -1    0    0    0  501 -0.00000000000E+00 -0.00000000000E+00 -0.34578089464E+03  0.34578089467E+03  0.50400000000E-02 0.  1.
         25    2    1    2    0    0  0.24063151653E+02  0.32727247772E+02 -0.25437370769E+03  0.28632365551E+03  0.12500057811E+03 0.  0.
         23    2    1    2    0    0 -0.24063151653E+02 -0.32727247772E+02 -0.43277332275E+02  0.10758709410E+03  0.89732643520E+02 0.  0.
        -13    1    4    4    0    0  0.24447701296E+02 -0.40000689212E+02 -0.89790908565E+01  0.47732383900E+02  0.10566000000E+00 0.  1.
         13    1    4    4    0    0 -0.48510852950E+02  0.72734414402E+01 -0.34298241418E+02  0.59854710197E+02  0.10566000000E+00 0. -1.
    9000005    1    3    3    0    0 -0.34181092293E+02  0.89772970215E+01 -0.14287111245E+02  0.38132144969E+02  0.10000000000E+01 0.  0.
    9000005    1    3    3    0    0  0.58244243947E+02  0.23749950750E+02 -0.24008659645E+03  0.24819151054E+03  0.10000000000E+01 0.  0.
<mgrwt>
<rscale>  0 0.12229033E+03</rscale>
<asrwt>0</asrwt>
<pdfrwt beam="1">  1        1 0.74045933E-02 0.13143535E+03</pdfrwt>
<pdfrwt beam="2">  1       -1 0.53197059E-01 0.13143535E+03</pdfrwt>
<totfact> 0.33939954E+03</totfact>
</mgrwt>
</event>
<event>
 8    3  0.1508318E-003  0.1812268E+03  0.7818608E-02  0.1172231E+00
         -1   -1    0    0    0  501 -0.00000000000E+00  0.00000000000E+00  0.63802026653E+02  0.63802026852E+02  0.50400000000E-02 0.  1.
          1   -1    0    0  501    0  0.00000000000E+00 -0.00000000000E+00 -0.47909842212E+03  0.47909842215E+03  0.50400000000E-02 0. -1.
         25    2    1    2    0    0  0.89834672131E+02  0.95642579093E+02 -0.28156414172E+03  0.33484551039E+03  0.12500151468E+03 0.  0.
         23    2    1    2    0    0 -0.89834672131E+02 -0.95642579093E+02 -0.13373225375E+03  0.20805493861E+03  0.90469721651E+02 0.  0.
        -13    1    4    4    0    0 -0.63684599234E+02 -0.73427832412E+01 -0.34990780250E+02  0.73034310511E+02  0.10566000000E+00 0.  1.
         13    1    4    4    0    0 -0.26150072897E+02 -0.88299795851E+02 -0.98741473500E+02  0.13502062810E+03  0.10566000000E+00 0. -1.
    9000005    1    3    3    0    0  0.50903993157E+02  0.54100287104E+02 -0.26547589693E+03  0.27567464417E+03  0.10000000000E+01 0.  0.
    9000005    1    3    3    0    0  0.38930678974E+02  0.41542291989E+02 -0.16088244785E+02  0.59170866221E+02  0.10000000000E+01 0.  0.
<mgrwt>
<rscale>  0 0.17549973E+03</rscale>
<asrwt>0</asrwt>
<pdfrwt beam="2">  1        1 0.73707447E-01 0.18122679E+03</pdfrwt>
<pdfrwt beam="1">  1       -1 0.98156967E-02 0.18122679E+03</pdfrwt>
<totfact> 0.29526823E+03</totfact>
</mgrwt>
</event>
<event>
 8    3  0.1508318E-003  0.1699044E+03  0.7818608E-02  0.1184236E+00
         -1   -1    0    0    0  501 -0.00000000000E+00  0.00000000000E+00  0.12505129517E+03  0.12505129527E+03  0.50400000000E-02 0.  1.
          1   -1    0    0  501    0  0.00000000000E+00 -0.00000000000E+00 -0.40260968583E+03  0.40260968586E+03  0.50400000000E-02 0. -1.
         25    2    1    2    0    0  0.89396996833E+02  0.72461569482E+02 -0.32992010531E+03  0.37109941031E+03  0.12499997739E+03 0.  0.
         23    2    1    2    0    0 -0.89396996833E+02 -0.72461569482E+02  0.52361714648E+02  0.15656157083E+03  0.92343241251E+02 0.  0.
        -13    1    4    4    0    0  0.57460087889E+01 -0.41040014615E+01 -0.18391295241E+02  0.19700516482E+02  0.10566000000E+00 0. -1.
         13    1    4    4    0    0 -0.95143005622E+02 -0.68357568020E+02  0.70753009888E+02  0.13686105435E+03  0.10566000000E+00 0.  1.
    9000005    1    3    3    0    0 -0.10341086058E+02 -0.21137133198E+02 -0.10698948927E+03  0.10955120846E+03  0.10000000000E+01 0.  0.
    9000005    1    3    3    0    0  0.99738082891E+02  0.93598702679E+02 -0.22293061604E+03  0.26154820185E+03  0.10000000000E+01 0.  0.
<mgrwt>
<rscale>  0 0.16401560E+03</rscale>
<asrwt>0</asrwt>
<pdfrwt beam="2">  1        1 0.61939951E-01 0.16990437E+03</pdfrwt>
<pdfrwt beam="1">  1       -1 0.19238661E-01 0.16990437E+03</pdfrwt>
<totfact> 0.12832545E+03</totfact>
</mgrwt>
</event>
<event>
 8    3  0.1508318E-003  0.1601139E+03  0.7818608E-02  0.1196336E+00
          1   -1    0    0  501    0  0.00000000000E+00  0.00000000000E+00  0.77168980334E+03  0.77168980336E+03  0.50400000000E-02 0.  1.
         -1   -1    0    0    0  501 -0.00000000000E+00 -0.00000000000E+00 -0.31548948217E+02  0.31548948619E+02  0.50400000000E-02 0. -1.
         25    2    1    2    0    0  0.83832928890E+02 -0.54622267882E+02  0.52856213765E+03  0.55228109584E+03  0.12499969340E+03 0.  0.
         23    2    1    2    0    0 -0.83832928890E+02  0.54622267882E+02  0.21157871747E+03  0.25095765613E+03  0.90568423696E+02 0.  0.
        -13    1    4    4    0    0 -0.14069193056E+02  0.61468393826E+02  0.12075826587E+03  0.13623096407E+03  0.10566000000E+00 0.  1.
         13    1    4    4    0    0 -0.69763735834E+02 -0.68461259440E+01  0.90820451605E+02  0.11472669206E+03  0.10566000000E+00 0. -1.
    9000005    1    3    3    0    0  0.38282397236E+01  0.30109435550E+02  0.22634371408E+03  0.22837186874E+03  0.10000000000E+01 0.  0.
    9000005    1    3    3    0    0  0.80004689166E+02 -0.84731703431E+02  0.30221842358E+03  0.32390922710E+03  0.10000000000E+01 0.  0.
<mgrwt>
<rscale>  0 0.15341687E+03</rscale>
<asrwt>0</asrwt>
<pdfrwt beam="1">  1        1 0.11872150E+00 0.16011395E+03</pdfrwt>
<pdfrwt beam="2">  1       -1 0.48536847E-02 0.16011395E+03</pdfrwt>
<totfact> 0.43926662E+03</totfact>
</mgrwt>
</event>
<event>
 8    3  0.1508318E-003  0.1256261E+03  0.7818608E-02  0.1249403E+00
         -1   -1    0    0    0  501 -0.00000000000E+00  0.00000000000E+00  0.20944350097E+02  0.20944350703E+02  0.50400000000E-02 0.  1.
          1   -1    0    0  501    0  0.00000000000E+00 -0.00000000000E+00 -0.58433156192E+03  0.58433156194E+03  0.50400000000E-02 0. -1.
         25    2    1    2    0    0 -0.10311717702E+02  0.75267835744E+01 -0.27072542198E+03  0.29845294608E+03  0.12497568933E+03 0.  0.
         23    2    1    2    0    0  0.10311717702E+02 -0.75267835744E+01 -0.29266178984E+03  0.30682296656E+03  0.91249249777E+02 0.  0.
        -13    1    4    4    0    0  0.45781555818E+01 -0.17485521290E+02 -0.47594244796E+01  0.18691341544E+02  0.10566000000E+00 0.  1.
         13    1    4    4    0    0  0.57335621197E+01  0.99587377158E+01 -0.28790236536E+03  0.28813162501E+03  0.10566000000E+00 0. -1.
    9000005    1    3    3    0    0  0.51796150819E+02 -0.64032026646E+00 -0.63446663993E+02  0.81912944163E+02  0.10000000000E+01 0.  0.
    9000005    1    3    3    0    0 -0.62107868520E+02  0.81671038408E+01 -0.20727875799E+03  0.21654000192E+03  0.10000000000E+01 0.  0.
<mgrwt>
<rscale>  0 0.11625710E+03</rscale>
<asrwt>0</asrwt>
<pdfrwt beam="2">  1        1 0.89897151E-01 0.12562606E+03</pdfrwt>
<pdfrwt beam="1">  1       -1 0.32222082E-02 0.12562606E+03</pdfrwt>
<totfact> 0.11724011E+04</totfact>
</mgrwt>
</event>
<event>
 8    3  0.1508318E-003  0.1405535E+03  0.7818608E-02  0.1222293E+00
         -1   -1    0    0    0  501 -0.00000000000E+00  0.00000000000E+00  0.24275418636E+02  0.24275419159E+02  0.50400000000E-02 0.  1.
          1   -1    0    0  501    0  0.00000000000E+00 -0.00000000000E+00 -0.67070737534E+03  0.67070737536E+03  0.50400000000E-02 0. -1.
         25    2    1    2    0    0 -0.13738086280E+02  0.62775434434E+02 -0.34603101500E+03  0.37348728796E+03  0.12500320293E+03 0.  0.
         23    2    1    2    0    0  0.13738086280E+02 -0.62775434434E+02 -0.30040094170E+03  0.32149550656E+03  0.94811100494E+02 0.  0.
        -13    1    4    4    0    0  0.33405594145E+02 -0.72627895352E+02 -0.28104847899E+03  0.29219685763E+03  0.10566000000E+00 0. -1.
         13    1    4    4    0    0 -0.19667507865E+02  0.98524609181E+01 -0.19352462718E+02  0.29298648929E+02  0.10566000000E+00 0.  1.
    9000005    1    3    3    0    0 -0.10567232339E+02 -0.34461865086E+02 -0.48391010935E+02  0.60348790244E+02  0.10000000000E+01 0.  0.
    9000005    1    3    3    0    0 -0.31708539412E+01  0.97237299520E+02 -0.29764000406E+03  0.31313849771E+03  0.10000000000E+01 0.  0.
<mgrwt>
<rscale>  0 0.13354184E+03</rscale>
<asrwt>0</asrwt>
<pdfrwt beam="2">  1        1 0.10318574E+00 0.14055352E+03</pdfrwt>
<pdfrwt beam="1">  1       -1 0.37346803E-02 0.14055352E+03</pdfrwt>
<totfact> 0.78734162E+03</totfact>
</mgrwt>
</event>
<event>
 8    3  0.1508318E-003  0.1322114E+03  0.7818608E-02  0.1237172E+00
          1   -1    0    0  501    0  0.00000000000E+00  0.00000000000E+00  0.33732768159E+03  0.33732768163E+03  0.50400000000E-02 0. -1.
         -1   -1    0    0    0  501 -0.00000000000E+00 -0.00000000000E+00 -0.40631156112E+02  0.40631156424E+02  0.50400000000E-02 0.  1.
         25    2    1    2    0    0 -0.36883241668E+02 -0.22238492204E+02  0.15308848786E+03  0.20227689338E+03  0.12499972971E+03 0.  0.
         23    2    1    2    0    0  0.36883241668E+02  0.22238492204E+02  0.14360803762E+03  0.17568194467E+03  0.91574850065E+02 0.  0.
        -13    1    4    4    0    0  0.27638241864E+02  0.30772711993E+02  0.15394071902E+03  0.15940071629E+03  0.10566000000E+00 0. -1.
         13    1    4    4    0    0  0.92449998039E+01 -0.85342197889E+01 -0.10332681402E+02  0.16281228386E+02  0.10566000000E+00 0.  1.
    9000005    1    3    3    0    0 -0.55299134994E+02 -0.45548705627E+02  0.33581675928E+02  0.79129058338E+02  0.10000000000E+01 0.  0.
    9000005    1    3    3    0    0  0.18415893327E+02  0.23310213423E+02  0.11950681193E+03  0.12314783504E+03  0.10000000000E+01 0.  0.
<mgrwt>
<rscale>  0 0.12366416E+03</rscale>
<asrwt>0</asrwt>
<pdfrwt beam="1">  1        1 0.51896568E-01 0.13221141E+03</pdfrwt>
<pdfrwt beam="2">  1       -1 0.62509469E-02 0.13221141E+03</pdfrwt>
<totfact> 0.89728949E+03</totfact>
</mgrwt>
</event>
<event>
 8    3  0.1508318E-003  0.1272758E+03  0.7818608E-02  0.1246573E+00
          1   -1    0    0  501    0  0.00000000000E+00  0.00000000000E+00  0.91413725403E+03  0.91413725404E+03  0.50400000000E-02 0. -1.
         -1   -1    0    0    0  501 -0.00000000000E+00 -0.00000000000E+00 -0.13476939825E+02  0.13476940767E+02  0.50400000000E-02 0.  1.
         25    2    1    2    0    0  0.15535092743E+02  0.18287181981E+02  0.47583015934E+03  0.49255808666E+03  0.12499347210E+03 0.  0.
         23    2    1    2    0    0 -0.15535092743E+02 -0.18287181981E+02  0.42483015486E+03  0.43505610815E+03  0.90649857275E+02 0.  0.
        -13    1    4    4    0    0 -0.31987715430E+01 -0.48333708093E+02  0.13529922410E+03  0.14370897913E+03  0.10566000000E+00 0.  1.
         13    1    4    4    0    0 -0.12336321200E+02  0.30046526111E+02  0.28953093077E+03  0.29134712902E+03  0.10566000000E+00 0. -1.
    9000005    1    3    3    0    0 -0.29918005046E+02 -0.27629573790E+01  0.25416249711E+02  0.39366314391E+02  0.10000000000E+01 0.  0.
    9000005    1    3    3    0    0  0.45453097789E+02  0.21050139360E+02  0.45041390963E+03  0.45319177227E+03  0.10000000000E+01 0.  0.
<mgrwt>
<rscale>  0 0.11791728E+03</rscale>
<asrwt>0</asrwt>
<pdfrwt beam="1">  1        1 0.14063651E+00 0.12727580E+03</pdfrwt>
<pdfrwt beam="2">  1       -1 0.20733753E-02 0.12727580E+03</pdfrwt>
<totfact> 0.11578018E+04</totfact>
</mgrwt>
</event>
<event>
 8    3  0.1508318E-003  0.1265108E+03  0.7818608E-02  0.1247510E+00
         -1   -1    0    0    0  501 -0.00000000000E+00  0.00000000000E+00  0.26088329855E+02  0.26088330342E+02  0.50400000000E-02 0.  1.
          1   -1    0    0  501    0  0.00000000000E+00 -0.00000000000E+00 -0.47825450441E+03  0.47825450444E+03  0.50400000000E-02 0. -1.
         25    2    1    2    0    0  0.14495036087E+02 -0.13016338162E+02 -0.30077637983E+03  0.32629955850E+03  0.12500176032E+03 0.  0.
         23    2    1    2    0    0 -0.14495036087E+02  0.13016338162E+02 -0.15138979473E+03  0.17804327629E+03  0.91657008196E+02 0.  0.
        -13    1    4    4    0    0 -0.14443552046E+02 -0.35770660833E+02 -0.10000343518E+03  0.10718607458E+03  0.10566000000E+00 0. -1.
         13    1    4    4    0    0 -0.51484040851E-01  0.48786998996E+02 -0.51386359555E+02  0.70857201708E+02  0.10566000000E+00 0.  1.
    9000005    1    3    3    0    0 -0.33528745684E+02 -0.26907317364E+02 -0.33840272822E+02  0.54720604707E+02  0.10000000000E+01 0.  0.
    9000005    1    3    3    0    0  0.48023781770E+02  0.13890979201E+02 -0.26693610700E+03  0.27157895379E+03  0.10000000000E+01 0.  0.
<mgrwt>
<rscale>  0 0.11736422E+03</rscale>
<asrwt>0</asrwt>
<pdfrwt beam="2">  1        1 0.73577609E-01 0.12651076E+03</pdfrwt>
<pdfrwt beam="1">  1       -1 0.40135896E-02 0.12651076E+03</pdfrwt>
<totfact> 0.11079879E+04</totfact>
</mgrwt>
</event>
<event>
 8    3  0.1508318E-003  0.1263944E+03  0.7818608E-02  0.1248104E+00
         -1   -1    0    0    0  501 -0.00000000000E+00  0.00000000000E+00  0.35585875180E+02  0.35585875537E+02  0.50400000000E-02 0.  1.
          1   -1    0    0  501    0  0.00000000000E+00 -0.00000000000E+00 -0.42141362181E+03  0.42141362184E+03  0.50400000000E-02 0. -1.
         25    2    1    2    0    0  0.13058613370E+02 -0.13815048169E+02 -0.11567828413E+03  0.17133889588E+03  0.12495666802E+03 0.  0.
         23    2    1    2    0    0 -0.13058613370E+02  0.13815048169E+02 -0.27014946251E+03  0.28566060150E+03  0.90883795137E+02 0.  0.
        -13    1    4    4    0    0 -0.31079491550E+02  0.34481071024E+02 -0.72296570389E+02  0.85916728918E+02  0.10566000000E+00 0.  1.
         13    1    4    4    0    0  0.18020878181E+02 -0.20666022855E+02 -0.19785289212E+03  0.19974387258E+03  0.10566000000E+00 0. -1.
    9000005    1    3    3    0    0 -0.28328769796E+02 -0.25769645503E+02  0.90612668691E+01  0.39366234069E+02  0.10000000000E+01 0.  0.
    9000005    1    3    3    0    0  0.41387383166E+02  0.11954597335E+02 -0.12473955100E+03  0.13197266181E+03  0.10000000000E+01 0.  0.
<mgrwt>
<rscale>  0 0.11701518E+03</rscale>
<asrwt>0</asrwt>
<pdfrwt beam="2">  1        1 0.64832861E-01 0.12639443E+03</pdfrwt>
<pdfrwt beam="1">  1       -1 0.54747504E-02 0.12639443E+03</pdfrwt>
<totfact> 0.82418494E+03</totfact>
</mgrwt>
</event>
<event>
 8    3  0.1508318E-003  0.1407099E+03  0.7818608E-02  0.1224082E+00
          1   -1    0    0  501    0  0.00000000000E+00  0.00000000000E+00  0.42169707458E+03  0.42169707461E+03  0.50400000000E-02 0. -1.
         -1   -1    0    0    0  501 -0.00000000000E+00 -0.00000000000E+00 -0.40340609028E+02  0.40340609343E+02  0.50400000000E-02 0.  1.
         25    2    1    2    0    0 -0.20288887784E+02 -0.61342755162E+02  0.14881728961E+03  0.20480688940E+03  0.12499881471E+03 0.  0.
         23    2    1    2    0    0  0.20288887784E+02  0.61342755162E+02  0.23253917594E+03  0.25723079456E+03  0.88986744760E+02 0.  0.
        -13    1    4    4    0    0 -0.66902176157E+01  0.50453759406E+01  0.16517480809E+03  0.16538725229E+03  0.10566000000E+00 0. -1.
         13    1    4    4    0    0  0.26979105400E+02  0.56297379221E+02  0.67364367852E+02  0.91843542264E+02  0.10566000000E+00 0.  1.
    9000005    1    3    3    0    0  0.22208382429E+02 -0.16814113700E+02  0.13984408517E+03  0.14259486255E+03  0.10000000000E+01 0.  0.
    9000005    1    3    3    0    0 -0.42497270213E+02 -0.44528641461E+02  0.89732044418E+01  0.62212026843E+02  0.10000000000E+01 0.  0.
<mgrwt>
<rscale>  0 0.13230042E+03</rscale>
<asrwt>0</asrwt>
<pdfrwt beam="1">  1        1 0.64876476E-01 0.14070990E+03</pdfrwt>
<pdfrwt beam="2">  1       -1 0.62062473E-02 0.14070990E+03</pdfrwt>
<totfact> 0.68816432E+03</totfact>
</mgrwt>
</event>
<event>
 8    3  0.1508318E-003  0.1692274E+03  0.7818608E-02  0.1185407E+00
          1   -1    0    0  501    0  0.00000000000E+00  0.00000000000E+00  0.18042023870E+04  0.18042023870E+04  0.50400000000E-02 0. -1.
         -1   -1    0    0    0  501 -0.00000000000E+00 -0.00000000000E+00 -0.14142116639E+02  0.14142117537E+02  0.50400000000E-02 0.  1.
         25    2    1    2    0    0  0.10118165326E+03  0.52725027512E+02  0.11165816603E+04  0.11293327768E+04  0.12498104340E+03 0.  0.
         23    2    1    2    0    0 -0.10118165326E+03 -0.52725027512E+02  0.67347861013E+03  0.68901172778E+03  0.90255566279E+02 0.  0.
        -13    1    4    4    0    0 -0.56687709970E+02 -0.28260691052E+02  0.14668805016E+03  0.15977971818E+03  0.10566000000E+00 0.  1.
         13    1    4    4    0    0 -0.44493943292E+02 -0.24464336460E+02  0.52679055997E+03  0.52923200960E+03  0.10566000000E+00 0. -1.
    9000005    1    3    3    0    0  0.80679144740E+02  0.83191855025E+02  0.57825416959E+03  0.58975324822E+03  0.10000000000E+01 0.  0.
    9000005    1    3    3    0    0  0.20502508522E+02 -0.30466827513E+02  0.53832749068E+03  0.53957952857E+03  0.10000000000E+01 0.  0.
<mgrwt>
<rscale>  0 0.16294913E+03</rscale>
<asrwt>0</asrwt>
<pdfrwt beam="1">  1        1 0.27756951E+00 0.16922741E+03</pdfrwt>
<pdfrwt beam="2">  1       -1 0.21757110E-02 0.16922741E+03</pdfrwt>
<totfact> 0.27342535E+03</totfact>
</mgrwt>
</event>
<event>
 8    3  0.1508318E-003  0.1768168E+03  0.7818608E-02  0.1177611E+00
          1   -1    0    0  501    0  0.00000000000E+00  0.00000000000E+00  0.35707885482E+03  0.35707885486E+03  0.50400000000E-02 0. -1.
         -1   -1    0    0    0  501 -0.00000000000E+00 -0.00000000000E+00 -0.75785823256E+02  0.75785823424E+02  0.50400000000E-02 0.  1.
         25    2    1    2    0    0 -0.10873340822E+03  0.61777382325E+02  0.16044333227E+03  0.23875976924E+03  0.12499906203E+03 0.  0.
         23    2    1    2    0    0  0.10873340822E+03 -0.61777382325E+02  0.12084969929E+03  0.19410490904E+03  0.86212915876E+02 0.  0.
        -13    1    4    4    0    0 -0.14366574318E+02 -0.13269354917E+02  0.14397500670E+02  0.24285251227E+02  0.10566000000E+00 0. -1.
         13    1    4    4    0    0  0.12309998254E+03 -0.48508027407E+02  0.10645219862E+03  0.16981965781E+03  0.10566000000E+00 0.  1.
    9000005    1    3    3    0    0 -0.10955608499E+03  0.94098188439E+02  0.12892800644E+03  0.19359864584E+03  0.10000000000E+01 0.  0.
    9000005    1    3    3    0    0  0.82267676884E+00 -0.32320806115E+02  0.31515325834E+02  0.45161123407E+02  0.10000000000E+01 0.  0.
<mgrwt>
<rscale>  0 0.17022697E+03</rscale>
<asrwt>0</asrwt>
<pdfrwt beam="1">  1        1 0.54935208E-01 0.17681675E+03</pdfrwt>
<pdfrwt beam="2">  1       -1 0.11659358E-01 0.17681675E+03</pdfrwt>
<totfact> 0.32947065E+03</totfact>
</mgrwt>
</event>
<event>
 8    3  0.1508318E-003  0.1290367E+03  0.7818608E-02  0.1245155E+00
         -1   -1    0    0    0  501 -0.00000000000E+00  0.00000000000E+00  0.15440494806E+02  0.15440495629E+02  0.50400000000E-02 0.  1.
          1   -1    0    0  501    0  0.00000000000E+00 -0.00000000000E+00 -0.89076983685E+03  0.89076983686E+03  0.50400000000E-02 0. -1.
         25    2    1    2    0    0  0.58363935769E+00 -0.32029251325E+02 -0.35537371437E+03  0.37807530381E+03  0.12499697963E+03 0.  0.
         23    2    1    2    0    0 -0.58363935769E+00  0.32029251325E+02 -0.51995562768E+03  0.52813502868E+03  0.86870824722E+02 0.  0.
        -13    1    4    4    0    0  0.21109541038E+02  0.11537246548E+02 -0.36228835181E+02  0.43488624298E+02  0.10566000000E+00 0.  1.
         13    1    4    4    0    0 -0.21693180395E+02  0.20492004777E+02 -0.48372679249E+03  0.48464640438E+03  0.10566000000E+00 0. -1.
    9000005    1    3    3    0    0 -0.37227049528E+02  0.33183150476E+02 -0.18804962400E+03  0.19455239854E+03  0.10000000000E+01 0.  0.
    9000005    1    3    3    0    0  0.37810688885E+02 -0.65212401802E+02 -0.16732409037E+03  0.18352290527E+03  0.10000000000E+01 0.  0.
<mgrwt>
<rscale>  0 0.11876128E+03</rscale>
<asrwt>0</asrwt>
<pdfrwt beam="2">  1        1 0.13704147E+00 0.12903666E+03</pdfrwt>
<pdfrwt beam="1">  1       -1 0.23754615E-02 0.12903666E+03</pdfrwt>
<totfact> 0.99228529E+03</totfact>
</mgrwt>
</event>
<event>
 8    3  0.1508318E-003  0.1311185E+03  0.7818608E-02  0.1239992E+00
         -1   -1    0    0    0  501 -0.00000000000E+00  0.00000000000E+00  0.34035523374E+02  0.34035523748E+02  0.50400000000E-02 0.  1.
          1   -1    0    0  501    0  0.00000000000E+00 -0.00000000000E+00 -0.43233389210E+03  0.43233389213E+03  0.50400000000E-02 0. -1.
         25    2    1    2    0    0 -0.30417748741E+02  0.25405865746E+02 -0.14878884640E+03  0.19831837095E+03  0.12498543112E+03 0.  0.
         23    2    1    2    0    0  0.30417748741E+02 -0.25405865746E+02 -0.24950952233E+03  0.26805104492E+03  0.89586067559E+02 0.  0.
        -13    1    4    4    0    0 -0.21987833754E+02 -0.99601988461E+01 -0.17811785626E+02  0.29999021075E+02  0.10566000000E+00 0.  1.
         13    1    4    4    0    0  0.52405582495E+02 -0.15445666900E+02 -0.23169773670E+03  0.23805202385E+03  0.10566000000E+00 0. -1.
    9000005    1    3    3    0    0 -0.73442476008E+02  0.33756659661E+01 -0.51781170998E+02  0.89930429071E+02  0.10000000000E+01 0.  0.
    9000005    1    3    3    0    0  0.43024727267E+02  0.22030199780E+02 -0.97007675403E+02  0.10838794188E+03  0.10000000000E+01 0.  0.
<mgrwt>
<rscale>  0 0.12190212E+03</rscale>
<asrwt>0</asrwt>
<pdfrwt beam="2">  1        1 0.66512903E-01 0.13111848E+03</pdfrwt>
<pdfrwt beam="1">  1       -1 0.52362347E-02 0.13111848E+03</pdfrwt>
<totfact> 0.85446426E+03</totfact>
</mgrwt>
</event>
<event>
 8    3  0.1508318E-003  0.1288544E+03  0.7818608E-02  0.1240791E+00
         -1   -1    0    0    0  501 -0.00000000000E+00  0.00000000000E+00  0.45176902367E+02  0.45176902648E+02  0.50400000000E-02 0.  1.
          1   -1    0    0  501    0  0.00000000000E+00 -0.00000000000E+00 -0.32902904609E+03  0.32902904613E+03  0.50400000000E-02 0. -1.
         25    2    1    2    0    0 -0.27309506885E+02 -0.15245272620E+02 -0.96087979005E+02  0.16073687843E+03  0.12500086749E+03 0.  0.
         23    2    1    2    0    0  0.27309506885E+02  0.15245272620E+02 -0.18776416472E+03  0.21346907035E+03  0.96620054540E+02 0.  0.
        -13    1    4    4    0    0  0.13396278309E+02  0.34502641238E+02 -0.16429098173E+02  0.40494678116E+02  0.10566000000E+00 0.  1.
         13    1    4    4    0    0  0.13913228576E+02 -0.19257368619E+02 -0.17133506655E+03  0.17297439223E+03  0.10566000000E+00 0. -1.
    9000005    1    3    3    0    0 -0.27942711453E+02 -0.19060498314E+02  0.23425646536E+02  0.41156513883E+02  0.10000000000E+01 0.  0.
    9000005    1    3    3    0    0  0.63320456883E+00  0.38152256944E+01 -0.11951362554E+03  0.11958036455E+03  0.10000000000E+01 0.  0.
<mgrwt>
<rscale>  0 0.12140902E+03</rscale>
<asrwt>0</asrwt>
<pdfrwt beam="2">  1        1 0.50619852E-01 0.12885435E+03</pdfrwt>
<pdfrwt beam="1">  1       -1 0.69502929E-02 0.12885435E+03</pdfrwt>
<totfact> 0.78840957E+03</totfact>
</mgrwt>
</event>
<event>
 8    3  0.1508318E-003  0.1343551E+03  0.7818608E-02  0.1234375E+00
         -1   -1    0    0    0  501 -0.00000000000E+00  0.00000000000E+00  0.30515098647E+02  0.30515099063E+02  0.50400000000E-02 0.  1.
          1   -1    0    0  501    0  0.00000000000E+00 -0.00000000000E+00 -0.45808463752E+03  0.45808463755E+03  0.50400000000E-02 0. -1.
         25    2    1    2    0    0  0.36197906183E+02  0.33416303503E+02 -0.24258242730E+03  0.27730404402E+03  0.12499744414E+03 0.  0.
         23    2    1    2    0    0 -0.36197906183E+02 -0.33416303503E+02 -0.18498711158E+03  0.21129569260E+03  0.89435454431E+02 0.  0.
        -13    1    4    4    0    0 -0.39805588012E+02  0.27860638492E+01 -0.24694893078E+02  0.46926494616E+02  0.10566000000E+00 0.  1.
         13    1    4    4    0    0  0.36076818295E+01 -0.36202367352E+02 -0.16029221850E+03  0.16436919798E+03  0.10566000000E+00 0. -1.
    9000005    1    3    3    0    0  0.59413579583E+02  0.98696536385E+01 -0.23600989802E+03  0.24357556417E+03  0.10000000000E+01 0.  0.
    9000005    1    3    3    0    0 -0.23215673400E+02  0.23546649865E+02 -0.65725292849E+01  0.33728479842E+02  0.10000000000E+01 0.  0.
<mgrwt>
<rscale>  0 0.12544504E+03</rscale>
<asrwt>0</asrwt>
<pdfrwt beam="2">  1        1 0.70474555E-01 0.13435512E+03</pdfrwt>
<pdfrwt beam="1">  1       -1 0.46946309E-02 0.13435512E+03</pdfrwt>
<totfact> 0.93414771E+03</totfact>
</mgrwt>
</event>
<event>
 8    3  0.1508318E-003  0.1598825E+03  0.7818608E-02  0.1196935E+00
         -1   -1    0    0    0  501 -0.00000000000E+00  0.00000000000E+00  0.30514921978E+03  0.30514921982E+03  0.50400000000E-02 0.  1.
          1   -1    0    0  501    0  0.00000000000E+00 -0.00000000000E+00 -0.70732950746E+02  0.70732950925E+02  0.50400000000E-02 0. -1.
         25    2    1    2    0    0  0.70538752974E+02  0.70443484580E+02  0.12138952666E+03  0.20074319961E+03  0.12499765924E+03 0.  0.
         23    2    1    2    0    0 -0.70538752974E+02 -0.70443484580E+02  0.11302674237E+03  0.17513897113E+03  0.89222275964E+02 0.  0.
        -13    1    4    4    0    0 -0.73973008952E+02 -0.17204193417E+02  0.43569670861E+02  0.87557510857E+02  0.10566000000E+00 0. -1.
         13    1    4    4    0    0  0.34342559778E+01 -0.53239291163E+02  0.69457071508E+02  0.87581460276E+02  0.10566000000E+00 0.  1.
    9000005    1    3    3    0    0  0.84329411128E+02 -0.22388884028E+01  0.78427584124E+02  0.11518831605E+03  0.10000000000E+01 0.  0.
    9000005    1    3    3    0    0 -0.13790658154E+02  0.72682372983E+02  0.42961942539E+02  0.85554883563E+02  0.10000000000E+01 0.  0.
<mgrwt>
<rscale>  0 0.15291607E+03</rscale>
<asrwt>0</asrwt>
<pdfrwt beam="2">  1        1 0.10881992E-01 0.15988250E+03</pdfrwt>
<pdfrwt beam="1">  1       -1 0.46946035E-01 0.15988250E+03</pdfrwt>
<totfact> 0.25765271E+03</totfact>
</mgrwt>
</event>
<event>
 8    3  0.1508318E-003  0.1284941E+03  0.7818608E-02  0.1244124E+00
         -1   -1    0    0    0  501 -0.00000000000E+00  0.00000000000E+00  0.16714082675E+02  0.16714083435E+02  0.50400000000E-02 0.  1.
          1   -1    0    0  501    0  0.00000000000E+00 -0.00000000000E+00 -0.75597296302E+03  0.75597296303E+03  0.50400000000E-02 0. -1.
         25    2    1    2    0    0 -0.18090443229E+02 -0.23589229309E+02 -0.45089829485E+03  0.46884966564E+03  0.12500808293E+03 0.  0.
         23    2    1    2    0    0  0.18090443229E+02  0.23589229309E+02 -0.28836058549E+03  0.30383738082E+03  0.91003356241E+02 0.  0.
        -13    1    4    4    0    0 -0.31865759527E+02  0.59103766702E+01 -0.18357841734E+03  0.18641728906E+03  0.10566000000E+00 0. -1.
         13    1    4    4    0    0  0.49956202755E+02  0.17678852639E+02 -0.10478216815E+03  0.11742009176E+03  0.10566000000E+00 0.  1.
    9000005    1    3    3    0    0  0.21914949521E+02  0.28424772947E+02 -0.44465416449E+02  0.57152480170E+02  0.10000000000E+01 0.  0.
    9000005    1    3    3    0    0 -0.40005392750E+02 -0.52014002256E+02 -0.40643287840E+03  0.41169718547E+03  0.10000000000E+01 0.  0.
<mgrwt>
<rscale>  0 0.11937982E+03</rscale>
<asrwt>0</asrwt>
<pdfrwt beam="2">  1        1 0.11630351E+00 0.12849411E+03</pdfrwt>
<pdfrwt beam="1">  1       -1 0.25713980E-02 0.12849411E+03</pdfrwt>
<totfact> 0.11354077E+04</totfact>
</mgrwt>
</event>
<event>
 8    3  0.1508318E-003  0.1465616E+03  0.7818608E-02  0.1218529E+00
          1   -1    0    0  501    0  0.00000000000E+00  0.00000000000E+00  0.79585952945E+01  0.79585968903E+01  0.50400000000E-02 0. -1.
         -1   -1    0    0    0  501 -0.00000000000E+00 -0.00000000000E+00 -0.21374653127E+04  0.21374653127E+04  0.50400000000E-02 0.  1.
         25    2    1    2    0    0  0.44395774484E+02  0.62323644565E+02 -0.10075897271E+04  0.10181931812E+04  0.12500029831E+03 0.  0.
         23    2    1    2    0    0 -0.44395774484E+02 -0.62323644565E+02 -0.11219169903E+04  0.11272307284E+04  0.78077912926E+02 0.  0.
        -13    1    4    4    0    0  0.15117390640E+02 -0.39229127470E+02 -0.59017705858E+03  0.59167257126E+03  0.10566000000E+00 0.  1.
         13    1    4    4    0    0 -0.59513165124E+02 -0.23094517095E+02 -0.53173993175E+03  0.53555815718E+03  0.10566000000E+00 0. -1.
    9000005    1    3    3    0    0  0.29931381449E+02 -0.30211640410E+02 -0.16430079631E+03  0.16971853900E+03  0.10000000000E+01 0.  0.
    9000005    1    3    3    0    0  0.14464393036E+02  0.92535284975E+02 -0.84328893077E+03  0.84847464216E+03  0.10000000000E+01 0.  0.
<mgrwt>
<rscale>  0 0.13620478E+03</rscale>
<asrwt>0</asrwt>
<pdfrwt beam="1">  1        1 0.12244011E-02 0.14656158E+03</pdfrwt>
<pdfrwt beam="2">  1       -1 0.32884036E+00 0.14656158E+03</pdfrwt>
<totfact> 0.30971294E+02</totfact>
</mgrwt>
</event>
<event>
 8    3  0.1508318E-003  0.1655580E+03  0.7818608E-02  0.1195499E+00
          1   -1    0    0  501    0  0.00000000000E+00  0.00000000000E+00  0.64705902702E+03  0.64705902704E+03  0.50400000000E-02 0. -1.
         -1   -1    0    0    0  501 -0.00000000000E+00 -0.00000000000E+00 -0.32725224282E+02  0.32725224670E+02  0.50400000000E-02 0.  1.
         25    2    1    2    0    0 -0.10440715704E+03  0.29716689428E+02  0.38027152956E+03  0.41474799915E+03  0.12500212209E+03 0.  0.
         23    2    1    2    0    0  0.10440715704E+03 -0.29716689428E+02  0.23406227317E+03  0.26503625256E+03  0.60622861824E+02 0.  0.
        -13    1    4    4    0    0  0.77525018920E+02 -0.48585027263E+02  0.17209509340E+03  0.19490347808E+03  0.10566000000E+00 0.  1.
         13    1    4    4    0    0  0.26882138124E+02  0.18868337835E+02  0.61967179776E+02  0.70132774479E+02  0.10566000000E+00 0. -1.
    9000005    1    3    3    0    0 -0.80578005629E+02 -0.10533906251E+02  0.92212725349E+02  0.12291446167E+03  0.10000000000E+01 0.  0.
    9000005    1    3    3    0    0 -0.23829151415E+02  0.40250595679E+02  0.28805880422E+03  0.29183353748E+03  0.10000000000E+01 0.  0.
<mgrwt>
<rscale>  0 0.15412058E+03</rscale>
<asrwt>0</asrwt>
<pdfrwt beam="1">  1        1 0.99547536E-01 0.16555805E+03</pdfrwt>
<pdfrwt beam="2">  1       -1 0.50346503E-02 0.16555805E+03</pdfrwt>
<totfact> 0.53735574E+03</totfact>
</mgrwt>
</event>
<event>
 8    3  0.1508318E-003  0.1618682E+03  0.7818608E-02  0.1196942E+00
         -1   -1    0    0    0  501 -0.00000000000E+00  0.00000000000E+00  0.42745573815E+02  0.42745574112E+02  0.50400000000E-02 0.  1.
          1   -1    0    0  501    0  0.00000000000E+00 -0.00000000000E+00 -0.63767327210E+03  0.63767327212E+03  0.50400000000E-02 0. -1.
         25    2    1    2    0    0 -0.33932322035E+02  0.97081948874E+02 -0.16320472991E+03  0.22986321037E+03  0.12500001737E+03 0.  0.
         23    2    1    2    0    0  0.33932322035E+02 -0.97081948874E+02 -0.43172296838E+03  0.45055563586E+03  0.77713269823E+02 0.  0.
        -13    1    4    4    0    0 -0.97761715238E+01 -0.71516048187E+02 -0.31766873890E+03  0.32576610861E+03  0.10566000000E+00 0.  1.
         13    1    4    4    0    0  0.43708493559E+02 -0.25565900688E+02 -0.11405422948E+03  0.12478952726E+03  0.10566000000E+00 0. -1.
    9000005    1    3    3    0    0 -0.33280951205E+02  0.65431209346E+02 -0.10804526344E+02  0.74206486638E+02  0.10000000000E+01 0.  0.
    9000005    1    3    3    0    0 -0.65137082925E+00  0.31650739529E+02 -0.15240020357E+03  0.15565672373E+03  0.10000000000E+01 0.  0.
<mgrwt>
<rscale>  0 0.15290998E+03</rscale>
<asrwt>0</asrwt>
<pdfrwt beam="2">  1        1 0.98103574E-01 0.16186819E+03</pdfrwt>
<pdfrwt beam="1">  1       -1 0.65762426E-02 0.16186819E+03</pdfrwt>
<totfact> 0.36760996E+03</totfact>
</mgrwt>
</event>
<event>
 8    3  0.1508318E-003  0.1473239E+03  0.7818608E-02  0.1213442E+00
          1   -1    0    0  501    0  0.00000000000E+00  0.00000000000E+00  0.37731082125E+02  0.37731082462E+02  0.50400000000E-02 0. -1.
         -1   -1    0    0    0  501 -0.00000000000E+00 -0.00000000000E+00 -0.49220975562E+03  0.49220975565E+03  0.50400000000E-02 0.  1.
         25    2    1    2    0    0 -0.65537889469E+02 -0.42264885807E+02 -0.19757602984E+03  0.24645609838E+03  0.12499114103E+03 0.  0.
         23    2    1    2    0    0  0.65537889469E+02  0.42264885807E+02 -0.25690264366E+03  0.28348473973E+03  0.91011503732E+02 0.  0.
        -13    1    4    4    0    0 -0.11630976751E+02  0.35070284445E+02 -0.12653114338E+03  0.13181557526E+03  0.10566000000E+00 0.  1.
         13    1    4    4    0    0  0.77168866219E+02  0.71946013616E+01 -0.13037150028E+03  0.15166916447E+03  0.10566000000E+00 0. -1.
    9000005    1    3    3    0    0 -0.43304734083E+02 -0.46916847141E+02 -0.21072750945E+03  0.22018985848E+03  0.10000000000E+01 0.  0.
    9000005    1    3    3    0    0 -0.22233155385E+02  0.46519613342E+01  0.13151479610E+02  0.26266239902E+02  0.10000000000E+01 0.  0.
<mgrwt>
<rscale>  0 0.13991576E+03</rscale>
<asrwt>0</asrwt>
<pdfrwt beam="1">  1        1 0.58047822E-02 0.14732386E+03</pdfrwt>
<pdfrwt beam="2">  1       -1 0.75724574E-01 0.14732386E+03</pdfrwt>
<totfact> 0.24028874E+03</totfact>
</mgrwt>
</event>
<event>
 8    3  0.1508318E-003  0.1320414E+03  0.7818608E-02  0.1237860E+00
         -1   -1    0    0    0  501 -0.00000000000E+00  0.00000000000E+00  0.12481315115E+03  0.12481315125E+03  0.50400000000E-02 0.  1.
          1   -1    0    0  501    0  0.00000000000E+00 -0.00000000000E+00 -0.10812045140E+03  0.10812045152E+03  0.50400000000E-02 0. -1.
         25    2    1    2    0    0 -0.23670022743E+02  0.35351237698E+02  0.13218489622E+02  0.13270142202E+03  0.12499983581E+03 0.  0.
         23    2    1    2    0    0  0.23670022743E+02 -0.35351237698E+02  0.34742101279E+01  0.10023218075E+03  0.90688697963E+02 0.  0.
        -13    1    4    4    0    0 -0.19610615797E+02 -0.43220050949E+02 -0.18647256951E+02  0.50992944725E+02  0.10566000000E+00 0. -1.
         13    1    4    4    0    0  0.43280638540E+02  0.78688132505E+01  0.22121467079E+02  0.49239236023E+02  0.10566000000E+00 0.  1.
    9000005    1    3    3    0    0 -0.22002950702E+02  0.78884641281E+02  0.28200753497E+02  0.86621007657E+02  0.10000000000E+01 0.  0.
    9000005    1    3    3    0    0 -0.16670720413E+01 -0.43533403583E+02 -0.14982263875E+02  0.46080414359E+02  0.10000000000E+01 0.  0.
<mgrwt>
<rscale>  0 0.12323078E+03</rscale>
<asrwt>0</asrwt>
<pdfrwt beam="2">  1        1 0.16633916E-01 0.13204143E+03</pdfrwt>
<pdfrwt beam="1">  1       -1 0.19202023E-01 0.13204143E+03</pdfrwt>
<totfact> 0.66329358E+03</totfact>
</mgrwt>
</event>
<event>
 8    3  0.1508318E-003  0.1321940E+03  0.7818608E-02  0.1237441E+00
          1   -1    0    0  501    0  0.00000000000E+00  0.00000000000E+00  0.64729097351E+03  0.64729097353E+03  0.50400000000E-02 0. -1.
         -1   -1    0    0    0  501 -0.00000000000E+00 -0.00000000000E+00 -0.22192626926E+02  0.22192627499E+02  0.50400000000E-02 0.  1.
         25    2    1    2    0    0  0.28558203853E+02 -0.32163252387E+02  0.43112754981E+03  0.45093926690E+03  0.12500084966E+03 0.  0.
         23    2    1    2    0    0 -0.28558203853E+02  0.32163252387E+02  0.19397079678E+03  0.21854433413E+03  0.91032467657E+02 0.  0.
        -13    1    4    4    0    0 -0.45066572332E+02 -0.45515228020E+01  0.43570612217E+02  0.62849993751E+02  0.10566000000E+00 0.  1.
         13    1    4    4    0    0  0.16508368479E+02  0.36714775189E+02  0.15040018456E+03  0.15569434038E+03  0.10566000000E+00 0. -1.
    9000005    1    3    3    0    0 -0.24367696063E+02 -0.64975352711E+02  0.20732542327E+03  0.21863305378E+03  0.10000000000E+01 0.  0.
    9000005    1    3    3    0    0  0.52925899916E+02  0.32812100324E+02  0.22380212655E+03  0.23230621312E+03  0.10000000000E+01 0.  0.
<mgrwt>
<rscale>  0 0.12349441E+03</rscale>
<asrwt>0</asrwt>
<pdfrwt beam="1">  1        1 0.99583206E-01 0.13219402E+03</pdfrwt>
<pdfrwt beam="2">  1       -1 0.34142510E-02 0.13219402E+03</pdfrwt>
<totfact> 0.94007576E+03</totfact>
</mgrwt>
</event>
<event>
 8    3  0.1508318E-003  0.1541732E+03  0.7818608E-02  0.1197956E+00
         -1   -1    0    0    0  501 -0.00000000000E+00  0.00000000000E+00  0.23235148726E+03  0.23235148732E+03  0.50400000000E-02 0. -1.
          1   -1    0    0  501    0  0.00000000000E+00 -0.00000000000E+00 -0.10107995745E+03  0.10107995758E+03  0.50400000000E-02 0.  1.
         25    2    1    2    0    0 -0.10994844594E+02 -0.89571570001E+02  0.10127733887E+03  0.18446266520E+03  0.12500169089E+03 0.  0.
         23    2    1    2    0    0  0.10994844594E+02  0.89571570001E+02  0.29994190945E+02  0.14896877969E+03  0.11466513451E+03 0.  0.
        -13    1    4    4    0    0  0.19207156944E+02  0.77541197168E+02 -0.31426833999E+02  0.85844098197E+02  0.10566000000E+00 0.  1.
         13    1    4    4    0    0 -0.82123123503E+01  0.12030372834E+02  0.61421024943E+02  0.63124681494E+02  0.10566000000E+00 0. -1.
    9000005    1    3    3    0    0 -0.17824387390E+01  0.27073259292E+02 -0.35254975464E+01  0.27378232037E+02  0.10000000000E+01 0.  0.
    9000005    1    3    3    0    0 -0.92124058549E+01 -0.11664482929E+03  0.10480283641E+03  0.15708443317E+03  0.10000000000E+01 0.  0.
<mgrwt>
<rscale>  0 0.15206660E+03</rscale>
<asrwt>0</asrwt>
<pdfrwt beam="2">  1        1 0.15550763E-01 0.15417320E+03</pdfrwt>
<pdfrwt beam="1">  1       -1 0.35746382E-01 0.15417320E+03</pdfrwt>
<totfact> 0.26072840E+03</totfact>
</mgrwt>
</event>
<event>
 8    3  0.1508318E-003  0.1266079E+03  0.7818608E-02  0.1247710E+00
          1   -1    0    0  501    0  0.00000000000E+00  0.00000000000E+00  0.10671411087E+03  0.10671411099E+03  0.50400000000E-02 0. -1.
         -1   -1    0    0    0  501 -0.00000000000E+00 -0.00000000000E+00 -0.12737322056E+03  0.12737322066E+03  0.50400000000E-02 0.  1.
         25    2    1    2    0    0 -0.19929348809E+02 -0.25176387980E+01  0.27044775491E+02  0.12946417020E+03  0.12500413607E+03 0.  0.
         23    2    1    2    0    0  0.19929348809E+02  0.25176387980E+01 -0.47703885183E+02  0.10462316145E+03  0.90922097432E+02 0.  0.
        -13    1    4    4    0    0  0.34632435357E+00  0.35244456700E+02 -0.55451900669E+02  0.65705525798E+02  0.10566000000E+00 0.  1.
         13    1    4    4    0    0  0.19583024455E+02 -0.32726817902E+02  0.77480154856E+01  0.38917635653E+02  0.10566000000E+00 0. -1.
    9000005    1    3    3    0    0 -0.69135030266E+02 -0.16452506402E+02  0.32253934112E+02  0.78049046390E+02  0.10000000000E+01 0.  0.
    9000005    1    3    3    0    0  0.49205681457E+02  0.13934867604E+02 -0.52091586204E+01  0.51415123809E+02  0.10000000000E+01 0.  0.
<mgrwt>
<rscale>  0 0.11724655E+03</rscale>
<asrwt>0</asrwt>
<pdfrwt beam="1">  1        1 0.16417556E-01 0.12660787E+03</pdfrwt>
<pdfrwt beam="2">  1       -1 0.19595880E-01 0.12660787E+03</pdfrwt>
<totfact> 0.65098941E+03</totfact>
</mgrwt>
</event>
<event>
 8    3  0.1508318E-003  0.1688806E+03  0.7818608E-02  0.1185387E+00
          1   -1    0    0  501    0  0.00000000000E+00  0.00000000000E+00  0.15750766338E+04  0.15750766338E+04  0.50400000000E-02 0. -1.
         -1   -1    0    0    0  501 -0.00000000000E+00 -0.00000000000E+00 -0.15790890070E+02  0.15790890874E+02  0.50400000000E-02 0.  1.
         25    2    1    2    0    0  0.83126977891E+02 -0.77371825773E+02  0.85459765018E+03  0.87112444564E+03  0.12499664887E+03 0.  0.
         23    2    1    2    0    0 -0.83126977891E+02  0.77371825773E+02  0.70468809350E+03  0.71974307899E+03  0.92456999492E+02 0.  0.
        -13    1    4    4    0    0 -0.27161192275E+02  0.85472503822E+02  0.45058400724E+03  0.45942272258E+03  0.10566000000E+00 0. -1.
         13    1    4    4    0    0 -0.55965785616E+02 -0.81006780490E+01  0.25410408626E+03  0.26032035642E+03  0.10566000000E+00 0.  1.
    9000005    1    3    3    0    0  0.95039809217E+02 -0.91125521464E+02  0.53344429325E+03  0.54945449311E+03  0.10000000000E+01 0.  0.
    9000005    1    3    3    0    0 -0.11912831325E+02  0.13753695690E+02  0.32115335693E+03  0.32166995253E+03  0.10000000000E+01 0.  0.
<mgrwt>
<rscale>  0 0.16296714E+03</rscale>
<asrwt>0</asrwt>
<pdfrwt beam="1">  1        1 0.24231944E+00 0.16888060E+03</pdfrwt>
<pdfrwt beam="2">  1       -1 0.24293682E-02 0.16888060E+03</pdfrwt>
<totfact> 0.32710730E+03</totfact>
</mgrwt>
</event>
<event>
 8    3  0.1508318E-003  0.1548104E+03  0.7818608E-02  0.1202880E+00
          1   -1    0    0  501    0  0.00000000000E+00  0.00000000000E+00  0.26075654589E+03  0.26075654594E+03  0.50400000000E-02 0. -1.
         -1   -1    0    0    0  501 -0.00000000000E+00 -0.00000000000E+00 -0.86287306958E+02  0.86287307105E+02  0.50400000000E-02 0.  1.
         25    2    1    2    0    0 -0.55738222869E+02 -0.72341593083E+02  0.14936168860E+03  0.21511662719E+03  0.12500477469E+03 0.  0.
         23    2    1    2    0    0  0.55738222869E+02  0.72341593083E+02  0.25107550336E+02  0.13192722585E+03  0.91838707845E+02 0.  0.
        -13    1    4    4    0    0  0.19399817142E+02  0.85336906006E+02  0.32492066081E+01  0.87574590718E+02  0.10566000000E+00 0. -1.
         13    1    4    4    0    0  0.36338405727E+02 -0.12995312923E+02  0.21858343728E+02  0.44352635134E+02  0.10566000000E+00 0.  1.
    9000005    1    3    3    0    0 -0.51610982588E+02  0.23524362148E+02  0.38845810323E+02  0.68753808024E+02  0.10000000000E+01 0.  0.
    9000005    1    3    3    0    0 -0.41272402812E+01 -0.95865955231E+02  0.11051587827E+03  0.14636281917E+03  0.10000000000E+01 0.  0.
<mgrwt>
<rscale>  0 0.14805767E+03</rscale>
<asrwt>0</asrwt>
<pdfrwt beam="1">  1        1 0.40116392E-01 0.15481037E+03</pdfrwt>
<pdfrwt beam="2">  1       -1 0.13274970E-01 0.15481037E+03</pdfrwt>
<totfact> 0.39625779E+03</totfact>
</mgrwt>
</event>
<event>
 8    3  0.1508318E-003  0.1447647E+03  0.7818608E-02  0.1217335E+00
          1   -1    0    0  501    0  0.00000000000E+00  0.00000000000E+00  0.68976611592E+02  0.68976611776E+02  0.50400000000E-02 0. -1.
         -1   -1    0    0    0  501 -0.00000000000E+00 -0.00000000000E+00 -0.25493922346E+03  0.25493922351E+03  0.50400000000E-02 0.  1.
         25    2    1    2    0    0  0.28546032696E+02  0.67202619481E+02 -0.13106014885E+03  0.19527824801E+03  0.12500305388E+03 0.  0.
         23    2    1    2    0    0 -0.28546032696E+02 -0.67202619481E+02 -0.54902463019E+02  0.12863758728E+03  0.90566441737E+02 0.  0.
        -13    1    4    4    0    0  0.22758177651E+02  0.78166900218E+01 -0.19970602405E+02  0.31270935665E+02  0.10566000000E+00 0.  1.
         13    1    4    4    0    0 -0.51304210347E+02 -0.75019309503E+02 -0.34931860614E+02  0.97366651619E+02  0.10566000000E+00 0. -1.
    9000005    1    3    3    0    0 -0.34858715609E+02  0.68922364256E+02 -0.94533015249E+02  0.12207748900E+03  0.10000000000E+01 0.  0.
    9000005    1    3    3    0    0  0.63404748305E+02 -0.17197447747E+01 -0.36527133605E+02  0.73200759006E+02  0.10000000000E+01 0.  0.
<mgrwt>
<rscale>  0 0.13706380E+03</rscale>
<asrwt>0</asrwt>
<pdfrwt beam="1">  1        1 0.10611787E-01 0.14476475E+03</pdfrwt>
<pdfrwt beam="2">  1       -1 0.39221418E-01 0.14476475E+03</pdfrwt>
<totfact> 0.36495298E+03</totfact>
</mgrwt>
</event>
<event>
 8    3  0.1508318E-003  0.1278662E+03  0.7818608E-02  0.1244897E+00
          1   -1    0    0  501    0  0.00000000000E+00  0.00000000000E+00  0.23914826205E+04  0.23914826205E+04  0.50400000000E-02 0.  1.
         -1   -1    0    0    0  501 -0.00000000000E+00 -0.00000000000E+00 -0.55914454123E+01  0.55914476838E+01  0.50400000000E-02 0. -1.
         25    2    1    2    0    0  0.47108741570E+01  0.26515929933E+02  0.10487546362E+04  0.10565207278E+04  0.12499789799E+03 0.  0.
         23    2    1    2    0    0 -0.47108741570E+01 -0.26515929933E+02  0.13371365389E+04  0.13405533404E+04  0.91781522391E+02 0.  0.
        -13    1    4    4    0    0  0.15311070308E+02 -0.43165274789E+02  0.12052902580E+04  0.12061601416E+04  0.10566000000E+00 0.  1.
         13    1    4    4    0    0 -0.20021944465E+02  0.16649344856E+02  0.13184628086E+03  0.13439319880E+03  0.10566000000E+00 0. -1.
    9000005    1    3    3    0    0  0.35661080954E+02  0.67406843957E+02  0.59061563691E+03  0.59551929093E+03  0.10000000000E+01 0.  0.
    9000005    1    3    3    0    0 -0.30950206797E+02 -0.40890914024E+02  0.45813899928E+03  0.46100143688E+03  0.10000000000E+01 0.  0.
<mgrwt>
<rscale>  0 0.11891572E+03</rscale>
<asrwt>0</asrwt>
<pdfrwt beam="1">  1        1 0.36791884E+00 0.12786619E+03</pdfrwt>
<pdfrwt beam="2">  1       -1 0.86022620E-03 0.12786619E+03</pdfrwt>
<totfact> 0.43462094E+03</totfact>
</mgrwt>
</event>
<event>
 8    3  0.1508318E-003  0.1395791E+03  0.7818608E-02  0.1225655E+00
         -1   -1    0    0    0  501 -0.00000000000E+00  0.00000000000E+00  0.37709848303E+02  0.37709848640E+02  0.50400000000E-02 0.  1.
          1   -1    0    0  501    0  0.00000000000E+00 -0.00000000000E+00 -0.53605631949E+03  0.53605631952E+03  0.50400000000E-02 0. -1.
         25    2    1    2    0    0 -0.61469998619E+02 -0.88992795677E+01 -0.13413048770E+03  0.19358021720E+03  0.12499821940E+03 0.  0.
         23    2    1    2    0    0  0.61469998619E+02  0.88992795677E+01 -0.36421598349E+03  0.38018595095E+03  0.89612034724E+02 0.  0.
        -13    1    4    4    0    0 -0.15178481417E+01 -0.21364002467E+02 -0.21242999115E+02  0.30166216863E+02  0.10566000000E+00 0.  1.
         13    1    4    4    0    0  0.62987846761E+02  0.30263282035E+02 -0.34297298437E+03  0.35001973409E+03  0.10566000000E+00 0. -1.
    9000005    1    3    3    0    0 -0.26384587363E+02  0.26514878287E+02  0.11904974167E+02  0.39267208085E+02  0.10000000000E+01 0.  0.
    9000005    1    3    3    0    0 -0.35085411256E+02 -0.35414157855E+02 -0.14603546187E+03  0.15431300912E+03  0.10000000000E+01 0.  0.
<mgrwt>
<rscale>  0 0.13122124E+03</rscale>
<asrwt>0</asrwt>
<pdfrwt beam="2">  1        1 0.82470198E-01 0.13957906E+03</pdfrwt>
<pdfrwt beam="1">  1       -1 0.58015155E-02 0.13957906E+03</pdfrwt>
<totfact> 0.55747707E+03</totfact>
</mgrwt>
</event>
<event>
 8    3  0.1508318E-003  0.1496451E+03  0.7818608E-02  0.1210199E+00
          1   -1    0    0  501    0  0.00000000000E+00  0.00000000000E+00  0.11829940929E+04  0.11829940929E+04  0.50400000000E-02 0. -1.
         -1   -1    0    0    0  501 -0.00000000000E+00 -0.00000000000E+00 -0.15746906936E+02  0.15746907743E+02  0.50400000000E-02 0.  1.
         25    2    1    2    0    0  0.40512003619E+02  0.71604702928E+02  0.59604796574E+03  0.61454604083E+03  0.12500081168E+03 0.  0.
         23    2    1    2    0    0 -0.40512003619E+02 -0.71604702928E+02  0.57119922018E+03  0.58419495978E+03  0.90811596045E+02 0.  0.
        -13    1    4    4    0    0 -0.24326139942E+02 -0.33951595893E+02  0.50225479127E+03  0.50398845072E+03  0.10566000000E+00 0. -1.
         13    1    4    4    0    0 -0.16185863677E+02 -0.37653107035E+02  0.68944428911E+02  0.80206509051E+02  0.10566000000E+00 0.  1.
    9000005    1    3    3    0    0 -0.25223890670E+02  0.23106456575E+02  0.40497347977E+02  0.53020639275E+02  0.10000000000E+01 0.  0.
    9000005    1    3    3    0    0  0.65735894289E+02  0.48498246353E+02  0.55555061776E+03  0.56152540155E+03  0.10000000000E+01 0.  0.
<mgrwt>
<rscale>  0 0.14235191E+03</rscale>
<asrwt>0</asrwt>
<pdfrwt beam="1">  1        1 0.18199912E+00 0.14964511E+03</pdfrwt>
<pdfrwt beam="2">  1       -1 0.24226008E-02 0.14964511E+03</pdfrwt>
<totfact> 0.59670724E+03</totfact>
</mgrwt>
</event>
<event>
 8    3  0.1508318E-003  0.1301997E+03  0.7818608E-02  0.1241231E+00
          1   -1    0    0  501    0  0.00000000000E+00  0.00000000000E+00  0.11210301582E+03  0.11210301593E+03  0.50400000000E-02 0. -1.
         -1   -1    0    0    0  501 -0.00000000000E+00 -0.00000000000E+00 -0.12769908735E+03  0.12769908745E+03  0.50400000000E-02 0.  1.
         25    2    1    2    0    0  0.32019029403E+02 -0.17412001375E+02 -0.45235474927E+02  0.13783395504E+03  0.12499421960E+03 0.  0.
         23    2    1    2    0    0 -0.32019029403E+02  0.17412001375E+02  0.29639403401E+02  0.10196814834E+03  0.90502005538E+02 0.  0.
        -13    1    4    4    0    0 -0.40125432310E+02 -0.29581276314E+02  0.13948146150E+02  0.51765472774E+02  0.10566000000E+00 0.  1.
         13    1    4    4    0    0  0.81064029067E+01  0.46993277689E+02  0.15691257250E+02  0.50202675568E+02  0.10566000000E+00 0. -1.
    9000005    1    3    3    0    0 -0.63363181818E+01 -0.48837606487E+02 -0.67425078100E+02  0.83500909530E+02  0.10000000000E+01 0.  0.
    9000005    1    3    3    0    0  0.38355347585E+02  0.31425605113E+02  0.22189603173E+02  0.54333045507E+02  0.10000000000E+01 0.  0.
<mgrwt>
<rscale>  0 0.12113827E+03</rscale>
<asrwt>0</asrwt>
<pdfrwt beam="1">  1        1 0.17246618E-01 0.13019966E+03</pdfrwt>
<pdfrwt beam="2">  1       -1 0.19646013E-01 0.13019966E+03</pdfrwt>
<totfact> 0.60984905E+03</totfact>
</mgrwt>
</event>
<event>
 8    3  0.1508318E-003  0.1391962E+03  0.7818608E-02  0.1227109E+00
          1   -1    0    0  501    0  0.00000000000E+00  0.00000000000E+00  0.78305257890E+03  0.78305257891E+03  0.50400000000E-02 0. -1.
         -1   -1    0    0    0  501 -0.00000000000E+00 -0.00000000000E+00 -0.20059389131E+02  0.20059389764E+02  0.50400000000E-02 0.  1.
         25    2    1    2    0    0  0.45975694229E+02 -0.40456082844E+02  0.35251728207E+03  0.37900398883E+03  0.12500052118E+03 0.  0.
         23    2    1    2    0    0 -0.45975694229E+02  0.40456082844E+02  0.41047590770E+03  0.42410797985E+03  0.87330685719E+02 0.  0.
        -13    1    4    4    0    0 -0.57710661110E+02  0.43669061577E+02  0.19030857638E+03  0.20360469728E+03  0.10566000000E+00 0.  1.
         13    1    4    4    0    0  0.11734966881E+02 -0.32129787330E+01  0.22016733132E+03  0.22050328257E+03  0.10566000000E+00 0. -1.
    9000005    1    3    3    0    0  0.18516914633E+01 -0.47149921423E+02  0.36013419206E+02  0.59367585553E+02  0.10000000000E+01 0.  0.
    9000005    1    3    3    0    0  0.44124002766E+02  0.66938385793E+01  0.31650386286E+03  0.31963640328E+03  0.10000000000E+01 0.  0.
<mgrwt>
<rscale>  0 0.13023406E+03</rscale>
<asrwt>0</asrwt>
<pdfrwt beam="1">  1        1 0.12046961E+00 0.13919623E+03</pdfrwt>
<pdfrwt beam="2">  1       -1 0.30860603E-02 0.13919623E+03</pdfrwt>
<totfact> 0.83089183E+03</totfact>
</mgrwt>
</event>
<event>
 8    3  0.1508318E-003  0.1252537E+03  0.7818608E-02  0.1252729E+00
          1   -1    0    0  501    0  0.00000000000E+00  0.00000000000E+00  0.15868236826E+03  0.15868236834E+03  0.50400000000E-02 0. -1.
         -1   -1    0    0    0  501 -0.00000000000E+00 -0.00000000000E+00 -0.71431312476E+02  0.71431312654E+02  0.50400000000E-02 0.  1.
         25    2    1    2    0    0 -0.44094697972E+01  0.64824018752E+01  0.60491550960E+02  0.13909609319E+03  0.12500812152E+03 0.  0.
         23    2    1    2    0    0  0.44094697972E+01 -0.64824018752E+01  0.26759504827E+02  0.91017587806E+02  0.86641013576E+02 0.  0.
        -13    1    4    4    0    0 -0.57838536493E+01 -0.23569357007E+01 -0.31304362567E+02  0.31921503547E+02  0.10566000000E+00 0.  1.
         13    1    4    4    0    0  0.10193323446E+02 -0.41254661745E+01  0.58063867393E+02  0.59096084259E+02  0.10566000000E+00 0. -1.
    9000005    1    3    3    0    0 -0.53495313508E+02 -0.11060142401E+02 -0.55933690746E+01  0.54921408348E+02  0.10000000000E+01 0.  0.
    9000005    1    3    3    0    0  0.49085843711E+02  0.17542544276E+02  0.66084920034E+02  0.84174684843E+02  0.10000000000E+01 0.  0.
<mgrwt>
<rscale>  0 0.11434484E+03</rscale>
<asrwt>0</asrwt>
<pdfrwt beam="1">  1        1 0.24412672E-01 0.12525372E+03</pdfrwt>
<pdfrwt beam="2">  1       -1 0.10989433E-01 0.12525372E+03</pdfrwt>
<totfact> 0.97090705E+03</totfact>
</mgrwt>
</event>
<event>
 8    3  0.1508318E-003  0.1336119E+03  0.7818608E-02  0.1234618E+00
          1   -1    0    0  501    0  0.00000000000E+00  0.00000000000E+00  0.50065916744E+03  0.50065916747E+03  0.50400000000E-02 0. -1.
         -1   -1    0    0    0  501 -0.00000000000E+00 -0.00000000000E+00 -0.28158625147E+02  0.28158625598E+02  0.50400000000E-02 0.  1.
         25    2    1    2    0    0 -0.45585328687E+02  0.12134576480E+02  0.28420720889E+03  0.31404757678E+03  0.12500749080E+03 0.  0.
         23    2    1    2    0    0  0.45585328687E+02 -0.12134576480E+02  0.18829333341E+03  0.21477021629E+03  0.91905365800E+02 0.  0.
        -13    1    4    4    0    0  0.14518177291E+02  0.54238448307E+01  0.17651027454E+03  0.17718940077E+03  0.10566000000E+00 0. -1.
         13    1    4    4    0    0  0.31067151396E+02 -0.17558421311E+02  0.11783058869E+02  0.37580815520E+02  0.10566000000E+00 0.  1.
    9000005    1    3    3    0    0  0.44298507834E-01  0.50034041206E+02  0.44043209392E+02  0.66664919825E+02  0.10000000000E+01 0.  0.
    9000005    1    3    3    0    0 -0.45629627195E+02 -0.37899464725E+02  0.24016399950E+03  0.24738265695E+03  0.10000000000E+01 0.  0.
<mgrwt>
<rscale>  0 0.12528928E+03</rscale>
<asrwt>0</asrwt>
<pdfrwt beam="1">  1        1 0.77024479E-01 0.13361191E+03</pdfrwt>
<pdfrwt beam="2">  1       -1 0.43320967E-02 0.13361191E+03</pdfrwt>
<totfact> 0.93707034E+03</totfact>
</mgrwt>
</event>
<event>
 8    3  0.1508318E-003  0.1252566E+03  0.7818608E-02  0.1251434E+00
         -1   -1    0    0    0  501 -0.00000000000E+00  0.00000000000E+00  0.80628527989E+02  0.80628528147E+02  0.50400000000E-02 0.  1.
          1   -1    0    0  501    0  0.00000000000E+00 -0.00000000000E+00 -0.14927156756E+03  0.14927156765E+03  0.50400000000E-02 0. -1.
         25    2    1    2    0    0 -0.76139568758E+01  0.24224067936E+01 -0.63643681735E+02  0.14049817758E+03  0.12500151713E+03 0.  0.
         23    2    1    2    0    0  0.76139568758E+01 -0.24224067936E+01 -0.49993578361E+01  0.89401918215E+02  0.88903706378E+02 0.  0.
        -13    1    4    4    0    0  0.26664740327E+02 -0.36220696698E+02 -0.18055734701E+02  0.48466152783E+02  0.10566000000E+00 0.  1.
         13    1    4    4    0    0 -0.19050783451E+02  0.33798289905E+02  0.13056376864E+02  0.40935765431E+02  0.10566000000E+00 0. -1.
    9000005    1    3    3    0    0 -0.36657707947E+02  0.23111025916E+02 -0.87455373757E+02  0.97608142436E+02  0.10000000000E+01 0.  0.
    9000005    1    3    3    0    0  0.29043751071E+02 -0.20688619123E+02  0.23811692022E+02  0.42890035141E+02  0.10000000000E+01 0.  0.
<mgrwt>
<rscale>  0 0.11508459E+03</rscale>
<asrwt>0</asrwt>
<pdfrwt beam="2">  1        1 0.22964857E-01 0.12525662E+03</pdfrwt>
<pdfrwt beam="1">  1       -1 0.12404389E-01 0.12525662E+03</pdfrwt>
<totfact> 0.87030898E+03</totfact>
</mgrwt>
</event>
<event>
 8    3  0.1508318E-003  0.1890812E+03  0.7818608E-02  0.1164147E+00
          1   -1    0    0  501    0  0.00000000000E+00  0.00000000000E+00  0.72772939912E+03  0.72772939914E+03  0.50400000000E-02 0. -1.
         -1   -1    0    0    0  501 -0.00000000000E+00 -0.00000000000E+00 -0.44685780942E+02  0.44685781226E+02  0.50400000000E-02 0.  1.
         25    2    1    2    0    0  0.11819172207E+03 -0.78463228462E+02  0.31383453996E+03  0.36639296691E+03  0.12500370530E+03 0.  0.
         23    2    1    2    0    0 -0.11819172207E+03  0.78463228462E+02  0.36920907822E+03  0.40602221346E+03  0.91722042035E+02 0.  0.
        -13    1    4    4    0    0 -0.85454308330E+02  0.41483516272E+02  0.12570384798E+03  0.15755884455E+03  0.10566000000E+00 0.  1.
         13    1    4    4    0    0 -0.32737413743E+02  0.36979712190E+02  0.24350523024E+03  0.24846336891E+03  0.10566000000E+00 0. -1.
    9000005    1    3    3    0    0  0.61788603841E+02  0.26500153270E+02  0.14399033383E+03  0.15891603420E+03  0.10000000000E+01 0.  0.
    9000005    1    3    3    0    0  0.56403118232E+02 -0.10496338173E+03  0.16984420612E+03  0.20747693271E+03  0.10000000000E+01 0.  0.
<mgrwt>
<rscale>  0 0.18382961E+03</rscale>
<asrwt>0</asrwt>
<pdfrwt beam="1">  1        1 0.11195837E+00 0.18908117E+03</pdfrwt>
<pdfrwt beam="2">  1       -1 0.68747355E-02 0.18908117E+03</pdfrwt>
<totfact> 0.28604059E+03</totfact>
</mgrwt>
</event>
<event>
 8    3  0.1508318E-003  0.1288990E+03  0.7818608E-02  0.1243739E+00
         -1   -1    0    0    0  501 -0.00000000000E+00  0.00000000000E+00  0.84889740818E+03  0.84889740819E+03  0.50400000000E-02 0.  1.
          1   -1    0    0  501    0  0.00000000000E+00 -0.00000000000E+00 -0.15046318737E+02  0.15046319581E+02  0.50400000000E-02 0. -1.
         25    2    1    2    0    0  0.30921221504E+02  0.58442740819E+01  0.52807025502E+03  0.54357441864E+03  0.12499870753E+03 0.  0.
         23    2    1    2    0    0 -0.30921221504E+02 -0.58442740819E+01  0.30578083442E+03  0.32036930913E+03  0.90245764757E+02 0.  0.
        -13    1    4    4    0    0 -0.43084261097E+02  0.13420167336E+02  0.28787906936E+03  0.29139444776E+03  0.10566000000E+00 0.  1.
         13    1    4    4    0    0  0.12163039593E+02 -0.19264441418E+02  0.17901765061E+02  0.28974861373E+02  0.10566000000E+00 0. -1.
    9000005    1    3    3    0    0  0.79684992466E+02  0.15896477118E+01  0.34275582271E+03  0.35190166099E+03  0.10000000000E+01 0.  0.
    9000005    1    3    3    0    0 -0.48763770961E+02  0.42546263701E+01  0.18531443231E+03  0.19167275765E+03  0.10000000000E+01 0.  0.
<mgrwt>
<rscale>  0 0.11961158E+03</rscale>
<asrwt>0</asrwt>
<pdfrwt beam="2">  1        1 0.23148180E-02 0.12889901E+03</pdfrwt>
<pdfrwt beam="1">  1       -1 0.13059962E+00 0.12889901E+03</pdfrwt>
<totfact> 0.25484315E+03</totfact>
</mgrwt>
</event>
<event>
 8    3  0.1508318E-003  0.1417207E+03  0.7818608E-02  0.1221502E+00
         -1   -1    0    0    0  501 -0.00000000000E+00  0.00000000000E+00  0.20386829195E+02  0.20386829818E+02  0.50400000000E-02 0.  1.
          1   -1    0    0  501    0  0.00000000000E+00 -0.00000000000E+00 -0.79947533474E+03  0.79947533476E+03  0.50400000000E-02 0. -1.
         25    2    1    2    0    0 -0.49835270536E+02  0.44455944202E+02 -0.43736622888E+03  0.45975426094E+03  0.12499950851E+03 0.  0.
         23    2    1    2    0    0  0.49835270536E+02 -0.44455944202E+02 -0.34172227667E+03  0.36010790363E+03  0.91889622504E+02 0.  0.
        -13    1    4    4    0    0 -0.12443714717E+02  0.16472787452E+02 -0.12213284691E+03  0.12386541979E+03  0.10566000000E+00 0. -1.
         13    1    4    4    0    0  0.62278985253E+02 -0.60928731654E+02 -0.21958942976E+03  0.23624248384E+03  0.10566000000E+00 0.  1.
    9000005    1    3    3    0    0 -0.35174026255E+02  0.18119936556E+02 -0.26159924856E+02  0.47443502108E+02  0.10000000000E+01 0.  0.
    9000005    1    3    3    0    0 -0.14661244281E+02  0.26336007647E+02 -0.41120630402E+03  0.41231075883E+03  0.10000000000E+01 0.  0.
<mgrwt>
<rscale>  0 0.13409538E+03</rscale>
<asrwt>0</asrwt>
<pdfrwt beam="2">  1        1 0.12299618E+00 0.14172072E+03</pdfrwt>
<pdfrwt beam="1">  1       -1 0.31364359E-02 0.14172072E+03</pdfrwt>
<totfact> 0.78737925E+03</totfact>
</mgrwt>
</event>
<event>
 8    3  0.1508318E-003  0.1761455E+03  0.7818608E-02  0.1177376E+00
         -1   -1    0    0    0  501 -0.00000000000E+00  0.00000000000E+00  0.52161450915E+02  0.52161451159E+02  0.50400000000E-02 0.  1.
          1   -1    0    0  501    0  0.00000000000E+00 -0.00000000000E+00 -0.54462031982E+03  0.54462031985E+03  0.50400000000E-02 0. -1.
         25    2    1    2    0    0  0.11779706454E+03 -0.39062710799E+02 -0.20361197221E+03  0.26923051319E+03  0.12500076088E+03 0.  0.
         23    2    1    2    0    0 -0.11779706454E+03  0.39062710799E+02 -0.28884689670E+03  0.32755125781E+03  0.91952449512E+02 0.  0.
        -13    1    4    4    0    0 -0.64071533577E+02 -0.85546439650E+01 -0.61816558192E+02  0.89440714325E+02  0.10566000000E+00 0.  1.
         13    1    4    4    0    0 -0.53725530961E+02  0.47617354764E+02 -0.22703033851E+03  0.23811054348E+03  0.10566000000E+00 0. -1.
    9000005    1    3    3    0    0  0.12335213040E+03 -0.34392851559E+02 -0.92735434382E+02  0.15811222945E+03  0.10000000000E+01 0.  0.
    9000005    1    3    3    0    0 -0.55550658573E+01 -0.46698592408E+01 -0.11087653783E+03  0.11111828375E+03  0.10000000000E+01 0.  0.
<mgrwt>
<rscale>  0 0.17045365E+03</rscale>
<asrwt>0</asrwt>
<pdfrwt beam="2">  1        1 0.83787737E-01 0.17614549E+03</pdfrwt>
<pdfrwt beam="1">  1       -1 0.80248390E-02 0.17614549E+03</pdfrwt>
<totfact> 0.33863579E+03</totfact>
</mgrwt>
</event>
<event>
 8    3  0.1508318E-003  0.1443574E+03  0.7818608E-02  0.1222345E+00
          1   -1    0    0  501    0  0.00000000000E+00  0.00000000000E+00  0.12767458107E+03  0.12767458117E+03  0.50400000000E-02 0. -1.
         -1   -1    0    0    0  501 -0.00000000000E+00 -0.00000000000E+00 -0.12308717766E+03  0.12308717776E+03  0.50400000000E-02 0.  1.
         25    2    1    2    0    0  0.28142657114E+02  0.66486857137E+02  0.12277451829E+02  0.14487855280E+03  0.12500619151E+03 0.  0.
         23    2    1    2    0    0 -0.28142657114E+02 -0.66486857137E+02 -0.76900484187E+01  0.10588320613E+03  0.77068834004E+02 0.  0.
        -13    1    4    4    0    0  0.58016605598E+00 -0.39314965275E+02 -0.39051372746E+02  0.55416820232E+02  0.10566000000E+00 0.  1.
         13    1    4    4    0    0 -0.28722823170E+02 -0.27171891862E+02  0.31361324328E+02  0.50466385901E+02  0.10566000000E+00 0. -1.
    9000005    1    3    3    0    0  0.38935971276E+02 -0.12214350273E+02 -0.33837174727E+02  0.53020322569E+02  0.10000000000E+01 0.  0.
    9000005    1    3    3    0    0 -0.10793314162E+02  0.78701207410E+02  0.46114626556E+02  0.91858230229E+02  0.10000000000E+01 0.  0.
<mgrwt>
<rscale>  0 0.13350544E+03</rscale>
<asrwt>0</asrwt>
<pdfrwt beam="1">  1        1 0.19642243E-01 0.14435740E+03</pdfrwt>
<pdfrwt beam="2">  1       -1 0.18936489E-01 0.14435740E+03</pdfrwt>
<totfact> 0.55149962E+03</totfact>
</mgrwt>
</event>
<event>
 8    3  0.1508318E-003  0.1359658E+03  0.7818608E-02  0.1229514E+00
         -1   -1    0    0    0  501 -0.00000000000E+00  0.00000000000E+00  0.12227880723E+02  0.12227881761E+02  0.50400000000E-02 0.  1.
          1   -1    0    0  501    0  0.00000000000E+00 -0.00000000000E+00 -0.12719005614E+04  0.12719005614E+04  0.50400000000E-02 0. -1.
         25    2    1    2    0    0  0.44718270131E+02  0.29409781849E+02 -0.81855334361E+03  0.82976880104E+03  0.12498811105E+03 0.  0.
         23    2    1    2    0    0 -0.44718270131E+02 -0.29409781849E+02 -0.44111933709E+03  0.45435964215E+03  0.94824869658E+02 0.  0.
        -13    1    4    4    0    0 -0.47942526711E+01 -0.12335072797E+02 -0.37514284250E+03  0.37537621438E+03  0.10566000000E+00 0. -1.
         13    1    4    4    0    0 -0.39924017460E+02 -0.17074709052E+02 -0.65976494590E+02  0.78983427767E+02  0.10566000000E+00 0.  1.
    9000005    1    3    3    0    0 -0.13758865578E+01  0.90629796540E+01  0.43497336053E+00  0.92314606565E+01  0.10000000000E+01 0.  0.
    9000005    1    3    3    0    0  0.46094156689E+02  0.20346802195E+02 -0.81898831697E+03  0.82053734039E+03  0.10000000000E+01 0.  0.
<mgrwt>
<rscale>  0 0.12862232E+03</rscale>
<asrwt>0</asrwt>
<pdfrwt beam="2">  1        1 0.19567691E+00 0.13596576E+03</pdfrwt>
<pdfrwt beam="1">  1       -1 0.18812135E-02 0.13596576E+03</pdfrwt>
<totfact> 0.74541675E+03</totfact>
</mgrwt>
</event>
<event>
 8    3  0.1508318E-003  0.1627901E+03  0.7818608E-02  0.1192648E+00
          1   -1    0    0  501    0  0.00000000000E+00  0.00000000000E+00  0.23017857143E+03  0.23017857148E+03  0.50400000000E-02 0. -1.
         -1   -1    0    0    0  501 -0.00000000000E+00 -0.00000000000E+00 -0.10984647430E+03  0.10984647441E+03  0.50400000000E-02 0.  1.
         25    2    1    2    0    0  0.36087055712E+02  0.97844456352E+02  0.11750642800E+03  0.20076946735E+03  0.12499922067E+03 0.  0.
         23    2    1    2    0    0 -0.36087055712E+02 -0.97844456352E+02  0.28256691275E+01  0.13925557855E+03  0.92240547065E+02 0.  0.
        -13    1    4    4    0    0 -0.69390238859E+00 -0.60397589465E+02 -0.39840367612E+02  0.72357559171E+02  0.10566000000E+00 0.  1.
         13    1    4    4    0    0 -0.35393153323E+02 -0.37446866888E+02  0.42666036740E+02  0.66898019380E+02  0.10566000000E+00 0. -1.
    9000005    1    3    3    0    0  0.47291116055E+02 -0.65334786546E+01  0.68543112689E+01  0.48240207131E+02  0.10000000000E+01 0.  0.
    9000005    1    3    3    0    0 -0.11204060343E+02  0.10437793501E+03  0.11065211673E+03  0.15252926021E+03  0.10000000000E+01 0.  0.
<mgrwt>
<rscale>  0 0.15654954E+03</rscale>
<asrwt>0</asrwt>
<pdfrwt beam="1">  1        1 0.35412088E-01 0.16279011E+03</pdfrwt>
<pdfrwt beam="2">  1       -1 0.16899458E-01 0.16279011E+03</pdfrwt>
<totfact> 0.31724467E+03</totfact>
</mgrwt>
</event>
<event>
 8    3  0.1508318E-003  0.1334193E+03  0.7818608E-02  0.1232192E+00
          1   -1    0    0  501    0  0.00000000000E+00  0.00000000000E+00  0.56984034989E+02  0.56984035212E+02  0.50400000000E-02 0. -1.
         -1   -1    0    0    0  501 -0.00000000000E+00 -0.00000000000E+00 -0.25839936027E+03  0.25839936032E+03  0.50400000000E-02 0.  1.
         25    2    1    2    0    0  0.44378585606E+01 -0.46425910182E+02 -0.10412327931E+03  0.16924055871E+03  0.12500259875E+03 0.  0.
         23    2    1    2    0    0 -0.44378585606E+01  0.46425910182E+02 -0.97292045979E+02  0.14614283682E+03  0.98574473467E+02 0.  0.
        -13    1    4    4    0    0  0.20472699741E+02 -0.17167123224E+02 -0.65635106324E+02  0.70864800152E+02  0.10566000000E+00 0.  1.
         13    1    4    4    0    0 -0.24910558302E+02  0.63593033407E+02 -0.31656939655E+02  0.75278036672E+02  0.10566000000E+00 0. -1.
    9000005    1    3    3    0    0  0.27966047717E+02 -0.54765263904E+02 -0.12327323400E+03  0.13776292744E+03  0.10000000000E+01 0.  0.
    9000005    1    3    3    0    0 -0.23528189157E+02  0.83393537213E+01  0.19149954698E+02  0.31477631270E+02  0.10000000000E+01 0.  0.
<mgrwt>
<rscale>  0 0.12685886E+03</rscale>
<asrwt>0</asrwt>
<pdfrwt beam="1">  1        1 0.87667748E-02 0.13341930E+03</pdfrwt>
<pdfrwt beam="2">  1       -1 0.39753747E-01 0.13341930E+03</pdfrwt>
<totfact> 0.45723803E+03</totfact>
</mgrwt>
</event>
<event>
 8    3  0.1508318E-003  0.1268359E+03  0.7818608E-02  0.1247999E+00
          1   -1    0    0  501    0  0.00000000000E+00  0.00000000000E+00  0.17428131290E+04  0.17428131290E+04  0.50400000000E-02 0. -1.
         -1   -1    0    0    0  501 -0.00000000000E+00 -0.00000000000E+00 -0.70764339264E+01  0.70764357212E+01  0.50400000000E-02 0.  1.
         25    2    1    2    0    0 -0.66183479062E+01  0.20463071584E+02  0.85569929836E+03  0.86504833737E+03  0.12499918780E+03 0.  0.
         23    2    1    2    0    0  0.66183479062E+01 -0.20463071584E+02  0.88003739675E+03  0.88484122740E+03  0.89530096540E+02 0.  0.
        -13    1    4    4    0    0  0.24052022228E+02 -0.25787373067E+02  0.84119785374E+03  0.84193665360E+03  0.10566000000E+00 0. -1.
         13    1    4    4    0    0 -0.17433674322E+02  0.53243014826E+01  0.38839543019E+02  0.42904573796E+02  0.10566000000E+00 0.  1.
    9000005    1    3    3    0    0 -0.38963936882E+02  0.68572785027E+01  0.87344151700E+02  0.95891665342E+02  0.10000000000E+01 0.  0.
    9000005    1    3    3    0    0  0.32345588975E+02  0.13605793082E+02  0.76835514666E+03  0.76915667203E+03  0.10000000000E+01 0.  0.
<mgrwt>
<rscale>  0 0.11707640E+03</rscale>
<asrwt>0</asrwt>
<pdfrwt beam="1">  1        1 0.26812473E+00 0.12683587E+03</pdfrwt>
<pdfrwt beam="2">  1       -1 0.10886838E-02 0.12683587E+03</pdfrwt>
<totfact> 0.80479926E+03</totfact>
</mgrwt>
</event>
<event>
 8    3  0.1508318E-003  0.1353760E+03  0.7818608E-02  0.1232284E+00
          1   -1    0    0  501    0  0.00000000000E+00  0.00000000000E+00  0.58357528585E+02  0.58357528803E+02  0.50400000000E-02 0. -1.
         -1   -1    0    0    0  501 -0.00000000000E+00 -0.00000000000E+00 -0.26969633093E+03  0.26969633098E+03  0.50400000000E-02 0.  1.
         25    2    1    2    0    0 -0.41177700382E+02 -0.31718199943E+02 -0.69833933369E+02  0.15232671225E+03  0.12500000719E+03 0.  0.
         23    2    1    2    0    0  0.41177700382E+02  0.31718199943E+02 -0.14150486898E+03  0.17572714753E+03  0.90303683312E+02 0.  0.
        -13    1    4    4    0    0  0.47511663584E+02  0.39428171477E+02 -0.15026131143E+03  0.16245125964E+03  0.10566000000E+00 0.  1.
         13    1    4    4    0    0 -0.63339632018E+01 -0.77099715344E+01  0.87564424514E+01  0.13275887893E+02  0.10566000000E+00 0. -1.
    9000005    1    3    3    0    0  0.40568032688E+01 -0.40208319981E+02  0.24563347833E+02  0.47302480963E+02  0.10000000000E+01 0.  0.
    9000005    1    3    3    0    0 -0.45234503651E+02  0.84901200387E+01 -0.94397281202E+02  0.10502423129E+03  0.10000000000E+01 0.  0.
<mgrwt>
<rscale>  0 0.12679931E+03</rscale>
<asrwt>0</asrwt>
<pdfrwt beam="1">  1        1 0.89780815E-02 0.13537595E+03</pdfrwt>
<pdfrwt beam="2">  1       -1 0.41491742E-01 0.13537595E+03</pdfrwt>
<totfact> 0.41122486E+03</totfact>
</mgrwt>
</event>
<event>
 8    3  0.1508318E-003  0.1588268E+03  0.7818608E-02  0.1197618E+00
          1   -1    0    0  501    0  0.00000000000E+00  0.00000000000E+00  0.19804056349E+04  0.19804056349E+04  0.50400000000E-02 0. -1.
         -1   -1    0    0    0  501 -0.00000000000E+00 -0.00000000000E+00 -0.18688890540E+02  0.18688891220E+02  0.50400000000E-02 0.  1.
         25    2    1    2    0    0 -0.78320052643E+02  0.58881055158E+02  0.38249796244E+03  0.41416259084E+03  0.12499980430E+03 0.  0.
         23    2    1    2    0    0  0.78320052643E+02 -0.58881055158E+02  0.15792187819E+04  0.15849319352E+04  0.92066655377E+02 0.  0.
        -13    1    4    4    0    0  0.43233379396E+02 -0.42161894137E+02  0.35524308564E+03  0.36033930048E+03  0.10566000000E+00 0.  1.
         13    1    4    4    0    0  0.35086673248E+02 -0.16719161022E+02  0.12239756962E+04  0.12245926348E+04  0.10566000000E+00 0. -1.
    9000005    1    3    3    0    0 -0.79298929750E+01  0.61346062113E+02  0.68245854755E+02  0.92112535686E+02  0.10000000000E+01 0.  0.
    9000005    1    3    3    0    0 -0.70390159668E+02 -0.24650069545E+01  0.31425210769E+03  0.32205005515E+03  0.10000000000E+01 0.  0.
<mgrwt>
<rscale>  0 0.15234722E+03</rscale>
<asrwt>0</asrwt>
<pdfrwt beam="1">  1        1 0.30467765E+00 0.15882683E+03</pdfrwt>
<pdfrwt beam="2">  1       -1 0.28752153E-02 0.15882683E+03</pdfrwt>
<totfact> 0.14055923E+03</totfact>
</mgrwt>
</event>
<event>
 8    3  0.1508318E-003  0.1430110E+03  0.7818608E-02  0.1219959E+00
          1   -1    0    0  501    0  0.00000000000E+00  0.00000000000E+00  0.20444334146E+04  0.20444334146E+04  0.50400000000E-02 0. -1.
         -1   -1    0    0    0  501 -0.00000000000E+00 -0.00000000000E+00 -0.21351147645E+02  0.21351148239E+02  0.50400000000E-02 0.  1.
         25    2    1    2    0    0  0.55134931613E+01  0.69254821679E+02  0.18666061703E+04  0.18720765822E+04  0.12500202257E+03 0.  0.
         23    2    1    2    0    0 -0.55134931613E+01 -0.69254821679E+02  0.15647609665E+03  0.19370798065E+03  0.90616687273E+02 0.  0.
        -13    1    4    4    0    0 -0.13920553282E+02  0.16459600257E+02  0.63084565774E+02  0.66666137185E+02  0.10566000000E+00 0.  1.
         13    1    4    4    0    0  0.84070601204E+01 -0.85714421936E+02  0.93391530875E+02  0.12704184347E+03  0.10566000000E+00 0. -1.
    9000005    1    3    3    0    0  0.47214455672E+02 -0.89930023184E+01  0.41721164631E+03  0.41997218567E+03  0.10000000000E+01 0.  0.
    9000005    1    3    3    0    0 -0.41700962510E+02  0.78247823997E+02  0.14493945240E+04  0.14521043965E+04  0.10000000000E+01 0.  0.
<mgrwt>
<rscale>  0 0.13518497E+03</rscale>
<asrwt>0</asrwt>
<pdfrwt beam="1">  1        1 0.31452816E+00 0.14301096E+03</pdfrwt>
<pdfrwt beam="2">  1       -1 0.32847926E-02 0.14301096E+03</pdfrwt>
<totfact> 0.10548855E+03</totfact>
</mgrwt>
</event>
<event>
 8    3  0.1508318E-003  0.1327542E+03  0.7818608E-02  0.1238388E+00
          1   -1    0    0  501    0  0.00000000000E+00  0.00000000000E+00  0.78939261360E+03  0.78939261362E+03  0.50400000000E-02 0. -1.
         -1   -1    0    0    0  501 -0.00000000000E+00 -0.00000000000E+00 -0.19462255037E+02  0.19462255689E+02  0.50400000000E-02 0.  1.
         25    2    1    2    0    0 -0.12870225393E+02 -0.42817374348E+02  0.58407345065E+03  0.59897035286E+03  0.12499887042E+03 0.  0.
         23    2    1    2    0    0  0.12870225393E+02  0.42817374348E+02  0.18585690792E+03  0.20988451645E+03  0.86658812453E+02 0.  0.
        -13    1    4    4    0    0 -0.14719215518E+02 -0.19468578699E+02  0.23793364883E+02  0.34085425603E+02  0.10566000000E+00 0. -1.
         13    1    4    4    0    0  0.27589440911E+02  0.62285953047E+02  0.16206354304E+03  0.17579909085E+03  0.10566000000E+00 0.  1.
    9000005    1    3    3    0    0  0.52660645564E+02  0.88953324096E+00  0.19417892745E+03  0.20119739244E+03  0.10000000000E+01 0.  0.
    9000005    1    3    3    0    0 -0.65530870957E+02 -0.43706907589E+02  0.38989452320E+03  0.39777296042E+03  0.10000000000E+01 0.  0.
<mgrwt>
<rscale>  0 0.12289991E+03</rscale>
<asrwt>0</asrwt>
<pdfrwt beam="1">  1        1 0.12144501E+00 0.13275424E+03</pdfrwt>
<pdfrwt beam="2">  1       -1 0.29941934E-02 0.13275424E+03</pdfrwt>
<totfact> 0.85554127E+03</totfact>
</mgrwt>
</event>
<event>
 8    3  0.1508318E-003  0.2190326E+03  0.7818608E-02  0.1138076E+00
          1   -1    0    0  501    0  0.00000000000E+00  0.00000000000E+00  0.10908124877E+04  0.10908124878E+04  0.50400000000E-02 0. -1.
         -1   -1    0    0    0  501 -0.00000000000E+00 -0.00000000000E+00 -0.40883982638E+02  0.40883982949E+02  0.50400000000E-02 0.  1.
         25    2    1    2    0    0  0.95441729515E+02  0.15245091694E+03  0.60167851008E+03  0.64030641267E+03  0.12499946722E+03 0.  0.
         23    2    1    2    0    0 -0.95441729515E+02 -0.15245091694E+03  0.44824999502E+03  0.49139005803E+03  0.90474998118E+02 0.  0.
        -13    1    4    4    0    0 -0.39599709793E+02 -0.12885126396E+01  0.10392696409E+03  0.11122329931E+03  0.10566000000E+00 0.  1.
         13    1    4    4    0    0 -0.55842019722E+02 -0.15116240430E+03  0.34432303093E+03  0.38016675872E+03  0.10566000000E+00 0. -1.
    9000005    1    3    3    0    0  0.29259904068E+02  0.75027080823E+02  0.10003506589E+03  0.12842592904E+03  0.10000000000E+01 0.  0.
    9000005    1    3    3    0    0  0.66181825446E+02  0.77423836120E+02  0.50164344419E+03  0.51188048363E+03  0.10000000000E+01 0.  0.
<mgrwt>
<rscale>  0 0.21446767E+03</rscale>
<asrwt>0</asrwt>
<pdfrwt beam="1">  1        1 0.16781730E+00 0.21903258E+03</pdfrwt>
<pdfrwt beam="2">  1       -1 0.62898435E-02 0.21903258E+03</pdfrwt>
<totfact> 0.17032020E+03</totfact>
</mgrwt>
</event>
<event>
 8    3  0.1508318E-003  0.1685132E+03  0.7818608E-02  0.1186213E+00
          1   -1    0    0  501    0  0.00000000000E+00  0.00000000000E+00  0.14595334097E+03  0.14595334106E+03  0.50400000000E-02 0. -1.
         -1   -1    0    0    0  501 -0.00000000000E+00 -0.00000000000E+00 -0.32275590845E+03  0.32275590849E+03  0.50400000000E-02 0.  1.
         25    2    1    2    0    0 -0.50172375103E+02 -0.10126617461E+03  0.70107403761E+02  0.18251509467E+03  0.12499842550E+03 0.  0.
         23    2    1    2    0    0  0.50172375103E+02  0.10126617461E+03 -0.24690997124E+03  0.28619415487E+03  0.90390569416E+02 0.  0.
        -13    1    4    4    0    0  0.89345788503E+01  0.21686698501E+02  0.68160657711E-01  0.23455391726E+02  0.10566000000E+00 0. -1.
         13    1    4    4    0    0  0.41237796253E+02  0.79579476108E+02 -0.24697813190E+03  0.26273876314E+03  0.10566000000E+00 0.  1.
    9000005    1    3    3    0    0 -0.35107848183E+02 -0.57336776964E+02 -0.28873703845E+02  0.73176210413E+02  0.10000000000E+01 0.  0.
    9000005    1    3    3    0    0 -0.15064526920E+02 -0.43929397645E+02  0.98981107605E+02  0.10933888426E+03  0.10000000000E+01 0.  0.
<mgrwt>
<rscale>  0 0.16221994E+03</rscale>
<asrwt>0</asrwt>
<pdfrwt beam="1">  1        1 0.22454360E-01 0.16851324E+03</pdfrwt>
<pdfrwt beam="2">  1       -1 0.49654755E-01 0.16851324E+03</pdfrwt>
<totfact> 0.90987889E+02</totfact>
</mgrwt>
</event>
<event>
 8    3  0.1508318E-003  0.2153962E+03  0.7818608E-02  0.1140898E+00
          1   -1    0    0  501    0  0.00000000000E+00  0.00000000000E+00  0.15660277536E+04  0.15660277536E+04  0.50400000000E-02 0. -1.
         -1   -1    0    0    0  501 -0.00000000000E+00 -0.00000000000E+00 -0.29393884444E+02  0.29393884876E+02  0.50400000000E-02 0.  1.
         25    2    1    2    0    0  0.10343673634E+03 -0.14166421909E+03  0.10139285438E+04  0.10365551755E+04  0.12501052095E+03 0.  0.
         23    2    1    2    0    0 -0.10343673634E+03  0.14166421909E+03  0.52270532533E+03  0.55886646305E+03  0.91339788677E+02 0.  0.
        -13    1    4    4    0    0 -0.43103128539E+02  0.11947166331E+03  0.40876062942E+03  0.42803810736E+03  0.10566000000E+00 0. -1.
         13    1    4    4    0    0 -0.60333607796E+02  0.22192555779E+02  0.11394469591E+03  0.13082835569E+03  0.10566000000E+00 0.  1.
    9000005    1    3    3    0    0  0.10056929550E+03 -0.16382658869E+03  0.93259422307E+03  0.95220077676E+03  0.10000000000E+01 0.  0.
    9000005    1    3    3    0    0  0.28674408338E+01  0.22162369602E+02  0.81334320777E+02  0.84354398697E+02  0.10000000000E+01 0.  0.
<mgrwt>
<rscale>  0 0.21084619E+03</rscale>
<asrwt>0</asrwt>
<pdfrwt beam="1">  1        1 0.24092737E+00 0.21539624E+03</pdfrwt>
<pdfrwt beam="2">  1       -1 0.45221357E-02 0.21539624E+03</pdfrwt>
<totfact> 0.13282005E+03</totfact>
</mgrwt>
</event>
<event>
 8    3  0.1508318E-003  0.1371289E+03  0.7818608E-02  0.1228967E+00
         -1   -1    0    0    0  501 -0.00000000000E+00  0.00000000000E+00  0.12302782867E+02  0.12302783900E+02  0.50400000000E-02 0.  1.
          1   -1    0    0  501    0  0.00000000000E+00 -0.00000000000E+00 -0.12321210491E+04  0.12321210491E+04  0.50400000000E-02 0. -1.
         25    2    1    2    0    0  0.38794886779E+02 -0.40915026686E+02 -0.75691671556E+03  0.76923810047E+03  0.12500103309E+03 0.  0.
         23    2    1    2    0    0 -0.38794886779E+02  0.40915026686E+02 -0.46290155062E+03  0.47518573249E+03  0.91348520199E+02 0.  0.
        -13    1    4    4    0    0 -0.91982732873E+01  0.65819680347E+02 -0.24380446031E+03  0.25270034544E+03  0.10566000000E+00 0.  1.
         13    1    4    4    0    0 -0.29596613491E+02 -0.24904653662E+02 -0.21909709031E+03  0.22248538705E+03  0.10566000000E+00 0. -1.
    9000005    1    3    3    0    0 -0.43621983025E+02  0.14444589889E+01 -0.28274234456E+03  0.28609298711E+03  0.10000000000E+01 0.  0.
    9000005    1    3    3    0    0  0.82416869803E+02 -0.42359485675E+02 -0.47417437100E+03  0.48314511336E+03  0.10000000000E+01 0.  0.
<mgrwt>
<rscale>  0 0.12898686E+03</rscale>
<asrwt>0</asrwt>
<pdfrwt beam="2">  1        1 0.18955699E+00 0.13712892E+03</pdfrwt>
<pdfrwt beam="1">  1       -1 0.18927369E-02 0.13712892E+03</pdfrwt>
<totfact> 0.78634858E+03</totfact>
</mgrwt>
</event>
<event>
 8    3  0.1508318E-003  0.1450071E+03  0.7818608E-02  0.1217180E+00
         -1   -1    0    0    0  501 -0.00000000000E+00  0.00000000000E+00  0.17989375476E+02  0.17989376182E+02  0.50400000000E-02 0.  1.
          1   -1    0    0  501    0  0.00000000000E+00 -0.00000000000E+00 -0.94794670774E+03  0.94794670776E+03  0.50400000000E-02 0. -1.
         25    2    1    2    0    0  0.49370327666E+02  0.54446089887E+02 -0.50829227102E+03  0.52857175160E+03  0.12500103141E+03 0.  0.
         23    2    1    2    0    0 -0.49370327666E+02 -0.54446089887E+02 -0.42166506125E+03  0.43736433234E+03  0.89912898772E+02 0.  0.
        -13    1    4    4    0    0 -0.50361161677E+02 -0.41474202977E+02 -0.13041003166E+03  0.14581887271E+03  0.10566000000E+00 0.  1.
         13    1    4    4    0    0  0.99083401187E+00 -0.12971886910E+02 -0.29125502959E+03  0.29154545963E+03  0.10566000000E+00 0. -1.
    9000005    1    3    3    0    0  0.24010836215E+02 -0.44991719739E+01 -0.10414616922E+02  0.26574932734E+02  0.10000000000E+01 0.  0.
    9000005    1    3    3    0    0  0.25359491450E+02  0.58945261861E+02 -0.49787765410E+03  0.50199681887E+03  0.10000000000E+01 0.  0.
<mgrwt>
<rscale>  0 0.13717593E+03</rscale>
<asrwt>0</asrwt>
<pdfrwt beam="2">  1        1 0.14583792E+00 0.14500712E+03</pdfrwt>
<pdfrwt beam="1">  1       -1 0.27675970E-02 0.14500712E+03</pdfrwt>
<totfact> 0.72386182E+03</totfact>
</mgrwt>
</event>
<event>
 8    3  0.1508318E-003  0.1263479E+03  0.7818608E-02  0.1250339E+00
         -1   -1    0    0    0  501 -0.00000000000E+00  0.00000000000E+00  0.22497411881E+02  0.22497412446E+02  0.50400000000E-02 0.  1.
          1   -1    0    0  501    0  0.00000000000E+00 -0.00000000000E+00 -0.54586174643E+03  0.54586174646E+03  0.50400000000E-02 0. -1.
         25    2    1    2    0    0  0.16907100950E+02  0.72437993935E+01 -0.23782182889E+03  0.26930098192E+03  0.12500189547E+03 0.  0.
         23    2    1    2    0    0 -0.16907100950E+02 -0.72437993935E+01 -0.28554250566E+03  0.29905817698E+03  0.86965211389E+02 0.  0.
        -13    1    4    4    0    0 -0.19490186435E+02  0.33128727309E+02 -0.20877070430E+03  0.21227952817E+03  0.10566000000E+00 0. -1.
         13    1    4    4    0    0  0.25830854849E+01 -0.40372526703E+02 -0.76771801353E+02  0.86778648814E+02  0.10566000000E+00 0.  1.
    9000005    1    3    3    0    0 -0.33992510559E+01 -0.43315684679E+02 -0.19558362305E+03  0.20035407920E+03  0.10000000000E+01 0.  0.
    9000005    1    3    3    0    0  0.20306352006E+02  0.50559484073E+02 -0.42238205848E+02  0.68946902720E+02  0.10000000000E+01 0.  0.
<mgrwt>
<rscale>  0 0.11571461E+03</rscale>
<asrwt>0</asrwt>
<pdfrwt beam="2">  1        1 0.83978720E-01 0.12634792E+03</pdfrwt>
<pdfrwt beam="1">  1       -1 0.34611408E-02 0.12634792E+03</pdfrwt>
<totfact> 0.11574474E+04</totfact>
</mgrwt>
</event>
<event>
 8    3  0.1508318E-003  0.1475682E+03  0.7818608E-02  0.1211624E+00
          1   -1    0    0  501    0  0.00000000000E+00  0.00000000000E+00  0.79376994595E+03  0.79376994596E+03  0.50400000000E-02 0. -1.
         -1   -1    0    0    0  501 -0.00000000000E+00 -0.00000000000E+00 -0.32802881936E+02  0.32802882324E+02  0.50400000000E-02 0.  1.
         25    2    1    2    0    0 -0.20698923709E+02  0.75612409003E+02  0.62667511350E+03  0.64381523894E+03  0.12502272660E+03 0.  0.
         23    2    1    2    0    0  0.20698923709E+02 -0.75612409003E+02  0.13429195051E+03  0.18275758935E+03  0.96022532021E+02 0.  0.
        -13    1    4    4    0    0  0.49801833510E+02 -0.19782022976E+02  0.31336649624E+02  0.62076950857E+02  0.10566000000E+00 0.  1.
         13    1    4    4    0    0 -0.29102909801E+02 -0.55830386027E+02  0.10295530089E+03  0.12068063850E+03  0.10566000000E+00 0. -1.
    9000005    1    3    3    0    0 -0.33233701173E+02 -0.15097157011E+02  0.36014462266E+03  0.36199109419E+03  0.10000000000E+01 0.  0.
    9000005    1    3    3    0    0  0.12534777464E+02  0.90709566015E+02  0.26653049084E+03  0.28182414474E+03  0.10000000000E+01 0.  0.
<mgrwt>
<rscale>  0 0.14127478E+03</rscale>
<asrwt>0</asrwt>
<pdfrwt beam="1">  1        1 0.12211845E+00 0.14756817E+03</pdfrwt>
<pdfrwt beam="2">  1       -1 0.50465975E-02 0.14756817E+03</pdfrwt>
<totfact> 0.39617706E+03</totfact>
</mgrwt>
</event>
<event>
 8    3  0.1508318E-003  0.1495659E+03  0.7818608E-02  0.1209489E+00
          1   -1    0    0  501    0  0.00000000000E+00  0.00000000000E+00  0.55698209901E+02  0.55698210129E+02  0.50400000000E-02 0.  1.
         -1   -1    0    0    0  501 -0.00000000000E+00 -0.00000000000E+00 -0.34556900183E+03  0.34556900187E+03  0.50400000000E-02 0. -1.
         25    2    1    2    0    0  0.66631412846E+02  0.48013988066E+02 -0.18853771799E+03  0.24065835193E+03  0.12499953209E+03 0.  0.
         23    2    1    2    0    0 -0.66631412846E+02 -0.48013988066E+02 -0.10133307395E+03  0.16060886007E+03  0.93710862927E+02 0.  0.
        -13    1    4    4    0    0 -0.12064371257E+02 -0.15051062975E+02  0.17313315000E+02  0.25919984391E+02  0.10566000000E+00 0.  1.
         13    1    4    4    0    0 -0.54567041589E+02 -0.32962925091E+02 -0.11864638895E+03  0.13468887568E+03  0.10566000000E+00 0. -1.
    9000005    1    3    3    0    0  0.38398111805E+02  0.30397217051E+02 -0.19964063698E+03  0.20556213107E+03  0.10000000000E+01 0.  0.
    9000005    1    3    3    0    0  0.28233301041E+02  0.17616771015E+02  0.11102918993E+02  0.35096220863E+02  0.10000000000E+01 0.  0.
<mgrwt>
<rscale>  0 0.14289263E+03</rscale>
<asrwt>0</asrwt>
<pdfrwt beam="1">  1        1 0.85689557E-02 0.14956594E+03</pdfrwt>
<pdfrwt beam="2">  1       -1 0.53164460E-01 0.14956594E+03</pdfrwt>
<totfact> 0.28122761E+03</totfact>
</mgrwt>
</event>
<event>
 8    3  0.1508318E-003  0.1345678E+03  0.7818608E-02  0.1233175E+00
          1   -1    0    0  501    0  0.00000000000E+00  0.00000000000E+00  0.94157706477E+03  0.94157706479E+03  0.50400000000E-02 0. -1.
         -1   -1    0    0    0  501 -0.00000000000E+00 -0.00000000000E+00 -0.20638262521E+02  0.20638263137E+02  0.50400000000E-02 0.  1.
         25    2    1    2    0    0  0.43090000701E+02 -0.25033403874E+02  0.75051331534E+03  0.76248196077E+03  0.12500033810E+03 0.  0.
         23    2    1    2    0    0 -0.43090000701E+02  0.25033403874E+02  0.17042548691E+03  0.19973336715E+03  0.91461204321E+02 0.  0.
        -13    1    4    4    0    0 -0.49760046442E+02 -0.11417487246E+02  0.42125150798E+02  0.66188826329E+02  0.10566000000E+00 0.  1.
         13    1    4    4    0    0  0.66700457410E+01  0.36450891120E+02  0.12830033611E+03  0.13354454082E+03  0.10566000000E+00 0. -1.
    9000005    1    3    3    0    0  0.35287622392E+02  0.46667320657E+02  0.24749825326E+03  0.25432152972E+03  0.10000000000E+01 0.  0.
    9000005    1    3    3    0    0  0.78023783095E+01 -0.71700724531E+02  0.50301506208E+03  0.50816043105E+03  0.10000000000E+01 0.  0.
<mgrwt>
<rscale>  0 0.12621981E+03</rscale>
<asrwt>0</asrwt>
<pdfrwt beam="1">  1        1 0.14485798E+00 0.13456784E+03</pdfrwt>
<pdfrwt beam="2">  1       -1 0.31751180E-02 0.13456784E+03</pdfrwt>
<totfact> 0.59704190E+03</totfact>
</mgrwt>
</event>
<event>
 8    3  0.1508318E-003  0.1257772E+03  0.7818608E-02  0.1250312E+00
          1   -1    0    0  501    0  0.00000000000E+00  0.00000000000E+00  0.69658793272E+02  0.69658793454E+02  0.50400000000E-02 0. -1.
         -1   -1    0    0    0  501 -0.00000000000E+00 -0.00000000000E+00 -0.17718133132E+03  0.17718133139E+03  0.50400000000E-02 0.  1.
         25    2    1    2    0    0  0.10572279807E+02  0.91201523607E+01 -0.90855557650E+02  0.15516002087E+03  0.12499979777E+03 0.  0.
         23    2    1    2    0    0 -0.10572279807E+02 -0.91201523607E+01 -0.16666980401E+02  0.91680103974E+02  0.89064599868E+02 0.  0.
        -13    1    4    4    0    0  0.78249403489E+00 -0.35446454973E+02 -0.40908309320E+02  0.54134687609E+02  0.10566000000E+00 0.  1.
         13    1    4    4    0    0 -0.11354773842E+02  0.26326302612E+02  0.24241328919E+02  0.37545416365E+02  0.10566000000E+00 0. -1.
    9000005    1    3    3    0    0 -0.40812660361E+02  0.22132565035E+02 -0.90976779673E+02  0.10214351727E+03  0.10000000000E+01 0.  0.
    9000005    1    3    3    0    0  0.51384940167E+02 -0.13012412674E+02  0.12122202283E+00  0.53016503604E+02  0.10000000000E+01 0.  0.
<mgrwt>
<rscale>  0 0.11572993E+03</rscale>
<asrwt>0</asrwt>
<pdfrwt beam="1">  1        1 0.10716738E-01 0.12577718E+03</pdfrwt>
<pdfrwt beam="2">  1       -1 0.27258666E-01 0.12577718E+03</pdfrwt>
<totfact> 0.66266666E+03</totfact>
</mgrwt>
</event>
<event>
 8    3  0.1508318E-003  0.2005758E+03  0.7818608E-02  0.1154302E+00
         -1   -1    0    0    0  501 -0.00000000000E+00  0.00000000000E+00  0.59697598974E+03  0.59697598976E+03  0.50400000000E-02 0.  1.
          1   -1    0    0  501    0  0.00000000000E+00 -0.00000000000E+00 -0.61727525614E+02  0.61727525819E+02  0.50400000000E-02 0. -1.
         25    2    1    2    0    0  0.11047528466E+03 -0.11136504238E+03  0.33765642503E+03  0.39273721612E+03  0.12499479340E+03 0.  0.
         23    2    1    2    0    0 -0.11047528466E+03  0.11136504238E+03  0.19759203910E+03  0.26596629946E+03  0.84193214404E+02 0.  0.
        -13    1    4    4    0    0 -0.76578517972E+02  0.10628378269E+03  0.19012724370E+03  0.23088718422E+03  0.10566000000E+00 0.  1.
         13    1    4    4    0    0 -0.33896766685E+02  0.50812596919E+01  0.74647953967E+01  0.35079115241E+02  0.10566000000E+00 0. -1.
    9000005    1    3    3    0    0  0.37014815576E+02 -0.11961812052E+03  0.18907666631E+03  0.22678090103E+03  0.10000000000E+01 0.  0.
    9000005    1    3    3    0    0  0.73460469081E+02  0.82530781425E+01  0.14857975873E+03  0.16595631509E+03  0.10000000000E+01 0.  0.
<mgrwt>
<rscale>  0 0.19468548E+03</rscale>
<asrwt>0</asrwt>
<pdfrwt beam="2">  1        1 0.94965421E-02 0.20057582E+03</pdfrwt>
<pdfrwt beam="1">  1       -1 0.91842463E-01 0.20057582E+03</pdfrwt>
<totfact> 0.83320758E+02</totfact>
</mgrwt>
</event>
<event>
 8    3  0.1508318E-003  0.1465292E+03  0.7818608E-02  0.1210978E+00
         -1   -1    0    0    0  501 -0.00000000000E+00  0.00000000000E+00  0.26048921890E+03  0.26048921895E+03  0.50400000000E-02 0.  1.
          1   -1    0    0  501    0  0.00000000000E+00 -0.00000000000E+00 -0.89069862478E+02  0.89069862621E+02  0.50400000000E-02 0. -1.
         25    2    1    2    0    0  0.54251477322E+02 -0.53874515800E+02  0.15129460243E+02  0.14730815642E+03  0.12500042454E+03 0.  0.
         23    2    1    2    0    0 -0.54251477322E+02  0.53874515800E+02  0.15628989618E+03  0.20225092515E+03  0.10311750013E+03 0.  0.
        -13    1    4    4    0    0 -0.12513786828E+02  0.50806742854E+02  0.15131396152E+03  0.16010573411E+03  0.10566000000E+00 0. -1.
         13    1    4    4    0    0 -0.41737690494E+02  0.30677729463E+01  0.49759346637E+01  0.42145191048E+02  0.10566000000E+00 0.  1.
    9000005    1    3    3    0    0  0.72653445020E+02 -0.66584755965E+02 -0.24713786653E+02  0.10160622053E+03  0.10000000000E+01 0.  0.
    9000005    1    3    3    0    0 -0.18401967698E+02  0.12710240165E+02  0.39843246896E+02  0.45701935883E+02  0.10000000000E+01 0.  0.
<mgrwt>
<rscale>  0 0.14176175E+03</rscale>
<asrwt>0</asrwt>
<pdfrwt beam="2">  1        1 0.13703056E-01 0.14652915E+03</pdfrwt>
<pdfrwt beam="1">  1       -1 0.40075264E-01 0.14652915E+03</pdfrwt>
<totfact> 0.25129009E+03</totfact>
</mgrwt>
</event>
<event>
 8    3  0.1508318E-003  0.1261906E+03  0.7818608E-02  0.1249057E+00
          1   -1    0    0  501    0  0.00000000000E+00  0.00000000000E+00  0.12274366325E+04  0.12274366326E+04  0.50400000000E-02 0.  1.
         -1   -1    0    0    0  501 -0.00000000000E+00 -0.00000000000E+00 -0.96660280379E+01  0.96660293518E+01  0.50400000000E-02 0. -1.
         25    2    1    2    0    0  0.95253944154E+01  0.14444804311E+02  0.68539644541E+03  0.69691631760E+03  0.12499872340E+03 0.  0.
         23    2    1    2    0    0 -0.95253944154E+01 -0.14444804311E+02  0.53237415910E+03  0.54018634431E+03  0.89886905531E+02 0.  0.
        -13    1    4    4    0    0  0.20897271563E+01 -0.11921676521E+02  0.57014168227E+01  0.13379486107E+02  0.10566000000E+00 0. -1.
         13    1    4    4    0    0 -0.11615121572E+02 -0.25231277895E+01  0.52667274228E+03  0.52680685820E+03  0.10566000000E+00 0.  1.
    9000005    1    3    3    0    0 -0.21692244363E+02  0.38086418768E+02  0.61330244363E+03  0.61486747850E+03  0.10000000000E+01 0.  0.
    9000005    1    3    3    0    0  0.31217638779E+02 -0.23641614457E+02  0.72094001780E+02  0.82048839101E+02  0.10000000000E+01 0.  0.
<mgrwt>
<rscale>  0 0.11645806E+03</rscale>
<asrwt>0</asrwt>
<pdfrwt beam="1">  1        1 0.18883641E+00 0.12619060E+03</pdfrwt>
<pdfrwt beam="2">  1       -1 0.14870813E-02 0.12619060E+03</pdfrwt>
<totfact> 0.11152976E+04</totfact>
</mgrwt>
</event>
<event>
 8    3  0.1508318E-003  0.1463431E+03  0.7818608E-02  0.1217104E+00
          1   -1    0    0  501    0  0.00000000000E+00  0.00000000000E+00  0.11707625750E+03  0.11707625761E+03  0.50400000000E-02 0. -1.
         -1   -1    0    0    0  501 -0.00000000000E+00 -0.00000000000E+00 -0.19510084340E+03  0.19510084346E+03  0.50400000000E-02 0.  1.
         25    2    1    2    0    0 -0.69497599332E+02 -0.31005325264E+02  0.36867366922E+02  0.15091551902E+03  0.12500017852E+03 0.  0.
         23    2    1    2    0    0  0.69497599332E+02  0.31005325264E+02 -0.11489195282E+03  0.16126158205E+03  0.83748973224E+02 0.  0.
        -13    1    4    4    0    0  0.12885986558E+02  0.19415044429E+02  0.86634986855E+01  0.24860811999E+02  0.10566000000E+00 0. -1.
         13    1    4    4    0    0  0.56611612775E+02  0.11590280835E+02 -0.12355545151E+03  0.13640077006E+03  0.10566000000E+00 0.  1.
    9000005    1    3    3    0    0 -0.16117491855E+00 -0.62416024429E+02  0.40988102300E+02  0.74678046393E+02  0.10000000000E+01 0.  0.
    9000005    1    3    3    0    0 -0.69336424414E+02  0.31410699165E+02 -0.41207353781E+01  0.76237472627E+02  0.10000000000E+01 0.  0.
<mgrwt>
<rscale>  0 0.13723097E+03</rscale>
<asrwt>0</asrwt>
<pdfrwt beam="1">  1        1 0.18011732E-01 0.14634306E+03</pdfrwt>
<pdfrwt beam="2">  1       -1 0.30015514E-01 0.14634306E+03</pdfrwt>
<totfact> 0.28987398E+03</totfact>
</mgrwt>
</event>
<event>
 8    3  0.1508318E-003  0.1460692E+03  0.7818608E-02  0.1212185E+00
          1   -1    0    0  501    0  0.00000000000E+00  0.00000000000E+00  0.13095013548E+03  0.13095013558E+03  0.50400000000E-02 0. -1.
         -1   -1    0    0    0  501 -0.00000000000E+00 -0.00000000000E+00 -0.14626439152E+03  0.14626439161E+03  0.50400000000E-02 0.  1.
         25    2    1    2    0    0 -0.75318099203E+02  0.62598052682E+01  0.16424111899E+02  0.14698968317E+03  0.12499685707E+03 0.  0.
         23    2    1    2    0    0  0.75318099203E+02 -0.62598052682E+01 -0.31738367934E+02  0.13022484401E+03  0.10118885694E+03 0.  0.
        -13    1    4    4    0    0 -0.14121566046E+02 -0.17848551821E+02 -0.32929739235E+02  0.40029593051E+02  0.10566000000E+00 0.  1.
         13    1    4    4    0    0  0.89439665249E+02  0.11588746553E+02  0.11913713015E+01  0.90195250962E+02  0.10566000000E+00 0. -1.
    9000005    1    3    3    0    0  0.61493596908E+01  0.49464138039E+02 -0.10440063720E+02  0.50936337786E+02  0.10000000000E+01 0.  0.
    9000005    1    3    3    0    0 -0.81467458894E+02 -0.43204332771E+02  0.26864175619E+02  0.96053345389E+02  0.10000000000E+01 0.  0.
<mgrwt>
<rscale>  0 0.14085366E+03</rscale>
<asrwt>0</asrwt>
<pdfrwt beam="1">  1        1 0.20146175E-01 0.14606921E+03</pdfrwt>
<pdfrwt beam="2">  1       -1 0.22502214E-01 0.14606921E+03</pdfrwt>
<totfact> 0.40453107E+03</totfact>
</mgrwt>
</event>
<event>
 8    3  0.1508318E-003  0.1293503E+03  0.7818608E-02  0.1243793E+00
         -1   -1    0    0    0  501 -0.00000000000E+00  0.00000000000E+00  0.44831258620E+02  0.44831258904E+02  0.50400000000E-02 0.  1.
          1   -1    0    0  501    0  0.00000000000E+00 -0.00000000000E+00 -0.27957349026E+03  0.27957349031E+03  0.50400000000E-02 0. -1.
         25    2    1    2    0    0 -0.32762940995E+02 -0.57592775970E+01 -0.13134218911E+03  0.18434281898E+03  0.12499969876E+03 0.  0.
         23    2    1    2    0    0  0.32762940995E+02  0.57592775970E+01 -0.10340004253E+03  0.14006193023E+03  0.88426217391E+02 0.  0.
        -13    1    4    4    0    0  0.43742374280E+02  0.38864702719E+02 -0.54245078116E+02  0.79789724206E+02  0.10566000000E+00 0.  1.
         13    1    4    4    0    0 -0.10979433285E+02 -0.33105425122E+02 -0.49154964418E+02  0.60272206022E+02  0.10566000000E+00 0. -1.
    9000005    1    3    3    0    0 -0.54548473318E+02 -0.53248982437E+02 -0.67361184484E+02  0.10173258695E+03  0.10000000000E+01 0.  0.
    9000005    1    3    3    0    0  0.21785532324E+02  0.47489704839E+02 -0.63981004622E+02  0.82610232035E+02  0.10000000000E+01 0.  0.
<mgrwt>
<rscale>  0 0.11957940E+03</rscale>
<asrwt>0</asrwt>
<pdfrwt beam="2">  1        1 0.43011305E-01 0.12935032E+03</pdfrwt>
<pdfrwt beam="1">  1       -1 0.68971169E-02 0.12935032E+03</pdfrwt>
<totfact> 0.97575496E+03</totfact>
</mgrwt>
</event>
<event>
 8    3  0.1508318E-003  0.1494857E+03  0.7818608E-02  0.1210571E+00
          1   -1    0    0  501    0  0.00000000000E+00  0.00000000000E+00  0.55249407048E+02  0.55249407278E+02  0.50400000000E-02 0. -1.
         -1   -1    0    0    0  501 -0.00000000000E+00 -0.00000000000E+00 -0.33439628232E+03  0.33439628236E+03  0.50400000000E-02 0.  1.
         25    2    1    2    0    0  0.46243096084E+02 -0.67630307850E+02 -0.14310970333E+03  0.20694529992E+03  0.12503474516E+03 0.  0.
         23    2    1    2    0    0 -0.46243096084E+02  0.67630307850E+02 -0.13603717194E+03  0.18270038971E+03  0.90338462330E+02 0.  0.
        -13    1    4    4    0    0  0.12805991896E+02  0.23620618381E+02 -0.94293673455E+02  0.98047106325E+02  0.10566000000E+00 0.  1.
         13    1    4    4    0    0 -0.59049087980E+02  0.44009689468E+02 -0.41743498488E+02  0.84653283388E+02  0.10566000000E+00 0. -1.
    9000005    1    3    3    0    0  0.63012414510E+02 -0.41616776125E+02 -0.17430062116E+02  0.77506951319E+02  0.10000000000E+01 0.  0.
    9000005    1    3    3    0    0 -0.16769318426E+02 -0.26013531725E+02 -0.12567964121E+03  0.12943834860E+03  0.10000000000E+01 0.  0.
<mgrwt>
<rscale>  0 0.14206945E+03</rscale>
<asrwt>0</asrwt>
<pdfrwt beam="1">  1        1 0.84999090E-02 0.14948568E+03</pdfrwt>
<pdfrwt beam="2">  1       -1 0.51445581E-01 0.14948568E+03</pdfrwt>
<totfact> 0.30207133E+03</totfact>
</mgrwt>
</event>
<event>
 8    3  0.1508318E-003  0.1276023E+03  0.7818608E-02  0.1246748E+00
          1   -1    0    0  501    0  0.00000000000E+00  0.00000000000E+00  0.74040103027E+02  0.74040103199E+02  0.50400000000E-02 0. -1.
         -1   -1    0    0    0  501 -0.00000000000E+00 -0.00000000000E+00 -0.19222976250E+03  0.19222976257E+03  0.50400000000E-02 0.  1.
         25    2    1    2    0    0  0.17054717678E+02  0.19134470170E+02 -0.11761883679E+03  0.17354120228E+03  0.12500146709E+03 0.  0.
         23    2    1    2    0    0 -0.17054717678E+02 -0.19134470170E+02 -0.57082268369E+00  0.92728663491E+02  0.89113903800E+02 0.  0.
        -13    1    4    4    0    0 -0.29693947091E+02 -0.46677300211E+02 -0.17490166645E+02  0.58020840584E+02  0.10566000000E+00 0. -1.
         13    1    4    4    0    0  0.12639229413E+02  0.27542830040E+02  0.16919343962E+02  0.34707822907E+02  0.10566000000E+00 0.  1.
    9000005    1    3    3    0    0 -0.27121575535E+02  0.49675013192E+02 -0.10355448183E+03  0.11801575108E+03  0.10000000000E+01 0.  0.
    9000005    1    3    3    0    0  0.44176293213E+02 -0.30540543022E+02 -0.14064354957E+02  0.55525451196E+02  0.10000000000E+01 0.  0.
<mgrwt>
<rscale>  0 0.11781360E+03</rscale>
<asrwt>0</asrwt>
<pdfrwt beam="1">  1        1 0.11390785E-01 0.12760234E+03</pdfrwt>
<pdfrwt beam="2">  1       -1 0.29573809E-01 0.12760234E+03</pdfrwt>
<totfact> 0.53449127E+03</totfact>
</mgrwt>
</event>
<event>
 8    3  0.1508318E-003  0.1427093E+03  0.7818608E-02  0.1218872E+00
          1   -1    0    0  501    0  0.00000000000E+00  0.00000000000E+00  0.19267856423E+03  0.19267856430E+03  0.50400000000E-02 0. -1.
         -1   -1    0    0    0  501 -0.00000000000E+00 -0.00000000000E+00 -0.13050622600E+03  0.13050622610E+03  0.50400000000E-02 0.  1.
         25    2    1    2    0    0 -0.46115252371E+02  0.51133137652E+02  0.12515269369E+03  0.18981343382E+03  0.12499891462E+03 0.  0.
         23    2    1    2    0    0  0.46115252371E+02 -0.51133137652E+02 -0.62980355459E+02  0.13337135657E+03  0.95289974879E+02 0.  0.
        -13    1    4    4    0    0 -0.74254160887E+01 -0.26050919803E+02  0.18424610708E+02  0.32760718406E+02  0.10566000000E+00 0. -1.
         13    1    4    4    0    0  0.53540668460E+02 -0.25082217850E+02 -0.81404966167E+02  0.10061063817E+03  0.10566000000E+00 0.  1.
    9000005    1    3    3    0    0 -0.67768926852E+02  0.57873968514E+01  0.12171766400E+03  0.13943568818E+03  0.10000000000E+01 0.  0.
    9000005    1    3    3    0    0  0.21653674480E+02  0.45345740801E+02  0.34350296893E+01  0.50377745645E+02  0.10000000000E+01 0.  0.
<mgrwt>
<rscale>  0 0.13595907E+03</rscale>
<asrwt>0</asrwt>
<pdfrwt beam="1">  1        1 0.29642856E-01 0.14270930E+03</pdfrwt>
<pdfrwt beam="2">  1       -1 0.20077881E-01 0.14270930E+03</pdfrwt>
<totfact> 0.29877043E+03</totfact>
</mgrwt>
</event>
<event>
 8    3  0.1508318E-003  0.1711305E+03  0.7818608E-02  0.1182683E+00
          1   -1    0    0  501    0  0.00000000000E+00  0.00000000000E+00  0.14634011146E+04  0.14634011146E+04  0.50400000000E-02 0. -1.
         -1   -1    0    0    0  501 -0.00000000000E+00 -0.00000000000E+00 -0.19621006688E+02  0.19621007336E+02  0.50400000000E-02 0.  1.
         25    2    1    2    0    0 -0.21948007463E+01 -0.11685501168E+03  0.52578485375E+03  0.55293341754E+03  0.12500296350E+03 0.  0.
         23    2    1    2    0    0  0.21948007463E+01  0.11685501168E+03  0.91799525414E+03  0.93008870439E+03  0.93219099473E+02 0.  0.
        -13    1    4    4    0    0 -0.39175519905E+02  0.23600888759E+02  0.22259644963E+03  0.22724637260E+03  0.10566000000E+00 0. -1.
         13    1    4    4    0    0  0.41370320651E+02  0.93254122924E+02  0.69539880451E+03  0.70284233178E+03  0.10566000000E+00 0.  1.
    9000005    1    3    3    0    0  0.25072800038E+02 -0.13341310036E+03  0.46315400042E+03  0.48263892172E+03  0.10000000000E+01 0.  0.
    9000005    1    3    3    0    0 -0.27267600784E+02  0.16558088679E+02  0.62630853334E+02  0.70294495820E+02  0.10000000000E+01 0.  0.
<mgrwt>
<rscale>  0 0.16544535E+03</rscale>
<asrwt>0</asrwt>
<pdfrwt beam="1">  1        1 0.22513865E+00 0.17113051E+03</pdfrwt>
<pdfrwt beam="2">  1       -1 0.30186162E-02 0.17113051E+03</pdfrwt>
<totfact> 0.28173936E+03</totfact>
</mgrwt>
</event>
<event>
 8    3  0.1508318E-003  0.1663463E+03  0.7818608E-02  0.1188828E+00
          1   -1    0    0  501    0  0.00000000000E+00  0.00000000000E+00  0.10381815082E+03  0.10381815094E+03  0.50400000000E-02 0. -1.
         -1   -1    0    0    0  501 -0.00000000000E+00 -0.00000000000E+00 -0.26039854261E+03  0.26039854265E+03  0.50400000000E-02 0.  1.
         25    2    1    2    0    0 -0.10353453606E+03 -0.36426304325E+02 -0.20567023621E+02  0.16761292346E+03  0.12499925538E+03 0.  0.
         23    2    1    2    0    0  0.10353453606E+03  0.36426304325E+02 -0.13601336816E+03  0.19660377014E+03  0.90039604118E+02 0.  0.
        -13    1    4    4    0    0  0.11778103517E+02 -0.27188382451E+02 -0.21053759094E+02  0.36348367210E+02  0.10566000000E+00 0. -1.
         13    1    4    4    0    0  0.91756432542E+02  0.63614686776E+02 -0.11495960907E+03  0.16025540293E+03  0.10566000000E+00 0.  1.
    9000005    1    3    3    0    0  0.19476407901E+02 -0.13485649985E+02  0.24984294370E+02  0.34444276526E+02  0.10000000000E+01 0.  0.
    9000005    1    3    3    0    0 -0.12301094396E+03 -0.22940654339E+02 -0.45551317990E+02  0.13316864693E+03  0.10000000000E+01 0.  0.
<mgrwt>
<rscale>  0 0.15988341E+03</rscale>
<asrwt>0</asrwt>
<pdfrwt beam="1">  1        1 0.15972023E-01 0.16634629E+03</pdfrwt>
<pdfrwt beam="2">  1       -1 0.40061314E-01 0.16634629E+03</pdfrwt>
<totfact> 0.20709752E+03</totfact>
</mgrwt>
</event>
<event>
 8    3  0.1508318E-003  0.1553185E+03  0.7818608E-02  0.1202558E+00
         -1   -1    0    0    0  501 -0.00000000000E+00  0.00000000000E+00  0.15587134412E+02  0.15587135227E+02  0.50400000000E-02 0.  1.
          1   -1    0    0  501    0  0.00000000000E+00 -0.00000000000E+00 -0.14328671717E+04  0.14328671717E+04  0.50400000000E-02 0. -1.
         25    2    1    2    0    0  0.79278003761E+02  0.47012440851E+02 -0.54624815307E+03  0.56790041957E+03  0.12501468048E+03 0.  0.
         23    2    1    2    0    0 -0.79278003761E+02 -0.47012440851E+02 -0.87103188424E+03  0.88055388739E+03  0.90462333382E+02 0.  0.
        -13    1    4    4    0    0  0.52482878014E+01  0.17083800441E+02 -0.59737941828E+02  0.62354098664E+02  0.10566000000E+00 0.  1.
         13    1    4    4    0    0 -0.84526291562E+02 -0.64096241293E+02 -0.81129394241E+03  0.81819978873E+03  0.10566000000E+00 0. -1.
    9000005    1    3    3    0    0  0.86473306617E+02  0.59314062813E+02 -0.24735144270E+03  0.26866247786E+03  0.10000000000E+01 0.  0.
    9000005    1    3    3    0    0 -0.71953028564E+01 -0.12301621962E+02 -0.29889671037E+03  0.29923794171E+03  0.10000000000E+01 0.  0.
<mgrwt>
<rscale>  0 0.14831579E+03</rscale>
<asrwt>0</asrwt>
<pdfrwt beam="2">  1        1 0.22044100E+00 0.15531852E+03</pdfrwt>
<pdfrwt beam="1">  1       -1 0.23980219E-02 0.15531852E+03</pdfrwt>
<totfact> 0.41207110E+03</totfact>
</mgrwt>
</event>
<event>
 8    3  0.1508318E-003  0.1250677E+03  0.7818608E-02  0.1251441E+00
          1   -1    0    0  501    0  0.00000000000E+00  0.00000000000E+00  0.94683821060E+01  0.94683834474E+01  0.50400000000E-02 0. -1.
         -1   -1    0    0    0  501 -0.00000000000E+00 -0.00000000000E+00 -0.15047944566E+04  0.15047944567E+04  0.50400000000E-02 0.  1.
         25    2    1    2    0    0 -0.41684717512E+01 -0.21628052425E+00 -0.52016738134E+03  0.53499161206E+03  0.12499798970E+03 0.  0.
         23    2    1    2    0    0  0.41684717512E+01  0.21628052425E+00 -0.97515869320E+03  0.97927122804E+03  0.89555782702E+02 0.  0.
        -13    1    4    4    0    0 -0.23063023058E+02  0.22306497781E+02 -0.79967979373E+03  0.80032322629E+03  0.10566000000E+00 0.  1.
         13    1    4    4    0    0  0.27231494809E+02 -0.22090217257E+02 -0.17547889947E+03  0.17894800175E+03  0.10566000000E+00 0. -1.
    9000005    1    3    3    0    0  0.13914815887E+02  0.47862707021E+02 -0.10044827309E+03  0.11213971817E+03  0.10000000000E+01 0.  0.
    9000005    1    3    3    0    0 -0.18083287638E+02 -0.48078987545E+02 -0.41971910825E+03  0.42285189389E+03  0.10000000000E+01 0.  0.
<mgrwt>
<rscale>  0 0.11508004E+03</rscale>
<asrwt>0</asrwt>
<pdfrwt beam="1">  1        1 0.14566755E-02 0.12506766E+03</pdfrwt>
<pdfrwt beam="2">  1       -1 0.23150665E+00 0.12506766E+03</pdfrwt>
<totfact> 0.96567914E+02</totfact>
</mgrwt>
</event>
<event>
 8    3  0.1508318E-003  0.1359866E+03  0.7818608E-02  0.1230900E+00
          1   -1    0    0  501    0  0.00000000000E+00  0.00000000000E+00  0.19052704782E+03  0.19052704789E+03  0.50400000000E-02 0. -1.
         -1   -1    0    0    0  501 -0.00000000000E+00 -0.00000000000E+00 -0.96101687740E+02  0.96101687872E+02  0.50400000000E-02 0.  1.
         25    2    1    2    0    0 -0.29956560690E+02 -0.44382708185E+02 -0.12086534365E+02  0.13652263372E+03  0.12500049956E+03 0.  0.
         23    2    1    2    0    0  0.29956560690E+02  0.44382708185E+02  0.10651189444E+03  0.15010610204E+03  0.91213145416E+02 0.  0.
        -13    1    4    4    0    0 -0.12471286193E+02  0.59449615163E+02  0.61543471710E+02  0.86471959597E+02  0.10566000000E+00 0.  1.
         13    1    4    4    0    0  0.42427846883E+02 -0.15066906978E+02  0.44968422734E+02  0.63634142441E+02  0.10566000000E+00 0. -1.
    9000005    1    3    3    0    0 -0.18518851074E+02 -0.36419427209E+02  0.54704639000E+02  0.68285577184E+02  0.10000000000E+01 0.  0.
    9000005    1    3    3    0    0 -0.11437709616E+02 -0.79632809754E+01 -0.66791173365E+02  0.68237056535E+02  0.10000000000E+01 0.  0.
<mgrwt>
<rscale>  0 0.12770605E+03</rscale>
<asrwt>0</asrwt>
<pdfrwt beam="1">  1        1 0.29311853E-01 0.13598656E+03</pdfrwt>
<pdfrwt beam="2">  1       -1 0.14784875E-01 0.13598656E+03</pdfrwt>
<totfact> 0.49099072E+03</totfact>
</mgrwt>
</event>
<event>
 8    3  0.1508318E-003  0.1274670E+03  0.7818608E-02  0.1245572E+00
         -1   -1    0    0    0  501 -0.00000000000E+00  0.00000000000E+00  0.63617493981E+01  0.63617513945E+01  0.50400000000E-02 0.  1.
          1   -1    0    0  501    0  0.00000000000E+00 -0.00000000000E+00 -0.26121096733E+04  0.26121096733E+04  0.50400000000E-02 0. -1.
         25    2    1    2    0    0 -0.79536426408E+01  0.23687948404E+02 -0.78915883604E+03  0.79938695588E+03  0.12499382944E+03 0.  0.
         23    2    1    2    0    0  0.79536426408E+01 -0.23687948404E+02 -0.18165890878E+04  0.18190844688E+04  0.91913063456E+02 0.  0.
        -13    1    4    4    0    0  0.22592614105E+02 -0.35599186702E+02 -0.17276770512E+04  0.17281914630E+04  0.10566000000E+00 0. -1.
         13    1    4    4    0    0 -0.14638971464E+02  0.11911238298E+02 -0.88912036616E+02  0.90893005796E+02  0.10566000000E+00 0.  1.
    9000005    1    3    3    0    0  0.49685385314E+02  0.13073454204E+01 -0.16920913468E+03  0.17636064733E+03  0.10000000000E+01 0.  0.
    9000005    1    3    3    0    0 -0.57639027955E+02  0.22380602984E+02 -0.61994970136E+03  0.62302630856E+03  0.10000000000E+01 0.  0.
<mgrwt>
<rscale>  0 0.11851233E+03</rscale>
<asrwt>0</asrwt>
<pdfrwt beam="2">  1        1 0.40186217E+00 0.12746700E+03</pdfrwt>
<pdfrwt beam="1">  1       -1 0.97873292E-03 0.12746700E+03</pdfrwt>
<totfact> 0.25985687E+03</totfact>
</mgrwt>
</event>
<event>
 8    3  0.1508318E-003  0.3029130E+03  0.7818608E-02  0.1085404E+00
          1   -1    0    0  501    0  0.00000000000E+00  0.00000000000E+00  0.32764271681E+03  0.32764271685E+03  0.50400000000E-02 0. -1.
         -1   -1    0    0    0  501 -0.00000000000E+00 -0.00000000000E+00 -0.27008584064E+03  0.27008584069E+03  0.50400000000E-02 0.  1.
         25    2    1    2    0    0  0.92141754390E+02 -0.26007874144E+03  0.56851118315E+01  0.30296632275E+03  0.12500087029E+03 0.  0.
         23    2    1    2    0    0 -0.92141754390E+02  0.26007874144E+03  0.51871764341E+02  0.29476223479E+03  0.89794434547E+02 0.  0.
        -13    1    4    4    0    0 -0.12349138297E+02  0.16690196032E+03  0.34294638135E+02  0.17083588307E+03  0.10566000000E+00 0. -1.
         13    1    4    4    0    0 -0.79792616093E+02  0.93176781118E+02  0.17577126206E+02  0.12392635173E+03  0.10566000000E+00 0.  1.
    9000005    1    3    3    0    0  0.98612524090E+02 -0.17167392220E+03 -0.41880359620E+02  0.20236434961E+03  0.10000000000E+01 0.  0.
    9000005    1    3    3    0    0 -0.64707697000E+01 -0.88404819235E+02  0.47565471451E+02  0.10060197314E+03  0.10000000000E+01 0.  0.
<mgrwt>
<rscale>  0 0.29967369E+03</rscale>
<asrwt>0</asrwt>
<pdfrwt beam="1">  1        1 0.50406572E-01 0.30291298E+03</pdfrwt>
<pdfrwt beam="2">  1       -1 0.41551668E-01 0.30291298E+03</pdfrwt>
<totfact> 0.45337293E+02</totfact>
</mgrwt>
</event>
<event>
 8    3  0.1508318E-003  0.1520414E+03  0.7818608E-02  0.1207263E+00
          1   -1    0    0  501    0  0.00000000000E+00  0.00000000000E+00  0.20447825834E+04  0.20447825834E+04  0.50400000000E-02 0. -1.
         -1   -1    0    0    0  501 -0.00000000000E+00 -0.00000000000E+00 -0.98997977013E+01  0.98997989842E+01  0.50400000000E-02 0.  1.
         25    2    1    2    0    0  0.63269777693E+02 -0.59066268764E+02  0.87114530134E+03  0.88431369416E+03  0.12499873900E+03 0.  0.
         23    2    1    2    0    0 -0.63269777693E+02  0.59066268764E+02  0.11637374844E+04  0.11703686882E+04  0.89364674355E+02 0.  0.
        -13    1    4    4    0    0 -0.52055626822E+02  0.79137358011E+02  0.74456970536E+03  0.75057082745E+03  0.10566000000E+00 0. -1.
         13    1    4    4    0    0 -0.11214150871E+02 -0.20071089247E+02  0.41916777900E+03  0.41979786078E+03  0.10566000000E+00 0.  1.
    9000005    1    3    3    0    0 -0.33984735716E+00 -0.51915967339E+02  0.69427590840E+03  0.69621506745E+03  0.10000000000E+01 0.  0.
    9000005    1    3    3    0    0  0.63609625050E+02 -0.71503014254E+01  0.17686939294E+03  0.18809862671E+03  0.10000000000E+01 0.  0.
<mgrwt>
<rscale>  0 0.14460570E+03</rscale>
<asrwt>0</asrwt>
<pdfrwt beam="1">  1        1 0.31458200E+00 0.15204135E+03</pdfrwt>
<pdfrwt beam="2">  1       -1 0.15230456E-02 0.15204135E+03</pdfrwt>
<totfact> 0.32113391E+03</totfact>
</mgrwt>
</event>
<event>
 8    3  0.1508318E-003  0.1353226E+03  0.7818608E-02  0.1232094E+00
          1   -1    0    0  501    0  0.00000000000E+00  0.00000000000E+00  0.80547076282E+02  0.80547076439E+02  0.50400000000E-02 0. -1.
         -1   -1    0    0    0  501 -0.00000000000E+00 -0.00000000000E+00 -0.36525917641E+03  0.36525917645E+03  0.50400000000E-02 0.  1.
         25    2    1    2    0    0 -0.51765001280E+02  0.28787827950E+01 -0.30984487083E+03  0.33810658053E+03  0.12499725224E+03 0.  0.
         23    2    1    2    0    0  0.51765001280E+02 -0.28787827950E+01  0.25132770704E+02  0.10769967236E+03  0.90992639890E+02 0.  0.
        -13    1    4    4    0    0 -0.20005569566E+02  0.59516350890E+00 -0.15352297064E+02  0.25224615407E+02  0.10566000000E+00 0. -1.
         13    1    4    4    0    0  0.71770570846E+02 -0.34739463039E+01  0.40485067767E+02  0.82475056948E+02  0.10566000000E+00 0.  1.
    9000005    1    3    3    0    0 -0.69447657451E+02 -0.44767584527E+02 -0.16368868904E+03  0.18336330241E+03  0.10000000000E+01 0.  0.
    9000005    1    3    3    0    0  0.17682656171E+02  0.47646367322E+02 -0.14615618179E+03  0.15474327812E+03  0.10000000000E+01 0.  0.
<mgrwt>
<rscale>  0 0.12692337E+03</rscale>
<asrwt>0</asrwt>
<pdfrwt beam="1">  1        1 0.12391858E-01 0.13532264E+03</pdfrwt>
<pdfrwt beam="2">  1       -1 0.56193719E-01 0.13532264E+03</pdfrwt>
<totfact> 0.15492579E+03</totfact>
</mgrwt>
</event>
<event>
 8    3  0.1508318E-003  0.1359082E+03  0.7818608E-02  0.1231012E+00
          1   -1    0    0  501    0  0.00000000000E+00  0.00000000000E+00  0.62426366085E+03  0.62426366087E+03  0.50400000000E-02 0. -1.
         -1   -1    0    0    0  501 -0.00000000000E+00 -0.00000000000E+00 -0.23606689283E+02  0.23606689821E+02  0.50400000000E-02 0.  1.
         25    2    1    2    0    0 -0.17635736580E+02  0.50355472817E+02  0.30591311176E+03  0.33474447460E+03  0.12499735388E+03 0.  0.
         23    2    1    2    0    0  0.17635736580E+02 -0.50355472817E+02  0.29474385980E+03  0.31312587609E+03  0.91253375506E+02 0.  0.
        -13    1    4    4    0    0  0.40768810880E+02  0.57927264502E+01  0.16198749691E+03  0.16713949844E+03  0.10566000000E+00 0. -1.
         13    1    4    4    0    0 -0.23133074300E+02 -0.56148199267E+02  0.13275636289E+03  0.14598637765E+03  0.10566000000E+00 0.  1.
    9000005    1    3    3    0    0  0.52417654463E+02  0.37908003468E+02  0.15040252061E+03  0.16372704551E+03  0.10000000000E+01 0.  0.
    9000005    1    3    3    0    0 -0.70053391043E+02  0.12447469350E+02  0.15551059115E+03  0.17101742908E+03  0.10000000000E+01 0.  0.
<mgrwt>
<rscale>  0 0.12763202E+03</rscale>
<asrwt>0</asrwt>
<pdfrwt beam="1">  1        1 0.96040574E-01 0.13590817E+03</pdfrwt>
<pdfrwt beam="2">  1       -1 0.36317980E-02 0.13590817E+03</pdfrwt>
<totfact> 0.90463685E+03</totfact>
</mgrwt>
</event>
<event>
 8    3  0.1508318E-003  0.1582775E+03  0.7818608E-02  0.1198805E+00
         -1   -1    0    0    0  501 -0.00000000000E+00  0.00000000000E+00  0.10763800139E+03  0.10763800151E+03  0.50400000000E-02 0.  1.
          1   -1    0    0  501    0  0.00000000000E+00 -0.00000000000E+00 -0.22142518792E+03  0.22142518798E+03  0.50400000000E-02 0. -1.
         25    2    1    2    0    0 -0.13974211638E+01 -0.97082064323E+02 -0.11668920192E+03  0.19664218283E+03  0.12499959289E+03 0.  0.
         23    2    1    2    0    0  0.13974211638E+01  0.97082064323E+02  0.29020153919E+01  0.13242100666E+03  0.90000118401E+02 0.  0.
        -13    1    4    4    0    0  0.27591379359E+02  0.52320979439E+02 -0.34502158700E+02  0.68477581904E+02  0.10566000000E+00 0. -1.
         13    1    4    4    0    0 -0.26193958196E+02  0.44761084883E+02  0.37404174091E+02  0.63943424755E+02  0.10566000000E+00 0.  1.
    9000005    1    3    3    0    0  0.44051167147E+02 -0.35574504378E+02  0.58222380313E+00  0.56633820932E+02  0.10000000000E+01 0.  0.
    9000005    1    3    3    0    0 -0.45448588311E+02 -0.61507559945E+02 -0.11727142572E+03  0.14000836190E+03  0.10000000000E+01 0.  0.
<mgrwt>
<rscale>  0 0.15136574E+03</rscale>
<asrwt>0</asrwt>
<pdfrwt beam="2">  1        1 0.34065413E-01 0.15827754E+03</pdfrwt>
<pdfrwt beam="1">  1       -1 0.16559693E-01 0.15827754E+03</pdfrwt>
<totfact> 0.34340275E+03</totfact>
</mgrwt>
</event>
<event>
 8    3  0.1508318E-003  0.1465509E+03  0.7818608E-02  0.1214420E+00
          1   -1    0    0  501    0  0.00000000000E+00  0.00000000000E+00  0.60091335969E+03  0.60091335971E+03  0.50400000000E-02 0. -1.
         -1   -1    0    0    0  501 -0.00000000000E+00 -0.00000000000E+00 -0.31747027347E+02  0.31747027747E+02  0.50400000000E-02 0.  1.
         25    2    1    2    0    0 -0.34517100344E+02 -0.68268097483E+02  0.22595786852E+03  0.26932161659E+03  0.12500084585E+03 0.  0.
         23    2    1    2    0    0  0.34517100344E+02  0.68268097483E+02  0.34320846382E+03  0.36333877087E+03  0.91493439270E+02 0.  0.
        -13    1    4    4    0    0  0.57280467997E+02  0.12206178703E+02  0.15866412972E+03  0.16912823548E+03  0.10566000000E+00 0.  1.
         13    1    4    4    0    0 -0.22763367653E+02  0.56061918780E+02  0.18454433410E+03  0.19421053539E+03  0.10566000000E+00 0. -1.
    9000005    1    3    3    0    0 -0.43175145261E+02 -0.10190056386E+03  0.15676793826E+03  0.19189842248E+03  0.10000000000E+01 0.  0.
    9000005    1    3    3    0    0  0.86580449165E+01  0.33632466377E+02  0.69189930261E+02  0.77423194108E+02  0.10000000000E+01 0.  0.
<mgrwt>
<rscale>  0 0.13919235E+03</rscale>
<asrwt>0</asrwt>
<pdfrwt beam="1">  1        1 0.92448210E-01 0.14655093E+03</pdfrwt>
<pdfrwt beam="2">  1       -1 0.48841580E-02 0.14655093E+03</pdfrwt>
<totfact> 0.61893981E+03</totfact>
</mgrwt>
</event>
<event>
 8    3  0.1508318E-003  0.1600262E+03  0.7818608E-02  0.1196380E+00
         -1   -1    0    0    0  501 -0.00000000000E+00  0.00000000000E+00  0.48733443052E+02  0.48733443312E+02  0.50400000000E-02 0.  1.
          1   -1    0    0  501    0  0.00000000000E+00 -0.00000000000E+00 -0.47048306498E+03  0.47048306501E+03  0.50400000000E-02 0. -1.
         25    2    1    2    0    0 -0.76602127998E+02  0.64153820455E+02 -0.28602824205E+03  0.32775073678E+03  0.12499916605E+03 0.  0.
         23    2    1    2    0    0  0.76602127998E+02 -0.64153820455E+02 -0.13572137988E+03  0.19146577154E+03  0.90858406457E+02 0.  0.
        -13    1    4    4    0    0  0.27618050258E+02 -0.63576533012E+02 -0.12245705268E+03  0.14071415410E+03  0.10566000000E+00 0. -1.
         13    1    4    4    0    0  0.48984077740E+02 -0.57728744338E+00 -0.13264327199E+02  0.50751617442E+02  0.10566000000E+00 0.  1.
    9000005    1    3    3    0    0 -0.98301080830E+02  0.42341918908E+02 -0.27492457129E+03  0.29502620305E+03  0.10000000000E+01 0.  0.
    9000005    1    3    3    0    0  0.21698952832E+02  0.21811901547E+02 -0.11103670763E+02  0.32724533725E+02  0.10000000000E+01 0.  0.
<mgrwt>
<rscale>  0 0.15337975E+03</rscale>
<asrwt>0</asrwt>
<pdfrwt beam="2">  1        1 0.72382007E-01 0.16002622E+03</pdfrwt>
<pdfrwt beam="1">  1       -1 0.74974531E-02 0.16002622E+03</pdfrwt>
<totfact> 0.45339973E+03</totfact>
</mgrwt>
</event>
<event>
 8    3  0.1508318E-003  0.1725691E+03  0.7818608E-02  0.1181163E+00
          1   -1    0    0  501    0  0.00000000000E+00  0.00000000000E+00  0.22616495285E+03  0.22616495291E+03  0.50400000000E-02 0. -1.
         -1   -1    0    0    0  501 -0.00000000000E+00 -0.00000000000E+00 -0.13757832000E+03  0.13757832009E+03  0.50400000000E-02 0.  1.
         25    2    1    2    0    0  0.10435332756E+03  0.57136341974E+02 -0.25735269715E+02  0.17447747198E+03  0.12500362224E+03 0.  0.
         23    2    1    2    0    0 -0.10435332756E+03 -0.57136341974E+02  0.11432190257E+03  0.18926580102E+03  0.92724686459E+02 0.  0.
        -13    1    4    4    0    0 -0.74284747145E+02 -0.63036120164E+02  0.12347789529E+03  0.15728502120E+03  0.10566000000E+00 0. -1.
         13    1    4    4    0    0 -0.30068580419E+02  0.58997781899E+01 -0.91559927188E+01  0.31980779819E+02  0.10566000000E+00 0.  1.
    9000005    1    3    3    0    0 -0.68694093639E+01 -0.26922351655E+02 -0.21238920263E+02  0.34987048140E+02  0.10000000000E+01 0.  0.
    9000005    1    3    3    0    0  0.11122273693E+03  0.84058693629E+02 -0.44963494520E+01  0.13949042384E+03  0.10000000000E+01 0.  0.
<mgrwt>
<rscale>  0 0.16685905E+03</rscale>
<asrwt>0</asrwt>
<pdfrwt beam="1">  1        1 0.34794608E-01 0.17256907E+03</pdfrwt>
<pdfrwt beam="2">  1       -1 0.21165895E-01 0.17256907E+03</pdfrwt>
<totfact> 0.22640493E+03</totfact>
</mgrwt>
</event>
<event>
 8    3  0.1508318E-003  0.1461354E+03  0.7818608E-02  0.1215455E+00
          1   -1    0    0  501    0  0.00000000000E+00  0.00000000000E+00  0.36556937334E+03  0.36556937337E+03  0.50400000000E-02 0. -1.
         -1   -1    0    0    0  501 -0.00000000000E+00 -0.00000000000E+00 -0.51377927164E+02  0.51377927411E+02  0.50400000000E-02 0.  1.
         25    2    1    2    0    0 -0.39554435025E+02  0.64546009686E+02  0.11652106424E+03  0.18690295819E+03  0.12499926669E+03 0.  0.
         23    2    1    2    0    0  0.39554435025E+02 -0.64546009686E+02  0.19767038193E+03  0.23004434259E+03  0.90089283322E+02 0.  0.
        -13    1    4    4    0    0 -0.21343520624E+02 -0.32147591678E+02  0.12055100257E+03  0.12657633629E+03  0.10566000000E+00 0. -1.
         13    1    4    4    0    0  0.60897955648E+02 -0.32398418008E+02  0.77119379361E+02  0.10346800630E+03  0.10566000000E+00 0.  1.
    9000005    1    3    3    0    0  0.12075267121E+02 -0.24472519673E+02  0.67695186126E+02  0.72995578769E+02  0.10000000000E+01 0.  0.
    9000005    1    3    3    0    0 -0.51629702145E+02  0.89018529359E+02  0.48825878116E+02  0.11390737942E+03  0.10000000000E+01 0.  0.
<mgrwt>
<rscale>  0 0.13843163E+03</rscale>
<asrwt>0</asrwt>
<pdfrwt beam="1">  1        1 0.56241440E-01 0.14613541E+03</pdfrwt>
<pdfrwt beam="2">  1       -1 0.79042968E-02 0.14613541E+03</pdfrwt>
<totfact> 0.57435002E+03</totfact>
</mgrwt>
</event>
<event>
 8    3  0.1508318E-003  0.1319647E+03  0.7818608E-02  0.1237999E+00
          1   -1    0    0  501    0  0.00000000000E+00  0.00000000000E+00  0.48551901513E+03  0.48551901515E+03  0.50400000000E-02 0. -1.
         -1   -1    0    0    0  501 -0.00000000000E+00 -0.00000000000E+00 -0.28100207763E+02  0.28100208215E+02  0.50400000000E-02 0.  1.
         25    2    1    2    0    0  0.24354356583E+02 -0.34589994825E+02  0.23019483713E+03  0.26533816768E+03  0.12500031104E+03 0.  0.
         23    2    1    2    0    0 -0.24354356583E+02  0.34589994825E+02  0.22722397023E+03  0.24828105569E+03  0.90681572206E+02 0.  0.
        -13    1    4    4    0    0  0.20960743132E+02 -0.20093541049E+02  0.67362140816E+02  0.73353747851E+02  0.10566000000E+00 0.  1.
         13    1    4    4    0    0 -0.45315099714E+02  0.54683535873E+02  0.15986182942E+03  0.17492730784E+03  0.10566000000E+00 0. -1.
    9000005    1    3    3    0    0 -0.49964522342E+02 -0.20258120192E+02  0.12100795135E+03  0.13247931618E+03  0.10000000000E+01 0.  0.
    9000005    1    3    3    0    0  0.74318878924E+02 -0.14331874632E+02  0.10918688578E+03  0.13285885150E+03  0.10000000000E+01 0.  0.
<mgrwt>
<rscale>  0 0.12314378E+03</rscale>
<asrwt>0</asrwt>
<pdfrwt beam="1">  1        1 0.74695231E-01 0.13196469E+03</pdfrwt>
<pdfrwt beam="2">  1       -1 0.43231090E-02 0.13196469E+03</pdfrwt>
<totfact> 0.97736460E+03</totfact>
</mgrwt>
</event>
<event>
 8    3  0.1508318E-003  0.1463892E+03  0.7818608E-02  0.1214802E+00
         -1   -1    0    0    0  501 -0.00000000000E+00  0.00000000000E+00  0.42098052630E+03  0.42098052633E+03  0.50400000000E-02 0.  1.
          1   -1    0    0  501    0  0.00000000000E+00 -0.00000000000E+00 -0.44133055531E+02  0.44133055819E+02  0.50400000000E-02 0. -1.
         25    2    1    2    0    0  0.66032003736E+02 -0.38013128891E+02  0.15303416285E+03  0.21177640099E+03  0.12499826211E+03 0.  0.
         23    2    1    2    0    0 -0.66032003736E+02  0.38013128891E+02  0.22381330791E+03  0.25333718116E+03  0.91006082613E+02 0.  0.
        -13    1    4    4    0    0 -0.45619697446E+02  0.62008335656E+02  0.10363528428E+03  0.12909869790E+03  0.10566000000E+00 0.  1.
         13    1    4    4    0    0 -0.20412306290E+02 -0.23995206765E+02  0.12017802363E+03  0.12423848326E+03  0.10566000000E+00 0. -1.
    9000005    1    3    3    0    0 -0.28791152211E+02  0.19985502450E+02  0.32451017141E+02  0.47774671818E+02  0.10000000000E+01 0.  0.
    9000005    1    3    3    0    0  0.94823155947E+02 -0.57998631341E+02  0.12058314571E+03  0.16400172917E+03  0.10000000000E+01 0.  0.
<mgrwt>
<rscale>  0 0.13891057E+03</rscale>
<asrwt>0</asrwt>
<pdfrwt beam="2">  1        1 0.67897007E-02 0.14638917E+03</pdfrwt>
<pdfrwt beam="1">  1       -1 0.64766237E-01 0.14638917E+03</pdfrwt>
<totfact> 0.26447485E+03</totfact>
</mgrwt>
</event>
<event>
 8    3  0.1508318E-003  0.1362179E+03  0.7818608E-02  0.1230833E+00
         -1   -1    0    0    0  501 -0.00000000000E+00  0.00000000000E+00  0.74811552148E+02  0.74811552318E+02  0.50400000000E-02 0.  1.
          1   -1    0    0  501    0  0.00000000000E+00 -0.00000000000E+00 -0.27834537310E+03  0.27834537314E+03  0.50400000000E-02 0. -1.
         25    2    1    2    0    0  0.50546306471E+02 -0.19379548122E+02 -0.20691388260E+03  0.24772702674E+03  0.12499931593E+03 0.  0.
         23    2    1    2    0    0 -0.50546306471E+02  0.19379548122E+02  0.33800616492E+01  0.10542989872E+03  0.90407647595E+02 0.  0.
        -13    1    4    4    0    0 -0.25835314012E+02 -0.91981860692E+01 -0.39623356277E+02  0.48188085703E+02  0.10566000000E+00 0. -1.
         13    1    4    4    0    0 -0.24710992460E+02  0.28577734191E+02  0.43003417926E+02  0.57241813015E+02  0.10566000000E+00 0.  1.
    9000005    1    3    3    0    0  0.84254069985E+02 -0.42014025034E+02 -0.16025964944E+03  0.18587114313E+03  0.10000000000E+01 0.  0.
    9000005    1    3    3    0    0 -0.33707763514E+02  0.22634476912E+02 -0.46654233154E+02  0.61855883612E+02  0.10000000000E+01 0.  0.
<mgrwt>
<rscale>  0 0.12774998E+03</rscale>
<asrwt>0</asrwt>
<pdfrwt beam="2">  1        1 0.42822365E-01 0.13621793E+03</pdfrwt>
<pdfrwt beam="1">  1       -1 0.11509470E-01 0.13621793E+03</pdfrwt>
<totfact> 0.45283888E+03</totfact>
</mgrwt>
</event>
<event>
 8    3  0.1508318E-003  0.1607437E+03  0.7818608E-02  0.1195553E+00
          1   -1    0    0  501    0  0.00000000000E+00  0.00000000000E+00  0.22564672147E+02  0.22564672710E+02  0.50400000000E-02 0. -1.
         -1   -1    0    0    0  501 -0.00000000000E+00 -0.00000000000E+00 -0.10093191271E+04  0.10093191271E+04  0.50400000000E-02 0.  1.
         25    2    1    2    0    0  0.73222310018E+02  0.69678733824E+02 -0.43677871236E+03  0.46541828170E+03  0.12498760234E+03 0.  0.
         23    2    1    2    0    0 -0.73222310018E+02 -0.69678733824E+02 -0.54997574260E+03  0.56646551813E+03  0.90516479985E+02 0.  0.
        -13    1    4    4    0    0 -0.55228962006E+02 -0.81169095541E+02 -0.52263697777E+03  0.53177822634E+03  0.10566000000E+00 0.  1.
         13    1    4    4    0    0 -0.17993348012E+02  0.11490361717E+02 -0.27338764835E+02  0.34687291791E+02  0.10566000000E+00 0. -1.
    9000005    1    3    3    0    0  0.16105721295E+02 -0.24657610440E+02 -0.22231893265E+03  0.22426346074E+03  0.10000000000E+01 0.  0.
    9000005    1    3    3    0    0  0.57116588723E+02  0.94336344264E+02 -0.21445977971E+03  0.24115482096E+03  0.10000000000E+01 0.  0.
<mgrwt>
<rscale>  0 0.15407486E+03</rscale>
<asrwt>0</asrwt>
<pdfrwt beam="1">  1        1 0.34714888E-02 0.16074369E+03</pdfrwt>
<pdfrwt beam="2">  1       -1 0.15527983E+00 0.16074369E+03</pdfrwt>
<totfact> 0.94534155E+02</totfact>
</mgrwt>
</event>
<event>
 8    3  0.1508318E-003  0.1407686E+03  0.7818608E-02  0.1223260E+00
         -1   -1    0    0    0  501 -0.00000000000E+00  0.00000000000E+00  0.18750967820E+02  0.18750968497E+02  0.50400000000E-02 0.  1.
          1   -1    0    0  501    0  0.00000000000E+00 -0.00000000000E+00 -0.94444868613E+03  0.94444868614E+03  0.50400000000E-02 0. -1.
         25    2    1    2    0    0  0.62283023230E+02  0.17652186754E+02 -0.66210722277E+03  0.67690602493E+03  0.12500006986E+03 0.  0.
         23    2    1    2    0    0 -0.62283023230E+02 -0.17652186754E+02 -0.26359049554E+03  0.28629362971E+03  0.91067658327E+02 0.  0.
        -13    1    4    4    0    0 -0.41194674025E+02 -0.52298733005E+02 -0.12169433924E+03  0.13871439006E+03  0.10566000000E+00 0.  1.
         13    1    4    4    0    0 -0.21088349205E+02  0.34646546251E+02 -0.14189615630E+03  0.14757923965E+03  0.10566000000E+00 0. -1.
    9000005    1    3    3    0    0  0.10688787821E+02 -0.26553632070E+02 -0.50403407482E+03  0.50484719880E+03  0.10000000000E+01 0.  0.
    9000005    1    3    3    0    0  0.51594235409E+02  0.44205818824E+02 -0.15807314795E+03  0.17205882613E+03  0.10000000000E+01 0.  0.
<mgrwt>
<rscale>  0 0.13286908E+03</rscale>
<asrwt>0</asrwt>
<pdfrwt beam="2">  1        1 0.14529976E+00 0.14076858E+03</pdfrwt>
<pdfrwt beam="1">  1       -1 0.28847651E-02 0.14076858E+03</pdfrwt>
<totfact> 0.68461477E+03</totfact>
</mgrwt>
</event>
<event>
 8    3  0.1508318E-003  0.1278553E+03  0.7818608E-02  0.1245451E+00
         -1   -1    0    0    0  501 -0.00000000000E+00  0.00000000000E+00  0.53092629151E+02  0.53092629390E+02  0.50400000000E-02 0.  1.
          1   -1    0    0  501    0  0.00000000000E+00 -0.00000000000E+00 -0.23825957694E+03  0.23825957700E+03  0.50400000000E-02 0. -1.
         25    2    1    2    0    0 -0.25259759715E+02 -0.91764279181E+01 -0.84804165791E+02  0.15342333924E+03  0.12499884879E+03 0.  0.
         23    2    1    2    0    0  0.25259759715E+02  0.91764279181E+01 -0.10036278200E+03  0.13792886714E+03  0.90716162232E+02 0.  0.
        -13    1    4    4    0    0  0.39427280138E+02  0.69825679291E+01 -0.37031936581E+01  0.40211832603E+02  0.10566000000E+00 0.  1.
         13    1    4    4    0    0 -0.14167520423E+02  0.21938599890E+01 -0.96659588344E+02  0.97717034540E+02  0.10566000000E+00 0. -1.
    9000005    1    3    3    0    0 -0.65226025641E+02  0.13560891043E+01 -0.90627923990E+02  0.11167226158E+03  0.10000000000E+01 0.  0.
    9000005    1    3    3    0    0  0.39966265926E+02 -0.10532517022E+02  0.58237581994E+01  0.41751077669E+02  0.10000000000E+01 0.  0.
<mgrwt>
<rscale>  0 0.11858428E+03</rscale>
<asrwt>0</asrwt>
<pdfrwt beam="2">  1        1 0.36655319E-01 0.12785529E+03</pdfrwt>
<pdfrwt beam="1">  1       -1 0.81680970E-02 0.12785529E+03</pdfrwt>
<totfact> 0.92112586E+03</totfact>
</mgrwt>
</event>
<event>
 8    3  0.1508318E-003  0.1392022E+03  0.7818608E-02  0.1224937E+00
         -1   -1    0    0    0  501 -0.00000000000E+00  0.00000000000E+00  0.19618951625E+03  0.19618951631E+03  0.50400000000E-02 0.  1.
          1   -1    0    0  501    0  0.00000000000E+00 -0.00000000000E+00 -0.87004931496E+02  0.87004931642E+02  0.50400000000E-02 0. -1.
         25    2    1    2    0    0 -0.48539682947E+02 -0.37380164051E+02  0.20574959640E+02  0.14071451535E+03  0.12499547345E+03 0.  0.
         23    2    1    2    0    0  0.48539682947E+02  0.37380164051E+02  0.88609625114E+02  0.14247993260E+03  0.93249600784E+02 0.  0.
        -13    1    4    4    0    0  0.25549621115E+00  0.56307235919E+02  0.28564799635E+02  0.63138966078E+02  0.10566000000E+00 0. -1.
         13    1    4    4    0    0  0.48284186736E+02 -0.18927071867E+02  0.60044825479E+02  0.79340966525E+02  0.10566000000E+00 0.  1.
    9000005    1    3    3    0    0 -0.46099389992E+02 -0.50988090939E+02  0.64736611912E+02  0.94428640238E+02  0.10000000000E+01 0.  0.
    9000005    1    3    3    0    0 -0.24402929553E+01  0.13607926888E+02 -0.44161652272E+02  0.46285875116E+02  0.10000000000E+01 0.  0.
<mgrwt>
<rscale>  0 0.13171212E+03</rscale>
<asrwt>0</asrwt>
<pdfrwt beam="2">  1        1 0.13385374E-01 0.13920218E+03</pdfrwt>
<pdfrwt beam="1">  1       -1 0.30183003E-01 0.13920218E+03</pdfrwt>
<totfact> 0.42048270E+03</totfact>
</mgrwt>
</event>
<event>
 8    3  0.1508318E-003  0.1711454E+03  0.7818608E-02  0.1183910E+00
          1   -1    0    0  501    0  0.00000000000E+00  0.00000000000E+00  0.38730581533E+03  0.38730581537E+03  0.50400000000E-02 0.  1.
         -1   -1    0    0    0  501 -0.00000000000E+00 -0.00000000000E+00 -0.68758304905E+02  0.68758305090E+02  0.50400000000E-02 0. -1.
         25    2    1    2    0    0 -0.97000790768E+02  0.65241269556E+02  0.22678592592E+03  0.28411722121E+03  0.12500065012E+03 0.  0.
         23    2    1    2    0    0  0.97000790768E+02 -0.65241269556E+02  0.91761584504E+02  0.17194689924E+03  0.86486826199E+02 0.  0.
        -13    1    4    4    0    0  0.73606751927E+02  0.24378846950E+01  0.50548855090E+02  0.89325780858E+02  0.10566000000E+00 0.  1.
         13    1    4    4    0    0  0.23394038841E+02 -0.67679154251E+02  0.41212729414E+02  0.82621118385E+02  0.10566000000E+00 0. -1.
    9000005    1    3    3    0    0  0.23684106324E+02  0.26183958199E+02  0.17570967184E+02  0.39449657123E+02  0.10000000000E+01 0.  0.
    9000005    1    3    3    0    0 -0.12068489709E+03  0.39057311357E+02  0.20921495874E+03  0.24466756409E+03  0.10000000000E+01 0.  0.
<mgrwt>
<rscale>  0 0.16431463E+03</rscale>
<asrwt>0</asrwt>
<pdfrwt beam="1">  1        1 0.59585510E-01 0.17114537E+03</pdfrwt>
<pdfrwt beam="2">  1       -1 0.10578201E-01 0.17114537E+03</pdfrwt>
<totfact> 0.34512607E+03</totfact>
</mgrwt>
</event>
<event>
 8    3  0.1508318E-003  0.1402480E+03  0.7818608E-02  0.1232382E+00
          1   -1    0    0  501    0  0.00000000000E+00  0.00000000000E+00  0.24128512456E+03  0.24128512462E+03  0.50400000000E-02 0. -1.
         -1   -1    0    0    0  501 -0.00000000000E+00 -0.00000000000E+00 -0.57031038223E+02  0.57031038446E+02  0.50400000000E-02 0.  1.
         25    2    1    2    0    0 -0.63640068500E+02 -0.30503890820E+01  0.98013086133E+02  0.17110251667E+03  0.12494055773E+03 0.  0.
         23    2    1    2    0    0  0.63640068500E+02  0.30503890820E+01  0.86241000207E+02  0.12721364639E+03  0.68457567289E+02 0.  0.
        -13    1    4    4    0    0  0.23528907652E+02  0.18667686918E+01 -0.78892151870E+01  0.24886647041E+02  0.10566000000E+00 0.  1.
         13    1    4    4    0    0  0.40111160848E+02  0.11836203902E+01  0.94130215394E+02  0.10232699935E+03  0.10566000000E+00 0. -1.
    9000005    1    3    3    0    0 -0.38148906465E+02  0.60631681750E+02  0.50752428683E+02  0.87797203335E+02  0.10000000000E+01 0.  0.
    9000005    1    3    3    0    0 -0.25491162035E+02 -0.63682070832E+02  0.47260657450E+02  0.83305313336E+02  0.10000000000E+01 0.  0.
<mgrwt>
<rscale>  0 0.12673527E+03</rscale>
<asrwt>0</asrwt>
<pdfrwt beam="1">  1        1 0.37120787E-01 0.14024802E+03</pdfrwt>
<pdfrwt beam="2">  1       -1 0.87740062E-02 0.14024802E+03</pdfrwt>
<totfact> 0.81941036E+03</totfact>
</mgrwt>
</event>
<event>
 8    3  0.1508318E-003  0.1418352E+03  0.7818608E-02  0.1222274E+00
          1   -1    0    0  501    0  0.00000000000E+00  0.00000000000E+00  0.28599999984E+02  0.28600000428E+02  0.50400000000E-02 0. -1.
         -1   -1    0    0    0  501 -0.00000000000E+00 -0.00000000000E+00 -0.67319212160E+03  0.67319212162E+03  0.50400000000E-02 0.  1.
         25    2    1    2    0    0 -0.63049538812E+02  0.22752666552E+02 -0.21207701282E+03  0.25513504553E+03  0.12499721562E+03 0.  0.
         23    2    1    2    0    0  0.63049538812E+02 -0.22752666552E+02 -0.43251510879E+03  0.44665707652E+03  0.89108341283E+02 0.  0.
        -13    1    4    4    0    0  0.56345228229E+02  0.18125952233E+02 -0.34237993274E+03  0.34745843550E+03  0.10566000000E+00 0.  1.
         13    1    4    4    0    0  0.67043105834E+01 -0.40878618785E+02 -0.90135176053E+02  0.99198641021E+02  0.10566000000E+00 0. -1.
    9000005    1    3    3    0    0  0.21077666590E+02  0.29983108671E+02 -0.13019633247E+02  0.38907141816E+02  0.10000000000E+01 0.  0.
    9000005    1    3    3    0    0 -0.84127205402E+02 -0.72304421183E+01 -0.19905737958E+03  0.21622790372E+03  0.10000000000E+01 0.  0.
<mgrwt>
<rscale>  0 0.13355528E+03</rscale>
<asrwt>0</asrwt>
<pdfrwt beam="1">  1        1 0.44000005E-02 0.14183523E+03</pdfrwt>
<pdfrwt beam="2">  1       -1 0.10356801E+00 0.14183523E+03</pdfrwt>
<totfact> 0.18060650E+03</totfact>
</mgrwt>
</event>
<event>
 8    3  0.1508318E-003  0.1293062E+03  0.7818608E-02  0.1243476E+00
         -1   -1    0    0    0  501 -0.00000000000E+00  0.00000000000E+00  0.28185559314E+02  0.28185559765E+02  0.50400000000E-02 0.  1.
          1   -1    0    0  501    0  0.00000000000E+00 -0.00000000000E+00 -0.59675433858E+03  0.59675433860E+03  0.50400000000E-02 0. -1.
         25    2    1    2    0    0 -0.17941930642E+02 -0.27799635069E+02 -0.16147574243E+03  0.20686833579E+03  0.12500144148E+03 0.  0.
         23    2    1    2    0    0  0.17941930642E+02  0.27799635069E+02 -0.40709303683E+03  0.41807156257E+03  0.89243253041E+02 0.  0.
        -13    1    4    4    0    0 -0.10132887138E+02  0.32686121951E+02 -0.54662340576E+02  0.64490624212E+02  0.10566000000E+00 0.  1.
         13    1    4    4    0    0  0.28074817780E+02 -0.48864868825E+01 -0.35243069625E+03  0.35358093836E+03  0.10566000000E+00 0. -1.
    9000005    1    3    3    0    0 -0.36009376987E+02  0.19540494681E+02 -0.14919480438E+03  0.15472102578E+03  0.10000000000E+01 0.  0.
    9000005    1    3    3    0    0  0.18067446345E+02 -0.47340129749E+02 -0.12280938055E+02  0.52147310014E+02  0.10000000000E+01 0.  0.
<mgrwt>
<rscale>  0 0.11977056E+03</rscale>
<asrwt>0</asrwt>
<pdfrwt beam="2">  1        1 0.91808350E-01 0.12930620E+03</pdfrwt>
<pdfrwt beam="1">  1       -1 0.43362404E-02 0.12930620E+03</pdfrwt>
<totfact> 0.73948186E+03</totfact>
</mgrwt>
</event>
<event>
 8    3  0.1508318E-003  0.1289692E+03  0.7818608E-02  0.1243652E+00
          1   -1    0    0  501    0  0.00000000000E+00  0.00000000000E+00  0.47802432175E+02  0.47802432441E+02  0.50400000000E-02 0. -1.
         -1   -1    0    0    0  501 -0.00000000000E+00 -0.00000000000E+00 -0.27559524899E+03  0.27559524903E+03  0.50400000000E-02 0.  1.
         25    2    1    2    0    0  0.29924156494E+02 -0.10590774339E+02 -0.96884745151E+02  0.16130628677E+03  0.12500177865E+03 0.  0.
         23    2    1    2    0    0 -0.29924156494E+02  0.10590774339E+02 -0.13090807166E+03  0.16209139470E+03  0.90161396218E+02 0.  0.
        -13    1    4    4    0    0 -0.12339930751E+02  0.21456253732E+02  0.44631940800E+01  0.25151063209E+02  0.10566000000E+00 0. -1.
         13    1    4    4    0    0 -0.17584225743E+02 -0.10865479393E+02 -0.13537126574E+03  0.13694033149E+03  0.10566000000E+00 0.  1.
    9000005    1    3    3    0    0 -0.25482943119E+02  0.32013847285E+02  0.10988947959E+01  0.40944772288E+02  0.10000000000E+01 0.  0.
    9000005    1    3    3    0    0  0.55407099613E+02 -0.42604621624E+02 -0.97983639947E+02  0.12036151448E+03  0.10000000000E+01 0.  0.
<mgrwt>
<rscale>  0 0.11966393E+03</rscale>
<asrwt>0</asrwt>
<pdfrwt beam="1">  1        1 0.73542206E-02 0.12896924E+03</pdfrwt>
<pdfrwt beam="2">  1       -1 0.42399268E-01 0.12896924E+03</pdfrwt>
<totfact> 0.51536513E+03</totfact>
</mgrwt>
</event>
<event>
 8    3  0.1508318E-003  0.1559569E+03  0.7818608E-02  0.1201497E+00
         -1   -1    0    0    0  501 -0.00000000000E+00  0.00000000000E+00  0.63440081673E+02  0.63440081874E+02  0.50400000000E-02 0.  1.
          1   -1    0    0  501    0  0.00000000000E+00 -0.00000000000E+00 -0.36313544965E+03  0.36313544968E+03  0.50400000000E-02 0. -1.
         25    2    1    2    0    0 -0.92038098756E+02 -0.14934020808E+02 -0.23197009373E+03  0.27952223053E+03  0.12501406471E+03 0.  0.
         23    2    1    2    0    0  0.92038098756E+02  0.14934020808E+02 -0.67725274246E+02  0.14705330103E+03  0.91345081810E+02 0.  0.
        -13    1    4    4    0    0  0.79777108979E+02  0.63522527242E+01 -0.89861677264E+02  0.12033233330E+03  0.10566000000E+00 0. -1.
         13    1    4    4    0    0  0.12260989777E+02  0.85817680833E+01  0.22136403019E+02  0.26720967729E+02  0.10566000000E+00 0.  1.
    9000005    1    3    3    0    0 -0.97790241178E+02  0.24832674351E+02 -0.21168179811E+03  0.23449899069E+03  0.10000000000E+01 0.  0.
    9000005    1    3    3    0    0  0.57521424227E+01 -0.39766695159E+02 -0.20288295619E+02  0.45023239837E+02  0.10000000000E+01 0.  0.
<mgrwt>
<rscale>  0 0.14916971E+03</rscale>
<asrwt>0</asrwt>
<pdfrwt beam="2">  1        1 0.55866991E-01 0.15595689E+03</pdfrwt>
<pdfrwt beam="1">  1       -1 0.97600128E-02 0.15595689E+03</pdfrwt>
<totfact> 0.42183064E+03</totfact>
</mgrwt>
</event>
<event>
 8    3  0.1508318E-003  0.2502686E+03  0.7818608E-02  0.1115620E+00
          1   -1    0    0  501    0  0.00000000000E+00  0.00000000000E+00  0.14567412081E+03  0.14567412089E+03  0.50400000000E-02 0. -1.
         -1   -1    0    0    0  501 -0.00000000000E+00 -0.00000000000E+00 -0.62487302730E+03  0.62487302732E+03  0.50400000000E-02 0.  1.
         25    2    1    2    0    0  0.20420825616E+03  0.72857647338E+02 -0.15580629224E+02  0.25075310867E+03  0.12500046737E+03 0.  0.
         23    2    1    2    0    0 -0.20420825616E+03 -0.72857647338E+02 -0.46361827727E+03  0.51979403954E+03  0.90745180927E+02 0.  0.
        -13    1    4    4    0    0 -0.12305817684E+03 -0.34193302054E+02 -0.16941671762E+03  0.21216628424E+03  0.10566000000E+00 0. -1.
         13    1    4    4    0    0 -0.81150079321E+02 -0.38664345284E+02 -0.29420155964E+03  0.30762775530E+03  0.10566000000E+00 0.  1.
    9000005    1    3    3    0    0  0.10527201042E+03 -0.22238267470E+02 -0.32696283290E+02  0.11245791950E+03  0.10000000000E+01 0.  0.
    9000005    1    3    3    0    0  0.98936245743E+02  0.95095914808E+02  0.17115654065E+02  0.13829518918E+03  0.10000000000E+01 0.  0.
<mgrwt>
<rscale>  0 0.24637142E+03</rscale>
<asrwt>0</asrwt>
<pdfrwt beam="1">  1        1 0.22411404E-01 0.25026859E+03</pdfrwt>
<pdfrwt beam="2">  1       -1 0.96134311E-01 0.25026859E+03</pdfrwt>
<totfact> 0.24390676E+02</totfact>
</mgrwt>
</event>
<event>
 8    3  0.1508318E-003  0.1348000E+03  0.7818608E-02  0.1232494E+00
         -1   -1    0    0    0  501 -0.00000000000E+00  0.00000000000E+00  0.86695013174E+03  0.86695013175E+03  0.50400000000E-02 0.  1.
          1   -1    0    0  501    0  0.00000000000E+00 -0.00000000000E+00 -0.16703880462E+02  0.16703881222E+02  0.50400000000E-02 0. -1.
         25    2    1    2    0    0 -0.50447593132E+02  0.12268467630E+01  0.44177279615E+03  0.46188120022E+03  0.12499829956E+03 0.  0.
         23    2    1    2    0    0  0.50447593132E+02 -0.12268467630E+01  0.40847345512E+03  0.42177281275E+03  0.92169828199E+02 0.  0.
        -13    1    4    4    0    0  0.37229456349E+02  0.35097169729E+02  0.33369299690E+03  0.33759275923E+03  0.10566000000E+00 0.  1.
         13    1    4    4    0    0  0.13218136783E+02 -0.36324016492E+02  0.74780458223E+02  0.84180053518E+02  0.10566000000E+00 0. -1.
    9000005    1    3    3    0    0 -0.44003236725E+01  0.59856884814E+02  0.21009662112E+03  0.21850354623E+03  0.10000000000E+01 0.  0.
    9000005    1    3    3    0    0 -0.46047269460E+02 -0.58630038051E+02  0.23167617504E+03  0.24337765400E+03  0.10000000000E+01 0.  0.
<mgrwt>
<rscale>  0 0.12666223E+03</rscale>
<asrwt>0</asrwt>
<pdfrwt beam="2">  1        1 0.25698273E-02 0.13480000E+03</pdfrwt>
<pdfrwt beam="1">  1       -1 0.13337697E+00 0.13480000E+03</pdfrwt>
<totfact> 0.20988966E+03</totfact>
</mgrwt>
</event>
<event>
 8    3  0.1508318E-003  0.2490571E+03  0.7818608E-02  0.1116389E+00
          1   -1    0    0  501    0  0.00000000000E+00  0.00000000000E+00  0.62944662376E+03  0.62944662378E+03  0.50400000000E-02 0. -1.
         -1   -1    0    0    0  501 -0.00000000000E+00 -0.00000000000E+00 -0.10201129905E+03  0.10201129917E+03  0.50400000000E-02 0.  1.
         25    2    1    2    0    0  0.82403161471E+01 -0.21525945272E+03  0.38201416102E+03  0.45603096424E+03  0.12499954531E+03 0.  0.
         23    2    1    2    0    0 -0.82403161471E+01  0.21525945272E+03  0.14542116369E+03  0.27542695872E+03  0.91149108305E+02 0.  0.
        -13    1    4    4    0    0  0.12249662785E+02  0.15459482208E+03  0.54821783513E+02  0.16448420096E+03  0.10566000000E+00 0.  1.
         13    1    4    4    0    0 -0.20489978932E+02  0.60664630633E+02  0.90599380177E+02  0.11094275776E+03  0.10566000000E+00 0. -1.
    9000005    1    3    3    0    0 -0.41579174854E+02 -0.17607322649E+02  0.73067238613E+02  0.85899167347E+02  0.10000000000E+01 0.  0.
    9000005    1    3    3    0    0  0.49819491001E+02 -0.19765213007E+03  0.30894692241E+03  0.37013179689E+03  0.10000000000E+01 0.  0.
<mgrwt>
<rscale>  0 0.24518007E+03</rscale>
<asrwt>0</asrwt>
<pdfrwt beam="1">  1        1 0.96837940E-01 0.24905706E+03</pdfrwt>
<pdfrwt beam="2">  1       -1 0.15694046E-01 0.24905706E+03</pdfrwt>
<totfact> 0.98444774E+02</totfact>
</mgrwt>
</event>
<event>
 8    3  0.1508318E-003  0.1412751E+03  0.7818608E-02  0.1222121E+00
         -1   -1    0    0    0  501 -0.00000000000E+00  0.00000000000E+00  0.98574851965E+02  0.98574852094E+02  0.50400000000E-02 0.  1.
          1   -1    0    0  501    0  0.00000000000E+00 -0.00000000000E+00 -0.16439973584E+03  0.16439973592E+03  0.50400000000E-02 0. -1.
         25    2    1    2    0    0 -0.64115118278E+02  0.14901844267E+02 -0.32344710805E+02  0.14493041442E+03  0.12500332536E+03 0.  0.
         23    2    1    2    0    0  0.64115118278E+02 -0.14901844267E+02 -0.33480173070E+02  0.11804417360E+03  0.92090670411E+02 0.  0.
        -13    1    4    4    0    0  0.72550879111E+02  0.16617357586E+02 -0.47696034086E+01  0.74582349880E+02  0.10566000000E+00 0.  1.
         13    1    4    4    0    0 -0.84357608337E+01 -0.31519201853E+02 -0.28710569662E+02  0.43461823715E+02  0.10566000000E+00 0. -1.
    9000005    1    3    3    0    0 -0.12579447837E+02 -0.49529583724E+02  0.10162443080E+02  0.52112353824E+02  0.10000000000E+01 0.  0.
    9000005    1    3    3    0    0 -0.51535670441E+02  0.64431427991E+02 -0.42507153885E+02  0.92818060592E+02  0.10000000000E+01 0.  0.
<mgrwt>
<rscale>  0 0.13366190E+03</rscale>
<asrwt>0</asrwt>
<pdfrwt beam="2">  1        1 0.25292267E-01 0.14127507E+03</pdfrwt>
<pdfrwt beam="1">  1       -1 0.15165362E-01 0.14127507E+03</pdfrwt>
<totfact> 0.56867867E+03</totfact>
</mgrwt>
</event>
<event>
 8    3  0.1508318E-003  0.2543336E+03  0.7818608E-02  0.1113709E+00
          1   -1    0    0  501    0  0.00000000000E+00  0.00000000000E+00  0.48089241923E+03  0.48089241926E+03  0.50400000000E-02 0.  1.
         -1   -1    0    0    0  501 -0.00000000000E+00 -0.00000000000E+00 -0.14653333817E+03  0.14653333826E+03  0.50400000000E-02 0. -1.
         25    2    1    2    0    0 -0.14165809718E+03 -0.17027107783E+03  0.51193946698E+02  0.25943478072E+03  0.12500531519E+03 0.  0.
         23    2    1    2    0    0  0.14165809718E+03  0.17027107783E+03  0.28316513436E+03  0.36799097680E+03  0.78585044650E+02 0.  0.
        -13    1    4    4    0    0  0.10472787033E+03  0.77279989173E+02  0.12261088330E+03  0.17881153044E+03  0.10566000000E+00 0. -1.
         13    1    4    4    0    0  0.36930226848E+02  0.92991088659E+02  0.16055425107E+03  0.18917944636E+03  0.10566000000E+00 0.  1.
    9000005    1    3    3    0    0 -0.41429037585E+01 -0.52426339668E+02  0.57876324355E+02  0.78207120286E+02  0.10000000000E+01 0.  0.
    9000005    1    3    3    0    0 -0.13751519342E+03 -0.11784473816E+03 -0.66823776580E+01  0.18122766043E+03  0.10000000000E+01 0.  0.
<mgrwt>
<rscale>  0 0.24936154E+03</rscale>
<asrwt>0</asrwt>
<pdfrwt beam="1">  1        1 0.73983449E-01 0.25433361E+03</pdfrwt>
<pdfrwt beam="2">  1       -1 0.22543590E-01 0.25433361E+03</pdfrwt>
<totfact> 0.78969363E+02</totfact>
</mgrwt>
</event>
<event>
 8    3  0.1508318E-003  0.1395436E+03  0.7818608E-02  0.1225285E+00
          1   -1    0    0  501    0  0.00000000000E+00  0.00000000000E+00  0.28092850462E+03  0.28092850467E+03  0.50400000000E-02 0. -1.
         -1   -1    0    0    0  501 -0.00000000000E+00 -0.00000000000E+00 -0.55877295992E+02  0.55877296220E+02  0.50400000000E-02 0.  1.
         25    2    1    2    0    0  0.61449216113E+02 -0.82961585798E+01  0.14124692447E+03  0.19855254155E+03  0.12501034227E+03 0.  0.
         23    2    1    2    0    0 -0.61449216113E+02  0.82961585798E+01  0.83804284160E+02  0.13825325934E+03  0.90807341476E+02 0.  0.
        -13    1    4    4    0    0 -0.59870027485E+02 -0.16681272637E+02  0.92773203169E+02  0.11166719947E+03  0.10566000000E+00 0. -1.
         13    1    4    4    0    0 -0.15791886276E+01  0.24977431217E+02 -0.89689190094E+01  0.26586059865E+02  0.10566000000E+00 0.  1.
    9000005    1    3    3    0    0 -0.32388154415E+00  0.46825899830E+02  0.89218034106E+02  0.10076520929E+03  0.10000000000E+01 0.  0.
    9000005    1    3    3    0    0  0.61773097657E+02 -0.55122058410E+02  0.52028890366E+02  0.97787332258E+02  0.10000000000E+01 0.  0.
<mgrwt>
<rscale>  0 0.13147384E+03</rscale>
<asrwt>0</asrwt>
<pdfrwt beam="1">  1        1 0.43219770E-01 0.13954361E+03</pdfrwt>
<pdfrwt beam="2">  1       -1 0.85965071E-02 0.13954361E+03</pdfrwt>
<totfact> 0.69996215E+03</totfact>
</mgrwt>
</event>
<event>
 8    3  0.1508318E-003  0.1316512E+03  0.7818608E-02  0.1232935E+00
         -1   -1    0    0    0  501 -0.00000000000E+00  0.00000000000E+00  0.18414019530E+03  0.18414019537E+03  0.50400000000E-02 0.  1.
          1   -1    0    0  501    0  0.00000000000E+00 -0.00000000000E+00 -0.86231518952E+02  0.86231519100E+02  0.50400000000E-02 0. -1.
         25    2    1    2    0    0  0.65874577220E+01 -0.40792293162E+02  0.17806163330E+02  0.13284990748E+03  0.12499853073E+03 0.  0.
         23    2    1    2    0    0 -0.65874577220E+01  0.40792293162E+02  0.80102513015E+02  0.13752180699E+03  0.10386736265E+03 0.  0.
        -13    1    4    4    0    0 -0.25424556754E+02  0.30826907813E+02  0.10041968828E+03  0.10807789455E+03  0.10566000000E+00 0.  1.
         13    1    4    4    0    0  0.18837099032E+02  0.99653853496E+01 -0.20317175263E+02  0.29443912441E+02  0.10566000000E+00 0. -1.
    9000005    1    3    3    0    0 -0.53553003874E+02 -0.46596801321E+02  0.57151273539E+01  0.71223934165E+02  0.10000000000E+01 0.  0.
    9000005    1    3    3    0    0  0.60140461596E+02  0.58045081588E+01  0.12091035976E+02  0.61625973314E+02  0.10000000000E+01 0.  0.
<mgrwt>
<rscale>  0 0.12637590E+03</rscale>
<asrwt>0</asrwt>
<pdfrwt beam="2">  1        1 0.13266388E-01 0.13165120E+03</pdfrwt>
<pdfrwt beam="1">  1       -1 0.28329260E-01 0.13165120E+03</pdfrwt>
<totfact> 0.47143709E+03</totfact>
</mgrwt>
</event>
<event>
 8    3  0.1508318E-003  0.1259253E+03  0.7818608E-02  0.1242286E+00
          1   -1    0    0  501    0  0.00000000000E+00  0.00000000000E+00  0.12579102620E+03  0.12579102630E+03  0.50400000000E-02 0. -1.
         -1   -1    0    0    0  501 -0.00000000000E+00 -0.00000000000E+00 -0.10815512225E+03  0.10815512237E+03  0.50400000000E-02 0.  1.
         25    2    1    2    0    0  0.15262597493E+02 -0.18364955469E+01 -0.48341836170E+01  0.12601800944E+03  0.12498339799E+03 0.  0.
         23    2    1    2    0    0 -0.15262597493E+02  0.18364955469E+01  0.22470087571E+02  0.10792813923E+03  0.10443782267E+03 0.  0.
        -13    1    4    4    0    0  0.29708165988E+02  0.26901938823E+02  0.36880056327E+02  0.54465026921E+02  0.10566000000E+00 0. -1.
         13    1    4    4    0    0 -0.44970763481E+02 -0.25065443276E+02 -0.14409968757E+02  0.53463112314E+02  0.10566000000E+00 0.  1.
    9000005    1    3    3    0    0  0.48692815270E+01 -0.62767179934E+02 -0.10907669117E+02  0.63901533823E+02  0.10000000000E+01 0.  0.
    9000005    1    3    3    0    0  0.10393315966E+02  0.60930684387E+02  0.60734854998E+01  0.62116475614E+02  0.10000000000E+01 0.  0.
<mgrwt>
<rscale>  0 0.12049325E+03</rscale>
<asrwt>0</asrwt>
<pdfrwt beam="1">  1        1 0.19352466E-01 0.12592525E+03</pdfrwt>
<pdfrwt beam="2">  1       -1 0.16639250E-01 0.12592525E+03</pdfrwt>
<totfact> 0.68378618E+03</totfact>
</mgrwt>
</event>
<event>
 8    3  0.1508318E-003  0.1574632E+03  0.7818608E-02  0.1199039E+00
          1   -1    0    0  501    0  0.00000000000E+00  0.00000000000E+00  0.18367104296E+03  0.18367104302E+03  0.50400000000E-02 0. -1.
         -1   -1    0    0    0  501 -0.00000000000E+00 -0.00000000000E+00 -0.12537162190E+03  0.12537162200E+03  0.50400000000E-02 0.  1.
         25    2    1    2    0    0 -0.53487747303E+01 -0.95607835586E+02  0.74677779192E+02  0.17427403068E+03  0.12500079779E+03 0.  0.
         23    2    1    2    0    0  0.53487747303E+01  0.95607835586E+02 -0.16378358138E+02  0.13476863435E+03  0.93406994238E+02 0.  0.
        -13    1    4    4    0    0 -0.29922082913E+01  0.55111737842E+02 -0.55195391255E+02  0.78056385634E+02  0.10566000000E+00 0.  1.
         13    1    4    4    0    0  0.83409830216E+01  0.40496097744E+02  0.38817033117E+02  0.56712248715E+02  0.10566000000E+00 0. -1.
    9000005    1    3    3    0    0 -0.46655843143E+02 -0.16476281468E+02 -0.10828010903E+02  0.50660451740E+02  0.10000000000E+01 0.  0.
    9000005    1    3    3    0    0  0.41307068413E+02 -0.79131554118E+02  0.85505790095E+02  0.12361357894E+03  0.10000000000E+01 0.  0.
<mgrwt>
<rscale>  0 0.15117285E+03</rscale>
<asrwt>0</asrwt>
<pdfrwt beam="1">  1        1 0.28257084E-01 0.15746322E+03</pdfrwt>
<pdfrwt beam="2">  1       -1 0.19287942E-01 0.15746322E+03</pdfrwt>
<totfact> 0.33990588E+03</totfact>
</mgrwt>
</event>
<event>
 8    3  0.1508318E-003  0.1483291E+03  0.7818608E-02  0.1211848E+00
          1   -1    0    0  501    0  0.00000000000E+00  0.00000000000E+00  0.15964350703E+04  0.15964350703E+04  0.50400000000E-02 0. -1.
         -1   -1    0    0    0  501 -0.00000000000E+00 -0.00000000000E+00 -0.11585293517E+02  0.11585294614E+02  0.50400000000E-02 0.  1.
         25    2    1    2    0    0 -0.69780813136E+02 -0.38830640162E+02  0.97119285452E+03  0.98245462562E+03  0.12499740093E+03 0.  0.
         23    2    1    2    0    0  0.69780813136E+02  0.38830640162E+02  0.61365692226E+03  0.62556573930E+03  0.91545045996E+02 0.  0.
        -13    1    4    4    0    0 -0.33127147838E+01  0.47565949409E+02  0.22451990324E+03  0.22952710459E+03  0.10566000000E+00 0. -1.
         13    1    4    4    0    0  0.73093527919E+02 -0.87353092469E+01  0.38913701902E+03  0.39603863471E+03  0.10566000000E+00 0.  1.
    9000005    1    3    3    0    0 -0.98286200686E+02 -0.20861162074E+02  0.49645850946E+03  0.50652484336E+03  0.10000000000E+01 0.  0.
    9000005    1    3    3    0    0  0.28505387551E+02 -0.17969478088E+02  0.47473434506E+03  0.47592978226E+03  0.10000000000E+01 0.  0.
<mgrwt>
<rscale>  0 0.14110652E+03</rscale>
<asrwt>0</asrwt>
<pdfrwt beam="1">  1        1 0.24560522E+00 0.14832913E+03</pdfrwt>
<pdfrwt beam="2">  1       -1 0.17823542E-02 0.14832913E+03</pdfrwt>
<totfact> 0.49509285E+03</totfact>
</mgrwt>
</event>
<event>
 8    3  0.1508318E-003  0.1261835E+03  0.7818608E-02  0.1249939E+00
         -1   -1    0    0    0  501 -0.00000000000E+00  0.00000000000E+00  0.26261345568E+02  0.26261346052E+02  0.50400000000E-02 0.  1.
          1   -1    0    0  501    0  0.00000000000E+00 -0.00000000000E+00 -0.48211836464E+03  0.48211836467E+03  0.50400000000E-02 0. -1.
         25    2    1    2    0    0 -0.93402947551E+01  0.14621083999E+02 -0.19328995897E+03  0.23083173914E+03  0.12498506451E+03 0.  0.
         23    2    1    2    0    0  0.93402947551E+01 -0.14621083999E+02 -0.26256706010E+03  0.27754797158E+03  0.88263232858E+02 0.  0.
        -13    1    4    4    0    0 -0.14345787762E+02 -0.46042987037E+02 -0.11236229249E+03  0.12227450355E+03  0.10566000000E+00 0.  1.
         13    1    4    4    0    0  0.23686082517E+02  0.31421903038E+02 -0.15020476761E+03  0.15527346803E+03  0.10566000000E+00 0. -1.
    9000005    1    3    3    0    0 -0.11348852156E+02 -0.11956724016E+02  0.14110966057E+02  0.21722777389E+02  0.10000000000E+01 0.  0.
    9000005    1    3    3    0    0  0.20085574006E+01  0.26577808016E+02 -0.20740092503E+03  0.20910896175E+03  0.10000000000E+01 0.  0.
<mgrwt>
<rscale>  0 0.11594581E+03</rscale>
<asrwt>0</asrwt>
<pdfrwt beam="2">  1        1 0.74172050E-01 0.12618353E+03</pdfrwt>
<pdfrwt beam="1">  1       -1 0.40402074E-02 0.12618353E+03</pdfrwt>
<totfact> 0.10857536E+04</totfact>
</mgrwt>
</event>
<event>
 8    3  0.1508318E-003  0.1937998E+03  0.7818608E-02  0.1161752E+00
         -1   -1    0    0    0  501 -0.00000000000E+00  0.00000000000E+00  0.39750616226E+02  0.39750616545E+02  0.50400000000E-02 0.  1.
          1   -1    0    0  501    0  0.00000000000E+00 -0.00000000000E+00 -0.98411495120E+03  0.98411495121E+03  0.50400000000E-02 0. -1.
         25    2    1    2    0    0 -0.98821122840E+02 -0.11030825819E+03 -0.71517391515E+03  0.74096699261E+03  0.12499931631E+03 0.  0.
         23    2    1    2    0    0  0.98821122840E+02  0.11030825819E+03 -0.22919041983E+03  0.28289857515E+03  0.74631287939E+02 0.  0.
        -13    1    4    4    0    0  0.27271052126E+02  0.81833067811E+02 -0.96093746478E+02  0.12912931715E+03  0.10566000000E+00 0.  1.
         13    1    4    4    0    0  0.71550070715E+02  0.28475190377E+02 -0.13309667335E+03  0.15376925800E+03  0.10566000000E+00 0. -1.
    9000005    1    3    3    0    0 -0.11025154845E+03 -0.12887204003E+03 -0.58950054878E+03  0.61341283297E+03  0.10000000000E+01 0.  0.
    9000005    1    3    3    0    0  0.11430425614E+02  0.18563781846E+02 -0.12567336637E+03  0.12755415964E+03  0.10000000000E+01 0.  0.
<mgrwt>
<rscale>  0 0.18639668E+03</rscale>
<asrwt>0</asrwt>
<pdfrwt beam="2">  1        1 0.15140228E+00 0.19379978E+03</pdfrwt>
<pdfrwt beam="1">  1       -1 0.61154802E-02 0.19379978E+03</pdfrwt>
<totfact> 0.21252584E+03</totfact>
</mgrwt>
</event>
<event>
 8    3  0.1508318E-003  0.1278088E+03  0.7818608E-02  0.1242096E+00
          1   -1    0    0  501    0  0.00000000000E+00  0.00000000000E+00  0.78800214375E+03  0.78800214377E+03  0.50400000000E-02 0. -1.
         -1   -1    0    0    0  501 -0.00000000000E+00 -0.00000000000E+00 -0.18087873999E+02  0.18087874701E+02  0.50400000000E-02 0.  1.
         25    2    1    2    0    0 -0.19587481873E+02 -0.18092782883E+02  0.31337805996E+03  0.33843891663E+03  0.12499629430E+03 0.  0.
         23    2    1    2    0    0  0.19587481873E+02  0.18092782883E+02  0.45653620979E+03  0.46765110184E+03  0.97781511326E+02 0.  0.
        -13    1    4    4    0    0  0.13658077982E+02  0.56803184028E+02  0.33204575048E+03  0.33714616472E+03  0.10566000000E+00 0.  1.
         13    1    4    4    0    0  0.59294038911E+01 -0.38710401146E+02  0.12449045931E+03  0.13050493712E+03  0.10566000000E+00 0. -1.
    9000005    1    3    3    0    0 -0.63449964841E+02 -0.43076153034E+02  0.17232770676E+03  0.18862473729E+03  0.10000000000E+01 0.  0.
    9000005    1    3    3    0    0  0.43862482968E+02  0.24983370152E+02  0.14105035319E+03  0.14981417934E+03  0.10000000000E+01 0.  0.
<mgrwt>
<rscale>  0 0.12060873E+03</rscale>
<asrwt>0</asrwt>
<pdfrwt beam="1">  1        1 0.12123111E+00 0.12780881E+03</pdfrwt>
<pdfrwt beam="2">  1       -1 0.27827496E-02 0.12780881E+03</pdfrwt>
<totfact> 0.95188885E+03</totfact>
</mgrwt>
</event>
<event>
 8    3  0.1508318E-003  0.1360288E+03  0.7818608E-02  0.1231042E+00
          1   -1    0    0  501    0  0.00000000000E+00  0.00000000000E+00  0.56787442528E+03  0.56787442531E+03  0.50400000000E-02 0. -1.
         -1   -1    0    0    0  501 -0.00000000000E+00 -0.00000000000E+00 -0.26144575704E+02  0.26144576190E+02  0.50400000000E-02 0.  1.
         25    2    1    2    0    0  0.51018335750E+02 -0.16596319762E+02  0.34506293750E+03  0.37090734488E+03  0.12500207693E+03 0.  0.
         23    2    1    2    0    0 -0.51018335750E+02  0.16596319762E+02  0.19666691208E+03  0.22311165661E+03  0.90678710834E+02 0.  0.
        -13    1    4    4    0    0  0.25090643565E+02  0.19498126376E+01  0.28998423508E+02  0.38396118213E+02  0.10566000000E+00 0. -1.
         13    1    4    4    0    0 -0.76108979316E+02  0.14646507125E+02  0.16766848857E+03  0.18471553840E+03  0.10566000000E+00 0.  1.
    9000005    1    3    3    0    0  0.81748551229E+02 -0.28059345162E+02  0.31415549186E+03  0.32582944242E+03  0.10000000000E+01 0.  0.
    9000005    1    3    3    0    0 -0.30730215478E+02  0.11463025400E+02  0.30907445643E+02  0.45077902467E+02  0.10000000000E+01 0.  0.
<mgrwt>
<rscale>  0 0.12761245E+03</rscale>
<asrwt>0</asrwt>
<pdfrwt beam="1">  1        1 0.87365298E-01 0.13602878E+03</pdfrwt>
<pdfrwt beam="2">  1       -1 0.40222424E-02 0.13602878E+03</pdfrwt>
<totfact> 0.88581365E+03</totfact>
</mgrwt>
</event>
<event>
 8    3  0.1508318E-003  0.1403559E+03  0.7818608E-02  0.1223919E+00
          1   -1    0    0  501    0  0.00000000000E+00  0.00000000000E+00  0.65346722937E+03  0.65346722939E+03  0.50400000000E-02 0. -1.
         -1   -1    0    0    0  501 -0.00000000000E+00 -0.00000000000E+00 -0.24228234948E+02  0.24228235472E+02  0.50400000000E-02 0.  1.
         25    2    1    2    0    0 -0.62540486169E+02 -0.12806437659E+02  0.36138081096E+03  0.38768011527E+03  0.12499785595E+03 0.  0.
         23    2    1    2    0    0  0.62540486169E+02  0.12806437659E+02  0.26785818346E+03  0.29001534959E+03  0.91025157481E+02 0.  0.
        -13    1    4    4    0    0  0.13881530483E+02  0.46522324283E+02  0.15708215987E+03  0.16441362370E+03  0.10566000000E+00 0. -1.
         13    1    4    4    0    0  0.48658955686E+02 -0.33715886623E+02  0.11077602359E+03  0.12560172589E+03  0.10566000000E+00 0.  1.
    9000005    1    3    3    0    0 -0.95933394486E+01 -0.16970199055E+02  0.31934187112E+03  0.31993788533E+03  0.10000000000E+01 0.  0.
    9000005    1    3    3    0    0 -0.52947146720E+02  0.41637613951E+01  0.42038939837E+02  0.67742229941E+02  0.10000000000E+01 0.  0.
<mgrwt>
<rscale>  0 0.13241259E+03</rscale>
<asrwt>0</asrwt>
<pdfrwt beam="1">  1        1 0.10053341E+00 0.14035591E+03</pdfrwt>
<pdfrwt beam="2">  1       -1 0.37274214E-02 0.14035591E+03</pdfrwt>
<totfact> 0.81893711E+03</totfact>
</mgrwt>
</event>
<event>
 8    3  0.1508318E-003  0.2150344E+03  0.7818608E-02  0.1140881E+00
          1   -1    0    0  501    0  0.00000000000E+00  0.00000000000E+00  0.52975133501E+03  0.52975133503E+03  0.50400000000E-02 0. -1.
         -1   -1    0    0    0  501 -0.00000000000E+00 -0.00000000000E+00 -0.81327371665E+02  0.81327371821E+02  0.50400000000E-02 0.  1.
         25    2    1    2    0    0  0.16511842337E+03 -0.57886807521E+02  0.25660420592E+03  0.33479172835E+03  0.12499922663E+03 0.  0.
         23    2    1    2    0    0 -0.16511842337E+03  0.57886807521E+02  0.19181975743E+03  0.27628697850E+03  0.94470624691E+02 0.  0.
        -13    1    4    4    0    0 -0.15269963304E+03  0.34354643550E+02  0.11285664857E+03  0.19296127527E+03  0.10566000000E+00 0.  1.
         13    1    4    4    0    0 -0.12418790328E+02  0.23532163971E+02  0.78963108856E+02  0.83325703229E+02  0.10566000000E+00 0. -1.
    9000005    1    3    3    0    0  0.16841270998E+03 -0.14365887428E+02  0.18223531283E+03  0.24855568560E+03  0.10000000000E+01 0.  0.
    9000005    1    3    3    0    0 -0.32942866100E+01 -0.43520920093E+02  0.74368893093E+02  0.86236042754E+02  0.10000000000E+01 0.  0.
<mgrwt>
<rscale>  0 0.21086770E+03</rscale>
<asrwt>0</asrwt>
<pdfrwt beam="1">  1        1 0.81500202E-01 0.21503438E+03</pdfrwt>
<pdfrwt beam="2">  1       -1 0.12511904E-01 0.21503438E+03</pdfrwt>
<totfact> 0.17824105E+03</totfact>
</mgrwt>
</event>
<event>
 8    3  0.1508318E-003  0.1271817E+03  0.7818608E-02  0.1246473E+00
         -1   -1    0    0    0  501 -0.00000000000E+00  0.00000000000E+00  0.14844346198E+03  0.14844346206E+03  0.50400000000E-02 0.  1.
          1   -1    0    0  501    0  0.00000000000E+00 -0.00000000000E+00 -0.82819942760E+02  0.82819942914E+02  0.50400000000E-02 0. -1.
         25    2    1    2    0    0  0.21466612043E+02 -0.94367785053E+01  0.30761145238E+02  0.13084892821E+03  0.12500130294E+03 0.  0.
         23    2    1    2    0    0 -0.21466612043E+02  0.94367785053E+01  0.34862373980E+02  0.10041447676E+03  0.91202049335E+02 0.  0.
        -13    1    4    4    0    0 -0.12938008006E+02  0.16166438277E+02 -0.29000498623E+02  0.35634054809E+02  0.10566000000E+00 0. -1.
         13    1    4    4    0    0 -0.85286040380E+01 -0.67296597720E+01  0.63862872603E+02  0.64780421954E+02  0.10566000000E+00 0.  1.
    9000005    1    3    3    0    0 -0.22479212292E+02  0.18018457180E+02  0.63368876445E+02  0.69617485493E+02  0.10000000000E+01 0.  0.
    9000005    1    3    3    0    0  0.43945824336E+02 -0.27455235685E+02 -0.32607731208E+02  0.61231442720E+02  0.10000000000E+01 0.  0.
<mgrwt>
<rscale>  0 0.11797631E+03</rscale>
<asrwt>0</asrwt>
<pdfrwt beam="2">  1        1 0.12741530E-01 0.12718174E+03</pdfrwt>
<pdfrwt beam="1">  1       -1 0.22837455E-01 0.12718174E+03</pdfrwt>
<totfact> 0.70648672E+03</totfact>
</mgrwt>
</event>
<event>
 8    3  0.1508318E-003  0.1280960E+03  0.7818608E-02  0.1244616E+00
         -1   -1    0    0    0  501 -0.00000000000E+00  0.00000000000E+00  0.92498687485E+01  0.92498701216E+01  0.50400000000E-02 0.  1.
          1   -1    0    0  501    0  0.00000000000E+00 -0.00000000000E+00 -0.13534130735E+04  0.13534130735E+04  0.50400000000E-02 0. -1.
         25    2    1    2    0    0  0.64432371348E+01 -0.27245918863E+02 -0.76565110836E+03  0.77629260022E+03  0.12499890410E+03 0.  0.
         23    2    1    2    0    0 -0.64432371348E+01  0.27245918863E+02 -0.57851209641E+03  0.58637034343E+03  0.91488133433E+02 0.  0.
        -13    1    4    4    0    0  0.31972184602E+02  0.36770165526E+02 -0.20245239765E+03  0.20823364315E+03  0.10566000000E+00 0. -1.
         13    1    4    4    0    0 -0.38415421736E+02 -0.95242466629E+01 -0.37605969876E+03  0.37813670028E+03  0.10566000000E+00 0.  1.
    9000005    1    3    3    0    0  0.37959695651E+02 -0.64212776241E+02 -0.56177352006E+03  0.56670513230E+03  0.10000000000E+01 0.  0.
    9000005    1    3    3    0    0 -0.31516458516E+02  0.36966857379E+02 -0.20387758830E+03  0.20958746793E+03  0.10000000000E+01 0.  0.
<mgrwt>
<rscale>  0 0.11908378E+03</rscale>
<asrwt>0</asrwt>
<pdfrwt beam="2">  1        1 0.20821724E+00 0.12809599E+03</pdfrwt>
<pdfrwt beam="1">  1       -1 0.14230579E-02 0.12809599E+03</pdfrwt>
<totfact> 0.97931826E+03</totfact>
</mgrwt>
</event>
<event>
 8    3  0.1508318E-003  0.3403110E+03  0.7818608E-02  0.1067858E+00
          1   -1    0    0  501    0  0.00000000000E+00  0.00000000000E+00  0.22412800108E+04  0.22412800108E+04  0.50400000000E-02 0. -1.
         -1   -1    0    0    0  501 -0.00000000000E+00 -0.00000000000E+00 -0.50143978974E+02  0.50143979227E+02  0.50400000000E-02 0.  1.
         25    2    1    2    0    0  0.28168408731E+03  0.14436553819E+03  0.11728349505E+04  0.12212098131E+04  0.12499701110E+03 0.  0.
         23    2    1    2    0    0 -0.28168408731E+03 -0.14436553819E+03  0.10183010813E+04  0.10702141770E+04  0.90741162988E+02 0.  0.
        -13    1    4    4    0    0 -0.71897824320E+02 -0.25279607923E+02  0.38617105920E+03  0.39361968173E+03  0.10566000000E+00 0. -1.
         13    1    4    4    0    0 -0.20978626299E+03 -0.11908593027E+03  0.63213002214E+03  0.67659449524E+03  0.10566000000E+00 0.  1.
    9000005    1    3    3    0    0  0.11641579601E+03  0.31008159292E+02  0.25890380836E+03  0.28556317250E+03  0.10000000000E+01 0.  0.
    9000005    1    3    3    0    0  0.16526829131E+03  0.11335737890E+03  0.91393114215E+03  0.93564664059E+03  0.10000000000E+01 0.  0.
<mgrwt>
<rscale>  0 0.33751752E+03</rscale>
<asrwt>0</asrwt>
<pdfrwt beam="1">  1        1 0.34481228E+00 0.34031101E+03</pdfrwt>
<pdfrwt beam="2">  1       -1 0.77144590E-02 0.34031101E+03</pdfrwt>
<totfact> 0.21100804E+02</totfact>
</mgrwt>
</event>
<event>
 8    3  0.1508318E-003  0.1588926E+03  0.7818608E-02  0.1196223E+00
         -1   -1    0    0    0  501 -0.00000000000E+00  0.00000000000E+00  0.29262277102E+02  0.29262277536E+02  0.50400000000E-02 0.  1.
          1   -1    0    0  501    0  0.00000000000E+00 -0.00000000000E+00 -0.98318275974E+03  0.98318275976E+03  0.50400000000E-02 0. -1.
         25    2    1    2    0    0 -0.98100878096E+02  0.11168709738E+01 -0.74544351630E+03  0.76218953513E+03  0.12498728650E+03 0.  0.
         23    2    1    2    0    0  0.98100878096E+02 -0.11168709738E+01 -0.20847696634E+03  0.25025550216E+03  0.97673646302E+02 0.  0.
        -13    1    4    4    0    0  0.37446061436E+02 -0.41847342862E+02 -0.47788772737E+02  0.73737274058E+02  0.10566000000E+00 0.  1.
         13    1    4    4    0    0  0.60654816660E+02  0.40730471888E+02 -0.16068819360E+03  0.17651822810E+03  0.10566000000E+00 0. -1.
    9000005    1    3    3    0    0 -0.62087856925E+01 -0.50828464637E+02 -0.18871443284E+03  0.19554083717E+03  0.10000000000E+01 0.  0.
    9000005    1    3    3    0    0 -0.91892092404E+02  0.51945335611E+02 -0.55672908346E+03  0.56664869797E+03  0.10000000000E+01 0.  0.
<mgrwt>
<rscale>  0 0.15351181E+03</rscale>
<asrwt>0</asrwt>
<pdfrwt beam="2">  1        1 0.15125886E+00 0.15889258E+03</pdfrwt>
<pdfrwt beam="1">  1       -1 0.45018896E-02 0.15889258E+03</pdfrwt>
<totfact> 0.33485559E+03</totfact>
</mgrwt>
</event>
<event>
 8    3  0.1508318E-003  0.1266786E+03  0.7818608E-02  0.1245252E+00
          1   -1    0    0  501    0  0.00000000000E+00  0.00000000000E+00  0.43119259833E+02  0.43119260127E+02  0.50400000000E-02 0. -1.
         -1   -1    0    0    0  501 -0.00000000000E+00 -0.00000000000E+00 -0.30680417785E+03  0.30680417789E+03  0.50400000000E-02 0.  1.
         25    2    1    2    0    0 -0.14931105008E+02 -0.14130253655E+02 -0.18643172075E+03  0.22539799997E+03  0.12499947969E+03 0.  0.
         23    2    1    2    0    0  0.14931105008E+02  0.14130253655E+02 -0.77253197260E+02  0.12452543805E+03  0.95477359979E+02 0.  0.
        -13    1    4    4    0    0 -0.28857323760E+02 -0.14959995931E+02 -0.17873446508E+01  0.32553838142E+02  0.10566000000E+00 0. -1.
         13    1    4    4    0    0  0.43788428768E+02  0.29090249586E+02 -0.75465852609E+02  0.91971599905E+02  0.10566000000E+00 0.  1.
    9000005    1    3    3    0    0 -0.10763411058E+02 -0.32732448716E+02 -0.19937574359E+03  0.20233376226E+03  0.10000000000E+01 0.  0.
    9000005    1    3    3    0    0 -0.41676939501E+01  0.18602195061E+02  0.12944022838E+02  0.23064237711E+02  0.10000000000E+01 0.  0.
<mgrwt>
<rscale>  0 0.11870326E+03</rscale>
<asrwt>0</asrwt>
<pdfrwt beam="1">  1        1 0.66337325E-02 0.12667862E+03</pdfrwt>
<pdfrwt beam="2">  1       -1 0.47200641E-01 0.12667862E+03</pdfrwt>
<totfact> 0.48834958E+03</totfact>
</mgrwt>
</event>
<event>
 8    3  0.1508318E-003  0.1364182E+03  0.7818608E-02  0.1229866E+00
         -1   -1    0    0    0  501 -0.00000000000E+00  0.00000000000E+00  0.59395903646E+02  0.59395903859E+02  0.50400000000E-02 0.  1.
          1   -1    0    0  501    0  0.00000000000E+00 -0.00000000000E+00 -0.38339310754E+03  0.38339310757E+03  0.50400000000E-02 0. -1.
         25    2    1    2    0    0  0.28079190101E+02 -0.46860577091E+02 -0.30496117947E+03  0.33408270322E+03  0.12500230800E+03 0.  0.
         23    2    1    2    0    0 -0.28079190101E+02  0.46860577091E+02 -0.19036024421E+02  0.10870630821E+03  0.92034431689E+02 0.  0.
        -13    1    4    4    0    0 -0.40007879523E+02  0.43794488953E+02  0.23965105616E+02  0.63975973129E+02  0.10566000000E+00 0.  1.
         13    1    4    4    0    0  0.11928689422E+02  0.30660881384E+01 -0.43001130037E+02  0.44730335079E+02  0.10566000000E+00 0. -1.
    9000005    1    3    3    0    0  0.57307829767E+02 -0.74686817388E+02 -0.23731288766E+03  0.25530514036E+03  0.10000000000E+01 0.  0.
    9000005    1    3    3    0    0 -0.29228639666E+02  0.27826240297E+02 -0.67648291808E+02  0.78777562861E+02  0.10000000000E+01 0.  0.
<mgrwt>
<rscale>  0 0.12838882E+03</rscale>
<asrwt>0</asrwt>
<pdfrwt beam="2">  1        1 0.58983554E-01 0.13641822E+03</pdfrwt>
<pdfrwt beam="1">  1       -1 0.91378316E-02 0.13641822E+03</pdfrwt>
<totfact> 0.43275048E+03</totfact>
</mgrwt>
</event>
<event>
 8    3  0.1508318E-003  0.1467001E+03  0.7818608E-02  0.1215287E+00
         -1   -1    0    0    0  501 -0.00000000000E+00  0.00000000000E+00  0.76176348202E+02  0.76176348369E+02  0.50400000000E-02 0.  1.
          1   -1    0    0  501    0  0.00000000000E+00 -0.00000000000E+00 -0.22971080978E+03  0.22971080983E+03  0.50400000000E-02 0. -1.
         25    2    1    2    0    0 -0.39258093126E+02 -0.65988342451E+02 -0.71393749856E+02  0.16315015577E+03  0.12500098637E+03 0.  0.
         23    2    1    2    0    0  0.39258093126E+02  0.65988342451E+02 -0.82140711718E+02  0.14273700243E+03  0.87926651970E+02 0.  0.
        -13    1    4    4    0    0  0.21447353712E+02  0.83525558905E+02 -0.43165856619E+02  0.96435524125E+02  0.10566000000E+00 0.  1.
         13    1    4    4    0    0  0.17810739414E+02 -0.17537216454E+02 -0.38974855099E+02  0.46301478308E+02  0.10566000000E+00 0. -1.
    9000005    1    3    3    0    0 -0.67067850336E+02 -0.48283964860E+02  0.20164506833E+01  0.82671058325E+02  0.10000000000E+01 0.  0.
    9000005    1    3    3    0    0  0.27809757210E+02 -0.17704377591E+02 -0.73410200540E+02  0.80479097443E+02  0.10000000000E+01 0.  0.
<mgrwt>
<rscale>  0 0.13855486E+03</rscale>
<asrwt>0</asrwt>
<pdfrwt beam="2">  1        1 0.35340124E-01 0.14670005E+03</pdfrwt>
<pdfrwt beam="1">  1       -1 0.11719438E-01 0.14670005E+03</pdfrwt>
<totfact> 0.56097159E+03</totfact>
</mgrwt>
</event>
<event>
 8    3  0.1508318E-003  0.1399449E+03  0.7818608E-02  0.1224352E+00
         -1   -1    0    0    0  501 -0.00000000000E+00  0.00000000000E+00  0.89790460213E+01  0.89790474358E+01  0.50400000000E-02 0.  1.
          1   -1    0    0  501    0  0.00000000000E+00 -0.00000000000E+00 -0.18943585866E+04  0.18943585866E+04  0.50400000000E-02 0. -1.
         25    2    1    2    0    0 -0.57058084233E+02 -0.26572396198E+02 -0.78678142506E+03  0.79913051484E+03  0.12499140658E+03 0.  0.
         23    2    1    2    0    0  0.57058084233E+02  0.26572396198E+02 -0.10985981156E+04  0.11042071192E+04  0.91617822788E+02 0.  0.
        -13    1    4    4    0    0  0.47560848962E+02  0.27339724448E+02 -0.26813772205E+03  0.27369206061E+03  0.10566000000E+00 0.  1.
         13    1    4    4    0    0  0.94972352705E+01 -0.76732824932E+00 -0.83046039350E+03  0.83051505863E+03  0.10566000000E+00 0. -1.
    9000005    1    3    3    0    0 -0.22015764867E+02 -0.72354273939E+02 -0.56218248139E+03  0.56724772123E+03  0.10000000000E+01 0.  0.
    9000005    1    3    3    0    0 -0.35042319366E+02  0.45781877740E+02 -0.22459894367E+03  0.23188279361E+03  0.10000000000E+01 0.  0.
<mgrwt>
<rscale>  0 0.13211450E+03</rscale>
<asrwt>0</asrwt>
<pdfrwt beam="2">  1        1 0.29143946E+00 0.13994488E+03</pdfrwt>
<pdfrwt beam="1">  1       -1 0.13813933E-02 0.13994488E+03</pdfrwt>
<totfact> 0.46012687E+03</totfact>
</mgrwt>
</event>
<event>
 8    3  0.1508318E-003  0.1301832E+03  0.7818608E-02  0.1244403E+00
          1   -1    0    0  501    0  0.00000000000E+00  0.00000000000E+00  0.25780636305E+04  0.25780636305E+04  0.50400000000E-02 0. -1.
         -1   -1    0    0    0  501 -0.00000000000E+00 -0.00000000000E+00 -0.55742165695E+01  0.55742188480E+01  0.50400000000E-02 0.  1.
         25    2    1    2    0    0  0.35969394123E+02 -0.49159693447E+01  0.19630355442E+04  0.19673475065E+04  0.12501879630E+03 0.  0.
         23    2    1    2    0    0 -0.35969394123E+02  0.49159693447E+01  0.60945386979E+03  0.61629034292E+03  0.84034536415E+02 0.  0.
        -13    1    4    4    0    0 -0.37151504924E+01 -0.36982860386E+02  0.19863681010E+03  0.20208445708E+03  0.10566000000E+00 0.  1.
         13    1    4    4    0    0 -0.32254243631E+02  0.41898829730E+02  0.41081705970E+03  0.41420588584E+03  0.10566000000E+00 0. -1.
    9000005    1    3    3    0    0 -0.23322826794E+02  0.32898738484E+02  0.12933463065E+04  0.12939752508E+04  0.10000000000E+01 0.  0.
    9000005    1    3    3    0    0  0.59292220917E+02 -0.37814707829E+02  0.66968923766E+03  0.67337225561E+03  0.10000000000E+01 0.  0.
<mgrwt>
<rscale>  0 0.11921206E+03</rscale>
<asrwt>0</asrwt>
<pdfrwt beam="1">  1        1 0.39662538E+00 0.13018319E+03</pdfrwt>
<pdfrwt beam="2">  1       -1 0.85757152E-03 0.13018319E+03</pdfrwt>
<totfact> 0.33015768E+03</totfact>
</mgrwt>
</event>
<event>
 8    3  0.1508318E-003  0.1507471E+03  0.7818608E-02  0.1208744E+00
         -1   -1    0    0    0  501 -0.00000000000E+00  0.00000000000E+00  0.21276377408E+02  0.21276378005E+02  0.50400000000E-02 0.  1.
          1   -1    0    0  501    0  0.00000000000E+00 -0.00000000000E+00 -0.11156708630E+04  0.11156708630E+04  0.50400000000E-02 0. -1.
         25    2    1    2    0    0 -0.32317407941E+02 -0.77818032953E+02 -0.33241098546E+03  0.36499554181E+03  0.12499848470E+03 0.  0.
         23    2    1    2    0    0  0.32317407941E+02  0.77818032953E+02 -0.76198350013E+03  0.77195169920E+03  0.90501438237E+02 0.  0.
        -13    1    4    4    0    0  0.17794457201E+02  0.58531427011E+02 -0.72627618756E+03  0.72884818889E+03  0.10566000000E+00 0. -1.
         13    1    4    4    0    0  0.14522950740E+02  0.19286605942E+02 -0.35707312568E+02  0.43103510319E+02  0.10566000000E+00 0.  1.
    9000005    1    3    3    0    0 -0.65259734090E+02 -0.67771585807E+02 -0.13471534160E+03  0.16431994401E+03  0.10000000000E+01 0.  0.
    9000005    1    3    3    0    0  0.32942326149E+02 -0.10046447146E+02 -0.19769564386E+03  0.20067559780E+03  0.10000000000E+01 0.  0.
<mgrwt>
<rscale>  0 0.14346291E+03</rscale>
<asrwt>0</asrwt>
<pdfrwt beam="2">  1        1 0.17164163E+00 0.15074708E+03</pdfrwt>
<pdfrwt beam="1">  1       -1 0.32732897E-02 0.15074708E+03</pdfrwt>
<totfact> 0.42878905E+03</totfact>
</mgrwt>
</event>
<event>
 8    3  0.1508318E-003  0.2486523E+03  0.7818608E-02  0.1116733E+00
         -1   -1    0    0    0  501 -0.00000000000E+00  0.00000000000E+00  0.12808002047E+03  0.12808002057E+03  0.50400000000E-02 0.  1.
          1   -1    0    0  501    0  0.00000000000E+00 -0.00000000000E+00 -0.45369312802E+03  0.45369312805E+03  0.50400000000E-02 0. -1.
         25    2    1    2    0    0 -0.21091036506E+03  0.41463374530E+02 -0.15567710625E+03  0.29336549485E+03  0.12500223455E+03 0.  0.
         23    2    1    2    0    0  0.21091036506E+03 -0.41463374530E+02 -0.16993600130E+03  0.28840765376E+03  0.89990758928E+02 0.  0.
        -13    1    4    4    0    0  0.14685487828E+03 -0.52498910151E+02 -0.74242730017E+02  0.17272661916E+03  0.10566000000E+00 0.  1.
         13    1    4    4    0    0  0.64055486775E+02  0.11035535621E+02 -0.95693271284E+02  0.11568103460E+03  0.10566000000E+00 0. -1.
    9000005    1    3    3    0    0 -0.22261476769E+03  0.54877085668E+02 -0.13504271192E+03  0.26609465114E+03  0.10000000000E+01 0.  0.
    9000005    1    3    3    0    0  0.11704402626E+02 -0.13413711139E+02 -0.20634394333E+02  0.27270843713E+02  0.10000000000E+01 0.  0.
<mgrwt>
<rscale>  0 0.24464989E+03</rscale>
<asrwt>0</asrwt>
<pdfrwt beam="2">  1        1 0.69798942E-01 0.24865227E+03</pdfrwt>
<pdfrwt beam="1">  1       -1 0.19704619E-01 0.24865227E+03</pdfrwt>
<totfact> 0.10627651E+03</totfact>
</mgrwt>
</event>
<event>
 8    3  0.1508318E-003  0.1327967E+03  0.7818608E-02  0.1234490E+00
          1   -1    0    0  501    0  0.00000000000E+00  0.00000000000E+00  0.20748283803E+04  0.20748283803E+04  0.50400000000E-02 0. -1.
         -1   -1    0    0    0  501 -0.00000000000E+00 -0.00000000000E+00 -0.73278031256E+01  0.73278048588E+01  0.50400000000E-02 0.  1.
         25    2    1    2    0    0 -0.24057794286E+02  0.37825782935E+02  0.14107575960E+04  0.14169939868E+04  0.12500158663E+03 0.  0.
         23    2    1    2    0    0  0.24057794286E+02 -0.37825782935E+02  0.65674298122E+03  0.66516219840E+03  0.95497850657E+02 0.  0.
        -13    1    4    4    0    0  0.17134583590E+02 -0.60406178754E+02  0.25107251957E+03  0.25880479445E+03  0.10566000000E+00 0.  1.
         13    1    4    4    0    0  0.69232106961E+01  0.22580395818E+02  0.40567046165E+03  0.40635740394E+03  0.10566000000E+00 0. -1.
    9000005    1    3    3    0    0 -0.16344989930E+02 -0.45640638919E+02  0.57631849843E+03  0.57835476850E+03  0.10000000000E+01 0.  0.
    9000005    1    3    3    0    0 -0.77128043563E+01  0.83466421854E+02  0.83443909755E+03  0.83863921829E+03  0.10000000000E+01 0.  0.
<mgrwt>
<rscale>  0 0.12537169E+03</rscale>
<asrwt>0</asrwt>
<pdfrwt beam="1">  1        1 0.31920509E+00 0.13279670E+03</pdfrwt>
<pdfrwt beam="2">  1       -1 0.11273519E-02 0.13279670E+03</pdfrwt>
<totfact> 0.47193596E+03</totfact>
</mgrwt>
</event>
<event>
 8    3  0.1508318E-003  0.1579771E+03  0.7818608E-02  0.1198984E+00
          1   -1    0    0  501    0  0.00000000000E+00  0.00000000000E+00  0.51638451512E+02  0.51638451758E+02  0.50400000000E-02 0. -1.
         -1   -1    0    0    0  501 -0.00000000000E+00 -0.00000000000E+00 -0.41656876906E+03  0.41656876909E+03  0.50400000000E-02 0.  1.
         25    2    1    2    0    0  0.60232305271E+02  0.75530843849E+02 -0.16634789301E+03  0.22940880774E+03  0.12499576229E+03 0.  0.
         23    2    1    2    0    0 -0.60232305271E+02 -0.75530843849E+02 -0.19858242454E+03  0.23879841311E+03  0.90867286723E+02 0.  0.
        -13    1    4    4    0    0 -0.38906636644E+02 -0.18415031596E-01 -0.12614396145E+03  0.13200771526E+03  0.10566000000E+00 0.  1.
         13    1    4    4    0    0 -0.21325668628E+02 -0.75512428818E+02 -0.72438463096E+02  0.10679069785E+03  0.10566000000E+00 0. -1.
    9000005    1    3    3    0    0  0.32433481613E+02  0.10780703343E+03 -0.10014659699E+03  0.15068054976E+03  0.10000000000E+01 0.  0.
    9000005    1    3    3    0    0  0.27798823658E+02 -0.32276189581E+02 -0.66201296015E+02  0.78728257981E+02  0.10000000000E+01 0.  0.
<mgrwt>
<rscale>  0 0.15121784E+03</rscale>
<asrwt>0</asrwt>
<pdfrwt beam="1">  1        1 0.79443774E-02 0.15797715E+03</pdfrwt>
<pdfrwt beam="2">  1       -1 0.64087501E-01 0.15797715E+03</pdfrwt>
<totfact> 0.21911853E+03</totfact>
</mgrwt>
</event>
<event>
 8    3  0.1508318E-003  0.1748449E+03  0.7818608E-02  0.1179483E+00
         -1   -1    0    0    0  501 -0.00000000000E+00  0.00000000000E+00  0.34359715166E+02  0.34359715536E+02  0.50400000000E-02 0.  1.
          1   -1    0    0  501    0  0.00000000000E+00 -0.00000000000E+00 -0.91236801439E+03  0.91236801440E+03  0.50400000000E-02 0. -1.
         25    2    1    2    0    0 -0.33460963552E+02  0.11759034311E+03 -0.65274466343E+03  0.67575611652E+03  0.12499443387E+03 0.  0.
         23    2    1    2    0    0  0.33460963552E+02 -0.11759034311E+03 -0.22526363579E+03  0.27097161342E+03  0.87947625291E+02 0.  0.
        -13    1    4    4    0    0  0.49231952238E+02 -0.11348162266E+03 -0.22231003190E+03  0.25440838282E+03  0.10566000000E+00 0.  1.
         13    1    4    4    0    0 -0.15770988685E+02 -0.41087204486E+01 -0.29536038924E+01  0.16563230597E+02  0.10566000000E+00 0. -1.
    9000005    1    3    3    0    0 -0.74704492112E+02  0.10896011103E+03 -0.47011859697E+03  0.48832935828E+03  0.10000000000E+01 0.  0.
    9000005    1    3    3    0    0  0.41243528559E+02  0.86302320786E+01 -0.18262606646E+03  0.18742675824E+03  0.10000000000E+01 0.  0.
<mgrwt>
<rscale>  0 0.16844171E+03</rscale>
<asrwt>0</asrwt>
<pdfrwt beam="2">  1        1 0.14036429E+00 0.17484488E+03</pdfrwt>
<pdfrwt beam="1">  1       -1 0.52861108E-02 0.17484488E+03</pdfrwt>
<totfact> 0.29908894E+03</totfact>
</mgrwt>
</event>
<event>
 8    3  0.1508318E-003  0.1728951E+03  0.7818608E-02  0.1180840E+00
          1   -1    0    0  501    0  0.00000000000E+00  0.00000000000E+00  0.46072789119E+03  0.46072789122E+03  0.50400000000E-02 0. -1.
         -1   -1    0    0    0  501 -0.00000000000E+00 -0.00000000000E+00 -0.67347443355E+02  0.67347443544E+02  0.50400000000E-02 0.  1.
         25    2    1    2    0    0 -0.66227980064E+02  0.99402194210E+02  0.10435924567E+03  0.20194942339E+03  0.12500310353E+03 0.  0.
         23    2    1    2    0    0  0.66227980064E+02 -0.99402194210E+02  0.28902120216E+03  0.32612591137E+03  0.92508989902E+02 0.  0.
        -13    1    4    4    0    0  0.58424050076E+02 -0.49030653350E+02  0.78225141930E+02  0.10925455867E+03  0.10566000000E+00 0.  1.
         13    1    4    4    0    0  0.78039299880E+01 -0.50371540860E+02  0.21079606023E+03  0.21687135271E+03  0.10566000000E+00 0. -1.
    9000005    1    3    3    0    0 -0.42099008251E+02  0.95387201051E+02  0.12989945419E+03  0.16657104436E+03  0.10000000000E+01 0.  0.
    9000005    1    3    3    0    0 -0.24128971813E+02  0.40149931588E+01 -0.25540208525E+02  0.35378379023E+02  0.10000000000E+01 0.  0.
<mgrwt>
<rscale>  0 0.16716218E+03</rscale>
<asrwt>0</asrwt>
<pdfrwt beam="1">  1        1 0.70881217E-01 0.17289511E+03</pdfrwt>
<pdfrwt beam="2">  1       -1 0.10361145E-01 0.17289511E+03</pdfrwt>
<totfact> 0.28543987E+03</totfact>
</mgrwt>
</event>
<event>
 8    3  0.1508318E-003  0.1497719E+03  0.7818608E-02  0.1210226E+00
          1   -1    0    0  501    0  0.00000000000E+00  0.00000000000E+00  0.15699421454E+04  0.15699421454E+04  0.50400000000E-02 0. -1.
         -1   -1    0    0    0  501 -0.00000000000E+00 -0.00000000000E+00 -0.12449856049E+02  0.12449857069E+02  0.50400000000E-02 0.  1.
         25    2    1    2    0    0  0.13672175885E+02 -0.81367215656E+02  0.67023477026E+03  0.68676507672E+03  0.12499628463E+03 0.  0.
         23    2    1    2    0    0 -0.13672175885E+02  0.81367215656E+02  0.88725751908E+03  0.89562692573E+03  0.90078481154E+02 0.  0.
        -13    1    4    4    0    0 -0.44156597767E+02  0.64701198209E+02  0.43191275183E+03  0.43895863875E+03  0.10566000000E+00 0.  1.
         13    1    4    4    0    0  0.30484421882E+02  0.16666017447E+02  0.45534476724E+03  0.45666828698E+03  0.10566000000E+00 0. -1.
    9000005    1    3    3    0    0 -0.47018002586E+02 -0.32748044728E-01  0.25563352871E+03  0.25992343996E+03  0.10000000000E+01 0.  0.
    9000005    1    3    3    0    0  0.60690178471E+02 -0.81334467611E+02  0.41460124154E+03  0.42684163676E+03  0.10000000000E+01 0.  0.
<mgrwt>
<rscale>  0 0.14233116E+03</rscale>
<asrwt>0</asrwt>
<pdfrwt beam="1">  1        1 0.24152953E+00 0.14977190E+03</pdfrwt>
<pdfrwt beam="2">  1       -1 0.19153628E-02 0.14977190E+03</pdfrwt>
<totfact> 0.46426515E+03</totfact>
</mgrwt>
</event>
<event>
 8    3  0.1508318E-003  0.1617507E+03  0.7818608E-02  0.1193331E+00
         -1   -1    0    0    0  501 -0.00000000000E+00  0.00000000000E+00  0.27960206607E+02  0.27960207062E+02  0.50400000000E-02 0.  1.
          1   -1    0    0  501    0  0.00000000000E+00 -0.00000000000E+00 -0.82371388603E+03  0.82371388604E+03  0.50400000000E-02 0. -1.
         25    2    1    2    0    0 -0.22916170603E+02 -0.10006381883E+03 -0.47458604650E+03  0.50139325017E+03  0.12500142826E+03 0.  0.
         23    2    1    2    0    0  0.22916170603E+02  0.10006381883E+03 -0.32116763292E+03  0.35028084294E+03  0.94921555923E+02 0.  0.
        -13    1    4    4    0    0 -0.20584475192E+02  0.30403665541E+01 -0.12891451315E+03  0.13058302843E+03  0.10566000000E+00 0. -1.
         13    1    4    4    0    0  0.43500645795E+02  0.97023452275E+02 -0.19225311977E+03  0.21969781451E+03  0.10566000000E+00 0.  1.
    9000005    1    3    3    0    0 -0.41505978484E+02 -0.42588148755E+02 -0.40455345901E+03  0.40890218618E+03  0.10000000000E+01 0.  0.
    9000005    1    3    3    0    0  0.18589807881E+02 -0.57475670074E+02 -0.70032587490E+02  0.92491063991E+02  0.10000000000E+01 0.  0.
<mgrwt>
<rscale>  0 0.15596329E+03</rscale>
<asrwt>0</asrwt>
<pdfrwt beam="2">  1        1 0.12672519E+00 0.16175066E+03</pdfrwt>
<pdfrwt beam="1">  1       -1 0.43015709E-02 0.16175066E+03</pdfrwt>
<totfact> 0.47605389E+03</totfact>
</mgrwt>
</event>
<event>
 8    3  0.1508318E-003  0.1277522E+03  0.7818608E-02  0.1244438E+00
          1   -1    0    0  501    0  0.00000000000E+00  0.00000000000E+00  0.62126605116E+03  0.62126605118E+03  0.50400000000E-02 0. -1.
         -1   -1    0    0    0  501 -0.00000000000E+00 -0.00000000000E+00 -0.20296232840E+02  0.20296233466E+02  0.50400000000E-02 0.  1.
         25    2    1    2    0    0  0.21596843271E+02 -0.15129293448E+02  0.34736277591E+03  0.37011013475E+03  0.12500117839E+03 0.  0.
         23    2    1    2    0    0 -0.21596843271E+02  0.15129293448E+02  0.25360704241E+03  0.27145214989E+03  0.93136558678E+02 0.  0.
        -13    1    4    4    0    0  0.96140812159E+00  0.80405152521E+01 -0.64309288226E+01  0.10341286218E+02  0.10566000000E+00 0.  1.
         13    1    4    4    0    0 -0.22558251392E+02  0.70887781957E+01  0.26003797123E+03  0.26111086368E+03  0.10566000000E+00 0. -1.
    9000005    1    3    3    0    0  0.62425258549E+02 -0.35112957112E+02  0.27870144978E+03  0.28775915411E+03  0.10000000000E+01 0.  0.
    9000005    1    3    3    0    0 -0.40828415279E+02  0.19983663664E+02  0.68661326126E+02  0.82350980644E+02  0.10000000000E+01 0.  0.
<mgrwt>
<rscale>  0 0.11919063E+03</rscale>
<asrwt>0</asrwt>
<pdfrwt beam="1">  1        1 0.95579385E-01 0.12775216E+03</pdfrwt>
<pdfrwt beam="2">  1       -1 0.31224977E-02 0.12775216E+03</pdfrwt>
<totfact> 0.11305812E+04</totfact>
</mgrwt>
</event>
<event>
 8    3  0.1508318E-003  0.1341646E+03  0.7818608E-02  0.1234886E+00
          1   -1    0    0  501    0  0.00000000000E+00  0.00000000000E+00  0.36928236428E+02  0.36928236772E+02  0.50400000000E-02 0.  1.
         -1   -1    0    0    0  501 -0.00000000000E+00 -0.00000000000E+00 -0.75567603650E+03  0.75567603652E+03  0.50400000000E-02 0. -1.
         25    2    1    2    0    0  0.39035225209E+01 -0.48581000270E+02 -0.10457746696E+03  0.17010756122E+03  0.12499913885E+03 0.  0.
         23    2    1    2    0    0 -0.39035225209E+01  0.48581000270E+02 -0.61417033312E+03  0.62249671208E+03  0.89003412240E+02 0.  0.
        -13    1    4    4    0    0  0.81945316721E+00  0.49181646028E+02 -0.14156093969E+03  0.14986332646E+03  0.10566000000E+00 0.  1.
         13    1    4    4    0    0 -0.47229756881E+01 -0.60064575712E+00 -0.47260939343E+03  0.47263338561E+03  0.10566000000E+00 0. -1.
    9000005    1    3    3    0    0 -0.42048909255E+02 -0.71205696284E+02 -0.59648813750E+02  0.10196736210E+03  0.10000000000E+01 0.  0.
    9000005    1    3    3    0    0  0.45952431776E+02  0.22624696013E+02 -0.44928653209E+02  0.68140199111E+02  0.10000000000E+01 0.  0.
<mgrwt>
<rscale>  0 0.12511721E+03</rscale>
<asrwt>0</asrwt>
<pdfrwt beam="1">  1        1 0.56812677E-02 0.13416458E+03</pdfrwt>
<pdfrwt beam="2">  1       -1 0.11625784E+00 0.13416458E+03</pdfrwt>
<totfact> 0.97729180E+02</totfact>
</mgrwt>
</event>
<event>
 8    3  0.1508318E-003  0.1250704E+03  0.7818608E-02  0.1249542E+00
         -1   -1    0    0    0  501 -0.00000000000E+00  0.00000000000E+00  0.71529530725E+02  0.71529530903E+02  0.50400000000E-02 0.  1.
          1   -1    0    0  501    0  0.00000000000E+00 -0.00000000000E+00 -0.17444148233E+03  0.17444148241E+03  0.50400000000E-02 0. -1.
         25    2    1    2    0    0 -0.11520983934E+00  0.41044446382E+01 -0.32470635424E+02  0.12921665021E+03  0.12500296311E+03 0.  0.
         23    2    1    2    0    0  0.11520983934E+00 -0.41044446382E+01 -0.70441316185E+02  0.11675436310E+03  0.93020118997E+02 0.  0.
        -13    1    4    4    0    0  0.30144890545E+02 -0.35988606883E+02 -0.49448075995E+02  0.68183705055E+02  0.10566000000E+00 0. -1.
         13    1    4    4    0    0 -0.30029680705E+02  0.31884162245E+02 -0.20993240190E+02  0.48570658046E+02  0.10566000000E+00 0.  1.
    9000005    1    3    3    0    0  0.41184230924E+02  0.60532608508E+01 -0.64592336828E+02  0.76850197272E+02  0.10000000000E+01 0.  0.
    9000005    1    3    3    0    0 -0.41299440764E+02 -0.19488162126E+01  0.32121701405E+02  0.52366452937E+02  0.10000000000E+01 0.  0.
<mgrwt>
<rscale>  0 0.11617582E+03</rscale>
<asrwt>0</asrwt>
<pdfrwt beam="2">  1        1 0.26837151E-01 0.12507038E+03</pdfrwt>
<pdfrwt beam="1">  1       -1 0.11004543E-01 0.12507038E+03</pdfrwt>
<totfact> 0.86056988E+03</totfact>
</mgrwt>
</event>
<event>
 8    3  0.1508318E-003  0.1344246E+03  0.7818608E-02  0.1234063E+00
          1   -1    0    0  501    0  0.00000000000E+00  0.00000000000E+00  0.19528938128E+02  0.19528938778E+02  0.50400000000E-02 0. -1.
         -1   -1    0    0    0  501 -0.00000000000E+00 -0.00000000000E+00 -0.90062481058E+03  0.90062481059E+03  0.50400000000E-02 0.  1.
         25    2    1    2    0    0  0.42044798872E+02  0.26015825554E+02 -0.28278642692E+03  0.31311041903E+03  0.12500153185E+03 0.  0.
         23    2    1    2    0    0 -0.42044798872E+02 -0.26015825554E+02 -0.59830944553E+03  0.60704333034E+03  0.89904527168E+02 0.  0.
        -13    1    4    4    0    0  0.10063727512E+01 -0.40499774501E+02 -0.12152022568E+03  0.12809535875E+03  0.10566000000E+00 0. -1.
         13    1    4    4    0    0 -0.43051171624E+02  0.14483948948E+02 -0.47678921985E+03  0.47894797159E+03  0.10566000000E+00 0.  1.
    9000005    1    3    3    0    0  0.52998839489E+01 -0.37727565121E+02 -0.19441443632E+03  0.19811469150E+03  0.10000000000E+01 0.  0.
    9000005    1    3    3    0    0  0.36744914923E+02  0.63743390674E+02 -0.88371990601E+02  0.11499572753E+03  0.10000000000E+01 0.  0.
<mgrwt>
<rscale>  0 0.12564617E+03</rscale>
<asrwt>0</asrwt>
<pdfrwt beam="1">  1        1 0.30044528E-02 0.13442459E+03</pdfrwt>
<pdfrwt beam="2">  1       -1 0.13855763E+00 0.13442459E+03</pdfrwt>
<totfact> 0.15377215E+03</totfact>
</mgrwt>
</event>
<event>
 8    3  0.1508318E-003  0.1256132E+03  0.7818608E-02  0.1249875E+00
         -1   -1    0    0    0  501 -0.00000000000E+00  0.00000000000E+00  0.19071852644E+03  0.19071852651E+03  0.50400000000E-02 0.  1.
          1   -1    0    0  501    0  0.00000000000E+00 -0.00000000000E+00 -0.63761578332E+02  0.63761578531E+02  0.50400000000E-02 0. -1.
         25    2    1    2    0    0 -0.57160285820E+00 -0.12448851374E+02  0.50459847865E+02  0.13536938445E+03  0.12499349331E+03 0.  0.
         23    2    1    2    0    0  0.57160285820E+00  0.12448851374E+02  0.76497100248E+02  0.11911072059E+03  0.90444772005E+02 0.  0.
        -13    1    4    4    0    0 -0.12063883726E+02 -0.15282572339E+02 -0.13763710979E+02  0.23844186122E+02  0.10566000000E+00 0. -1.
         13    1    4    4    0    0  0.12635486585E+02  0.27731423713E+02  0.90260811227E+02  0.95266534469E+02  0.10566000000E+00 0.  1.
    9000005    1    3    3    0    0  0.42033624882E+02 -0.34686992405E+02 -0.12729766566E+02  0.55973744021E+02  0.10000000000E+01 0.  0.
    9000005    1    3    3    0    0 -0.42605227741E+02  0.22238141031E+02  0.63189614431E+02  0.79395640430E+02  0.10000000000E+01 0.  0.
<mgrwt>
<rscale>  0 0.11598271E+03</rscale>
<asrwt>0</asrwt>
<pdfrwt beam="2">  1        1 0.98094736E-02 0.12561319E+03</pdfrwt>
<pdfrwt beam="1">  1       -1 0.29341312E-01 0.12561319E+03</pdfrwt>
<totfact> 0.65885853E+03</totfact>
</mgrwt>
</event>
<event>
 8    3  0.1508318E-003  0.1302616E+03  0.7818608E-02  0.1240124E+00
         -1   -1    0    0    0  501 -0.00000000000E+00  0.00000000000E+00  0.57588954679E+01  0.57588976733E+01  0.50400000000E-02 0.  1.
          1   -1    0    0  501    0  0.00000000000E+00 -0.00000000000E+00 -0.24012954338E+04  0.24012954338E+04  0.50400000000E-02 0. -1.
         25    2    1    2    0    0 -0.27220349591E+02  0.24537359931E+02 -0.10985261706E+04  0.11062223230E+04  0.12500020368E+03 0.  0.
         23    2    1    2    0    0  0.27220349591E+02 -0.24537359931E+02 -0.12970103677E+04  0.13008320084E+04  0.92655225668E+02 0.  0.
        -13    1    4    4    0    0  0.24883169864E+02 -0.41829720324E+02 -0.32129292886E+03  0.32495854342E+03  0.10566000000E+00 0.  1.
         13    1    4    4    0    0  0.23371797278E+01  0.17292360393E+02 -0.97571743883E+03  0.97587346502E+03  0.10566000000E+00 0. -1.
    9000005    1    3    3    0    0  0.24135121569E+02  0.60289600540E+02 -0.67165768856E+03  0.67479062725E+03  0.10000000000E+01 0.  0.
    9000005    1    3    3    0    0 -0.51355471160E+02 -0.35752240609E+02 -0.42686848209E+03  0.43143169579E+03  0.10000000000E+01 0.  0.
<mgrwt>
<rscale>  0 0.12182042E+03</rscale>
<asrwt>0</asrwt>
<pdfrwt beam="2">  1        1 0.36942927E+00 0.13026158E+03</pdfrwt>
<pdfrwt beam="1">  1       -1 0.88598601E-03 0.13026158E+03</pdfrwt>
<totfact> 0.41083242E+03</totfact>
</mgrwt>
</event>
<event>
 8    3  0.1508318E-003  0.1647383E+03  0.7818608E-02  0.1190337E+00
          1   -1    0    0  501    0  0.00000000000E+00  0.00000000000E+00  0.14017122121E+04  0.14017122121E+04  0.50400000000E-02 0. -1.
         -1   -1    0    0    0  501 -0.00000000000E+00 -0.00000000000E+00 -0.16945475513E+02  0.16945476263E+02  0.50400000000E-02 0.  1.
         25    2    1    2    0    0 -0.10572992179E+03 -0.18303753918E+02  0.66141224943E+03  0.68161930661E+03  0.12499948672E+03 0.  0.
         23    2    1    2    0    0  0.10572992179E+03  0.18303753918E+02  0.72335448716E+03  0.73703838176E+03  0.92032702500E+02 0.  0.
        -13    1    4    4    0    0  0.57462551767E+02  0.84539194412E+01  0.61813678458E+03  0.62085949234E+03  0.10566000000E+00 0. -1.
         13    1    4    4    0    0  0.48267370025E+02  0.98498344772E+01  0.10521770258E+03  0.11617888942E+03  0.10566000000E+00 0.  1.
    9000005    1    3    3    0    0  0.69879301512E+01 -0.35215423014E+02  0.63626978394E+02  0.73064010056E+02  0.10000000000E+01 0.  0.
    9000005    1    3    3    0    0 -0.11271785194E+03  0.16911669096E+02  0.59778527103E+03  0.60855529655E+03  0.10000000000E+01 0.  0.
<mgrwt>
<rscale>  0 0.15855535E+03</rscale>
<asrwt>0</asrwt>
<pdfrwt beam="1">  1        1 0.21564805E+00 0.16473832E+03</pdfrwt>
<pdfrwt beam="2">  1       -1 0.26069961E-02 0.16473832E+03</pdfrwt>
<totfact> 0.38305280E+03</totfact>
</mgrwt>
</event>
<event>
 8    3  0.1508318E-003  0.1342343E+03  0.7818608E-02  0.1232374E+00
         -1   -1    0    0    0  501 -0.00000000000E+00  0.00000000000E+00  0.28992664216E+02  0.28992664654E+02  0.50400000000E-02 0.  1.
          1   -1    0    0  501    0  0.00000000000E+00 -0.00000000000E+00 -0.60771516099E+03  0.60771516101E+03  0.50400000000E-02 0. -1.
         25    2    1    2    0    0 -0.51750810922E+01  0.48613066865E+02 -0.44964363950E+03  0.46925287667E+03  0.12501539098E+03 0.  0.
         23    2    1    2    0    0  0.51750810922E+01 -0.48613066865E+02 -0.12907885727E+03  0.16745494899E+03  0.94814539046E+02 0.  0.
        -13    1    4    4    0    0 -0.36336248390E+02 -0.35652952292E+02 -0.29601274670E+02  0.58887202177E+02  0.10566000000E+00 0. -1.
         13    1    4    4    0    0  0.41511329482E+02 -0.12960114573E+02 -0.99477582600E+02  0.10856774682E+03  0.10566000000E+00 0.  1.
    9000005    1    3    3    0    0  0.94738665723E+01  0.73202871344E+02 -0.13984291516E+03  0.15813113369E+03  0.10000000000E+01 0.  0.
    9000005    1    3    3    0    0 -0.14648947664E+02 -0.24589804479E+02 -0.30980072434E+03  0.31112174298E+03  0.10000000000E+01 0.  0.
<mgrwt>
<rscale>  0 0.12674026E+03</rscale>
<asrwt>0</asrwt>
<pdfrwt beam="2">  1        1 0.93494631E-01 0.13423435E+03</pdfrwt>
<pdfrwt beam="1">  1       -1 0.44604104E-02 0.13423435E+03</pdfrwt>
<totfact> 0.69357449E+03</totfact>
</mgrwt>
</event>
<event>
 8    3  0.1508318E-003  0.1400319E+03  0.7818608E-02  0.1224302E+00
         -1   -1    0    0    0  501 -0.00000000000E+00  0.00000000000E+00  0.14969564510E+03  0.14969564519E+03  0.50400000000E-02 0.  1.
          1   -1    0    0  501    0  0.00000000000E+00 -0.00000000000E+00 -0.10772618787E+03  0.10772618799E+03  0.50400000000E-02 0. -1.
         25    2    1    2    0    0 -0.43218689552E+02 -0.45989428068E+02  0.41371201700E+01  0.14009303067E+03  0.12500423536E+03 0.  0.
         23    2    1    2    0    0  0.43218689552E+02  0.45989428068E+02  0.37832337067E+02  0.11732880250E+03  0.91388618262E+02 0.  0.
        -13    1    4    4    0    0 -0.68314110400E+01  0.41149950431E+02  0.50474462919E+02  0.65480296031E+02  0.10566000000E+00 0.  1.
         13    1    4    4    0    0  0.50050100592E+02  0.48394776365E+01 -0.12642125852E+02  0.51848506470E+02  0.10566000000E+00 0. -1.
    9000005    1    3    3    0    0  0.36874221587E+02 -0.42668509187E+02  0.16978433048E+02  0.58903116069E+02  0.10000000000E+01 0.  0.
    9000005    1    3    3    0    0 -0.80092911139E+02 -0.33209188810E+01 -0.12841312878E+02  0.81189914604E+02  0.10000000000E+01 0.  0.
<mgrwt>
<rscale>  0 0.13214832E+03</rscale>
<asrwt>0</asrwt>
<pdfrwt beam="2">  1        1 0.16573260E-01 0.14003193E+03</pdfrwt>
<pdfrwt beam="1">  1       -1 0.23030099E-01 0.14003193E+03</pdfrwt>
<totfact> 0.49892307E+03</totfact>
</mgrwt>
</event>
<event>
 8    3  0.1508318E-003  0.1980656E+03  0.7818608E-02  0.1155866E+00
         -1   -1    0    0    0  501 -0.00000000000E+00  0.00000000000E+00  0.10799163193E+03  0.10799163205E+03  0.50400000000E-02 0.  1.
          1   -1    0    0  501    0  0.00000000000E+00 -0.00000000000E+00 -0.33937410359E+03  0.33937410363E+03  0.50400000000E-02 0. -1.
         25    2    1    2    0    0  0.50772955464E+02 -0.14501518537E+03 -0.80300336400E+02  0.21372442576E+03  0.12499075624E+03 0.  0.
         23    2    1    2    0    0 -0.50772955464E+02  0.14501518537E+03 -0.15108213526E+03  0.23364130992E+03  0.90305886359E+02 0.  0.
        -13    1    4    4    0    0 -0.55575209404E+02  0.61302877407E+02 -0.33602252183E+02  0.89307162056E+02  0.10566000000E+00 0.  1.
         13    1    4    4    0    0  0.48022539392E+01  0.83712307964E+02 -0.11747988308E+03  0.14433414786E+03  0.10566000000E+00 0. -1.
    9000005    1    3    3    0    0  0.17732473930E+02  0.21081742006E+02 -0.19587239583E+02  0.33816274665E+02  0.10000000000E+01 0.  0.
    9000005    1    3    3    0    0  0.33040481535E+02 -0.16609692738E+03 -0.60713096817E+02  0.17990815109E+03  0.10000000000E+01 0.  0.
<mgrwt>
<rscale>  0 0.19290614E+03</rscale>
<asrwt>0</asrwt>
<pdfrwt beam="2">  1        1 0.52211400E-01 0.19806561E+03</pdfrwt>
<pdfrwt beam="1">  1       -1 0.16614097E-01 0.19806561E+03</pdfrwt>
<totfact> 0.20212297E+03</totfact>
</mgrwt>
</event>
<event>
 8    3  0.1508318E-003  0.1298070E+03  0.7818608E-02  0.1241265E+00
         -1   -1    0    0    0  501 -0.00000000000E+00  0.00000000000E+00  0.22415323772E+02  0.22415324338E+02  0.50400000000E-02 0.  1.
          1   -1    0    0  501    0  0.00000000000E+00 -0.00000000000E+00 -0.15761710933E+04  0.15761710933E+04  0.50400000000E-02 0. -1.
         25    2    1    2    0    0 -0.47153440109E+01  0.34688571721E+02 -0.18332417739E+03  0.22462772413E+03  0.12499731579E+03 0.  0.
         23    2    1    2    0    0  0.47153440109E+01 -0.34688571721E+02 -0.13704315921E+04  0.13739586935E+04  0.91946785017E+02 0.  0.
        -13    1    4    4    0    0  0.46697849518E+02 -0.14282191977E+02 -0.86454609812E+03  0.86592415204E+03  0.10566000000E+00 0. -1.
         13    1    4    4    0    0 -0.41982505507E+02 -0.20406379743E+02 -0.50588549402E+03  0.50803454147E+03  0.10566000000E+00 0.  1.
    9000005    1    3    3    0    0 -0.16668202374E+02  0.77069598939E+02 -0.14975265886E+03  0.16924659785E+03  0.10000000000E+01 0.  0.
    9000005    1    3    3    0    0  0.11952858363E+02 -0.42381027218E+02 -0.33571518534E+02  0.55381126277E+02  0.10000000000E+01 0.  0.
<mgrwt>
<rscale>  0 0.12111741E+03</rscale>
<asrwt>0</asrwt>
<pdfrwt beam="2">  1        1 0.24248777E+00 0.12980701E+03</pdfrwt>
<pdfrwt beam="1">  1       -1 0.34485126E-02 0.12980701E+03</pdfrwt>
<totfact> 0.19545033E+03</totfact>
</mgrwt>
</event>
<event>
 8    3  0.1508318E-003  0.1291708E+03  0.7818608E-02  0.1243238E+00
         -1   -1    0    0    0  501 -0.00000000000E+00  0.00000000000E+00  0.32572309660E+02  0.32572310050E+02  0.50400000000E-02 0.  1.
          1   -1    0    0  501    0  0.00000000000E+00 -0.00000000000E+00 -0.10845937523E+04  0.10845937523E+04  0.50400000000E-02 0. -1.
         25    2    1    2    0    0  0.16718054297E+02  0.27925050751E+02 -0.10825418205E+03  0.16853502208E+03  0.12500313571E+03 0.  0.
         23    2    1    2    0    0 -0.16718054297E+02 -0.27925050751E+02 -0.94376726055E+03  0.94863104024E+03  0.90249136443E+02 0.  0.
        -13    1    4    4    0    0 -0.24393734801E+02 -0.15050907180E+02 -0.84426585509E+02  0.89159652362E+02  0.10566000000E+00 0.  1.
         13    1    4    4    0    0  0.76756805044E+01 -0.12874143571E+02 -0.85934067504E+03  0.85947138788E+03  0.10566000000E+00 0. -1.
    9000005    1    3    3    0    0  0.41486192375E+02  0.51822166053E+02 -0.13540283081E+02  0.67756773227E+02  0.10000000000E+01 0.  0.
    9000005    1    3    3    0    0 -0.24768138078E+02 -0.23897115302E+02 -0.94713898969E+02  0.10077824885E+03  0.10000000000E+01 0.  0.
<mgrwt>
<rscale>  0 0.11991444E+03</rscale>
<asrwt>0</asrwt>
<pdfrwt beam="2">  1        1 0.16686055E+00 0.12917076E+03</pdfrwt>
<pdfrwt beam="1">  1       -1 0.50111254E-02 0.12917076E+03</pdfrwt>
<totfact> 0.24019399E+03</totfact>
</mgrwt>
</event>
<event>
 8    3  0.1508318E-003  0.1269957E+03  0.7818608E-02  0.1248444E+00
         -1   -1    0    0    0  501 -0.00000000000E+00  0.00000000000E+00  0.13728270308E+02  0.13728271233E+02  0.50400000000E-02 0.  1.
          1   -1    0    0  501    0  0.00000000000E+00 -0.00000000000E+00 -0.88148090252E+03  0.88148090254E+03  0.50400000000E-02 0. -1.
         25    2    1    2    0    0  0.74869255412E+01  0.21131599574E+02 -0.56517872564E+03  0.57927101072E+03  0.12500125356E+03 0.  0.
         23    2    1    2    0    0 -0.74869255412E+01 -0.21131599574E+02 -0.30257390657E+03  0.31593816305E+03  0.88109905094E+02 0.  0.
        -13    1    4    4    0    0 -0.12691039724E+02 -0.52606049628E+02 -0.13664861552E+03  0.14697385561E+03  0.10566000000E+00 0.  1.
         13    1    4    4    0    0  0.52041141829E+01  0.31474450054E+02 -0.16592529106E+03  0.16896430744E+03  0.10566000000E+00 0. -1.
    9000005    1    3    3    0    0  0.54427275180E+02  0.92289746970E+01 -0.46201557389E+03  0.46530301178E+03  0.10000000000E+01 0.  0.
    9000005    1    3    3    0    0 -0.46940349639E+02  0.11902624877E+02 -0.10316315175E+03  0.11396799894E+03  0.10000000000E+01 0.  0.
<mgrwt>
<rscale>  0 0.11681629E+03</rscale>
<asrwt>0</asrwt>
<pdfrwt beam="2">  1        1 0.13561240E+00 0.12699572E+03</pdfrwt>
<pdfrwt beam="1">  1       -1 0.21120423E-02 0.12699572E+03</pdfrwt>
<totfact> 0.11941665E+04</totfact>
</mgrwt>
</event>
<event>
 8    3  0.1508318E-003  0.1379924E+03  0.7818608E-02  0.1227739E+00
          1   -1    0    0  501    0  0.00000000000E+00  0.00000000000E+00  0.40316454146E+03  0.40316454149E+03  0.50400000000E-02 0. -1.
         -1   -1    0    0    0  501 -0.00000000000E+00 -0.00000000000E+00 -0.44371059203E+02  0.44371059490E+02  0.50400000000E-02 0.  1.
         25    2    1    2    0    0  0.31703788646E+02  0.49104922293E+02  0.11062259083E+03  0.17685945030E+03  0.12500193579E+03 0.  0.
         23    2    1    2    0    0 -0.31703788646E+02 -0.49104922293E+02  0.24817089142E+03  0.27067615068E+03  0.90886542390E+02 0.  0.
        -13    1    4    4    0    0 -0.60697171252E+02 -0.27914034846E+02  0.11755113528E+03  0.13520954297E+03  0.10566000000E+00 0.  1.
         13    1    4    4    0    0  0.28993382606E+02 -0.21190887447E+02  0.13061975614E+03  0.13546660771E+03  0.10566000000E+00 0. -1.
    9000005    1    3    3    0    0 -0.21373840379E+02  0.75528491274E+02  0.58380089700E+02  0.97829591229E+02  0.10000000000E+01 0.  0.
    9000005    1    3    3    0    0  0.53077629025E+02 -0.26423568980E+02  0.52242501130E+02  0.79029859072E+02  0.10000000000E+01 0.  0.
<mgrwt>
<rscale>  0 0.12980961E+03</rscale>
<asrwt>0</asrwt>
<pdfrwt beam="1">  1        1 0.62025315E-01 0.13799242E+03</pdfrwt>
<pdfrwt beam="2">  1       -1 0.68263167E-02 0.13799242E+03</pdfrwt>
<totfact> 0.63101795E+03</totfact>
</mgrwt>
</event>
<event>
 8    3  0.1508318E-003  0.1273856E+03  0.7818608E-02  0.1246694E+00
         -1   -1    0    0    0  501 -0.00000000000E+00  0.00000000000E+00  0.29775870692E+02  0.29775871118E+02  0.50400000000E-02 0.  1.
          1   -1    0    0  501    0  0.00000000000E+00 -0.00000000000E+00 -0.48021451677E+03  0.48021451679E+03  0.50400000000E-02 0. -1.
         25    2    1    2    0    0  0.24109493940E+02  0.45064821953E+01 -0.15758504432E+03  0.20263302864E+03  0.12500208807E+03 0.  0.
         23    2    1    2    0    0 -0.24109493940E+02 -0.45064821953E+01 -0.29285360175E+03  0.30735735927E+03  0.90020765158E+02 0.  0.
        -13    1    4    4    0    0 -0.21828298209E+02  0.36333519036E+02 -0.21775300181E+03  0.22183998776E+03  0.10566000000E+00 0. -1.
         13    1    4    4    0    0 -0.22811957311E+01 -0.40840001231E+02 -0.75100599940E+02  0.85517371510E+02  0.10566000000E+00 0.  1.
    9000005    1    3    3    0    0  0.11966548981E+02 -0.60265698139E+02 -0.78122475657E+02  0.99394536417E+02  0.10000000000E+01 0.  0.
    9000005    1    3    3    0    0  0.12142944959E+02  0.64772180334E+02 -0.79462568668E+02  0.10323849222E+03  0.10000000000E+01 0.  0.
<mgrwt>
<rscale>  0 0.11784560E+03</rscale>
<asrwt>0</asrwt>
<pdfrwt beam="2">  1        1 0.73879151E-01 0.12738563E+03</pdfrwt>
<pdfrwt beam="1">  1       -1 0.45809036E-02 0.12738563E+03</pdfrwt>
<totfact> 0.90806154E+03</totfact>
</mgrwt>
</event>
<event>
 8    3  0.1508318E-003  0.1607969E+03  0.7818608E-02  0.1194756E+00
         -1   -1    0    0    0  501 -0.00000000000E+00  0.00000000000E+00  0.13766489298E+03  0.13766489308E+03  0.50400000000E-02 0.  1.
          1   -1    0    0  501    0  0.00000000000E+00 -0.00000000000E+00 -0.26526475465E+03  0.26526475469E+03  0.50400000000E-02 0. -1.
         25    2    1    2    0    0  0.81089911789E+02 -0.60461661951E+02  0.58653741394E+02  0.17116050518E+03  0.12499788316E+03 0.  0.
         23    2    1    2    0    0 -0.81089911789E+02  0.60461661951E+02 -0.18625360306E+03  0.23176914259E+03  0.93783497728E+02 0.  0.
        -13    1    4    4    0    0 -0.57533978784E+02  0.49239200759E+02 -0.19080414274E+03  0.20528246310E+03  0.10566000000E+00 0. -1.
         13    1    4    4    0    0 -0.23555933005E+02  0.11222461193E+02  0.45505396838E+01  0.26486679490E+02  0.10566000000E+00 0.  1.
    9000005    1    3    3    0    0  0.70825918865E+02 -0.98361539150E+02  0.39691646480E+02  0.12754501153E+03  0.10000000000E+01 0.  0.
    9000005    1    3    3    0    0  0.10263992924E+02  0.37899877198E+02  0.18962094914E+02  0.43615493645E+02  0.10000000000E+01 0.  0.
<mgrwt>
<rscale>  0 0.15474916E+03</rscale>
<asrwt>0</asrwt>
<pdfrwt beam="2">  1        1 0.40809962E-01 0.16079694E+03</pdfrwt>
<pdfrwt beam="1">  1       -1 0.21179214E-01 0.16079694E+03</pdfrwt>
<totfact> 0.18504428E+03</totfact>
</mgrwt>
</event>
<event>
 8    3  0.1508318E-003  0.1433949E+03  0.7818608E-02  0.1218905E+00
         -1   -1    0    0    0  501 -0.00000000000E+00  0.00000000000E+00  0.18593541403E+03  0.18593541410E+03  0.50400000000E-02 0.  1.
          1   -1    0    0  501    0  0.00000000000E+00 -0.00000000000E+00 -0.17986822032E+03  0.17986822039E+03  0.50400000000E-02 0. -1.
         25    2    1    2    0    0  0.29366985208E+02  0.63833032507E+02 -0.12547965925E+03  0.19054456158E+03  0.12500003682E+03 0.  0.
         23    2    1    2    0    0 -0.29366985208E+02 -0.63833032507E+02  0.13154685296E+03  0.17525907290E+03  0.92054832850E+02 0.  0.
        -13    1    4    4    0    0 -0.16931580866E+02 -0.60804537729E+02  0.14410876589E+03  0.15732519763E+03  0.10566000000E+00 0.  1.
         13    1    4    4    0    0 -0.12435404342E+02 -0.30284947782E+01 -0.12561912929E+02  0.17933875271E+02  0.10566000000E+00 0. -1.
    9000005    1    3    3    0    0  0.52611117418E+01  0.54554864738E+02 -0.14701363593E+03  0.15690099334E+03  0.10000000000E+01 0.  0.
    9000005    1    3    3    0    0  0.24105873466E+02  0.92781677694E+01  0.21533976673E+02  0.33643568242E+02  0.10000000000E+01 0.  0.
<mgrwt>
<rscale>  0 0.13593569E+03</rscale>
<asrwt>0</asrwt>
<pdfrwt beam="2">  1        1 0.27672034E-01 0.14339486E+03</pdfrwt>
<pdfrwt beam="1">  1       -1 0.28605448E-01 0.14339486E+03</pdfrwt>
<totfact> 0.18233629E+03</totfact>
</mgrwt>
</event>
<event>
 8    3  0.1508318E-003  0.2099841E+03  0.7818608E-02  0.1144615E+00
          1   -1    0    0  501    0  0.00000000000E+00  0.00000000000E+00  0.45634932753E+03  0.45634932756E+03  0.50400000000E-02 0. -1.
         -1   -1    0    0    0  501 -0.00000000000E+00 -0.00000000000E+00 -0.91609501546E+02  0.91609501684E+02  0.50400000000E-02 0.  1.
         25    2    1    2    0    0  0.42133229040E+02 -0.16334571836E+03  0.22569469656E+03  0.30827163439E+03  0.12504507915E+03 0.  0.
         23    2    1    2    0    0 -0.42133229040E+02  0.16334571836E+03  0.13904512943E+03  0.23968719485E+03  0.98282097375E+02 0.  0.
        -13    1    4    4    0    0 -0.20574266785E+02  0.15884557971E+03  0.14585882727E+03  0.21663339379E+03  0.10566000000E+00 0. -1.
         13    1    4    4    0    0 -0.21558962255E+02  0.45001386483E+01 -0.68136978420E+01  0.23053801068E+02  0.10566000000E+00 0.  1.
    9000005    1    3    3    0    0 -0.89485084154E+00 -0.12196933774E+03  0.67993523739E+02  0.13964755414E+03  0.10000000000E+01 0.  0.
    9000005    1    3    3    0    0  0.43028079881E+02 -0.41376380619E+02  0.15770117282E+03  0.16862408025E+03  0.10000000000E+01 0.  0.
<mgrwt>
<rscale>  0 0.20619529E+03</rscale>
<asrwt>0</asrwt>
<pdfrwt beam="1">  1        1 0.70207590E-01 0.20998406E+03</pdfrwt>
<pdfrwt beam="2">  1       -1 0.14093769E-01 0.20998406E+03</pdfrwt>
<totfact> 0.17994703E+03</totfact>
</mgrwt>
</event>
<event>
 8    3  0.1508318E-003  0.1418276E+03  0.7818608E-02  0.1221440E+00
         -1   -1    0    0    0  501 -0.00000000000E+00  0.00000000000E+00  0.44857778091E+02  0.44857778374E+02  0.50400000000E-02 0.  1.
          1   -1    0    0  501    0  0.00000000000E+00 -0.00000000000E+00 -0.42986107764E+03  0.42986107767E+03  0.50400000000E-02 0. -1.
         25    2    1    2    0    0 -0.51591840942E+02  0.42742860069E+02 -0.30348557249E+03  0.33499037022E+03  0.12500554103E+03 0.  0.
         23    2    1    2    0    0  0.51591840942E+02 -0.42742860069E+02 -0.81517727055E+02  0.13972848582E+03  0.91598252101E+02 0.  0.
        -13    1    4    4    0    0  0.58791306957E+02 -0.14829524237E+01 -0.78015656325E+02  0.97698877770E+02  0.10566000000E+00 0. -1.
         13    1    4    4    0    0 -0.71994660150E+01 -0.41259907646E+02 -0.35020707306E+01  0.42029608055E+02  0.10566000000E+00 0.  1.
    9000005    1    3    3    0    0 -0.75482946606E+02  0.59934498985E+02 -0.14717655762E+03  0.17593111865E+03  0.10000000000E+01 0.  0.
    9000005    1    3    3    0    0  0.23891105664E+02 -0.17191638915E+02 -0.15630901488E+03  0.15905925157E+03  0.10000000000E+01 0.  0.
<mgrwt>
<rscale>  0 0.13413909E+03</rscale>
<asrwt>0</asrwt>
<pdfrwt beam="2">  1        1 0.66132471E-01 0.14182756E+03</pdfrwt>
<pdfrwt beam="1">  1       -1 0.69011969E-02 0.14182756E+03</pdfrwt>
<totfact> 0.57321316E+03</totfact>
</mgrwt>
</event>
<event>
 8    3  0.1508318E-003  0.1508195E+03  0.7818608E-02  0.1208340E+00
         -1   -1    0    0    0  501 -0.00000000000E+00  0.00000000000E+00  0.15262911590E+02  0.15262912422E+02  0.50400000000E-02 0.  1.
          1   -1    0    0  501    0  0.00000000000E+00 -0.00000000000E+00 -0.13114389541E+04  0.13114389542E+04  0.50400000000E-02 0. -1.
         25    2    1    2    0    0  0.64154621836E+02 -0.54830656694E+02 -0.55470181976E+03  0.57483964909E+03  0.12499718762E+03 0.  0.
         23    2    1    2    0    0 -0.64154621836E+02  0.54830656694E+02 -0.74147422280E+03  0.75186221748E+03  0.91599970454E+02 0.  0.
        -13    1    4    4    0    0  0.11733162927E+02  0.17911952853E+02 -0.40372283642E+02  0.45699426887E+02  0.10566000000E+00 0.  1.
         13    1    4    4    0    0 -0.75887784762E+02  0.36918703842E+02 -0.70110193916E+03  0.70616279060E+03  0.10566000000E+00 0. -1.
    9000005    1    3    3    0    0  0.71235675642E+02 -0.88980487625E+02 -0.38178947985E+03  0.39844228639E+03  0.10000000000E+01 0.  0.
    9000005    1    3    3    0    0 -0.70810538064E+01  0.34149830930E+02 -0.17291233991E+03  0.17639736270E+03  0.10000000000E+01 0.  0.
<mgrwt>
<rscale>  0 0.14377363E+03</rscale>
<asrwt>0</asrwt>
<pdfrwt beam="2">  1        1 0.20175975E+00 0.15081947E+03</pdfrwt>
<pdfrwt beam="1">  1       -1 0.23481414E-02 0.15081947E+03</pdfrwt>
<totfact> 0.51092485E+03</totfact>
</mgrwt>
</event>
<event>
 8    3  0.1508318E-003  0.1258787E+03  0.7818608E-02  0.1248164E+00
          1   -1    0    0  501    0  0.00000000000E+00  0.00000000000E+00  0.72037835741E+03  0.72037835743E+03  0.50400000000E-02 0. -1.
         -1   -1    0    0    0  501 -0.00000000000E+00 -0.00000000000E+00 -0.16768201348E+02  0.16768202106E+02  0.50400000000E-02 0.  1.
         25    2    1    2    0    0 -0.31791925471E+01 -0.14477771956E+02  0.41080206060E+03  0.42965541057E+03  0.12500290274E+03 0.  0.
         23    2    1    2    0    0  0.31791925471E+01  0.14477771956E+02  0.29280809546E+03  0.30749114896E+03  0.92706595104E+02 0.  0.
        -13    1    4    4    0    0  0.84822614654E+01  0.53025300343E+02  0.14422772671E+03  0.15390022596E+03  0.10566000000E+00 0.  1.
         13    1    4    4    0    0 -0.53030689183E+01 -0.38547528387E+02  0.14858036875E+03  0.15359092300E+03  0.10566000000E+00 0. -1.
    9000005    1    3    3    0    0 -0.34022950270E+02  0.25998161654E+02  0.33870447116E+03  0.34140179311E+03  0.10000000000E+01 0.  0.
    9000005    1    3    3    0    0  0.30843757723E+02 -0.40475933610E+02  0.72097589440E+02  0.88253617462E+02  0.10000000000E+01 0.  0.
<mgrwt>
<rscale>  0 0.11698014E+03</rscale>
<asrwt>0</asrwt>
<pdfrwt beam="1">  1        1 0.11082743E+00 0.12587867E+03</pdfrwt>
<pdfrwt beam="2">  1       -1 0.25797237E-02 0.12587867E+03</pdfrwt>
<totfact> 0.12104167E+04</totfact>
</mgrwt>
</event>
<event>
 8    3  0.1508318E-003  0.1731324E+03  0.7818608E-02  0.1180767E+00
          1   -1    0    0  501    0  0.00000000000E+00  0.00000000000E+00  0.40637708443E+02  0.40637708755E+02  0.50400000000E-02 0. -1.
         -1   -1    0    0    0  501 -0.00000000000E+00 -0.00000000000E+00 -0.70384315260E+03  0.70384315262E+03  0.50400000000E-02 0.  1.
         25    2    1    2    0    0 -0.13508964477E+02 -0.11902554513E+03 -0.24540367516E+03  0.30032945798E+03  0.12500098813E+03 0.  0.
         23    2    1    2    0    0  0.13508964477E+02  0.11902554513E+03 -0.41780176900E+03  0.44415140339E+03  0.91447134688E+02 0.  0.
        -13    1    4    4    0    0 -0.20724774726E+02 -0.53533185060E+01 -0.69788360011E+02  0.72997264767E+02  0.10566000000E+00 0.  1.
         13    1    4    4    0    0  0.34233739203E+02  0.12437886364E+03 -0.34801340899E+03  0.37115413862E+03  0.10566000000E+00 0. -1.
    9000005    1    3    3    0    0  0.28044942034E+02 -0.10390397898E+03 -0.22922135163E+03  0.25323108748E+03  0.10000000000E+01 0.  0.
    9000005    1    3    3    0    0 -0.41553906511E+02 -0.15121566157E+02 -0.16182323530E+02  0.47098370505E+02  0.10000000000E+01 0.  0.
<mgrwt>
<rscale>  0 0.16723070E+03</rscale>
<asrwt>0</asrwt>
<pdfrwt beam="1">  1        1 0.62519557E-02 0.17313238E+03</pdfrwt>
<pdfrwt beam="2">  1       -1 0.10828355E+00 0.17313238E+03</pdfrwt>
<totfact> 0.10165493E+03</totfact>
</mgrwt>
</event>
<event>
 8    3  0.1508318E-003  0.1459897E+03  0.7818608E-02  0.1214180E+00
         -1   -1    0    0    0  501 -0.00000000000E+00  0.00000000000E+00  0.76542358464E+03  0.76542358466E+03  0.50400000000E-02 0.  1.
          1   -1    0    0  501    0  0.00000000000E+00 -0.00000000000E+00 -0.23467279031E+02  0.23467279572E+02  0.50400000000E-02 0. -1.
         25    2    1    2    0    0  0.20826447412E+02  0.72484557808E+02  0.43548033298E+03  0.45929959011E+03  0.12500096411E+03 0.  0.
         23    2    1    2    0    0 -0.20826447412E+02 -0.72484557808E+02  0.30647597264E+03  0.32959127413E+03  0.94948060251E+02 0.  0.
        -13    1    4    4    0    0  0.37065872241E+02 -0.37041485570E+02  0.15450032135E+03  0.16314506122E+03  0.10566000000E+00 0.  1.
         13    1    4    4    0    0 -0.57892319653E+02 -0.35443072238E+02  0.15197565128E+03  0.16644621291E+03  0.10566000000E+00 0. -1.
    9000005    1    3    3    0    0 -0.43227826028E+02  0.68460708273E+02  0.26690873422E+03  0.27892075204E+03  0.10000000000E+01 0.  0.
    9000005    1    3    3    0    0  0.64054273440E+02  0.40238495351E+01  0.16857159876E+03  0.18037883806E+03  0.10000000000E+01 0.  0.
<mgrwt>
<rscale>  0 0.13936926E+03</rscale>
<asrwt>0</asrwt>
<pdfrwt beam="2">  1        1 0.36103507E-02 0.14598970E+03</pdfrwt>
<pdfrwt beam="1">  1       -1 0.11775747E+00 0.14598970E+03</pdfrwt>
<totfact> 0.17723559E+03</totfact>
</mgrwt>
</event>
<event>
 8    3  0.1508318E-003  0.2836036E+03  0.7818608E-02  0.1095658E+00
          1   -1    0    0  501    0  0.00000000000E+00  0.00000000000E+00  0.49325213987E+03  0.49325213990E+03  0.50400000000E-02 0. -1.
         -1   -1    0    0    0  501 -0.00000000000E+00 -0.00000000000E+00 -0.17704932622E+03  0.17704932629E+03  0.50400000000E-02 0.  1.
         25    2    1    2    0    0 -0.47335290412E+02  0.25012566388E+03  0.43761948310E+02  0.28696009042E+03  0.12501003129E+03 0.  0.
         23    2    1    2    0    0  0.47335290412E+02 -0.25012566388E+03  0.27244086534E+03  0.38334137577E+03  0.89011840918E+02 0.  0.
        -13    1    4    4    0    0 -0.69196738545E+01 -0.10221030239E+03  0.59558972128E+02  0.11849940982E+03  0.10566000000E+00 0.  1.
         13    1    4    4    0    0  0.54254964266E+02 -0.14791536148E+03  0.21288189321E+03  0.26484196596E+03  0.10566000000E+00 0. -1.
    9000005    1    3    3    0    0  0.36843618296E+00  0.13877478972E+03  0.80414667434E+02  0.16039356828E+03  0.10000000000E+01 0.  0.
    9000005    1    3    3    0    0 -0.47703726595E+02  0.11135087415E+03 -0.36652719124E+02  0.12656652213E+03  0.10000000000E+01 0.  0.
<mgrwt>
<rscale>  0 0.28005635E+03</rscale>
<asrwt>0</asrwt>
<pdfrwt beam="1">  1        1 0.75884945E-01 0.28360357E+03</pdfrwt>
<pdfrwt beam="2">  1       -1 0.27238358E-01 0.28360357E+03</pdfrwt>
<totfact> 0.55650407E+02</totfact>
</mgrwt>
</event>
<event>
 8    3  0.1508318E-003  0.4382224E+03  0.7818608E-02  0.1031941E+00
         -1   -1    0    0    0  501 -0.00000000000E+00  0.00000000000E+00  0.45501598395E+03  0.45501598398E+03  0.50400000000E-02 0.  1.
          1   -1    0    0  501    0  0.00000000000E+00 -0.00000000000E+00 -0.89814348879E+03  0.89814348880E+03  0.50400000000E-02 0. -1.
         25    2    1    2    0    0 -0.28936165299E+03 -0.30444019784E+03  0.27415122909E+03  0.51691176259E+03  0.12499949444E+03 0.  0.
         23    2    1    2    0    0  0.28936165299E+03  0.30444019784E+03 -0.71727873393E+03  0.83624771019E+03  0.91692150028E+02 0.  0.
        -13    1    4    4    0    0  0.14396904756E+03  0.15335934275E+03 -0.44832848043E+03  0.49522178081E+03  0.10566000000E+00 0. -1.
         13    1    4    4    0    0  0.14539260543E+03  0.15108085509E+03 -0.26895025350E+03  0.34102592938E+03  0.10566000000E+00 0.  1.
    9000005    1    3    3    0    0 -0.47356404560E+02 -0.76176068979E+02  0.65038559152E+01  0.89937326399E+02  0.10000000000E+01 0.  0.
    9000005    1    3    3    0    0 -0.24200524843E+03 -0.22826412886E+03  0.26764737318E+03  0.42697443619E+03  0.10000000000E+01 0.  0.
<mgrwt>
<rscale>  0 0.43612901E+03</rscale>
<asrwt>0</asrwt>
<pdfrwt beam="2">  1        1 0.13817592E+00 0.43822240E+03</pdfrwt>
<pdfrwt beam="1">  1       -1 0.70002459E-01 0.43822240E+03</pdfrwt>
<totfact> 0.40238245E+01</totfact>
</mgrwt>
</event>
<event>
 8    3  0.1508318E-003  0.1323355E+03  0.7818608E-02  0.1237793E+00
          1   -1    0    0  501    0  0.00000000000E+00  0.00000000000E+00  0.10881472163E+03  0.10881472175E+03  0.50400000000E-02 0. -1.
         -1   -1    0    0    0  501 -0.00000000000E+00 -0.00000000000E+00 -0.13101927053E+03  0.13101927063E+03  0.50400000000E-02 0.  1.
         25    2    1    2    0    0  0.18317869198E+02 -0.39403673836E+02 -0.40777252113E+02  0.13847555048E+03  0.12499799977E+03 0.  0.
         23    2    1    2    0    0 -0.18317869198E+02  0.39403673836E+02  0.18572703213E+02  0.10135844190E+03  0.89668247429E+02 0.  0.
        -13    1    4    4    0    0 -0.63013510381E+01  0.11517254253E+02 -0.36323676799E+02  0.38623501015E+02  0.10566000000E+00 0.  1.
         13    1    4    4    0    0 -0.12016518160E+02  0.27886419583E+02  0.54896380013E+02  0.62734940889E+02  0.10566000000E+00 0. -1.
    9000005    1    3    3    0    0  0.53163786597E+01 -0.33494314074E+02 -0.85250968020E+02  0.91754348701E+02  0.10000000000E+01 0.  0.
    9000005    1    3    3    0    0  0.13001490539E+02 -0.59093597618E+01  0.44473715906E+02  0.46721201777E+02  0.10000000000E+01 0.  0.
<mgrwt>
<rscale>  0 0.12327309E+03</rscale>
<asrwt>0</asrwt>
<pdfrwt beam="1">  1        1 0.16740726E-01 0.13233553E+03</pdfrwt>
<pdfrwt beam="2">  1       -1 0.20156811E-01 0.13233553E+03</pdfrwt>
<totfact> 0.60875125E+03</totfact>
</mgrwt>
</event>
<event>
 8    3  0.1508318E-003  0.1306683E+03  0.7818608E-02  0.1239600E+00
          1   -1    0    0  501    0  0.00000000000E+00  0.00000000000E+00  0.10161079293E+03  0.10161079306E+03  0.50400000000E-02 0. -1.
         -1   -1    0    0    0  501 -0.00000000000E+00 -0.00000000000E+00 -0.14029526811E+03  0.14029526820E+03  0.50400000000E-02 0.  1.
         25    2    1    2    0    0  0.19655455122E+02  0.32599118644E+02 -0.53209364434E+02  0.14108666124E+03  0.12500068025E+03 0.  0.
         23    2    1    2    0    0 -0.19655455122E+02 -0.32599118644E+02  0.14524889255E+02  0.10081940002E+03  0.92220060507E+02 0.  0.
        -13    1    4    4    0    0 -0.17939647218E+02 -0.33079350455E+02 -0.34923133679E+02  0.51339174115E+02  0.10566000000E+00 0.  1.
         13    1    4    4    0    0 -0.17158079032E+01  0.48023181051E+00  0.49448022934E+02  0.49480225904E+02  0.10566000000E+00 0. -1.
    9000005    1    3    3    0    0 -0.31978483490E+02 -0.32073069150E+02 -0.57051003428E+01  0.45660194272E+02  0.10000000000E+01 0.  0.
    9000005    1    3    3    0    0  0.51633938612E+02  0.64672187794E+02 -0.47504264091E+02  0.95426466966E+02  0.10000000000E+01 0.  0.
<mgrwt>
<rscale>  0 0.12214484E+03</rscale>
<asrwt>0</asrwt>
<pdfrwt beam="1">  1        1 0.15632430E-01 0.13066832E+03</pdfrwt>
<pdfrwt beam="2">  1       -1 0.21583888E-01 0.13066832E+03</pdfrwt>
<totfact> 0.59495603E+03</totfact>
</mgrwt>
</event>
<event>
 8    3  0.1508318E-003  0.1491091E+03  0.7818608E-02  0.1210984E+00
         -1   -1    0    0    0  501 -0.00000000000E+00  0.00000000000E+00  0.15351012845E+02  0.15351013673E+02  0.50400000000E-02 0.  1.
          1   -1    0    0  501    0  0.00000000000E+00 -0.00000000000E+00 -0.12295522801E+04  0.12295522802E+04  0.50400000000E-02 0. -1.
         25    2    1    2    0    0 -0.81272989943E+02 -0.14616093007E+01 -0.56316095850E+03  0.58256655221E+03  0.12500434940E+03 0.  0.
         23    2    1    2    0    0  0.81272989943E+02  0.14616093007E+01 -0.65104030880E+03  0.66233674162E+03  0.90714058613E+02 0.  0.
        -13    1    4    4    0    0  0.25705720371E+02  0.28081650491E+02 -0.87309342834E+02  0.95248599277E+02  0.10566000000E+00 0.  1.
         13    1    4    4    0    0  0.55567269572E+02 -0.26620041190E+02 -0.56373096596E+03  0.56708814235E+03  0.10566000000E+00 0. -1.
    9000005    1    3    3    0    0 -0.20540175986E+02  0.16797280333E+02 -0.46461856644E+03  0.46537668585E+03  0.10000000000E+01 0.  0.
    9000005    1    3    3    0    0 -0.60732813957E+02 -0.18258889634E+02 -0.98542392067E+02  0.11718986635E+03  0.10000000000E+01 0.  0.
<mgrwt>
<rscale>  0 0.14175698E+03</rscale>
<asrwt>0</asrwt>
<pdfrwt beam="2">  1        1 0.18916181E+00 0.14910910E+03</pdfrwt>
<pdfrwt beam="1">  1       -1 0.23616953E-02 0.14910910E+03</pdfrwt>
<totfact> 0.57523583E+03</totfact>
</mgrwt>
</event>
<event>
 8    3  0.1508318E-003  0.1281098E+03  0.7818608E-02  0.1244738E+00
         -1   -1    0    0    0  501 -0.00000000000E+00  0.00000000000E+00  0.66107977079E+02  0.66107977271E+02  0.50400000000E-02 0.  1.
          1   -1    0    0  501    0  0.00000000000E+00 -0.00000000000E+00 -0.19673699379E+03  0.19673699385E+03  0.50400000000E-02 0. -1.
         25    2    1    2    0    0  0.27226614277E+02 -0.67789286311E+01 -0.48595012974E+02  0.13701679245E+03  0.12499953491E+03 0.  0.
         23    2    1    2    0    0 -0.27226614277E+02  0.67789286311E+01 -0.82034003736E+02  0.12582817868E+03  0.91191613550E+02 0.  0.
        -13    1    4    4    0    0 -0.39686463467E+02 -0.27929722643E+02 -0.17666167263E+02  0.51644839231E+02  0.10566000000E+00 0.  1.
         13    1    4    4    0    0  0.12459849190E+02  0.34708651274E+02 -0.64367836473E+02  0.74183339446E+02  0.10566000000E+00 0. -1.
    9000005    1    3    3    0    0 -0.26876482342E+01 -0.60108459538E+02 -0.46110164511E+02  0.75811592994E+02  0.10000000000E+01 0.  0.
    9000005    1    3    3    0    0  0.29914262511E+02  0.53329530907E+02 -0.24848484627E+01  0.61205199454E+02  0.10000000000E+01 0.  0.
<mgrwt>
<rscale>  0 0.11901064E+03</rscale>
<asrwt>0</asrwt>
<pdfrwt beam="2">  1        1 0.30267230E-01 0.12810982E+03</pdfrwt>
<pdfrwt beam="1">  1       -1 0.10170458E-01 0.12810982E+03</pdfrwt>
<totfact> 0.83740280E+03</totfact>
</mgrwt>
</event>
<event>
 8    3  0.1508318E-003  0.1301553E+03  0.7818608E-02  0.1241388E+00
         -1   -1    0    0    0  501 -0.00000000000E+00  0.00000000000E+00  0.91975214341E+02  0.91975214480E+02  0.50400000000E-02 0.  1.
          1   -1    0    0  501    0  0.00000000000E+00 -0.00000000000E+00 -0.14077007497E+03  0.14077007506E+03  0.50400000000E-02 0. -1.
         25    2    1    2    0    0 -0.12376596200E+02  0.34090780460E+02 -0.25201078930E+02  0.13257260488E+03  0.12500015896E+03 0.  0.
         23    2    1    2    0    0  0.12376596200E+02 -0.34090780460E+02 -0.23593781698E+02  0.10017268466E+03  0.90346769569E+02 0.  0.
        -13    1    4    4    0    0 -0.38352389362E+02 -0.14585762259E+02 -0.27921713994E+00  0.41033393190E+02  0.10566000000E+00 0.  1.
         13    1    4    4    0    0  0.50728985561E+02 -0.19505018201E+02 -0.23314564559E+02  0.59139291471E+02  0.10566000000E+00 0. -1.
    9000005    1    3    3    0    0  0.21369059919E+02  0.65446941120E+01 -0.67946067513E+02  0.71534172486E+02  0.10000000000E+01 0.  0.
    9000005    1    3    3    0    0 -0.33745656118E+02  0.27546086348E+02  0.42744988583E+02  0.61038432392E+02  0.10000000000E+01 0.  0.
<mgrwt>
<rscale>  0 0.12104181E+03</rscale>
<asrwt>0</asrwt>
<pdfrwt beam="2">  1        1 0.21656935E-01 0.13015530E+03</pdfrwt>
<pdfrwt beam="1">  1       -1 0.14150033E-01 0.13015530E+03</pdfrwt>
<totfact> 0.76629518E+03</totfact>
</mgrwt>
</event>
<event>
 8    3  0.3180919E-003  0.1271190E+03  0.7818608E-02  0.1261152E+00
          1   -1    0    0  501    0  0.00000000000E+00  0.00000000000E+00  0.11101198733E+04  0.11101198733E+04  0.50400000000E-02 0.  1.
         -1   -1    0    0    0  501 -0.00000000000E+00 -0.00000000000E+00 -0.90161323954E+01  0.90161338041E+01  0.50400000000E-02 0. -1.
         25    2    1    2    0    0  0.16085224920E+02  0.16593443997E+02  0.78914297606E+03  0.79931588754E+03  0.12500069827E+03 0.  0.
         23    2    1    2    0    0 -0.16085224920E+02 -0.16593443997E+02  0.31196076488E+03  0.31982011961E+03  0.66568109766E+02 0.  0.
        -13    1    4    4    0    0 -0.19684565583E+02 -0.50776020472E+01  0.30541956172E+03  0.30609538384E+03  0.10566000000E+00 0.  1.
         13    1    4    4    0    0  0.35993406632E+01 -0.11515841950E+02  0.65412031589E+01  0.13724735765E+02  0.10566000000E+00 0. -1.
    9000005    1    3    3    0    0 -0.37896979486E+01 -0.15777215225E+02  0.72187118314E+03  0.72205421360E+03  0.10000000000E+01 0.  0.
    9000005    1    3    3    0    0  0.19874922869E+02  0.32370659222E+02  0.67271792921E+02  0.77261673942E+02  0.10000000000E+01 0.  0.
<mgrwt>
<rscale>  0 0.10968624E+03</rscale>
<asrwt>0</asrwt>
<pdfrwt beam="1">  1        1 0.17078771E+00 0.12711904E+03</pdfrwt>
<pdfrwt beam="2">  1       -1 0.13870971E-02 0.12711904E+03</pdfrwt>
<totfact> 0.14845329E+04</totfact>
</mgrwt>
</event>
<event>
 8    3  0.1508318E-003  0.1558730E+03  0.7818608E-02  0.1201873E+00
          1   -1    0    0  501    0  0.00000000000E+00  0.00000000000E+00  0.52669892447E+03  0.52669892449E+03  0.50400000000E-02 0. -1.
         -1   -1    0    0    0  501 -0.00000000000E+00 -0.00000000000E+00 -0.58418510763E+02  0.58418510981E+02  0.50400000000E-02 0.  1.
         25    2    1    2    0    0  0.79360543354E+02 -0.48793516071E+02  0.78888709705E+02  0.17469925357E+03  0.12496998690E+03 0.  0.
         23    2    1    2    0    0 -0.79360543354E+02  0.48793516071E+02  0.38939170400E+03  0.41041818190E+03  0.90212426215E+02 0.  0.
        -13    1    4    4    0    0 -0.20546367897E+02  0.35866164503E+02  0.46235060409E+02  0.62017956795E+02  0.10566000000E+00 0.  1.
         13    1    4    4    0    0 -0.58814175457E+02  0.12927351567E+02  0.34315664359E+03  0.34840022511E+03  0.10566000000E+00 0. -1.
    9000005    1    3    3    0    0  0.76442482766E+02 -0.34930021950E+02 -0.10035577919E+02  0.84647932219E+02  0.10000000000E+01 0.  0.
    9000005    1    3    3    0    0  0.29180605877E+01 -0.13863494121E+02  0.88924287624E+02  0.90051321347E+02  0.10000000000E+01 0.  0.
<mgrwt>
<rscale>  0 0.14886664E+03</rscale>
<asrwt>0</asrwt>
<pdfrwt beam="1">  1        1 0.81030608E-01 0.15587303E+03</pdfrwt>
<pdfrwt beam="2">  1       -1 0.89874627E-02 0.15587303E+03</pdfrwt>
<totfact> 0.29676123E+03</totfact>
</mgrwt>
</event>
<event>
 8    3  0.1508318E-003  0.1529531E+03  0.7818608E-02  0.1205703E+00
         -1   -1    0    0    0  501 -0.00000000000E+00  0.00000000000E+00  0.27101572328E+02  0.27101572797E+02  0.50400000000E-02 0.  1.
          1   -1    0    0  501    0  0.00000000000E+00 -0.00000000000E+00 -0.72308150799E+03  0.72308150801E+03  0.50400000000E-02 0. -1.
         25    2    1    2    0    0 -0.84229168606E+01 -0.87739981166E+02 -0.35533583655E+03  0.38685683298E+03  0.12500161063E+03 0.  0.
         23    2    1    2    0    0  0.84229168606E+01  0.87739981166E+02 -0.34064409911E+03  0.36332624783E+03  0.90544520974E+02 0.  0.
        -13    1    4    4    0    0  0.25012383996E+02  0.10136764393E+03 -0.26968214855E+03  0.28918763978E+03  0.10566000000E+00 0.  1.
         13    1    4    4    0    0 -0.16589467136E+02 -0.13627662765E+02 -0.70961950558E+02  0.74138608048E+02  0.10566000000E+00 0. -1.
    9000005    1    3    3    0    0 -0.12217121507E+02 -0.11987944595E+03 -0.28478610617E+03  0.30923205831E+03  0.10000000000E+01 0.  0.
    9000005    1    3    3    0    0  0.37942046461E+01  0.32139464782E+02 -0.70549730378E+02  0.77624774665E+02  0.10000000000E+01 0.  0.
<mgrwt>
<rscale>  0 0.14582217E+03</rscale>
<asrwt>0</asrwt>
<pdfrwt beam="2">  1        1 0.11124329E+00 0.15295311E+03</pdfrwt>
<pdfrwt beam="1">  1       -1 0.41694733E-02 0.15295311E+03</pdfrwt>
<totfact> 0.60404536E+03</totfact>
</mgrwt>
</event>
<event>
 8    3  0.1508318E-003  0.2032308E+03  0.7818608E-02  0.1150967E+00
         -1   -1    0    0    0  501 -0.00000000000E+00  0.00000000000E+00  0.11733440501E+03  0.11733440512E+03  0.50400000000E-02 0. -1.
          1   -1    0    0  501    0  0.00000000000E+00 -0.00000000000E+00 -0.36328900469E+03  0.36328900472E+03  0.50400000000E-02 0.  1.
         25    2    1    2    0    0 -0.13479963507E+03  0.86643478050E+02 -0.20957483770E+03  0.29193215103E+03  0.12499893722E+03 0.  0.
         23    2    1    2    0    0  0.13479963507E+03 -0.86643478050E+02 -0.36379761979E+02  0.18869125881E+03  0.92751658560E+02 0.  0.
        -13    1    4    4    0    0  0.36864621676E+02 -0.74162647364E+02 -0.35113693897E+02  0.89955996234E+02  0.10566000000E+00 0.  1.
         13    1    4    4    0    0  0.97935013396E+02 -0.12480830685E+02 -0.12660680824E+01  0.98735262576E+02  0.10566000000E+00 0. -1.
    9000005    1    3    3    0    0 -0.18143865968E+02  0.81329055946E+02 -0.11291934675E+03  0.14034027962E+03  0.10000000000E+01 0.  0.
    9000005    1    3    3    0    0 -0.11665576910E+03  0.53144221041E+01 -0.96655490951E+02  0.15159187141E+03  0.10000000000E+01 0.  0.
<mgrwt>
<rscale>  0 0.19855175E+03</rscale>
<asrwt>0</asrwt>
<pdfrwt beam="2">  1        1 0.55890616E-01 0.20323082E+03</pdfrwt>
<pdfrwt beam="1">  1       -1 0.18051447E-01 0.20323082E+03</pdfrwt>
<totfact> 0.16249529E+03</totfact>
</mgrwt>
</event>
<event>
 8    3  0.1508318E-003  0.1504637E+03  0.7818608E-02  0.1208681E+00
          1   -1    0    0  501    0  0.00000000000E+00  0.00000000000E+00  0.17947553940E+04  0.17947553940E+04  0.50400000000E-02 0. -1.
         -1   -1    0    0    0  501 -0.00000000000E+00 -0.00000000000E+00 -0.10535659921E+02  0.10535661126E+02  0.50400000000E-02 0.  1.
         25    2    1    2    0    0 -0.58346534260E+02 -0.60089320141E+02  0.96205809574E+03  0.97375310341E+03  0.12499712940E+03 0.  0.
         23    2    1    2    0    0  0.58346534260E+02  0.60089320141E+02  0.82216163831E+03  0.83153795170E+03  0.92144241010E+02 0.  0.
        -13    1    4    4    0    0  0.13333301067E+02  0.70104302496E+02  0.35469713056E+03  0.36180444406E+03  0.10566000000E+00 0.  1.
         13    1    4    4    0    0  0.45013233193E+02 -0.10014982355E+02  0.46746450774E+03  0.46973350764E+03  0.10566000000E+00 0. -1.
    9000005    1    3    3    0    0  0.24190026275E+02 -0.82339409636E+01  0.46906170608E+02  0.53424189241E+02  0.10000000000E+01 0.  0.
    9000005    1    3    3    0    0 -0.82536560535E+02 -0.51855379177E+02  0.91515192514E+03  0.92032891417E+03  0.10000000000E+01 0.  0.
<mgrwt>
<rscale>  0 0.14351091E+03</rscale>
<asrwt>0</asrwt>
<pdfrwt beam="1">  1        1 0.27611643E+00 0.15046371E+03</pdfrwt>
<pdfrwt beam="2">  1       -1 0.16208696E-02 0.15046371E+03</pdfrwt>
<totfact> 0.42382381E+03</totfact>
</mgrwt>
</event>
<event>
 8    3  0.1508318E-003  0.1301183E+03  0.7818608E-02  0.1241765E+00
          1   -1    0    0  501    0  0.00000000000E+00  0.00000000000E+00  0.46701723118E+03  0.46701723120E+03  0.50400000000E-02 0. -1.
         -1   -1    0    0    0  501 -0.00000000000E+00 -0.00000000000E+00 -0.27760839435E+02  0.27760839892E+02  0.50400000000E-02 0.  1.
         25    2    1    2    0    0 -0.59498079062E+01  0.35641048063E+02  0.22985827219E+03  0.26413180025E+03  0.12500039235E+03 0.  0.
         23    2    1    2    0    0  0.59498079062E+01 -0.35641048063E+02  0.20939811955E+03  0.23064627084E+03  0.89690831541E+02 0.  0.
        -13    1    4    4    0    0 -0.32684446157E+02 -0.22416864250E+02  0.39673495972E+02  0.56078393968E+02  0.10566000000E+00 0.  1.
         13    1    4    4    0    0  0.38634254063E+02 -0.13224183813E+02  0.16972462358E+03  0.17456787688E+03  0.10566000000E+00 0. -1.
    9000005    1    3    3    0    0 -0.68904094465E+01  0.79787842539E+02  0.10756876736E+03  0.13411046667E+03  0.10000000000E+01 0.  0.
    9000005    1    3    3    0    0  0.94060154031E+00 -0.44146794476E+02  0.12228950483E+03  0.13002133358E+03  0.10000000000E+01 0.  0.
<mgrwt>
<rscale>  0 0.12081089E+03</rscale>
<asrwt>0</asrwt>
<pdfrwt beam="1">  1        1 0.71848799E-01 0.13011834E+03</pdfrwt>
<pdfrwt beam="2">  1       -1 0.42708987E-02 0.13011834E+03</pdfrwt>
<totfact> 0.10450745E+04</totfact>
</mgrwt>
</event>
<event>
 8    3  0.1508318E-003  0.2289193E+03  0.7818608E-02  0.1130455E+00
          1   -1    0    0  501    0  0.00000000000E+00  0.00000000000E+00  0.13966271222E+04  0.13966271222E+04  0.50400000000E-02 0. -1.
         -1   -1    0    0    0  501 -0.00000000000E+00 -0.00000000000E+00 -0.52551550399E+02  0.52551550641E+02  0.50400000000E-02 0.  1.
         25    2    1    2    0    0  0.10863781738E+03 -0.15804028773E+03  0.11090452214E+04  0.11324245504E+04  0.12500060595E+03 0.  0.
         23    2    1    2    0    0 -0.10863781738E+03  0.15804028773E+03  0.23503035043E+03  0.31675412241E+03  0.91186624717E+02 0.  0.
        -13    1    4    4    0    0 -0.32245807716E+02  0.86486761360E+02  0.17024552446E+03  0.19365769226E+03  0.10566000000E+00 0. -1.
         13    1    4    4    0    0 -0.76392009662E+02  0.71553526375E+02  0.64784825968E+02  0.12309643015E+03  0.10566000000E+00 0.  1.
    9000005    1    3    3    0    0  0.35390073306E+02 -0.15126330678E+03  0.75383034524E+03  0.76967151089E+03  0.10000000000E+01 0.  0.
    9000005    1    3    3    0    0  0.73247744072E+02 -0.67769809591E+01  0.35521487613E+03  0.36275303955E+03  0.10000000000E+01 0.  0.
<mgrwt>
<rscale>  0 0.22466043E+03</rscale>
<asrwt>0</asrwt>
<pdfrwt beam="1">  1        1 0.21486570E+00 0.22891933E+03</pdfrwt>
<pdfrwt beam="2">  1       -1 0.80848545E-02 0.22891933E+03</pdfrwt>
<totfact> 0.71473228E+02</totfact>
</mgrwt>
</event>
<event>
 8    3  0.1508318E-003  0.1388284E+03  0.7818608E-02  0.1226286E+00
         -1   -1    0    0    0  501 -0.00000000000E+00  0.00000000000E+00  0.17780166576E+03  0.17780166583E+03  0.50400000000E-02 0.  1.
          1   -1    0    0  501    0  0.00000000000E+00 -0.00000000000E+00 -0.88897801828E+02  0.88897801971E+02  0.50400000000E-02 0. -1.
         25    2    1    2    0    0 -0.87826051566E+00 -0.60394487886E+02  0.70816756508E+02  0.15584717490E+03  0.12500025365E+03 0.  0.
         23    2    1    2    0    0  0.87826051566E+00  0.60394487886E+02  0.18087107419E+02  0.11085229290E+03  0.91174677829E+02 0.  0.
        -13    1    4    4    0    0 -0.41165220756E+01  0.77684348482E+02 -0.90201363106E+01  0.78314607681E+02  0.10566000000E+00 0. -1.
         13    1    4    4    0    0  0.49947825913E+01 -0.17289860596E+02  0.27107243730E+02  0.32537685216E+02  0.10566000000E+00 0.  1.
    9000005    1    3    3    0    0 -0.47771345757E+02 -0.37015963415E+02 -0.82357444658E+01  0.61000905812E+02  0.10000000000E+01 0.  0.
    9000005    1    3    3    0    0  0.46893085241E+02 -0.23378524471E+02  0.79052500974E+02  0.94846269089E+02  0.10000000000E+01 0.  0.
<mgrwt>
<rscale>  0 0.13079168E+03</rscale>
<asrwt>0</asrwt>
<pdfrwt beam="2">  1        1 0.13676585E-01 0.13882842E+03</pdfrwt>
<pdfrwt beam="1">  1       -1 0.27354102E-01 0.13882842E+03</pdfrwt>
<totfact> 0.48188375E+03</totfact>
</mgrwt>
</event>
<event>
 8    3  0.1508318E-003  0.2121699E+03  0.7818608E-02  0.1143560E+00
          1   -1    0    0  501    0  0.00000000000E+00  0.00000000000E+00  0.83949681865E+02  0.83949682016E+02  0.50400000000E-02 0. -1.
         -1   -1    0    0    0  501 -0.00000000000E+00 -0.00000000000E+00 -0.53206063133E+03  0.53206063136E+03  0.50400000000E-02 0.  1.
         25    2    1    2    0    0 -0.33413325872E+01 -0.17140447743E+03 -0.31817672518E+03  0.38242970098E+03  0.12500155341E+03 0.  0.
         23    2    1    2    0    0  0.33413325872E+01  0.17140447743E+03 -0.12993422428E+03  0.23358061240E+03  0.91029338455E+02 0.  0.
        -13    1    4    4    0    0 -0.46518703720E+01  0.48673350898E+02  0.71437632690E+01  0.49414365354E+02  0.10566000000E+00 0. -1.
         13    1    4    4    0    0  0.79932029592E+01  0.12273112653E+03 -0.13707798755E+03  0.18416624704E+03  0.10566000000E+00 0.  1.
    9000005    1    3    3    0    0  0.11368489146E+02 -0.17656720405E+03 -0.21670660520E+03  0.27976413786E+03  0.10000000000E+01 0.  0.
    9000005    1    3    3    0    0 -0.14709821733E+02  0.51627266223E+01 -0.10147011998E+03  0.10266556312E+03  0.10000000000E+01 0.  0.
<mgrwt>
<rscale>  0 0.20750201E+03</rscale>
<asrwt>0</asrwt>
<pdfrwt beam="1">  1        1 0.12915336E-01 0.21216986E+03</pdfrwt>
<pdfrwt beam="2">  1       -1 0.81855479E-01 0.21216986E+03</pdfrwt>
<totfact> 0.70607587E+02</totfact>
</mgrwt>
</event>
<event>
 8    3  0.1508318E-003  0.1284566E+03  0.7818608E-02  0.1241764E+00
         -1   -1    0    0    0  501 -0.00000000000E+00  0.00000000000E+00  0.24259923855E+02  0.24259924378E+02  0.50400000000E-02 0.  1.
          1   -1    0    0  501    0  0.00000000000E+00 -0.00000000000E+00 -0.54320439414E+03  0.54320439416E+03  0.50400000000E-02 0. -1.
         25    2    1    2    0    0  0.17503585917E+02 -0.23816492306E+02 -0.31190612411E+03  0.33732257344E+03  0.12500994949E+03 0.  0.
         23    2    1    2    0    0 -0.17503585917E+02  0.23816492306E+02 -0.20703834618E+03  0.23014174510E+03  0.96055948403E+02 0.  0.
        -13    1    4    4    0    0 -0.47064700688E+02 -0.63486691675E+01 -0.16011706143E+03  0.16701160492E+03  0.10566000000E+00 0. -1.
         13    1    4    4    0    0  0.29561114770E+02  0.30165161473E+02 -0.46921284740E+02  0.63130140178E+02  0.10566000000E+00 0.  1.
    9000005    1    3    3    0    0 -0.29493180601E+02 -0.54985950384E+02 -0.22675779220E+03  0.23518800727E+03  0.10000000000E+01 0.  0.
    9000005    1    3    3    0    0  0.46996766518E+02  0.31169458079E+02 -0.85148331912E+02  0.10213456617E+03  0.10000000000E+01 0.  0.
<mgrwt>
<rscale>  0 0.12081177E+03</rscale>
<asrwt>0</asrwt>
<pdfrwt beam="2">  1        1 0.83569897E-01 0.12845656E+03</pdfrwt>
<pdfrwt beam="1">  1       -1 0.37322964E-02 0.12845656E+03</pdfrwt>
<totfact> 0.10446735E+04</totfact>
</mgrwt>
</event>
<event>
 8    3  0.1508318E-003  0.1368309E+03  0.7818608E-02  0.1229705E+00
          1   -1    0    0  501    0  0.00000000000E+00  0.00000000000E+00  0.19879652257E+04  0.19879652257E+04  0.50400000000E-02 0. -1.
         -1   -1    0    0    0  501 -0.00000000000E+00 -0.00000000000E+00 -0.74425233438E+01  0.74425250503E+01  0.50400000000E-02 0.  1.
         25    2    1    2    0    0 -0.24147262519E+02  0.50144321844E+02  0.11287864247E+04  0.11370494713E+04  0.12500065739E+03 0.  0.
         23    2    1    2    0    0  0.24147262519E+02 -0.50144321844E+02  0.85173627769E+03  0.85835827947E+03  0.90701190166E+02 0.  0.
        -13    1    4    4    0    0 -0.76878859243E+01 -0.34550246092E+02  0.10547701489E+03  0.11125751629E+03  0.10566000000E+00 0.  1.
         13    1    4    4    0    0  0.31835148443E+02 -0.15594075752E+02  0.74625926280E+03  0.74710076319E+03  0.10566000000E+00 0. -1.
    9000005    1    3    3    0    0  0.35969756263E+02  0.31366319947E+02  0.84541654549E+03  0.84676313381E+03  0.10000000000E+01 0.  0.
    9000005    1    3    3    0    0 -0.60117018781E+02  0.18778001897E+02  0.28336987919E+03  0.29028633749E+03  0.10000000000E+01 0.  0.
<mgrwt>
<rscale>  0 0.12849595E+03</rscale>
<asrwt>0</asrwt>
<pdfrwt beam="1">  1        1 0.30584129E+00 0.13683095E+03</pdfrwt>
<pdfrwt beam="2">  1       -1 0.11450019E-02 0.13683095E+03</pdfrwt>
<totfact> 0.52456367E+03</totfact>
</mgrwt>
</event>
<event>
 8    3  0.1508318E-003  0.3369975E+03  0.7818608E-02  0.1069267E+00
         -1   -1    0    0    0  501 -0.00000000000E+00  0.00000000000E+00  0.32358098794E+03  0.32358098797E+03  0.50400000000E-02 0.  1.
          1   -1    0    0  501    0  0.00000000000E+00 -0.00000000000E+00 -0.36081506493E+03  0.36081506497E+03  0.50400000000E-02 0. -1.
         25    2    1    2    0    0  0.18901261401E+02 -0.31238780923E+03 -0.10148021850E+03  0.35194534418E+03  0.12499555797E+03 0.  0.
         23    2    1    2    0    0 -0.18901261401E+02  0.31238780923E+03  0.64246141506E+02  0.33245070876E+03  0.91937511486E+02 0.  0.
        -13    1    4    4    0    0 -0.23257162779E+01  0.30858054664E+03  0.65254810471E+02  0.31541332276E+03  0.10566000000E+00 0.  1.
         13    1    4    4    0    0 -0.16575545123E+02  0.38072625885E+01 -0.10086689654E+01  0.17037385998E+02  0.10566000000E+00 0. -1.
    9000005    1    3    3    0    0  0.21849107719E+02 -0.20460697319E+03 -0.12610998875E+03  0.24134234243E+03  0.10000000000E+01 0.  0.
    9000005    1    3    3    0    0 -0.29478463186E+01 -0.10778083604E+03  0.24629770253E+02  0.11060300176E+03  0.10000000000E+01 0.  0.
<mgrwt>
<rscale>  0 0.33426091E+03</rscale>
<asrwt>0</asrwt>
<pdfrwt beam="2">  1        1 0.55510009E-01 0.33699746E+03</pdfrwt>
<pdfrwt beam="1">  1       -1 0.49781691E-01 0.33699746E+03</pdfrwt>
<totfact> 0.28740974E+02</totfact>
</mgrwt>
</event>
<event>
 8    3  0.1508318E-003  0.1310793E+03  0.7818608E-02  0.1239523E+00
         -1   -1    0    0    0  501 -0.00000000000E+00  0.00000000000E+00  0.61657807452E+02  0.61657807658E+02  0.50400000000E-02 0.  1.
          1   -1    0    0  501    0  0.00000000000E+00 -0.00000000000E+00 -0.22037123113E+03  0.22037123119E+03  0.50400000000E-02 0. -1.
         25    2    1    2    0    0  0.20386223111E+01 -0.39389294036E+02 -0.67560188680E+02  0.14746575918E+03  0.12500439421E+03 0.  0.
         23    2    1    2    0    0 -0.20386223111E+01  0.39389294036E+02 -0.91153235001E+02  0.13456327967E+03  0.90789269838E+02 0.  0.
        -13    1    4    4    0    0 -0.99506208763E+01  0.65573743001E+02 -0.82539136734E+02  0.10588508339E+03  0.10566000000E+00 0. -1.
         13    1    4    4    0    0  0.79119985652E+01 -0.26184448964E+02 -0.86140982668E+01  0.28678196280E+02  0.10566000000E+00 0.  1.
    9000005    1    3    3    0    0  0.23761486848E+02 -0.69864514597E+02 -0.42616397177E+01  0.73924422421E+02  0.10000000000E+01 0.  0.
    9000005    1    3    3    0    0 -0.21722864537E+02  0.30475220561E+02 -0.63298548963E+02  0.73541336762E+02  0.10000000000E+01 0.  0.
<mgrwt>
<rscale>  0 0.12219253E+03</rscale>
<asrwt>0</asrwt>
<pdfrwt beam="2">  1        1 0.33903266E-01 0.13107925E+03</pdfrwt>
<pdfrwt beam="1">  1       -1 0.94858167E-02 0.13107925E+03</pdfrwt>
<totfact> 0.81043196E+03</totfact>
</mgrwt>
</event>
<event>
 8    3  0.1508318E-003  0.1945409E+03  0.7818608E-02  0.1159058E+00
         -1   -1    0    0    0  501 -0.00000000000E+00  0.00000000000E+00  0.50686494067E+02  0.50686494318E+02  0.50400000000E-02 0.  1.
          1   -1    0    0  501    0  0.00000000000E+00 -0.00000000000E+00 -0.75507088101E+03  0.75507088103E+03  0.50400000000E-02 0. -1.
         25    2    1    2    0    0 -0.14618972360E+03 -0.29147578862E+02 -0.23565582891E+03  0.30558116683E+03  0.12500065272E+03 0.  0.
         23    2    1    2    0    0  0.14618972360E+03  0.29147578862E+02 -0.46872855803E+03  0.50017620852E+03  0.90822694387E+02 0.  0.
        -13    1    4    4    0    0  0.90142172128E+02 -0.23909168935E+02 -0.20166586250E+03  0.22218548741E+03  0.10566000000E+00 0. -1.
         13    1    4    4    0    0  0.56047551467E+02  0.53056747797E+02 -0.26706269554E+03  0.27799072111E+03  0.10566000000E+00 0.  1.
    9000005    1    3    3    0    0 -0.23710790303E+02 -0.49653922990E+02 -0.13478988182E+03  0.14559198428E+03  0.10000000000E+01 0.  0.
    9000005    1    3    3    0    0 -0.12247893329E+03  0.20506344128E+02 -0.10086594710E+03  0.15998918255E+03  0.10000000000E+01 0.  0.
<mgrwt>
<rscale>  0 0.18933981E+03</rscale>
<asrwt>0</asrwt>
<pdfrwt beam="2">  1        1 0.11616474E+00 0.19454095E+03</pdfrwt>
<pdfrwt beam="1">  1       -1 0.77979227E-02 0.19454095E+03</pdfrwt>
<totfact> 0.22392456E+03</totfact>
</mgrwt>
</event>
<event>
 8    3  0.1508318E-003  0.2231636E+03  0.7818608E-02  0.1134671E+00
         -1   -1    0    0    0  501 -0.00000000000E+00  0.00000000000E+00  0.40019214923E+02  0.40019215240E+02  0.50400000000E-02 0.  1.
          1   -1    0    0  501    0  0.00000000000E+00 -0.00000000000E+00 -0.11899026732E+04  0.11899026732E+04  0.50400000000E-02 0. -1.
         25    2    1    2    0    0 -0.17355311882E+03  0.63684039262E+02 -0.49053066269E+03  0.53890845978E+03  0.12500262025E+03 0.  0.
         23    2    1    2    0    0  0.17355311882E+03 -0.63684039262E+02 -0.65935279557E+03  0.69101342866E+03  0.92612675455E+02 0.  0.
        -13    1    4    4    0    0  0.12167705832E+03 -0.83613849478E+02 -0.53109511641E+03  0.55123372192E+03  0.10566000000E+00 0.  1.
         13    1    4    4    0    0  0.51876060501E+02  0.19929810217E+02 -0.12825767916E+03  0.13977970674E+03  0.10566000000E+00 0. -1.
    9000005    1    3    3    0    0 -0.58376568270E+02 -0.16389266813E+00 -0.30998799436E+03  0.31543843651E+03  0.10000000000E+01 0.  0.
    9000005    1    3    3    0    0 -0.11517655055E+03  0.63847931930E+02 -0.18054266834E+03  0.22347002326E+03  0.10000000000E+01 0.  0.
<mgrwt>
<rscale>  0 0.21894696E+03</rscale>
<asrwt>0</asrwt>
<pdfrwt beam="2">  1        1 0.18306192E+00 0.22316361E+03</pdfrwt>
<pdfrwt beam="1">  1       -1 0.61568032E-02 0.22316361E+03</pdfrwt>
<totfact> 0.14965418E+03</totfact>
</mgrwt>
</event>
<event>
 8    3  0.1508318E-003  0.1433965E+03  0.7818608E-02  0.1219074E+00
         -1   -1    0    0    0  501 -0.00000000000E+00  0.00000000000E+00  0.45062898955E+02  0.45062899237E+02  0.50400000000E-02 0.  1.
          1   -1    0    0  501    0  0.00000000000E+00 -0.00000000000E+00 -0.39019053406E+03  0.39019053409E+03  0.50400000000E-02 0. -1.
         25    2    1    2    0    0  0.18861804381E+02  0.67683843039E+02 -0.23765622858E+03  0.27756628171E+03  0.12500274992E+03 0.  0.
         23    2    1    2    0    0 -0.18861804381E+02 -0.67683843039E+02 -0.10747140652E+03  0.15768715162E+03  0.91532859083E+02 0.  0.
        -13    1    4    4    0    0 -0.21005956784E+01 -0.72410004604E+02 -0.11716890964E+03  0.13775407732E+03  0.10566000000E+00 0. -1.
         13    1    4    4    0    0 -0.16761208702E+02  0.47261615656E+01  0.96975031118E+01  0.19933074297E+02  0.10566000000E+00 0.  1.
    9000005    1    3    3    0    0  0.53153999330E+02  0.88285330730E+02 -0.16259007770E+03  0.19249981983E+03  0.10000000000E+01 0.  0.
    9000005    1    3    3    0    0 -0.34292194950E+02 -0.20601487692E+02 -0.75066150880E+02  0.85066461884E+02  0.10000000000E+01 0.  0.
<mgrwt>
<rscale>  0 0.13581481E+03</rscale>
<asrwt>0</asrwt>
<pdfrwt beam="2">  1        1 0.60029311E-01 0.14339651E+03</pdfrwt>
<pdfrwt beam="1">  1       -1 0.69327539E-02 0.14339651E+03</pdfrwt>
<totfact> 0.64398421E+03</totfact>
</mgrwt>
</event>
<event>
 8    3  0.1508318E-003  0.1542268E+03  0.7818608E-02  0.1203127E+00
          1   -1    0    0  501    0  0.00000000000E+00  0.00000000000E+00  0.80703453736E+03  0.80703453738E+03  0.50400000000E-02 0. -1.
         -1   -1    0    0    0  501 -0.00000000000E+00 -0.00000000000E+00 -0.27571300150E+02  0.27571300611E+02  0.50400000000E-02 0.  1.
         25    2    1    2    0    0  0.84682189901E+02 -0.31458604392E+02  0.29443752180E+03  0.33238433549E+03  0.12500070063E+03 0.  0.
         23    2    1    2    0    0 -0.84682189901E+02  0.31458604392E+02  0.48502571541E+03  0.50222150250E+03  0.93892363302E+02 0.  0.
        -13    1    4    4    0    0 -0.62885949599E+02 -0.18326704227E+02  0.35975684739E+03  0.36567131574E+03  0.10566000000E+00 0. -1.
         13    1    4    4    0    0 -0.21796240302E+02  0.49785308619E+02  0.12526886802E+03  0.13655018676E+03  0.10566000000E+00 0.  1.
    9000005    1    3    3    0    0  0.11453142532E+03 -0.37512050630E+02  0.25884875100E+03  0.28553156957E+03  0.10000000000E+01 0.  0.
    9000005    1    3    3    0    0 -0.29849235423E+02  0.60534462376E+01  0.35588770802E+02  0.46852765915E+02  0.10000000000E+01 0.  0.
<mgrwt>
<rscale>  0 0.14786003E+03</rscale>
<asrwt>0</asrwt>
<pdfrwt beam="1">  1        1 0.12415913E+00 0.15422676E+03</pdfrwt>
<pdfrwt beam="2">  1       -1 0.42417395E-02 0.15422676E+03</pdfrwt>
<totfact> 0.50047374E+03</totfact>
</mgrwt>
</event>
<event>
 8    3  0.1508318E-003  0.2125342E+03  0.7818608E-02  0.1141449E+00
          1   -1    0    0  501    0  0.00000000000E+00  0.00000000000E+00  0.43700459599E+03  0.43700459602E+03  0.50400000000E-02 0. -1.
         -1   -1    0    0    0  501 -0.00000000000E+00 -0.00000000000E+00 -0.10280749124E+03  0.10280749136E+03  0.50400000000E-02 0.  1.
         25    2    1    2    0    0 -0.83059364670E+01  0.17168733613E+03  0.22366124029E+03  0.30853712141E+03  0.12500109965E+03 0.  0.
         23    2    1    2    0    0  0.83059364670E+01 -0.17168733613E+03  0.11053586447E+03  0.23127496597E+03  0.10827928049E+03 0.  0.
        -13    1    4    4    0    0 -0.50022995590E+02 -0.72967224668E+02  0.49664434085E+02  0.10145483301E+03  0.10566000000E+00 0.  1.
         13    1    4    4    0    0  0.58328932057E+02 -0.98720111461E+02  0.60871430388E+02  0.12982013297E+03  0.10566000000E+00 0. -1.
    9000005    1    3    3    0    0 -0.64448722787E+02  0.97719006398E+02  0.10048526432E+03  0.15427550170E+03  0.10000000000E+01 0.  0.
    9000005    1    3    3    0    0  0.56142786320E+02  0.73968329731E+02  0.12317597597E+03  0.15426161971E+03  0.10000000000E+01 0.  0.
<mgrwt>
<rscale>  0 0.21014831E+03</rscale>
<asrwt>0</asrwt>
<pdfrwt beam="1">  1        1 0.67231475E-01 0.21253424E+03</pdfrwt>
<pdfrwt beam="2">  1       -1 0.15816537E-01 0.21253424E+03</pdfrwt>
<totfact> 0.15861572E+03</totfact>
</mgrwt>
</event>
<event>
 8    3  0.1508318E-003  0.1272060E+03  0.7818608E-02  0.1245139E+00
         -1   -1    0    0    0  501 -0.00000000000E+00  0.00000000000E+00  0.49245934771E+02  0.49245935029E+02  0.50400000000E-02 0. -1.
          1   -1    0    0  501    0  0.00000000000E+00 -0.00000000000E+00 -0.31413098162E+03  0.31413098167E+03  0.50400000000E-02 0.  1.
         25    2    1    2    0    0 -0.13159636800E+02 -0.19576167238E+02 -0.22566856445E+03  0.25905148165E+03  0.12499986720E+03 0.  0.
         23    2    1    2    0    0  0.13159636800E+02  0.19576167238E+02 -0.39216482406E+02  0.10432543505E+03  0.93752128192E+02 0.  0.
        -13    1    4    4    0    0  0.32159490898E+02 -0.93614598338E+01 -0.56462386741E+02  0.65649692045E+02  0.10566000000E+00 0.  1.
         13    1    4    4    0    0 -0.18999854098E+02  0.28937627072E+02  0.17245904335E+02  0.38675743001E+02  0.10566000000E+00 0. -1.
    9000005    1    3    3    0    0  0.50263804601E+01 -0.71753968518E+02 -0.12660978135E+03  0.14561913759E+03  0.10000000000E+01 0.  0.
    9000005    1    3    3    0    0 -0.18186017260E+02  0.52177801280E+02 -0.99058783100E+02  0.11343234406E+03  0.10000000000E+01 0.  0.
<mgrwt>
<rscale>  0 0.11877038E+03</rscale>
<asrwt>0</asrwt>
<pdfrwt beam="2">  1        1 0.48327842E-01 0.12720601E+03</pdfrwt>
<pdfrwt beam="1">  1       -1 0.75762979E-02 0.12720601E+03</pdfrwt>
<totfact> 0.73304268E+03</totfact>
</mgrwt>
</event>
<event>
 8    3  0.1508318E-003  0.2939126E+03  0.7818608E-02  0.1089884E+00
          1   -1    0    0  501    0  0.00000000000E+00  0.00000000000E+00  0.51661206081E+03  0.51661206083E+03  0.50400000000E-02 0. -1.
         -1   -1    0    0    0  501 -0.00000000000E+00 -0.00000000000E+00 -0.20599294586E+03  0.20599294593E+03  0.50400000000E-02 0.  1.
         25    2    1    2    0    0 -0.39343247621E+02  0.26308091904E+03 -0.11924682076E+02  0.29415441844E+03  0.12500065101E+03 0.  0.
         23    2    1    2    0    0  0.39343247621E+02 -0.26308091904E+03  0.32254379702E+03  0.42845058831E+03  0.93680011405E+02 0.  0.
        -13    1    4    4    0    0 -0.20803701561E+01 -0.21161350657E+03  0.27525841074E+03  0.34720571416E+03  0.10566000000E+00 0. -1.
         13    1    4    4    0    0  0.41423617777E+02 -0.51467412467E+02  0.47285386282E+02  0.81244874150E+02  0.10566000000E+00 0.  1.
    9000005    1    3    3    0    0  0.34789455604E+02  0.33675345747E+02  0.17025308014E+02  0.51334162556E+02  0.10000000000E+01 0.  0.
    9000005    1    3    3    0    0 -0.74132703225E+02  0.22940557329E+03 -0.28949990090E+02  0.24282025589E+03  0.10000000000E+01 0.  0.
<mgrwt>
<rscale>  0 0.29089331E+03</rscale>
<asrwt>0</asrwt>
<pdfrwt beam="1">  1        1 0.79478777E-01 0.29391261E+03</pdfrwt>
<pdfrwt beam="2">  1       -1 0.31691223E-01 0.29391261E+03</pdfrwt>
<totfact> 0.40376546E+02</totfact>
</mgrwt>
</event>
<event>
 8    3  0.1508318E-003  0.1262476E+03  0.7818608E-02  0.1254111E+00
         -1   -1    0    0    0  501 -0.00000000000E+00  0.00000000000E+00  0.87082079073E+02  0.87082079219E+02  0.50400000000E-02 0.  1.
          1   -1    0    0  501    0  0.00000000000E+00 -0.00000000000E+00 -0.12669570086E+03  0.12669570096E+03  0.50400000000E-02 0. -1.
         25    2    1    2    0    0  0.12099633698E+02  0.12926421758E+02 -0.34923245068E+02  0.13098885209E+03  0.12499981124E+03 0.  0.
         23    2    1    2    0    0 -0.12099633698E+02 -0.12926421758E+02 -0.46903767195E+01  0.82788928094E+02  0.80737311486E+02 0.  0.
        -13    1    4    4    0    0 -0.23043113294E+02 -0.34150849506E+02  0.22222262277E+02  0.46809247986E+02  0.10566000000E+00 0. -1.
         13    1    4    4    0    0  0.10943479596E+02  0.21224427748E+02 -0.26912638997E+02  0.35979680108E+02  0.10566000000E+00 0.  1.
    9000005    1    3    3    0    0 -0.23157539107E+02  0.61488642665E+02 -0.12339342329E+02  0.66860931518E+02  0.10000000000E+01 0.  0.
    9000005    1    3    3    0    0  0.35257172805E+02 -0.48562220907E+02 -0.22583902739E+02  0.64127920569E+02  0.10000000000E+01 0.  0.
<mgrwt>
<rscale>  0 0.11356272E+03</rscale>
<asrwt>0</asrwt>
<pdfrwt beam="2">  1        1 0.19491646E-01 0.12624756E+03</pdfrwt>
<pdfrwt beam="1">  1       -1 0.13397243E-01 0.12624756E+03</pdfrwt>
<totfact> 0.95109593E+03</totfact>
</mgrwt>
</event>
<event>
 8    3  0.1508318E-003  0.1325176E+03  0.7818608E-02  0.1236916E+00
          1   -1    0    0  501    0  0.00000000000E+00  0.00000000000E+00  0.14519456823E+02  0.14519457698E+02  0.50400000000E-02 0. -1.
         -1   -1    0    0    0  501 -0.00000000000E+00 -0.00000000000E+00 -0.94329561151E+03  0.94329561152E+03  0.50400000000E-02 0.  1.
         25    2    1    2    0    0  0.36354560043E+02 -0.24792131982E+02 -0.55833005782E+03  0.57384089552E+03  0.12499846424E+03 0.  0.
         23    2    1    2    0    0 -0.36354560043E+02  0.24792131982E+02 -0.37044609686E+03  0.38397417370E+03  0.90937074627E+02 0.  0.
        -13    1    4    4    0    0 -0.30485690435E+02 -0.18303383993E+02 -0.54668577444E+02  0.65215456072E+02  0.10566000000E+00 0. -1.
         13    1    4    4    0    0 -0.58688696078E+01  0.43095515975E+02 -0.31577751942E+03  0.31875871763E+03  0.10566000000E+00 0.  1.
    9000005    1    3    3    0    0  0.15460187886E+02 -0.53271898600E+02 -0.51476710696E+03  0.51774809222E+03  0.10000000000E+01 0.  0.
    9000005    1    3    3    0    0  0.20894372157E+02  0.28479766619E+02 -0.43562950863E+02  0.56092803303E+02  0.10000000000E+01 0.  0.
<mgrwt>
<rscale>  0 0.12382587E+03</rscale>
<asrwt>0</asrwt>
<pdfrwt beam="1">  1        1 0.22337634E-02 0.13251762E+03</pdfrwt>
<pdfrwt beam="2">  1       -1 0.14512235E+00 0.13251762E+03</pdfrwt>
<totfact> 0.20633416E+03</totfact>
</mgrwt>
</event>
<event>
 8    3  0.1508318E-003  0.1334838E+03  0.7818608E-02  0.1235167E+00
         -1   -1    0    0    0  501 -0.00000000000E+00  0.00000000000E+00  0.22896868746E+03  0.22896868752E+03  0.50400000000E-02 0.  1.
          1   -1    0    0  501    0  0.00000000000E+00 -0.00000000000E+00 -0.10713909276E+03  0.10713909288E+03  0.50400000000E-02 0. -1.
         25    2    1    2    0    0 -0.24461796487E+02  0.39939859452E+02  0.17546875313E+03  0.22047045056E+03  0.12499745752E+03 0.  0.
         23    2    1    2    0    0  0.24461796487E+02 -0.39939859452E+02 -0.53639158424E+02  0.11563732983E+03  0.91111255471E+02 0.  0.
        -13    1    4    4    0    0 -0.93614375044E+01 -0.47575015574E+02  0.37008146350E+01  0.48628446531E+02  0.10566000000E+00 0.  1.
         13    1    4    4    0    0  0.33823233991E+02  0.76351561213E+01 -0.57339973059E+02  0.67008883300E+02  0.10566000000E+00 0. -1.
    9000005    1    3    3    0    0 -0.33460201335E+02  0.97331197547E+00  0.17728923218E+03  0.18042451124E+03  0.10000000000E+01 0.  0.
    9000005    1    3    3    0    0  0.89984048478E+01  0.38966547477E+02 -0.18204790530E+01  0.40045939321E+02  0.10000000000E+01 0.  0.
<mgrwt>
<rscale>  0 0.12493769E+03</rscale>
<asrwt>0</asrwt>
<pdfrwt beam="2">  1        1 0.16482938E-01 0.13348384E+03</pdfrwt>
<pdfrwt beam="1">  1       -1 0.35225952E-01 0.13348384E+03</pdfrwt>
<totfact> 0.24643657E+03</totfact>
</mgrwt>
</event>
<event>
 8    3  0.1508318E-003  0.1975054E+03  0.7818608E-02  0.1154714E+00
         -1   -1    0    0    0  501 -0.00000000000E+00  0.00000000000E+00  0.10614759154E+04  0.10614759154E+04  0.50400000000E-02 0.  1.
          1   -1    0    0  501    0  0.00000000000E+00 -0.00000000000E+00 -0.43325735395E+02  0.43325735688E+02  0.50400000000E-02 0. -1.
         25    2    1    2    0    0  0.13719646889E+03 -0.67523474479E+02  0.77327998908E+03  0.79810420085E+03  0.12500433280E+03 0.  0.
         23    2    1    2    0    0 -0.13719646889E+03  0.67523474479E+02  0.24487019094E+03  0.30669745027E+03  0.10353562144E+03 0.  0.
        -13    1    4    4    0    0 -0.12341755267E+03  0.84307942237E+02  0.24248797198E+03  0.28485109996E+03  0.10566000000E+00 0.  1.
         13    1    4    4    0    0 -0.13778916225E+02 -0.16784467759E+02  0.23822189554E+01  0.21846350301E+02  0.10566000000E+00 0. -1.
    9000005    1    3    3    0    0  0.71727006859E+02 -0.96650160289E+02  0.38885991615E+03  0.40706148354E+03  0.10000000000E+01 0.  0.
    9000005    1    3    3    0    0  0.65469462032E+02  0.29126685810E+02  0.38442007293E+03  0.39104271730E+03  0.10000000000E+01 0.  0.
<mgrwt>
<rscale>  0 0.19421445E+03</rscale>
<asrwt>0</asrwt>
<pdfrwt beam="2">  1        1 0.66654979E-02 0.19750538E+03</pdfrwt>
<pdfrwt beam="1">  1       -1 0.16330398E+00 0.19750538E+03</pdfrwt>
<totfact> 0.33684389E+02</totfact>
</mgrwt>
</event>
<event>
 8    3  0.1508318E-003  0.1984484E+03  0.7818608E-02  0.1155439E+00
         -1   -1    0    0    0  501 -0.00000000000E+00  0.00000000000E+00  0.10066793195E+03  0.10066793207E+03  0.50400000000E-02 0.  1.
          1   -1    0    0  501    0  0.00000000000E+00 -0.00000000000E+00 -0.35401287559E+03  0.35401287562E+03  0.50400000000E-02 0. -1.
         25    2    1    2    0    0  0.13943955125E+03 -0.65701906319E+02 -0.12710857760E+03  0.23566577079E+03  0.12498654358E+03 0.  0.
         23    2    1    2    0    0 -0.13943955125E+03  0.65701906319E+02 -0.12623636604E+03  0.21901503690E+03  0.90949641734E+02 0.  0.
        -13    1    4    4    0    0 -0.92045375519E+02  0.82483735972E+02 -0.11191852697E+03  0.16673837500E+03  0.10566000000E+00 0. -1.
         13    1    4    4    0    0 -0.47394175735E+02 -0.16781829653E+02 -0.14317839066E+02  0.52276661903E+02  0.10566000000E+00 0.  1.
    9000005    1    3    3    0    0  0.15723502890E+03 -0.38181987339E+02 -0.12162859232E+03  0.20242340018E+03  0.10000000000E+01 0.  0.
    9000005    1    3    3    0    0 -0.17795477645E+02 -0.27519918980E+02 -0.54799852802E+01  0.33242370612E+02  0.10000000000E+01 0.  0.
<mgrwt>
<rscale>  0 0.19338983E+03</rscale>
<asrwt>0</asrwt>
<pdfrwt beam="2">  1        1 0.54463519E-01 0.19844839E+03</pdfrwt>
<pdfrwt beam="1">  1       -1 0.15487374E-01 0.19844839E+03</pdfrwt>
<totfact> 0.21428268E+03</totfact>
</mgrwt>
</event>
<event>
 8    3  0.1508318E-003  0.1420188E+03  0.7818608E-02  0.1220689E+00
          1   -1    0    0  501    0  0.00000000000E+00  0.00000000000E+00  0.35148296774E+02  0.35148297135E+02  0.50400000000E-02 0. -1.
         -1   -1    0    0    0  501 -0.00000000000E+00 -0.00000000000E+00 -0.76609970674E+03  0.76609970676E+03  0.50400000000E-02 0.  1.
         25    2    1    2    0    0  0.58616674667E+02 -0.33281149259E+02 -0.63772313165E+03  0.65334534667E+03  0.12500319963E+03 0.  0.
         23    2    1    2    0    0 -0.58616674667E+02  0.33281149259E+02 -0.93228278316E+02  0.14790265723E+03  0.92952324837E+02 0.  0.
        -13    1    4    4    0    0 -0.71245787086E+02  0.18279996433E+02 -0.26225277125E+02  0.78089031057E+02  0.10566000000E+00 0. -1.
         13    1    4    4    0    0  0.12629112420E+02  0.15001152827E+02 -0.67003001191E+02  0.69813626172E+02  0.10566000000E+00 0.  1.
    9000005    1    3    3    0    0  0.87689127782E+02 -0.49620309968E+02 -0.55630251021E+03  0.56535390788E+03  0.10000000000E+01 0.  0.
    9000005    1    3    3    0    0 -0.29072453115E+02  0.16339160709E+02 -0.81420621444E+02  0.87991438783E+02  0.10000000000E+01 0.  0.
<mgrwt>
<rscale>  0 0.13466789E+03</rscale>
<asrwt>0</asrwt>
<pdfrwt beam="1">  1        1 0.54074309E-02 0.14201883E+03</pdfrwt>
<pdfrwt beam="2">  1       -1 0.11786148E+00 0.14201883E+03</pdfrwt>
<totfact> 0.10142221E+03</totfact>
</mgrwt>
</event>
<event>
 8    3  0.1508318E-003  0.2456402E+03  0.7818608E-02  0.1118561E+00
         -1   -1    0    0    0  501 -0.00000000000E+00  0.00000000000E+00  0.88934012213E+02  0.88934012356E+02  0.50400000000E-02 0.  1.
          1   -1    0    0  501    0  0.00000000000E+00 -0.00000000000E+00 -0.69910584970E+03  0.69910584972E+03  0.50400000000E-02 0. -1.
         25    2    1    2    0    0  0.16394623790E+03  0.13355291829E+03 -0.42991703306E+03  0.49514420011E+03  0.12499749071E+03 0.  0.
         23    2    1    2    0    0 -0.16394623790E+03 -0.13355291829E+03 -0.18025480443E+03  0.29289566197E+03  0.92635432614E+02 0.  0.
        -13    1    4    4    0    0 -0.17492758977E+03 -0.13310120287E+03 -0.17020241918E+03  0.27800083907E+03  0.10566000000E+00 0.  1.
         13    1    4    4    0    0  0.10981351872E+02 -0.45171542005E+00 -0.10052385258E+02  0.14894822898E+02  0.10566000000E+00 0. -1.
    9000005    1    3    3    0    0  0.95680988562E+02  0.43462537070E+01 -0.12955234022E+03  0.16111657379E+03  0.10000000000E+01 0.  0.
    9000005    1    3    3    0    0  0.68265249334E+02  0.12920666458E+03 -0.30036469284E+03  0.33402762632E+03  0.10000000000E+01 0.  0.
<mgrwt>
<rscale>  0 0.24185860E+03</rscale>
<asrwt>0</asrwt>
<pdfrwt beam="2">  1        1 0.10755474E+00 0.24564023E+03</pdfrwt>
<pdfrwt beam="1">  1       -1 0.13682156E-01 0.24564023E+03</pdfrwt>
<totfact> 0.10528871E+03</totfact>
</mgrwt>
</event>
<event>
 8    3  0.1508318E-003  0.1510255E+03  0.7818608E-02  0.1205730E+00
          1   -1    0    0  501    0  0.00000000000E+00  0.00000000000E+00  0.46275542688E+02  0.46275542963E+02  0.50400000000E-02 0. -1.
         -1   -1    0    0    0  501 -0.00000000000E+00 -0.00000000000E+00 -0.44433771452E+03  0.44433771455E+03  0.50400000000E-02 0.  1.
         25    2    1    2    0    0  0.68418177614E+02 -0.50032061375E+02 -0.25613222594E+03  0.29734225129E+03  0.12499777216E+03 0.  0.
         23    2    1    2    0    0 -0.68418177614E+02  0.50032061375E+02 -0.14192994590E+03  0.19327100622E+03  0.10012651053E+03 0.  0.
        -13    1    4    4    0    0 -0.18365047905E+02  0.70977333731E+02 -0.58709760730E+02  0.93924991654E+02  0.10566000000E+00 0.  1.
         13    1    4    4    0    0 -0.50053129710E+02 -0.20945272356E+02 -0.83220185166E+02  0.99346014570E+02  0.10566000000E+00 0. -1.
    9000005    1    3    3    0    0 -0.15396033089E+02  0.15305680382E+02 -0.13266953226E+03  0.13443774201E+03  0.10000000000E+01 0.  0.
    9000005    1    3    3    0    0  0.83814210703E+02 -0.65337741757E+02 -0.12346269368E+03  0.16290450928E+03  0.10000000000E+01 0.  0.
<mgrwt>
<rscale>  0 0.14580048E+03</rscale>
<asrwt>0</asrwt>
<pdfrwt beam="1">  1        1 0.71193146E-02 0.15102549E+03</pdfrwt>
<pdfrwt beam="2">  1       -1 0.68359645E-01 0.15102549E+03</pdfrwt>
<totfact> 0.22356157E+03</totfact>
</mgrwt>
</event>
<event>
 8    3  0.1508318E-003  0.1260772E+03  0.7818608E-02  0.1249204E+00
          1   -1    0    0  501    0  0.00000000000E+00  0.00000000000E+00  0.15700248443E+04  0.15700248443E+04  0.50400000000E-02 0. -1.
         -1   -1    0    0    0  501 -0.00000000000E+00 -0.00000000000E+00 -0.78776908230E+01  0.78776924353E+01  0.50400000000E-02 0.  1.
         25    2    1    2    0    0  0.14706537919E+02 -0.75038808961E+01  0.10613854887E+04  0.10688473310E+04  0.12499148298E+03 0.  0.
         23    2    1    2    0    0 -0.14706537919E+02  0.75038808961E+01  0.50076166472E+03  0.50905520571E+03  0.90013149736E+02 0.  0.
        -13    1    4    4    0    0 -0.77435149079E+01 -0.29976144722E+02  0.69164830594E+02  0.75778072229E+02  0.10566000000E+00 0.  1.
         13    1    4    4    0    0 -0.69630230107E+01  0.37480025618E+02  0.43159683412E+03  0.43327713348E+03  0.10566000000E+00 0. -1.
    9000005    1    3    3    0    0  0.56288566253E+02  0.25677346249E+02  0.34626650685E+03  0.35175164899E+03  0.10000000000E+01 0.  0.
    9000005    1    3    3    0    0 -0.41582028335E+02 -0.33181227145E+02  0.71511898187E+03  0.71709568200E+03  0.10000000000E+01 0.  0.
<mgrwt>
<rscale>  0 0.11637247E+03</rscale>
<asrwt>0</asrwt>
<pdfrwt beam="1">  1        1 0.24154205E+00 0.12607720E+03</pdfrwt>
<pdfrwt beam="2">  1       -1 0.12119537E-02 0.12607720E+03</pdfrwt>
<totfact> 0.89011282E+03</totfact>
</mgrwt>
</event>
<event>
 8    3  0.1508318E-003  0.1446764E+03  0.7818608E-02  0.1217450E+00
          1   -1    0    0  501    0  0.00000000000E+00  0.00000000000E+00  0.10911380149E+04  0.10911380149E+04  0.50400000000E-02 0. -1.
         -1   -1    0    0    0  501 -0.00000000000E+00 -0.00000000000E+00 -0.16720483741E+02  0.16720484500E+02  0.50400000000E-02 0.  1.
         25    2    1    2    0    0 -0.42916985293E+02 -0.58851596244E+02  0.73433902785E+03  0.74845512527E+03  0.12500355478E+03 0.  0.
         23    2    1    2    0    0  0.42916985293E+02  0.58851596244E+02  0.34007850330E+03  0.35940337414E+03  0.90620190502E+02 0.  0.
        -13    1    4    4    0    0  0.62059625678E+02  0.64885985752E+02  0.31345974404E+03  0.32606534711E+03  0.10566000000E+00 0. -1.
         13    1    4    4    0    0 -0.19142640385E+02 -0.60343895085E+01  0.26618759263E+02  0.33338027032E+02  0.10566000000E+00 0.  1.
    9000005    1    3    3    0    0 -0.22926107566E+02 -0.25377040391E+02  0.68361140261E+03  0.68446705572E+03  0.10000000000E+01 0.  0.
    9000005    1    3    3    0    0 -0.19990877728E+02 -0.33474555853E+02  0.50727625244E+02  0.63988069550E+02  0.10000000000E+01 0.  0.
<mgrwt>
<rscale>  0 0.13698088E+03</rscale>
<asrwt>0</asrwt>
<pdfrwt beam="1">  1        1 0.16786745E+00 0.14467642E+03</pdfrwt>
<pdfrwt beam="2">  1       -1 0.25723812E-02 0.14467642E+03</pdfrwt>
<totfact> 0.63313488E+03</totfact>
</mgrwt>
</event>
<event>
 8    3  0.1508318E-003  0.1596003E+03  0.7818608E-02  0.1196044E+00
          1   -1    0    0  501    0  0.00000000000E+00  0.00000000000E+00  0.40745160732E+03  0.40745160735E+03  0.50400000000E-02 0. -1.
         -1   -1    0    0    0  501 -0.00000000000E+00 -0.00000000000E+00 -0.54403580447E+02  0.54403580681E+02  0.50400000000E-02 0.  1.
         25    2    1    2    0    0  0.32654631124E+02 -0.93660791141E+02  0.17066301512E+03  0.23366242696E+03  0.12503438053E+03 0.  0.
         23    2    1    2    0    0 -0.32654631124E+02  0.93660791141E+02  0.18238501175E+03  0.22819276107E+03  0.94704672330E+02 0.  0.
        -13    1    4    4    0    0 -0.30368499177E+01  0.34084699913E+02  0.17974416903E+00  0.34220355019E+02  0.10566000000E+00 0.  1.
         13    1    4    4    0    0 -0.29617781206E+02  0.59576091228E+02  0.18220526758E+03  0.19397240605E+03  0.10566000000E+00 0. -1.
    9000005    1    3    3    0    0  0.50629406233E+02  0.76273705839E+01  0.29857034989E+02  0.59278631023E+02  0.10000000000E+01 0.  0.
    9000005    1    3    3    0    0 -0.17974775110E+02 -0.10128816173E+03  0.14080598013E+03  0.17438379594E+03  0.10000000000E+01 0.  0.
<mgrwt>
<rscale>  0 0.15366223E+03</rscale>
<asrwt>0</asrwt>
<pdfrwt beam="1">  1        1 0.62684865E-01 0.15960033E+03</pdfrwt>
<pdfrwt beam="2">  1       -1 0.83697813E-02 0.15960033E+03</pdfrwt>
<totfact> 0.46151705E+03</totfact>
</mgrwt>
</event>
<event>
 8    3  0.1508318E-003  0.1841314E+03  0.7818608E-02  0.1168798E+00
         -1   -1    0    0    0  501 -0.00000000000E+00  0.00000000000E+00  0.81619270095E+03  0.81619270096E+03  0.50400000000E-02 0.  1.
          1   -1    0    0  501    0  0.00000000000E+00 -0.00000000000E+00 -0.37585788386E+02  0.37585788723E+02  0.50400000000E-02 0. -1.
         25    2    1    2    0    0 -0.90638856880E+02  0.10031684256E+03  0.45442766245E+03  0.49031508318E+03  0.12500203647E+03 0.  0.
         23    2    1    2    0    0  0.90638856880E+02 -0.10031684256E+03  0.32417925011E+03  0.36346340650E+03  0.93459030523E+02 0.  0.
        -13    1    4    4    0    0  0.30108261625E+01 -0.66168104687E+02  0.95710252742E+02  0.11639478853E+03  0.10566000000E+00 0. -1.
         13    1    4    4    0    0  0.87628030717E+02 -0.34148737868E+02  0.22846899737E+03  0.24706861798E+03  0.10566000000E+00 0.  1.
    9000005    1    3    3    0    0 -0.56375542857E+01  0.97796851904E+02  0.21609618772E+03  0.23726476478E+03  0.10000000000E+01 0.  0.
    9000005    1    3    3    0    0 -0.85001302594E+02  0.25199906512E+01  0.23833147473E+03  0.25305031841E+03  0.10000000000E+01 0.  0.
<mgrwt>
<rscale>  0 0.17897545E+03</rscale>
<asrwt>0</asrwt>
<pdfrwt beam="2">  1        1 0.57824294E-02 0.18413142E+03</pdfrwt>
<pdfrwt beam="1">  1       -1 0.12556810E+00 0.18413142E+03</pdfrwt>
<totfact> 0.80095752E+02</totfact>
</mgrwt>
</event>
<event>
 8    3  0.1508318E-003  0.1365727E+03  0.7818608E-02  0.1229970E+00
          1   -1    0    0  501    0  0.00000000000E+00  0.00000000000E+00  0.98884313622E+03  0.98884313623E+03  0.50400000000E-02 0. -1.
         -1   -1    0    0    0  501 -0.00000000000E+00 -0.00000000000E+00 -0.15032622850E+02  0.15032623695E+02  0.50400000000E-02 0.  1.
         25    2    1    2    0    0 -0.55656255385E+01  0.54750147311E+02  0.58808647834E+03  0.60373653614E+03  0.12499417684E+03 0.  0.
         23    2    1    2    0    0  0.55656255385E+01 -0.54750147311E+02  0.38572403503E+03  0.40013922379E+03  0.91103306179E+02 0.  0.
        -13    1    4    4    0    0 -0.13236330502E+02 -0.76493111785E+02  0.28734685942E+03  0.29764849299E+03  0.10566000000E+00 0. -1.
         13    1    4    4    0    0  0.18801956041E+02  0.21742964474E+02  0.98377175608E+02  0.10249073080E+03  0.10566000000E+00 0.  1.
    9000005    1    3    3    0    0  0.26061336194E+02  0.75509527396E+02  0.22650429213E+03  0.24017925873E+03  0.10000000000E+01 0.  0.
    9000005    1    3    3    0    0 -0.31626961732E+02 -0.20759380085E+02  0.36158218621E+03  0.36355727741E+03  0.10000000000E+01 0.  0.
<mgrwt>
<rscale>  0 0.12831984E+03</rscale>
<asrwt>0</asrwt>
<pdfrwt beam="1">  1        1 0.15212971E+00 0.13657269E+03</pdfrwt>
<pdfrwt beam="2">  1       -1 0.23127113E-02 0.13657269E+03</pdfrwt>
<totfact> 0.87315587E+03</totfact>
</mgrwt>
</event>
<event>
 8    3  0.1508318E-003  0.1506540E+03  0.7818608E-02  0.1208434E+00
          1   -1    0    0  501    0  0.00000000000E+00  0.00000000000E+00  0.15731310779E+03  0.15731310787E+03  0.50400000000E-02 0. -1.
         -1   -1    0    0    0  501 -0.00000000000E+00 -0.00000000000E+00 -0.12536409810E+03  0.12536409820E+03  0.50400000000E-02 0.  1.
         25    2    1    2    0    0  0.21287371990E+02 -0.81357006630E+02  0.45144569646E+02  0.15727259459E+03  0.12499808841E+03 0.  0.
         23    2    1    2    0    0 -0.21287371990E+02  0.81357006630E+02 -0.13195559957E+02  0.12540461148E+03  0.92087344650E+02 0.  0.
        -13    1    4    4    0    0 -0.35044058398E+02  0.47763204271E+02 -0.47138406506E+02  0.75706342160E+02  0.10566000000E+00 0.  1.
         13    1    4    4    0    0  0.13756686408E+02  0.33593802359E+02  0.33942846549E+02  0.49698269323E+02  0.10566000000E+00 0. -1.
    9000005    1    3    3    0    0  0.35960242096E+02  0.50398114577E+01 -0.25768215003E+02  0.44536946635E+02  0.10000000000E+01 0.  0.
    9000005    1    3    3    0    0 -0.14672870105E+02 -0.86396818088E+02  0.70912784649E+02  0.11273564795E+03  0.10000000000E+01 0.  0.
<mgrwt>
<rscale>  0 0.14370091E+03</rscale>
<asrwt>0</asrwt>
<pdfrwt beam="1">  1        1 0.24202016E-01 0.15065403E+03</pdfrwt>
<pdfrwt beam="2">  1       -1 0.19286785E-01 0.15065403E+03</pdfrwt>
<totfact> 0.41205554E+03</totfact>
</mgrwt>
</event>
<event>
 8    3  0.1508318E-003  0.1314345E+03  0.7818608E-02  0.1238729E+00
         -1   -1    0    0    0  501 -0.00000000000E+00  0.00000000000E+00  0.56693646755E+02  0.56693646979E+02  0.50400000000E-02 0.  1.
          1   -1    0    0  501    0  0.00000000000E+00 -0.00000000000E+00 -0.23578647254E+03  0.23578647259E+03  0.50400000000E-02 0. -1.
         25    2    1    2    0    0 -0.42163566816E+01  0.40412821340E+02 -0.10354370645E+03  0.16732099446E+03  0.12499616894E+03 0.  0.
         23    2    1    2    0    0  0.42163566816E+01 -0.40412821340E+02 -0.75549119338E+02  0.12515912511E+03  0.91138155422E+02 0.  0.
        -13    1    4    4    0    0  0.23102542428E+02 -0.45137137972E+02 -0.88344798541E+02  0.10186217789E+03  0.10566000000E+00 0. -1.
         13    1    4    4    0    0 -0.18886185746E+02  0.47243166321E+01  0.12795679202E+02  0.23296947224E+02  0.10566000000E+00 0.  1.
    9000005    1    3    3    0    0  0.47949790841E+02  0.40499426812E+02 -0.14987079589E+02  0.64536800110E+02  0.10000000000E+01 0.  0.
    9000005    1    3    3    0    0 -0.52166147523E+02 -0.86605472238E-01 -0.88556626859E+02  0.10278419435E+03  0.10000000000E+01 0.  0.
<mgrwt>
<rscale>  0 0.12268705E+03</rscale>
<asrwt>0</asrwt>
<pdfrwt beam="2">  1        1 0.36274841E-01 0.13143446E+03</pdfrwt>
<pdfrwt beam="1">  1       -1 0.87220997E-02 0.13143446E+03</pdfrwt>
<totfact> 0.84680418E+03</totfact>
</mgrwt>
</event>
<event>
 8    3  0.1508318E-003  0.1743946E+03  0.7818608E-02  0.1179499E+00
          1   -1    0    0  501    0  0.00000000000E+00  0.00000000000E+00  0.13603535954E+03  0.13603535963E+03  0.50400000000E-02 0. -1.
         -1   -1    0    0    0  501 -0.00000000000E+00 -0.00000000000E+00 -0.21190116461E+03  0.21190116467E+03  0.50400000000E-02 0.  1.
         25    2    1    2    0    0 -0.11098855870E+03  0.49708954093E+02  0.80040471595E+01  0.17457820437E+03  0.12499617751E+03 0.  0.
         23    2    1    2    0    0  0.11098855870E+03 -0.49708954093E+02 -0.83869852224E+02  0.17335831993E+03  0.90716672657E+02 0.  0.
        -13    1    4    4    0    0  0.12972977749E+02 -0.45709832096E+02 -0.55639320431E+01  0.47839893454E+02  0.10566000000E+00 0. -1.
         13    1    4    4    0    0  0.98015580948E+02 -0.39991219976E+01 -0.78305920181E+02  0.12551842648E+03  0.10566000000E+00 0.  1.
    9000005    1    3    3    0    0 -0.24714362097E+02  0.15418134609E+02 -0.55089346654E+02  0.62324591322E+02  0.10000000000E+01 0.  0.
    9000005    1    3    3    0    0 -0.86274196600E+02  0.34290819484E+02  0.63093393813E+02  0.11225361305E+03  0.10000000000E+01 0.  0.
<mgrwt>
<rscale>  0 0.16842654E+03</rscale>
<asrwt>0</asrwt>
<pdfrwt beam="1">  1        1 0.20928517E-01 0.17439462E+03</pdfrwt>
<pdfrwt beam="2">  1       -1 0.32600179E-01 0.17439462E+03</pdfrwt>
<totfact> 0.20946921E+03</totfact>
</mgrwt>
</event>
<event>
 8    3  0.1508318E-003  0.1327637E+03  0.7818608E-02  0.1236583E+00
         -1   -1    0    0    0  501 -0.00000000000E+00  0.00000000000E+00  0.80713824576E+01  0.80713840312E+01  0.50400000000E-02 0.  1.
          1   -1    0    0  501    0  0.00000000000E+00 -0.00000000000E+00 -0.18231523943E+04  0.18231523944E+04  0.50400000000E-02 0. -1.
         25    2    1    2    0    0 -0.38209326011E+02 -0.23278792387E+02 -0.78060585767E+03  0.79181544999E+03  0.12499738811E+03 0.  0.
         23    2    1    2    0    0  0.38209326011E+02  0.23278792387E+02 -0.10344751542E+04  0.10394083284E+04  0.90713690715E+02 0.  0.
        -13    1    4    4    0    0  0.23823046919E+02 -0.61845894636E+01 -0.67002035752E+02  0.71379763731E+02  0.10566000000E+00 0.  1.
         13    1    4    4    0    0  0.14386279092E+02  0.29463381851E+02 -0.96747311846E+03  0.96802856467E+03  0.10566000000E+00 0. -1.
    9000005    1    3    3    0    0  0.31622516225E+02 -0.47917106995E+02 -0.39640820190E+03  0.40054524740E+03  0.10000000000E+01 0.  0.
    9000005    1    3    3    0    0 -0.69831842236E+02  0.24638314608E+02 -0.38419765577E+03  0.39127020259E+03  0.10000000000E+01 0.  0.
<mgrwt>
<rscale>  0 0.12403618E+03</rscale>
<asrwt>0</asrwt>
<pdfrwt beam="2">  1        1 0.28048466E+00 0.13276371E+03</pdfrwt>
<pdfrwt beam="1">  1       -1 0.12417527E-02 0.13276371E+03</pdfrwt>
<totfact> 0.59399341E+03</totfact>
</mgrwt>
</event>
<event>
 8    3  0.1508318E-003  0.2467861E+03  0.7818608E-02  0.1118054E+00
          1   -1    0    0  501    0  0.00000000000E+00  0.00000000000E+00  0.28063000994E+04  0.28063000994E+04  0.50400000000E-02 0. -1.
         -1   -1    0    0    0  501 -0.00000000000E+00 -0.00000000000E+00 -0.21924299054E+02  0.21924299634E+02  0.50400000000E-02 0.  1.
         25    2    1    2    0    0  0.44265137338E+02 -0.20813437043E+03  0.10512475637E+04  0.10798262987E+04  0.12499630651E+03 0.  0.
         23    2    1    2    0    0 -0.44265137338E+02  0.20813437043E+03  0.17331282366E+04  0.17483981003E+04  0.88786902549E+02 0.  0.
        -13    1    4    4    0    0 -0.36885474895E+02  0.13977904269E+03  0.14435235555E+04  0.14507442868E+04  0.10566000000E+00 0.  1.
         13    1    4    4    0    0 -0.73796624428E+01  0.68355327739E+02  0.28960468109E+03  0.29765381356E+03  0.10566000000E+00 0. -1.
    9000005    1    3    3    0    0 -0.30513200703E+02 -0.36300634828E+02  0.10523587270E+03  0.11543128003E+03  0.10000000000E+01 0.  0.
    9000005    1    3    3    0    0  0.74778338040E+02 -0.17183373560E+03  0.94601169099E+03  0.96439501866E+03  0.10000000000E+01 0.  0.
<mgrwt>
<rscale>  0 0.24262814E+03</rscale>
<asrwt>0</asrwt>
<pdfrwt beam="1">  1        1 0.43173841E+00 0.24678613E+03</pdfrwt>
<pdfrwt beam="2">  1       -1 0.33729697E-02 0.24678613E+03</pdfrwt>
<totfact> 0.31396245E+02</totfact>
</mgrwt>
</event>
<event>
 8    3  0.1508318E-003  0.1775555E+03  0.7818608E-02  0.1176510E+00
         -1   -1    0    0    0  501 -0.00000000000E+00  0.00000000000E+00  0.45380851362E+02  0.45380851642E+02  0.50400000000E-02 0.  1.
          1   -1    0    0  501    0  0.00000000000E+00 -0.00000000000E+00 -0.10036172160E+04  0.10036172160E+04  0.50400000000E-02 0. -1.
         25    2    1    2    0    0  0.14005693513E+02  0.12531869656E+03 -0.82994691767E+03  0.84872718174E+03  0.12500003088E+03 0.  0.
         23    2    1    2    0    0 -0.14005693513E+02 -0.12531869656E+03 -0.12828944694E+03  0.20027088588E+03  0.88030167424E+02 0.  0.
        -13    1    4    4    0    0  0.57568045130E+01 -0.37390990935E+02 -0.98238653666E+02  0.10527141701E+03  0.10566000000E+00 0. -1.
         13    1    4    4    0    0 -0.19762498026E+02 -0.87927705629E+02 -0.30050793273E+02  0.94999468871E+02  0.10566000000E+00 0.  1.
    9000005    1    3    3    0    0  0.25021800306E+02  0.14901324605E+03 -0.72412712154E+03  0.73972435821E+03  0.10000000000E+01 0.  0.
    9000005    1    3    3    0    0 -0.11016106793E+02 -0.23694549482E+02 -0.10581979613E+03  0.10900282353E+03  0.10000000000E+01 0.  0.
<mgrwt>
<rscale>  0 0.17128920E+03</rscale>
<asrwt>0</asrwt>
<pdfrwt beam="2">  1        1 0.15440263E+00 0.17755546E+03</pdfrwt>
<pdfrwt beam="1">  1       -1 0.69816702E-02 0.17755546E+03</pdfrwt>
<totfact> 0.16821387E+03</totfact>
</mgrwt>
</event>
<event>
 8    3  0.1508318E-003  0.1451892E+03  0.7818608E-02  0.1219800E+00
          1   -1    0    0  501    0  0.00000000000E+00  0.00000000000E+00  0.28516760475E+03  0.28516760480E+03  0.50400000000E-02 0. -1.
         -1   -1    0    0    0  501 -0.00000000000E+00 -0.00000000000E+00 -0.63027675179E+02  0.63027675380E+02  0.50400000000E-02 0.  1.
         25    2    1    2    0    0  0.28997277376E+02 -0.67928868709E+02  0.17909099612E+03  0.23055040225E+03  0.12499891913E+03 0.  0.
         23    2    1    2    0    0 -0.28997277376E+02  0.67928868709E+02  0.43048933454E+02  0.11764487793E+03  0.80820376968E+02 0.  0.
        -13    1    4    4    0    0  0.22335433559E+02  0.16434784075E+02 -0.79324747463E+01  0.28842833417E+02  0.10566000000E+00 0.  1.
         13    1    4    4    0    0 -0.51332710936E+02  0.51494084633E+02  0.50981408200E+02  0.88802044517E+02  0.10566000000E+00 0. -1.
    9000005    1    3    3    0    0  0.53690171691E+02 -0.46133803644E+02  0.18407969108E+03  0.19722397177E+03  0.10000000000E+01 0.  0.
    9000005    1    3    3    0    0 -0.24692894315E+02 -0.21795065064E+02 -0.49886949538E+01  0.33326430474E+02  0.10000000000E+01 0.  0.
<mgrwt>
<rscale>  0 0.13529758E+03</rscale>
<asrwt>0</asrwt>
<pdfrwt beam="1">  1        1 0.43871938E-01 0.14518920E+03</pdfrwt>
<pdfrwt beam="2">  1       -1 0.96965657E-02 0.14518920E+03</pdfrwt>
<totfact> 0.57356055E+03</totfact>
</mgrwt>
</event>
<event>
 8    3  0.1508318E-003  0.1373492E+03  0.7818608E-02  0.1225698E+00
          1   -1    0    0  501    0  0.00000000000E+00  0.00000000000E+00  0.43126519459E+03  0.43126519462E+03  0.50400000000E-02 0. -1.
         -1   -1    0    0    0  501 -0.00000000000E+00 -0.00000000000E+00 -0.42541680670E+02  0.42541680968E+02  0.50400000000E-02 0.  1.
         25    2    1    2    0    0 -0.56647684599E+02 -0.55159625355E+01  0.29704125321E+03  0.32725877394E+03  0.12500165198E+03 0.  0.
         23    2    1    2    0    0  0.56647684599E+02  0.55159625355E+01  0.91682260710E+02  0.14654810165E+03  0.99153028973E+02 0.  0.
        -13    1    4    4    0    0  0.34707371316E+02 -0.90951736109E+01  0.10916965782E+03  0.11491452980E+03  0.10566000000E+00 0. -1.
         13    1    4    4    0    0  0.21940313283E+02  0.14611136146E+02 -0.17487397106E+02  0.31633571851E+02  0.10566000000E+00 0.  1.
    9000005    1    3    3    0    0  0.22277284812E+02 -0.43398192647E+02  0.12587848275E+03  0.13500397388E+03  0.10000000000E+01 0.  0.
    9000005    1    3    3    0    0 -0.78924969412E+02  0.37882230112E+02  0.17116277046E+03  0.19225480006E+03  0.10000000000E+01 0.  0.
<mgrwt>
<rscale>  0 0.13119188E+03</rscale>
<asrwt>0</asrwt>
<pdfrwt beam="1">  1        1 0.66348487E-01 0.13734919E+03</pdfrwt>
<pdfrwt beam="2">  1       -1 0.65448744E-02 0.13734919E+03</pdfrwt>
<totfact> 0.61688049E+03</totfact>
</mgrwt>
</event>
<event>
 8    3  0.1508318E-003  0.1500832E+03  0.7818608E-02  0.1208506E+00
          1   -1    0    0  501    0  0.00000000000E+00  0.00000000000E+00  0.55668840749E+03  0.55668840751E+03  0.50400000000E-02 0. -1.
         -1   -1    0    0    0  501 -0.00000000000E+00 -0.00000000000E+00 -0.42044508418E+02  0.42044508720E+02  0.50400000000E-02 0.  1.
         25    2    1    2    0    0 -0.13758496419E+02  0.81849097540E+02  0.40440970020E+03  0.43136085363E+03  0.12504562943E+03 0.  0.
         23    2    1    2    0    0  0.13758496419E+02 -0.81849097540E+02  0.11023419888E+03  0.16737206261E+03  0.94727280901E+02 0.  0.
        -13    1    4    4    0    0 -0.16855210585E+01 -0.95007658960E+02  0.11214888352E+03  0.14699210687E+03  0.10566000000E+00 0.  1.
         13    1    4    4    0    0  0.15444017478E+02  0.13158561420E+02 -0.19146846459E+01  0.20379955736E+02  0.10566000000E+00 0. -1.
    9000005    1    3    3    0    0  0.52998110245E+02  0.22844535546E+02  0.20457727237E+03  0.21256418528E+03  0.10000000000E+01 0.  0.
    9000005    1    3    3    0    0 -0.66756606664E+02  0.59004561994E+02  0.19983242783E+03  0.21879666835E+03  0.10000000000E+01 0.  0.
<mgrwt>
<rscale>  0 0.14364593E+03</rscale>
<asrwt>0</asrwt>
<pdfrwt beam="1">  1        1 0.85644370E-01 0.15008325E+03</pdfrwt>
<pdfrwt beam="2">  1       -1 0.64683860E-02 0.15008325E+03</pdfrwt>
<totfact> 0.45223957E+03</totfact>
</mgrwt>
</event>
<event>
 8    3  0.1508318E-003  0.1304804E+03  0.7818608E-02  0.1240393E+00
          1   -1    0    0  501    0  0.00000000000E+00  0.00000000000E+00  0.55792570526E+01  0.55792593290E+01  0.50400000000E-02 0.  1.
         -1   -1    0    0    0  501 -0.00000000000E+00 -0.00000000000E+00 -0.24572019798E+04  0.24572019799E+04  0.50400000000E-02 0. -1.
         25    2    1    2    0    0  0.21187442180E+02 -0.30722601510E+02 -0.11359683212E+04  0.11434374293E+04  0.12502936453E+03 0.  0.
         23    2    1    2    0    0 -0.21187442180E+02  0.30722601510E+02 -0.13156544016E+04  0.13193438099E+04  0.91262250123E+02 0.  0.
        -13    1    4    4    0    0  0.36158846395E+02  0.14358693560E+02 -0.54153973329E+03  0.54293547328E+03  0.10566000000E+00 0.  1.
         13    1    4    4    0    0 -0.57346288575E+02  0.16363907951E+02 -0.77411466835E+03  0.77640833665E+03  0.10566000000E+00 0. -1.
    9000005    1    3    3    0    0  0.65288964737E+02 -0.35798599382E+02 -0.91661600702E+03  0.91963584802E+03  0.10000000000E+01 0.  0.
    9000005    1    3    3    0    0 -0.44101522557E+02  0.50759978712E+01 -0.21935231414E+03  0.22380158123E+03  0.10000000000E+01 0.  0.
<mgrwt>
<rscale>  0 0.12165390E+03</rscale>
<asrwt>0</asrwt>
<pdfrwt beam="1">  1        1 0.85834938E-03 0.13048037E+03</pdfrwt>
<pdfrwt beam="2">  1       -1 0.37803021E+00 0.13048037E+03</pdfrwt>
<totfact> 0.24853063E+02</totfact>
</mgrwt>
</event>
<event>
 8    3  0.1508318E-003  0.1796674E+03  0.7818608E-02  0.1174346E+00
         -1   -1    0    0    0  501 -0.00000000000E+00  0.00000000000E+00  0.73918284799E+02  0.73918284970E+02  0.50400000000E-02 0.  1.
          1   -1    0    0  501    0  0.00000000000E+00 -0.00000000000E+00 -0.38459939522E+03  0.38459939525E+03  0.50400000000E-02 0. -1.
         25    2    1    2    0    0 -0.52694630588E+02 -0.11780673826E+03 -0.18893468341E+03  0.26072342993E+03  0.12500096258E+03 0.  0.
         23    2    1    2    0    0  0.52694630588E+02  0.11780673826E+03 -0.12174642702E+03  0.19779425030E+03  0.87436956076E+02 0.  0.
        -13    1    4    4    0    0 -0.24250788218E+02  0.36961996480E+02 -0.31898813023E+02  0.54514542549E+02  0.10566000000E+00 0. -1.
         13    1    4    4    0    0  0.76945418806E+02  0.80844741779E+02 -0.89847613994E+02  0.14327970775E+03  0.10566000000E+00 0.  1.
    9000005    1    3    3    0    0  0.30161566571E+02 -0.52913488979E+01 -0.72954584516E+02  0.79127048934E+02  0.10000000000E+01 0.  0.
    9000005    1    3    3    0    0 -0.82856197159E+02 -0.11251538936E+03 -0.11598009889E+03  0.18159638099E+03  0.10000000000E+01 0.  0.
<mgrwt>
<rscale>  0 0.17340183E+03</rscale>
<asrwt>0</asrwt>
<pdfrwt beam="2">  1        1 0.59169137E-01 0.17966745E+03</pdfrwt>
<pdfrwt beam="1">  1       -1 0.11372044E-01 0.17966745E+03</pdfrwt>
<totfact> 0.31198519E+03</totfact>
</mgrwt>
</event>
<event>
 8    3  0.1508318E-003  0.1572786E+03  0.7818608E-02  0.1205022E+00
         -1   -1    0    0    0  501 -0.00000000000E+00  0.00000000000E+00  0.24639266968E+03  0.24639266973E+03  0.50400000000E-02 0.  1.
          1   -1    0    0  501    0  0.00000000000E+00 -0.00000000000E+00 -0.76858488726E+02  0.76858488891E+02  0.50400000000E-02 0. -1.
         25    2    1    2    0    0 -0.95439613868E+02  0.18599750679E+01  0.95382931665E+02  0.18394149558E+03  0.12499756293E+03 0.  0.
         23    2    1    2    0    0  0.95439613868E+02 -0.18599750679E+01  0.74151249291E+02  0.13930966305E+03  0.69257454796E+02 0.  0.
        -13    1    4    4    0    0  0.67792135719E+02 -0.11990882699E+02  0.11115993945E+02  0.69736155749E+02  0.10566000000E+00 0. -1.
         13    1    4    4    0    0  0.27647478150E+02  0.10130907632E+02  0.63035255346E+02  0.69573507300E+02  0.10566000000E+00 0.  1.
    9000005    1    3    3    0    0 -0.96564063059E+02  0.47331120420E+02  0.46513312295E+02  0.11717227255E+03  0.10000000000E+01 0.  0.
    9000005    1    3    3    0    0  0.11244491902E+01 -0.45471145352E+02  0.48869619370E+02  0.66769223022E+02  0.10000000000E+01 0.  0.
<mgrwt>
<rscale>  0 0.14635697E+03</rscale>
<asrwt>0</asrwt>
<pdfrwt beam="2">  1        1 0.11824383E-01 0.15727864E+03</pdfrwt>
<pdfrwt beam="1">  1       -1 0.37906565E-01 0.15727864E+03</pdfrwt>
<totfact> 0.33726109E+03</totfact>
</mgrwt>
</event>
<event>
 8    3  0.1508318E-003  0.1628246E+03  0.7818608E-02  0.1193082E+00
         -1   -1    0    0    0  501 -0.00000000000E+00  0.00000000000E+00  0.58561256955E+02  0.58561257172E+02  0.50400000000E-02 0.  1.
          1   -1    0    0  501    0  0.00000000000E+00 -0.00000000000E+00 -0.39331546515E+03  0.39331546518E+03  0.50400000000E-02 0. -1.
         25    2    1    2    0    0  0.35540983439E+02 -0.98100906674E+02 -0.15003816388E+03  0.22141204776E+03  0.12499957951E+03 0.  0.
         23    2    1    2    0    0 -0.35540983439E+02  0.98100906674E+02 -0.18471604431E+03  0.23046467460E+03  0.90038879468E+02 0.  0.
        -13    1    4    4    0    0  0.25740686791E+02  0.48415805506E+01 -0.33123237569E+02  0.42227762074E+02  0.10566000000E+00 0. -1.
         13    1    4    4    0    0 -0.61281670230E+02  0.93259326124E+02 -0.15159280674E+03  0.18823691252E+03  0.10566000000E+00 0.  1.
    9000005    1    3    3    0    0  0.57272271699E+02 -0.83818876339E+02 -0.16323774782E+03  0.19223235797E+03  0.10000000000E+01 0.  0.
    9000005    1    3    3    0    0 -0.21731288260E+02 -0.14282030335E+02  0.13199583941E+02  0.29179689788E+02  0.10000000000E+01 0.  0.
<mgrwt>
<rscale>  0 0.15617693E+03</rscale>
<asrwt>0</asrwt>
<pdfrwt beam="2">  1        1 0.60510070E-01 0.16282458E+03</pdfrwt>
<pdfrwt beam="1">  1       -1 0.90094244E-02 0.16282458E+03</pdfrwt>
<totfact> 0.43190854E+03</totfact>
</mgrwt>
</event>
<event>
 8    3  0.1508318E-003  0.1271792E+03  0.7818608E-02  0.1245204E+00
         -1   -1    0    0    0  501 -0.00000000000E+00  0.00000000000E+00  0.22277827575E+02  0.22277828145E+02  0.50400000000E-02 0.  1.
          1   -1    0    0  501    0  0.00000000000E+00 -0.00000000000E+00 -0.57936442194E+03  0.57936442196E+03  0.50400000000E-02 0. -1.
         25    2    1    2    0    0  0.23324017252E+02 -0.28895635644E+01 -0.26386056686E+03  0.29291116789E+03  0.12498877618E+03 0.  0.
         23    2    1    2    0    0 -0.23324017252E+02  0.28895635644E+01 -0.29322602750E+03  0.30873108222E+03  0.93707089190E+02 0.  0.
        -13    1    4    4    0    0 -0.24159168846E+02 -0.16464692727E+02 -0.28685025890E+03  0.28833632054E+03  0.10566000000E+00 0. -1.
         13    1    4    4    0    0  0.83515159435E+00  0.19354256291E+02 -0.63757686037E+01  0.20394761682E+02  0.10566000000E+00 0.  1.
    9000005    1    3    3    0    0  0.15994572337E+01  0.52771296259E+02 -0.57481296079E+02  0.78054259148E+02  0.10000000000E+01 0.  0.
    9000005    1    3    3    0    0  0.21724560018E+02 -0.55660859823E+02 -0.20637927078E+03  0.21485690874E+03  0.10000000000E+01 0.  0.
<mgrwt>
<rscale>  0 0.11873178E+03</rscale>
<asrwt>0</asrwt>
<pdfrwt beam="2">  1        1 0.89132977E-01 0.12717922E+03</pdfrwt>
<pdfrwt beam="1">  1       -1 0.34273586E-02 0.12717922E+03</pdfrwt>
<totfact> 0.10849009E+04</totfact>
</mgrwt>
</event>
<event>
 8    3  0.1508318E-003  0.1278082E+03  0.7818608E-02  0.1248778E+00
          1   -1    0    0  501    0  0.00000000000E+00  0.00000000000E+00  0.87436605794E+03  0.87436605796E+03  0.50400000000E-02 0. -1.
         -1   -1    0    0    0  501 -0.00000000000E+00 -0.00000000000E+00 -0.13923966371E+02  0.13923967283E+02  0.50400000000E-02 0.  1.
         25    2    1    2    0    0  0.45649445252E+01  0.26263788827E+02  0.41961954863E+03  0.43865192195E+03  0.12499727085E+03 0.  0.
         23    2    1    2    0    0 -0.45649445252E+01 -0.26263788827E+02  0.44082254294E+03  0.44963810329E+03  0.84494285251E+02 0.  0.
        -13    1    4    4    0    0  0.23695730132E+01 -0.98808664666E+01  0.18785753619E+01  0.10333760585E+02  0.10566000000E+00 0.  1.
         13    1    4    4    0    0 -0.69345175383E+01 -0.16382922360E+02  0.43894396758E+03  0.43930434270E+03  0.10566000000E+00 0. -1.
    9000005    1    3    3    0    0  0.40284161555E+02  0.21314055640E+02  0.51534683143E+02  0.68803533388E+02  0.10000000000E+01 0.  0.
    9000005    1    3    3    0    0 -0.35719217030E+02  0.49497331874E+01  0.36808486549E+03  0.36984838856E+03  0.10000000000E+01 0.  0.
<mgrwt>
<rscale>  0 0.11662112E+03</rscale>
<asrwt>0</asrwt>
<pdfrwt beam="1">  1        1 0.13451785E+00 0.12780823E+03</pdfrwt>
<pdfrwt beam="2">  1       -1 0.21421488E-02 0.12780823E+03</pdfrwt>
<totfact> 0.11855150E+04</totfact>
</mgrwt>
</event>
<event>
 8    3  0.1508318E-003  0.1411080E+03  0.7818608E-02  0.1222576E+00
         -1   -1    0    0    0  501 -0.00000000000E+00  0.00000000000E+00  0.22749463097E+02  0.22749463655E+02  0.50400000000E-02 0.  1.
          1   -1    0    0  501    0  0.00000000000E+00 -0.00000000000E+00 -0.88390342916E+03  0.88390342918E+03  0.50400000000E-02 0. -1.
         25    2    1    2    0    0 -0.63852386956E+02  0.14405885170E+02 -0.26757489740E+03  0.30250254851E+03  0.12500723695E+03 0.  0.
         23    2    1    2    0    0  0.63852386956E+02 -0.14405885170E+02 -0.59357906866E+03  0.60415034432E+03  0.91525247530E+02 0.  0.
        -13    1    4    4    0    0  0.26212013911E+02  0.29807987356E+02 -0.40226036846E+03  0.40421405341E+03  0.10566000000E+00 0. -1.
         13    1    4    4    0    0  0.37640373045E+02 -0.44213872526E+02 -0.19131870021E+03  0.19993629090E+03  0.10566000000E+00 0.  1.
    9000005    1    3    3    0    0 -0.29868762083E+02  0.11114760884E+02 -0.26642470660E+03  0.26832593081E+03  0.10000000000E+01 0.  0.
    9000005    1    3    3    0    0 -0.33983624872E+02  0.32911242866E+01 -0.11501907967E+01  0.34176617700E+02  0.10000000000E+01 0.  0.
<mgrwt>
<rscale>  0 0.13334431E+03</rscale>
<asrwt>0</asrwt>
<pdfrwt beam="2">  1        1 0.13598512E+00 0.14110799E+03</pdfrwt>
<pdfrwt beam="1">  1       -1 0.34999181E-02 0.14110799E+03</pdfrwt>
<totfact> 0.57436437E+03</totfact>
</mgrwt>
</event>
<event>
 8    3  0.1508318E-003  0.1498197E+03  0.7818608E-02  0.1209947E+00
          1   -1    0    0  501    0  0.00000000000E+00  0.00000000000E+00  0.64539844929E+03  0.64539844931E+03  0.50400000000E-02 0. -1.
         -1   -1    0    0    0  501 -0.00000000000E+00 -0.00000000000E+00 -0.29027467086E+02  0.29027467524E+02  0.50400000000E-02 0.  1.
         25    2    1    2    0    0 -0.80550824941E+02  0.18261216110E+02  0.30767076744E+03  0.34220936909E+03  0.12499617493E+03 0.  0.
         23    2    1    2    0    0  0.80550824941E+02 -0.18261216110E+02  0.30870021477E+03  0.33221654775E+03  0.90830086339E+02 0.  0.
        -13    1    4    4    0    0  0.76849016248E+02 -0.47029802915E+02  0.19392484302E+03  0.21383271398E+03  0.10566000000E+00 0.  1.
         13    1    4    4    0    0  0.37018086925E+01  0.28768586805E+02  0.11477537175E+03  0.11838383377E+03  0.10566000000E+00 0. -1.
    9000005    1    3    3    0    0 -0.25105030530E+02  0.44004575775E+02  0.25942471658E+03  0.26432716247E+03  0.10000000000E+01 0.  0.
    9000005    1    3    3    0    0 -0.55445794411E+02 -0.25743359665E+02  0.48246050855E+02  0.77882206619E+02  0.10000000000E+01 0.  0.
<mgrwt>
<rscale>  0 0.14254374E+03</rscale>
<asrwt>0</asrwt>
<pdfrwt beam="1">  1        1 0.99292072E-01 0.14981973E+03</pdfrwt>
<pdfrwt beam="2">  1       -1 0.44657641E-02 0.14981973E+03</pdfrwt>
<totfact> 0.64102031E+03</totfact>
</mgrwt>
</event>
<event>
 8    3  0.1508318E-003  0.3092523E+03  0.7818608E-02  0.1082294E+00
         -1   -1    0    0    0  501 -0.00000000000E+00  0.00000000000E+00  0.14426144036E+03  0.14426144045E+03  0.50400000000E-02 0.  1.
          1   -1    0    0  501    0  0.00000000000E+00 -0.00000000000E+00 -0.66101498904E+03  0.66101498906E+03  0.50400000000E-02 0. -1.
         25    2    1    2    0    0 -0.21284820894E+03  0.18629993461E+03 -0.18464005088E+03  0.36017905196E+03  0.12499990158E+03 0.  0.
         23    2    1    2    0    0  0.21284820894E+03 -0.18629993461E+03 -0.33211349780E+03  0.44509737755E+03  0.88319162097E+02 0.  0.
        -13    1    4    4    0    0  0.28255820485E+02 -0.65806539150E+02 -0.51286233881E+02  0.88086213087E+02  0.10566000000E+00 0.  1.
         13    1    4    4    0    0  0.18459238845E+03 -0.12049339546E+03 -0.28082726392E+03  0.35701116446E+03  0.10566000000E+00 0. -1.
    9000005    1    3    3    0    0 -0.19965929769E+03  0.12433662476E+03 -0.18086102854E+03  0.29670716718E+03  0.10000000000E+01 0.  0.
    9000005    1    3    3    0    0 -0.13188911245E+02  0.61963309850E+02 -0.37790223425E+01  0.63471884777E+02  0.10000000000E+01 0.  0.
<mgrwt>
<rscale>  0 0.30597021E+03</rscale>
<asrwt>0</asrwt>
<pdfrwt beam="2">  1        1 0.10169461E+00 0.30925233E+03</pdfrwt>
<pdfrwt beam="1">  1       -1 0.22194068E-01 0.30925233E+03</pdfrwt>
<totfact> 0.52203593E+02</totfact>
</mgrwt>
</event>
<event>
 8    3  0.1508318E-003  0.1551869E+03  0.7818608E-02  0.1203240E+00
          1   -1    0    0  501    0  0.00000000000E+00  0.00000000000E+00  0.15512087221E+03  0.15512087229E+03  0.50400000000E-02 0. -1.
         -1   -1    0    0    0  501 -0.00000000000E+00 -0.00000000000E+00 -0.12067951602E+04  0.12067951602E+04  0.50400000000E-02 0.  1.
         25    2    1    2    0    0  0.17828035602E+02  0.90220308561E+02 -0.11745662200E+04  0.11847737204E+04  0.12500168224E+03 0.  0.
         23    2    1    2    0    0 -0.17828035602E+02 -0.90220308561E+02  0.12289193199E+03  0.17714231206E+03  0.88427534424E+02 0.  0.
        -13    1    4    4    0    0 -0.20240626830E+02 -0.31883683432E+02  0.11141066868E+03  0.11763758117E+03  0.10566000000E+00 0. -1.
         13    1    4    4    0    0  0.24125912282E+01 -0.58336625129E+02  0.11481263317E+02  0.59504730898E+02  0.10566000000E+00 0.  1.
    9000005    1    3    3    0    0  0.66212797074E+02  0.77191227284E+02 -0.66255182431E+03  0.67031227049E+03  0.10000000000E+01 0.  0.
    9000005    1    3    3    0    0 -0.48384761472E+02  0.13029081277E+02 -0.51201439566E+03  0.51446144993E+03  0.10000000000E+01 0.  0.
<mgrwt>
<rscale>  0 0.14777056E+03</rscale>
<asrwt>0</asrwt>
<pdfrwt beam="1">  1        1 0.23864750E-01 0.15518687E+03</pdfrwt>
<pdfrwt beam="2">  1       -1 0.18566079E+00 0.15518687E+03</pdfrwt>
<totfact> 0.44110256E+01</totfact>
</mgrwt>
</event>
<event>
 8    3  0.1508318E-003  0.1384245E+03  0.7818608E-02  0.1226071E+00
          1   -1    0    0  501    0  0.00000000000E+00  0.00000000000E+00  0.10574511155E+04  0.10574511155E+04  0.50400000000E-02 0. -1.
         -1   -1    0    0    0  501 -0.00000000000E+00 -0.00000000000E+00 -0.14916948632E+02  0.14916949484E+02  0.50400000000E-02 0.  1.
         25    2    1    2    0    0  0.59192209217E+02  0.57166870467E+01  0.51194754342E+03  0.53033162051E+03  0.12499976946E+03 0.  0.
         23    2    1    2    0    0 -0.59192209217E+02 -0.57166870467E+01  0.53058662347E+03  0.54203644450E+03  0.93514405399E+02 0.  0.
        -13    1    4    4    0    0 -0.35646272223E+02  0.24010482978E+02  0.45915804361E+03  0.46116513333E+03  0.10566000000E+00 0. -1.
         13    1    4    4    0    0 -0.23545936994E+02 -0.29727170025E+02  0.71428579857E+02  0.80871311174E+02  0.10566000000E+00 0.  1.
    9000005    1    3    3    0    0  0.38377472526E+02  0.53083982294E+02  0.41775075984E+03  0.42285628400E+03  0.10000000000E+01 0.  0.
    9000005    1    3    3    0    0  0.20814736691E+02 -0.47367295247E+02  0.94196783578E+02  0.10747533652E+03  0.10000000000E+01 0.  0.
<mgrwt>
<rscale>  0 0.13093792E+03</rscale>
<asrwt>0</asrwt>
<pdfrwt beam="1">  1        1 0.16268479E+00 0.13842449E+03</pdfrwt>
<pdfrwt beam="2">  1       -1 0.22949153E-02 0.13842449E+03</pdfrwt>
<totfact> 0.78792182E+03</totfact>
</mgrwt>
</event>
<event>
 8    3  0.1508318E-003  0.1268912E+03  0.7818608E-02  0.1247950E+00
          1   -1    0    0  501    0  0.00000000000E+00  0.00000000000E+00  0.25749340713E+03  0.25749340718E+03  0.50400000000E-02 0. -1.
         -1   -1    0    0    0  501 -0.00000000000E+00 -0.00000000000E+00 -0.46633513613E+02  0.46633513885E+02  0.50400000000E-02 0.  1.
         25    2    1    2    0    0 -0.19356196270E+01  0.21739281237E+02  0.12891427359E+03  0.18088746983E+03  0.12500017534E+03 0.  0.
         23    2    1    2    0    0  0.19356196270E+01 -0.21739281237E+02  0.81945619935E+02  0.12323945124E+03  0.89423345622E+02 0.  0.
        -13    1    4    4    0    0 -0.49613906205E+01 -0.82255709694E+00  0.96634821606E+02  0.96765654589E+02  0.10566000000E+00 0. -1.
         13    1    4    4    0    0  0.68970102475E+01 -0.20916724140E+02 -0.14689201672E+02  0.26473796646E+02  0.10566000000E+00 0.  1.
    9000005    1    3    3    0    0 -0.12775437547E+02  0.39180825861E+02 -0.83766394616E+01  0.42065627398E+02  0.10000000000E+01 0.  0.
    9000005    1    3    3    0    0  0.10839817920E+02 -0.17441544625E+02  0.13729091305E+03  0.13882184243E+03  0.10000000000E+01 0.  0.
<mgrwt>
<rscale>  0 0.11710558E+03</rscale>
<asrwt>0</asrwt>
<pdfrwt beam="1">  1        1 0.39614370E-01 0.12689124E+03</pdfrwt>
<pdfrwt beam="2">  1       -1 0.71743867E-02 0.12689124E+03</pdfrwt>
<totfact> 0.10165031E+04</totfact>
</mgrwt>
</event>
<event>
 8    3  0.1508318E-003  0.2081674E+03  0.7818608E-02  0.1148959E+00
          1   -1    0    0  501    0  0.00000000000E+00  0.00000000000E+00  0.41334670278E+03  0.41334670281E+03  0.50400000000E-02 0. -1.
         -1   -1    0    0    0  501 -0.00000000000E+00 -0.00000000000E+00 -0.10255604989E+03  0.10255605002E+03  0.50400000000E-02 0.  1.
         25    2    1    2    0    0  0.11305958377E+03 -0.12220496704E+03  0.80498581907E+02  0.22318977291E+03  0.12496851440E+03 0.  0.
         23    2    1    2    0    0 -0.11305958377E+03  0.12220496704E+03  0.23029207098E+03  0.29271297992E+03  0.70213440317E+02 0.  0.
        -13    1    4    4    0    0 -0.16333891754E+02  0.65146132040E+02  0.70138122815E+02  0.97109124060E+02  0.10566000000E+00 0.  1.
         13    1    4    4    0    0 -0.96725692015E+02  0.57058835002E+02  0.16015394817E+03  0.19560385586E+03  0.10566000000E+00 0. -1.
    9000005    1    3    3    0    0  0.52256314866E+02 -0.12788096892E+03  0.24454558596E+02  0.14029714926E+03  0.10000000000E+01 0.  0.
    9000005    1    3    3    0    0  0.60803268903E+02  0.56760018765E+01  0.56044023311E+02  0.82892623649E+02  0.10000000000E+01 0.  0.
<mgrwt>
<rscale>  0 0.20092732E+03</rscale>
<asrwt>0</asrwt>
<pdfrwt beam="1">  1        1 0.63591802E-01 0.20816737E+03</pdfrwt>
<pdfrwt beam="2">  1       -1 0.15777853E-01 0.20816737E+03</pdfrwt>
<totfact> 0.17100966E+03</totfact>
</mgrwt>
</event>
<event>
 8    3  0.1508318E-003  0.3081761E+03  0.7818608E-02  0.1082571E+00
          1   -1    0    0  501    0  0.00000000000E+00  0.00000000000E+00  0.97411922160E+02  0.97411922291E+02  0.50400000000E-02 0. -1.
         -1   -1    0    0    0  501 -0.00000000000E+00 -0.00000000000E+00 -0.94906628623E+03  0.94906628625E+03  0.50400000000E-02 0.  1.
         25    2    1    2    0    0  0.27666066980E+03  0.52968935966E+02 -0.38411699499E+03  0.49246153342E+03  0.12500264666E+03 0.  0.
         23    2    1    2    0    0 -0.27666066980E+03 -0.52968935966E+02 -0.46753736909E+03  0.55401667511E+03  0.94849620038E+02 0.  0.
        -13    1    4    4    0    0 -0.94812135045E+02  0.22602692729E+02 -0.19223021925E+03  0.21552886356E+03  0.10566000000E+00 0. -1.
         13    1    4    4    0    0 -0.18184853475E+03 -0.75571628695E+02 -0.27530714984E+03  0.33848781155E+03  0.10566000000E+00 0.  1.
    9000005    1    3    3    0    0  0.26106691956E+03  0.34087544567E+02 -0.38669670820E+03  0.46781752994E+03  0.10000000000E+01 0.  0.
    9000005    1    3    3    0    0  0.15593750240E+02  0.18881391398E+02  0.25797132119E+01  0.24644003488E+02  0.10000000000E+01 0.  0.
<mgrwt>
<rscale>  0 0.30540130E+03</rscale>
<asrwt>0</asrwt>
<pdfrwt beam="1">  1        1 0.14986450E-01 0.30817608E+03</pdfrwt>
<pdfrwt beam="2">  1       -1 0.14601019E+00 0.30817608E+03</pdfrwt>
<totfact> 0.15132315E+02</totfact>
</mgrwt>
</event>
<event>
 8    3  0.1508318E-003  0.1312037E+03  0.7818608E-02  0.1239279E+00
         -1   -1    0    0    0  501 -0.00000000000E+00  0.00000000000E+00  0.25365299592E+03  0.25365299597E+03  0.50400000000E-02 0.  1.
          1   -1    0    0  501    0  0.00000000000E+00 -0.00000000000E+00 -0.56533813339E+02  0.56533813563E+02  0.50400000000E-02 0. -1.
         25    2    1    2    0    0 -0.11809831165E+02 -0.38097080691E+02  0.69268641143E+02  0.14836626574E+03  0.12499417784E+03 0.  0.
         23    2    1    2    0    0  0.11809831165E+02  0.38097080691E+02  0.12785054144E+03  0.16182054380E+03  0.90825479793E+02 0.  0.
        -13    1    4    4    0    0  0.81018546745E+01  0.32293444386E+02 -0.48732444474E+00  0.33297976644E+02  0.10566000000E+00 0. -1.
         13    1    4    4    0    0  0.37079764907E+01  0.58036363057E+01  0.12833786589E+03  0.12852256716E+03  0.10566000000E+00 0.  1.
    9000005    1    3    3    0    0 -0.66082981544E+02 -0.75428347495E+01  0.21632997372E+02  0.69948848318E+02  0.10000000000E+01 0.  0.
    9000005    1    3    3    0    0  0.54273150378E+02 -0.30554245942E+02  0.47635643771E+02  0.78417417418E+02  0.10000000000E+01 0.  0.
<mgrwt>
<rscale>  0 0.12234454E+03</rscale>
<asrwt>0</asrwt>
<pdfrwt beam="2">  1        1 0.86975099E-02 0.13120367E+03</pdfrwt>
<pdfrwt beam="1">  1       -1 0.39023537E-01 0.13120367E+03</pdfrwt>
<totfact> 0.47678872E+03</totfact>
</mgrwt>
</event>
<event>
 8    3  0.1508318E-003  0.2067129E+03  0.7818608E-02  0.1148154E+00
         -1   -1    0    0    0  501 -0.00000000000E+00  0.00000000000E+00  0.16660267940E+03  0.16660267948E+03  0.50400000000E-02 0.  1.
          1   -1    0    0  501    0  0.00000000000E+00 -0.00000000000E+00 -0.23467487197E+03  0.23467487202E+03  0.50400000000E-02 0. -1.
         25    2    1    2    0    0  0.14275825965E+03 -0.82008196287E+02 -0.47237385585E+02  0.21204150701E+03  0.12499986058E+03 0.  0.
         23    2    1    2    0    0 -0.14275825965E+03  0.82008196287E+02 -0.20834806982E+02  0.18923604449E+03  0.90944633687E+02 0.  0.
        -13    1    4    4    0    0  0.39640953107E+01  0.13722839950E+02  0.17830744462E+02  0.22846815971E+02  0.10566000000E+00 0.  1.
         13    1    4    4    0    0 -0.14672235496E+03  0.68285356337E+02 -0.38665551444E+02  0.16638922852E+03  0.10566000000E+00 0. -1.
    9000005    1    3    3    0    0  0.10716983445E+03 -0.11568550307E+03 -0.36671693830E+02  0.16190837583E+03  0.10000000000E+01 0.  0.
    9000005    1    3    3    0    0  0.35588425192E+02  0.33677306781E+02 -0.10565691755E+02  0.50133131180E+02  0.10000000000E+01 0.  0.
<mgrwt>
<rscale>  0 0.20188990E+03</rscale>
<asrwt>0</asrwt>
<pdfrwt beam="2">  1        1 0.36103826E-01 0.20671292E+03</pdfrwt>
<pdfrwt beam="1">  1       -1 0.25631182E-01 0.20671292E+03</pdfrwt>
<totfact> 0.15865373E+03</totfact>
</mgrwt>
</event>
<event>
 8    3  0.1508318E-003  0.1515689E+03  0.7818608E-02  0.1207494E+00
          1   -1    0    0  501    0  0.00000000000E+00  0.00000000000E+00  0.90046320520E+02  0.90046320661E+02  0.50400000000E-02 0. -1.
         -1   -1    0    0    0  501 -0.00000000000E+00 -0.00000000000E+00 -0.23294308493E+03  0.23294308498E+03  0.50400000000E-02 0.  1.
         25    2    1    2    0    0 -0.41250501865E+02  0.75144137804E+02 -0.29838165694E+02  0.15447795844E+03  0.12499951265E+03 0.  0.
         23    2    1    2    0    0  0.41250501865E+02 -0.75144137804E+02 -0.11305859871E+03  0.16851144720E+03  0.90915431822E+02 0.  0.
        -13    1    4    4    0    0 -0.13572266831E+02  0.12012689237E+02 -0.34600968842E+02  0.39060841497E+02  0.10566000000E+00 0.  1.
         13    1    4    4    0    0  0.54822768696E+02 -0.87156827041E+02 -0.78457629869E+02  0.12945060570E+03  0.10566000000E+00 0. -1.
    9000005    1    3    3    0    0  0.12000445349E+02  0.93081660323E+02 -0.29129200767E+02  0.98273681698E+02  0.10000000000E+01 0.  0.
    9000005    1    3    3    0    0 -0.53250947214E+02 -0.17937522519E+02 -0.70896492729E+00  0.56204276747E+02  0.10000000000E+01 0.  0.
<mgrwt>
<rscale>  0 0.14442631E+03</rscale>
<asrwt>0</asrwt>
<pdfrwt beam="1">  1        1 0.13853280E-01 0.15156887E+03</pdfrwt>
<pdfrwt beam="2">  1       -1 0.35837397E-01 0.15156887E+03</pdfrwt>
<totfact> 0.30144856E+03</totfact>
</mgrwt>
</event>
<event>
 8    3  0.1508318E-003  0.1555402E+03  0.7818608E-02  0.1202162E+00
          1   -1    0    0  501    0  0.00000000000E+00  0.00000000000E+00  0.19153685687E+03  0.19153685693E+03  0.50400000000E-02 0. -1.
         -1   -1    0    0    0  501 -0.00000000000E+00 -0.00000000000E+00 -0.11262478807E+03  0.11262478818E+03  0.50400000000E-02 0.  1.
         25    2    1    2    0    0  0.48710471803E+02 -0.78707957858E+02  0.79020259937E+02  0.17446187231E+03  0.12500036286E+03 0.  0.
         23    2    1    2    0    0 -0.48710471803E+02  0.78707957858E+02 -0.10819113650E+00  0.12969977281E+03  0.90853545158E+02 0.  0.
        -13    1    4    4    0    0  0.26099224629E+02  0.31489398351E+02  0.42996866070E+01  0.41124812507E+02  0.10566000000E+00 0.  1.
         13    1    4    4    0    0 -0.74809696432E+02  0.47218559507E+02 -0.44078777435E+01  0.88574960301E+02  0.10566000000E+00 0. -1.
    9000005    1    3    3    0    0  0.17558949526E+02  0.23295535216E+02  0.59160976260E+02  0.65969839938E+02  0.10000000000E+01 0.  0.
    9000005    1    3    3    0    0  0.31151522277E+02 -0.10200349307E+03  0.19859283677E+02  0.10849203237E+03  0.10000000000E+01 0.  0.
<mgrwt>
<rscale>  0 0.14863349E+03</rscale>
<asrwt>0</asrwt>
<pdfrwt beam="1">  1        1 0.29467208E-01 0.15554017E+03</pdfrwt>
<pdfrwt beam="2">  1       -1 0.17326891E-01 0.15554017E+03</pdfrwt>
<totfact> 0.38258189E+03</totfact>
</mgrwt>
</event>
<event>
 8    3  0.1508318E-003  0.1428655E+03  0.7818608E-02  0.1219659E+00
          1   -1    0    0  501    0  0.00000000000E+00  0.00000000000E+00  0.87042156834E+03  0.87042156836E+03  0.50400000000E-02 0. -1.
         -1   -1    0    0    0  501 -0.00000000000E+00 -0.00000000000E+00 -0.23987255695E+02  0.23987256225E+02  0.50400000000E-02 0.  1.
         25    2    1    2    0    0  0.67504358089E+02  0.15143666260E+02  0.25914368153E+03  0.29591552738E+03  0.12499753069E+03 0.  0.
         23    2    1    2    0    0 -0.67504358089E+02 -0.15143666260E+02  0.58729063112E+03  0.59849329721E+03  0.92183362975E+02 0.  0.
        -13    1    4    4    0    0 -0.38812185377E+02 -0.17671275941E+02  0.82399102800E+02  0.92780833330E+02  0.10566000000E+00 0.  1.
         13    1    4    4    0    0 -0.28692172713E+02  0.25276096805E+01  0.50489152832E+03  0.50571246388E+03  0.10566000000E+00 0. -1.
    9000005    1    3    3    0    0 -0.27122587282E+02 -0.30085625084E+01  0.10504399312E+02  0.29257966336E+02  0.10000000000E+01 0.  0.
    9000005    1    3    3    0    0  0.94626945371E+02  0.18152228769E+02  0.24863928222E+03  0.26665756104E+03  0.10000000000E+01 0.  0.
<mgrwt>
<rscale>  0 0.13539773E+03</rscale>
<asrwt>0</asrwt>
<pdfrwt beam="1">  1        1 0.13391099E+00 0.14286550E+03</pdfrwt>
<pdfrwt beam="2">  1       -1 0.36903476E-02 0.14286550E+03</pdfrwt>
<totfact> 0.54478197E+03</totfact>
</mgrwt>
</event>
<event>
 8    3  0.1508318E-003  0.1326239E+03  0.7818608E-02  0.1237323E+00
          1   -1    0    0  501    0  0.00000000000E+00  0.00000000000E+00  0.24715380706E+03  0.24715380711E+03  0.50400000000E-02 0. -1.
         -1   -1    0    0    0  501 -0.00000000000E+00 -0.00000000000E+00 -0.63348263364E+02  0.63348263565E+02  0.50400000000E-02 0.  1.
         25    2    1    2    0    0 -0.40089965806E+02  0.18888044237E+02  0.46224008539E+02  0.14044840019E+03  0.12500052231E+03 0.  0.
         23    2    1    2    0    0  0.40089965806E+02 -0.18888044237E+02  0.13758153516E+03  0.17005367049E+03  0.89585760346E+02 0.  0.
        -13    1    4    4    0    0 -0.17647748002E+02  0.93406118639E+01  0.84114531054E+02  0.86452041838E+02  0.10566000000E+00 0. -1.
         13    1    4    4    0    0  0.57737713808E+02 -0.28228656101E+02  0.53467004103E+02  0.83601628650E+02  0.10566000000E+00 0.  1.
    9000005    1    3    3    0    0 -0.16300075069E+01 -0.30665691856E+02 -0.29170132756E+02  0.42366711302E+02  0.10000000000E+01 0.  0.
    9000005    1    3    3    0    0 -0.38459958299E+02  0.49553736093E+02  0.75394141295E+02  0.98081688887E+02  0.10000000000E+01 0.  0.
<mgrwt>
<rscale>  0 0.12356904E+03</rscale>
<asrwt>0</asrwt>
<pdfrwt beam="1">  1        1 0.38023662E-01 0.13262388E+03</pdfrwt>
<pdfrwt beam="2">  1       -1 0.97458868E-02 0.13262388E+03</pdfrwt>
<totfact> 0.67545857E+03</totfact>
</mgrwt>
</event>
<event>
 8    3  0.1508318E-003  0.1818349E+03  0.7818608E-02  0.1171431E+00
          1   -1    0    0  501    0  0.00000000000E+00  0.00000000000E+00  0.77693967752E+03  0.77693967754E+03  0.50400000000E-02 0. -1.
         -1   -1    0    0    0  501 -0.00000000000E+00 -0.00000000000E+00 -0.45019356572E+02  0.45019356854E+02  0.50400000000E-02 0.  1.
         25    2    1    2    0    0 -0.45858560630E+02  0.12383925054E+03  0.22004666885E+03  0.28545482258E+03  0.12499900682E+03 0.  0.
         23    2    1    2    0    0  0.45858560630E+02 -0.12383925054E+03  0.51187365210E+03  0.53650421181E+03  0.91558538738E+02 0.  0.
        -13    1    4    4    0    0  0.10565160844E+02 -0.10696606624E+03  0.45467629801E+03  0.46720863550E+03  0.10566000000E+00 0. -1.
         13    1    4    4    0    0  0.35293399786E+02 -0.16873184300E+02  0.57197354096E+02  0.69295576313E+02  0.10566000000E+00 0.  1.
    9000005    1    3    3    0    0 -0.63375822313E+02  0.45664598559E+02  0.17927836569E+03  0.19555940995E+03  0.10000000000E+01 0.  0.
    9000005    1    3    3    0    0  0.17517261683E+02  0.78174651984E+02  0.40768303155E+02  0.89895412629E+02  0.10000000000E+01 0.  0.
<mgrwt>
<rscale>  0 0.17630186E+03</rscale>
<asrwt>0</asrwt>
<pdfrwt beam="1">  1        1 0.11952918E+00 0.18183487E+03</pdfrwt>
<pdfrwt beam="2">  1       -1 0.69260548E-02 0.18183487E+03</pdfrwt>
<totfact> 0.25640204E+03</totfact>
</mgrwt>
</event>
<event>
 8    3  0.1508318E-003  0.1616616E+03  0.7818608E-02  0.1194461E+00
          1   -1    0    0  501    0  0.00000000000E+00  0.00000000000E+00  0.66522922297E+03  0.66522922299E+03  0.50400000000E-02 0. -1.
         -1   -1    0    0    0  501 -0.00000000000E+00 -0.00000000000E+00 -0.33790687655E+02  0.33790688031E+02  0.50400000000E-02 0.  1.
         25    2    1    2    0    0  0.23210456428E+02  0.99863388898E+02  0.30622814468E+03  0.34628045062E+03  0.12499220840E+03 0.  0.
         23    2    1    2    0    0 -0.23210456428E+02 -0.99863388898E+02  0.32521039064E+03  0.35273946040E+03  0.90287911782E+02 0.  0.
        -13    1    4    4    0    0  0.13411691766E+02 -0.18079560214E+02  0.18483685523E+03  0.18620262669E+03  0.10566000000E+00 0. -1.
         13    1    4    4    0    0 -0.36622148194E+02 -0.81783828684E+02  0.14037353541E+03  0.16653683370E+03  0.10566000000E+00 0.  1.
    9000005    1    3    3    0    0  0.31041358652E+02  0.81663389296E+02  0.31327300021E+03  0.32522830098E+03  0.10000000000E+01 0.  0.
    9000005    1    3    3    0    0 -0.78309022240E+01  0.18199999602E+02 -0.70448555298E+01  0.21052149643E+02  0.10000000000E+01 0.  0.
<mgrwt>
<rscale>  0 0.15499897E+03</rscale>
<asrwt>0</asrwt>
<pdfrwt beam="1">  1        1 0.10234296E+00 0.16166160E+03</pdfrwt>
<pdfrwt beam="2">  1       -1 0.51985673E-02 0.16166160E+03</pdfrwt>
<totfact> 0.49223179E+03</totfact>
</mgrwt>
</event>
<event>
 8    3  0.1508318E-003  0.2151628E+03  0.7818608E-02  0.1141093E+00
         -1   -1    0    0    0  501 -0.00000000000E+00  0.00000000000E+00  0.25091231104E+02  0.25091231610E+02  0.50400000000E-02 0. -1.
          1   -1    0    0  501    0  0.00000000000E+00 -0.00000000000E+00 -0.21301696940E+04  0.21301696940E+04  0.50400000000E-02 0.  1.
         25    2    1    2    0    0 -0.67387337849E+02  0.16165228984E+03 -0.60260750028E+03  0.63986782028E+03  0.12499004733E+03 0.  0.
         23    2    1    2    0    0  0.67387337849E+02 -0.16165228984E+03 -0.15024709626E+04  0.15153931053E+04  0.91240090256E+02 0.  0.
        -13    1    4    4    0    0  0.42071897111E+02 -0.99621977788E+02 -0.12324212938E+04  0.12371567562E+04  0.10566000000E+00 0.  1.
         13    1    4    4    0    0  0.25315440738E+02 -0.62030312048E+02 -0.27004966880E+03  0.27823634905E+03  0.10566000000E+00 0. -1.
    9000005    1    3    3    0    0  0.21045555490E+02  0.11039492341E+03 -0.33847482363E+03  0.35664570760E+03  0.10000000000E+01 0.  0.
    9000005    1    3    3    0    0 -0.88432893339E+02  0.51257366425E+02 -0.26413267665E+03  0.28322211268E+03  0.10000000000E+01 0.  0.
<mgrwt>
<rscale>  0 0.21059820E+03</rscale>
<asrwt>0</asrwt>
<pdfrwt beam="2">  1        1 0.32771827E+00 0.21516279E+03</pdfrwt>
<pdfrwt beam="1">  1       -1 0.38601911E-02 0.21516279E+03</pdfrwt>
<totfact> 0.72509565E+02</totfact>
</mgrwt>
</event>
<event>
 8    3  0.1508318E-003  0.1339939E+03  0.7818608E-02  0.1233944E+00
          1   -1    0    0  501    0  0.00000000000E+00  0.00000000000E+00  0.50975637105E+03  0.50975637108E+03  0.50400000000E-02 0. -1.
         -1   -1    0    0    0  501 -0.00000000000E+00 -0.00000000000E+00 -0.38459010926E+02  0.38459011256E+02  0.50400000000E-02 0.  1.
         25    2    1    2    0    0  0.33204467445E+02 -0.35022352937E+02  0.11334577205E+03  0.17550390902E+03  0.12500102470E+03 0.  0.
         23    2    1    2    0    0 -0.33204467445E+02  0.35022352937E+02  0.35795158807E+03  0.37271147331E+03  0.91953254801E+02 0.  0.
        -13    1    4    4    0    0  0.18907476471E+02 -0.48977964495E+00  0.15363233868E+02  0.24367451026E+02  0.10566000000E+00 0.  1.
         13    1    4    4    0    0 -0.52111943916E+02  0.35512132582E+02  0.34258835420E+03  0.34834402228E+03  0.10566000000E+00 0. -1.
    9000005    1    3    3    0    0  0.34801812860E+02 -0.16238835939E+02 -0.18270781308E+02  0.42540421021E+02  0.10000000000E+01 0.  0.
    9000005    1    3    3    0    0 -0.15973454152E+01 -0.18783516998E+02  0.13161655336E+03  0.13296348800E+03  0.10000000000E+01 0.  0.
<mgrwt>
<rscale>  0 0.12572271E+03</rscale>
<asrwt>0</asrwt>
<pdfrwt beam="1">  1        1 0.78424057E-01 0.13399387E+03</pdfrwt>
<pdfrwt beam="2">  1       -1 0.59167709E-02 0.13399387E+03</pdfrwt>
<totfact> 0.57719281E+03</totfact>
</mgrwt>
</event>
<event>
 8    3  0.1508318E-003  0.1459132E+03  0.7818608E-02  0.1215236E+00
          1   -1    0    0  501    0  0.00000000000E+00  0.00000000000E+00  0.38064821531E+04  0.38064821531E+04  0.50400000000E-02 0. -1.
         -1   -1    0    0    0  501 -0.00000000000E+00 -0.00000000000E+00 -0.63761961177E+01  0.63761981096E+01  0.50400000000E-02 0.  1.
         25    2    1    2    0    0 -0.38252955663E+02 -0.64840695788E+02  0.30428295111E+04  0.30463259979E+04  0.12499219027E+03 0.  0.
         23    2    1    2    0    0  0.38252955663E+02  0.64840695788E+02  0.75727644585E+03  0.76653235324E+03  0.91851122394E+02 0.  0.
        -13    1    4    4    0    0  0.33770623052E+02  0.20355648821E+02  0.63692335433E+03  0.63814275666E+03  0.10566000000E+00 0. -1.
         13    1    4    4    0    0  0.44823326102E+01  0.44485046967E+02  0.12035309152E+03  0.12838959659E+03  0.10566000000E+00 0.  1.
    9000005    1    3    3    0    0  0.17045413157E+02  0.50751620356E+01  0.72401654966E+02  0.74560733775E+02  0.10000000000E+01 0.  0.
    9000005    1    3    3    0    0 -0.55298368819E+02 -0.69915857823E+02  0.29704278561E+04  0.29717652642E+04  0.10000000000E+01 0.  0.
<mgrwt>
<rscale>  0 0.13859244E+03</rscale>
<asrwt>0</asrwt>
<pdfrwt beam="1">  1        1 0.58561489E+00 0.14591317E+03</pdfrwt>
<pdfrwt beam="2">  1       -1 0.98094963E-03 0.14591317E+03</pdfrwt>
<totfact> 0.36288189E+02</totfact>
</mgrwt>
</event>
<event>
 8    3  0.1508318E-003  0.1666132E+03  0.7818608E-02  0.1186904E+00
          1   -1    0    0  501    0  0.00000000000E+00  0.00000000000E+00  0.39543238174E+02  0.39543238496E+02  0.50400000000E-02 0. -1.
         -1   -1    0    0    0  501 -0.00000000000E+00 -0.00000000000E+00 -0.63068966194E+03  0.63068966196E+03  0.50400000000E-02 0.  1.
         25    2    1    2    0    0  0.53460801739E+02  0.96317681278E+02 -0.34898742330E+03  0.38671978823E+03  0.12499927976E+03 0.  0.
         23    2    1    2    0    0 -0.53460801739E+02 -0.96317681278E+02 -0.24215900046E+03  0.28351311222E+03  0.97997705307E+02 0.  0.
        -13    1    4    4    0    0 -0.17014048246E+02  0.20677647158E+01  0.24861783651E+01  0.17318941525E+02  0.10566000000E+00 0. -1.
         13    1    4    4    0    0 -0.36446753493E+02 -0.98385445994E+02 -0.24464517883E+03  0.26619417069E+03  0.10566000000E+00 0.  1.
    9000005    1    3    3    0    0  0.79107532359E+02  0.18901123282E+02 -0.21485983532E+03  0.22974116517E+03  0.10000000000E+01 0.  0.
    9000005    1    3    3    0    0 -0.25646730620E+02  0.77416557997E+02 -0.13412758798E+03  0.15697862307E+03  0.10000000000E+01 0.  0.
<mgrwt>
<rscale>  0 0.16159813E+03</rscale>
<asrwt>0</asrwt>
<pdfrwt beam="1">  1        1 0.60835756E-02 0.16661324E+03</pdfrwt>
<pdfrwt beam="2">  1       -1 0.97029171E-01 0.16661324E+03</pdfrwt>
<totfact> 0.13464169E+03</totfact>
</mgrwt>
</event>
<event>
 8    3  0.1508318E-003  0.1554142E+03  0.7818608E-02  0.1202701E+00
         -1   -1    0    0    0  501 -0.00000000000E+00  0.00000000000E+00  0.24333997660E+03  0.24333997665E+03  0.50400000000E-02 0.  1.
          1   -1    0    0  501    0  0.00000000000E+00 -0.00000000000E+00 -0.84344118190E+02  0.84344118341E+02  0.50400000000E-02 0. -1.
         25    2    1    2    0    0 -0.90838349094E+02  0.16677086814E+02  0.10883532100E+03  0.18973323376E+03  0.12499536794E+03 0.  0.
         23    2    1    2    0    0  0.90838349094E+02 -0.16677086814E+02  0.50160537409E+02  0.13795086123E+03  0.89356755255E+02 0.  0.
        -13    1    4    4    0    0 -0.18502669050E+01  0.26163937254E+02  0.13138165803E+02  0.29335944930E+02  0.10566000000E+00 0.  1.
         13    1    4    4    0    0  0.92688615999E+02 -0.42841024068E+02  0.37022371607E+02  0.10861491630E+03  0.10566000000E+00 0. -1.
    9000005    1    3    3    0    0  0.22101002088E+02  0.27484254734E+02  0.44532539034E+01  0.35562199340E+02  0.10000000000E+01 0.  0.
    9000005    1    3    3    0    0 -0.11293935118E+03 -0.10807167920E+02  0.10438206710E+03  0.15417103442E+03  0.10000000000E+01 0.  0.
<mgrwt>
<rscale>  0 0.14820087E+03</rscale>
<asrwt>0</asrwt>
<pdfrwt beam="2">  1        1 0.12976019E-01 0.15541420E+03</pdfrwt>
<pdfrwt beam="1">  1       -1 0.37436919E-01 0.15541420E+03</pdfrwt>
<totfact> 0.30482485E+03</totfact>
</mgrwt>
</event>
<event>
 8    3  0.1508318E-003  0.1461011E+03  0.7818608E-02  0.1216511E+00
          1   -1    0    0  501    0  0.00000000000E+00  0.00000000000E+00  0.85626434356E+03  0.85626434358E+03  0.50400000000E-02 0. -1.
         -1   -1    0    0    0  501 -0.00000000000E+00 -0.00000000000E+00 -0.20496247721E+02  0.20496248341E+02  0.50400000000E-02 0.  1.
         25    2    1    2    0    0 -0.72020541992E+02  0.23096446879E+02  0.53850149963E+03  0.55796899985E+03  0.12500054145E+03 0.  0.
         23    2    1    2    0    0  0.72020541992E+02 -0.23096446879E+02  0.29726659622E+03  0.31879159207E+03  0.86834587709E+02 0.  0.
        -13    1    4    4    0    0  0.69041037264E+01 -0.12338992239E+02 -0.14971695357E+00  0.14140401583E+02  0.10566000000E+00 0.  1.
         13    1    4    4    0    0  0.65116438266E+02 -0.10757454640E+02  0.29741631317E+03  0.30465119049E+03  0.10566000000E+00 0. -1.
    9000005    1    3    3    0    0 -0.19830029636E+02  0.63247493786E+02  0.15098895161E+03  0.16490039131E+03  0.10000000000E+01 0.  0.
    9000005    1    3    3    0    0 -0.52190512356E+02 -0.40151046907E+02  0.38751254802E+03  0.39306860854E+03  0.10000000000E+01 0.  0.
<mgrwt>
<rscale>  0 0.13766096E+03</rscale>
<asrwt>0</asrwt>
<pdfrwt beam="1">  1        1 0.13173298E+00 0.14610113E+03</pdfrwt>
<pdfrwt beam="2">  1       -1 0.31532690E-02 0.14610113E+03</pdfrwt>
<totfact> 0.70435854E+03</totfact>
</mgrwt>
</event>
<event>
 8    3  0.1508318E-003  0.1297132E+03  0.7818608E-02  0.1241782E+00
         -1   -1    0    0    0  501 -0.00000000000E+00  0.00000000000E+00  0.73138095704E+02  0.73138095878E+02  0.50400000000E-02 0.  1.
          1   -1    0    0  501    0  0.00000000000E+00 -0.00000000000E+00 -0.18243163717E+03  0.18243163724E+03  0.50400000000E-02 0. -1.
         25    2    1    2    0    0  0.34468086438E+02 -0.35525658816E+01 -0.84795271878E+02  0.15497020072E+03  0.12499942109E+03 0.  0.
         23    2    1    2    0    0 -0.34468086438E+02  0.35525658816E+01 -0.24498269585E+02  0.10059953239E+03  0.91210914904E+02 0.  0.
        -13    1    4    4    0    0  0.21588789271E+02 -0.25183377079E+02 -0.45454896809E+00  0.33173725779E+02  0.10566000000E+00 0.  1.
         13    1    4    4    0    0 -0.56056875709E+02  0.28735942960E+02 -0.24043720617E+02  0.67425806612E+02  0.10566000000E+00 0. -1.
    9000005    1    3    3    0    0  0.14540061187E+02 -0.36231710288E+02  0.19656996334E+02  0.43721250149E+02  0.10000000000E+01 0.  0.
    9000005    1    3    3    0    0  0.19928025251E+02  0.32679144407E+02 -0.10445226821E+03  0.11124895058E+03  0.10000000000E+01 0.  0.
<mgrwt>
<rscale>  0 0.12080042E+03</rscale>
<asrwt>0</asrwt>
<pdfrwt beam="2">  1        1 0.28066406E-01 0.12971324E+03</pdfrwt>
<pdfrwt beam="1">  1       -1 0.11252015E-01 0.12971324E+03</pdfrwt>
<totfact> 0.78876968E+03</totfact>
</mgrwt>
</event>
<event>
 8    3  0.1508318E-003  0.1344978E+03  0.7818608E-02  0.1232447E+00
         -1   -1    0    0    0  501 -0.00000000000E+00  0.00000000000E+00  0.24872847802E+03  0.24872847807E+03  0.50400000000E-02 0.  1.
          1   -1    0    0  501    0  0.00000000000E+00 -0.00000000000E+00 -0.13713625689E+03  0.13713625698E+03  0.50400000000E-02 0. -1.
         25    2    1    2    0    0 -0.21590975465E+02 -0.44705050168E+02 -0.87435693641E+02  0.16042024664E+03  0.12499977311E+03 0.  0.
         23    2    1    2    0    0  0.21590975465E+02  0.44705050168E+02  0.19902791477E+03  0.22544448842E+03  0.93532853941E+02 0.  0.
        -13    1    4    4    0    0  0.23794777983E+02  0.53539235508E+02  0.20587650317E+03  0.21405089797E+03  0.10566000000E+00 0.  1.
         13    1    4    4    0    0 -0.22038025180E+01 -0.88341853397E+01 -0.68485884012E+01  0.11393590447E+02  0.10566000000E+00 0. -1.
    9000005    1    3    3    0    0 -0.27102725428E+02 -0.85066628912E+02 -0.39858679545E+02  0.97778338169E+02  0.10000000000E+01 0.  0.
    9000005    1    3    3    0    0  0.55117499632E+01  0.40361578744E+02 -0.47577014096E+02  0.62641908469E+02  0.10000000000E+01 0.  0.
<mgrwt>
<rscale>  0 0.12669285E+03</rscale>
<asrwt>0</asrwt>
<pdfrwt beam="2">  1        1 0.21097886E-01 0.13449779E+03</pdfrwt>
<pdfrwt beam="1">  1       -1 0.38265920E-01 0.13449779E+03</pdfrwt>
<totfact> 0.15591593E+03</totfact>
</mgrwt>
</event>
<event>
 8    3  0.1508318E-003  0.1310091E+03  0.7818608E-02  0.1242229E+00
          1   -1    0    0  501    0  0.00000000000E+00  0.00000000000E+00  0.69194547781E+03  0.69194547783E+03  0.50400000000E-02 0. -1.
         -1   -1    0    0    0  501 -0.00000000000E+00 -0.00000000000E+00 -0.21520235839E+02  0.21520236429E+02  0.50400000000E-02 0.  1.
         25    2    1    2    0    0  0.38501997541E+02  0.75463688796E+01  0.24517542978E+03  0.27798270040E+03  0.12499615536E+03 0.  0.
         23    2    1    2    0    0 -0.38501997541E+02 -0.75463688796E+01  0.42524981219E+03  0.43548301386E+03  0.85256677696E+02 0.  0.
        -13    1    4    4    0    0  0.71432127623E+01 -0.16827052453E+02  0.18266311931E+02  0.25842687523E+02  0.10566000000E+00 0.  1.
         13    1    4    4    0    0 -0.45645210304E+02  0.92806835733E+01  0.40698350026E+03  0.40964032633E+03  0.10566000000E+00 0. -1.
    9000005    1    3    3    0    0 -0.35446043446E+02 -0.81730914151E+01  0.16002291095E+03  0.16410835886E+03  0.10000000000E+01 0.  0.
    9000005    1    3    3    0    0  0.73948040987E+02  0.15719460295E+02  0.85152518831E+02  0.11387434154E+03  0.10000000000E+01 0.  0.
<mgrwt>
<rscale>  0 0.12052750E+03</rscale>
<asrwt>0</asrwt>
<pdfrwt beam="1">  1        1 0.10645316E+00 0.13100912E+03</pdfrwt>
<pdfrwt beam="2">  1       -1 0.33108052E-02 0.13100912E+03</pdfrwt>
<totfact> 0.89468772E+03</totfact>
</mgrwt>
</event>
<event>
 8    3  0.1508318E-003  0.1561526E+03  0.7818608E-02  0.1200983E+00
         -1   -1    0    0    0  501 -0.00000000000E+00  0.00000000000E+00  0.69763054997E+02  0.69763055179E+02  0.50400000000E-02 0.  1.
          1   -1    0    0  501    0  0.00000000000E+00 -0.00000000000E+00 -0.29702951408E+03  0.29702951412E+03  0.50400000000E-02 0. -1.
         25    2    1    2    0    0  0.60903997059E+02  0.71057778837E+02 -0.11571338359E+03  0.19435333874E+03  0.12500051339E+03 0.  0.
         23    2    1    2    0    0 -0.60903997059E+02 -0.71057778837E+02 -0.11155307549E+03  0.17243923056E+03  0.92372586800E+02 0.  0.
        -13    1    4    4    0    0 -0.52976766945E+02 -0.49590594011E+00 -0.20115714944E+02  0.56669541293E+02  0.10566000000E+00 0.  1.
         13    1    4    4    0    0 -0.79272301141E+01 -0.70561872896E+02 -0.91437360549E+02  0.11576968926E+03  0.10566000000E+00 0. -1.
    9000005    1    3    3    0    0 -0.17181433000E+02  0.75934583773E+02 -0.60126468367E+02  0.98374055782E+02  0.10000000000E+01 0.  0.
    9000005    1    3    3    0    0  0.78085430059E+02 -0.48768049363E+01 -0.55586915223E+02  0.95979282962E+02  0.10000000000E+01 0.  0.
<mgrwt>
<rscale>  0 0.14958569E+03</rscale>
<asrwt>0</asrwt>
<pdfrwt beam="2">  1        1 0.45696848E-01 0.15615260E+03</pdfrwt>
<pdfrwt beam="1">  1       -1 0.10732778E-01 0.15615260E+03</pdfrwt>
<totfact> 0.46866240E+03</totfact>
</mgrwt>
</event>
<event>
 8    3  0.1508318E-003  0.1488807E+03  0.7818608E-02  0.1211263E+00
          1   -1    0    0  501    0  0.00000000000E+00  0.00000000000E+00  0.75953031819E+02  0.75953031986E+02  0.50400000000E-02 0. -1.
         -1   -1    0    0    0  501 -0.00000000000E+00 -0.00000000000E+00 -0.24541385839E+03  0.24541385845E+03  0.50400000000E-02 0.  1.
         25    2    1    2    0    0 -0.30661962112E+02 -0.74828230814E+02 -0.11483285633E+03  0.18802137173E+03  0.12500412507E+03 0.  0.
         23    2    1    2    0    0  0.30661962112E+02  0.74828230814E+02 -0.54627970241E+02  0.13334551870E+03  0.90870194114E+02 0.  0.
        -13    1    4    4    0    0  0.16972953743E+02  0.63364825310E+02 -0.79283815624E+02  0.10290343449E+03  0.10566000000E+00 0.  1.
         13    1    4    4    0    0  0.13689008368E+02  0.11463405504E+02  0.24655845383E+02  0.30442084216E+02  0.10566000000E+00 0. -1.
    9000005    1    3    3    0    0 -0.75670136914E+02 -0.66814323507E+02 -0.93360510603E+02  0.13750384862E+03  0.10000000000E+01 0.  0.
    9000005    1    3    3    0    0  0.45008174803E+02 -0.80139073075E+01 -0.21472345731E+02  0.50517523104E+02  0.10000000000E+01 0.  0.
<mgrwt>
<rscale>  0 0.14154670E+03</rscale>
<asrwt>0</asrwt>
<pdfrwt beam="1">  1        1 0.11685082E-01 0.14888066E+03</pdfrwt>
<pdfrwt beam="2">  1       -1 0.37755978E-01 0.14888066E+03</pdfrwt>
<totfact> 0.34394394E+03</totfact>
</mgrwt>
</event>
<event>
 8    3  0.1508318E-003  0.1448484E+03  0.7818608E-02  0.1217210E+00
          1   -1    0    0  501    0  0.00000000000E+00  0.00000000000E+00  0.83985428834E+03  0.83985428836E+03  0.50400000000E-02 0.  1.
         -1   -1    0    0    0  501 -0.00000000000E+00 -0.00000000000E+00 -0.20374682058E+02  0.20374682681E+02  0.50400000000E-02 0. -1.
         25    2    1    2    0    0  0.29848454656E+02 -0.66818132367E+02  0.47582615028E+03  0.49738475552E+03  0.12500190668E+03 0.  0.
         23    2    1    2    0    0 -0.29848454656E+02  0.66818132367E+02  0.34365345601E+03  0.36284421552E+03  0.90568393238E+02 0.  0.
        -13    1    4    4    0    0 -0.12209274844E+02  0.12443653890E+02  0.33241428450E+01  0.17747450635E+02  0.10566000000E+00 0. -1.
         13    1    4    4    0    0 -0.17639179812E+02  0.54374478478E+02  0.34032931316E+03  0.34509676489E+03  0.10566000000E+00 0.  1.
    9000005    1    3    3    0    0  0.47616512814E+02 -0.27777167682E+02  0.43392248499E+03  0.43741127822E+03  0.10000000000E+01 0.  0.
    9000005    1    3    3    0    0 -0.17768058158E+02 -0.39040964686E+02  0.41903665291E+02  0.59973477297E+02  0.10000000000E+01 0.  0.
<mgrwt>
<rscale>  0 0.13715471E+03</rscale>
<asrwt>0</asrwt>
<pdfrwt beam="1">  1        1 0.12920835E+00 0.14484844E+03</pdfrwt>
<pdfrwt beam="2">  1       -1 0.31345667E-02 0.14484844E+03</pdfrwt>
<totfact> 0.73183032E+03</totfact>
</mgrwt>
</event>
<event>
 8    3  0.1508318E-003  0.1263910E+03  0.7818608E-02  0.1247625E+00
         -1   -1    0    0    0  501 -0.00000000000E+00  0.00000000000E+00  0.10887560837E+03  0.10887560848E+03  0.50400000000E-02 0.  1.
          1   -1    0    0  501    0  0.00000000000E+00 -0.00000000000E+00 -0.14580328726E+03  0.14580328734E+03  0.50400000000E-02 0. -1.
         25    2    1    2    0    0  0.19090093284E+02  0.70683143808E+00 -0.81992814994E+02  0.15065691569E+03  0.12493899816E+03 0.  0.
         23    2    1    2    0    0 -0.19090093284E+02 -0.70683143808E+00  0.45065136104E+02  0.10402198014E+03  0.91786570842E+02 0.  0.
        -13    1    4    4    0    0 -0.23431984212E+02 -0.27961000725E+02 -0.13803396977E+02  0.39005389087E+02  0.10566000000E+00 0. -1.
         13    1    4    4    0    0  0.43418909285E+01  0.27254169287E+02  0.58868533081E+02  0.65016591048E+02  0.10566000000E+00 0.  1.
    9000005    1    3    3    0    0  0.96117558949E+01 -0.75224303749E+01  0.32884888860E+02  0.35091148819E+02  0.10000000000E+01 0.  0.
    9000005    1    3    3    0    0  0.94783373887E+01  0.82292618129E+01 -0.11487770385E+03  0.11556576687E+03  0.10000000000E+01 0.  0.
<mgrwt>
<rscale>  0 0.11729619E+03</rscale>
<asrwt>0</asrwt>
<pdfrwt beam="2">  1        1 0.22431275E-01 0.12639100E+03</pdfrwt>
<pdfrwt beam="1">  1       -1 0.16750093E-01 0.12639100E+03</pdfrwt>
<totfact> 0.56152068E+03</totfact>
</mgrwt>
</event>
<event>
 8    3  0.1508318E-003  0.1271109E+03  0.7818608E-02  0.1239711E+00
         -1   -1    0    0    0  501 -0.00000000000E+00  0.00000000000E+00  0.98128197258E+01  0.98128210201E+01  0.50400000000E-02 0.  1.
          1   -1    0    0  501    0  0.00000000000E+00 -0.00000000000E+00 -0.17595306143E+04  0.17595306143E+04  0.50400000000E-02 0. -1.
         25    2    1    2    0    0 -0.37925462387E+01  0.22755865238E+02 -0.13247237427E+04  0.13308080958E+04  0.12499992289E+03 0.  0.
         23    2    1    2    0    0  0.37925462387E+01 -0.22755865238E+02 -0.42499405193E+03  0.43853533952E+03  0.10564604595E+03 0.  0.
        -13    1    4    4    0    0  0.69392362461E+00 -0.39708907049E+02 -0.53439495826E+02  0.66581301483E+02  0.10566000000E+00 0.  1.
         13    1    4    4    0    0  0.30986226141E+01  0.16953041811E+02 -0.37155455610E+03  0.37195403804E+03  0.10566000000E+00 0. -1.
    9000005    1    3    3    0    0  0.37831422153E+02  0.46376432263E+02 -0.10669173848E+04  0.10685951975E+04  0.10000000000E+01 0.  0.
    9000005    1    3    3    0    0 -0.41623968391E+02 -0.23620567026E+02 -0.25780635782E+03  0.26221289836E+03  0.10000000000E+01 0.  0.
<mgrwt>
<rscale>  0 0.12207574E+03</rscale>
<asrwt>0</asrwt>
<pdfrwt beam="2">  1        1 0.27069677E+00 0.12711095E+03</pdfrwt>
<pdfrwt beam="1">  1       -1 0.15096661E-02 0.12711095E+03</pdfrwt>
<totfact> 0.49234179E+03</totfact>
</mgrwt>
</event>
<event>
 8    3  0.1508318E-003  0.1546533E+03  0.7818608E-02  0.1203411E+00
         -1   -1    0    0    0  501 -0.00000000000E+00  0.00000000000E+00  0.45207730043E+02  0.45207730324E+02  0.50400000000E-02 0.  1.
          1   -1    0    0  501    0  0.00000000000E+00 -0.00000000000E+00 -0.46129408686E+03  0.46129408688E+03  0.50400000000E-02 0. -1.
         25    2    1    2    0    0 -0.21270436871E+02 -0.88544966080E+02 -0.17654441547E+03  0.23470315140E+03  0.12499998457E+03 0.  0.
         23    2    1    2    0    0  0.21270436871E+02  0.88544966080E+02 -0.23954194134E+03  0.27179866580E+03  0.90562302132E+02 0.  0.
        -13    1    4    4    0    0 -0.14687279867E+02  0.27777085310E+02 -0.16933661067E+03  0.17222712195E+03  0.10566000000E+00 0. -1.
         13    1    4    4    0    0  0.35957716738E+02  0.60767880769E+02 -0.70205330672E+02  0.99571543851E+02  0.10566000000E+00 0.  1.
    9000005    1    3    3    0    0 -0.12796920915E+02 -0.78293097517E+02 -0.19580908566E+03  0.21127178782E+03  0.10000000000E+01 0.  0.
    9000005    1    3    3    0    0 -0.84735159556E+01 -0.10251868563E+02  0.19264670189E+02  0.23431363579E+02  0.10000000000E+01 0.  0.
<mgrwt>
<rscale>  0 0.14763376E+03</rscale>
<asrwt>0</asrwt>
<pdfrwt beam="2">  1        1 0.70968318E-01 0.15465329E+03</pdfrwt>
<pdfrwt beam="1">  1       -1 0.69550357E-02 0.15465329E+03</pdfrwt>
<totfact> 0.51996669E+03</totfact>
</mgrwt>
</event>
<event>
 8    3  0.1508318E-003  0.1960005E+03  0.7818608E-02  0.1158474E+00
          1   -1    0    0  501    0  0.00000000000E+00  0.00000000000E+00  0.75205402234E+03  0.75205402236E+03  0.50400000000E-02 0. -1.
         -1   -1    0    0    0  501 -0.00000000000E+00 -0.00000000000E+00 -0.47945459276E+02  0.47945459541E+02  0.50400000000E-02 0.  1.
         25    2    1    2    0    0  0.13287586247E+03 -0.71657969647E+02  0.27842321561E+03  0.34049327589E+03  0.12500129799E+03 0.  0.
         23    2    1    2    0    0 -0.13287586247E+03  0.71657969647E+02  0.42568534746E+03  0.45950620600E+03  0.84540397893E+02 0.  0.
        -13    1    4    4    0    0 -0.30643904749E+02  0.63133023770E+02  0.18544560871E+03  0.19827988436E+03  0.10566000000E+00 0. -1.
         13    1    4    4    0    0 -0.10223195772E+03  0.85249458764E+01  0.24023973875E+03  0.26122632164E+03  0.10566000000E+00 0.  1.
    9000005    1    3    3    0    0  0.92241371714E+02 -0.15517865156E+02  0.59505321396E+02  0.11086549539E+03  0.10000000000E+01 0.  0.
    9000005    1    3    3    0    0  0.40634490756E+02 -0.56140104491E+02  0.21891789421E+03  0.22962778050E+03  0.10000000000E+01 0.  0.
<mgrwt>
<rscale>  0 0.18998555E+03</rscale>
<asrwt>0</asrwt>
<pdfrwt beam="1">  1        1 0.11570061E+00 0.19600047E+03</pdfrwt>
<pdfrwt beam="2">  1       -1 0.73762250E-02 0.19600047E+03</pdfrwt>
<totfact> 0.24514015E+03</totfact>
</mgrwt>
</event>
<event>
 8    3  0.1508318E-003  0.2962118E+03  0.7818608E-02  0.1088792E+00
          1   -1    0    0  501    0  0.00000000000E+00  0.00000000000E+00  0.14037234907E+03  0.14037234916E+03  0.50400000000E-02 0. -1.
         -1   -1    0    0    0  501 -0.00000000000E+00 -0.00000000000E+00 -0.59987530449E+03  0.59987530451E+03  0.50400000000E-02 0.  1.
         25    2    1    2    0    0 -0.11902331554E+03  0.24072640474E+03 -0.21836236981E+03  0.36799941878E+03  0.12500278433E+03 0.  0.
         23    2    1    2    0    0  0.11902331554E+03 -0.24072640474E+03 -0.24114058560E+03  0.37224823489E+03  0.91127464435E+02 0.  0.
        -13    1    4    4    0    0  0.32442032049E+02 -0.14779850259E+03 -0.95177561288E+02  0.17876146718E+03  0.10566000000E+00 0. -1.
         13    1    4    4    0    0  0.86581283492E+02 -0.92927902149E+02 -0.14596302431E+03  0.19348676771E+03  0.10566000000E+00 0.  1.
    9000005    1    3    3    0    0  0.22775481766E+02  0.42971769791E+02 -0.61782847168E+02  0.78634698276E+02  0.10000000000E+01 0.  0.
    9000005    1    3    3    0    0 -0.14179879731E+03  0.19775463495E+03 -0.15657952264E+03  0.28936472050E+03  0.10000000000E+01 0.  0.
<mgrwt>
<rscale>  0 0.29300315E+03</rscale>
<asrwt>0</asrwt>
<pdfrwt beam="1">  1        1 0.21595746E-01 0.29621183E+03</pdfrwt>
<pdfrwt beam="2">  1       -1 0.92288507E-01 0.29621183E+03</pdfrwt>
<totfact> 0.27888448E+02</totfact>
</mgrwt>
</event>
<event>
 8    3  0.1508318E-003  0.1591895E+03  0.7818608E-02  0.1198084E+00
         -1   -1    0    0    0  501 -0.00000000000E+00  0.00000000000E+00  0.16470559295E+02  0.16470560066E+02  0.50400000000E-02 0.  1.
          1   -1    0    0  501    0  0.00000000000E+00 -0.00000000000E+00 -0.16871510271E+04  0.16871510271E+04  0.50400000000E-02 0. -1.
         25    2    1    2    0    0  0.20944972995E+02  0.96315329654E+02 -0.13070858183E+04  0.13167439503E+04  0.12500383787E+03 0.  0.
         23    2    1    2    0    0 -0.20944972995E+02 -0.96315329654E+02 -0.36359464948E+03  0.38687763690E+03  0.88078954275E+02 0.  0.
        -13    1    4    4    0    0 -0.41248625335E+02 -0.84586406601E+02 -0.19346324092E+03  0.21513796974E+03  0.10566000000E+00 0.  1.
         13    1    4    4    0    0  0.20303652340E+02 -0.11728923053E+02 -0.17013140856E+03  0.17173966716E+03  0.10566000000E+00 0. -1.
    9000005    1    3    3    0    0 -0.62189779639E+01  0.81186437491E+02 -0.12413577008E+04  0.12440256648E+04  0.10000000000E+01 0.  0.
    9000005    1    3    3    0    0  0.27163950959E+02  0.15128892163E+02 -0.65728117533E+02  0.72718285487E+02  0.10000000000E+01 0.  0.
<mgrwt>
<rscale>  0 0.15196111E+03</rscale>
<asrwt>0</asrwt>
<pdfrwt beam="2">  1        1 0.25956156E+00 0.15918949E+03</pdfrwt>
<pdfrwt beam="1">  1       -1 0.25339336E-02 0.15918949E+03</pdfrwt>
<totfact> 0.26027633E+03</totfact>
</mgrwt>
</event>
<event>
 8    3  0.1508318E-003  0.1347102E+03  0.7818608E-02  0.1232838E+00
         -1   -1    0    0    0  501 -0.00000000000E+00  0.00000000000E+00  0.15565283455E+03  0.15565283463E+03  0.50400000000E-02 0.  1.
          1   -1    0    0  501    0  0.00000000000E+00 -0.00000000000E+00 -0.10457915015E+03  0.10457915027E+03  0.50400000000E-02 0. -1.
         25    2    1    2    0    0 -0.31270245512E+02 -0.39296960310E+02  0.73279476235E+02  0.15335161241E+03  0.12499902419E+03 0.  0.
         23    2    1    2    0    0  0.31270245512E+02  0.39296960310E+02 -0.22205791834E+02  0.10688037249E+03  0.91696442076E+02 0.  0.
        -13    1    4    4    0    0  0.24450040277E+02  0.33344983493E+02  0.31773952267E+02  0.52146788975E+02  0.10566000000E+00 0.  1.
         13    1    4    4    0    0  0.68202052351E+01  0.59519768162E+01 -0.53979744101E+02  0.54733583518E+02  0.10566000000E+00 0. -1.
    9000005    1    3    3    0    0 -0.61234543197E+02 -0.24012257293E+02 -0.71464849525E+01  0.66168950635E+02  0.10000000000E+01 0.  0.
    9000005    1    3    3    0    0  0.29964297686E+02 -0.15284703017E+02  0.80425961187E+02  0.87182661780E+02  0.10000000000E+01 0.  0.
<mgrwt>
<rscale>  0 0.12643853E+03</rscale>
<asrwt>0</asrwt>
<pdfrwt beam="2">  1        1 0.16089100E-01 0.13471019E+03</pdfrwt>
<pdfrwt beam="1">  1       -1 0.23946590E-01 0.13471019E+03</pdfrwt>
<totfact> 0.48520240E+03</totfact>
</mgrwt>
</event>
<event>
 8    3  0.1508318E-003  0.1439507E+03  0.7818608E-02  0.1217909E+00
          1   -1    0    0  501    0  0.00000000000E+00  0.00000000000E+00  0.90919343371E+03  0.90919343372E+03  0.50400000000E-02 0. -1.
         -1   -1    0    0    0  501 -0.00000000000E+00 -0.00000000000E+00 -0.19271755841E+02  0.19271756500E+02  0.50400000000E-02 0.  1.
         25    2    1    2    0    0 -0.33367278198E+01  0.71318382918E+02  0.41086676359E+03  0.43535421230E+03  0.12499738895E+03 0.  0.
         23    2    1    2    0    0  0.33367278198E+01 -0.71318382918E+02  0.47905491427E+03  0.49311097793E+03  0.92560143508E+02 0.  0.
        -13    1    4    4    0    0 -0.11854681279E+02  0.19757527616E+02  0.13131861767E+03  0.13332473093E+03  0.10566000000E+00 0. -1.
         13    1    4    4    0    0  0.15191409099E+02 -0.91075910534E+02  0.34773629660E+03  0.35978624700E+03  0.10566000000E+00 0.  1.
    9000005    1    3    3    0    0 -0.41719780672E+02  0.45526015011E+02  0.36509163046E+03  0.37027835039E+03  0.10000000000E+01 0.  0.
    9000005    1    3    3    0    0  0.38383052853E+02  0.25792367907E+02  0.45775133140E+02  0.65075861903E+02  0.10000000000E+01 0.  0.
<mgrwt>
<rscale>  0 0.13665035E+03</rscale>
<asrwt>0</asrwt>
<pdfrwt beam="1">  1        1 0.13987590E+00 0.14395066E+03</pdfrwt>
<pdfrwt beam="2">  1       -1 0.29648858E-02 0.14395066E+03</pdfrwt>
<totfact> 0.70039365E+03</totfact>
</mgrwt>
</event>
<event>
 8    3  0.1508318E-003  0.1293948E+03  0.7818608E-02  0.1247049E+00
          1   -1    0    0  501    0  0.00000000000E+00  0.00000000000E+00  0.27867807006E+02  0.27867807462E+02  0.50400000000E-02 0. -1.
         -1   -1    0    0    0  501 -0.00000000000E+00 -0.00000000000E+00 -0.48288881973E+03  0.48288881976E+03  0.50400000000E-02 0.  1.
         25    2    1    2    0    0 -0.40479280418E+01  0.33192930335E+02 -0.35190881147E+03  0.37494377680E+03  0.12499947132E+03 0.  0.
         23    2    1    2    0    0  0.40479280418E+01 -0.33192930335E+02 -0.10311220126E+03  0.13581285042E+03  0.81822050476E+02 0.  0.
        -13    1    4    4    0    0  0.17994918386E+02  0.22419269213E+02 -0.49907828428E+02  0.57595513907E+02  0.10566000000E+00 0.  1.
         13    1    4    4    0    0 -0.13946990344E+02 -0.55612199549E+02 -0.53204372831E+02  0.78217336509E+02  0.10566000000E+00 0. -1.
    9000005    1    3    3    0    0  0.47396222744E+02 -0.22000227701E+02 -0.17440029870E+03  0.18206283568E+03  0.10000000000E+01 0.  0.
    9000005    1    3    3    0    0 -0.51444150786E+02  0.55193158036E+02 -0.17750851276E+03  0.19288094112E+03  0.10000000000E+01 0.  0.
<mgrwt>
<rscale>  0 0.11763593E+03</rscale>
<asrwt>0</asrwt>
<pdfrwt beam="1">  1        1 0.42873553E-02 0.12939484E+03</pdfrwt>
<pdfrwt beam="2">  1       -1 0.74290582E-01 0.12939484E+03</pdfrwt>
<totfact> 0.37517089E+03</totfact>
</mgrwt>
</event>
<event>
 8    3  0.1508318E-003  0.1685833E+03  0.7818608E-02  0.1186025E+00
          1   -1    0    0  501    0  0.00000000000E+00  0.00000000000E+00  0.15168406742E+03  0.15168406751E+03  0.50400000000E-02 0. -1.
         -1   -1    0    0    0  501 -0.00000000000E+00 -0.00000000000E+00 -0.18625184912E+03  0.18625184919E+03  0.50400000000E-02 0.  1.
         25    2    1    2    0    0  0.73048932796E+02  0.86368556765E+02  0.42140151008E+02  0.17377035529E+03  0.12499867948E+03 0.  0.
         23    2    1    2    0    0 -0.73048932796E+02 -0.86368556765E+02 -0.76707932704E+02  0.16416556140E+03  0.90942566658E+02 0.  0.
        -13    1    4    4    0    0 -0.53549144063E+02 -0.67171043903E+02 -0.34604181968E+01  0.85973517010E+02  0.10566000000E+00 0. -1.
         13    1    4    4    0    0 -0.19499788732E+02 -0.19197512862E+02 -0.73247514507E+02  0.78192044392E+02  0.10566000000E+00 0.  1.
    9000005    1    3    3    0    0  0.10740353965E+03  0.77256494426E+02  0.39679577320E+02  0.13812876281E+03  0.10000000000E+01 0.  0.
    9000005    1    3    3    0    0 -0.34354606850E+02  0.91120623392E+01  0.24605736879E+01  0.35641592484E+02  0.10000000000E+01 0.  0.
<mgrwt>
<rscale>  0 0.16239002E+03</rscale>
<asrwt>0</asrwt>
<pdfrwt beam="1">  1        1 0.23336010E-01 0.16858334E+03</pdfrwt>
<pdfrwt beam="2">  1       -1 0.28654131E-01 0.16858334E+03</pdfrwt>
<totfact> 0.22664425E+03</totfact>
</mgrwt>
</event>
<event>
 8    3  0.1508318E-003  0.1537927E+03  0.7818608E-02  0.1205367E+00
          1   -1    0    0  501    0  0.00000000000E+00  0.00000000000E+00  0.13222756709E+04  0.13222756709E+04  0.50400000000E-02 0. -1.
         -1   -1    0    0    0  501 -0.00000000000E+00 -0.00000000000E+00 -0.15728173782E+02  0.15728174590E+02  0.50400000000E-02 0.  1.
         25    2    1    2    0    0 -0.88825710017E+02 -0.11679300245E+02  0.54711601006E+03  0.56832044983E+03  0.12500316960E+03 0.  0.
         23    2    1    2    0    0  0.88825710017E+02  0.11679300245E+02  0.75943148709E+03  0.76968339570E+03  0.87463896722E+02 0.  0.
        -13    1    4    4    0    0  0.53509536959E+02  0.32961136297E+02  0.64491300916E+03  0.64796798347E+03  0.10566000000E+00 0. -1.
         13    1    4    4    0    0  0.35316173058E+02 -0.21281836052E+02  0.11451847793E+03  0.12171541224E+03  0.10566000000E+00 0.  1.
    9000005    1    3    3    0    0 -0.52201601305E+02  0.23489372150E+02  0.79580395233E+02  0.98034672888E+02  0.10000000000E+01 0.  0.
    9000005    1    3    3    0    0 -0.36624108711E+02 -0.35168672395E+02  0.46753561483E+03  0.47028577694E+03  0.10000000000E+01 0.  0.
<mgrwt>
<rscale>  0 0.14608562E+03</rscale>
<asrwt>0</asrwt>
<pdfrwt beam="1">  1        1 0.20342704E+00 0.15379273E+03</pdfrwt>
<pdfrwt beam="2">  1       -1 0.24197189E-02 0.15379273E+03</pdfrwt>
<totfact> 0.48131406E+03</totfact>
</mgrwt>
</event>
<event>
 8    3  0.1508318E-003  0.1464097E+03  0.7818608E-02  0.1213815E+00
          1   -1    0    0  501    0  0.00000000000E+00  0.00000000000E+00  0.12114338438E+03  0.12114338449E+03  0.50400000000E-02 0. -1.
         -1   -1    0    0    0  501 -0.00000000000E+00 -0.00000000000E+00 -0.19773147853E+03  0.19773147859E+03  0.50400000000E-02 0.  1.
         25    2    1    2    0    0 -0.18942766581E+02 -0.73833946270E+02 -0.12089971013E+03  0.18987509698E+03  0.12500213005E+03 0.  0.
         23    2    1    2    0    0  0.18942766581E+02  0.73833946270E+02  0.44311615984E+02  0.12899976609E+03  0.94165494283E+02 0.  0.
        -13    1    4    4    0    0 -0.53361429824E+01  0.24552777576E+02 -0.28366413448E+02  0.37894298840E+02  0.10566000000E+00 0.  1.
         13    1    4    4    0    0  0.24278909564E+02  0.49281168693E+02  0.72678029432E+02  0.91105467253E+02  0.10566000000E+00 0. -1.
    9000005    1    3    3    0    0 -0.94367881035E+00 -0.10611959525E+03 -0.10603343081E+03  0.15002115676E+03  0.10000000000E+01 0.  0.
    9000005    1    3    3    0    0 -0.17999087771E+02  0.32285648980E+02 -0.14866279315E+02  0.39853940223E+02  0.10000000000E+01 0.  0.
<mgrwt>
<rscale>  0 0.13963963E+03</rscale>
<asrwt>0</asrwt>
<pdfrwt beam="1">  1        1 0.18637444E-01 0.14640974E+03</pdfrwt>
<pdfrwt beam="2">  1       -1 0.30420228E-01 0.14640974E+03</pdfrwt>
<totfact> 0.27128062E+03</totfact>
</mgrwt>
</event>
<event>
 8    3  0.1508318E-003  0.1265322E+03  0.7818608E-02  0.1248212E+00
         -1   -1    0    0    0  501 -0.00000000000E+00  0.00000000000E+00  0.18581074015E+03  0.18581074022E+03  0.50400000000E-02 0.  1.
          1   -1    0    0  501    0  0.00000000000E+00 -0.00000000000E+00 -0.65466590147E+02  0.65466590341E+02  0.50400000000E-02 0. -1.
         25    2    1    2    0    0  0.10396626159E+02  0.16622566194E+02  0.84831335126E+02  0.15233762107E+03  0.12500398326E+03 0.  0.
         23    2    1    2    0    0 -0.10396626159E+02 -0.16622566194E+02  0.35512814879E+02  0.98939709494E+02  0.90241379376E+02 0.  0.
        -13    1    4    4    0    0 -0.38002401664E+02  0.35334389711E+01  0.49072277544E+02  0.62167252719E+02  0.10566000000E+00 0.  1.
         13    1    4    4    0    0  0.27605775505E+02 -0.20156005165E+02 -0.13559462665E+02  0.36772456775E+02  0.10566000000E+00 0. -1.
    9000005    1    3    3    0    0 -0.17467957096E+02 -0.12583070019E+02 -0.26355945576E+02  0.34045543665E+02  0.10000000000E+01 0.  0.
    9000005    1    3    3    0    0  0.27864583255E+02  0.29205636213E+02  0.11118728070E+03  0.11829207740E+03  0.10000000000E+01 0.  0.
<mgrwt>
<rscale>  0 0.11695157E+03</rscale>
<asrwt>0</asrwt>
<pdfrwt beam="2">  1        1 0.10071783E-01 0.12653219E+03</pdfrwt>
<pdfrwt beam="1">  1       -1 0.28586267E-01 0.12653219E+03</pdfrwt>
<totfact> 0.66491145E+03</totfact>
</mgrwt>
</event>
<event>
 8    3  0.1508318E-003  0.1266794E+03  0.7818608E-02  0.1245942E+00
         -1   -1    0    0    0  501 -0.00000000000E+00  0.00000000000E+00  0.51877669476E+03  0.51877669478E+03  0.50400000000E-02 0.  1.
          1   -1    0    0  501    0  0.00000000000E+00 -0.00000000000E+00 -0.28921307764E+02  0.28921308203E+02  0.50400000000E-02 0. -1.
         25    2    1    2    0    0  0.14613046433E+02 -0.14434679163E+02  0.38506558622E+03  0.40536796335E+03  0.12500311567E+03 0.  0.
         23    2    1    2    0    0 -0.14613046433E+02  0.14434679163E+02  0.10478980077E+03  0.14233003964E+03  0.94101204824E+02 0.  0.
        -13    1    4    4    0    0 -0.50832214189E+02  0.66007772164E+01  0.31391298045E+02  0.60107478871E+02  0.10566000000E+00 0.  1.
         13    1    4    4    0    0  0.36219167757E+02  0.78339019463E+01  0.73398502729E+02  0.82222560770E+02  0.10566000000E+00 0. -1.
    9000005    1    3    3    0    0  0.18503668726E+02 -0.49221613511E+02  0.35598519528E+03  0.35984942997E+03  0.10000000000E+01 0.  0.
    9000005    1    3    3    0    0 -0.38906222932E+01  0.34786934348E+02  0.29080390943E+02  0.45518533375E+02  0.10000000000E+01 0.  0.
<mgrwt>
<rscale>  0 0.11829195E+03</rscale>
<asrwt>0</asrwt>
<pdfrwt beam="2">  1        1 0.44494324E-02 0.12667944E+03</pdfrwt>
<pdfrwt beam="1">  1       -1 0.79811793E-01 0.12667944E+03</pdfrwt>
<totfact> 0.30805683E+03</totfact>
</mgrwt>
</event>
<event>
 8    3  0.1508318E-003  0.1505532E+03  0.7818608E-02  0.1208790E+00
          1   -1    0    0  501    0  0.00000000000E+00  0.00000000000E+00  0.59266337613E+03  0.59266337615E+03  0.50400000000E-02 0. -1.
         -1   -1    0    0    0  501 -0.00000000000E+00 -0.00000000000E+00 -0.32059603949E+02  0.32059604345E+02  0.50400000000E-02 0.  1.
         25    2    1    2    0    0 -0.77707652991E+02 -0.31644117908E+02  0.27918447842E+03  0.31719115512E+03  0.12500570532E+03 0.  0.
         23    2    1    2    0    0  0.77707652991E+02  0.31644117908E+02  0.28141929376E+03  0.30753182538E+03  0.91319084472E+02 0.  0.
        -13    1    4    4    0    0  0.77360019768E+02  0.26519321499E+02  0.11543291173E+03  0.14146595119E+03  0.10566000000E+00 0.  1.
         13    1    4    4    0    0  0.34763322379E+00  0.51247964089E+01  0.16598638203E+03  0.16606587419E+03  0.10566000000E+00 0. -1.
    9000005    1    3    3    0    0 -0.88788889838E+02 -0.26206110831E+02  0.28765559149E+03  0.30218697278E+03  0.10000000000E+01 0.  0.
    9000005    1    3    3    0    0  0.11081236847E+02 -0.54380070774E+01 -0.84711130666E+01  0.15004182338E+02  0.10000000000E+01 0.  0.
<mgrwt>
<rscale>  0 0.14342784E+03</rscale>
<asrwt>0</asrwt>
<pdfrwt beam="1">  1        1 0.91178983E-01 0.15055317E+03</pdfrwt>
<pdfrwt beam="2">  1       -1 0.49322467E-02 0.15055317E+03</pdfrwt>
<totfact> 0.62252108E+03</totfact>
</mgrwt>
</event>
<event>
 8    3  0.1508318E-003  0.4693119E+03  0.7818608E-02  0.1022671E+00
          1   -1    0    0  501    0  0.00000000000E+00  0.00000000000E+00  0.13727185760E+04  0.13727185761E+04  0.50400000000E-02 0. -1.
         -1   -1    0    0    0  501 -0.00000000000E+00 -0.00000000000E+00 -0.15792435293E+03  0.15792435301E+03  0.50400000000E-02 0.  1.
         25    2    1    2    0    0 -0.11166801929E+03 -0.43836157019E+03  0.59040533708E+03  0.75420960440E+03  0.12499221001E+03 0.  0.
         23    2    1    2    0    0  0.11166801929E+03  0.43836157019E+03  0.62438888603E+03  0.77643332466E+03  0.91414516843E+02 0.  0.
        -13    1    4    4    0    0  0.74061051440E+02  0.39052055966E+03  0.50726875288E+03  0.64444778351E+03  0.10566000000E+00 0.  1.
         13    1    4    4    0    0  0.37606967852E+02  0.47841010534E+02  0.11712013314E+03  0.13198554115E+03  0.10566000000E+00 0. -1.
    9000005    1    3    3    0    0 -0.21453600744E+02 -0.29921815849E+03  0.42295566951E+03  0.51854051118E+03  0.10000000000E+01 0.  0.
    9000005    1    3    3    0    0 -0.90214418549E+02 -0.13914341170E+03  0.16744966757E+03  0.23566909323E+03  0.10000000000E+01 0.  0.
<mgrwt>
<rscale>  0 0.46734798E+03</rscale>
<asrwt>0</asrwt>
<pdfrwt beam="1">  1        1 0.21118747E+00 0.46931191E+03</pdfrwt>
<pdfrwt beam="2">  1       -1 0.24296054E-01 0.46931191E+03</pdfrwt>
<totfact> 0.12408812E+02</totfact>
</mgrwt>
</event>
<event>
 8    3  0.1508318E-003  0.2328806E+03  0.7818608E-02  0.1127589E+00
          1   -1    0    0  501    0  0.00000000000E+00  0.00000000000E+00  0.79582109635E+03  0.79582109637E+03  0.50400000000E-02 0. -1.
         -1   -1    0    0    0  501 -0.00000000000E+00 -0.00000000000E+00 -0.11934370576E+03  0.11934370586E+03  0.50400000000E-02 0.  1.
         25    2    1    2    0    0 -0.52305020516E+02  0.18940132824E+03  0.65793239537E+03  0.69793151079E+03  0.12499871427E+03 0.  0.
         23    2    1    2    0    0  0.52305020516E+02 -0.18940132824E+03  0.18544995227E+02  0.21723329144E+03  0.90761818792E+02 0.  0.
        -13    1    4    4    0    0  0.31649361675E+02 -0.28054297788E+02  0.33401415252E+02  0.53892405992E+02  0.10566000000E+00 0.  1.
         13    1    4    4    0    0  0.20655658841E+02 -0.16134703045E+03 -0.14856420025E+02  0.16334088545E+03  0.10566000000E+00 0. -1.
    9000005    1    3    3    0    0 -0.77624456252E+01 -0.18421767868E+02  0.47085978998E+02  0.51163527162E+02  0.10000000000E+01 0.  0.
    9000005    1    3    3    0    0 -0.44542574891E+02  0.20782309611E+03  0.61084641637E+03  0.64676798363E+03  0.10000000000E+01 0.  0.
<mgrwt>
<rscale>  0 0.22865697E+03</rscale>
<asrwt>0</asrwt>
<pdfrwt beam="1">  1        1 0.12243402E+00 0.23288056E+03</pdfrwt>
<pdfrwt beam="2">  1       -1 0.18360570E-01 0.23288056E+03</pdfrwt>
<totfact> 0.54281503E+02</totfact>
</mgrwt>
</event>
<event>
 8    3  0.1508318E-003  0.2703080E+03  0.7818608E-02  0.1103377E+00
          1   -1    0    0  501    0  0.00000000000E+00  0.00000000000E+00  0.99775967820E+03  0.99775967821E+03  0.50400000000E-02 0. -1.
         -1   -1    0    0    0  501 -0.00000000000E+00 -0.00000000000E+00 -0.69459579452E+02  0.69459579635E+02  0.50400000000E-02 0.  1.
         25    2    1    2    0    0  0.18400004869E+03 -0.15357605355E+03  0.44000443657E+03  0.51640130438E+03  0.12499912330E+03 0.  0.
         23    2    1    2    0    0 -0.18400004869E+03  0.15357605355E+03  0.48829566217E+03  0.55081795346E+03  0.86753340064E+02 0.  0.
        -13    1    4    4    0    0 -0.73227211917E+02  0.33223711524E+02  0.92564505384E+02  0.12261418512E+03  0.10566000000E+00 0. -1.
         13    1    4    4    0    0 -0.11077283678E+03  0.12035234203E+03  0.39573115679E+03  0.42820376834E+03  0.10566000000E+00 0.  1.
    9000005    1    3    3    0    0  0.19846728295E+03 -0.12464693820E+03  0.35439524373E+03  0.42488011295E+03  0.10000000000E+01 0.  0.
    9000005    1    3    3    0    0 -0.14467234261E+02 -0.28929115353E+02  0.85609192843E+02  0.91521191434E+02  0.10000000000E+01 0.  0.
<mgrwt>
<rscale>  0 0.26636759E+03</rscale>
<asrwt>0</asrwt>
<pdfrwt beam="1">  1        1 0.15350148E+00 0.27030798E+03</pdfrwt>
<pdfrwt beam="2">  1       -1 0.10686090E-01 0.27030798E+03</pdfrwt>
<totfact> 0.88402919E+02</totfact>
</mgrwt>
</event>
<event>
 8    3  0.1508318E-003  0.1824141E+03  0.7818608E-02  0.1170870E+00
          1   -1    0    0  501    0  0.00000000000E+00  0.00000000000E+00  0.30339379790E+02  0.30339380209E+02  0.50400000000E-02 0. -1.
         -1   -1    0    0    0  501 -0.00000000000E+00 -0.00000000000E+00 -0.97395845657E+03  0.97395845658E+03  0.50400000000E-02 0.  1.
         25    2    1    2    0    0 -0.20702995892E+02  0.13123027032E+03 -0.48537288222E+03  0.51851881028E+03  0.12499969571E+03 0.  0.
         23    2    1    2    0    0  0.20702995892E+02 -0.13123027032E+03 -0.45824619456E+03  0.48577902651E+03  0.91332852187E+02 0.  0.
        -13    1    4    4    0    0 -0.10786245746E+02 -0.11847580597E+03 -0.27841813306E+03  0.30276976018E+03  0.10566000000E+00 0. -1.
         13    1    4    4    0    0  0.31489241639E+02 -0.12754464353E+02 -0.17982806150E+03  0.18300926634E+03  0.10566000000E+00 0.  1.
    9000005    1    3    3    0    0  0.80958249223E+01  0.83187130733E+02 -0.43570284022E+03  0.44364806557E+03  0.10000000000E+01 0.  0.
    9000005    1    3    3    0    0 -0.28798820815E+02  0.48043139586E+02 -0.49670041999E+02  0.74870744713E+02  0.10000000000E+01 0.  0.
<mgrwt>
<rscale>  0 0.17686757E+03</rscale>
<asrwt>0</asrwt>
<pdfrwt beam="1">  1        1 0.46675977E-02 0.18241415E+03</pdfrwt>
<pdfrwt beam="2">  1       -1 0.14983974E+00 0.18241415E+03</pdfrwt>
<totfact> 0.69081883E+02</totfact>
</mgrwt>
</event>
<event>
 8    3  0.1508318E-003  0.1420625E+03  0.7818608E-02  0.1221504E+00
          1   -1    0    0  501    0  0.00000000000E+00  0.00000000000E+00  0.77210990372E+03  0.77210990373E+03  0.50400000000E-02 0. -1.
         -1   -1    0    0    0  501 -0.00000000000E+00 -0.00000000000E+00 -0.23822938777E+02  0.23822939310E+02  0.50400000000E-02 0.  1.
         25    2    1    2    0    0  0.21045597919E+02 -0.64141456107E+02  0.54764126180E+03  0.56576737136E+03  0.12499889312E+03 0.  0.
         23    2    1    2    0    0 -0.21045597919E+02  0.64141456107E+02  0.20064570314E+03  0.23016547169E+03  0.90334946643E+02 0.  0.
        -13    1    4    4    0    0 -0.13886217260E+02  0.15990115639E+02 -0.24476271919E+01  0.21319307466E+02  0.10566000000E+00 0.  1.
         13    1    4    4    0    0 -0.71593806587E+01  0.48151340469E+02  0.20309333033E+03  0.20884616422E+03  0.10566000000E+00 0. -1.
    9000005    1    3    3    0    0  0.10168818501E+02  0.29722455021E+02  0.48735827963E+02  0.57991466005E+02  0.10000000000E+01 0.  0.
    9000005    1    3    3    0    0  0.10876779418E+02 -0.93863911128E+02  0.49890543384E+03  0.50777590535E+03  0.10000000000E+01 0.  0.
<mgrwt>
<rscale>  0 0.13409410E+03</rscale>
<asrwt>0</asrwt>
<pdfrwt beam="1">  1        1 0.11878614E+00 0.14206255E+03</pdfrwt>
<pdfrwt beam="2">  1       -1 0.36650676E-02 0.14206255E+03</pdfrwt>
<totfact> 0.66061467E+03</totfact>
</mgrwt>
</event>
<event>
 8    3  0.1508318E-003  0.1262064E+03  0.7818608E-02  0.1247774E+00
         -1   -1    0    0    0  501 -0.00000000000E+00  0.00000000000E+00  0.81108034192E+01  0.81108049851E+01  0.50400000000E-02 0.  1.
          1   -1    0    0  501    0  0.00000000000E+00 -0.00000000000E+00 -0.22635098037E+04  0.22635098037E+04  0.50400000000E-02 0. -1.
         25    2    1    2    0    0  0.17405858717E+02  0.16374402461E+00 -0.18948505473E+04  0.18990488809E+04  0.12500025980E+03 0.  0.
         23    2    1    2    0    0 -0.17405858717E+02 -0.16374402461E+00 -0.36054845297E+03  0.37257172772E+03  0.92257870266E+02 0.  0.
        -13    1    4    4    0    0  0.13198662036E+02  0.24496321330E+02 -0.29377385665E+03  0.29508873996E+03  0.10566000000E+00 0. -1.
         13    1    4    4    0    0 -0.30604520753E+02 -0.24660065354E+02 -0.66774596327E+02  0.77482987762E+02  0.10566000000E+00 0.  1.
    9000005    1    3    3    0    0 -0.46128542095E+02 -0.30618008389E+02 -0.77682205626E+03  0.77879317660E+03  0.10000000000E+01 0.  0.
    9000005    1    3    3    0    0  0.63534400812E+02  0.30781752413E+02 -0.11180284910E+04  0.11202557043E+04  0.10000000000E+01 0.  0.
<mgrwt>
<rscale>  0 0.11720895E+03</rscale>
<asrwt>0</asrwt>
<pdfrwt beam="2">  1        1 0.34823178E+00 0.12620640E+03</pdfrwt>
<pdfrwt beam="1">  1       -1 0.12478178E-02 0.12620640E+03</pdfrwt>
<totfact> 0.30921969E+03</totfact>
</mgrwt>
</event>
<event>
 8    3  0.1508318E-003  0.1443686E+03  0.7818608E-02  0.1217940E+00
          1   -1    0    0  501    0  0.00000000000E+00  0.00000000000E+00  0.28616170400E+03  0.28616170405E+03  0.50400000000E-02 0. -1.
         -1   -1    0    0    0  501 -0.00000000000E+00 -0.00000000000E+00 -0.10720172195E+03  0.10720172207E+03  0.50400000000E-02 0.  1.
         25    2    1    2    0    0 -0.29252490430E+02  0.66043555393E+02 -0.36358903767E+02  0.14887668063E+03  0.12499934699E+03 0.  0.
         23    2    1    2    0    0  0.29252490430E+02 -0.66043555393E+02  0.21531888582E+03  0.24448674548E+03  0.90521194881E+02 0.  0.
        -13    1    4    4    0    0 -0.30170836149E+02 -0.13623565946E+02  0.38835064476E+02  0.51029935332E+02  0.10566000000E+00 0.  1.
         13    1    4    4    0    0  0.59423326580E+02 -0.52419989447E+02  0.17648382134E+03  0.19345681015E+03  0.10566000000E+00 0. -1.
    9000005    1    3    3    0    0  0.18284131093E+02  0.84099889788E+02  0.48811520446E+00  0.86071709456E+02  0.10000000000E+01 0.  0.
    9000005    1    3    3    0    0 -0.47536621523E+02 -0.18056334395E+02 -0.36847018972E+02  0.62804971178E+02  0.10000000000E+01 0.  0.
<mgrwt>
<rscale>  0 0.13662792E+03</rscale>
<asrwt>0</asrwt>
<pdfrwt beam="1">  1        1 0.44024877E-01 0.14436861E+03</pdfrwt>
<pdfrwt beam="2">  1       -1 0.16492573E-01 0.14436861E+03</pdfrwt>
<totfact> 0.25041057E+03</totfact>
</mgrwt>
</event>
<event>
 8    3  0.1508318E-003  0.1478534E+03  0.7818608E-02  0.1213243E+00
          1   -1    0    0  501    0  0.00000000000E+00  0.00000000000E+00  0.33549921485E+02  0.33549921863E+02  0.50400000000E-02 0. -1.
         -1   -1    0    0    0  501 -0.00000000000E+00 -0.00000000000E+00 -0.54763450394E+03  0.54763450396E+03  0.50400000000E-02 0.  1.
         25    2    1    2    0    0 -0.56093353900E+02  0.55583398424E+02 -0.23343163794E+03  0.27631677406E+03  0.12499860600E+03 0.  0.
         23    2    1    2    0    0  0.56093353900E+02 -0.55583398424E+02 -0.28065294451E+03  0.30486765177E+03  0.89119197135E+02 0.  0.
        -13    1    4    4    0    0  0.64963832830E+02 -0.22565532301E+01 -0.15514063211E+03  0.16820825932E+03  0.10566000000E+00 0.  1.
         13    1    4    4    0    0 -0.88704789306E+01 -0.53326845193E+02 -0.12551231240E+03  0.13665939245E+03  0.10566000000E+00 0. -1.
    9000005    1    3    3    0    0 -0.63621686275E+01  0.87231726616E+02 -0.12020913388E+03  0.14866434403E+03  0.10000000000E+01 0.  0.
    9000005    1    3    3    0    0 -0.49731185272E+02 -0.31648328192E+02 -0.11322250406E+03  0.12765243003E+03  0.10000000000E+01 0.  0.
<mgrwt>
<rscale>  0 0.14006389E+03</rscale>
<asrwt>0</asrwt>
<pdfrwt beam="1">  1        1 0.51615268E-02 0.14785341E+03</pdfrwt>
<pdfrwt beam="2">  1       -1 0.84251456E-01 0.14785341E+03</pdfrwt>
<totfact> 0.22670805E+03</totfact>
</mgrwt>
</event>
<event>
 8    3  0.1508318E-003  0.1307020E+03  0.7818608E-02  0.1239346E+00
         -1   -1    0    0    0  501 -0.00000000000E+00  0.00000000000E+00  0.18892344926E+03  0.18892344933E+03  0.50400000000E-02 0.  1.
          1   -1    0    0  501    0  0.00000000000E+00 -0.00000000000E+00 -0.91132281889E+02  0.91132282029E+02  0.50400000000E-02 0. -1.
         25    2    1    2    0    0 -0.27422826636E+02 -0.26780774923E+02  0.11998074116E+03  0.17742150536E+03  0.12495515591E+03 0.  0.
         23    2    1    2    0    0  0.27422826636E+02  0.26780774923E+02 -0.22189573785E+02  0.10263422600E+03  0.92586099583E+02 0.  0.
        -13    1    4    4    0    0  0.28506417888E+02  0.82377765663E+01  0.33014029432E+02  0.44389346998E+02  0.10566000000E+00 0.  1.
         13    1    4    4    0    0 -0.10835912517E+01  0.18542998357E+02 -0.55203603217E+02  0.58244879004E+02  0.10566000000E+00 0. -1.
    9000005    1    3    3    0    0  0.37686396055E+02  0.48283440600E+01  0.92487655237E+02  0.99992718361E+02  0.10000000000E+01 0.  0.
    9000005    1    3    3    0    0 -0.65109222691E+02 -0.31609118983E+02  0.27493085923E+02  0.77428786997E+02  0.10000000000E+01 0.  0.
<mgrwt>
<rscale>  0 0.12230269E+03</rscale>
<asrwt>0</asrwt>
<pdfrwt beam="2">  1        1 0.14020351E-01 0.13070200E+03</pdfrwt>
<pdfrwt beam="1">  1       -1 0.29065146E-01 0.13070200E+03</pdfrwt>
<totfact> 0.42015838E+03</totfact>
</mgrwt>
</event>
<event>
 8    3  0.1508318E-003  0.1332249E+03  0.7818608E-02  0.1235948E+00
         -1   -1    0    0    0  501 -0.00000000000E+00  0.00000000000E+00  0.63111803117E+01  0.63111823241E+01  0.50400000000E-02 0.  1.
          1   -1    0    0  501    0  0.00000000000E+00 -0.00000000000E+00 -0.21933289990E+04  0.21933289990E+04  0.50400000000E-02 0. -1.
         25    2    1    2    0    0  0.74835799650E+01 -0.45484212032E+02 -0.11584506783E+04  0.11660861282E+04  0.12499626648E+03 0.  0.
         23    2    1    2    0    0 -0.74835799650E+01  0.45484212032E+02 -0.10285671404E+04  0.10335540532E+04  0.90326082063E+02 0.  0.
        -13    1    4    4    0    0 -0.44661236450E+02  0.51881862816E+01 -0.55661510495E+03  0.55842808806E+03  0.10566000000E+00 0.  1.
         13    1    4    4    0    0  0.37177656485E+02  0.40296025750E+02 -0.47195203541E+03  0.47512596511E+03  0.10566000000E+00 0. -1.
    9000005    1    3    3    0    0  0.59085989748E+02 -0.44529937196E+02 -0.47946127164E+03  0.48513728005E+03  0.10000000000E+01 0.  0.
    9000005    1    3    3    0    0 -0.51602409783E+02 -0.95427483620E+00 -0.67898940669E+03  0.68094884811E+03  0.10000000000E+01 0.  0.
<mgrwt>
<rscale>  0 0.12443925E+03</rscale>
<asrwt>0</asrwt>
<pdfrwt beam="2">  1        1 0.33743462E+00 0.13322494E+03</pdfrwt>
<pdfrwt beam="1">  1       -1 0.97095272E-03 0.13322494E+03</pdfrwt>
<totfact> 0.49073941E+03</totfact>
</mgrwt>
</event>
<event>
 8    3  0.1508318E-003  0.1430135E+03  0.7818608E-02  0.1218162E+00
          1   -1    0    0  501    0  0.00000000000E+00  0.00000000000E+00  0.12349704884E+03  0.12349704895E+03  0.50400000000E-02 0. -1.
         -1   -1    0    0    0  501 -0.00000000000E+00 -0.00000000000E+00 -0.14667158569E+03  0.14667158578E+03  0.50400000000E-02 0.  1.
         25    2    1    2    0    0 -0.68890872815E+02 -0.90574613596E+01  0.19098888360E+02  0.14428320244E+03  0.12499954002E+03 0.  0.
         23    2    1    2    0    0  0.68890872815E+02  0.90574613596E+01 -0.42273425208E+02  0.12588543229E+03  0.96083867636E+02 0.  0.
        -13    1    4    4    0    0 -0.18998507861E+02 -0.17510061311E+02 -0.15972510466E+02  0.30375611972E+02  0.10566000000E+00 0. -1.
         13    1    4    4    0    0  0.87889380676E+02  0.26567522671E+02 -0.26300914742E+02  0.95509820315E+02  0.10566000000E+00 0.  1.
    9000005    1    3    3    0    0 -0.49085979131E+02 -0.29299531124E+01  0.72148493801E+02  0.87317942774E+02  0.10000000000E+01 0.  0.
    9000005    1    3    3    0    0 -0.19804893684E+02 -0.61275082472E+01 -0.53049605440E+02  0.56965259663E+02  0.10000000000E+01 0.  0.
<mgrwt>
<rscale>  0 0.13646819E+03</rscale>
<asrwt>0</asrwt>
<pdfrwt beam="1">  1        1 0.18999546E-01 0.14301355E+03</pdfrwt>
<pdfrwt beam="2">  1       -1 0.22564859E-01 0.14301355E+03</pdfrwt>
<totfact> 0.43342844E+03</totfact>
</mgrwt>
</event>
<event>
 8    3  0.1508318E-003  0.1255991E+03  0.7818608E-02  0.1250038E+00
          1   -1    0    0  501    0  0.00000000000E+00  0.00000000000E+00  0.16336965486E+03  0.16336965494E+03  0.50400000000E-02 0. -1.
         -1   -1    0    0    0  501 -0.00000000000E+00 -0.00000000000E+00 -0.80211931067E+02  0.80211931225E+02  0.50400000000E-02 0.  1.
         25    2    1    2    0    0  0.11598276520E+02 -0.39068519601E+01  0.85645758369E+01  0.12589081204E+03  0.12500144434E+03 0.  0.
         23    2    1    2    0    0 -0.11598276520E+02  0.39068519601E+01  0.74593147957E+02  0.11769077412E+03  0.90206413747E+02 0.  0.
        -13    1    4    4    0    0  0.13410759987E+02 -0.17673325751E+01  0.87806248428E+02  0.88842109244E+02  0.10566000000E+00 0. -1.
         13    1    4    4    0    0 -0.25009036507E+02  0.56741845352E+01 -0.13213100472E+02  0.28848664878E+02  0.10566000000E+00 0.  1.
    9000005    1    3    3    0    0 -0.16340874308E+02  0.19642561248E+01  0.62618198360E+02  0.64752770143E+02  0.10000000000E+01 0.  0.
    9000005    1    3    3    0    0  0.27939150828E+02 -0.58711080850E+01 -0.54053622524E+02  0.61138041898E+02  0.10000000000E+01 0.  0.
<mgrwt>
<rscale>  0 0.11588829E+03</rscale>
<asrwt>0</asrwt>
<pdfrwt beam="1">  1        1 0.25133793E-01 0.12559914E+03</pdfrwt>
<pdfrwt beam="2">  1       -1 0.12340297E-01 0.12559914E+03</pdfrwt>
<totfact> 0.78352783E+03</totfact>
</mgrwt>
</event>
<event>
 8    3  0.1508318E-003  0.1373849E+03  0.7818608E-02  0.1230156E+00
         -1   -1    0    0    0  501 -0.00000000000E+00  0.00000000000E+00  0.15393558310E+02  0.15393559135E+02  0.50400000000E-02 0.  1.
          1   -1    0    0  501    0  0.00000000000E+00 -0.00000000000E+00 -0.96969196328E+03  0.96969196329E+03  0.50400000000E-02 0. -1.
         25    2    1    2    0    0  0.48079387324E+02  0.30635830531E+02 -0.61507981499E+03  0.63023628955E+03  0.12499768104E+03 0.  0.
         23    2    1    2    0    0 -0.48079387324E+02 -0.30635830531E+02 -0.33921858998E+03  0.35484923288E+03  0.87169631663E+02 0.  0.
        -13    1    4    4    0    0  0.20817298809E+01 -0.23652774053E+02 -0.18350737711E+02  0.30009132914E+02  0.10566000000E+00 0.  1.
         13    1    4    4    0    0 -0.50161117205E+02 -0.69830564779E+01 -0.32086785227E+03  0.32484009996E+03  0.10566000000E+00 0. -1.
    9000005    1    3    3    0    0  0.30693497326E+02  0.43590127505E+02 -0.89295705728E+02  0.10400438960E+03  0.10000000000E+01 0.  0.
    9000005    1    3    3    0    0  0.17385889998E+02 -0.12954296974E+02 -0.52578410926E+03  0.52623189995E+03  0.10000000000E+01 0.  0.
<mgrwt>
<rscale>  0 0.12819660E+03</rscale>
<asrwt>0</asrwt>
<pdfrwt beam="2">  1        1 0.14918333E+00 0.13738487E+03</pdfrwt>
<pdfrwt beam="1">  1       -1 0.23682406E-02 0.13738487E+03</pdfrwt>
<totfact> 0.87189211E+03</totfact>
</mgrwt>
</event>
<event>
 8    3  0.1508318E-003  0.1303812E+03  0.7818608E-02  0.1240915E+00
          1   -1    0    0  501    0  0.00000000000E+00  0.00000000000E+00  0.19596008505E+03  0.19596008512E+03  0.50400000000E-02 0. -1.
         -1   -1    0    0    0  501 -0.00000000000E+00 -0.00000000000E+00 -0.82438738307E+02  0.82438738461E+02  0.50400000000E-02 0.  1.
         25    2    1    2    0    0  0.13667130573E+02 -0.34459056600E+02  0.12415671159E+03  0.18003929974E+03  0.12500017351E+03 0.  0.
         23    2    1    2    0    0 -0.13667130573E+02  0.34459056600E+02 -0.10635364842E+02  0.98359523840E+02  0.90483522836E+02 0.  0.
        -13    1    4    4    0    0 -0.21822852055E+02  0.54564323560E+02 -0.32835434982E+02  0.67317748268E+02  0.10566000000E+00 0.  1.
         13    1    4    4    0    0  0.81557214827E+01 -0.20105266959E+02  0.22200070140E+02  0.31041775572E+02  0.10566000000E+00 0. -1.
    9000005    1    3    3    0    0  0.43993409991E+02 -0.10981557764E+00 -0.37546844646E+01  0.44164803153E+02  0.10000000000E+01 0.  0.
    9000005    1    3    3    0    0 -0.30326279419E+02 -0.34349241023E+02  0.12791139605E+03  0.13587449658E+03  0.10000000000E+01 0.  0.
<mgrwt>
<rscale>  0 0.12133244E+03</rscale>
<asrwt>0</asrwt>
<pdfrwt beam="1">  1        1 0.30147705E-01 0.13038121E+03</pdfrwt>
<pdfrwt beam="2">  1       -1 0.12682883E-01 0.13038121E+03</pdfrwt>
<totfact> 0.60030664E+03</totfact>
</mgrwt>
</event>
<event>
 8    3  0.1508318E-003  0.1500508E+03  0.7818608E-02  0.1209482E+00
         -1   -1    0    0    0  501 -0.00000000000E+00  0.00000000000E+00  0.16904975094E+02  0.16904975845E+02  0.50400000000E-02 0.  1.
          1   -1    0    0  501    0  0.00000000000E+00 -0.00000000000E+00 -0.11823390274E+04  0.11823390274E+04  0.50400000000E-02 0. -1.
         25    2    1    2    0    0  0.53622194414E+02  0.63359369858E+02 -0.48409390081E+03  0.50681570746E+03  0.12500202815E+03 0.  0.
         23    2    1    2    0    0 -0.53622194414E+02 -0.63359369858E+02 -0.68134015147E+03  0.69242829577E+03  0.91338892589E+02 0.  0.
        -13    1    4    4    0    0 -0.11021902084E+02 -0.76615098262E+02 -0.48029833208E+03  0.48649548258E+03  0.10566000000E+00 0.  1.
         13    1    4    4    0    0 -0.42600292330E+02  0.13255728404E+02 -0.20104181939E+03  0.20593281319E+03  0.10566000000E+00 0. -1.
    9000005    1    3    3    0    0  0.18044710940E+02  0.45978426496E+02 -0.47848179036E+02  0.68775544585E+02  0.10000000000E+01 0.  0.
    9000005    1    3    3    0    0  0.35577483474E+02  0.17380943362E+02 -0.43624572178E+03  0.43804016288E+03  0.10000000000E+01 0.  0.
<mgrwt>
<rscale>  0 0.14289775E+03</rscale>
<asrwt>0</asrwt>
<pdfrwt beam="2">  1        1 0.18189825E+00 0.15005085E+03</pdfrwt>
<pdfrwt beam="1">  1       -1 0.26007664E-02 0.15005085E+03</pdfrwt>
<totfact> 0.53884675E+03</totfact>
</mgrwt>
</event>
<event>
 8    3  0.1508318E-003  0.1355418E+03  0.7818608E-02  0.1230894E+00
          1   -1    0    0  501    0  0.00000000000E+00  0.00000000000E+00  0.36990153047E+02  0.36990153390E+02  0.50400000000E-02 0. -1.
         -1   -1    0    0    0  501 -0.00000000000E+00 -0.00000000000E+00 -0.43645546967E+03  0.43645546970E+03  0.50400000000E-02 0.  1.
         25    2    1    2    0    0  0.60056964133E+01 -0.52070467018E+02 -0.29196900435E+03  0.32189669655E+03  0.12499672725E+03 0.  0.
         23    2    1    2    0    0 -0.60056964133E+01  0.52070467018E+02 -0.10749631227E+03  0.15154892654E+03  0.93081781563E+02 0.  0.
        -13    1    4    4    0    0  0.43558287235E+01  0.21459614004E+02 -0.11606704673E+03  0.11811460019E+03  0.10566000000E+00 0.  1.
         13    1    4    4    0    0 -0.10361525137E+02  0.30610853014E+02  0.85707344587E+01  0.33434326351E+02  0.10566000000E+00 0. -1.
    9000005    1    3    3    0    0  0.64434404379E+02 -0.16922275853E+02 -0.12772146059E+03  0.14405529280E+03  0.10000000000E+01 0.  0.
    9000005    1    3    3    0    0 -0.58428707965E+02 -0.35148191165E+02 -0.16424754376E+03  0.17784140375E+03  0.10000000000E+01 0.  0.
<mgrwt>
<rscale>  0 0.12770955E+03</rscale>
<asrwt>0</asrwt>
<pdfrwt beam="1">  1        1 0.56907931E-02 0.13554182E+03</pdfrwt>
<pdfrwt beam="2">  1       -1 0.67146992E-01 0.13554182E+03</pdfrwt>
<totfact> 0.31203382E+03</totfact>
</mgrwt>
</event>
<event>
 8    3  0.1508318E-003  0.2391025E+03  0.7818608E-02  0.1123096E+00
          1   -1    0    0  501    0  0.00000000000E+00  0.00000000000E+00  0.84638470021E+03  0.84638470022E+03  0.50400000000E-02 0. -1.
         -1   -1    0    0    0  501 -0.00000000000E+00 -0.00000000000E+00 -0.66375209408E+02  0.66375209600E+02  0.50400000000E-02 0.  1.
         25    2    1    2    0    0 -0.17884618895E+03 -0.97775566257E+02  0.30298136503E+03  0.38596337243E+03  0.12499598650E+03 0.  0.
         23    2    1    2    0    0  0.17884618895E+03  0.97775566257E+02  0.47702812577E+03  0.52679653740E+03  0.91720981116E+02 0.  0.
        -13    1    4    4    0    0  0.78677050138E+02  0.15055480575E+02  0.10068882784E+03  0.12866622296E+03  0.10566000000E+00 0.  1.
         13    1    4    4    0    0  0.10016913881E+03  0.82720085682E+02  0.37633929793E+03  0.39813031444E+03  0.10566000000E+00 0. -1.
    9000005    1    3    3    0    0  0.13072504041E+02 -0.27462113966E+02  0.18317118457E+02  0.35518655577E+02  0.10000000000E+01 0.  0.
    9000005    1    3    3    0    0 -0.19191869299E+03 -0.70313452290E+02  0.28466424657E+03  0.35044471685E+03  0.10000000000E+01 0.  0.
<mgrwt>
<rscale>  0 0.23510647E+03</rscale>
<asrwt>0</asrwt>
<pdfrwt beam="1">  1        1 0.13021301E+00 0.23910252E+03</pdfrwt>
<pdfrwt beam="2">  1       -1 0.10211572E-01 0.23910252E+03</pdfrwt>
<totfact> 0.12452117E+03</totfact>
</mgrwt>
</event>
<event>
 8    3  0.1508318E-003  0.1362909E+03  0.7818608E-02  0.1230117E+00
         -1   -1    0    0    0  501 -0.00000000000E+00  0.00000000000E+00  0.70079150565E+02  0.70079150746E+02  0.50400000000E-02 0.  1.
          1   -1    0    0  501    0  0.00000000000E+00 -0.00000000000E+00 -0.23416109060E+03  0.23416109065E+03  0.50400000000E-02 0. -1.
         25    2    1    2    0    0  0.16397144396E+02 -0.51785279776E+02 -0.43239108008E+02  0.14298546444E+03  0.12499856413E+03 0.  0.
         23    2    1    2    0    0 -0.16397144396E+02  0.51785279776E+02 -0.12084283203E+03  0.16125477696E+03  0.91921333186E+02 0.  0.
        -13    1    4    4    0    0 -0.36094691347E+02  0.45884124619E+02 -0.12701208220E+03  0.13978647941E+03  0.10566000000E+00 0. -1.
         13    1    4    4    0    0  0.19697546951E+02  0.59011551571E+01  0.61692501761E+01  0.21468297554E+02  0.10566000000E+00 0.  1.
    9000005    1    3    3    0    0 -0.21714606964E+02  0.30809580437E+02 -0.35332157824E+02  0.51673163042E+02  0.10000000000E+01 0.  0.
    9000005    1    3    3    0    0  0.38111751360E+02 -0.82594860213E+02 -0.79069501846E+01  0.91312301398E+02  0.10000000000E+01 0.  0.
<mgrwt>
<rscale>  0 0.12822240E+03</rscale>
<asrwt>0</asrwt>
<pdfrwt beam="2">  1        1 0.36024783E-01 0.13629095E+03</pdfrwt>
<pdfrwt beam="1">  1       -1 0.10781408E-01 0.13629095E+03</pdfrwt>
<totfact> 0.61995808E+03</totfact>
</mgrwt>
</event>
<event>
 8    3  0.1508318E-003  0.1549089E+03  0.7818608E-02  0.1203877E+00
          1   -1    0    0  501    0  0.00000000000E+00  0.00000000000E+00  0.78106135916E+02  0.78106136078E+02  0.50400000000E-02 0. -1.
         -1   -1    0    0    0  501 -0.00000000000E+00 -0.00000000000E+00 -0.29376696585E+03  0.29376696590E+03  0.50400000000E-02 0.  1.
         25    2    1    2    0    0 -0.91476770035E+02  0.31476412787E+01 -0.18575322076E+03  0.24186987215E+03  0.12497547332E+03 0.  0.
         23    2    1    2    0    0  0.91476770035E+02 -0.31476412787E+01 -0.29907609181E+02  0.13000322983E+03  0.87341099011E+02 0.  0.
        -13    1    4    4    0    0  0.92721356159E+02 -0.42300534944E+00  0.69886920493E+01  0.92985384884E+02  0.10566000000E+00 0. -1.
         13    1    4    4    0    0 -0.12445861240E+01 -0.27246359293E+01 -0.36896301230E+02  0.37017844941E+02  0.10566000000E+00 0.  1.
    9000005    1    3    3    0    0 -0.46605083704E+02  0.27470798550E+02 -0.18290523466E+03  0.19074067072E+03  0.10000000000E+01 0.  0.
    9000005    1    3    3    0    0 -0.44871686331E+02 -0.24323157272E+02 -0.28479860923E+01  0.51129201428E+02  0.10000000000E+01 0.  0.
<mgrwt>
<rscale>  0 0.14726311E+03</rscale>
<asrwt>0</asrwt>
<pdfrwt beam="1">  1        1 0.12016329E-01 0.15490893E+03</pdfrwt>
<pdfrwt beam="2">  1       -1 0.45194917E-01 0.15490893E+03</pdfrwt>
<totfact> 0.24170172E+03</totfact>
</mgrwt>
</event>
<event>
 8    3  0.1508318E-003  0.1266981E+03  0.7818608E-02  0.1247326E+00
          1   -1    0    0  501    0  0.00000000000E+00  0.00000000000E+00  0.15275305911E+04  0.15275305911E+04  0.50400000000E-02 0. -1.
         -1   -1    0    0    0  501 -0.00000000000E+00 -0.00000000000E+00 -0.81451389716E+01  0.81451405309E+01  0.50400000000E-02 0.  1.
         25    2    1    2    0    0 -0.68876381403E+01 -0.19520516202E+02  0.75192957237E+03  0.76252901522E+03  0.12499570848E+03 0.  0.
         23    2    1    2    0    0  0.68876381403E+01  0.19520516202E+02  0.76745587976E+03  0.77314671642E+03  0.91317181409E+02 0.  0.
        -13    1    4    4    0    0  0.30569299392E+02 -0.14316319016E+02  0.58930887438E+03  0.59027485093E+03  0.10566000000E+00 0. -1.
         13    1    4    4    0    0 -0.23681661252E+02  0.33836835218E+02  0.17814700539E+03  0.18287186550E+03  0.10566000000E+00 0.  1.
    9000005    1    3    3    0    0 -0.61145532583E+02  0.86241068307E+01  0.47054157703E+03  0.47457720877E+03  0.10000000000E+01 0.  0.
    9000005    1    3    3    0    0  0.54257894442E+02 -0.28144623032E+02  0.28138799535E+03  0.28795180645E+03  0.10000000000E+01 0.  0.
<mgrwt>
<rscale>  0 0.11747245E+03</rscale>
<asrwt>0</asrwt>
<pdfrwt beam="1">  1        1 0.23500481E+00 0.12669813E+03</pdfrwt>
<pdfrwt beam="2">  1       -1 0.12530979E-02 0.12669813E+03</pdfrwt>
<totfact> 0.90402620E+03</totfact>
</mgrwt>
</event>
<event>
 8    3  0.1508318E-003  0.1269303E+03  0.7818608E-02  0.1246020E+00
          1   -1    0    0  501    0  0.00000000000E+00  0.00000000000E+00  0.84699243682E+03  0.84699243684E+03  0.50400000000E-02 0. -1.
         -1   -1    0    0    0  501 -0.00000000000E+00 -0.00000000000E+00 -0.18734139751E+02  0.18734140429E+02  0.50400000000E-02 0.  1.
         25    2    1    2    0    0  0.21842008499E+02 -0.28825717629E+01  0.66100233038E+03  0.67307903688E+03  0.12500370624E+03 0.  0.
         23    2    1    2    0    0 -0.21842008499E+02  0.28825717629E+01  0.16725596670E+03  0.19264754038E+03  0.93022222424E+02 0.  0.
        -13    1    4    4    0    0 -0.26859972773E+02 -0.29817608956E+02  0.15011642019E+03  0.15538821936E+03  0.10566000000E+00 0. -1.
         13    1    4    4    0    0  0.50179642732E+01  0.32700180718E+02  0.17139546503E+02  0.37259321019E+02  0.10566000000E+00 0.  1.
    9000005    1    3    3    0    0 -0.50999556984E+02 -0.13196614333E+02  0.31037968439E+03  0.31482003418E+03  0.10000000000E+01 0.  0.
    9000005    1    3    3    0    0  0.72841565483E+02  0.10314042570E+02  0.35062264599E+03  0.35825900270E+03  0.10000000000E+01 0.  0.
<mgrwt>
<rscale>  0 0.11824520E+03</rscale>
<asrwt>0</asrwt>
<pdfrwt beam="1">  1        1 0.13030650E+00 0.12693033E+03</pdfrwt>
<pdfrwt beam="2">  1       -1 0.28821761E-02 0.12693033E+03</pdfrwt>
<totfact> 0.81041374E+03</totfact>
</mgrwt>
</event>
<event>
 8    3  0.1508318E-003  0.1686499E+03  0.7818608E-02  0.1185803E+00
         -1   -1    0    0    0  501 -0.00000000000E+00  0.00000000000E+00  0.83910202791E+02  0.83910202942E+02  0.50400000000E-02 0.  1.
          1   -1    0    0  501    0  0.00000000000E+00 -0.00000000000E+00 -0.55121259896E+03  0.55121259899E+03  0.50400000000E-02 0. -1.
         25    2    1    2    0    0  0.11293123244E+03  0.80460201118E+01 -0.45922248401E+03  0.48921169464E+03  0.12499836260E+03 0.  0.
         23    2    1    2    0    0 -0.11293123244E+03 -0.80460201118E+01 -0.80799121568E+01  0.14591110728E+03  0.91687319455E+02 0.  0.
        -13    1    4    4    0    0  0.24220461502E+01  0.11853702505E+02  0.21949652383E+02  0.25063419049E+02  0.10566000000E+00 0.  1.
         13    1    4    4    0    0 -0.11535327859E+03 -0.19899722617E+02 -0.30029564540E+02  0.12084768824E+03  0.10566000000E+00 0. -1.
    9000005    1    3    3    0    0  0.12856002503E+03 -0.66148648993E+00 -0.45193747965E+03  0.46986870838E+03  0.10000000000E+01 0.  0.
    9000005    1    3    3    0    0 -0.15628792593E+02  0.87075066017E+01 -0.72850043658E+01  0.19342986267E+02  0.10000000000E+01 0.  0.
<mgrwt>
<rscale>  0 0.16259042E+03</rscale>
<asrwt>0</asrwt>
<pdfrwt beam="2">  1        1 0.84801936E-01 0.16864991E+03</pdfrwt>
<pdfrwt beam="1">  1       -1 0.12909262E-01 0.16864991E+03</pdfrwt>
<totfact> 0.16024461E+03</totfact>
</mgrwt>
</event>
<event>
 8    3  0.1508318E-003  0.1322488E+03  0.7818608E-02  0.1237614E+00
          1   -1    0    0  501    0  0.00000000000E+00  0.00000000000E+00  0.10280789291E+04  0.10280789291E+04  0.50400000000E-02 0. -1.
         -1   -1    0    0    0  501 -0.00000000000E+00 -0.00000000000E+00 -0.13142234256E+02  0.13142235223E+02  0.50400000000E-02 0.  1.
         25    2    1    2    0    0 -0.24723152254E+02 -0.35387789524E+02  0.58458238573E+03  0.59935490361E+03  0.12500481940E+03 0.  0.
         23    2    1    2    0    0  0.24723152254E+02  0.35387789524E+02  0.43035430913E+03  0.44186626074E+03  0.90429149549E+02 0.  0.
        -13    1    4    4    0    0 -0.31186562542E+02  0.92573582500E+01  0.84442255428E+02  0.90492021918E+02  0.10566000000E+00 0. -1.
         13    1    4    4    0    0  0.55909714796E+02  0.26130431274E+02  0.34591205370E+03  0.35137423882E+03  0.10566000000E+00 0.  1.
    9000005    1    3    3    0    0 -0.62320908330E+02 -0.55184941076E+02  0.46618410609E+03  0.47355875466E+03  0.10000000000E+01 0.  0.
    9000005    1    3    3    0    0  0.37597756076E+02  0.19797151552E+02  0.11839827964E+03  0.12579614896E+03  0.10000000000E+01 0.  0.
<mgrwt>
<rscale>  0 0.12338592E+03</rscale>
<asrwt>0</asrwt>
<pdfrwt beam="1">  1        1 0.15816599E+00 0.13224876E+03</pdfrwt>
<pdfrwt beam="2">  1       -1 0.20218822E-02 0.13224876E+03</pdfrwt>
<totfact> 0.99088569E+03</totfact>
</mgrwt>
</event>
<event>
 8    3  0.1508318E-003  0.1353210E+03  0.7818608E-02  0.1227942E+00
         -1   -1    0    0    0  501 -0.00000000000E+00  0.00000000000E+00  0.16780815346E+03  0.16780815353E+03  0.50400000000E-02 0.  1.
          1   -1    0    0  501    0  0.00000000000E+00 -0.00000000000E+00 -0.96498344692E+02  0.96498344823E+02  0.50400000000E-02 0. -1.
         25    2    1    2    0    0  0.56710086433E+01  0.51529809169E+02  0.64749361430E+02  0.15001416512E+03  0.12499715340E+03 0.  0.
         23    2    1    2    0    0 -0.56710086433E+01 -0.51529809169E+02  0.65604473371E+01  0.11429233324E+03  0.10164751053E+03 0.  0.
        -13    1    4    4    0    0 -0.12422327977E+01 -0.68239933476E+02  0.38217322003E+02  0.78222800565E+02  0.10566000000E+00 0.  1.
         13    1    4    4    0    0 -0.44287758456E+01  0.16710124307E+02 -0.31656874666E+02  0.36069532676E+02  0.10566000000E+00 0. -1.
    9000005    1    3    3    0    0 -0.95473286014E+01  0.66198389433E+02 -0.14112005895E+02  0.68363198852E+02  0.10000000000E+01 0.  0.
    9000005    1    3    3    0    0  0.15218337245E+02 -0.14668580264E+02  0.78861367325E+02  0.81650966263E+02  0.10000000000E+01 0.  0.
<mgrwt>
<rscale>  0 0.12967283E+03</rscale>
<asrwt>0</asrwt>
<pdfrwt beam="2">  1        1 0.14845899E-01 0.13532099E+03</pdfrwt>
<pdfrwt beam="1">  1       -1 0.25816639E-01 0.13532099E+03</pdfrwt>
<totfact> 0.47594191E+03</totfact>
</mgrwt>
</event>
<event>
 8    3  0.1508318E-003  0.1583839E+03  0.7818608E-02  0.1198337E+00
         -1   -1    0    0    0  501 -0.00000000000E+00  0.00000000000E+00  0.52489536682E+02  0.52489536924E+02  0.50400000000E-02 0.  1.
          1   -1    0    0  501    0  0.00000000000E+00 -0.00000000000E+00 -0.41214152276E+03  0.41214152279E+03  0.50400000000E-02 0. -1.
         25    2    1    2    0    0  0.25700245686E+02  0.93807337780E+02 -0.16601961126E+03  0.22945147687E+03  0.12500059866E+03 0.  0.
         23    2    1    2    0    0 -0.25700245686E+02 -0.93807337780E+02 -0.19363237482E+03  0.23517958284E+03  0.91409082474E+02 0.  0.
        -13    1    4    4    0    0 -0.10254689930E+02  0.17418739609E+02 -0.20270000930E+02  0.28626128919E+02  0.10566000000E+00 0.  1.
         13    1    4    4    0    0 -0.15445555757E+02 -0.11122607739E+03 -0.17336237389E+03  0.20655345393E+03  0.10566000000E+00 0. -1.
    9000005    1    3    3    0    0  0.35652460889E+02 -0.21154998938E+02 -0.58652774136E+02  0.71831607676E+02  0.10000000000E+01 0.  0.
    9000005    1    3    3    0    0 -0.99522152029E+01  0.11496233672E+03 -0.10736683712E+03  0.15761986919E+03  0.10000000000E+01 0.  0.
<mgrwt>
<rscale>  0 0.15175200E+03</rscale>
<asrwt>0</asrwt>
<pdfrwt beam="2">  1        1 0.63406386E-01 0.15838393E+03</pdfrwt>
<pdfrwt beam="1">  1       -1 0.80753137E-02 0.15838393E+03</pdfrwt>
<totfact> 0.48005499E+03</totfact>
</mgrwt>
</event>
<event>
 8    3  0.1508318E-003  0.1827118E+03  0.7818608E-02  0.1170487E+00
         -1   -1    0    0    0  501 -0.00000000000E+00  0.00000000000E+00  0.59250946463E+02  0.59250946678E+02  0.50400000000E-02 0.  1.
          1   -1    0    0  501    0  0.00000000000E+00 -0.00000000000E+00 -0.51271400883E+03  0.51271400886E+03  0.50400000000E-02 0. -1.
         25    2    1    2    0    0  0.12652496309E+03 -0.41835412034E+02 -0.28346666031E+03  0.33724910730E+03  0.12499937952E+03 0.  0.
         23    2    1    2    0    0 -0.12652496309E+03  0.41835412034E+02 -0.16999640206E+03  0.23471584824E+03  0.91836728581E+02 0.  0.
        -13    1    4    4    0    0 -0.16850664241E+02 -0.25796764296E+02 -0.18934894947E+02  0.36165720568E+02  0.10566000000E+00 0. -1.
         13    1    4    4    0    0 -0.10967429885E+03  0.67632176330E+02 -0.15106150711E+03  0.19855012767E+03  0.10566000000E+00 0.  1.
    9000005    1    3    3    0    0  0.12414449942E+03  0.38451830651E+01 -0.14245377325E+03  0.18899925841E+03  0.10000000000E+01 0.  0.
    9000005    1    3    3    0    0  0.23804636722E+01 -0.45680595099E+02 -0.14101288707E+03  0.14824984888E+03  0.10000000000E+01 0.  0.
<mgrwt>
<rscale>  0 0.17725465E+03</rscale>
<asrwt>0</asrwt>
<pdfrwt beam="2">  1        1 0.78879075E-01 0.18271183E+03</pdfrwt>
<pdfrwt beam="1">  1       -1 0.91155306E-02 0.18271183E+03</pdfrwt>
<totfact> 0.30259615E+03</totfact>
</mgrwt>
</event>
<event>
 8    3  0.1508318E-003  0.1491486E+03  0.7818608E-02  0.1211479E+00
         -1   -1    0    0    0  501 -0.00000000000E+00  0.00000000000E+00  0.53093709589E+02  0.53093709828E+02  0.50400000000E-02 0.  1.
          1   -1    0    0  501    0  0.00000000000E+00 -0.00000000000E+00 -0.52473347200E+03  0.52473347202E+03  0.50400000000E-02 0. -1.
         25    2    1    2    0    0  0.81427416753E+02  0.17580206403E+01 -0.82431627076E+02  0.17041207983E+03  0.12494714472E+03 0.  0.
         23    2    1    2    0    0 -0.81427416753E+02 -0.17580206403E+01 -0.38920813533E+03  0.40741510202E+03  0.88716277603E+02 0.  0.
        -13    1    4    4    0    0  0.14531483371E+02  0.90899342882E+01 -0.12386137563E+03  0.12504176283E+03  0.10566000000E+00 0.  1.
         13    1    4    4    0    0 -0.95958900123E+02 -0.10847954929E+02 -0.26534675970E+03  0.28237333920E+03  0.10566000000E+00 0. -1.
    9000005    1    3    3    0    0  0.98507165233E+02 -0.35994328785E+02 -0.43493664121E+02  0.11354273260E+03  0.10000000000E+01 0.  0.
    9000005    1    3    3    0    0 -0.17079748481E+02  0.37752349426E+02 -0.38937962955E+02  0.56869347230E+02  0.10000000000E+01 0.  0.
<mgrwt>
<rscale>  0 0.14138414E+03</rscale>
<asrwt>0</asrwt>
<pdfrwt beam="2">  1        1 0.80728223E-01 0.14914860E+03</pdfrwt>
<pdfrwt beam="1">  1       -1 0.81682634E-02 0.14914860E+03</pdfrwt>
<totfact> 0.34422063E+03</totfact>
</mgrwt>
</event>
<event>
 8    3  0.1508318E-003  0.1309077E+03  0.7818608E-02  0.1239664E+00
         -1   -1    0    0    0  501 -0.00000000000E+00  0.00000000000E+00  0.13338018371E+03  0.13338018381E+03  0.50400000000E-02 0.  1.
          1   -1    0    0  501    0  0.00000000000E+00 -0.00000000000E+00 -0.10659988287E+03  0.10659988299E+03  0.50400000000E-02 0. -1.
         25    2    1    2    0    0 -0.37227430884E+02 -0.11226076471E+02 -0.16317290603E+02  0.13192073930E+03  0.12499968433E+03 0.  0.
         23    2    1    2    0    0  0.37227430884E+02  0.11226076471E+02  0.43097591441E+02  0.10805932750E+03  0.91145540035E+02 0.  0.
        -13    1    4    4    0    0 -0.99307397597E+01  0.80924147758E+01  0.57295722863E+02  0.58710457258E+02  0.10566000000E+00 0.  1.
         13    1    4    4    0    0  0.47158170644E+02  0.31336616956E+01 -0.14198131422E+02  0.49348870240E+02  0.10566000000E+00 0. -1.
    9000005    1    3    3    0    0 -0.18804676480E+02  0.37217936271E+02 -0.53709456719E+02  0.68003649746E+02  0.10000000000E+01 0.  0.
    9000005    1    3    3    0    0 -0.18422754404E+02 -0.48444012742E+02  0.37392166116E+02  0.63917089556E+02  0.10000000000E+01 0.  0.
<mgrwt>
<rscale>  0 0.12210533E+03</rscale>
<asrwt>0</asrwt>
<pdfrwt beam="2">  1        1 0.16399982E-01 0.13090771E+03</pdfrwt>
<pdfrwt beam="1">  1       -1 0.20520028E-01 0.13090771E+03</pdfrwt>
<totfact> 0.60690364E+03</totfact>
</mgrwt>
</event>
<event>
 8    3  0.1508318E-003  0.1258332E+03  0.7818608E-02  0.1250814E+00
          1   -1    0    0  501    0  0.00000000000E+00  0.00000000000E+00  0.10172398236E+04  0.10172398236E+04  0.50400000000E-02 0. -1.
         -1   -1    0    0    0  501 -0.00000000000E+00 -0.00000000000E+00 -0.11359579511E+02  0.11359580629E+02  0.50400000000E-02 0.  1.
         25    2    1    2    0    0 -0.93984707068E+00  0.14480580682E+02  0.58117971879E+03  0.59464599882E+03  0.12499371121E+03 0.  0.
         23    2    1    2    0    0  0.93984707068E+00 -0.14480580682E+02  0.42470052526E+03  0.43395340539E+03  0.87945729647E+02 0.  0.
        -13    1    4    4    0    0 -0.16003129468E+02 -0.72543436289E+01  0.41002702766E+03  0.41040333847E+03  0.10566000000E+00 0. -1.
         13    1    4    4    0    0  0.16942976538E+02 -0.72262370528E+01  0.14673497602E+02  0.23550066918E+02  0.10566000000E+00 0.  1.
    9000005    1    3    3    0    0  0.29006417540E+02  0.61897497578E+02  0.36230277304E+03  0.36869631381E+03  0.10000000000E+01 0.  0.
    9000005    1    3    3    0    0 -0.29946264611E+02 -0.47416916896E+02  0.21887694575E+03  0.22594968501E+03  0.10000000000E+01 0.  0.
<mgrwt>
<rscale>  0 0.11544054E+03</rscale>
<asrwt>0</asrwt>
<pdfrwt beam="1">  1        1 0.15649845E+00 0.12583322E+03</pdfrwt>
<pdfrwt beam="2">  1       -1 0.17476275E-02 0.12583322E+03</pdfrwt>
<totfact> 0.12405684E+04</totfact>
</mgrwt>
</event>
<event>
 8    3  0.1508318E-003  0.2731223E+03  0.7818608E-02  0.1101554E+00
         -1   -1    0    0    0  501 -0.00000000000E+00  0.00000000000E+00  0.13625192055E+03  0.13625192064E+03  0.50400000000E-02 0.  1.
          1   -1    0    0  501    0  0.00000000000E+00 -0.00000000000E+00 -0.54307157585E+03  0.54307157587E+03  0.50400000000E-02 0. -1.
         25    2    1    2    0    0  0.61052968102E+02  0.23503924725E+03 -0.13789754706E+03  0.30595999890E+03  0.12499949912E+03 0.  0.
         23    2    1    2    0    0 -0.61052968102E+02 -0.23503924725E+03 -0.26892210824E+03  0.37336349762E+03  0.90057139579E+02 0.  0.
        -13    1    4    4    0    0 -0.59371831696E+02 -0.63570865352E+02 -0.79305150644E+02  0.11770975917E+03  0.10566000000E+00 0.  1.
         13    1    4    4    0    0 -0.16811364062E+01 -0.17146838190E+03 -0.18961695760E+03  0.25565373845E+03  0.10566000000E+00 0. -1.
    9000005    1    3    3    0    0  0.41096197759E+02  0.49586391012E+01 -0.12973592428E+02  0.43391239582E+02  0.10000000000E+01 0.  0.
    9000005    1    3    3    0    0  0.19956770343E+02  0.23008060815E+03 -0.12492395463E+03  0.26256875932E+03  0.10000000000E+01 0.  0.
<mgrwt>
<rscale>  0 0.26952122E+03</rscale>
<asrwt>0</asrwt>
<pdfrwt beam="2">  1        1 0.83549472E-01 0.27312229E+03</pdfrwt>
<pdfrwt beam="1">  1       -1 0.20961834E-01 0.27312229E+03</pdfrwt>
<totfact> 0.75605259E+02</totfact>
</mgrwt>
</event>
<event>
 8    3  0.1508318E-003  0.1303328E+03  0.7818608E-02  0.1240782E+00
          1   -1    0    0  501    0  0.00000000000E+00  0.00000000000E+00  0.80200250991E+03  0.80200250992E+03  0.50400000000E-02 0. -1.
         -1   -1    0    0    0  501 -0.00000000000E+00 -0.00000000000E+00 -0.17731713002E+02  0.17731713718E+02  0.50400000000E-02 0.  1.
         25    2    1    2    0    0  0.32760143840E+02 -0.16985912753E+02  0.55925270227E+03  0.57423881114E+03  0.12499951587E+03 0.  0.
         23    2    1    2    0    0 -0.32760143840E+02  0.16985912753E+02  0.22501809463E+03  0.24549541250E+03  0.90956618168E+02 0.  0.
        -13    1    4    4    0    0  0.44214889106E+01 -0.31215136550E+02  0.41324125873E+02  0.51977195549E+02  0.10566000000E+00 0.  1.
         13    1    4    4    0    0 -0.37181632750E+02  0.48201049302E+02  0.18369396876E+03  0.19351821695E+03  0.10566000000E+00 0. -1.
    9000005    1    3    3    0    0  0.42877612346E+02  0.46948719690E+02  0.22703519077E+03  0.23577245338E+03  0.10000000000E+01 0.  0.
    9000005    1    3    3    0    0 -0.10117468507E+02 -0.63934632443E+02  0.33221751150E+03  0.33846635777E+03  0.10000000000E+01 0.  0.
<mgrwt>
<rscale>  0 0.12141458E+03</rscale>
<asrwt>0</asrwt>
<pdfrwt beam="1">  1        1 0.12338503E+00 0.13033276E+03</pdfrwt>
<pdfrwt beam="2">  1       -1 0.27279553E-02 0.13033276E+03</pdfrwt>
<totfact> 0.95539313E+03</totfact>
</mgrwt>
</event>
<event>
 8    3  0.1508318E-003  0.1599883E+03  0.7818608E-02  0.1196325E+00
          1   -1    0    0  501    0  0.00000000000E+00  0.00000000000E+00  0.30082612535E+03  0.30082612539E+03  0.50400000000E-02 0. -1.
         -1   -1    0    0    0  501 -0.00000000000E+00 -0.00000000000E+00 -0.73470628482E+02  0.73470628655E+02  0.50400000000E-02 0.  1.
         25    2    1    2    0    0  0.15785833033E+02  0.98597785590E+02  0.10126665754E+03  0.18934412965E+03  0.12500219061E+03 0.  0.
         23    2    1    2    0    0 -0.15785833033E+02 -0.98597785590E+02  0.12608883934E+03  0.18495262440E+03  0.91314632009E+02 0.  0.
        -13    1    4    4    0    0 -0.30971773675E+02  0.62800774252E+00  0.12607547527E+02  0.33445576343E+02  0.10566000000E+00 0.  1.
         13    1    4    4    0    0  0.15185940641E+02 -0.99225793333E+02  0.11348129181E+03  0.15150704805E+03  0.10566000000E+00 0. -1.
    9000005    1    3    3    0    0 -0.17658273392E+02  0.89093211008E+02  0.96452563028E+01  0.91342464583E+02  0.10000000000E+01 0.  0.
    9000005    1    3    3    0    0  0.33444106425E+02  0.95045745819E+01  0.91621401232E+02  0.98001665069E+02  0.10000000000E+01 0.  0.
<mgrwt>
<rscale>  0 0.15342620E+03</rscale>
<asrwt>0</asrwt>
<pdfrwt beam="1">  1        1 0.46280943E-01 0.15998832E+03</pdfrwt>
<pdfrwt beam="2">  1       -1 0.11303173E-01 0.15998832E+03</pdfrwt>
<totfact> 0.42648877E+03</totfact>
</mgrwt>
</event>
<event>
 8    3  0.1508318E-003  0.1567283E+03  0.7818608E-02  0.1200366E+00
          1   -1    0    0  501    0  0.00000000000E+00  0.00000000000E+00  0.13565508059E+04  0.13565508059E+04  0.50400000000E-02 0. -1.
         -1   -1    0    0    0  501 -0.00000000000E+00 -0.00000000000E+00 -0.16249605803E+02  0.16249606585E+02  0.50400000000E-02 0.  1.
         25    2    1    2    0    0  0.40616850192E+02  0.85375128548E+02  0.88641991399E+03  0.90016889325E+03  0.12500052544E+03 0.  0.
         23    2    1    2    0    0 -0.40616850192E+02 -0.85375128548E+02  0.45388128608E+03  0.47263151922E+03  0.91835124067E+02 0.  0.
        -13    1    4    4    0    0 -0.22384254459E+02 -0.52100905721E+02  0.41292767649E+03  0.41680311468E+03  0.10566000000E+00 0. -1.
         13    1    4    4    0    0 -0.18232595733E+02 -0.33274222827E+02  0.40953609590E+02  0.55828404548E+02  0.10566000000E+00 0.  1.
    9000005    1    3    3    0    0 -0.27842241752E+02  0.79626985102E+02  0.39021348005E+03  0.39922826453E+03  0.10000000000E+01 0.  0.
    9000005    1    3    3    0    0  0.68459091944E+02  0.57481434451E+01  0.49620643394E+03  0.50094062872E+03  0.10000000000E+01 0.  0.
<mgrwt>
<rscale>  0 0.15008694E+03</rscale>
<asrwt>0</asrwt>
<pdfrwt beam="1">  1        1 0.20870014E+00 0.15672834E+03</pdfrwt>
<pdfrwt beam="2">  1       -1 0.24999392E-02 0.15672834E+03</pdfrwt>
<totfact> 0.43572276E+03</totfact>
</mgrwt>
</event>
<event>
 8    3  0.1508318E-003  0.2239079E+03  0.7818608E-02  0.1134229E+00
         -1   -1    0    0    0  501 -0.00000000000E+00  0.00000000000E+00  0.13831503591E+03  0.13831503600E+03  0.50400000000E-02 0.  1.
          1   -1    0    0  501    0  0.00000000000E+00 -0.00000000000E+00 -0.71809408929E+03  0.71809408931E+03  0.50400000000E-02 0. -1.
         25    2    1    2    0    0 -0.13799478104E+03  0.12436862141E+03 -0.60767166152E+03  0.64761069293E+03  0.12499859115E+03 0.  0.
         23    2    1    2    0    0  0.13799478104E+03 -0.12436862141E+03  0.27892608135E+02  0.20879843238E+03  0.91151929177E+02 0.  0.
        -13    1    4    4    0    0  0.33034835901E+02 -0.90729574765E+02  0.17013619496E+02  0.98044023441E+02  0.10566000000E+00 0.  1.
         13    1    4    4    0    0  0.10495994514E+03 -0.33639046640E+02  0.10878988639E+02  0.11075440894E+03  0.10566000000E+00 0. -1.
    9000005    1    3    3    0    0 -0.13367614700E+03  0.48270194985E+02 -0.45953341156E+03  0.48101068630E+03  0.10000000000E+01 0.  0.
    9000005    1    3    3    0    0 -0.43186340367E+01  0.76098426421E+02 -0.14813824997E+03  0.16660000662E+03  0.10000000000E+01 0.  0.
<mgrwt>
<rscale>  0 0.21953633E+03</rscale>
<asrwt>0</asrwt>
<pdfrwt beam="2">  1        1 0.11047601E+00 0.22390793E+03</pdfrwt>
<pdfrwt beam="1">  1       -1 0.21279237E-01 0.22390793E+03</pdfrwt>
<totfact> 0.49868187E+02</totfact>
</mgrwt>
</event>
<event>
 8    3  0.1508318E-003  0.1367502E+03  0.7818608E-02  0.1230238E+00
          1   -1    0    0  501    0  0.00000000000E+00  0.00000000000E+00  0.10121250930E+04  0.10121250930E+04  0.50400000000E-02 0. -1.
         -1   -1    0    0    0  501 -0.00000000000E+00 -0.00000000000E+00 -0.23815994939E+02  0.23815995473E+02  0.50400000000E-02 0.  1.
         25    2    1    2    0    0  0.15065418692E+02  0.53374573255E+02  0.21051014608E+03  0.25102817723E+03  0.12499924901E+03 0.  0.
         23    2    1    2    0    0 -0.15065418692E+02 -0.53374573255E+02  0.77779895202E+03  0.78491291129E+03  0.89673054120E+02 0.  0.
        -13    1    4    4    0    0  0.78574010871E+01 -0.25259250893E+02  0.68141725848E+03  0.68193053885E+03  0.10566000000E+00 0. -1.
         13    1    4    4    0    0 -0.22922819780E+02 -0.28115322362E+02  0.96381693541E+02  0.10298237243E+03  0.10566000000E+00 0.  1.
    9000005    1    3    3    0    0 -0.13336542407E+02  0.41665942970E+02  0.21549184576E+03  0.21989008562E+03  0.10000000000E+01 0.  0.
    9000005    1    3    3    0    0  0.28401961099E+02  0.11708630286E+02 -0.49816996795E+01  0.31138091611E+02  0.10000000000E+01 0.  0.
<mgrwt>
<rscale>  0 0.12814298E+03</rscale>
<asrwt>0</asrwt>
<pdfrwt beam="1">  1        1 0.15571153E+00 0.13675023E+03</pdfrwt>
<pdfrwt beam="2">  1       -1 0.36639997E-02 0.13675023E+03</pdfrwt>
<totfact> 0.42975825E+03</totfact>
</mgrwt>
</event>
<event>
 8    3  0.1508318E-003  0.1638075E+03  0.7818608E-02  0.1190885E+00
          1   -1    0    0  501    0  0.00000000000E+00  0.00000000000E+00  0.81352374339E+03  0.81352374340E+03  0.50400000000E-02 0. -1.
         -1   -1    0    0    0  501 -0.00000000000E+00 -0.00000000000E+00 -0.34024983375E+02  0.34024983748E+02  0.50400000000E-02 0.  1.
         25    2    1    2    0    0  0.97148471039E+02 -0.42071762671E+02  0.57966425330E+03  0.60236496382E+03  0.12500017781E+03 0.  0.
         23    2    1    2    0    0 -0.97148471039E+02  0.42071762671E+02  0.19983450672E+03  0.24518376333E+03  0.94727974144E+02 0.  0.
        -13    1    4    4    0    0 -0.37887795288E+02 -0.15780277866E+02  0.13168091297E+03  0.13792888097E+03  0.10566000000E+00 0.  1.
         13    1    4    4    0    0 -0.59260675752E+02  0.57852040536E+02  0.68153593746E+02  0.10725488236E+03  0.10566000000E+00 0. -1.
    9000005    1    3    3    0    0  0.23937891881E+02 -0.65094111590E+02  0.41418299154E+03  0.41995096917E+03  0.10000000000E+01 0.  0.
    9000005    1    3    3    0    0  0.73210579158E+02  0.23022348920E+02  0.16548126176E+03  0.18241399465E+03  0.10000000000E+01 0.  0.
<mgrwt>
<rscale>  0 0.15807707E+03</rscale>
<asrwt>0</asrwt>
<pdfrwt beam="1">  1        1 0.12515749E+00 0.16380752E+03</pdfrwt>
<pdfrwt beam="2">  1       -1 0.52346134E-02 0.16380752E+03</pdfrwt>
<totfact> 0.36278744E+03</totfact>
</mgrwt>
</event>
<event>
 8    3  0.1508318E-003  0.1923294E+03  0.7818608E-02  0.1161163E+00
         -1   -1    0    0    0  501 -0.00000000000E+00  0.00000000000E+00  0.45664861237E+03  0.45664861240E+03  0.50400000000E-02 0. -1.
          1   -1    0    0  501    0  0.00000000000E+00 -0.00000000000E+00 -0.73169137786E+02  0.73169137960E+02  0.50400000000E-02 0.  1.
         25    2    1    2    0    0 -0.90552092467E+02  0.11473131713E+03  0.22416313761E+03  0.29536369837E+03  0.12501058144E+03 0.  0.
         23    2    1    2    0    0  0.90552092467E+02 -0.11473131713E+03  0.15931633698E+03  0.23445405199E+03  0.90686551857E+02 0.  0.
        -13    1    4    4    0    0  0.55603015204E+02 -0.79583103615E+01  0.76381474504E+02  0.94811237809E+02  0.10566000000E+00 0. -1.
         13    1    4    4    0    0  0.34949077263E+02 -0.10677300677E+03  0.82934862478E+02  0.13964281419E+03  0.10566000000E+00 0.  1.
    9000005    1    3    3    0    0 -0.11224535942E+03  0.11899453876E+03  0.16566306833E+03  0.23281746750E+03  0.10000000000E+01 0.  0.
    9000005    1    3    3    0    0  0.21693266957E+02 -0.42632216279E+01  0.58500069279E+02  0.62546230867E+02  0.10000000000E+01 0.  0.
<mgrwt>
<rscale>  0 0.18703458E+03</rscale>
<asrwt>0</asrwt>
<pdfrwt beam="2">  1        1 0.11256790E-01 0.19232941E+03</pdfrwt>
<pdfrwt beam="1">  1       -1 0.70253634E-01 0.19232941E+03</pdfrwt>
<totfact> 0.11547174E+03</totfact>
</mgrwt>
</event>
<event>
 8    3  0.1508318E-003  0.1289788E+03  0.7818608E-02  0.1241595E+00
          1   -1    0    0  501    0  0.00000000000E+00  0.00000000000E+00  0.16241613863E+04  0.16241613863E+04  0.50400000000E-02 0. -1.
         -1   -1    0    0    0  501 -0.00000000000E+00 -0.00000000000E+00 -0.10276841701E+02  0.10276842936E+02  0.50400000000E-02 0.  1.
         25    2    1    2    0    0 -0.28257880820E+02  0.14591451980E+02  0.12664936367E+04  0.12730442486E+04  0.12499643451E+03 0.  0.
         23    2    1    2    0    0  0.28257880820E+02 -0.14591451980E+02  0.34739090784E+03  0.36139398064E+03  0.94412647971E+02 0.  0.
        -13    1    4    4    0    0  0.60388549580E+02 -0.25044708717E+02  0.21205299071E+03  0.22190199726E+03  0.10566000000E+00 0.  1.
         13    1    4    4    0    0 -0.32130668760E+02  0.10453256737E+02  0.13533791713E+03  0.13949198338E+03  0.10566000000E+00 0. -1.
    9000005    1    3    3    0    0  0.11038976196E+02 -0.49393154261E+02  0.65579526031E+03  0.65774612589E+03  0.10000000000E+01 0.  0.
    9000005    1    3    3    0    0 -0.39296857016E+02  0.63984606240E+02  0.61069837644E+03  0.61529812269E+03  0.10000000000E+01 0.  0.
<mgrwt>
<rscale>  0 0.12091521E+03</rscale>
<asrwt>0</asrwt>
<pdfrwt beam="1">  1        1 0.24987085E+00 0.12897878E+03</pdfrwt>
<pdfrwt beam="2">  1       -1 0.15810535E-02 0.12897878E+03</pdfrwt>
<totfact> 0.56229030E+03</totfact>
</mgrwt>
</event>
<event>
 8    3  0.1508318E-003  0.1742159E+03  0.7818608E-02  0.1179652E+00
          1   -1    0    0  501    0  0.00000000000E+00  0.00000000000E+00  0.33636961570E+02  0.33636961947E+02  0.50400000000E-02 0. -1.
         -1   -1    0    0    0  501 -0.00000000000E+00 -0.00000000000E+00 -0.79794692294E+03  0.79794692296E+03  0.50400000000E-02 0.  1.
         25    2    1    2    0    0 -0.84759113023E+01  0.12105315982E+03 -0.45151085906E+03  0.48395582798E+03  0.12500191604E+03 0.  0.
         23    2    1    2    0    0  0.84759113023E+01 -0.12105315982E+03 -0.31279910232E+03  0.34762805693E+03  0.90974056623E+02 0.  0.
        -13    1    4    4    0    0  0.12928695051E+02  0.17588297096E+01 -0.17287499107E+01  0.13162233016E+02  0.10566000000E+00 0. -1.
         13    1    4    4    0    0 -0.44527837486E+01 -0.12281198953E+03 -0.31107035241E+03  0.33446582391E+03  0.10566000000E+00 0.  1.
    9000005    1    3    3    0    0 -0.50745491584E+02  0.44538603367E+02 -0.31272470279E+03  0.31993207380E+03  0.10000000000E+01 0.  0.
    9000005    1    3    3    0    0  0.42269580282E+02  0.76514556452E+02 -0.13878615626E+03  0.16402375418E+03  0.10000000000E+01 0.  0.
<mgrwt>
<rscale>  0 0.16828157E+03</rscale>
<asrwt>0</asrwt>
<pdfrwt beam="1">  1        1 0.51749178E-02 0.17421592E+03</pdfrwt>
<pdfrwt beam="2">  1       -1 0.12276105E+00 0.17421592E+03</pdfrwt>
<totfact> 0.98366113E+02</totfact>
</mgrwt>
</event>
<event>
 8    3  0.1508318E-003  0.1299291E+03  0.7818608E-02  0.1249189E+00
          1   -1    0    0  501    0  0.00000000000E+00  0.00000000000E+00  0.56091591830E+03  0.56091591832E+03  0.50400000000E-02 0. -1.
         -1   -1    0    0    0  501 -0.00000000000E+00 -0.00000000000E+00 -0.20590908948E+02  0.20590909564E+02  0.50400000000E-02 0.  1.
         25    2    1    2    0    0 -0.22053798786E+01  0.35346948743E+02  0.29596022898E+03  0.32322442320E+03  0.12500920017E+03 0.  0.
         23    2    1    2    0    0  0.22053798786E+01 -0.35346948743E+02  0.24436478037E+03  0.25828240469E+03  0.75771922236E+02 0.  0.
        -13    1    4    4    0    0 -0.13969589763E+02 -0.55435986774E+02  0.18287187766E+03  0.19159966825E+03  0.10566000000E+00 0. -1.
         13    1    4    4    0    0  0.16174969642E+02  0.20089038030E+02  0.61492902706E+02  0.66682736440E+02  0.10566000000E+00 0.  1.
    9000005    1    3    3    0    0 -0.18963743891E+01  0.72083207549E+01  0.29495244993E+03  0.29504830764E+03  0.10000000000E+01 0.  0.
    9000005    1    3    3    0    0 -0.30900548951E+00  0.28138627989E+02  0.10077790566E+01  0.28176115561E+02  0.10000000000E+01 0.  0.
<mgrwt>
<rscale>  0 0.11638134E+03</rscale>
<asrwt>0</asrwt>
<pdfrwt beam="1">  1        1 0.86294749E-01 0.12992910E+03</pdfrwt>
<pdfrwt beam="2">  1       -1 0.31678325E-02 0.12992910E+03</pdfrwt>
<totfact> 0.12728393E+04</totfact>
</mgrwt>
</event>
<event>
 8    3  0.1508318E-003  0.1370279E+03  0.7818608E-02  0.1228393E+00
          1   -1    0    0  501    0  0.00000000000E+00  0.00000000000E+00  0.17330865912E+03  0.17330865920E+03  0.50400000000E-02 0. -1.
         -1   -1    0    0    0  501 -0.00000000000E+00 -0.00000000000E+00 -0.87229392716E+02  0.87229392861E+02  0.50400000000E-02 0.  1.
         25    2    1    2    0    0  0.47726752620E+01  0.55938443964E+02  0.48970242105E+02  0.14551537391E+03  0.12499900596E+03 0.  0.
         23    2    1    2    0    0 -0.47726752620E+01 -0.55938443964E+02  0.37109024304E+02  0.11502267815E+03  0.93280484887E+02 0.  0.
        -13    1    4    4    0    0 -0.17071658602E+00 -0.51141053673E+02 -0.21905073105E+02  0.55635239792E+02  0.10566000000E+00 0.  1.
         13    1    4    4    0    0 -0.46019586760E+01 -0.47973902912E+01  0.59014097409E+02  0.59387438354E+02  0.10566000000E+00 0. -1.
    9000005    1    3    3    0    0  0.42687847845E+02  0.31619675159E+02  0.76182046834E+02  0.92880355676E+02  0.10000000000E+01 0.  0.
    9000005    1    3    3    0    0 -0.37915172583E+02  0.24318768805E+02 -0.27211804729E+02  0.52635018237E+02  0.10000000000E+01 0.  0.
<mgrwt>
<rscale>  0 0.12937068E+03</rscale>
<asrwt>0</asrwt>
<pdfrwt beam="1">  1        1 0.26662871E-01 0.13702788E+03</pdfrwt>
<pdfrwt beam="2">  1       -1 0.13419907E-01 0.13702788E+03</pdfrwt>
<totfact> 0.64304664E+03</totfact>
</mgrwt>
</event>
<event>
 8    3  0.1508318E-003  0.1363177E+03  0.7818608E-02  0.1223618E+00
         -1   -1    0    0    0  501 -0.00000000000E+00  0.00000000000E+00  0.13928332910E+04  0.13928332910E+04  0.50400000000E-02 0.  1.
          1   -1    0    0  501    0  0.00000000000E+00 -0.00000000000E+00 -0.13019464546E+02  0.13019465522E+02  0.50400000000E-02 0. -1.
         25    2    1    2    0    0 -0.47406561231E+02 -0.26640500823E+02  0.92236987975E+03  0.93238871449E+03  0.12500168602E+03 0.  0.
         23    2    1    2    0    0  0.47406561231E+02  0.26640500823E+02  0.45744394669E+03  0.47346404202E+03  0.10934411917E+03 0.  0.
        -13    1    4    4    0    0 -0.96282672253E+01 -0.30692951946E+02  0.62138624008E+02  0.69971284014E+02  0.10566000000E+00 0. -1.
         13    1    4    4    0    0  0.57034828456E+02  0.57333452770E+02  0.39530532268E+03  0.40349275801E+03  0.10566000000E+00 0.  1.
    9000005    1    3    3    0    0 -0.67215883358E+02 -0.24149440996E+02  0.89814432012E+03  0.90098023854E+03  0.10000000000E+01 0.  0.
    9000005    1    3    3    0    0  0.19809322127E+02 -0.24910598277E+01  0.24225559630E+02  0.31408475951E+02  0.10000000000E+01 0.  0.
<mgrwt>
<rscale>  0 0.13262051E+03</rscale>
<asrwt>0</asrwt>
<pdfrwt beam="2">  1        1 0.20029942E-02 0.13631772E+03</pdfrwt>
<pdfrwt beam="1">  1       -1 0.21428209E+00 0.13631772E+03</pdfrwt>
<totfact> 0.79875970E+02</totfact>
</mgrwt>
</event>
<event>
 8    3  0.1508318E-003  0.1702322E+03  0.7818608E-02  0.1184229E+00
          1   -1    0    0  501    0  0.00000000000E+00  0.00000000000E+00  0.40701250429E+02  0.40701250741E+02  0.50400000000E-02 0. -1.
         -1   -1    0    0    0  501 -0.00000000000E+00 -0.00000000000E+00 -0.63035763525E+03  0.63035763527E+03  0.50400000000E-02 0.  1.
         25    2    1    2    0    0 -0.25566802507E+02  0.11269500743E+03 -0.26760070817E+03  0.31715791444E+03  0.12500071037E+03 0.  0.
         23    2    1    2    0    0  0.25566802507E+02 -0.11269500743E+03 -0.32205567666E+03  0.35390097157E+03  0.90400291588E+02 0.  0.
        -13    1    4    4    0    0 -0.26648616225E+02 -0.11093717190E+02 -0.37880325758E+02  0.47625093715E+02  0.10566000000E+00 0. -1.
         13    1    4    4    0    0  0.52215418731E+02 -0.10160129024E+03 -0.28417535090E+03  0.30627587785E+03  0.10566000000E+00 0.  1.
    9000005    1    3    3    0    0 -0.41040525221E+02  0.27751938361E+02 -0.17469139512E+02  0.52542036775E+02  0.10000000000E+01 0.  0.
    9000005    1    3    3    0    0  0.15473722714E+02  0.84943069070E+02 -0.25013156865E+03  0.26461587767E+03  0.10000000000E+01 0.  0.
<mgrwt>
<rscale>  0 0.16402189E+03</rscale>
<asrwt>0</asrwt>
<pdfrwt beam="1">  1        1 0.62617313E-02 0.17023221E+03</pdfrwt>
<pdfrwt beam="2">  1       -1 0.96978091E-01 0.17023221E+03</pdfrwt>
<totfact> 0.12967617E+03</totfact>
</mgrwt>
</event>
<event>
 8    3  0.1508318E-003  0.1825183E+03  0.7818608E-02  0.1171014E+00
          1   -1    0    0  501    0  0.00000000000E+00  0.00000000000E+00  0.60928243859E+03  0.60928243861E+03  0.50400000000E-02 0. -1.
         -1   -1    0    0    0  501 -0.00000000000E+00 -0.00000000000E+00 -0.48684398284E+02  0.48684398545E+02  0.50400000000E-02 0.  1.
         25    2    1    2    0    0 -0.12148061091E+03  0.54123009041E+02  0.26734469531E+03  0.32370685186E+03  0.12500440352E+03 0.  0.
         23    2    1    2    0    0  0.12148061091E+03 -0.54123009041E+02  0.29325334500E+03  0.33425998530E+03  0.89696011523E+02 0.  0.
        -13    1    4    4    0    0  0.12637756610E+02  0.97283711421E+01  0.11361712801E+03  0.11473106397E+03  0.10566000000E+00 0. -1.
         13    1    4    4    0    0  0.10884285430E+03 -0.63851380183E+02  0.17963621699E+03  0.21952892133E+03  0.10566000000E+00 0.  1.
    9000005    1    3    3    0    0 -0.46268946832E+02  0.42922739094E+02  0.21996744488E+02  0.66843352252E+02  0.10000000000E+01 0.  0.
    9000005    1    3    3    0    0 -0.75211664074E+02  0.11200269947E+02  0.24534795082E+03  0.25686349961E+03  0.10000000000E+01 0.  0.
<mgrwt>
<rscale>  0 0.17672155E+03</rscale>
<asrwt>0</asrwt>
<pdfrwt beam="1">  1        1 0.93735755E-01 0.18251833E+03</pdfrwt>
<pdfrwt beam="2">  1       -1 0.74899078E-02 0.18251833E+03</pdfrwt>
<totfact> 0.32315818E+03</totfact>
</mgrwt>
</event>
<event>
 8    3  0.1508318E-003  0.1551917E+03  0.7818608E-02  0.1202502E+00
         -1   -1    0    0    0  501 -0.00000000000E+00  0.00000000000E+00  0.33026582528E+03  0.33026582532E+03  0.50400000000E-02 0.  1.
          1   -1    0    0  501    0  0.00000000000E+00 -0.00000000000E+00 -0.77510911457E+02  0.77510911620E+02  0.50400000000E-02 0. -1.
         25    2    1    2    0    0  0.14694241562E+01 -0.91964051954E+02  0.42718103479E+02  0.16096363045E+03  0.12499963161E+03 0.  0.
         23    2    1    2    0    0 -0.14694241562E+01  0.91964051954E+02  0.21003681034E+03  0.24681310649E+03  0.91332917267E+02 0.  0.
        -13    1    4    4    0    0 -0.14843302104E+02  0.67443490306E+02  0.20759021267E+03  0.21877535410E+03  0.10566000000E+00 0.  1.
         13    1    4    4    0    0  0.13373877948E+02  0.24520561648E+02  0.24465976770E+01  0.28037752390E+02  0.10566000000E+00 0. -1.
    9000005    1    3    3    0    0 -0.21795816719E+02 -0.59875417134E+02  0.82867214599E+02  0.10453754569E+03  0.10000000000E+01 0.  0.
    9000005    1    3    3    0    0  0.23265240875E+02 -0.32088634820E+02 -0.40149111120E+02  0.56426084760E+02  0.10000000000E+01 0.  0.
<mgrwt>
<rscale>  0 0.14836074E+03</rscale>
<asrwt>0</asrwt>
<pdfrwt beam="2">  1        1 0.11924756E-01 0.15519167E+03</pdfrwt>
<pdfrwt beam="1">  1       -1 0.50810127E-01 0.15519167E+03</pdfrwt>
<totfact> 0.19737811E+03</totfact>
</mgrwt>
</event>
<event>
 8    3  0.1508318E-003  0.2017586E+03  0.7818608E-02  0.1152624E+00
         -1   -1    0    0    0  501 -0.00000000000E+00  0.00000000000E+00  0.22202217780E+02  0.22202218352E+02  0.50400000000E-02 0.  1.
          1   -1    0    0  501    0  0.00000000000E+00 -0.00000000000E+00 -0.19847906388E+04  0.19847906388E+04  0.50400000000E-02 0. -1.
         25    2    1    2    0    0  0.70176789623E+02  0.14197266834E+03 -0.61685429622E+03  0.64901135831E+03  0.12500200034E+03 0.  0.
         23    2    1    2    0    0 -0.70176789623E+02 -0.14197266834E+03 -0.13457341248E+04  0.13579814988E+04  0.89623636436E+02 0.  0.
        -13    1    4    4    0    0 -0.14563595210E+02  0.21581768891E+01 -0.35225276693E+03  0.35256031967E+03  0.10566000000E+00 0. -1.
         13    1    4    4    0    0 -0.55613194413E+02 -0.14413084523E+03 -0.99348135782E+03  0.10054211791E+04  0.10566000000E+00 0.  1.
    9000005    1    3    3    0    0 -0.15638343679E+02  0.32651668023E+02 -0.31049833805E+03  0.31260343432E+03  0.10000000000E+01 0.  0.
    9000005    1    3    3    0    0  0.85815133302E+02  0.10932100032E+03 -0.30635595817E+03  0.33640792399E+03  0.10000000000E+01 0.  0.
<mgrwt>
<rscale>  0 0.19661855E+03</rscale>
<asrwt>0</asrwt>
<pdfrwt beam="2">  1        1 0.30535227E+00 0.20175857E+03</pdfrwt>
<pdfrwt beam="1">  1       -1 0.34157274E-02 0.20175857E+03</pdfrwt>
<totfact> 0.10803217E+03</totfact>
</mgrwt>
</event>
<event>
 8    3  0.1508318E-003  0.3243748E+03  0.7818608E-02  0.1075018E+00
          1   -1    0    0  501    0  0.00000000000E+00  0.00000000000E+00  0.27991853620E+03  0.27991853624E+03  0.50400000000E-02 0. -1.
         -1   -1    0    0    0  501 -0.00000000000E+00 -0.00000000000E+00 -0.45139252256E+03  0.45139252259E+03  0.50400000000E-02 0.  1.
         25    2    1    2    0    0 -0.26328792724E+03 -0.14238380874E+03  0.75406791445E+02  0.33302435625E+03  0.12500142416E+03 0.  0.
         23    2    1    2    0    0  0.26328792724E+03  0.14238380874E+03 -0.24688077781E+03  0.39828670258E+03  0.89936073845E+02 0.  0.
        -13    1    4    4    0    0  0.15707125255E+03  0.67394040472E+02 -0.19228591642E+03  0.25726876974E+03  0.10566000000E+00 0.  1.
         13    1    4    4    0    0  0.10621667469E+03  0.74989768265E+02 -0.54594861390E+02  0.14101793283E+03  0.10566000000E+00 0. -1.
    9000005    1    3    3    0    0 -0.49993644561E+02  0.16637239594E+02  0.36591367491E+02  0.64156764356E+02  0.10000000000E+01 0.  0.
    9000005    1    3    3    0    0 -0.21329428268E+03 -0.15902104833E+03  0.38815423955E+02  0.26886759189E+03  0.10000000000E+01 0.  0.
<mgrwt>
<rscale>  0 0.32137515E+03</rscale>
<asrwt>0</asrwt>
<pdfrwt beam="1">  1        1 0.43064390E-01 0.32437484E+03</pdfrwt>
<pdfrwt beam="2">  1       -1 0.69445004E-01 0.32437484E+03</pdfrwt>
<totfact> 0.20905504E+02</totfact>
</mgrwt>
</event>
<event>
 8    3  0.1508318E-003  0.1594714E+03  0.7818608E-02  0.1197143E+00
         -1   -1    0    0    0  501 -0.00000000000E+00  0.00000000000E+00  0.38834469690E+03  0.38834469693E+03  0.50400000000E-02 0.  1.
          1   -1    0    0  501    0  0.00000000000E+00 -0.00000000000E+00 -0.65472150364E+02  0.65472150558E+02  0.50400000000E-02 0. -1.
         25    2    1    2    0    0  0.28954360582E+00 -0.99033775809E+02  0.26138525714E+03  0.30619171832E+03  0.12499337235E+03 0.  0.
         23    2    1    2    0    0 -0.28954360582E+00  0.99033775809E+02  0.61487289394E+02  0.14762512917E+03  0.90579906262E+02 0.  0.
        -13    1    4    4    0    0 -0.55912917724E+01 -0.13991644552E+02  0.24167032138E+02  0.28479558763E+02  0.10566000000E+00 0. -1.
         13    1    4    4    0    0  0.53017481666E+01  0.11302542036E+03  0.37320257256E+02  0.11914557041E+03  0.10566000000E+00 0.  1.
    9000005    1    3    3    0    0  0.45974775656E+02 -0.50736627096E+02  0.21361395741E+03  0.22432077061E+03  0.10000000000E+01 0.  0.
    9000005    1    3    3    0    0 -0.45685232050E+02 -0.48297148713E+02  0.47771299728E+02  0.81870947710E+02  0.10000000000E+01 0.  0.
<mgrwt>
<rscale>  0 0.15274210E+03</rscale>
<asrwt>0</asrwt>
<pdfrwt beam="2">  1        1 0.10072638E-01 0.15947136E+03</pdfrwt>
<pdfrwt beam="1">  1       -1 0.59745339E-01 0.15947136E+03</pdfrwt>
<totfact> 0.18251710E+03</totfact>
</mgrwt>
</event>
<event>
 8    3  0.1508318E-003  0.1427678E+03  0.7818608E-02  0.1220225E+00
         -1   -1    0    0    0  501 -0.00000000000E+00  0.00000000000E+00  0.77411892525E+02  0.77411892689E+02  0.50400000000E-02 0.  1.
          1   -1    0    0  501    0  0.00000000000E+00 -0.00000000000E+00 -0.21926038089E+03  0.21926038095E+03  0.50400000000E-02 0. -1.
         25    2    1    2    0    0 -0.50671611383E+02 -0.46797792589E+02 -0.53965492639E+02  0.15262670033E+03  0.12499995866E+03 0.  0.
         23    2    1    2    0    0  0.50671611383E+02  0.46797792589E+02 -0.87882995724E+02  0.14404557331E+03  0.90928876936E+02 0.  0.
        -13    1    4    4    0    0  0.48136062900E+02 -0.14835538539E+02 -0.53265554276E+02  0.73310328001E+02  0.10566000000E+00 0. -1.
         13    1    4    4    0    0  0.25355484825E+01  0.61633331129E+02 -0.34617441448E+02  0.70735245306E+02  0.10566000000E+00 0.  1.
    9000005    1    3    3    0    0  0.10558903433E+02 -0.34861249331E+02 -0.77742384828E+02  0.85858462282E+02  0.10000000000E+01 0.  0.
    9000005    1    3    3    0    0 -0.61230514816E+02 -0.11936543258E+02  0.23776892189E+02  0.66768238046E+02  0.10000000000E+01 0.  0.
<mgrwt>
<rscale>  0 0.13499659E+03</rscale>
<asrwt>0</asrwt>
<pdfrwt beam="2">  1        1 0.33732366E-01 0.14276777E+03</pdfrwt>
<pdfrwt beam="1">  1       -1 0.11909522E-01 0.14276777E+03</pdfrwt>
<totfact> 0.57879918E+03</totfact>
</mgrwt>
</event>
<event>
 8    3  0.1508318E-003  0.1843640E+03  0.7818608E-02  0.1168847E+00
         -1   -1    0    0    0  501 -0.00000000000E+00  0.00000000000E+00  0.10614886446E+02  0.10614887643E+02  0.50400000000E-02 0.  1.
          1   -1    0    0  501    0  0.00000000000E+00 -0.00000000000E+00 -0.28569189254E+04  0.28569189254E+04  0.50400000000E-02 0. -1.
         25    2    1    2    0    0  0.53209048659E+02 -0.12463663927E+03 -0.15738936751E+04  0.15846549734E+04  0.12499835840E+03 0.  0.
         23    2    1    2    0    0 -0.53209048659E+02  0.12463663927E+03 -0.12724103638E+04  0.12828788396E+04  0.91566851954E+02 0.  0.
        -13    1    4    4    0    0 -0.52075942731E+02  0.23801365086E+02 -0.31398232256E+03  0.31916033406E+03  0.10566000000E+00 0.  1.
         13    1    4    4    0    0 -0.11331059280E+01  0.10083527418E+03 -0.95842804127E+03  0.96371850553E+03  0.10566000000E+00 0. -1.
    9000005    1    3    3    0    0  0.97227541385E+01 -0.92759416129E+02 -0.45497009275E+03  0.46443258555E+03  0.10000000000E+01 0.  0.
    9000005    1    3    3    0    0  0.43486294521E+02 -0.31877223138E+02 -0.11189235824E+04  0.11202223879E+04  0.10000000000E+01 0.  0.
<mgrwt>
<rscale>  0 0.17892562E+03</rscale>
<asrwt>0</asrwt>
<pdfrwt beam="2">  1        1 0.43952537E+00 0.18436400E+03</pdfrwt>
<pdfrwt beam="1">  1       -1 0.16330618E-02 0.18436400E+03</pdfrwt>
<totfact> 0.84976977E+02</totfact>
</mgrwt>
</event>
<event>
 8    3  0.1508318E-003  0.1588950E+03  0.7818608E-02  0.1197341E+00
          1   -1    0    0  501    0  0.00000000000E+00  0.00000000000E+00  0.21069873741E+03  0.21069873747E+03  0.50400000000E-02 0. -1.
         -1   -1    0    0    0  501 -0.00000000000E+00 -0.00000000000E+00 -0.10569283584E+03  0.10569283596E+03  0.50400000000E-02 0.  1.
         25    2    1    2    0    0  0.53031785929E+01 -0.97952161737E+02  0.29436397238E+02  0.16159865685E+03  0.12499949888E+03 0.  0.
         23    2    1    2    0    0 -0.53031785929E+01  0.97952161737E+02  0.75569504330E+02  0.15479291658E+03  0.92883514926E+02 0.  0.
        -13    1    4    4    0    0  0.41823690438E+02  0.35008466833E+02  0.18349611998E+02  0.57545923021E+02  0.10566000000E+00 0.  1.
         13    1    4    4    0    0 -0.47126869031E+02  0.62943694904E+02  0.57219892332E+02  0.97246993554E+02  0.10566000000E+00 0. -1.
    9000005    1    3    3    0    0  0.36638125439E+02 -0.99114612901E+02  0.56797614120E+02  0.11997094522E+03  0.10000000000E+01 0.  0.
    9000005    1    3    3    0    0 -0.31334946846E+02  0.11624511639E+01 -0.27361216882E+02  0.41627711633E+02  0.10000000000E+01 0.  0.
<mgrwt>
<rscale>  0 0.15257762E+03</rscale>
<asrwt>0</asrwt>
<pdfrwt beam="1">  1        1 0.32415190E-01 0.15889501E+03</pdfrwt>
<pdfrwt beam="2">  1       -1 0.16260437E-01 0.15889501E+03</pdfrwt>
<totfact> 0.37609397E+03</totfact>
</mgrwt>
</event>
<event>
 8    3  0.1508318E-003  0.1421918E+03  0.7818608E-02  0.1221221E+00
         -1   -1    0    0    0  501 -0.00000000000E+00  0.00000000000E+00  0.64284836479E+01  0.64284856236E+01  0.50400000000E-02 0.  1.
          1   -1    0    0  501    0  0.00000000000E+00 -0.00000000000E+00 -0.31633045840E+04  0.31633045840E+04  0.50400000000E-02 0. -1.
         25    2    1    2    0    0  0.57721649742E+01  0.67594718736E+02 -0.10198893027E+04  0.10297537083E+04  0.12496457956E+03 0.  0.
         23    2    1    2    0    0 -0.57721649742E+01 -0.67594718736E+02 -0.21369867976E+04  0.21399793613E+04  0.90535791807E+02 0.  0.
        -13    1    4    4    0    0  0.73986139270E+01  0.15031558497E+02 -0.11020254684E+03  0.11146882853E+03  0.10566000000E+00 0.  1.
         13    1    4    4    0    0 -0.13170778901E+02 -0.82626277233E+02 -0.20267842508E+04  0.20285105327E+04  0.10566000000E+00 0. -1.
    9000005    1    3    3    0    0  0.43711104570E+02  0.52643850979E+02 -0.26271671429E+03  0.27148316279E+03  0.10000000000E+01 0.  0.
    9000005    1    3    3    0    0 -0.37938939596E+02  0.14950867757E+02 -0.75717258841E+03  0.75827054554E+03  0.10000000000E+01 0.  0.
<mgrwt>
<rscale>  0 0.13429299E+03</rscale>
<asrwt>0</asrwt>
<pdfrwt beam="2">  1        1 0.48666100E+00 0.14219181E+03</pdfrwt>
<pdfrwt beam="1">  1       -1 0.98900017E-03 0.14219181E+03</pdfrwt>
<totfact> 0.10805293E+03</totfact>
</mgrwt>
</event>
<event>
 8    3  0.1508318E-003  0.1668919E+03  0.7818608E-02  0.1187919E+00
          1   -1    0    0  501    0  0.00000000000E+00  0.00000000000E+00  0.16251914701E+04  0.16251914701E+04  0.50400000000E-02 0. -1.
         -1   -1    0    0    0  501 -0.00000000000E+00 -0.00000000000E+00 -0.15248784268E+02  0.15248785101E+02  0.50400000000E-02 0.  1.
         25    2    1    2    0    0  0.34436619440E+02  0.10508007728E+03  0.72597603886E+03  0.74491214566E+03  0.12500076940E+03 0.  0.
         23    2    1    2    0    0 -0.34436619440E+02 -0.10508007728E+03  0.88396664699E+03  0.89552810957E+03  0.91355671078E+02 0.  0.
        -13    1    4    4    0    0  0.21925096568E+02  0.20205189092E+01  0.11382484673E+03  0.11593489230E+03  0.10566000000E+00 0.  1.
         13    1    4    4    0    0 -0.56361716008E+02 -0.10710059619E+03  0.77014180027E+03  0.77959321727E+03  0.10566000000E+00 0. -1.
    9000005    1    3    3    0    0 -0.36016794351E+02  0.86554151843E+02  0.38687504644E+03  0.39807302374E+03  0.10000000000E+01 0.  0.
    9000005    1    3    3    0    0  0.70453413791E+02  0.18525925435E+02  0.33910099242E+03  0.34683912191E+03  0.10000000000E+01 0.  0.
<mgrwt>
<rscale>  0 0.16069045E+03</rscale>
<asrwt>0</asrwt>
<pdfrwt beam="1">  1        1 0.25002938E+00 0.16689187E+03</pdfrwt>
<pdfrwt beam="2">  1       -1 0.23459676E-02 0.16689187E+03</pdfrwt>
<totfact> 0.31935622E+03</totfact>
</mgrwt>
</event>
<event>
 8    3  0.1508318E-003  0.1310557E+03  0.7818608E-02  0.1239859E+00
         -1   -1    0    0    0  501 -0.00000000000E+00  0.00000000000E+00  0.55402717325E+02  0.55402717554E+02  0.50400000000E-02 0. -1.
          1   -1    0    0  501    0  0.00000000000E+00 -0.00000000000E+00 -0.24447369236E+03  0.24447369241E+03  0.50400000000E-02 0.  1.
         25    2    1    2    0    0 -0.25918327291E+02 -0.29646658843E+02 -0.82563718558E+02  0.15489465771E+03  0.12499961318E+03 0.  0.
         23    2    1    2    0    0  0.25918327291E+02  0.29646658843E+02 -0.10650725648E+03  0.14498175226E+03  0.90140050673E+02 0.  0.
        -13    1    4    4    0    0 -0.15121720482E+02 -0.11654857502E+02 -0.77717406211E+02  0.80028173326E+02  0.10566000000E+00 0.  1.
         13    1    4    4    0    0  0.41040047773E+02  0.41301516345E+02 -0.28789850265E+02  0.64953578931E+02  0.10566000000E+00 0. -1.
    9000005    1    3    3    0    0 -0.17530320561E+02 -0.56277448693E+02 -0.10408995544E+03  0.11962517374E+03  0.10000000000E+01 0.  0.
    9000005    1    3    3    0    0 -0.83880067301E+01  0.26630789850E+02  0.21526236878E+02  0.35269483964E+02  0.10000000000E+01 0.  0.
<mgrwt>
<rscale>  0 0.12198413E+03</rscale>
<asrwt>0</asrwt>
<pdfrwt beam="2">  1        1 0.37611337E-01 0.13105567E+03</pdfrwt>
<pdfrwt beam="1">  1       -1 0.85234951E-02 0.13105567E+03</pdfrwt>
<totfact> 0.83829894E+03</totfact>
</mgrwt>
</event>
<event>
 8    3  0.1508318E-003  0.1327083E+03  0.7818608E-02  0.1236706E+00
         -1   -1    0    0    0  501 -0.00000000000E+00  0.00000000000E+00  0.22686030093E+03  0.22686030099E+03  0.50400000000E-02 0.  1.
          1   -1    0    0  501    0  0.00000000000E+00 -0.00000000000E+00 -0.82981011548E+02  0.82981011701E+02  0.50400000000E-02 0. -1.
         25    2    1    2    0    0  0.44098348081E+02  0.64727005667E+01  0.15964242698E+03  0.20759863998E+03  0.12499972270E+03 0.  0.
         23    2    1    2    0    0 -0.44098348081E+02 -0.64727005667E+01 -0.15763137594E+02  0.10224267271E+03  0.90656094442E+02 0.  0.
        -13    1    4    4    0    0 -0.41359123499E+02  0.30180736683E+02  0.16023105562E+02  0.53648905294E+02  0.10566000000E+00 0.  1.
         13    1    4    4    0    0 -0.27392245823E+01 -0.36653437249E+02 -0.31786243156E+02  0.48593767414E+02  0.10566000000E+00 0. -1.
    9000005    1    3    3    0    0 -0.23417552135E+02 -0.27242078503E+02  0.11369608460E+03  0.11924056459E+03  0.10000000000E+01 0.  0.
    9000005    1    3    3    0    0  0.67515900216E+02  0.33714779069E+02  0.45946342375E+02  0.88358075394E+02  0.10000000000E+01 0.  0.
<mgrwt>
<rscale>  0 0.12395831E+03</rscale>
<asrwt>0</asrwt>
<pdfrwt beam="2">  1        1 0.12766310E-01 0.13270829E+03</pdfrwt>
<pdfrwt beam="1">  1       -1 0.34901584E-01 0.13270829E+03</pdfrwt>
<totfact> 0.34859338E+03</totfact>
</mgrwt>
</event>
<event>
 8    3  0.1508318E-003  0.1456968E+03  0.7818608E-02  0.1216933E+00
          1   -1    0    0  501    0  0.00000000000E+00  0.00000000000E+00  0.32355523428E+03  0.32355523432E+03  0.50400000000E-02 0. -1.
         -1   -1    0    0    0  501 -0.00000000000E+00 -0.00000000000E+00 -0.68246558683E+02  0.68246558869E+02  0.50400000000E-02 0.  1.
         25    2    1    2    0    0  0.74507023878E+02  0.71241771334E+01  0.23264791919E+03  0.27450431891E+03  0.12500206513E+03 0.  0.
         23    2    1    2    0    0 -0.74507023878E+02 -0.71241771334E+01  0.22660756410E+02  0.11729747428E+03  0.87425036949E+02 0.  0.
        -13    1    4    4    0    0 -0.72300657003E+02 -0.77408989568E+01 -0.19333776899E+02  0.75240365582E+02  0.10566000000E+00 0.  1.
         13    1    4    4    0    0 -0.22063668755E+01  0.61672182341E+00  0.41994533309E+02  0.42057108703E+02  0.10566000000E+00 0. -1.
    9000005    1    3    3    0    0  0.87377810053E+02 -0.40183061013E+02  0.14330603492E+03  0.17258962809E+03  0.10000000000E+01 0.  0.
    9000005    1    3    3    0    0 -0.12870786175E+02  0.47307238146E+02  0.89341884276E+02  0.10191469081E+03  0.10000000000E+01 0.  0.
<mgrwt>
<rscale>  0 0.13735512E+03</rscale>
<asrwt>0</asrwt>
<pdfrwt beam="1">  1        1 0.49777728E-01 0.14569683E+03</pdfrwt>
<pdfrwt beam="2">  1       -1 0.10499471E-01 0.14569683E+03</pdfrwt>
<totfact> 0.43424211E+03</totfact>
</mgrwt>
</event>
<event>
 8    3  0.1508318E-003  0.1295477E+03  0.7818608E-02  0.1250895E+00
         -1   -1    0    0    0  501 -0.00000000000E+00  0.00000000000E+00  0.65283061159E+02  0.65283061354E+02  0.50400000000E-02 0.  1.
          1   -1    0    0  501    0  0.00000000000E+00 -0.00000000000E+00 -0.17505438571E+03  0.17505438578E+03  0.50400000000E-02 0. -1.
         25    2    1    2    0    0 -0.31765251421E+02 -0.12178713896E+02 -0.48486955129E+02  0.13832419063E+03  0.12500097850E+03 0.  0.
         23    2    1    2    0    0  0.31765251421E+02  0.12178713896E+02 -0.61284369419E+02  0.10201325651E+03  0.74118677121E+02 0.  0.
        -13    1    4    4    0    0  0.30404321745E+02  0.13392952353E+02 -0.78217910370E+02  0.84981448682E+02  0.10566000000E+00 0. -1.
         13    1    4    4    0    0  0.13609296754E+01 -0.12142384574E+01  0.16933540951E+02  0.17031807825E+02  0.10566000000E+00 0.  1.
    9000005    1    3    3    0    0 -0.52197008629E+02  0.20437012127E+02  0.20192526416E+02  0.59589741546E+02  0.10000000000E+01 0.  0.
    9000005    1    3    3    0    0  0.20431757208E+02 -0.32615726023E+02 -0.68679481546E+02  0.78734449081E+02  0.10000000000E+01 0.  0.
<mgrwt>
<rscale>  0 0.11539380E+03</rscale>
<asrwt>0</asrwt>
<pdfrwt beam="2">  1        1 0.26931444E-01 0.12954766E+03</pdfrwt>
<pdfrwt beam="1">  1       -1 0.10043548E-01 0.12954766E+03</pdfrwt>
<totfact> 0.98796368E+03</totfact>
</mgrwt>
</event>
<event>
 8    3  0.1508318E-003  0.2068970E+03  0.7818608E-02  0.1147922E+00
         -1   -1    0    0    0  501 -0.00000000000E+00  0.00000000000E+00  0.33808310702E+02  0.33808311077E+02  0.50400000000E-02 0.  1.
          1   -1    0    0  501    0  0.00000000000E+00 -0.00000000000E+00 -0.11603802881E+04  0.11603802881E+04  0.50400000000E-02 0. -1.
         25    2    1    2    0    0  0.11006366514E+02  0.16449933050E+03 -0.62241642131E+03  0.65590285354E+03  0.12500072773E+03 0.  0.
         23    2    1    2    0    0 -0.11006366514E+02 -0.16449933050E+03 -0.50415555605E+03  0.53828574560E+03  0.91638143719E+02 0.  0.
        -13    1    4    4    0    0 -0.42880404128E+02 -0.76036889523E+02 -0.16932636702E+03  0.19050398253E+03  0.10566000000E+00 0. -1.
         13    1    4    4    0    0  0.31874037615E+02 -0.88462440981E+02 -0.33482918903E+03  0.34778176307E+03  0.10566000000E+00 0.  1.
    9000005    1    3    3    0    0 -0.43535067185E+02  0.12711251192E+03 -0.48707287146E+03  0.50526614262E+03  0.10000000000E+01 0.  0.
    9000005    1    3    3    0    0  0.54541433699E+02  0.37386818589E+02 -0.13534354984E+03  0.15063671093E+03  0.10000000000E+01 0.  0.
<mgrwt>
<rscale>  0 0.20216891E+03</rscale>
<asrwt>0</asrwt>
<pdfrwt beam="2">  1        1 0.17852001E+00 0.20689696E+03</pdfrwt>
<pdfrwt beam="1">  1       -1 0.52012795E-02 0.20689696E+03</pdfrwt>
<totfact> 0.20219827E+03</totfact>
</mgrwt>
</event>
<event>
 8    3  0.1508318E-003  0.1443616E+03  0.7818608E-02  0.1218231E+00
         -1   -1    0    0    0  501 -0.00000000000E+00  0.00000000000E+00  0.10307976479E+02  0.10307977711E+02  0.50400000000E-02 0.  1.
          1   -1    0    0  501    0  0.00000000000E+00 -0.00000000000E+00 -0.16389380441E+04  0.16389380441E+04  0.50400000000E-02 0. -1.
         25    2    1    2    0    0  0.67793136757E+01  0.71897353933E+02 -0.95540330740E+03  0.96624828265E+03  0.12500030132E+03 0.  0.
         23    2    1    2    0    0 -0.67793136757E+01 -0.71897353933E+02 -0.67322676024E+03  0.68299773919E+03  0.89646262829E+02 0.  0.
        -13    1    4    4    0    0 -0.31252049884E+02 -0.80398148756E+01 -0.86933363952E+02  0.92729446117E+02  0.10566000000E+00 0. -1.
         13    1    4    4    0    0  0.24472736209E+02 -0.63857539057E+02 -0.58629339629E+03  0.59026829307E+03  0.10566000000E+00 0.  1.
    9000005    1    3    3    0    0 -0.33526592393E+02 -0.19631402660E+02 -0.16357563760E+03  0.16812915745E+03  0.10000000000E+01 0.  0.
    9000005    1    3    3    0    0  0.40305906068E+02  0.91528756592E+02 -0.79182766981E+03  0.79811912521E+03  0.10000000000E+01 0.  0.
<mgrwt>
<rscale>  0 0.13641823E+03</rscale>
<asrwt>0</asrwt>
<pdfrwt beam="2">  1        1 0.25214411E+00 0.14436157E+03</pdfrwt>
<pdfrwt beam="1">  1       -1 0.15858439E-02 0.14436157E+03</pdfrwt>
<totfact> 0.54967221E+03</totfact>
</mgrwt>
</event>
<event>
 8    3  0.1508318E-003  0.1872731E+03  0.7818608E-02  0.1166096E+00
         -1   -1    0    0    0  501 -0.00000000000E+00  0.00000000000E+00  0.51342093668E+02  0.51342093915E+02  0.50400000000E-02 0. -1.
          1   -1    0    0  501    0  0.00000000000E+00 -0.00000000000E+00 -0.86438657519E+03  0.86438657520E+03  0.50400000000E-02 0.  1.
         25    2    1    2    0    0  0.61829764222E+02  0.12499249951E+03 -0.17474677573E+03  0.25613987316E+03  0.12500061729E+03 0.  0.
         23    2    1    2    0    0 -0.61829764222E+02 -0.12499249951E+03 -0.63829770579E+03  0.65958879595E+03  0.90484108263E+02 0.  0.
        -13    1    4    4    0    0 -0.14227601275E+02  0.13557017803E+02 -0.69069074262E+02  0.71810622844E+02  0.10566000000E+00 0.  1.
         13    1    4    4    0    0 -0.47602162947E+02 -0.13854951731E+03 -0.56922863153E+03  0.58777817311E+03  0.10566000000E+00 0. -1.
    9000005    1    3    3    0    0 -0.35663097297E+02  0.60466536237E+02 -0.70550429524E+02  0.99531008330E+02  0.10000000000E+01 0.  0.
    9000005    1    3    3    0    0  0.97492861519E+02  0.64525963269E+02 -0.10419634620E+03  0.15660886483E+03  0.10000000000E+01 0.  0.
<mgrwt>
<rscale>  0 0.18177569E+03</rscale>
<asrwt>0</asrwt>
<pdfrwt beam="2">  1        1 0.13298254E+00 0.18727306E+03</pdfrwt>
<pdfrwt beam="1">  1       -1 0.78987843E-02 0.18727306E+03</pdfrwt>
<totfact> 0.17836417E+03</totfact>
</mgrwt>
</event>
<event>
 8    3  0.1508318E-003  0.1392351E+03  0.7818608E-02  0.1224209E+00
          1   -1    0    0  501    0  0.00000000000E+00  0.00000000000E+00  0.11003735295E+04  0.11003735295E+04  0.50400000000E-02 0. -1.
         -1   -1    0    0    0  501 -0.00000000000E+00 -0.00000000000E+00 -0.15545128511E+02  0.15545129328E+02  0.50400000000E-02 0.  1.
         25    2    1    2    0    0  0.30287205744E+02 -0.53322009080E+02  0.73999784320E+03  0.75298288577E+03  0.12500346729E+03 0.  0.
         23    2    1    2    0    0 -0.30287205744E+02  0.53322009080E+02  0.34483055781E+03  0.36293577309E+03  0.95150986894E+02 0.  0.
        -13    1    4    4    0    0 -0.29103865846E+02 -0.21807633720E+02  0.14362420585E+03  0.14815711783E+03  0.10566000000E+00 0.  1.
         13    1    4    4    0    0 -0.11833398979E+01  0.75129642800E+02  0.20120635196E+03  0.21477865526E+03  0.10566000000E+00 0. -1.
    9000005    1    3    3    0    0 -0.35106461815E+02 -0.63938546247E+02  0.38018105534E+03  0.38711656668E+03  0.10000000000E+01 0.  0.
    9000005    1    3    3    0    0  0.65393667559E+02  0.10616537167E+02  0.35981678786E+03  0.36586631909E+03  0.10000000000E+01 0.  0.
<mgrwt>
<rscale>  0 0.13221274E+03</rscale>
<asrwt>0</asrwt>
<pdfrwt beam="1">  1        1 0.16928822E+00 0.13923512E+03</pdfrwt>
<pdfrwt beam="2">  1       -1 0.23915585E-02 0.13923512E+03</pdfrwt>
<totfact> 0.69209806E+03</totfact>
</mgrwt>
</event>
<event>
 8    3  0.1508318E-003  0.1492924E+03  0.7818608E-02  0.1211019E+00
          1   -1    0    0  501    0  0.00000000000E+00  0.00000000000E+00  0.23212997752E+03  0.23212997757E+03  0.50400000000E-02 0. -1.
         -1   -1    0    0    0  501 -0.00000000000E+00 -0.00000000000E+00 -0.78842277983E+02  0.78842278145E+02  0.50400000000E-02 0.  1.
         25    2    1    2    0    0 -0.37626413554E+01  0.81537089026E+02  0.83371656332E+02  0.17099428465E+03  0.12500303175E+03 0.  0.
         23    2    1    2    0    0  0.37626413554E+01 -0.81537089026E+02  0.69916043204E+02  0.13997797107E+03  0.89683470774E+02 0.  0.
        -13    1    4    4    0    0  0.33020806640E+02 -0.18964352670E+01  0.56808113328E+01  0.33559691883E+02  0.10566000000E+00 0.  1.
         13    1    4    4    0    0 -0.29258165285E+02 -0.79640653759E+02  0.64235231871E+02  0.10641827918E+03  0.10566000000E+00 0. -1.
    9000005    1    3    3    0    0  0.27305839334E+02 -0.93222037943E+01 -0.15830923571E+02  0.32926136828E+02  0.10000000000E+01 0.  0.
    9000005    1    3    3    0    0 -0.31068480689E+02  0.90859292820E+02  0.99202579903E+02  0.13806814782E+03  0.10000000000E+01 0.  0.
<mgrwt>
<rscale>  0 0.14173055E+03</rscale>
<asrwt>0</asrwt>
<pdfrwt beam="1">  1        1 0.35712304E-01 0.14929237E+03</pdfrwt>
<pdfrwt beam="2">  1       -1 0.12129581E-01 0.14929237E+03</pdfrwt>
<totfact> 0.52560326E+03</totfact>
</mgrwt>
</event>
<event>
 8    3  0.1508318E-003  0.1253086E+03  0.7818608E-02  0.1251547E+00
         -1   -1    0    0    0  501 -0.00000000000E+00  0.00000000000E+00  0.19985387643E+03  0.19985387649E+03  0.50400000000E-02 0.  1.
          1   -1    0    0  501    0  0.00000000000E+00 -0.00000000000E+00 -0.59029805237E+02  0.59029805452E+02  0.50400000000E-02 0. -1.
         25    2    1    2    0    0 -0.28577478909E+01 -0.83087777050E+01  0.60994617548E+02  0.13936497426E+03  0.12500020069E+03 0.  0.
         23    2    1    2    0    0  0.28577478909E+01  0.83087777050E+01  0.79829453644E+02  0.11951870768E+03  0.88514277418E+02 0.  0.
        -13    1    4    4    0    0 -0.31130025972E+01 -0.19496441418E+02  0.87792863382E+02  0.89985554607E+02  0.10566000000E+00 0.  1.
         13    1    4    4    0    0  0.59707504881E+01  0.27805219123E+02 -0.79634097372E+01  0.29533153075E+02  0.10566000000E+00 0. -1.
    9000005    1    3    3    0    0 -0.46725184334E+02  0.17602513857E+02 -0.11022161206E+02  0.51142735386E+02  0.10000000000E+01 0.  0.
    9000005    1    3    3    0    0  0.43867436443E+02 -0.25911291562E+02  0.72016778754E+02  0.88222238878E+02  0.10000000000E+01 0.  0.
<mgrwt>
<rscale>  0 0.11501948E+03</rscale>
<asrwt>0</asrwt>
<pdfrwt beam="2">  1        1 0.90815086E-02 0.12530863E+03</pdfrwt>
<pdfrwt beam="1">  1       -1 0.30746750E-01 0.12530863E+03</pdfrwt>
<totfact> 0.67464181E+03</totfact>
</mgrwt>
</event>
<event>
 8    3  0.1508318E-003  0.1560688E+03  0.7818608E-02  0.1201446E+00
         -1   -1    0    0    0  501 -0.00000000000E+00  0.00000000000E+00  0.14058056525E+04  0.14058056525E+04  0.50400000000E-02 0.  1.
          1   -1    0    0  501    0  0.00000000000E+00 -0.00000000000E+00 -0.22781451041E+02  0.22781451598E+02  0.50400000000E-02 0. -1.
         25    2    1    2    0    0 -0.68059074541E+01 -0.93209262239E+02  0.11583454222E+04  0.11688120373E+04  0.12499269809E+03 0.  0.
         23    2    1    2    0    0  0.68059074541E+01  0.93209262239E+02  0.22467877926E+03  0.25977506676E+03  0.90929887917E+02 0.  0.
        -13    1    4    4    0    0 -0.95420748631E+01  0.10596805066E+03  0.20605161155E+03  0.23189988517E+03  0.10566000000E+00 0.  1.
         13    1    4    4    0    0  0.16347982317E+02 -0.12758788422E+02  0.18627167704E+02  0.27875181588E+02  0.10566000000E+00 0. -1.
    9000005    1    3    3    0    0 -0.47337201174E+02 -0.94346778532E+02  0.61836218228E+03  0.62730767069E+03  0.10000000000E+01 0.  0.
    9000005    1    3    3    0    0  0.40531293720E+02  0.11375162924E+01  0.53998323992E+03  0.54150436666E+03  0.10000000000E+01 0.  0.
<mgrwt>
<rscale>  0 0.14921113E+03</rscale>
<asrwt>0</asrwt>
<pdfrwt beam="2">  1        1 0.35048390E-02 0.15606877E+03</pdfrwt>
<pdfrwt beam="1">  1       -1 0.21627777E+00 0.15606877E+03</pdfrwt>
<totfact> 0.35689762E+02</totfact>
</mgrwt>
</event>
<event>
 8    3  0.1508318E-003  0.1385849E+03  0.7818608E-02  0.1227103E+00
         -1   -1    0    0    0  501 -0.00000000000E+00  0.00000000000E+00  0.34513565979E+02  0.34513566347E+02  0.50400000000E-02 0.  1.
          1   -1    0    0  501    0  0.00000000000E+00 -0.00000000000E+00 -0.46621682537E+03  0.46621682540E+03  0.50400000000E-02 0. -1.
         25    2    1    2    0    0 -0.57318797774E+02 -0.17161671283E+02 -0.18300960525E+03  0.22956107049E+03  0.12500320769E+03 0.  0.
         23    2    1    2    0    0  0.57318797774E+02  0.17161671283E+02 -0.24869365415E+03  0.27116932126E+03  0.90023883716E+02 0.  0.
        -13    1    4    4    0    0  0.48773810380E+02 -0.27364246612E+02 -0.18295769520E+03  0.19131444266E+03  0.10566000000E+00 0. -1.
         13    1    4    4    0    0  0.85449873937E+01  0.44525917894E+02 -0.65735958941E+02  0.79854878597E+02  0.10566000000E+00 0.  1.
    9000005    1    3    3    0    0 -0.62105111286E+02 -0.61267849590E+02 -0.15255121166E+03  0.17573749292E+03  0.10000000000E+01 0.  0.
    9000005    1    3    3    0    0  0.47863135123E+01  0.44106178307E+02 -0.30458393594E+02  0.53823577568E+02  0.10000000000E+01 0.  0.
<mgrwt>
<rscale>  0 0.13023781E+03</rscale>
<asrwt>0</asrwt>
<pdfrwt beam="2">  1        1 0.71725661E-01 0.13858488E+03</pdfrwt>
<pdfrwt beam="1">  1       -1 0.53097797E-02 0.13858488E+03</pdfrwt>
<totfact> 0.76270010E+03</totfact>
</mgrwt>
</event>
<event>
 8    3  0.1508318E-003  0.1275523E+03  0.7818608E-02  0.1257808E+00
         -1   -1    0    0    0  501 -0.00000000000E+00  0.00000000000E+00  0.73085236818E+02  0.73085236991E+02  0.50400000000E-02 0.  1.
          1   -1    0    0  501    0  0.00000000000E+00 -0.00000000000E+00 -0.15791303811E+03  0.15791303819E+03  0.50400000000E-02 0. -1.
         25    2    1    2    0    0  0.82219893713E+01  0.24024233847E+02 -0.14188692356E+02  0.12833900112E+03  0.12499926119E+03 0.  0.
         23    2    1    2    0    0 -0.82219893713E+01 -0.24024233847E+02 -0.70639108938E+02  0.10265927406E+03  0.70030549890E+02 0.  0.
        -13    1    4    4    0    0 -0.19399881106E+02 -0.41010586799E+02 -0.68570073761E+02  0.82219765240E+02  0.10566000000E+00 0.  1.
         13    1    4    4    0    0  0.11177891734E+02  0.16986352952E+02 -0.20690351769E+01  0.20439508821E+02  0.10566000000E+00 0. -1.
    9000005    1    3    3    0    0 -0.54972078589E+01 -0.41171085978E+02 -0.39245028642E+02  0.57152864215E+02  0.10000000000E+01 0.  0.
    9000005    1    3    3    0    0  0.13719197230E+02  0.65195319825E+02  0.25056336286E+02  0.71186136908E+02  0.10000000000E+01 0.  0.
<mgrwt>
<rscale>  0 0.11150476E+03</rscale>
<asrwt>0</asrwt>
<pdfrwt beam="2">  1        1 0.24294314E-01 0.12755226E+03</pdfrwt>
<pdfrwt beam="1">  1       -1 0.11243883E-01 0.12755226E+03</pdfrwt>
<totfact> 0.94456012E+03</totfact>
</mgrwt>
</event>
<event>
 8    3  0.1508318E-003  0.1261732E+03  0.7818608E-02  0.1248128E+00
         -1   -1    0    0    0  501 -0.00000000000E+00  0.00000000000E+00  0.94502264556E+02  0.94502264690E+02  0.50400000000E-02 0.  1.
          1   -1    0    0  501    0  0.00000000000E+00 -0.00000000000E+00 -0.16170940851E+03  0.16170940859E+03  0.50400000000E-02 0. -1.
         25    2    1    2    0    0 -0.15482639182E+02 -0.70151176098E+01  0.20895979468E+02  0.12789185650E+03  0.12502304191E+03 0.  0.
         23    2    1    2    0    0  0.15482639182E+02  0.70151176098E+01 -0.88103123423E+02  0.12831981678E+03  0.91732715163E+02 0.  0.
        -13    1    4    4    0    0 -0.22051285862E+02 -0.30986181102E+02 -0.24393632658E+02  0.45182553112E+02  0.10566000000E+00 0. -1.
         13    1    4    4    0    0  0.37533925044E+02  0.38001298712E+02 -0.63709490766E+02  0.83137263671E+02  0.10566000000E+00 0.  1.
    9000005    1    3    3    0    0  0.19652633344E+02  0.32892912132E+02 -0.34162220341E+02  0.51344200885E+02  0.10000000000E+01 0.  0.
    9000005    1    3    3    0    0 -0.35135272527E+02 -0.39908029742E+02  0.55058199809E+02  0.76547655612E+02  0.10000000000E+01 0.  0.
<mgrwt>
<rscale>  0 0.11700088E+03</rscale>
<asrwt>0</asrwt>
<pdfrwt beam="2">  1        1 0.24878371E-01 0.12617323E+03</pdfrwt>
<pdfrwt beam="1">  1       -1 0.14538810E-01 0.12617323E+03</pdfrwt>
<totfact> 0.61559254E+03</totfact>
</mgrwt>
</event>
<event>
 8    3  0.1508318E-003  0.2192986E+03  0.7818608E-02  0.1137721E+00
         -1   -1    0    0    0  501 -0.00000000000E+00  0.00000000000E+00  0.10246667407E+03  0.10246667419E+03  0.50400000000E-02 0.  1.
          1   -1    0    0  501    0  0.00000000000E+00 -0.00000000000E+00 -0.63667249120E+03  0.63667249122E+03  0.50400000000E-02 0. -1.
         25    2    1    2    0    0 -0.15929532974E+03  0.84218789972E+02 -0.48295822304E+03  0.53041540626E+03  0.12499620525E+03 0.  0.
         23    2    1    2    0    0  0.15929532974E+03 -0.84218789972E+02 -0.51247594086E+02  0.20872375915E+03  0.92040670757E+02 0.  0.
        -13    1    4    4    0    0  0.34397356993E+02 -0.61382087732E+02 -0.40775561553E+02  0.81324021337E+02  0.10566000000E+00 0.  1.
         13    1    4    4    0    0  0.12489797275E+03 -0.22836702240E+02 -0.10472032533E+02  0.12739973782E+03  0.10566000000E+00 0. -1.
    9000005    1    3    3    0    0 -0.31245085943E+02  0.74179506424E+02 -0.26975242293E+03  0.28150705896E+03  0.10000000000E+01 0.  0.
    9000005    1    3    3    0    0 -0.12805024380E+03  0.10039283548E+02 -0.21320580012E+03  0.24890834730E+03  0.10000000000E+01 0.  0.
<mgrwt>
<rscale>  0 0.21492868E+03</rscale>
<asrwt>0</asrwt>
<pdfrwt beam="2">  1        1 0.97949612E-01 0.21929856E+03</pdfrwt>
<pdfrwt beam="1">  1       -1 0.15764104E-01 0.21929856E+03</pdfrwt>
<totfact> 0.96189794E+02</totfact>
</mgrwt>
</event>
<event>
 8    3  0.1508318E-003  0.1344602E+03  0.7818608E-02  0.1233576E+00
          1   -1    0    0  501    0  0.00000000000E+00  0.00000000000E+00  0.42170648392E+02  0.42170648693E+02  0.50400000000E-02 0. -1.
         -1   -1    0    0    0  501 -0.00000000000E+00 -0.00000000000E+00 -0.36065340983E+03  0.36065340986E+03  0.50400000000E-02 0.  1.
         25    2    1    2    0    0 -0.12315276307E+01 -0.49517173819E+02 -0.12607659815E+03  0.18432266321E+03  0.12500427355E+03 0.  0.
         23    2    1    2    0    0  0.12315276307E+01  0.49517173819E+02 -0.19240616329E+03  0.21850139535E+03  0.90935476778E+02 0.  0.
        -13    1    4    4    0    0 -0.18909434320E+02  0.23498785965E+02 -0.80309348410E+01  0.31213246012E+02  0.10566000000E+00 0. -1.
         13    1    4    4    0    0  0.20140961951E+02  0.26018387854E+02 -0.18437522844E+03  0.18728814934E+03  0.10566000000E+00 0.  1.
    9000005    1    3    3    0    0 -0.75236007478E+01 -0.27821853292E+02  0.20900846938E+02  0.35616084731E+02  0.10000000000E+01 0.  0.
    9000005    1    3    3    0    0  0.62920731171E+01 -0.21695320527E+02 -0.14697744509E+03  0.14870657847E+03  0.10000000000E+01 0.  0.
<mgrwt>
<rscale>  0 0.12596021E+03</rscale>
<asrwt>0</asrwt>
<pdfrwt beam="1">  1        1 0.64877923E-02 0.13446016E+03</pdfrwt>
<pdfrwt beam="2">  1       -1 0.55485138E-01 0.13446016E+03</pdfrwt>
<totfact> 0.37566033E+03</totfact>
</mgrwt>
</event>
<event>
 8    3  0.1508318E-003  0.1281053E+03  0.7818608E-02  0.1244817E+00
         -1   -1    0    0    0  501 -0.00000000000E+00  0.00000000000E+00  0.13986547085E+04  0.13986547085E+04  0.50400000000E-02 0.  1.
          1   -1    0    0  501    0  0.00000000000E+00 -0.00000000000E+00 -0.89734314605E+01  0.89734328759E+01  0.50400000000E-02 0. -1.
         25    2    1    2    0    0 -0.27845739876E+02 -0.33131447801E+01  0.85080913931E+03  0.86039941972E+03  0.12499843109E+03 0.  0.
         23    2    1    2    0    0  0.27845739876E+02  0.33131447801E+01  0.53887213773E+03  0.54722872166E+03  0.91047958952E+02 0.  0.
        -13    1    4    4    0    0 -0.17629490465E+02  0.35069066838E+02  0.25281849360E+03  0.25584729870E+03  0.10566000000E+00 0.  1.
         13    1    4    4    0    0  0.45475230341E+02 -0.31755922058E+02  0.28605364414E+03  0.29138142296E+03  0.10566000000E+00 0. -1.
    9000005    1    3    3    0    0  0.32769625025E+02 -0.44138519801E+02  0.35542025195E+03  0.35964790108E+03  0.10000000000E+01 0.  0.
    9000005    1    3    3    0    0 -0.60615364901E+02  0.40825375021E+02  0.49538888736E+03  0.50075151865E+03  0.10000000000E+01 0.  0.
<mgrwt>
<rscale>  0 0.11896322E+03</rscale>
<asrwt>0</asrwt>
<pdfrwt beam="2">  1        1 0.13805300E-02 0.12810531E+03</pdfrwt>
<pdfrwt beam="1">  1       -1 0.21517734E+00 0.12810531E+03</pdfrwt>
<totfact> 0.13222085E+03</totfact>
</mgrwt>
</event>
<event>
 8    3  0.1508318E-003  0.2142563E+03  0.7818608E-02  0.1141856E+00
         -1   -1    0    0    0  501 -0.00000000000E+00  0.00000000000E+00  0.10973886987E+03  0.10973886999E+03  0.50400000000E-02 0.  1.
          1   -1    0    0  501    0  0.00000000000E+00 -0.00000000000E+00 -0.38794167277E+03  0.38794167280E+03  0.50400000000E-02 0. -1.
         25    2    1    2    0    0 -0.96448514201E+02 -0.14484293618E+03 -0.16984314468E+03  0.27340895802E+03  0.12499588984E+03 0.  0.
         23    2    1    2    0    0  0.96448514201E+02  0.14484293618E+03 -0.10835965822E+03  0.22427158477E+03  0.90962278754E+02 0.  0.
        -13    1    4    4    0    0  0.11286541020E+03  0.13751642376E+03 -0.10272806459E+03  0.20543231012E+03  0.10566000000E+00 0. -1.
         13    1    4    4    0    0 -0.16416896003E+02  0.73265124162E+01 -0.56315936332E+01  0.18839274653E+02  0.10566000000E+00 0.  1.
    9000005    1    3    3    0    0 -0.10838638571E+03 -0.16089748569E+03 -0.15744512523E+03  0.24985110960E+03  0.10000000000E+01 0.  0.
    9000005    1    3    3    0    0  0.11937871508E+02  0.16054549508E+02 -0.12398019448E+02  0.23557848422E+02  0.10000000000E+01 0.  0.
<mgrwt>
<rscale>  0 0.20963394E+03</rscale>
<asrwt>0</asrwt>
<pdfrwt beam="2">  1        1 0.59683334E-01 0.21425631E+03</pdfrwt>
<pdfrwt beam="1">  1       -1 0.16882903E-01 0.21425631E+03</pdfrwt>
<totfact> 0.16658630E+03</totfact>
</mgrwt>
</event>
<event>
 8    3  0.1508318E-003  0.1593836E+03  0.7818608E-02  0.1197238E+00
         -1   -1    0    0    0  501 -0.00000000000E+00  0.00000000000E+00  0.25622514005E+02  0.25622514500E+02  0.50400000000E-02 0.  1.
          1   -1    0    0  501    0  0.00000000000E+00 -0.00000000000E+00 -0.85475773996E+03  0.85475773997E+03  0.50400000000E-02 0. -1.
         25    2    1    2    0    0 -0.98863698864E+02  0.18141554480E+01 -0.39340168910E+03  0.42446202903E+03  0.12500321191E+03 0.  0.
         23    2    1    2    0    0  0.98863698864E+02 -0.18141554480E+01 -0.43573353686E+03  0.45591822545E+03  0.90666372161E+02 0.  0.
        -13    1    4    4    0    0  0.10381276966E+03 -0.84294624028E+01 -0.26135796572E+03  0.28134701774E+03  0.10566000000E+00 0.  1.
         13    1    4    4    0    0 -0.49490707968E+01  0.66153069549E+01 -0.17437557113E+03  0.17457120771E+03  0.10566000000E+00 0. -1.
    9000005    1    3    3    0    0  0.12072150139E+02 -0.31302114540E+02 -0.16514695535E+03  0.16852322109E+03  0.10000000000E+01 0.  0.
    9000005    1    3    3    0    0 -0.11093584900E+03  0.33116269988E+02 -0.22825473375E+03  0.25593880794E+03  0.10000000000E+01 0.  0.
<mgrwt>
<rscale>  0 0.15266337E+03</rscale>
<asrwt>0</asrwt>
<pdfrwt beam="2">  1        1 0.13150117E+00 0.15938358E+03</pdfrwt>
<pdfrwt beam="1">  1       -1 0.39419259E-02 0.15938358E+03</pdfrwt>
<totfact> 0.51106427E+03</totfact>
</mgrwt>
</event>
<event>
 8    3  0.1508318E-003  0.1273862E+03  0.7818608E-02  0.1246446E+00
         -1   -1    0    0    0  501 -0.00000000000E+00  0.00000000000E+00  0.33305017717E+02  0.33305018098E+02  0.50400000000E-02 0.  1.
          1   -1    0    0  501    0  0.00000000000E+00 -0.00000000000E+00 -0.46187462964E+03  0.46187462967E+03  0.50400000000E-02 0. -1.
         25    2    1    2    0    0 -0.23012925551E+02 -0.85491841444E+01 -0.35128245823E+03  0.37366645174E+03  0.12499827361E+03 0.  0.
         23    2    1    2    0    0  0.23012925551E+02  0.85491841444E+01 -0.77287153700E+02  0.12151319603E+03  0.90495687139E+02 0.  0.
        -13    1    4    4    0    0  0.63270417560E+01 -0.22416648589E+02 -0.82705455468E+02  0.85922878907E+02  0.10566000000E+00 0. -1.
         13    1    4    4    0    0  0.16685883795E+02  0.30965832734E+02  0.54183017684E+01  0.35590317124E+02  0.10566000000E+00 0.  1.
    9000005    1    3    3    0    0 -0.43521112169E+01 -0.61549964490E+02 -0.11203307414E+03  0.12790523329E+03  0.10000000000E+01 0.  0.
    9000005    1    3    3    0    0 -0.18660814334E+02  0.53000780346E+02 -0.23924938408E+03  0.24576121845E+03  0.10000000000E+01 0.  0.
<mgrwt>
<rscale>  0 0.11799233E+03</rscale>
<asrwt>0</asrwt>
<pdfrwt beam="2">  1        1 0.71057631E-01 0.12738623E+03</pdfrwt>
<pdfrwt beam="1">  1       -1 0.51238492E-02 0.12738623E+03</pdfrwt>
<totfact> 0.80931068E+03</totfact>
</mgrwt>
</event>
<event>
 8    3  0.1508318E-003  0.1376442E+03  0.7818608E-02  0.1228106E+00
         -1   -1    0    0    0  501 -0.00000000000E+00  0.00000000000E+00  0.14459073351E+03  0.14459073360E+03  0.50400000000E-02 0. -1.
          1   -1    0    0  501    0  0.00000000000E+00 -0.00000000000E+00 -0.11877932170E+03  0.11877932180E+03  0.50400000000E-02 0.  1.
         25    2    1    2    0    0  0.30286000618E+00 -0.57627177183E+02 -0.31287271538E+02  0.14115531031E+03  0.12499977997E+03 0.  0.
         23    2    1    2    0    0 -0.30286000618E+00  0.57627177183E+02  0.57098683352E+02  0.12221474509E+03  0.91406788605E+02 0.  0.
        -13    1    4    4    0    0  0.25081760949E+02  0.40407155982E+02 -0.98547214424E+01  0.48569122759E+02  0.10566000000E+00 0.  1.
         13    1    4    4    0    0 -0.25384620955E+02  0.17220021201E+02  0.66953404795E+02  0.73645622333E+02  0.10566000000E+00 0. -1.
    9000005    1    3    3    0    0 -0.23929878313E+02  0.22684279129E+02 -0.45362593006E+02  0.56089040283E+02  0.10000000000E+01 0.  0.
    9000005    1    3    3    0    0  0.24232738319E+02 -0.80311456312E+02  0.14075321468E+02  0.85066270024E+02  0.10000000000E+01 0.  0.
<mgrwt>
<rscale>  0 0.12956302E+03</rscale>
<asrwt>0</asrwt>
<pdfrwt beam="2">  1        1 0.18273742E-01 0.13764421E+03</pdfrwt>
<pdfrwt beam="1">  1       -1 0.22244728E-01 0.13764421E+03</pdfrwt>
<totfact> 0.46520815E+03</totfact>
</mgrwt>
</event>
<event>
 8    3  0.1508318E-003  0.1362412E+03  0.7818608E-02  0.1230063E+00
         -1   -1    0    0    0  501 -0.00000000000E+00  0.00000000000E+00  0.61524052406E+02  0.61524052612E+02  0.50400000000E-02 0.  1.
          1   -1    0    0  501    0  0.00000000000E+00 -0.00000000000E+00 -0.30134784584E+03  0.30134784588E+03  0.50400000000E-02 0. -1.
         25    2    1    2    0    0 -0.33118272818E+02  0.42918142161E+02 -0.50308624648E+02  0.14523301884E+03  0.12499154022E+03 0.  0.
         23    2    1    2    0    0  0.33118272818E+02 -0.42918142161E+02 -0.18951516878E+03  0.21763887965E+03  0.92259936128E+02 0.  0.
        -13    1    4    4    0    0 -0.16927851426E+02 -0.43872679067E+02 -0.46568100643E+02  0.66181291042E+02  0.10566000000E+00 0.  1.
         13    1    4    4    0    0  0.50046124244E+02  0.95453690512E+00 -0.14294706814E+03  0.15145758861E+03  0.10566000000E+00 0. -1.
    9000005    1    3    3    0    0  0.12899665558E+01  0.82000773225E+02 -0.18077035773E+02  0.83985534740E+02  0.10000000000E+01 0.  0.
    9000005    1    3    3    0    0 -0.34408239374E+02 -0.39082631063E+02 -0.32231588876E+02  0.61247484104E+02  0.10000000000E+01 0.  0.
<mgrwt>
<rscale>  0 0.12825826E+03</rscale>
<asrwt>0</asrwt>
<pdfrwt beam="2">  1        1 0.46361206E-01 0.13624123E+03</pdfrwt>
<pdfrwt beam="1">  1       -1 0.94652390E-02 0.13624123E+03</pdfrwt>
<totfact> 0.55365890E+03</totfact>
</mgrwt>
</event>
<event>
 8    3  0.1508318E-003  0.3585677E+03  0.7818608E-02  0.1060203E+00
         -1   -1    0    0    0  501 -0.00000000000E+00  0.00000000000E+00  0.12596569207E+03  0.12596569217E+03  0.50400000000E-02 0. -1.
          1   -1    0    0  501    0  0.00000000000E+00 -0.00000000000E+00 -0.99675691010E+03  0.99675691011E+03  0.50400000000E-02 0.  1.
         25    2    1    2    0    0 -0.16084418060E+03  0.29508388452E+03 -0.48331482922E+03  0.60180066342E+03  0.12500186005E+03 0.  0.
         23    2    1    2    0    0  0.16084418060E+03 -0.29508388452E+03 -0.38747638882E+03  0.52092193886E+03  0.90974530246E+02 0.  0.
        -13    1    4    4    0    0  0.29017044604E+02 -0.61865746351E+02 -0.31087399990E+02  0.75071945834E+02  0.10566000000E+00 0. -1.
         13    1    4    4    0    0  0.13182713600E+03 -0.23321813817E+03 -0.35638898883E+03  0.44584999302E+03  0.10566000000E+00 0.  1.
    9000005    1    3    3    0    0 -0.12341546524E+03  0.11831952857E+03 -0.29399567023E+03  0.34009607762E+03  0.10000000000E+01 0.  0.
    9000005    1    3    3    0    0 -0.37428715364E+02  0.17676435595E+03 -0.18931915899E+03  0.26170458580E+03  0.10000000000E+01 0.  0.
<mgrwt>
<rscale>  0 0.35593931E+03</rscale>
<asrwt>0</asrwt>
<pdfrwt beam="2">  1        1 0.15334721E+00 0.35856773E+03</pdfrwt>
<pdfrwt beam="1">  1       -1 0.19379338E-01 0.35856773E+03</pdfrwt>
<totfact> 0.34048877E+02</totfact>
</mgrwt>
</event>
<event>
 8    3  0.1508318E-003  0.1472439E+03  0.7818608E-02  0.1213764E+00
         -1   -1    0    0    0  501 -0.00000000000E+00  0.00000000000E+00  0.58730440516E+02  0.58730440732E+02  0.50400000000E-02 0.  1.
          1   -1    0    0  501    0  0.00000000000E+00 -0.00000000000E+00 -0.33454837920E+03  0.33454837924E+03  0.50400000000E-02 0. -1.
         25    2    1    2    0    0  0.47457302866E+02  0.61674548159E+02 -0.21178449169E+03  0.25794076376E+03  0.12499928482E+03 0.  0.
         23    2    1    2    0    0 -0.47457302866E+02 -0.61674548159E+02 -0.64033446998E+02  0.13533805621E+03  0.90333613001E+02 0.  0.
        -13    1    4    4    0    0  0.13932518414E+01  0.18459547816E+02 -0.30496793318E+02  0.35675784826E+02  0.10566000000E+00 0. -1.
         13    1    4    4    0    0 -0.48850554708E+02 -0.80134095975E+02 -0.33536653680E+02  0.99662271382E+02  0.10566000000E+00 0.  1.
    9000005    1    3    3    0    0 -0.98065858928E+01  0.62457084866E+02 -0.35348155942E+02  0.72439966216E+02  0.10000000000E+01 0.  0.
    9000005    1    3    3    0    0  0.57263888759E+02 -0.78253670676E+00 -0.17643633574E+03  0.18550079755E+03  0.10000000000E+01 0.  0.
<mgrwt>
<rscale>  0 0.13967722E+03</rscale>
<asrwt>0</asrwt>
<pdfrwt beam="2">  1        1 0.51468980E-01 0.14724390E+03</pdfrwt>
<pdfrwt beam="1">  1       -1 0.90354526E-02 0.14724390E+03</pdfrwt>
<totfact> 0.52419185E+03</totfact>
</mgrwt>
</event>
<event>
 8    3  0.1508318E-003  0.1327702E+03  0.7818608E-02  0.1236886E+00
          1   -1    0    0  501    0  0.00000000000E+00  0.00000000000E+00  0.47514997491E+03  0.47514997494E+03  0.50400000000E-02 0. -1.
         -1   -1    0    0    0  501 -0.00000000000E+00 -0.00000000000E+00 -0.30151144279E+02  0.30151144700E+02  0.50400000000E-02 0.  1.
         25    2    1    2    0    0 -0.26082362214E+02  0.36370400340E+02  0.19554084618E+03  0.23635597788E+03  0.12499932045E+03 0.  0.
         23    2    1    2    0    0  0.26082362214E+02 -0.36370400340E+02  0.24945798445E+03  0.26894514176E+03  0.89995042259E+02 0.  0.
        -13    1    4    4    0    0  0.37378581987E+02  0.14737198101E+02  0.58681102536E+02  0.71118396762E+02  0.10566000000E+00 0.  1.
         13    1    4    4    0    0 -0.11296219773E+02 -0.51107598441E+02  0.19077688191E+03  0.19782674500E+03  0.10566000000E+00 0. -1.
    9000005    1    3    3    0    0 -0.25215688170E+02 -0.41492915553E+02  0.42047024931E+02  0.64237413370E+02  0.10000000000E+01 0.  0.
    9000005    1    3    3    0    0 -0.86667404391E+00  0.77863315893E+02  0.15349382125E+03  0.17211856451E+03  0.10000000000E+01 0.  0.
<mgrwt>
<rscale>  0 0.12384471E+03</rscale>
<asrwt>0</asrwt>
<pdfrwt beam="1">  1        1 0.73099996E-01 0.13277020E+03</pdfrwt>
<pdfrwt beam="2">  1       -1 0.46386376E-02 0.13277020E+03</pdfrwt>
<totfact> 0.90637473E+03</totfact>
</mgrwt>
</event>
<event>
 8    3  0.1508318E-003  0.1418184E+03  0.7818608E-02  0.1222642E+00
          1   -1    0    0  501    0  0.00000000000E+00  0.00000000000E+00  0.10724985961E+03  0.10724985973E+03  0.50400000000E-02 0. -1.
         -1   -1    0    0    0  501 -0.00000000000E+00 -0.00000000000E+00 -0.15767932885E+03  0.15767932893E+03  0.50400000000E-02 0.  1.
         25    2    1    2    0    0  0.66181112850E+02  0.10355000505E+02  0.33707259498E+01  0.14185848105E+03  0.12500120447E+03 0.  0.
         23    2    1    2    0    0 -0.66181112850E+02 -0.10355000505E+02 -0.53800195185E+02  0.12307070762E+03  0.88117945606E+02 0.  0.
        -13    1    4    4    0    0  0.31355865560E+00 -0.11462068931E+02  0.20416840781E+02  0.23416573078E+02  0.10566000000E+00 0. -1.
         13    1    4    4    0    0 -0.66494671506E+02  0.11070684252E+01 -0.74217035966E+02  0.99654134539E+02  0.10566000000E+00 0.  1.
    9000005    1    3    3    0    0  0.41657680272E+01 -0.52877829760E+02 -0.23236917915E+01  0.53101958975E+02  0.10000000000E+01 0.  0.
    9000005    1    3    3    0    0  0.62015344823E+02  0.63232830266E+02  0.56944177413E+01  0.88756522072E+02  0.10000000000E+01 0.  0.
<mgrwt>
<rscale>  0 0.13329845E+03</rscale>
<asrwt>0</asrwt>
<pdfrwt beam="1">  1        1 0.16499978E-01 0.14181843E+03</pdfrwt>
<pdfrwt beam="2">  1       -1 0.24258358E-01 0.14181843E+03</pdfrwt>
<totfact> 0.46128592E+03</totfact>
</mgrwt>
</event>
<event>
 8    3  0.1508318E-003  0.1305933E+03  0.7818608E-02  0.1238795E+00
          1   -1    0    0  501    0  0.00000000000E+00  0.00000000000E+00  0.15811118019E+04  0.15811118019E+04  0.50400000000E-02 0. -1.
         -1   -1    0    0    0  501 -0.00000000000E+00 -0.00000000000E+00 -0.85360861824E+01  0.85360876703E+01  0.50400000000E-02 0.  1.
         25    2    1    2    0    0  0.81145689192E+01 -0.36937653836E+02  0.85447566089E+03  0.86439762800E+03  0.12499747095E+03 0.  0.
         23    2    1    2    0    0 -0.81145689192E+01  0.36937653836E+02  0.71810005479E+03  0.72525026154E+03  0.94286884944E+02 0.  0.
        -13    1    4    4    0    0  0.23043631097E+02  0.56846049437E+02  0.53103824696E+03  0.53456909111E+03  0.10566000000E+00 0.  1.
         13    1    4    4    0    0 -0.31158200016E+02 -0.19908395601E+02  0.18706180783E+03  0.19068117043E+03  0.10566000000E+00 0. -1.
    9000005    1    3    3    0    0  0.15833322974E+01 -0.20516367795E+02  0.84311091810E+03  0.84336258425E+03  0.10000000000E+01 0.  0.
    9000005    1    3    3    0    0  0.65312366219E+01 -0.16421286041E+02  0.11364742788E+02  0.21035043753E+02  0.10000000000E+01 0.  0.
<mgrwt>
<rscale>  0 0.12264558E+03</rscale>
<asrwt>0</asrwt>
<pdfrwt beam="1">  1        1 0.24324791E+00 0.13059328E+03</pdfrwt>
<pdfrwt beam="2">  1       -1 0.13132444E-02 0.13059328E+03</pdfrwt>
<totfact> 0.78195383E+03</totfact>
</mgrwt>
</event>
<event>
 8    3  0.1508318E-003  0.2071111E+03  0.7818608E-02  0.1147393E+00
          1   -1    0    0  501    0  0.00000000000E+00  0.00000000000E+00  0.36669174013E+03  0.36669174016E+03  0.50400000000E-02 0. -1.
         -1   -1    0    0    0  501 -0.00000000000E+00 -0.00000000000E+00 -0.11129277314E+03  0.11129277325E+03  0.50400000000E-02 0.  1.
         25    2    1    2    0    0 -0.82338349378E+02 -0.14314775791E+03  0.17554371011E+03  0.27149699655E+03  0.12499656238E+03 0.  0.
         23    2    1    2    0    0  0.82338349378E+02  0.14314775791E+03  0.79855256884E+02  0.20648751687E+03  0.94812173253E+02 0.  0.
        -13    1    4    4    0    0  0.90318013807E+02  0.13749988727E+03  0.45382294059E+02  0.17065499229E+03  0.10566000000E+00 0.  1.
         13    1    4    4    0    0 -0.79796644295E+01  0.56478706404E+01  0.34472962826E+02  0.35832524572E+02  0.10566000000E+00 0. -1.
    9000005    1    3    3    0    0 -0.22416080455E+02  0.16031325995E+02  0.72162593790E+00  0.27586315813E+02  0.10000000000E+01 0.  0.
    9000005    1    3    3    0    0 -0.59922268923E+02 -0.15917908390E+03  0.17482208417E+03  0.24391068074E+03  0.10000000000E+01 0.  0.
<mgrwt>
<rscale>  0 0.20280629E+03</rscale>
<asrwt>0</asrwt>
<pdfrwt beam="1">  1        1 0.56414114E-01 0.20711114E+03</pdfrwt>
<pdfrwt beam="2">  1       -1 0.17121965E-01 0.20711114E+03</pdfrwt>
<totfact> 0.17485644E+03</totfact>
</mgrwt>
</event>
<event>
 8    3  0.1508318E-003  0.1393243E+03  0.7818608E-02  0.1229624E+00
         -1   -1    0    0    0  501 -0.00000000000E+00  0.00000000000E+00  0.90758486700E+01  0.90758500694E+01  0.50400000000E-02 0.  1.
          1   -1    0    0  501    0  0.00000000000E+00 -0.00000000000E+00 -0.16493921717E+04  0.16493921717E+04  0.50400000000E-02 0. -1.
         25    2    1    2    0    0  0.55246597272E+02 -0.27153908077E+02 -0.11010711223E+04  0.11098508308E+04  0.12498691579E+03 0.  0.
         23    2    1    2    0    0 -0.55246597272E+02  0.27153908077E+02 -0.53924520072E+03  0.54861719093E+03  0.80036956757E+02 0.  0.
        -13    1    4    4    0    0  0.65368038567E+01  0.29913787646E+02 -0.88463791252E+02  0.93613129542E+02  0.10566000000E+00 0.  1.
         13    1    4    4    0    0 -0.61783401128E+02 -0.27598795698E+01 -0.45078140947E+03  0.45500406139E+03  0.10566000000E+00 0. -1.
    9000005    1    3    3    0    0  0.71110020460E+02 -0.58932625473E+02 -0.55569134724E+03  0.56331479898E+03  0.10000000000E+01 0.  0.
    9000005    1    3    3    0    0 -0.15863423189E+02  0.31778717397E+02 -0.54537977504E+03  0.54653603184E+03  0.10000000000E+01 0.  0.
<mgrwt>
<rscale>  0 0.12854962E+03</rscale>
<asrwt>0</asrwt>
<pdfrwt beam="2">  1        1 0.25375240E+00 0.13932426E+03</pdfrwt>
<pdfrwt beam="1">  1       -1 0.13962858E-02 0.13932426E+03</pdfrwt>
<totfact> 0.64910536E+03</totfact>
</mgrwt>
</event>
<event>
 8    3  0.1508318E-003  0.1464811E+03  0.7818608E-02  0.1214770E+00
          1   -1    0    0  501    0  0.00000000000E+00  0.00000000000E+00  0.48827577528E+03  0.48827577531E+03  0.50400000000E-02 0. -1.
         -1   -1    0    0    0  501 -0.00000000000E+00 -0.00000000000E+00 -0.45350191251E+02  0.45350191531E+02  0.50400000000E-02 0.  1.
         25    2    1    2    0    0 -0.70631338552E+02 -0.29027524487E+02  0.11912040397E+03  0.18880246690E+03  0.12500127081E+03 0.  0.
         23    2    1    2    0    0  0.70631338552E+02  0.29027524487E+02  0.32380518006E+03  0.34482349994E+03  0.90675621369E+02 0.  0.
        -13    1    4    4    0    0  0.67441982351E+02  0.45959286809E+02  0.15529171389E+03  0.17543148120E+03  0.10566000000E+00 0.  1.
         13    1    4    4    0    0  0.31893562010E+01 -0.16931762322E+02  0.16851346617E+03  0.16939201874E+03  0.10566000000E+00 0. -1.
    9000005    1    3    3    0    0 -0.30261457235E+01  0.89473804253E+01 -0.24117357630E+02  0.25920264534E+02  0.10000000000E+01 0.  0.
    9000005    1    3    3    0    0 -0.67605192828E+02 -0.37974904912E+02  0.14323776160E+03  0.16288220237E+03  0.10000000000E+01 0.  0.
<mgrwt>
<rscale>  0 0.13893414E+03</rscale>
<asrwt>0</asrwt>
<pdfrwt beam="1">  1        1 0.75119349E-01 0.14648106E+03</pdfrwt>
<pdfrwt beam="2">  1       -1 0.69769527E-02 0.14648106E+03</pdfrwt>
<totfact> 0.47942399E+03</totfact>
</mgrwt>
</event>
<event>
 8    3  0.1508318E-003  0.1256470E+03  0.7818608E-02  0.1249132E+00
          1   -1    0    0  501    0  0.00000000000E+00  0.00000000000E+00  0.60298275434E+03  0.60298275436E+03  0.50400000000E-02 0. -1.
         -1   -1    0    0    0  501 -0.00000000000E+00 -0.00000000000E+00 -0.19837451941E+02  0.19837452581E+02  0.50400000000E-02 0.  1.
         25    2    1    2    0    0 -0.92844670198E+01  0.87778188299E+01  0.35633950915E+03  0.37784259197E+03  0.12499570831E+03 0.  0.
         23    2    1    2    0    0  0.92844670198E+01 -0.87778188299E+01  0.22680579325E+03  0.24497761497E+03  0.91705575368E+02 0.  0.
        -13    1    4    4    0    0  0.24122013847E+02  0.25224369369E+02  0.34319208116E+02  0.48948540038E+02  0.10566000000E+00 0.  1.
         13    1    4    4    0    0 -0.14837546828E+02 -0.34002188199E+02  0.19248658514E+03  0.19602907493E+03  0.10566000000E+00 0. -1.
    9000005    1    3    3    0    0 -0.57091036614E+02  0.24178783415E+02  0.27761062395E+03  0.28445150475E+03  0.10000000000E+01 0.  0.
    9000005    1    3    3    0    0  0.47806569594E+02 -0.15400964585E+02  0.78728885203E+02  0.93391087218E+02  0.10000000000E+01 0.  0.
<mgrwt>
<rscale>  0 0.11641444E+03</rscale>
<asrwt>0</asrwt>
<pdfrwt beam="1">  1        1 0.92766564E-01 0.12564704E+03</pdfrwt>
<pdfrwt beam="2">  1       -1 0.30519162E-02 0.12564704E+03</pdfrwt>
<totfact> 0.12159788E+04</totfact>
</mgrwt>
</event>
<event>
 8    3  0.1508318E-003  0.1790521E+03  0.7818608E-02  0.1174509E+00
          1   -1    0    0  501    0  0.00000000000E+00  0.00000000000E+00  0.18311532370E+02  0.18311533064E+02  0.50400000000E-02 0. -1.
         -1   -1    0    0    0  501 -0.00000000000E+00 -0.00000000000E+00 -0.17953877621E+04  0.17953877621E+04  0.50400000000E-02 0.  1.
         25    2    1    2    0    0 -0.77201350657E+02 -0.10234475332E+03 -0.12794829038E+04  0.12919505187E+04  0.12500057756E+03 0.  0.
         23    2    1    2    0    0  0.77201350657E+02  0.10234475332E+03 -0.49759332593E+03  0.52174877654E+03  0.90488511648E+02 0.  0.
        -13    1    4    4    0    0  0.66547103790E+02  0.59647358400E+02 -0.17835372569E+03  0.19949031811E+03  0.10566000000E+00 0. -1.
         13    1    4    4    0    0  0.10654246867E+02  0.42697394920E+02 -0.31923960024E+03  0.32225845843E+03  0.10566000000E+00 0.  1.
    9000005    1    3    3    0    0 -0.27365095378E+02 -0.10261254024E+03 -0.51458998517E+03  0.52543509085E+03  0.10000000000E+01 0.  0.
    9000005    1    3    3    0    0 -0.49836255279E+02  0.26778691848E+00 -0.76489291867E+03  0.76651542781E+03  0.10000000000E+01 0.  0.
<mgrwt>
<rscale>  0 0.17324128E+03</rscale>
<asrwt>0</asrwt>
<pdfrwt beam="1">  1        1 0.28171603E-02 0.17905206E+03</pdfrwt>
<pdfrwt beam="2">  1       -1 0.27621336E+00 0.17905206E+03</pdfrwt>
<totfact> 0.20363512E+02</totfact>
</mgrwt>
</event>
<event>
 8    3  0.1508318E-003  0.1263920E+03  0.7818608E-02  0.1247336E+00
          1   -1    0    0  501    0  0.00000000000E+00  0.00000000000E+00  0.70357568968E+03  0.70357568970E+03  0.50400000000E-02 0. -1.
         -1   -1    0    0    0  501 -0.00000000000E+00 -0.00000000000E+00 -0.17415827740E+02  0.17415828470E+02  0.50400000000E-02 0.  1.
         25    2    1    2    0    0  0.15437912494E+02 -0.10546450463E+02  0.36430432577E+03  0.38560676707E+03  0.12500152111E+03 0.  0.
         23    2    1    2    0    0 -0.15437912494E+02  0.10546450463E+02  0.32185553617E+03  0.33538475110E+03  0.92425041758E+02 0.  0.
        -13    1    4    4    0    0 -0.21236401817E+02  0.54200403993E+00  0.10289712782E+02  0.23604403904E+02  0.10566000000E+00 0.  1.
         13    1    4    4    0    0  0.57984893225E+01  0.10004446423E+02  0.31156582339E+03  0.31178034719E+03  0.10566000000E+00 0. -1.
    9000005    1    3    3    0    0  0.30250791307E+02 -0.94331200099E+01  0.36871768042E+03  0.37007812957E+03  0.10000000000E+01 0.  0.
    9000005    1    3    3    0    0 -0.14812878812E+02 -0.11133304526E+01 -0.44133546552E+01  0.15528637504E+02  0.10000000000E+01 0.  0.
<mgrwt>
<rscale>  0 0.11746657E+03</rscale>
<asrwt>0</asrwt>
<pdfrwt beam="1">  1        1 0.10824242E+00 0.12639200E+03</pdfrwt>
<pdfrwt beam="2">  1       -1 0.26793580E-02 0.12639200E+03</pdfrwt>
<totfact> 0.11855485E+04</totfact>
</mgrwt>
</event>
<event>
 8    3  0.1508318E-003  0.1261454E+03  0.7818608E-02  0.1248556E+00
          1   -1    0    0  501    0  0.00000000000E+00  0.00000000000E+00  0.13616239363E+04  0.13616239364E+04  0.50400000000E-02 0. -1.
         -1   -1    0    0    0  501 -0.00000000000E+00 -0.00000000000E+00 -0.89470098647E+01  0.89470112843E+01  0.50400000000E-02 0.  1.
         25    2    1    2    0    0  0.48635507244E+00  0.16942262440E+02  0.68634192353E+03  0.69783801917E+03  0.12500155284E+03 0.  0.
         23    2    1    2    0    0 -0.48635507244E+00 -0.16942262440E+02  0.66633500296E+03  0.67273292847E+03  0.90994395902E+02 0.  0.
        -13    1    4    4    0    0 -0.26581597996E+02 -0.75719882993E+01  0.63424636790E+02  0.69185345810E+02  0.10566000000E+00 0.  1.
         13    1    4    4    0    0  0.26095242923E+02 -0.93702741409E+01  0.60291036617E+03  0.60354758266E+03  0.10566000000E+00 0. -1.
    9000005    1    3    3    0    0 -0.32079164778E+02  0.86614191092E+01  0.46755298145E+02  0.57368553219E+02  0.10000000000E+01 0.  0.
    9000005    1    3    3    0    0  0.32565519850E+02  0.82808433310E+01  0.63958662538E+03  0.64046946595E+03  0.10000000000E+01 0.  0.
<mgrwt>
<rscale>  0 0.11675052E+03</rscale>
<asrwt>0</asrwt>
<pdfrwt beam="1">  1        1 0.20948059E+00 0.12614541E+03</pdfrwt>
<pdfrwt beam="2">  1       -1 0.13764633E-02 0.12614541E+03</pdfrwt>
<totfact> 0.10135534E+04</totfact>
</mgrwt>
</event>
<event>
 8    3  0.1508318E-003  0.1512209E+03  0.7818608E-02  0.1207826E+00
         -1   -1    0    0    0  501 -0.00000000000E+00  0.00000000000E+00  0.34812436580E+03  0.34812436583E+03  0.50400000000E-02 0.  1.
          1   -1    0    0  501    0  0.00000000000E+00 -0.00000000000E+00 -0.55092895148E+02  0.55092895379E+02  0.50400000000E-02 0. -1.
         25    2    1    2    0    0 -0.71511150805E+02 -0.46137660909E+02  0.14485726548E+03  0.20940721454E+03  0.12500090278E+03 0.  0.
         23    2    1    2    0    0  0.71511150805E+02  0.46137660909E+02  0.14817420516E+03  0.19381004667E+03  0.91456058685E+02 0.  0.
        -13    1    4    4    0    0  0.68189031414E+02 -0.97698057214E+01  0.84014451416E+02  0.10864452273E+03  0.10566000000E+00 0.  1.
         13    1    4    4    0    0  0.33221193902E+01  0.55907466630E+02  0.64159753748E+02  0.85165523936E+02  0.10566000000E+00 0. -1.
    9000005    1    3    3    0    0 -0.71974360352E+02 -0.75524656936E+02  0.14661407780E+03  0.17994713158E+03  0.10000000000E+01 0.  0.
    9000005    1    3    3    0    0  0.46320954711E+00  0.29386996027E+02 -0.17568123222E+01  0.29460082962E+02  0.10000000000E+01 0.  0.
<mgrwt>
<rscale>  0 0.14416932E+03</rscale>
<asrwt>0</asrwt>
<pdfrwt beam="2">  1        1 0.84758300E-02 0.15122088E+03</pdfrwt>
<pdfrwt beam="1">  1       -1 0.53557595E-01 0.15122088E+03</pdfrwt>
<totfact> 0.28166182E+03</totfact>
</mgrwt>
</event>
<event>
 8    3  0.1508318E-003  0.1911175E+03  0.7818608E-02  0.1162354E+00
         -1   -1    0    0    0  501 -0.00000000000E+00  0.00000000000E+00  0.11321803763E+04  0.11321803763E+04  0.50400000000E-02 0.  1.
          1   -1    0    0  501    0  0.00000000000E+00 -0.00000000000E+00 -0.29080818995E+02  0.29080819432E+02  0.50400000000E-02 0. -1.
         25    2    1    2    0    0  0.13969897416E+03  0.37398737336E+02  0.63102997209E+03  0.65933658690E+03  0.12494574904E+03 0.  0.
         23    2    1    2    0    0 -0.13969897416E+03 -0.37398737336E+02  0.47206958518E+03  0.50192460881E+03  0.90355690174E+02 0.  0.
        -13    1    4    4    0    0 -0.52579974598E+02 -0.35420408600E+01  0.31317877031E+03  0.31758172667E+03  0.10566000000E+00 0.  1.
         13    1    4    4    0    0 -0.87118999564E+02 -0.33856696476E+02  0.15889081487E+03  0.18434288214E+03  0.10566000000E+00 0. -1.
    9000005    1    3    3    0    0  0.10335295233E+03 -0.23384251186E+02  0.24611601518E+03  0.26796034946E+03  0.10000000000E+01 0.  0.
    9000005    1    3    3    0    0  0.36346021837E+02  0.60782988522E+02  0.38491395692E+03  0.39137623743E+03  0.10000000000E+01 0.  0.
<mgrwt>
<rscale>  0 0.18574713E+03</rscale>
<asrwt>0</asrwt>
<pdfrwt beam="2">  1        1 0.44739725E-02 0.19111753E+03</pdfrwt>
<pdfrwt beam="1">  1       -1 0.17418158E+00 0.19111753E+03</pdfrwt>
<totfact> 0.48760501E+02</totfact>
</mgrwt>
</event>
