<event>
 5    1  0.3271306E-002  0.1250110E+03  0.7818608E-02  0.1235052E+00
          4   -1    0    0  501    0  0.00000000000E+00  0.00000000000E+00  0.14673833655E+03  0.14674383228E+03  0.12700000000E+01 0. -1.
         -4   -1    0    0    0  501 -0.00000000000E+00 -0.00000000000E+00 -0.26604078350E+02  0.26634374122E+02  0.12700000000E+01 0. -1.
         25    2    1    2    0    0  0.00000000000E+00  0.00000000000E+00  0.12013425820E+03  0.17337820641E+03  0.12501104936E+03 0.  0.
    9000005    1    3    3    0    0  0.17497332083E+02  0.62943382896E+01 -0.22685382930E+02  0.29349649456E+02  0.10000000000E+01 0.  0.
    9000005    1    3    3    0    0 -0.17497332083E+02 -0.62943382896E+01  0.14281964113E+03  0.14402855695E+03  0.10000000000E+01 0.  0.
<mgrwt>
<rscale>  0 0.12501105E+03</rscale>
<asrwt>0</asrwt>
<pdfrwt beam="1">  1        4 0.22577882E-01 0.12501105E+03</pdfrwt>
<pdfrwt beam="2">  1       -4 0.40956883E-02 0.12501105E+03</pdfrwt>
<totfact> 0.94799206E+03</totfact>
</mgrwt>
</event>
<event>
 5    1  0.3271306E-002  0.1250090E+03  0.7818608E-02  0.1235055E+00
         -4   -1    0    0    0  501 -0.00000000000E+00  0.00000000000E+00  0.41346132213E+02  0.41365632462E+02  0.12700000000E+01 0. -1.
          4   -1    0    0  501    0  0.00000000000E+00 -0.00000000000E+00 -0.94444320268E+02  0.94452858776E+02  0.12700000000E+01 0. -1.
         25    2    1    2    0    0  0.00000000000E+00  0.00000000000E+00 -0.53098188056E+02  0.13581849124E+03  0.12500897963E+03 0.  0.
    9000005    1    3    3    0    0 -0.32641273332E+02  0.32023678971E+02  0.19735575030E+02  0.49814271663E+02  0.10000000000E+01 0.  0.
    9000005    1    3    3    0    0  0.32641273332E+02 -0.32023678971E+02 -0.72833763085E+02  0.86004219575E+02  0.10000000000E+01 0.  0.
<mgrwt>
<rscale>  0 0.12500898E+03</rscale>
<asrwt>0</asrwt>
<pdfrwt beam="2">  1        4 0.14532052E-01 0.12500898E+03</pdfrwt>
<pdfrwt beam="1">  1       -4 0.63631002E-02 0.12500898E+03</pdfrwt>
<totfact> 0.10218778E+04</totfact>
</mgrwt>
</event>
<event>
 5    1  0.3271306E-002  0.1250030E+03  0.7818608E-02  0.1235065E+00
          4   -1    0    0  501    0  0.00000000000E+00  0.00000000000E+00  0.34268699177E+02  0.34292224240E+02  0.12700000000E+01 0.  1.
         -4   -1    0    0    0  501 -0.00000000000E+00 -0.00000000000E+00 -0.11392821926E+03  0.11393529762E+03  0.12700000000E+01 0.  1.
         25    2    1    2    0    0  0.00000000000E+00  0.00000000000E+00 -0.79659520079E+02  0.14822752186E+03  0.12500303635E+03 0.  0.
    9000005    1    3    3    0    0  0.79118677768E+01  0.60776791866E+02 -0.25354180961E+02  0.66334384549E+02  0.10000000000E+01 0.  0.
    9000005    1    3    3    0    0 -0.79118677768E+01 -0.60776791866E+02 -0.54305339118E+02  0.81893137307E+02  0.10000000000E+01 0.  0.
<mgrwt>
<rscale>  0 0.12500304E+03</rscale>
<asrwt>0</asrwt>
<pdfrwt beam="1">  1        4 0.52744617E-02 0.12500304E+03</pdfrwt>
<pdfrwt beam="2">  1       -4 0.17529772E-01 0.12500304E+03</pdfrwt>
<totfact> 0.99651384E+03</totfact>
</mgrwt>
</event>
<event>
 5    1  0.3271306E-002  0.1249926E+03  0.7818608E-02  0.1235081E+00
         -4   -1    0    0    0  501 -0.00000000000E+00  0.00000000000E+00  0.44032783181E+03  0.44032966329E+03  0.12700000000E+01 0. -1.
          4   -1    0    0  501    0  0.00000000000E+00 -0.00000000000E+00 -0.88228608372E+01  0.89137967978E+01  0.12700000000E+01 0. -1.
         25    2    1    2    0    0  0.00000000000E+00  0.00000000000E+00  0.43150497098E+03  0.44924346009E+03  0.12499258558E+03 0.  0.
    9000005    1    3    3    0    0  0.57651309375E+02  0.11104708003E+02  0.29265397324E+03  0.29848674354E+03  0.10000000000E+01 0.  0.
    9000005    1    3    3    0    0 -0.57651309375E+02 -0.11104708003E+02  0.13885099773E+03  0.15075671655E+03  0.10000000000E+01 0.  0.
<mgrwt>
<rscale>  0 0.12499259E+03</rscale>
<asrwt>0</asrwt>
<pdfrwt beam="2">  1        4 0.13644993E-02 0.12499259E+03</pdfrwt>
<pdfrwt beam="1">  1       -4 0.67749873E-01 0.12499259E+03</pdfrwt>
<totfact> 0.60039196E+03</totfact>
</mgrwt>
</event>
<event>
 5    1  0.3271306E-002  0.1250010E+03  0.7818608E-02  0.1235068E+00
         -4   -1    0    0    0  501 -0.00000000000E+00  0.00000000000E+00  0.44692302859E+02  0.44710343712E+02  0.12700000000E+01 0. -1.
          4   -1    0    0  501    0  0.00000000000E+00 -0.00000000000E+00 -0.87364298119E+02  0.87373528519E+02  0.12700000000E+01 0. -1.
         25    2    1    2    0    0  0.00000000000E+00  0.00000000000E+00 -0.42671995260E+02  0.13208387223E+03  0.12500100049E+03 0.  0.
    9000005    1    3    3    0    0 -0.28222114581E+02 -0.52079958058E+02 -0.42376659843E+02  0.72839488482E+02  0.10000000000E+01 0.  0.
    9000005    1    3    3    0    0  0.28222114581E+02  0.52079958058E+02 -0.29533541694E+00  0.59244383749E+02  0.10000000000E+01 0.  0.
<mgrwt>
<rscale>  0 0.12500100E+03</rscale>
<asrwt>0</asrwt>
<pdfrwt beam="2">  1        4 0.13442759E-01 0.12500100E+03</pdfrwt>
<pdfrwt beam="1">  1       -4 0.68778367E-02 0.12500100E+03</pdfrwt>
<totfact> 0.10299676E+04</totfact>
</mgrwt>
</event>
<event>
 5    1  0.3271306E-002  0.1250030E+03  0.7818608E-02  0.1235065E+00
         -4   -1    0    0    0  501 -0.00000000000E+00  0.00000000000E+00  0.11060169607E+03  0.11060898731E+03  0.12700000000E+01 0.  1.
          4   -1    0    0  501    0  0.00000000000E+00 -0.00000000000E+00 -0.35299970619E+02  0.35322808859E+02  0.12700000000E+01 0.  1.
         25    2    1    2    0    0  0.00000000000E+00  0.00000000000E+00  0.75301725453E+02  0.14593179617E+03  0.12500295707E+03 0.  0.
    9000005    1    3    3    0    0  0.16290935082E+02  0.46094742389E+02 -0.77936131592E+01  0.49516262458E+02  0.10000000000E+01 0.  0.
    9000005    1    3    3    0    0 -0.16290935082E+02 -0.46094742389E+02  0.83095338612E+02  0.96415533712E+02  0.10000000000E+01 0.  0.
<mgrwt>
<rscale>  0 0.12500296E+03</rscale>
<asrwt>0</asrwt>
<pdfrwt beam="2">  1        4 0.54330824E-02 0.12500296E+03</pdfrwt>
<pdfrwt beam="1">  1       -4 0.17017963E-01 0.12500296E+03</pdfrwt>
<totfact> 0.10011424E+04</totfact>
</mgrwt>
</event>
<event>
 5    1  0.3271306E-002  0.1250000E+03  0.7818608E-02  0.1235069E+00
         -4   -1    0    0    0  501 -0.00000000000E+00  0.00000000000E+00  0.15612729486E+02  0.15664297686E+02  0.12700000000E+01 0. -1.
          4   -1    0    0  501    0  0.00000000000E+00 -0.00000000000E+00 -0.24973083569E+03  0.24973406495E+03  0.12700000000E+01 0. -1.
         25    2    1    2    0    0  0.00000000000E+00  0.00000000000E+00 -0.23411810620E+03  0.26539836263E+03  0.12500001294E+03 0.  0.
    9000005    1    3    3    0    0 -0.45135880885E+02 -0.38729375823E+02 -0.15779096685E+03  0.16863036949E+03  0.10000000000E+01 0.  0.
    9000005    1    3    3    0    0  0.45135880885E+02  0.38729375823E+02 -0.76327139356E+02  0.96767993144E+02  0.10000000000E+01 0.  0.
<mgrwt>
<rscale>  0 0.12500001E+03</rscale>
<asrwt>0</asrwt>
<pdfrwt beam="2">  1        4 0.38424341E-01 0.12500001E+03</pdfrwt>
<pdfrwt beam="1">  1       -4 0.24061737E-02 0.12500001E+03</pdfrwt>
<totfact> 0.80154374E+03</totfact>
</mgrwt>
</event>
<event>
 5    1  0.3271306E-002  0.1250010E+03  0.7818608E-02  0.1235068E+00
          4   -1    0    0  501    0  0.00000000000E+00  0.00000000000E+00  0.63760457849E+01  0.65012967823E+01  0.12700000000E+01 0. -1.
         -4   -1    0    0    0  501 -0.00000000000E+00 -0.00000000000E+00 -0.60656953372E+03  0.60657086325E+03  0.12700000000E+01 0. -1.
         25    2    1    2    0    0  0.00000000000E+00  0.00000000000E+00 -0.60019348794E+03  0.61307216003E+03  0.12500100176E+03 0.  0.
    9000005    1    3    3    0    0  0.43847522524E+02 -0.33181212840E+02 -0.15446297426E+03  0.16396160690E+03  0.10000000000E+01 0.  0.
    9000005    1    3    3    0    0 -0.43847522524E+02  0.33181212840E+02 -0.44573051367E+03  0.44911055313E+03  0.10000000000E+01 0.  0.
<mgrwt>
<rscale>  0 0.12500100E+03</rscale>
<asrwt>0</asrwt>
<pdfrwt beam="1">  1        4 0.99066756E-03 0.12500100E+03</pdfrwt>
<pdfrwt beam="2">  1       -4 0.93328082E-01 0.12500100E+03</pdfrwt>
<totfact> 0.48051682E+03</totfact>
</mgrwt>
</event>
<event>
 5    1  0.3271306E-002  0.1250009E+03  0.7818608E-02  0.1235068E+00
         -4   -1    0    0    0  501 -0.00000000000E+00  0.00000000000E+00  0.64870168612E+02  0.64882599176E+02  0.12700000000E+01 0. -1.
          4   -1    0    0  501    0  0.00000000000E+00 -0.00000000000E+00 -0.60192362827E+02  0.60205759215E+02  0.12700000000E+01 0. -1.
         25    2    1    2    0    0  0.00000000000E+00  0.00000000000E+00  0.46778057857E+01  0.12508835839E+03  0.12500086215E+03 0.  0.
    9000005    1    3    3    0    0  0.14835142053E+02 -0.49960152450E+02  0.36847901711E+02  0.63834678139E+02  0.10000000000E+01 0.  0.
    9000005    1    3    3    0    0 -0.14835142053E+02  0.49960152450E+02 -0.32170095926E+02  0.61253680252E+02  0.10000000000E+01 0.  0.
<mgrwt>
<rscale>  0 0.12500086E+03</rscale>
<asrwt>0</asrwt>
<pdfrwt beam="2">  1        4 0.92623502E-02 0.12500086E+03</pdfrwt>
<pdfrwt beam="1">  1       -4 0.99820127E-02 0.12500086E+03</pdfrwt>
<totfact> 0.10450740E+04</totfact>
</mgrwt>
</event>
<event>
 5    1  0.3271306E-002  0.1249865E+03  0.7818608E-02  0.1235090E+00
         -4   -1    0    0    0  501 -0.00000000000E+00  0.00000000000E+00  0.16430566373E+02  0.16479575581E+02  0.12700000000E+01 0. -1.
          4   -1    0    0  501    0  0.00000000000E+00 -0.00000000000E+00 -0.23728692365E+03  0.23729032225E+03  0.12700000000E+01 0. -1.
         25    2    1    2    0    0  0.00000000000E+00  0.00000000000E+00 -0.22085635727E+03  0.25376989783E+03  0.12498652126E+03 0.  0.
    9000005    1    3    3    0    0 -0.59792234906E+02  0.12140265498E+02 -0.83043636917E+02  0.10305213745E+03  0.10000000000E+01 0.  0.
    9000005    1    3    3    0    0  0.59792234906E+02 -0.12140265498E+02 -0.13781272036E+03  0.15071776038E+03  0.10000000000E+01 0.  0.
<mgrwt>
<rscale>  0 0.12498652E+03</rscale>
<asrwt>0</asrwt>
<pdfrwt beam="2">  1        4 0.36509709E-01 0.12498652E+03</pdfrwt>
<pdfrwt beam="1">  1       -4 0.25318110E-02 0.12498652E+03</pdfrwt>
<totfact> 0.81812952E+03</totfact>
</mgrwt>
</event>
<event>
 5    1  0.3271306E-002  0.1249979E+03  0.7818608E-02  0.1235073E+00
          4   -1    0    0  501    0  0.00000000000E+00  0.00000000000E+00  0.24153329568E+02  0.24186695294E+02  0.12700000000E+01 0. -1.
         -4   -1    0    0    0  501 -0.00000000000E+00 -0.00000000000E+00 -0.16157433279E+03  0.16157932392E+03  0.12700000000E+01 0. -1.
         25    2    1    2    0    0  0.00000000000E+00  0.00000000000E+00 -0.13742100322E+03  0.18576601921E+03  0.12499792705E+03 0.  0.
    9000005    1    3    3    0    0 -0.23952619122E+02 -0.31566378992E+02  0.31024591774E+01  0.39759143582E+02  0.10000000000E+01 0.  0.
    9000005    1    3    3    0    0  0.23952619122E+02  0.31566378992E+02 -0.14052346240E+03  0.14600687563E+03  0.10000000000E+01 0.  0.
<mgrwt>
<rscale>  0 0.12499793E+03</rscale>
<asrwt>0</asrwt>
<pdfrwt beam="1">  1        4 0.37188475E-02 0.12499793E+03</pdfrwt>
<pdfrwt beam="2">  1       -4 0.24860539E-01 0.12499793E+03</pdfrwt>
<totfact> 0.92593579E+03</totfact>
</mgrwt>
</event>
<event>
 5    1  0.3271306E-002  0.1249987E+03  0.7818608E-02  0.1235071E+00
         -4   -1    0    0    0  501 -0.00000000000E+00  0.00000000000E+00  0.62501660330E+02  0.62514561855E+02  0.12700000000E+01 0.  1.
          4   -1    0    0  501    0  0.00000000000E+00 -0.00000000000E+00 -0.62471261327E+02  0.62484169129E+02  0.12700000000E+01 0.  1.
         25    2    1    2    0    0  0.00000000000E+00  0.00000000000E+00  0.30399003125E-01  0.12499873098E+03  0.12499872729E+03 0.  0.
    9000005    1    3    3    0    0 -0.22876665539E+01  0.77822374783E-03 -0.62434278220E+02  0.62484178123E+02  0.10000000000E+01 0.  0.
    9000005    1    3    3    0    0  0.22876665539E+01 -0.77822374783E-03  0.62464677223E+02  0.62514552861E+02  0.10000000000E+01 0.  0.
<mgrwt>
<rscale>  0 0.12499873E+03</rscale>
<asrwt>0</asrwt>
<pdfrwt beam="2">  1        4 0.96129487E-02 0.12499873E+03</pdfrwt>
<pdfrwt beam="1">  1       -4 0.96176253E-02 0.12499873E+03</pdfrwt>
<totfact> 0.10453191E+04</totfact>
</mgrwt>
</event>
<event>
 5    1  0.3271306E-002  0.1249998E+03  0.7818608E-02  0.1235070E+00
         -4   -1    0    0    0  501 -0.00000000000E+00  0.00000000000E+00  0.53548408130E+02  0.53563466218E+02  0.12700000000E+01 0. -1.
          4   -1    0    0  501    0  0.00000000000E+00 -0.00000000000E+00 -0.72916913325E+02  0.72927972335E+02  0.12700000000E+01 0. -1.
         25    2    1    2    0    0  0.00000000000E+00  0.00000000000E+00 -0.19368505194E+02  0.12649143855E+03  0.12499978013E+03 0.  0.
    9000005    1    3    3    0    0 -0.16490128911E+02  0.60276428339E+02 -0.99404409282E+01  0.63284947109E+02  0.10000000000E+01 0.  0.
    9000005    1    3    3    0    0  0.16490128911E+02 -0.60276428339E+02 -0.94280642663E+01  0.63206491443E+02  0.10000000000E+01 0.  0.
<mgrwt>
<rscale>  0 0.12499978E+03</rscale>
<asrwt>0</asrwt>
<pdfrwt beam="2">  1        4 0.11219996E-01 0.12499978E+03</pdfrwt>
<pdfrwt beam="1">  1       -4 0.82402256E-02 0.12499978E+03</pdfrwt>
<totfact> 0.10420266E+04</totfact>
</mgrwt>
</event>
<event>
 5    1  0.3271306E-002  0.1249993E+03  0.7818608E-02  0.1235070E+00
         -4   -1    0    0    0  501 -0.00000000000E+00  0.00000000000E+00  0.84249984729E+03  0.84250080451E+03  0.12700000000E+01 0. -1.
          4   -1    0    0  501    0  0.00000000000E+00 -0.00000000000E+00 -0.45485044803E+01  0.47224774226E+01  0.12700000000E+01 0. -1.
         25    2    1    2    0    0  0.00000000000E+00  0.00000000000E+00  0.83795134281E+03  0.84722328193E+03  0.12499934606E+03 0.  0.
    9000005    1    3    3    0    0 -0.17450497656E+02 -0.25744344908E+02  0.78635098797E+03  0.78696643350E+03  0.10000000000E+01 0.  0.
    9000005    1    3    3    0    0  0.17450497656E+02  0.25744344908E+02  0.51600354841E+02  0.60256848432E+02  0.10000000000E+01 0.  0.
<mgrwt>
<rscale>  0 0.12499935E+03</rscale>
<asrwt>0</asrwt>
<pdfrwt beam="2">  1        4 0.71322684E-03 0.12499935E+03</pdfrwt>
<pdfrwt beam="1">  1       -4 0.12962868E+00 0.12499935E+03</pdfrwt>
<totfact> 0.36241772E+03</totfact>
</mgrwt>
</event>
<event>
 5    1  0.3271306E-002  0.1249986E+03  0.7818608E-02  0.1235071E+00
         -4   -1    0    0    0  501 -0.00000000000E+00  0.00000000000E+00  0.19303807462E+03  0.19304225225E+03  0.12700000000E+01 0.  1.
          4   -1    0    0  501    0  0.00000000000E+00 -0.00000000000E+00 -0.20210872783E+02  0.20250735262E+02  0.12700000000E+01 0.  1.
         25    2    1    2    0    0  0.00000000000E+00  0.00000000000E+00  0.17282720184E+03  0.21329298751E+03  0.12499862730E+03 0.  0.
    9000005    1    3    3    0    0  0.75329886711E+00  0.62454751033E+02  0.83000525575E+02  0.10388094451E+03  0.10000000000E+01 0.  0.
    9000005    1    3    3    0    0 -0.75329886711E+00 -0.62454751033E+02  0.89826676264E+02  0.10941204300E+03  0.10000000000E+01 0.  0.
<mgrwt>
<rscale>  0 0.12499863E+03</rscale>
<asrwt>0</asrwt>
<pdfrwt beam="2">  1        4 0.31127527E-02 0.12499863E+03</pdfrwt>
<pdfrwt beam="1">  1       -4 0.29701553E-01 0.12499863E+03</pdfrwt>
<totfact> 0.87943598E+03</totfact>
</mgrwt>
</event>
<event>
 5    1  0.3271306E-002  0.1250091E+03  0.7818608E-02  0.1235055E+00
         -4   -1    0    0    0  501 -0.00000000000E+00  0.00000000000E+00  0.13676781817E+03  0.13677371453E+03  0.12700000000E+01 0. -1.
          4   -1    0    0  501    0  0.00000000000E+00 -0.00000000000E+00 -0.28544726533E+02  0.28572964720E+02  0.12700000000E+01 0. -1.
         25    2    1    2    0    0  0.00000000000E+00  0.00000000000E+00  0.10822309164E+03  0.16534667925E+03  0.12500914677E+03 0.  0.
    9000005    1    3    3    0    0 -0.49432547835E+02  0.37716146460E+02  0.45773729119E+02  0.77216052520E+02  0.10000000000E+01 0.  0.
    9000005    1    3    3    0    0  0.49432547835E+02 -0.37716146460E+02  0.62449362517E+02  0.88130626732E+02  0.10000000000E+01 0.  0.
<mgrwt>
<rscale>  0 0.12500915E+03</rscale>
<asrwt>0</asrwt>
<pdfrwt beam="2">  1        4 0.43941220E-02 0.12500915E+03</pdfrwt>
<pdfrwt beam="1">  1       -4 0.21043829E-01 0.12500915E+03</pdfrwt>
<totfact> 0.96301987E+03</totfact>
</mgrwt>
</event>
<event>
 5    1  0.3271306E-002  0.1250000E+03  0.7818608E-02  0.1235069E+00
         -4   -1    0    0    0  501 -0.00000000000E+00  0.00000000000E+00  0.38033971077E+01  0.40098291184E+01  0.12700000000E+01 0. -1.
          4   -1    0    0  501    0  0.00000000000E+00 -0.00000000000E+00 -0.99970079879E+03  0.99970160548E+03  0.12700000000E+01 0. -1.
         25    2    1    2    0    0  0.00000000000E+00  0.00000000000E+00 -0.99589740168E+03  0.10037114346E+04  0.12500003707E+03 0.  0.
    9000005    1    3    3    0    0  0.56564307481E+02  0.22846751315E+02 -0.38910052942E+03  0.39385494401E+03  0.10000000000E+01 0.  0.
    9000005    1    3    3    0    0 -0.56564307481E+02 -0.22846751315E+02 -0.60679687227E+03  0.60985649059E+03  0.10000000000E+01 0.  0.
<mgrwt>
<rscale>  0 0.12500004E+03</rscale>
<asrwt>0</asrwt>
<pdfrwt beam="2">  1        4 0.15381586E+00 0.12500004E+03</pdfrwt>
<pdfrwt beam="1">  1       -4 0.60108025E-03 0.12500004E+03</pdfrwt>
<totfact> 0.30482269E+03</totfact>
</mgrwt>
</event>
<event>
 5    1  0.3271306E-002  0.1249976E+03  0.7818608E-02  0.1235073E+00
         -4   -1    0    0    0  501 -0.00000000000E+00  0.00000000000E+00  0.32961410748E+02  0.32985868164E+02  0.12700000000E+01 0.  1.
          4   -1    0    0  501    0  0.00000000000E+00 -0.00000000000E+00 -0.11843338308E+03  0.11844019220E+03  0.12700000000E+01 0.  1.
         25    2    1    2    0    0  0.00000000000E+00  0.00000000000E+00 -0.85471972329E+02  0.15142606036E+03  0.12499757478E+03 0.  0.
    9000005    1    3    3    0    0  0.27024412551E+02  0.27841854564E+02 -0.10207897696E+03  0.10920899815E+03  0.10000000000E+01 0.  0.
    9000005    1    3    3    0    0 -0.27024412551E+02 -0.27841854564E+02  0.16607004628E+02  0.42217062214E+02  0.10000000000E+01 0.  0.
<mgrwt>
<rscale>  0 0.12499757E+03</rscale>
<asrwt>0</asrwt>
<pdfrwt beam="2">  1        4 0.18222925E-01 0.12499757E+03</pdfrwt>
<pdfrwt beam="1">  1       -4 0.50733914E-02 0.12499757E+03</pdfrwt>
<totfact> 0.99025595E+03</totfact>
</mgrwt>
</event>
<event>
 5    1  0.3271306E-002  0.1250008E+03  0.7818608E-02  0.1235068E+00
          4   -1    0    0  501    0  0.00000000000E+00  0.00000000000E+00  0.23452827889E+02  0.23487188763E+02  0.12700000000E+01 0. -1.
         -4   -1    0    0    0  501 -0.00000000000E+00 -0.00000000000E+00 -0.16640113729E+03  0.16640598364E+03  0.12700000000E+01 0. -1.
         25    2    1    2    0    0  0.00000000000E+00  0.00000000000E+00 -0.14294830940E+03  0.18989317240E+03  0.12500079106E+03 0.  0.
    9000005    1    3    3    0    0 -0.20640912896E+02 -0.26922097364E+02 -0.15120277676E+03  0.15496491961E+03  0.10000000000E+01 0.  0.
    9000005    1    3    3    0    0  0.20640912896E+02  0.26922097364E+02  0.82544673565E+01  0.34928252790E+02  0.10000000000E+01 0.  0.
<mgrwt>
<rscale>  0 0.12500079E+03</rscale>
<asrwt>0</asrwt>
<pdfrwt beam="1">  1        4 0.36111434E-02 0.12500079E+03</pdfrwt>
<pdfrwt beam="2">  1       -4 0.25603190E-01 0.12500079E+03</pdfrwt>
<totfact> 0.91864278E+03</totfact>
</mgrwt>
</event>
<event>
 5    1  0.3271306E-002  0.1250012E+03  0.7818608E-02  0.1235067E+00
          4   -1    0    0  501    0  0.00000000000E+00  0.00000000000E+00  0.14970665398E+03  0.14971204075E+03  0.12700000000E+01 0.  1.
         -4   -1    0    0    0  501 -0.00000000000E+00 -0.00000000000E+00 -0.26071901073E+02  0.26102814515E+02  0.12700000000E+01 0.  1.
         25    2    1    2    0    0  0.00000000000E+00  0.00000000000E+00  0.12363475290E+03  0.17581485526E+03  0.12500124482E+03 0.  0.
    9000005    1    3    3    0    0  0.43866529049E+02  0.44499357277E+02  0.63123710181E+02  0.88826054488E+02  0.10000000000E+01 0.  0.
    9000005    1    3    3    0    0 -0.43866529049E+02 -0.44499357277E+02  0.60511042720E+02  0.86988800773E+02  0.10000000000E+01 0.  0.
<mgrwt>
<rscale>  0 0.12500124E+03</rscale>
<asrwt>0</asrwt>
<pdfrwt beam="1">  1        4 0.23034585E-01 0.12500124E+03</pdfrwt>
<pdfrwt beam="2">  1       -4 0.40138541E-02 0.12500124E+03</pdfrwt>
<totfact> 0.94373178E+03</totfact>
</mgrwt>
</event>
<event>
 5    1  0.3271306E-002  0.1249981E+03  0.7818608E-02  0.1235072E+00
          4   -1    0    0  501    0  0.00000000000E+00  0.00000000000E+00  0.98783349637E+01  0.99596386308E+01  0.12700000000E+01 0.  1.
         -4   -1    0    0    0  501 -0.00000000000E+00 -0.00000000000E+00 -0.39372134164E+03  0.39372338991E+03  0.12700000000E+01 0.  1.
         25    2    1    2    0    0  0.00000000000E+00  0.00000000000E+00 -0.38384300668E+03  0.40368302854E+03  0.12499813502E+03 0.  0.
    9000005    1    3    3    0    0 -0.83620822510E+01 -0.56577709542E+02 -0.11059344159E+03  0.12451052549E+03  0.10000000000E+01 0.  0.
    9000005    1    3    3    0    0  0.83620822510E+01  0.56577709542E+02 -0.27324956509E+03  0.27917250305E+03  0.10000000000E+01 0.  0.
<mgrwt>
<rscale>  0 0.12499814E+03</rscale>
<asrwt>0</asrwt>
<pdfrwt beam="1">  1        4 0.15261558E-02 0.12499814E+03</pdfrwt>
<pdfrwt beam="2">  1       -4 0.60578914E-01 0.12499814E+03</pdfrwt>
<totfact> 0.64198800E+03</totfact>
</mgrwt>
</event>
<event>
 5    1  0.3271306E-002  0.1250021E+03  0.7818608E-02  0.1235066E+00
         -4   -1    0    0    0  501 -0.00000000000E+00  0.00000000000E+00  0.16412714192E+03  0.16413205541E+03  0.12700000000E+01 0.  1.
          4   -1    0    0  501    0  0.00000000000E+00 -0.00000000000E+00 -0.23778720787E+02  0.23812611412E+02  0.12700000000E+01 0.  1.
         25    2    1    2    0    0  0.00000000000E+00  0.00000000000E+00  0.14034842113E+03  0.18794466683E+03  0.12500207388E+03 0.  0.
    9000005    1    3    3    0    0  0.51770294416E+02 -0.17775385396E+02  0.11551143187E+03  0.12782808221E+03  0.10000000000E+01 0.  0.
    9000005    1    3    3    0    0 -0.51770294416E+02  0.17775385396E+02  0.24836989263E+02  0.60116584614E+02  0.10000000000E+01 0.  0.
<mgrwt>
<rscale>  0 0.12500207E+03</rscale>
<asrwt>0</asrwt>
<pdfrwt beam="2">  1        4 0.36612497E-02 0.12500207E+03</pdfrwt>
<pdfrwt beam="1">  1       -4 0.25253314E-01 0.12500207E+03</pdfrwt>
<totfact> 0.92201886E+03</totfact>
</mgrwt>
</event>
<event>
 5    1  0.3271306E-002  0.1250024E+03  0.7818608E-02  0.1235066E+00
          4   -1    0    0  501    0  0.00000000000E+00  0.00000000000E+00  0.35868483501E+03  0.35868708336E+03  0.12700000000E+01 0. -1.
         -4   -1    0    0    0  501 -0.00000000000E+00 -0.00000000000E+00 -0.10851585437E+02  0.10925649020E+02  0.12700000000E+01 0. -1.
         25    2    1    2    0    0  0.00000000000E+00  0.00000000000E+00  0.34783324958E+03  0.36961273238E+03  0.12500240968E+03 0.  0.
    9000005    1    3    3    0    0  0.30545496125E+02 -0.93300594158E+01  0.33274415296E+03  0.33427495969E+03  0.10000000000E+01 0.  0.
    9000005    1    3    3    0    0 -0.30545496125E+02  0.93300594158E+01  0.15089096613E+02  0.35337772692E+02  0.10000000000E+01 0.  0.
<mgrwt>
<rscale>  0 0.12500241E+03</rscale>
<asrwt>0</asrwt>
<pdfrwt beam="1">  1        4 0.55188142E-01 0.12500241E+03</pdfrwt>
<pdfrwt beam="2">  1       -4 0.16753452E-02 0.12500241E+03</pdfrwt>
<totfact> 0.67615875E+03</totfact>
</mgrwt>
</event>
<event>
 5    1  0.3271306E-002  0.1249979E+03  0.7818608E-02  0.1235073E+00
         -4   -1    0    0    0  501 -0.00000000000E+00  0.00000000000E+00  0.75304620000E+03  0.75304727092E+03  0.12700000000E+01 0. -1.
          4   -1    0    0  501    0  0.00000000000E+00 -0.00000000000E+00 -0.51082603015E+01  0.52637651266E+01  0.12700000000E+01 0. -1.
         25    2    1    2    0    0  0.00000000000E+00  0.00000000000E+00  0.74793793970E+03  0.75831103605E+03  0.12499786296E+03 0.  0.
    9000005    1    3    3    0    0 -0.17724223624E+02  0.37019755910E+02  0.88097533055E+02  0.97194576809E+02  0.10000000000E+01 0.  0.
    9000005    1    3    3    0    0  0.17724223624E+02 -0.37019755910E+02  0.65984040665E+03  0.66111645924E+03  0.10000000000E+01 0.  0.
<mgrwt>
<rscale>  0 0.12499786E+03</rscale>
<asrwt>0</asrwt>
<pdfrwt beam="2">  1        4 0.79793034E-03 0.12499786E+03</pdfrwt>
<pdfrwt beam="1">  1       -4 0.11586533E+00 0.12499786E+03</pdfrwt>
<totfact> 0.40181611E+03</totfact>
</mgrwt>
</event>
<event>
 5    1  0.3271306E-002  0.1250023E+03  0.7818608E-02  0.1235066E+00
         -4   -1    0    0    0  501 -0.00000000000E+00  0.00000000000E+00  0.48357374886E+02  0.48374048889E+02  0.12700000000E+01 0.  1.
          4   -1    0    0  501    0  0.00000000000E+00 -0.00000000000E+00 -0.80746127283E+02  0.80756114141E+02  0.12700000000E+01 0.  1.
         25    2    1    2    0    0  0.00000000000E+00  0.00000000000E+00 -0.32388752397E+02  0.12913016303E+03  0.12500227087E+03 0.  0.
    9000005    1    3    3    0    0 -0.61371217544E+02  0.98913788384E+01 -0.22819121010E+02  0.66226716677E+02  0.10000000000E+01 0.  0.
    9000005    1    3    3    0    0  0.61371217544E+02 -0.98913788384E+01 -0.95696313866E+01  0.62903446353E+02  0.10000000000E+01 0.  0.
<mgrwt>
<rscale>  0 0.12500227E+03</rscale>
<asrwt>0</asrwt>
<pdfrwt beam="2">  1        4 0.12424532E-01 0.12500227E+03</pdfrwt>
<pdfrwt beam="1">  1       -4 0.74416470E-02 0.12500227E+03</pdfrwt>
<totfact> 0.10362619E+04</totfact>
</mgrwt>
</event>
<event>
 5    1  0.3271306E-002  0.1250014E+03  0.7818608E-02  0.1235067E+00
          4   -1    0    0  501    0  0.00000000000E+00  0.00000000000E+00  0.33841543417E+03  0.33841781718E+03  0.12700000000E+01 0.  1.
         -4   -1    0    0    0  501 -0.00000000000E+00 -0.00000000000E+00 -0.11505657780E+02  0.11575537177E+02  0.12700000000E+01 0.  1.
         25    2    1    2    0    0  0.00000000000E+00  0.00000000000E+00  0.32690977639E+03  0.34999335436E+03  0.12500138477E+03 0.  0.
    9000005    1    3    3    0    0 -0.18835212818E+01  0.49996424078E+02  0.26829842577E+03  0.27292532925E+03  0.10000000000E+01 0.  0.
    9000005    1    3    3    0    0  0.18835212818E+01 -0.49996424078E+02  0.58611350620E+02  0.77068025111E+02  0.10000000000E+01 0.  0.
<mgrwt>
<rscale>  0 0.12500138E+03</rscale>
<asrwt>0</asrwt>
<pdfrwt beam="1">  1        4 0.52069475E-01 0.12500138E+03</pdfrwt>
<pdfrwt beam="2">  1       -4 0.17756597E-02 0.12500138E+03</pdfrwt>
<totfact> 0.69723146E+03</totfact>
</mgrwt>
</event>
<event>
 5    1  0.3271306E-002  0.1250006E+03  0.7818608E-02  0.1235068E+00
         -4   -1    0    0    0  501 -0.00000000000E+00  0.00000000000E+00  0.74370084572E+02  0.74380927523E+02  0.12700000000E+01 0.  1.
          4   -1    0    0  501    0  0.00000000000E+00 -0.00000000000E+00 -0.52502624753E+02  0.52517982691E+02  0.12700000000E+01 0.  1.
         25    2    1    2    0    0  0.00000000000E+00  0.00000000000E+00  0.21867459819E+02  0.12689891021E+03  0.12500059046E+03 0.  0.
    9000005    1    3    3    0    0  0.60232355646E+02  0.16645907652E+02  0.10412122194E+02  0.63359570680E+02  0.10000000000E+01 0.  0.
    9000005    1    3    3    0    0 -0.60232355646E+02 -0.16645907652E+02  0.11455337626E+02  0.63539339533E+02  0.10000000000E+01 0.  0.
<mgrwt>
<rscale>  0 0.12500059E+03</rscale>
<asrwt>0</asrwt>
<pdfrwt beam="2">  1        4 0.80793424E-02 0.12500059E+03</pdfrwt>
<pdfrwt beam="1">  1       -4 0.11443567E-01 0.12500059E+03</pdfrwt>
<totfact> 0.10411204E+04</totfact>
</mgrwt>
</event>
<event>
 5    1  0.3271306E-002  0.1249996E+03  0.7818608E-02  0.1235070E+00
          4   -1    0    0  501    0  0.00000000000E+00  0.00000000000E+00  0.20701755952E+02  0.20740675001E+02  0.12700000000E+01 0. -1.
         -4   -1    0    0    0  501 -0.00000000000E+00 -0.00000000000E+00 -0.18847210954E+03  0.18847638838E+03  0.12700000000E+01 0. -1.
         25    2    1    2    0    0  0.00000000000E+00  0.00000000000E+00 -0.16777035359E+03  0.20921706338E+03  0.12499955226E+03 0.  0.
    9000005    1    3    3    0    0  0.55844371968E+02  0.26397808946E+02 -0.68025742922E+02  0.91890913031E+02  0.10000000000E+01 0.  0.
    9000005    1    3    3    0    0 -0.55844371968E+02 -0.26397808946E+02 -0.99744610670E+02  0.11732615035E+03  0.10000000000E+01 0.  0.
<mgrwt>
<rscale>  0 0.12499955E+03</rscale>
<asrwt>0</asrwt>
<pdfrwt beam="1">  1        4 0.31882086E-02 0.12499955E+03</pdfrwt>
<pdfrwt beam="2">  1       -4 0.28999031E-01 0.12499955E+03</pdfrwt>
<totfact> 0.88604792E+03</totfact>
</mgrwt>
</event>
<event>
 5    1  0.3271306E-002  0.1250030E+03  0.7818608E-02  0.1235065E+00
          4   -1    0    0  501    0  0.00000000000E+00  0.00000000000E+00  0.87162022153E+02  0.87171273972E+02  0.12700000000E+01 0. -1.
         -4   -1    0    0    0  501 -0.00000000000E+00 -0.00000000000E+00 -0.44797456843E+02  0.44815455366E+02  0.12700000000E+01 0. -1.
         25    2    1    2    0    0  0.00000000000E+00  0.00000000000E+00  0.42364565310E+02  0.13198672934E+03  0.12500296127E+03 0.  0.
    9000005    1    3    3    0    0 -0.41875560620E+02  0.13610199109E+02 -0.25642076901E+02  0.50963871564E+02  0.10000000000E+01 0.  0.
    9000005    1    3    3    0    0  0.41875560620E+02 -0.13610199109E+02  0.68006642211E+02  0.81022857773E+02  0.10000000000E+01 0.  0.
<mgrwt>
<rscale>  0 0.12500296E+03</rscale>
<asrwt>0</asrwt>
<pdfrwt beam="1">  1        4 0.13411638E-01 0.12500296E+03</pdfrwt>
<pdfrwt beam="2">  1       -4 0.68940126E-02 0.12500296E+03</pdfrwt>
<totfact> 0.10301293E+04</totfact>
</mgrwt>
</event>
<event>
 5    1  0.3271306E-002  0.1250005E+03  0.7818608E-02  0.1235068E+00
          4   -1    0    0  501    0  0.00000000000E+00  0.00000000000E+00  0.18719386935E+02  0.18762418480E+02  0.12700000000E+01 0.  1.
         -4   -1    0    0    0  501 -0.00000000000E+00 -0.00000000000E+00 -0.20839120582E+03  0.20839507567E+03  0.12700000000E+01 0.  1.
         25    2    1    2    0    0  0.00000000000E+00  0.00000000000E+00 -0.18967181888E+03  0.22715749415E+03  0.12500051307E+03 0.  0.
    9000005    1    3    3    0    0  0.31288995063E+02 -0.53322447533E+02 -0.78280206194E+02  0.99755076586E+02  0.10000000000E+01 0.  0.
    9000005    1    3    3    0    0 -0.31288995063E+02  0.53322447533E+02 -0.11139161269E+03  0.12740241756E+03  0.10000000000E+01 0.  0.
<mgrwt>
<rscale>  0 0.12500051E+03</rscale>
<asrwt>0</asrwt>
<pdfrwt beam="1">  1        4 0.28835136E-02 0.12500051E+03</pdfrwt>
<pdfrwt beam="2">  1       -4 0.32063792E-01 0.12500051E+03</pdfrwt>
<totfact> 0.85747005E+03</totfact>
</mgrwt>
</event>
<event>
 5    1  0.3271306E-002  0.1250010E+03  0.7818608E-02  0.1235068E+00
          4   -1    0    0  501    0  0.00000000000E+00  0.00000000000E+00  0.32108595217E+03  0.32108846380E+03  0.12700000000E+01 0.  1.
         -4   -1    0    0    0  501 -0.00000000000E+00 -0.00000000000E+00 -0.12130227033E+02  0.12196528518E+02  0.12700000000E+01 0.  1.
         25    2    1    2    0    0  0.00000000000E+00  0.00000000000E+00  0.30895572514E+03  0.33328499231E+03  0.12500098402E+03 0.  0.
    9000005    1    3    3    0    0  0.55330433469E+02 -0.26761119374E+02  0.18460742905E+03  0.19457265285E+03  0.10000000000E+01 0.  0.
    9000005    1    3    3    0    0 -0.55330433469E+02  0.26761119374E+02  0.12434829609E+03  0.13871233946E+03  0.10000000000E+01 0.  0.
<mgrwt>
<rscale>  0 0.12500098E+03</rscale>
<asrwt>0</asrwt>
<pdfrwt beam="1">  1        4 0.49403129E-01 0.12500098E+03</pdfrwt>
<pdfrwt beam="2">  1       -4 0.18714822E-02 0.12500098E+03</pdfrwt>
<totfact> 0.71601861E+03</totfact>
</mgrwt>
</event>
<event>
 5    1  0.3271306E-002  0.1249996E+03  0.7818608E-02  0.1235070E+00
          4   -1    0    0  501    0  0.00000000000E+00  0.00000000000E+00  0.55948865271E+03  0.55949009411E+03  0.12700000000E+01 0.  1.
         -4   -1    0    0    0  501 -0.00000000000E+00 -0.00000000000E+00 -0.69225641160E+01  0.70380959030E+01  0.12700000000E+01 0.  1.
         25    2    1    2    0    0  0.00000000000E+00  0.00000000000E+00  0.55256608859E+03  0.56652819001E+03  0.12499963128E+03 0.  0.
    9000005    1    3    3    0    0 -0.11560680793E+02 -0.39160180831E+02  0.61871360596E+02  0.74136592618E+02  0.10000000000E+01 0.  0.
    9000005    1    3    3    0    0  0.11560680793E+02  0.39160180831E+02  0.49069472799E+03  0.49239159739E+03  0.10000000000E+01 0.  0.
<mgrwt>
<rscale>  0 0.12499963E+03</rscale>
<asrwt>0</asrwt>
<pdfrwt beam="1">  1        4 0.86084192E-01 0.12499963E+03</pdfrwt>
<pdfrwt beam="2">  1       -4 0.10740076E-02 0.12499963E+03</pdfrwt>
<totfact> 0.51051394E+03</totfact>
</mgrwt>
</event>
<event>
 5    1  0.3271306E-002  0.1250003E+03  0.7818608E-02  0.1235069E+00
         -4   -1    0    0    0  501 -0.00000000000E+00  0.00000000000E+00  0.19737827497E+03  0.19738236074E+03  0.12700000000E+01 0. -1.
          4   -1    0    0  501    0  0.00000000000E+00 -0.00000000000E+00 -0.19766117446E+02  0.19806875041E+02  0.12700000000E+01 0. -1.
         25    2    1    2    0    0  0.00000000000E+00  0.00000000000E+00  0.17761215753E+03  0.21718923578E+03  0.12500034255E+03 0.  0.
    9000005    1    3    3    0    0 -0.23644082673E+01 -0.28531548393E+02  0.18532203990E+03  0.18752306032E+03  0.10000000000E+01 0.  0.
    9000005    1    3    3    0    0  0.23644082673E+01  0.28531548393E+02 -0.77098823723E+01  0.29666175459E+02  0.10000000000E+01 0.  0.
<mgrwt>
<rscale>  0 0.12500034E+03</rscale>
<asrwt>0</asrwt>
<pdfrwt beam="2">  1        4 0.30443907E-02 0.12500034E+03</pdfrwt>
<pdfrwt beam="1">  1       -4 0.30369337E-01 0.12500034E+03</pdfrwt>
<totfact> 0.87314411E+03</totfact>
</mgrwt>
</event>
<event>
 5    1  0.3271306E-002  0.1250010E+03  0.7818608E-02  0.1235068E+00
         -4   -1    0    0    0  501 -0.00000000000E+00  0.00000000000E+00  0.17948248290E+03  0.17948697604E+03  0.12700000000E+01 0. -1.
          4   -1    0    0  501    0  0.00000000000E+00 -0.00000000000E+00 -0.21741008846E+02  0.21778070751E+02  0.12700000000E+01 0. -1.
         25    2    1    2    0    0  0.00000000000E+00  0.00000000000E+00  0.15774147405E+03  0.20126504679E+03  0.12500098569E+03 0.  0.
    9000005    1    3    3    0    0  0.47695925431E+02  0.39265315700E+02  0.94030162549E+02  0.11251372267E+03  0.10000000000E+01 0.  0.
    9000005    1    3    3    0    0 -0.47695925431E+02 -0.39265315700E+02  0.63711311501E+02  0.88751324119E+02  0.10000000000E+01 0.  0.
<mgrwt>
<rscale>  0 0.12500099E+03</rscale>
<asrwt>0</asrwt>
<pdfrwt beam="2">  1        4 0.33479672E-02 0.12500099E+03</pdfrwt>
<pdfrwt beam="1">  1       -4 0.27615886E-01 0.12500099E+03</pdfrwt>
<totfact> 0.89920600E+03</totfact>
</mgrwt>
</event>
<event>
 5    1  0.3271306E-002  0.1250003E+03  0.7818608E-02  0.1235069E+00
          4   -1    0    0  501    0  0.00000000000E+00  0.00000000000E+00  0.11198339704E+02  0.11270124761E+02  0.12700000000E+01 0.  1.
         -4   -1    0    0    0  501 -0.00000000000E+00 -0.00000000000E+00 -0.34763841720E+03  0.34764073699E+03  0.12700000000E+01 0.  1.
         25    2    1    2    0    0  0.00000000000E+00  0.00000000000E+00 -0.33644007750E+03  0.35891086175E+03  0.12500032374E+03 0.  0.
    9000005    1    3    3    0    0 -0.29120697069E+02  0.81184216920E+01 -0.32525950928E+03  0.32666293354E+03  0.10000000000E+01 0.  0.
    9000005    1    3    3    0    0  0.29120697069E+02 -0.81184216920E+01 -0.11180568218E+02  0.32247928216E+02  0.10000000000E+01 0.  0.
<mgrwt>
<rscale>  0 0.12500032E+03</rscale>
<asrwt>0</asrwt>
<pdfrwt beam="1">  1        4 0.17285221E-02 0.12500032E+03</pdfrwt>
<pdfrwt beam="2">  1       -4 0.53488526E-01 0.12500032E+03</pdfrwt>
<totfact> 0.68754761E+03</totfact>
</mgrwt>
</event>
<event>
 5    1  0.3271306E-002  0.1249910E+03  0.7818608E-02  0.1235083E+00
          4   -1    0    0  501    0  0.00000000000E+00  0.00000000000E+00  0.53912543047E+02  0.53927499458E+02  0.12700000000E+01 0.  1.
         -4   -1    0    0    0  501 -0.00000000000E+00 -0.00000000000E+00 -0.72414308572E+02  0.72425444327E+02  0.12700000000E+01 0.  1.
         25    2    1    2    0    0  0.00000000000E+00  0.00000000000E+00 -0.18501765525E+02  0.12635294379E+03  0.12499100398E+03 0.  0.
    9000005    1    3    3    0    0  0.21547665506E+02 -0.40257867273E+02  0.33871754443E+02  0.56862056902E+02  0.10000000000E+01 0.  0.
    9000005    1    3    3    0    0 -0.21547665506E+02  0.40257867273E+02 -0.52373519967E+02  0.69490886883E+02  0.10000000000E+01 0.  0.
<mgrwt>
<rscale>  0 0.12499100E+03</rscale>
<asrwt>0</asrwt>
<pdfrwt beam="1">  1        4 0.82962445E-02 0.12499100E+03</pdfrwt>
<pdfrwt beam="2">  1       -4 0.11142670E-01 0.12499100E+03</pdfrwt>
<totfact> 0.10425354E+04</totfact>
</mgrwt>
</event>
<event>
 5    1  0.3271306E-002  0.1250002E+03  0.7818608E-02  0.1235069E+00
          4   -1    0    0  501    0  0.00000000000E+00  0.00000000000E+00  0.85865322406E+02  0.85874713926E+02  0.12700000000E+01 0. -1.
         -4   -1    0    0    0  501 -0.00000000000E+00 -0.00000000000E+00 -0.45472142332E+02  0.45489873909E+02  0.12700000000E+01 0. -1.
         25    2    1    2    0    0  0.00000000000E+00  0.00000000000E+00  0.40393180074E+02  0.13136458783E+03  0.12500018376E+03 0.  0.
    9000005    1    3    3    0    0 -0.18726669727E+02 -0.45810213755E+02  0.60296924216E+02  0.78012709946E+02  0.10000000000E+01 0.  0.
    9000005    1    3    3    0    0  0.18726669727E+02  0.45810213755E+02 -0.19903744142E+02  0.53351877888E+02  0.10000000000E+01 0.  0.
<mgrwt>
<rscale>  0 0.12500018E+03</rscale>
<asrwt>0</asrwt>
<pdfrwt beam="1">  1        4 0.13212136E-01 0.12500018E+03</pdfrwt>
<pdfrwt beam="2">  1       -4 0.69978006E-02 0.12500018E+03</pdfrwt>
<totfact> 0.10315237E+04</totfact>
</mgrwt>
</event>
<event>
 5    1  0.3271306E-002  0.1249921E+03  0.7818608E-02  0.1235082E+00
          4   -1    0    0  501    0  0.00000000000E+00  0.00000000000E+00  0.71656917848E+01  0.72773648222E+01  0.12700000000E+01 0. -1.
         -4   -1    0    0    0  501 -0.00000000000E+00 -0.00000000000E+00 -0.54073679659E+03  0.54073828798E+03  0.12700000000E+01 0. -1.
         25    2    1    2    0    0  0.00000000000E+00  0.00000000000E+00 -0.53357110481E+03  0.54801565280E+03  0.12499212708E+03 0.  0.
    9000005    1    3    3    0    0 -0.32638938213E+02  0.40352586883E+02 -0.41936816271E+03  0.42256867779E+03  0.10000000000E+01 0.  0.
    9000005    1    3    3    0    0  0.32638938213E+02 -0.40352586883E+02 -0.11420294209E+03  0.12544697501E+03  0.10000000000E+01 0.  0.
<mgrwt>
<rscale>  0 0.12499213E+03</rscale>
<asrwt>0</asrwt>
<pdfrwt beam="1">  1        4 0.11111195E-02 0.12499213E+03</pdfrwt>
<pdfrwt beam="2">  1       -4 0.83198949E-01 0.12499213E+03</pdfrwt>
<totfact> 0.52331579E+03</totfact>
</mgrwt>
</event>
<event>
 5    1  0.3271306E-002  0.1250056E+03  0.7818608E-02  0.1235061E+00
         -4   -1    0    0    0  501 -0.00000000000E+00  0.00000000000E+00  0.13083933381E+04  0.13083939544E+04  0.12700000000E+01 0.  1.
          4   -1    0    0  501    0  0.00000000000E+00 -0.00000000000E+00 -0.28501057788E+01  0.31202568725E+01  0.12700000000E+01 0.  1.
         25    2    1    2    0    0  0.00000000000E+00  0.00000000000E+00  0.13055432323E+04  0.13115142113E+04  0.12500558021E+03 0.  0.
    9000005    1    3    3    0    0 -0.16646609960E+02  0.28905481987E+02  0.12072391661E+04  0.12077003107E+04  0.10000000000E+01 0.  0.
    9000005    1    3    3    0    0  0.16646609960E+02 -0.28905481987E+02  0.98304066232E+02  0.10381390056E+03  0.10000000000E+01 0.  0.
<mgrwt>
<rscale>  0 0.12500558E+03</rscale>
<asrwt>0</asrwt>
<pdfrwt beam="2">  1        4 0.45930569E-03 0.12500558E+03</pdfrwt>
<pdfrwt beam="1">  1       -4 0.20131228E+00 0.12500558E+03</pdfrwt>
<totfact> 0.21955682E+03</totfact>
</mgrwt>
</event>
<event>
 5    1  0.3271306E-002  0.1249985E+03  0.7818608E-02  0.1235072E+00
          4   -1    0    0  501    0  0.00000000000E+00  0.00000000000E+00  0.34940457866E+03  0.34940688672E+03  0.12700000000E+01 0.  1.
         -4   -1    0    0    0  501 -0.00000000000E+00 -0.00000000000E+00 -0.11141035589E+02  0.11213187504E+02  0.12700000000E+01 0.  1.
         25    2    1    2    0    0  0.00000000000E+00  0.00000000000E+00  0.33826354307E+03  0.36062007423E+03  0.12499845345E+03 0.  0.
    9000005    1    3    3    0    0 -0.42189222633E+02  0.38383189421E+02  0.24279548429E+03  0.24940699053E+03  0.10000000000E+01 0.  0.
    9000005    1    3    3    0    0  0.42189222633E+02 -0.38383189421E+02  0.95468058785E+02  0.11121308369E+03  0.10000000000E+01 0.  0.
<mgrwt>
<rscale>  0 0.12499845E+03</rscale>
<asrwt>0</asrwt>
<pdfrwt beam="1">  1        4 0.53760272E-01 0.12499845E+03</pdfrwt>
<pdfrwt beam="2">  1       -4 0.17197334E-02 0.12499845E+03</pdfrwt>
<totfact> 0.68574153E+03</totfact>
</mgrwt>
</event>
<event>
 5    1  0.3271306E-002  0.1250010E+03  0.7818608E-02  0.1235068E+00
         -4   -1    0    0    0  501 -0.00000000000E+00  0.00000000000E+00  0.11889316808E+03  0.11889995087E+03  0.12700000000E+01 0. -1.
          4   -1    0    0  501    0  0.00000000000E+00 -0.00000000000E+00 -0.32835681449E+02  0.32860232443E+02  0.12700000000E+01 0. -1.
         25    2    1    2    0    0  0.00000000000E+00  0.00000000000E+00  0.86057486631E+02  0.15176018331E+03  0.12500104893E+03 0.  0.
    9000005    1    3    3    0    0  0.19068345893E+02  0.16352699420E+02  0.11249975378E+03  0.11527448631E+03  0.10000000000E+01 0.  0.
    9000005    1    3    3    0    0 -0.19068345893E+02 -0.16352699420E+02 -0.26442267150E+02  0.36485696999E+02  0.10000000000E+01 0.  0.
<mgrwt>
<rscale>  0 0.12500105E+03</rscale>
<asrwt>0</asrwt>
<pdfrwt beam="2">  1        4 0.50540536E-02 0.12500105E+03</pdfrwt>
<pdfrwt beam="1">  1       -4 0.18293667E-01 0.12500105E+03</pdfrwt>
<totfact> 0.98951647E+03</totfact>
</mgrwt>
</event>
<event>
 5    1  0.3271306E-002  0.1249818E+03  0.7818608E-02  0.1235098E+00
          4   -1    0    0  501    0  0.00000000000E+00  0.00000000000E+00  0.32894456445E+02  0.32918963605E+02  0.12700000000E+01 0. -1.
         -4   -1    0    0    0  501 -0.00000000000E+00 -0.00000000000E+00 -0.11864439496E+03  0.11865119197E+03  0.12700000000E+01 0. -1.
         25    2    1    2    0    0  0.00000000000E+00  0.00000000000E+00 -0.85749938512E+02  0.15157015557E+03  0.12498183910E+03 0.  0.
    9000005    1    3    3    0    0 -0.41899154391E+02 -0.43255788143E+02 -0.22672325729E+02  0.64355549104E+02  0.10000000000E+01 0.  0.
    9000005    1    3    3    0    0  0.41899154391E+02  0.43255788143E+02 -0.63077612783E+02  0.87214606466E+02  0.10000000000E+01 0.  0.
<mgrwt>
<rscale>  0 0.12498184E+03</rscale>
<asrwt>0</asrwt>
<pdfrwt beam="1">  1        4 0.50630937E-02 0.12498184E+03</pdfrwt>
<pdfrwt beam="2">  1       -4 0.18255392E-01 0.12498184E+03</pdfrwt>
<totfact> 0.99032091E+03</totfact>
</mgrwt>
</event>
<event>
 5    1  0.3271306E-002  0.1250005E+03  0.7818608E-02  0.1235068E+00
          4   -1    0    0  501    0  0.00000000000E+00  0.00000000000E+00  0.73564292988E+02  0.73575254690E+02  0.12700000000E+01 0. -1.
         -4   -1    0    0    0  501 -0.00000000000E+00 -0.00000000000E+00 -0.53077733922E+02  0.53092925501E+02  0.12700000000E+01 0. -1.
         25    2    1    2    0    0  0.00000000000E+00  0.00000000000E+00  0.20486559066E+02  0.12666818019E+03  0.12500051508E+03 0.  0.
    9000005    1    3    3    0    0  0.18686176031E+02 -0.34855263255E+02 -0.38788404317E+02  0.55403996794E+02  0.10000000000E+01 0.  0.
    9000005    1    3    3    0    0 -0.18686176031E+02  0.34855263255E+02  0.59274963383E+02  0.71264183398E+02  0.10000000000E+01 0.  0.
<mgrwt>
<rscale>  0 0.12500052E+03</rscale>
<asrwt>0</asrwt>
<pdfrwt beam="1">  1        4 0.11319595E-01 0.12500052E+03</pdfrwt>
<pdfrwt beam="2">  1       -4 0.81678170E-02 0.12500052E+03</pdfrwt>
<totfact> 0.10416242E+04</totfact>
</mgrwt>
</event>
<event>
 5    1  0.3271306E-002  0.1249808E+03  0.7818608E-02  0.1235099E+00
          4   -1    0    0  501    0  0.00000000000E+00  0.00000000000E+00  0.49875070090E+01  0.51466616524E+01  0.12700000000E+01 0.  1.
         -4   -1    0    0    0  501 -0.00000000000E+00 -0.00000000000E+00 -0.77051011809E+03  0.77051116473E+03  0.12700000000E+01 0.  1.
         25    2    1    2    0    0  0.00000000000E+00  0.00000000000E+00 -0.76552261108E+03  0.77565782638E+03  0.12498078075E+03 0.  0.
    9000005    1    3    3    0    0 -0.31055732568E+02  0.23637601588E+02 -0.68558743225E+03  0.68669813018E+03  0.10000000000E+01 0.  0.
    9000005    1    3    3    0    0  0.31055732568E+02 -0.23637601588E+02 -0.79935178827E+02  0.88959696202E+02  0.10000000000E+01 0.  0.
<mgrwt>
<rscale>  0 0.12498078E+03</rscale>
<asrwt>0</asrwt>
<pdfrwt beam="1">  1        4 0.77963256E-03 0.12498078E+03</pdfrwt>
<pdfrwt beam="2">  1       -4 0.11855225E+00 0.12498078E+03</pdfrwt>
<totfact> 0.39391347E+03</totfact>
</mgrwt>
</event>
<event>
 5    1  0.3271306E-002  0.1250071E+03  0.7818608E-02  0.1235058E+00
         -4   -1    0    0    0  501 -0.00000000000E+00  0.00000000000E+00  0.53557310238E+03  0.53557460815E+03  0.12700000000E+01 0. -1.
          4   -1    0    0  501    0  0.00000000000E+00 -0.00000000000E+00 -0.72376069359E+01  0.73481871341E+01  0.12700000000E+01 0. -1.
         25    2    1    2    0    0  0.00000000000E+00  0.00000000000E+00  0.52833549545E+03  0.54292279528E+03  0.12500706336E+03 0.  0.
    9000005    1    3    3    0    0 -0.11805277579E+02  0.53126958675E+02  0.13073705534E+03  0.14161573343E+03  0.10000000000E+01 0.  0.
    9000005    1    3    3    0    0  0.11805277579E+02 -0.53126958675E+02  0.39759844011E+03  0.40130706185E+03  0.10000000000E+01 0.  0.
<mgrwt>
<rscale>  0 0.12500706E+03</rscale>
<asrwt>0</asrwt>
<pdfrwt beam="2">  1        4 0.11220997E-02 0.12500706E+03</pdfrwt>
<pdfrwt beam="1">  1       -4 0.82404504E-01 0.12500706E+03</pdfrwt>
<totfact> 0.52673206E+03</totfact>
</mgrwt>
</event>
<event>
 5    1  0.3271306E-002  0.1250003E+03  0.7818608E-02  0.1235069E+00
         -4   -1    0    0    0  501 -0.00000000000E+00  0.00000000000E+00  0.53641243603E+03  0.53641393944E+03  0.12700000000E+01 0.  1.
          4   -1    0    0  501    0  0.00000000000E+00 -0.00000000000E+00 -0.72253142597E+01  0.73360797536E+01  0.12700000000E+01 0.  1.
         25    2    1    2    0    0  0.00000000000E+00  0.00000000000E+00  0.52918712177E+03  0.54375001920E+03  0.12500029411E+03 0.  0.
    9000005    1    3    3    0    0  0.50394038417E+02 -0.19628810401E+02  0.40079889843E+03  0.40443244960E+03  0.10000000000E+01 0.  0.
    9000005    1    3    3    0    0 -0.50394038417E+02  0.19628810401E+02  0.12838822334E+03  0.13931756959E+03  0.10000000000E+01 0.  0.
<mgrwt>
<rscale>  0 0.12500029E+03</rscale>
<asrwt>0</asrwt>
<pdfrwt beam="2">  1        4 0.11202230E-02 0.12500029E+03</pdfrwt>
<pdfrwt beam="1">  1       -4 0.82533618E-01 0.12500029E+03</pdfrwt>
<totfact> 0.52622475E+03</totfact>
</mgrwt>
</event>
<event>
 5    1  0.3271306E-002  0.1250017E+03  0.7818608E-02  0.1235067E+00
         -4   -1    0    0    0  501 -0.00000000000E+00  0.00000000000E+00  0.21191465307E+02  0.21229486614E+02  0.12700000000E+01 0.  1.
          4   -1    0    0  501    0  0.00000000000E+00 -0.00000000000E+00 -0.18413093855E+03  0.18413531826E+03  0.12700000000E+01 0.  1.
         25    2    1    2    0    0  0.00000000000E+00  0.00000000000E+00 -0.16293947325E+03  0.20536480488E+03  0.12500172455E+03 0.  0.
    9000005    1    3    3    0    0 -0.57823324920E+02  0.22876047453E+02 -0.71274865634E+02  0.94593641029E+02  0.10000000000E+01 0.  0.
    9000005    1    3    3    0    0  0.57823324920E+02 -0.22876047453E+02 -0.91664607611E+02  0.11077116385E+03  0.10000000000E+01 0.  0.
<mgrwt>
<rscale>  0 0.12500172E+03</rscale>
<asrwt>0</asrwt>
<pdfrwt beam="2">  1        4 0.28331097E-01 0.12500172E+03</pdfrwt>
<pdfrwt beam="1">  1       -4 0.32634872E-02 0.12500172E+03</pdfrwt>
<totfact> 0.89235067E+03</totfact>
</mgrwt>
</event>
<event>
 5    1  0.3271306E-002  0.1249972E+03  0.7818608E-02  0.1235074E+00
          4   -1    0    0  501    0  0.00000000000E+00  0.00000000000E+00  0.11358199213E+03  0.11358909206E+03  0.12700000000E+01 0.  1.
         -4   -1    0    0    0  501 -0.00000000000E+00 -0.00000000000E+00 -0.34369993221E+02  0.34393448998E+02  0.12700000000E+01 0.  1.
         25    2    1    2    0    0  0.00000000000E+00  0.00000000000E+00  0.79211998909E+02  0.14798254106E+03  0.12499716672E+03 0.  0.
    9000005    1    3    3    0    0 -0.25164999395E+02 -0.20286028944E+02  0.10292208195E+03  0.10788306223E+03  0.10000000000E+01 0.  0.
    9000005    1    3    3    0    0  0.25164999395E+02  0.20286028944E+02 -0.23710083037E+02  0.40099478830E+02  0.10000000000E+01 0.  0.
<mgrwt>
<rscale>  0 0.12499717E+03</rscale>
<asrwt>0</asrwt>
<pdfrwt beam="1">  1        4 0.17476503E-01 0.12499717E+03</pdfrwt>
<pdfrwt beam="2">  1       -4 0.52900418E-02 0.12499717E+03</pdfrwt>
<totfact> 0.99713738E+03</totfact>
</mgrwt>
</event>
<event>
 5    1  0.3271306E-002  0.1249983E+03  0.7818608E-02  0.1235072E+00
         -4   -1    0    0    0  501 -0.00000000000E+00  0.00000000000E+00  0.66519065780E+03  0.66519187016E+03  0.12700000000E+01 0.  1.
          4   -1    0    0  501    0  0.00000000000E+00 -0.00000000000E+00 -0.58023162306E+01  0.59396779071E+01  0.12700000000E+01 0.  1.
         25    2    1    2    0    0  0.00000000000E+00  0.00000000000E+00  0.65938834157E+03  0.67113154807E+03  0.12499827923E+03 0.  0.
    9000005    1    3    3    0    0 -0.38453287103E+02  0.36084387384E+01  0.65924873446E+02  0.76411812294E+02  0.10000000000E+01 0.  0.
    9000005    1    3    3    0    0  0.38453287103E+02 -0.36084387384E+01  0.59346346813E+03  0.59471973578E+03  0.10000000000E+01 0.  0.
<mgrwt>
<rscale>  0 0.12499828E+03</rscale>
<asrwt>0</asrwt>
<pdfrwt beam="2">  1        4 0.90332367E-03 0.12499828E+03</pdfrwt>
<pdfrwt beam="1">  1       -4 0.10234767E+00 0.12499828E+03</pdfrwt>
<totfact> 0.44656731E+03</totfact>
</mgrwt>
</event>
<event>
 5    1  0.3271306E-002  0.1249860E+03  0.7818608E-02  0.1235091E+00
          4   -1    0    0  501    0  0.00000000000E+00  0.00000000000E+00  0.91166185321E+01  0.92046528158E+01  0.12700000000E+01 0.  1.
         -4   -1    0    0    0  501 -0.00000000000E+00 -0.00000000000E+00 -0.42623231526E+03  0.42623420730E+03  0.12700000000E+01 0.  1.
         25    2    1    2    0    0  0.00000000000E+00  0.00000000000E+00 -0.41711569672E+03  0.43543886011E+03  0.12498598498E+03 0.  0.
    9000005    1    3    3    0    0 -0.29918132856E+02  0.35900180265E+02 -0.35306445894E+03  0.35614523692E+03  0.10000000000E+01 0.  0.
    9000005    1    3    3    0    0  0.29918132856E+02 -0.35900180265E+02 -0.64051237786E+02  0.79293623190E+02  0.10000000000E+01 0.  0.
<mgrwt>
<rscale>  0 0.12498598E+03</rscale>
<asrwt>0</asrwt>
<pdfrwt beam="1">  1        4 0.14094744E-02 0.12498598E+03</pdfrwt>
<pdfrwt beam="2">  1       -4 0.65581104E-01 0.12498598E+03</pdfrwt>
<totfact> 0.61265000E+03</totfact>
</mgrwt>
</event>
<event>
 5    1  0.3271306E-002  0.1250052E+03  0.7818608E-02  0.1235061E+00
         -4   -1    0    0    0  501 -0.00000000000E+00  0.00000000000E+00  0.16711368232E+03  0.16711850800E+03  0.12700000000E+01 0.  1.
          4   -1    0    0  501    0  0.00000000000E+00 -0.00000000000E+00 -0.23354323009E+02  0.23388828598E+02  0.12700000000E+01 0.  1.
         25    2    1    2    0    0  0.00000000000E+00  0.00000000000E+00  0.14375935931E+03  0.19050733660E+03  0.12500516754E+03 0.  0.
    9000005    1    3    3    0    0  0.55598414958E+00  0.61144056927E+02  0.91554467662E+02  0.11010052391E+03  0.10000000000E+01 0.  0.
    9000005    1    3    3    0    0 -0.55598414958E+00 -0.61144056927E+02  0.52204891646E+02  0.80406812694E+02  0.10000000000E+01 0.  0.
<mgrwt>
<rscale>  0 0.12500517E+03</rscale>
<asrwt>0</asrwt>
<pdfrwt beam="2">  1        4 0.35959982E-02 0.12500517E+03</pdfrwt>
<pdfrwt beam="1">  1       -4 0.25712823E-01 0.12500517E+03</pdfrwt>
<totfact> 0.91748494E+03</totfact>
</mgrwt>
</event>
<event>
 5    1  0.3271306E-002  0.1249952E+03  0.7818608E-02  0.1235077E+00
          4   -1    0    0  501    0  0.00000000000E+00  0.00000000000E+00  0.31031835178E+01  0.33530058075E+01  0.12700000000E+01 0.  1.
         -4   -1    0    0    0  501 -0.00000000000E+00 -0.00000000000E+00 -0.12097359828E+04  0.12097366495E+04  0.12700000000E+01 0.  1.
         25    2    1    2    0    0  0.00000000000E+00  0.00000000000E+00 -0.12066327993E+04  0.12130896553E+04  0.12499519730E+03 0.  0.
    9000005    1    3    3    0    0  0.82483101553E+01  0.17139765419E+02 -0.25627591914E+02  0.31930857276E+02  0.10000000000E+01 0.  0.
    9000005    1    3    3    0    0 -0.82483101553E+01 -0.17139765419E+02 -0.11810052074E+04  0.11811587980E+04  0.10000000000E+01 0.  0.
<mgrwt>
<rscale>  0 0.12499520E+03</rscale>
<asrwt>0</asrwt>
<pdfrwt beam="1">  1        4 0.49668219E-03 0.12499520E+03</pdfrwt>
<pdfrwt beam="2">  1       -4 0.18613213E+00 0.12499520E+03</pdfrwt>
<totfact> 0.24375294E+03</totfact>
</mgrwt>
</event>
<event>
 5    1  0.3271306E-002  0.1249956E+03  0.7818608E-02  0.1235076E+00
          4   -1    0    0  501    0  0.00000000000E+00  0.00000000000E+00  0.96364813842E+02  0.96373182197E+02  0.12700000000E+01 0.  1.
         -4   -1    0    0    0  501 -0.00000000000E+00 -0.00000000000E+00 -0.40513154152E+02  0.40533055145E+02  0.12700000000E+01 0.  1.
         25    2    1    2    0    0  0.00000000000E+00  0.00000000000E+00  0.55851659689E+02  0.13690623734E+03  0.12499563966E+03 0.  0.
    9000005    1    3    3    0    0 -0.40823935268E+02  0.25089146680E+01 -0.23821046433E+02  0.47342693171E+02  0.10000000000E+01 0.  0.
    9000005    1    3    3    0    0  0.40823935268E+02 -0.25089146680E+01  0.79672706122E+02  0.89563544171E+02  0.10000000000E+01 0.  0.
<mgrwt>
<rscale>  0 0.12499564E+03</rscale>
<asrwt>0</asrwt>
<pdfrwt beam="1">  1        4 0.14827531E-01 0.12499564E+03</pdfrwt>
<pdfrwt beam="2">  1       -4 0.62349675E-02 0.12499564E+03</pdfrwt>
<totfact> 0.10199049E+04</totfact>
</mgrwt>
</event>
<event>
 5    1  0.3271306E-002  0.1250024E+03  0.7818608E-02  0.1235065E+00
         -4   -1    0    0    0  501 -0.00000000000E+00  0.00000000000E+00  0.32403872934E+03  0.32404121807E+03  0.12700000000E+01 0. -1.
          4   -1    0    0  501    0  0.00000000000E+00 -0.00000000000E+00 -0.12019368477E+02  0.12086278112E+02  0.12700000000E+01 0. -1.
         25    2    1    2    0    0  0.00000000000E+00  0.00000000000E+00  0.31201936086E+03  0.33612749618E+03  0.12500244854E+03 0.  0.
    9000005    1    3    3    0    0 -0.16589668051E+02 -0.22865125016E+02  0.30590295419E+03  0.30720619852E+03  0.10000000000E+01 0.  0.
    9000005    1    3    3    0    0  0.16589668051E+02  0.22865125016E+02  0.61164066718E+01  0.28921297665E+02  0.10000000000E+01 0.  0.
<mgrwt>
<rscale>  0 0.12500245E+03</rscale>
<asrwt>0</asrwt>
<pdfrwt beam="2">  1        4 0.18544719E-02 0.12500245E+03</pdfrwt>
<pdfrwt beam="1">  1       -4 0.49857452E-01 0.12500245E+03</pdfrwt>
<totfact> 0.71274289E+03</totfact>
</mgrwt>
</event>
<event>
 5    1  0.3271306E-002  0.1249986E+03  0.7818608E-02  0.1235072E+00
         -4   -1    0    0    0  501 -0.00000000000E+00  0.00000000000E+00  0.31335742074E+04  0.31335744648E+04  0.12700000000E+01 0. -1.
          4   -1    0    0  501    0  0.00000000000E+00 -0.00000000000E+00 -0.92275406066E+00  0.15698328116E+01  0.12700000000E+01 0. -1.
         25    2    1    2    0    0  0.00000000000E+00  0.00000000000E+00  0.31326514534E+04  0.31351442976E+04  0.12499855389E+03 0.  0.
    9000005    1    3    3    0    0  0.16355366194E+02  0.41754186235E+02  0.47470658683E+03  0.47682098701E+03  0.10000000000E+01 0.  0.
    9000005    1    3    3    0    0 -0.16355366194E+02 -0.41754186235E+02  0.26579448665E+04  0.26583233106E+04  0.10000000000E+01 0.  0.
<mgrwt>
<rscale>  0 0.12499855E+03</rscale>
<asrwt>0</asrwt>
<pdfrwt beam="2">  1        4 0.19175792E-03 0.12499855E+03</pdfrwt>
<pdfrwt beam="1">  1       -4 0.48213644E+00 0.12499855E+03</pdfrwt>
<totfact> 0.13595655E+02</totfact>
</mgrwt>
</event>
<event>
 5    1  0.3271306E-002  0.1250013E+03  0.7818608E-02  0.1235067E+00
         -4   -1    0    0    0  501 -0.00000000000E+00  0.00000000000E+00  0.86798084191E+03  0.86798177102E+03  0.12700000000E+01 0. -1.
          4   -1    0    0  501    0  0.00000000000E+00 -0.00000000000E+00 -0.44099355991E+01  0.45891646286E+01  0.12700000000E+01 0. -1.
         25    2    1    2    0    0  0.00000000000E+00  0.00000000000E+00  0.86357090631E+03  0.87257093565E+03  0.12500131004E+03 0.  0.
    9000005    1    3    3    0    0 -0.26457071253E+02  0.49994475743E+02  0.61724966740E+03  0.61983673345E+03  0.10000000000E+01 0.  0.
    9000005    1    3    3    0    0  0.26457071253E+02 -0.49994475743E+02  0.24632123891E+03  0.25273420220E+03  0.10000000000E+01 0.  0.
<mgrwt>
<rscale>  0 0.12500131E+03</rscale>
<asrwt>0</asrwt>
<pdfrwt beam="2">  1        4 0.69231014E-03 0.12500131E+03</pdfrwt>
<pdfrwt beam="1">  1       -4 0.13354933E+00 0.12500131E+03</pdfrwt>
<totfact> 0.35220085E+03</totfact>
</mgrwt>
</event>
<event>
 5    1  0.3271306E-002  0.1250030E+03  0.7818608E-02  0.1235065E+00
         -4   -1    0    0    0  501 -0.00000000000E+00  0.00000000000E+00  0.16389784250E+02  0.16438915042E+02  0.12700000000E+01 0. -1.
          4   -1    0    0  501    0  0.00000000000E+00 -0.00000000000E+00 -0.23793826678E+03  0.23794165608E+03  0.12700000000E+01 0. -1.
         25    2    1    2    0    0  0.00000000000E+00  0.00000000000E+00 -0.22154848253E+03  0.25438057113E+03  0.12500297938E+03 0.  0.
    9000005    1    3    3    0    0  0.73273464681E-01 -0.62428216080E+02 -0.11658331979E+03  0.13224960486E+03  0.10000000000E+01 0.  0.
    9000005    1    3    3    0    0 -0.73273464681E-01  0.62428216080E+02 -0.10496516274E+03  0.12213096627E+03  0.10000000000E+01 0.  0.
<mgrwt>
<rscale>  0 0.12500298E+03</rscale>
<asrwt>0</asrwt>
<pdfrwt beam="2">  1        4 0.36609925E-01 0.12500298E+03</pdfrwt>
<pdfrwt beam="1">  1       -4 0.25255455E-02 0.12500298E+03</pdfrwt>
<totfact> 0.81695774E+03</totfact>
</mgrwt>
</event>
<event>
 5    1  0.3271306E-002  0.1249997E+03  0.7818608E-02  0.1235070E+00
          4   -1    0    0  501    0  0.00000000000E+00  0.00000000000E+00  0.81265701637E+02  0.81275624652E+02  0.12700000000E+01 0. -1.
         -4   -1    0    0    0  501 -0.00000000000E+00 -0.00000000000E+00 -0.48046165342E+02  0.48062947309E+02  0.12700000000E+01 0. -1.
         25    2    1    2    0    0  0.00000000000E+00  0.00000000000E+00  0.33219536295E+02  0.12933857196E+03  0.12499971442E+03 0.  0.
    9000005    1    3    3    0    0  0.43361463663E+01 -0.27068677271E+02 -0.41497489488E+02  0.49744920227E+02  0.10000000000E+01 0.  0.
    9000005    1    3    3    0    0 -0.43361463663E+01  0.27068677271E+02  0.74717025783E+02  0.79593651734E+02  0.10000000000E+01 0.  0.
<mgrwt>
<rscale>  0 0.12499971E+03</rscale>
<asrwt>0</asrwt>
<pdfrwt beam="1">  1        4 0.12504470E-01 0.12499971E+03</pdfrwt>
<pdfrwt beam="2">  1       -4 0.73937721E-02 0.12499971E+03</pdfrwt>
<totfact> 0.10358744E+04</totfact>
</mgrwt>
</event>
<event>
 5    1  0.3271306E-002  0.1250016E+03  0.7818608E-02  0.1235067E+00
         -4   -1    0    0    0  501 -0.00000000000E+00  0.00000000000E+00  0.14996077667E+03  0.14996615432E+03  0.12700000000E+01 0.  1.
          4   -1    0    0  501    0  0.00000000000E+00 -0.00000000000E+00 -0.26027824433E+02  0.26058790162E+02  0.12700000000E+01 0.  1.
         25    2    1    2    0    0  0.00000000000E+00  0.00000000000E+00  0.12393295224E+03  0.17602494448E+03  0.12500161770E+03 0.  0.
    9000005    1    3    3    0    0 -0.62096749960E+02 -0.33962230445E+01  0.70625408247E+02  0.94108920814E+02  0.10000000000E+01 0.  0.
    9000005    1    3    3    0    0  0.62096749960E+02  0.33962230445E+01  0.53307543994E+02  0.81916023666E+02  0.10000000000E+01 0.  0.
<mgrwt>
<rscale>  0 0.12500162E+03</rscale>
<asrwt>0</asrwt>
<pdfrwt beam="2">  1        4 0.40070764E-02 0.12500162E+03</pdfrwt>
<pdfrwt beam="1">  1       -4 0.23073684E-01 0.12500162E+03</pdfrwt>
<totfact> 0.94334036E+03</totfact>
</mgrwt>
</event>
<event>
 5    1  0.3271306E-002  0.1250010E+03  0.7818608E-02  0.1235068E+00
          4   -1    0    0  501    0  0.00000000000E+00  0.00000000000E+00  0.19420861955E+02  0.19462342590E+02  0.12700000000E+01 0. -1.
         -4   -1    0    0    0  501 -0.00000000000E+00 -0.00000000000E+00 -0.20088196491E+03  0.20088597942E+03  0.12700000000E+01 0. -1.
         25    2    1    2    0    0  0.00000000000E+00  0.00000000000E+00 -0.18146110296E+03  0.22034832201E+03  0.12500100450E+03 0.  0.
    9000005    1    3    3    0    0 -0.39745607566E+02 -0.45947060446E+01 -0.17535258998E+03  0.17986204563E+03  0.10000000000E+01 0.  0.
    9000005    1    3    3    0    0  0.39745607566E+02  0.45947060446E+01 -0.61085129764E+01  0.40486276381E+02  0.10000000000E+01 0.  0.
<mgrwt>
<rscale>  0 0.12500100E+03</rscale>
<asrwt>0</asrwt>
<pdfrwt beam="1">  1        4 0.29913247E-02 0.12500100E+03</pdfrwt>
<pdfrwt beam="2">  1       -4 0.30908416E-01 0.12500100E+03</pdfrwt>
<totfact> 0.86811315E+03</totfact>
</mgrwt>
</event>
<event>
 5    1  0.3271306E-002  0.1249932E+03  0.7818608E-02  0.1235080E+00
         -4   -1    0    0    0  501 -0.00000000000E+00  0.00000000000E+00  0.38150054668E+03  0.38150266056E+03  0.12700000000E+01 0.  1.
          4   -1    0    0  501    0  0.00000000000E+00 -0.00000000000E+00 -0.10196530061E+02  0.10275316310E+02  0.12700000000E+01 0.  1.
         25    2    1    2    0    0  0.00000000000E+00  0.00000000000E+00  0.37130401662E+03  0.39177797687E+03  0.12499324144E+03 0.  0.
    9000005    1    3    3    0    0 -0.44045421961E+02  0.32617651199E+02  0.91572305603E+02  0.10672580531E+03  0.10000000000E+01 0.  0.
    9000005    1    3    3    0    0  0.44045421961E+02 -0.32617651199E+02  0.27973171101E+03  0.28505217156E+03  0.10000000000E+01 0.  0.
<mgrwt>
<rscale>  0 0.12499324E+03</rscale>
<asrwt>0</asrwt>
<pdfrwt beam="2">  1        4 0.15749199E-02 0.12499324E+03</pdfrwt>
<pdfrwt beam="1">  1       -4 0.58698620E-01 0.12499324E+03</pdfrwt>
<totfact> 0.65370138E+03</totfact>
</mgrwt>
</event>
<event>
 5    1  0.3271306E-002  0.1250201E+03  0.7818608E-02  0.1235038E+00
          4   -1    0    0  501    0  0.00000000000E+00  0.00000000000E+00  0.43509348064E+03  0.43509533415E+03  0.12700000000E+01 0.  1.
         -4   -1    0    0    0  501 -0.00000000000E+00 -0.00000000000E+00 -0.89340580623E+01  0.90238735286E+01  0.12700000000E+01 0.  1.
         25    2    1    2    0    0  0.00000000000E+00  0.00000000000E+00  0.42615942258E+03  0.44411920767E+03  0.12502006708E+03 0.  0.
    9000005    1    3    3    0    0  0.35831199538E+02 -0.39152540400E+02  0.33034646453E+03  0.33458419405E+03  0.10000000000E+01 0.  0.
    9000005    1    3    3    0    0 -0.35831199538E+02  0.39152540400E+02  0.95812958051E+02  0.10953501363E+03  0.10000000000E+01 0.  0.
<mgrwt>
<rscale>  0 0.12502007E+03</rscale>
<asrwt>0</asrwt>
<pdfrwt beam="1">  1        4 0.66944494E-01 0.12502007E+03</pdfrwt>
<pdfrwt beam="2">  1       -4 0.13815223E-02 0.12502007E+03</pdfrwt>
<totfact> 0.60449932E+03</totfact>
</mgrwt>
</event>
<event>
 5    1  0.3271306E-002  0.1249994E+03  0.7818608E-02  0.1235070E+00
         -4   -1    0    0    0  501 -0.00000000000E+00  0.00000000000E+00  0.16462506952E+03  0.16462996816E+03  0.12700000000E+01 0. -1.
          4   -1    0    0  501    0  0.00000000000E+00 -0.00000000000E+00 -0.23705687745E+02  0.23739682632E+02  0.12700000000E+01 0. -1.
         25    2    1    2    0    0  0.00000000000E+00  0.00000000000E+00  0.14091938178E+03  0.18836965079E+03  0.12499941271E+03 0.  0.
    9000005    1    3    3    0    0  0.34881694130E+02  0.51670183371E+02  0.63947781105E+02  0.89313264095E+02  0.10000000000E+01 0.  0.
    9000005    1    3    3    0    0 -0.34881694130E+02 -0.51670183371E+02  0.76971600675E+02  0.99056386697E+02  0.10000000000E+01 0.  0.
<mgrwt>
<rscale>  0 0.12499941E+03</rscale>
<asrwt>0</asrwt>
<pdfrwt beam="2">  1        4 0.36500208E-02 0.12499941E+03</pdfrwt>
<pdfrwt beam="1">  1       -4 0.25329925E-01 0.12499941E+03</pdfrwt>
<totfact> 0.92132978E+03</totfact>
</mgrwt>
</event>
<event>
 5    1  0.3271306E-002  0.1249947E+03  0.7818608E-02  0.1235078E+00
         -4   -1    0    0    0  501 -0.00000000000E+00  0.00000000000E+00  0.54318734828E+02  0.54333579427E+02  0.12700000000E+01 0. -1.
          4   -1    0    0  501    0  0.00000000000E+00 -0.00000000000E+00 -0.71877114458E+02  0.71888333426E+02  0.12700000000E+01 0. -1.
         25    2    1    2    0    0  0.00000000000E+00  0.00000000000E+00 -0.17558379630E+02  0.12622191285E+03  0.12499469824E+03 0.  0.
    9000005    1    3    3    0    0 -0.46886852816E+02  0.40510969661E+02 -0.16945804352E+02  0.64246991486E+02  0.10000000000E+01 0.  0.
    9000005    1    3    3    0    0  0.46886852816E+02 -0.40510969661E+02 -0.61257527819E+00  0.61974921367E+02  0.10000000000E+01 0.  0.
<mgrwt>
<rscale>  0 0.12499470E+03</rscale>
<asrwt>0</asrwt>
<pdfrwt beam="2">  1        4 0.11060023E-01 0.12499470E+03</pdfrwt>
<pdfrwt beam="1">  1       -4 0.83587333E-02 0.12499470E+03</pdfrwt>
<totfact> 0.10427347E+04</totfact>
</mgrwt>
</event>
<event>
 5    1  0.3271306E-002  0.1250068E+03  0.7818608E-02  0.1235059E+00
          4   -1    0    0  501    0  0.00000000000E+00  0.00000000000E+00  0.12540463210E+04  0.12540469641E+04  0.12700000000E+01 0.  1.
         -4   -1    0    0    0  501 -0.00000000000E+00 -0.00000000000E+00 -0.29851489203E+01  0.32440736854E+01  0.12700000000E+01 0.  1.
         25    2    1    2    0    0  0.00000000000E+00  0.00000000000E+00  0.12510611721E+04  0.12572910377E+04  0.12500678923E+03 0.  0.
    9000005    1    3    3    0    0 -0.28728441690E+02  0.32084837761E+02  0.10810175598E+04  0.10818755588E+04  0.10000000000E+01 0.  0.
    9000005    1    3    3    0    0  0.28728441690E+02 -0.32084837761E+02  0.17004361230E+03  0.17541547897E+03  0.10000000000E+01 0.  0.
<mgrwt>
<rscale>  0 0.12500679E+03</rscale>
<asrwt>0</asrwt>
<pdfrwt beam="1">  1        4 0.19294990E+00 0.12500679E+03</pdfrwt>
<pdfrwt beam="2">  1       -4 0.47922110E-03 0.12500679E+03</pdfrwt>
<totfact> 0.23256089E+03</totfact>
</mgrwt>
</event>
<event>
 5    1  0.3271306E-002  0.1249992E+03  0.7818608E-02  0.1235070E+00
         -4   -1    0    0    0  501 -0.00000000000E+00  0.00000000000E+00  0.54557062742E+02  0.54571842511E+02  0.12700000000E+01 0.  1.
          4   -1    0    0  501    0  0.00000000000E+00 -0.00000000000E+00 -0.71568361168E+02  0.71579628529E+02  0.12700000000E+01 0.  1.
         25    2    1    2    0    0  0.00000000000E+00  0.00000000000E+00 -0.17011298426E+02  0.12615147104E+03  0.12499923748E+03 0.  0.
    9000005    1    3    3    0    0 -0.57393558070E+02  0.10957224155E+02 -0.30871181590E+02  0.66091687237E+02  0.10000000000E+01 0.  0.
    9000005    1    3    3    0    0  0.57393558070E+02 -0.10957224155E+02  0.13859883164E+02  0.60059783802E+02  0.10000000000E+01 0.  0.
<mgrwt>
<rscale>  0 0.12499924E+03</rscale>
<asrwt>0</asrwt>
<pdfrwt beam="2">  1        4 0.11012521E-01 0.12499924E+03</pdfrwt>
<pdfrwt beam="1">  1       -4 0.83953979E-02 0.12499924E+03</pdfrwt>
<totfact> 0.10427820E+04</totfact>
</mgrwt>
</event>
<event>
 5    1  0.3271306E-002  0.1250145E+03  0.7818608E-02  0.1235047E+00
          4   -1    0    0  501    0  0.00000000000E+00  0.00000000000E+00  0.19590312883E+03  0.19590724536E+03  0.12700000000E+01 0. -1.
         -4   -1    0    0    0  501 -0.00000000000E+00 -0.00000000000E+00 -0.19919768667E+02  0.19960212517E+02  0.12700000000E+01 0. -1.
         25    2    1    2    0    0  0.00000000000E+00  0.00000000000E+00  0.17598336016E+03  0.21586745788E+03  0.12501446443E+03 0.  0.
    9000005    1    3    3    0    0  0.16337880861E+02  0.44671453204E+02  0.15799791749E+03  0.16500547570E+03  0.10000000000E+01 0.  0.
    9000005    1    3    3    0    0 -0.16337880861E+02 -0.44671453204E+02  0.17985442675E+02  0.50861982173E+02  0.10000000000E+01 0.  0.
<mgrwt>
<rscale>  0 0.12501446E+03</rscale>
<asrwt>0</asrwt>
<pdfrwt beam="1">  1        4 0.30142370E-01 0.12501446E+03</pdfrwt>
<pdfrwt beam="2">  1       -4 0.30680076E-02 0.12501446E+03</pdfrwt>
<totfact> 0.87498241E+03</totfact>
</mgrwt>
</event>
<event>
 5    1  0.3271306E-002  0.1250007E+03  0.7818608E-02  0.1235068E+00
          4   -1    0    0  501    0  0.00000000000E+00  0.00000000000E+00  0.79290527258E+03  0.79290628967E+03  0.12700000000E+01 0.  1.
         -4   -1    0    0    0  501 -0.00000000000E+00 -0.00000000000E+00 -0.48436726940E+01  0.50074010391E+01  0.12700000000E+01 0.  1.
         25    2    1    2    0    0  0.00000000000E+00  0.00000000000E+00  0.78806159989E+03  0.79791369071E+03  0.12500069037E+03 0.  0.
    9000005    1    3    3    0    0  0.45705939780E+02  0.33365328521E+02  0.22478191249E+03  0.23179772705E+03  0.10000000000E+01 0.  0.
    9000005    1    3    3    0    0 -0.45705939780E+02 -0.33365328521E+02  0.56327968740E+03  0.56611596366E+03  0.10000000000E+01 0.  0.
<mgrwt>
<rscale>  0 0.12500069E+03</rscale>
<asrwt>0</asrwt>
<pdfrwt beam="1">  1        4 0.12199794E+00 0.12500069E+03</pdfrwt>
<pdfrwt beam="2">  1       -4 0.75785413E-03 0.12500069E+03</pdfrwt>
<totfact> 0.38357499E+03</totfact>
</mgrwt>
</event>
<event>
 5    1  0.3271306E-002  0.1249985E+03  0.7818608E-02  0.1235072E+00
         -4   -1    0    0    0  501 -0.00000000000E+00  0.00000000000E+00  0.47585565355E+02  0.47602509705E+02  0.12700000000E+01 0.  1.
          4   -1    0    0  501    0  0.00000000000E+00 -0.00000000000E+00 -0.82050560890E+02  0.82060388997E+02  0.12700000000E+01 0.  1.
         25    2    1    2    0    0  0.00000000000E+00  0.00000000000E+00 -0.34464995535E+02  0.12966289870E+03  0.12499852552E+03 0.  0.
    9000005    1    3    3    0    0  0.62186276578E+02 -0.58524400213E+01 -0.15217381588E+02  0.64295822191E+02  0.10000000000E+01 0.  0.
    9000005    1    3    3    0    0 -0.62186276578E+02  0.58524400213E+01 -0.19247613947E+02  0.65367076511E+02  0.10000000000E+01 0.  0.
<mgrwt>
<rscale>  0 0.12499853E+03</rscale>
<asrwt>0</asrwt>
<pdfrwt beam="2">  1        4 0.12625223E-01 0.12499853E+03</pdfrwt>
<pdfrwt beam="1">  1       -4 0.73229156E-02 0.12499853E+03</pdfrwt>
<totfact> 0.10352069E+04</totfact>
</mgrwt>
</event>
<event>
 5    1  0.3271306E-002  0.1249941E+03  0.7818608E-02  0.1235078E+00
          4   -1    0    0  501    0  0.00000000000E+00  0.00000000000E+00  0.15627073008E+03  0.15627589059E+03  0.12700000000E+01 0. -1.
         -4   -1    0    0    0  501 -0.00000000000E+00 -0.00000000000E+00 -0.24972619189E+02  0.25004891704E+02  0.12700000000E+01 0. -1.
         25    2    1    2    0    0  0.00000000000E+00  0.00000000000E+00  0.13129811089E+03  0.18128078230E+03  0.12499411229E+03 0.  0.
    9000005    1    3    3    0    0 -0.42583185962E+02  0.27338609772E+02  0.11882152609E+03  0.12915216751E+03  0.10000000000E+01 0.  0.
    9000005    1    3    3    0    0  0.42583185962E+02 -0.27338609772E+02  0.12476584803E+02  0.52128614784E+02  0.10000000000E+01 0.  0.
<mgrwt>
<rscale>  0 0.12499411E+03</rscale>
<asrwt>0</asrwt>
<pdfrwt beam="1">  1        4 0.24044531E-01 0.12499411E+03</pdfrwt>
<pdfrwt beam="2">  1       -4 0.38448208E-02 0.12499411E+03</pdfrwt>
<totfact> 0.93399292E+03</totfact>
</mgrwt>
</event>
<event>
 5    1  0.3271306E-002  0.1250013E+03  0.7818608E-02  0.1235067E+00
         -4   -1    0    0    0  501 -0.00000000000E+00  0.00000000000E+00  0.11359439940E+03  0.11360149856E+03  0.12700000000E+01 0. -1.
          4   -1    0    0  501    0  0.00000000000E+00 -0.00000000000E+00 -0.34368495535E+02  0.34391952334E+02  0.12700000000E+01 0. -1.
         25    2    1    2    0    0  0.00000000000E+00  0.00000000000E+00  0.79225903863E+02  0.14799345089E+03  0.12500127065E+03 0.  0.
    9000005    1    3    3    0    0  0.45706011228E+02  0.35600328484E+02  0.11874815359E+02  0.59147561999E+02  0.10000000000E+01 0.  0.
    9000005    1    3    3    0    0 -0.45706011228E+02 -0.35600328484E+02  0.67351088504E+02  0.88845888893E+02  0.10000000000E+01 0.  0.
<mgrwt>
<rscale>  0 0.12500127E+03</rscale>
<asrwt>0</asrwt>
<pdfrwt beam="2">  1        4 0.52898113E-02 0.12500127E+03</pdfrwt>
<pdfrwt beam="1">  1       -4 0.17478412E-01 0.12500127E+03</pdfrwt>
<totfact> 0.99702335E+03</totfact>
</mgrwt>
</event>
<event>
 5    1  0.3271306E-002  0.1249993E+03  0.7818608E-02  0.1235070E+00
         -4   -1    0    0    0  501 -0.00000000000E+00  0.00000000000E+00  0.17714218166E+02  0.17759685393E+02  0.12700000000E+01 0.  1.
          4   -1    0    0  501    0  0.00000000000E+00 -0.00000000000E+00 -0.22018260878E+03  0.22018627139E+03  0.12700000000E+01 0.  1.
         25    2    1    2    0    0  0.00000000000E+00  0.00000000000E+00 -0.20246839061E+03  0.23794595678E+03  0.12499931661E+03 0.  0.
    9000005    1    3    3    0    0  0.58456654798E+02  0.13451070763E+02 -0.67875626296E+02  0.90588147348E+02  0.10000000000E+01 0.  0.
    9000005    1    3    3    0    0 -0.58456654798E+02 -0.13451070763E+02 -0.13459276431E+03  0.14735780943E+03  0.10000000000E+01 0.  0.
<mgrwt>
<rscale>  0 0.12499932E+03</rscale>
<asrwt>0</asrwt>
<pdfrwt beam="2">  1        4 0.33878025E-01 0.12499932E+03</pdfrwt>
<pdfrwt beam="1">  1       -4 0.27290437E-02 0.12499932E+03</pdfrwt>
<totfact> 0.84105517E+03</totfact>
</mgrwt>
</event>
<event>
 5    1  0.3271306E-002  0.1250006E+03  0.7818608E-02  0.1235068E+00
         -4   -1    0    0    0  501 -0.00000000000E+00  0.00000000000E+00  0.66774529403E+03  0.66774650175E+03  0.12700000000E+01 0.  1.
          4   -1    0    0  501    0  0.00000000000E+00 -0.00000000000E+00 -0.57798093072E+01  0.59176934381E+01  0.12700000000E+01 0.  1.
         25    2    1    2    0    0  0.00000000000E+00  0.00000000000E+00  0.66196548472E+03  0.67366419518E+03  0.12500057965E+03 0.  0.
    9000005    1    3    3    0    0  0.51193944873E+02  0.69721785984E+01  0.52044172088E+03  0.52300097141E+03  0.10000000000E+01 0.  0.
    9000005    1    3    3    0    0 -0.51193944873E+02 -0.69721785984E+01  0.14152376384E+03  0.15066322377E+03  0.10000000000E+01 0.  0.
<mgrwt>
<rscale>  0 0.12500058E+03</rscale>
<asrwt>0</asrwt>
<pdfrwt beam="2">  1        4 0.89990151E-03 0.12500058E+03</pdfrwt>
<pdfrwt beam="1">  1       -4 0.10274066E+00 0.12500058E+03</pdfrwt>
<totfact> 0.44513325E+03</totfact>
</mgrwt>
</event>
<event>
 5    1  0.3271306E-002  0.1250018E+03  0.7818608E-02  0.1235066E+00
          4   -1    0    0  501    0  0.00000000000E+00  0.00000000000E+00  0.30926684642E+03  0.30926945402E+03  0.12700000000E+01 0.  1.
         -4   -1    0    0    0  501 -0.00000000000E+00 -0.00000000000E+00 -0.12596454451E+02  0.12660314559E+02  0.12700000000E+01 0.  1.
         25    2    1    2    0    0  0.00000000000E+00  0.00000000000E+00  0.29667039196E+03  0.32192976858E+03  0.12500181771E+03 0.  0.
    9000005    1    3    3    0    0 -0.29371761337E+02 -0.48216853441E+02  0.79335684145E+02  0.97379238540E+02  0.10000000000E+01 0.  0.
    9000005    1    3    3    0    0  0.29371761337E+02  0.48216853441E+02  0.21733470782E+03  0.22455053004E+03  0.10000000000E+01 0.  0.
<mgrwt>
<rscale>  0 0.12500182E+03</rscale>
<asrwt>0</asrwt>
<pdfrwt beam="1">  1        4 0.47584625E-01 0.12500182E+03</pdfrwt>
<pdfrwt beam="2">  1       -4 0.19430291E-02 0.12500182E+03</pdfrwt>
<totfact> 0.72924253E+03</totfact>
</mgrwt>
</event>
<event>
 5    1  0.3271306E-002  0.1249987E+03  0.7818608E-02  0.1235071E+00
          4   -1    0    0  501    0  0.00000000000E+00  0.00000000000E+00  0.51275627979E+02  0.51291353312E+02  0.12700000000E+01 0.  1.
         -4   -1    0    0    0  501 -0.00000000000E+00 -0.00000000000E+00 -0.76147079539E+02  0.76157669492E+02  0.12700000000E+01 0.  1.
         25    2    1    2    0    0  0.00000000000E+00  0.00000000000E+00 -0.24871451561E+02  0.12744902280E+03  0.12499865724E+03 0.  0.
    9000005    1    3    3    0    0  0.48135973982E+02 -0.23682140904E+01 -0.52996015852E+02  0.71639780328E+02  0.10000000000E+01 0.  0.
    9000005    1    3    3    0    0 -0.48135973982E+02  0.23682140904E+01  0.28124564292E+02  0.55809242476E+02  0.10000000000E+01 0.  0.
<mgrwt>
<rscale>  0 0.12499866E+03</rscale>
<asrwt>0</asrwt>
<pdfrwt beam="1">  1        4 0.78905824E-02 0.12499866E+03</pdfrwt>
<pdfrwt beam="2">  1       -4 0.11716960E-01 0.12499866E+03</pdfrwt>
<totfact> 0.10399720E+04</totfact>
</mgrwt>
</event>
<event>
 5    1  0.3271306E-002  0.1250097E+03  0.7818608E-02  0.1235054E+00
          4   -1    0    0  501    0  0.00000000000E+00  0.00000000000E+00  0.43209828255E+02  0.43228487804E+02  0.12700000000E+01 0. -1.
         -4   -1    0    0    0  501 -0.00000000000E+00 -0.00000000000E+00 -0.90373239151E+02  0.90382162259E+02  0.12700000000E+01 0. -1.
         25    2    1    2    0    0  0.00000000000E+00  0.00000000000E+00 -0.47163410896E+02  0.13361065006E+03  0.12500967356E+03 0.  0.
    9000005    1    3    3    0    0 -0.30173100591E+02  0.48024825891E+02 -0.51637612353E+02  0.76708818988E+02  0.10000000000E+01 0.  0.
    9000005    1    3    3    0    0  0.30173100591E+02 -0.48024825891E+02  0.44742014569E+01  0.56901831076E+02  0.10000000000E+01 0.  0.
<mgrwt>
<rscale>  0 0.12500967E+03</rscale>
<asrwt>0</asrwt>
<pdfrwt beam="1">  1        4 0.66497876E-02 0.12500967E+03</pdfrwt>
<pdfrwt beam="2">  1       -4 0.13905697E-01 0.12500967E+03</pdfrwt>
<totfact> 0.10265199E+04</totfact>
</mgrwt>
</event>
<event>
 5    1  0.3271306E-002  0.1249993E+03  0.7818608E-02  0.1235070E+00
          4   -1    0    0  501    0  0.00000000000E+00  0.00000000000E+00  0.34347154294E+03  0.34347389087E+03  0.12700000000E+01 0.  1.
         -4   -1    0    0    0  501 -0.00000000000E+00 -0.00000000000E+00 -0.11334876958E+02  0.11405802718E+02  0.12700000000E+01 0.  1.
         25    2    1    2    0    0  0.00000000000E+00  0.00000000000E+00  0.33213666598E+03  0.35487969359E+03  0.12499932812E+03 0.  0.
    9000005    1    3    3    0    0  0.56863612718E+02 -0.10382438366E+02  0.98647999710E+02  0.11434025242E+03  0.10000000000E+01 0.  0.
    9000005    1    3    3    0    0 -0.56863612718E+02  0.10382438366E+02  0.23348866627E+03  0.24053944116E+03  0.10000000000E+01 0.  0.
<mgrwt>
<rscale>  0 0.12499933E+03</rscale>
<asrwt>0</asrwt>
<pdfrwt beam="1">  1        4 0.52847399E-01 0.12499933E+03</pdfrwt>
<pdfrwt beam="2">  1       -4 0.17494641E-02 0.12499933E+03</pdfrwt>
<totfact> 0.69192081E+03</totfact>
</mgrwt>
</event>
<event>
 5    1  0.3271306E-002  0.1249864E+03  0.7818608E-02  0.1235091E+00
         -4   -1    0    0    0  501 -0.00000000000E+00  0.00000000000E+00  0.11668552735E+03  0.11669243845E+03  0.12700000000E+01 0.  1.
          4   -1    0    0  501    0  0.00000000000E+00 -0.00000000000E+00 -0.33449485040E+02  0.33473585847E+02  0.12700000000E+01 0.  1.
         25    2    1    2    0    0  0.00000000000E+00  0.00000000000E+00  0.83236042305E+02  0.15016602430E+03  0.12498638372E+03 0.  0.
    9000005    1    3    3    0    0 -0.31618502316E+02 -0.13184581458E+02  0.10440315175E+03  0.10988439822E+03  0.10000000000E+01 0.  0.
    9000005    1    3    3    0    0  0.31618502316E+02  0.13184581458E+02 -0.21167109448E+02  0.40281626076E+02  0.10000000000E+01 0.  0.
<mgrwt>
<rscale>  0 0.12498638E+03</rscale>
<asrwt>0</asrwt>
<pdfrwt beam="2">  1        4 0.51484601E-02 0.12498638E+03</pdfrwt>
<pdfrwt beam="1">  1       -4 0.17954005E-01 0.12498638E+03</pdfrwt>
<totfact> 0.99301040E+03</totfact>
</mgrwt>
</event>
<event>
 5    1  0.3271306E-002  0.1250002E+03  0.7818608E-02  0.1235069E+00
         -4   -1    0    0    0  501 -0.00000000000E+00  0.00000000000E+00  0.11347013199E+02  0.11417863572E+02  0.12700000000E+01 0.  1.
          4   -1    0    0  501    0  0.00000000000E+00 -0.00000000000E+00 -0.34311123290E+03  0.34311358329E+03  0.12700000000E+01 0.  1.
         25    2    1    2    0    0  0.00000000000E+00  0.00000000000E+00 -0.33176421970E+03  0.35453144687E+03  0.12500019738E+03 0.  0.
    9000005    1    3    3    0    0  0.16655362021E+02 -0.59518875751E+02 -0.19208705026E+03  0.20178784039E+03  0.10000000000E+01 0.  0.
    9000005    1    3    3    0    0 -0.16655362021E+02  0.59518875751E+02 -0.13967716944E+03  0.15274360647E+03  0.10000000000E+01 0.  0.
<mgrwt>
<rscale>  0 0.12500020E+03</rscale>
<asrwt>0</asrwt>
<pdfrwt beam="2">  1        4 0.52791966E-01 0.12500020E+03</pdfrwt>
<pdfrwt beam="1">  1       -4 0.17513254E-02 0.12500020E+03</pdfrwt>
<totfact> 0.69228603E+03</totfact>
</mgrwt>
</event>
<event>
 5    1  0.3271306E-002  0.1250107E+03  0.7818608E-02  0.1235053E+00
          4   -1    0    0  501    0  0.00000000000E+00  0.00000000000E+00  0.72461040501E+01  0.73565565250E+01  0.12700000000E+01 0. -1.
         -4   -1    0    0    0  501 -0.00000000000E+00 -0.00000000000E+00 -0.53498531540E+03  0.53498682282E+03  0.12700000000E+01 0. -1.
         25    2    1    2    0    0  0.00000000000E+00  0.00000000000E+00 -0.52773921135E+03  0.54234337935E+03  0.12501066325E+03 0.  0.
    9000005    1    3    3    0    0 -0.32677704448E+02  0.34814718575E+02 -0.43881002218E+03  0.44140132823E+03  0.10000000000E+01 0.  0.
    9000005    1    3    3    0    0  0.32677704448E+02 -0.34814718575E+02 -0.88929189171E+02  0.10094205112E+03  0.10000000000E+01 0.  0.
<mgrwt>
<rscale>  0 0.12501066E+03</rscale>
<asrwt>0</asrwt>
<pdfrwt beam="1">  1        4 0.11233980E-02 0.12501066E+03</pdfrwt>
<pdfrwt beam="2">  1       -4 0.82314015E-01 0.12501066E+03</pdfrwt>
<totfact> 0.52710142E+03</totfact>
</mgrwt>
</event>
<event>
 5    1  0.3271306E-002  0.1250008E+03  0.7818608E-02  0.1235068E+00
         -4   -1    0    0    0  501 -0.00000000000E+00  0.00000000000E+00  0.16495022402E+03  0.16495511300E+03  0.12700000000E+01 0.  1.
          4   -1    0    0  501    0  0.00000000000E+00 -0.00000000000E+00 -0.23659400613E+02  0.23693461912E+02  0.12700000000E+01 0.  1.
         25    2    1    2    0    0  0.00000000000E+00  0.00000000000E+00  0.14129082340E+03  0.18864857491E+03  0.12500075214E+03 0.  0.
    9000005    1    3    3    0    0  0.51589878349E+02 -0.14080598294E+02  0.21846885717E+02  0.57775991657E+02  0.10000000000E+01 0.  0.
    9000005    1    3    3    0    0 -0.51589878349E+02  0.14080598294E+02  0.11944393769E+03  0.13087258325E+03  0.10000000000E+01 0.  0.
<mgrwt>
<rscale>  0 0.12500075E+03</rscale>
<asrwt>0</asrwt>
<pdfrwt beam="2">  1        4 0.36429041E-02 0.12500075E+03</pdfrwt>
<pdfrwt beam="1">  1       -4 0.25379953E-01 0.12500075E+03</pdfrwt>
<totfact> 0.92081440E+03</totfact>
</mgrwt>
</event>
<event>
 5    1  0.3271306E-002  0.1249998E+03  0.7818608E-02  0.1235070E+00
         -4   -1    0    0    0  501 -0.00000000000E+00  0.00000000000E+00  0.63961804953E+02  0.63974412016E+02  0.12700000000E+01 0.  1.
          4   -1    0    0  501    0  0.00000000000E+00 -0.00000000000E+00 -0.61046184175E+02  0.61059393236E+02  0.12700000000E+01 0.  1.
         25    2    1    2    0    0  0.00000000000E+00  0.00000000000E+00  0.29156207773E+01  0.12503380525E+03  0.12499980645E+03 0.  0.
    9000005    1    3    3    0    0  0.52789024885E+02 -0.18680127500E+02  0.29207194194E+02  0.63163981069E+02  0.10000000000E+01 0.  0.
    9000005    1    3    3    0    0 -0.52789024885E+02  0.18680127500E+02 -0.26291573416E+02  0.61869824183E+02  0.10000000000E+01 0.  0.
<mgrwt>
<rscale>  0 0.12499981E+03</rscale>
<asrwt>0</asrwt>
<pdfrwt beam="2">  1        4 0.93937066E-02 0.12499981E+03</pdfrwt>
<pdfrwt beam="1">  1       -4 0.98422635E-02 0.12499981E+03</pdfrwt>
<totfact> 0.10452174E+04</totfact>
</mgrwt>
</event>
<event>
 5    1  0.3271306E-002  0.1249998E+03  0.7818608E-02  0.1235070E+00
          4   -1    0    0  501    0  0.00000000000E+00  0.00000000000E+00  0.18761646362E+03  0.18762076196E+03  0.12700000000E+01 0. -1.
         -4   -1    0    0    0  501 -0.00000000000E+00 -0.00000000000E+00 -0.20796421313E+02  0.20835163533E+02  0.12700000000E+01 0. -1.
         25    2    1    2    0    0  0.00000000000E+00  0.00000000000E+00  0.16682004230E+03  0.20845592550E+03  0.12499978544E+03 0.  0.
    9000005    1    3    3    0    0  0.52392468316E+02 -0.34058256994E+02  0.82495114102E+02  0.10349579439E+03  0.10000000000E+01 0.  0.
    9000005    1    3    3    0    0 -0.52392468316E+02  0.34058256994E+02  0.84324928202E+02  0.10496013111E+03  0.10000000000E+01 0.  0.
<mgrwt>
<rscale>  0 0.12499979E+03</rscale>
<asrwt>0</asrwt>
<pdfrwt beam="1">  1        4 0.28867382E-01 0.12499979E+03</pdfrwt>
<pdfrwt beam="2">  1       -4 0.32027602E-02 0.12499979E+03</pdfrwt>
<totfact> 0.88729096E+03</totfact>
</mgrwt>
</event>
<event>
 5    1  0.3271306E-002  0.1249997E+03  0.7818608E-02  0.1235070E+00
          4   -1    0    0  501    0  0.00000000000E+00  0.00000000000E+00  0.35682981342E+02  0.35705574599E+02  0.12700000000E+01 0.  1.
         -4   -1    0    0    0  501 -0.00000000000E+00 -0.00000000000E+00 -0.10940944642E+03  0.10941681710E+03  0.12700000000E+01 0.  1.
         25    2    1    2    0    0  0.00000000000E+00  0.00000000000E+00 -0.73726465073E+02  0.14512239170E+03  0.12499966768E+03 0.  0.
    9000005    1    3    3    0    0  0.60550683295E+02 -0.36834957987E+01 -0.19437827602E+02  0.63708575017E+02  0.10000000000E+01 0.  0.
    9000005    1    3    3    0    0 -0.60550683295E+02  0.36834957987E+01 -0.54288637471E+02  0.81413816685E+02  0.10000000000E+01 0.  0.
<mgrwt>
<rscale>  0 0.12499967E+03</rscale>
<asrwt>0</asrwt>
<pdfrwt beam="1">  1        4 0.54919944E-02 0.12499967E+03</pdfrwt>
<pdfrwt beam="2">  1       -4 0.16834527E-01 0.12499967E+03</pdfrwt>
<totfact> 0.10028577E+04</totfact>
</mgrwt>
</event>
<event>
 5    1  0.3271306E-002  0.1250001E+03  0.7818608E-02  0.1235069E+00
          4   -1    0    0  501    0  0.00000000000E+00  0.00000000000E+00  0.90079469607E+02  0.90088421812E+02  0.12700000000E+01 0.  1.
         -4   -1    0    0    0  501 -0.00000000000E+00 -0.00000000000E+00 -0.43344125950E+02  0.43362727709E+02  0.12700000000E+01 0.  1.
         25    2    1    2    0    0  0.00000000000E+00  0.00000000000E+00  0.46735343657E+02  0.13345114952E+03  0.12500006785E+03 0.  0.
    9000005    1    3    3    0    0 -0.42260196086E+02 -0.11169048759E+02  0.71047871282E+02  0.83423448965E+02  0.10000000000E+01 0.  0.
    9000005    1    3    3    0    0  0.42260196086E+02  0.11169048759E+02 -0.24312527625E+02  0.50027700556E+02  0.10000000000E+01 0.  0.
<mgrwt>
<rscale>  0 0.12500007E+03</rscale>
<asrwt>0</asrwt>
<pdfrwt beam="1">  1        4 0.13860499E-01 0.12500007E+03</pdfrwt>
<pdfrwt beam="2">  1       -4 0.66704466E-02 0.12500007E+03</pdfrwt>
<totfact> 0.10270805E+04</totfact>
</mgrwt>
</event>
<event>
 5    1  0.3271306E-002  0.1249992E+03  0.7818608E-02  0.1235071E+00
          4   -1    0    0  501    0  0.00000000000E+00  0.00000000000E+00  0.13043223318E+03  0.13043841594E+03  0.12700000000E+01 0. -1.
         -4   -1    0    0    0  501 -0.00000000000E+00 -0.00000000000E+00 -0.29927741682E+02  0.29954676132E+02  0.12700000000E+01 0. -1.
         25    2    1    2    0    0  0.00000000000E+00  0.00000000000E+00  0.10050449150E+03  0.16039309207E+03  0.12499916469E+03 0.  0.
    9000005    1    3    3    0    0 -0.29549210017E+01  0.19778947329E+02  0.12622163503E+03  0.12779999791E+03  0.10000000000E+01 0.  0.
    9000005    1    3    3    0    0  0.29549210017E+01 -0.19778947329E+02 -0.25717143532E+02  0.32593094161E+02  0.10000000000E+01 0.  0.
<mgrwt>
<rscale>  0 0.12499916E+03</rscale>
<asrwt>0</asrwt>
<pdfrwt beam="1">  1        4 0.20069045E-01 0.12499916E+03</pdfrwt>
<pdfrwt beam="2">  1       -4 0.46068155E-02 0.12499916E+03</pdfrwt>
<totfact> 0.97268880E+03</totfact>
</mgrwt>
</event>
<event>
 5    1  0.3271306E-002  0.1249997E+03  0.7818608E-02  0.1235070E+00
          4   -1    0    0  501    0  0.00000000000E+00  0.00000000000E+00  0.17409793189E+02  0.17456053359E+02  0.12700000000E+01 0.  1.
         -4   -1    0    0    0  501 -0.00000000000E+00 -0.00000000000E+00 -0.22402385897E+03  0.22402745878E+03  0.12700000000E+01 0.  1.
         25    2    1    2    0    0  0.00000000000E+00  0.00000000000E+00 -0.20661406578E+03  0.24148351214E+03  0.12499965783E+03 0.  0.
    9000005    1    3    3    0    0  0.52472939181E+02  0.83355772043E+01 -0.16686353631E+03  0.17512090379E+03  0.10000000000E+01 0.  0.
    9000005    1    3    3    0    0 -0.52472939181E+02 -0.83355772043E+01 -0.39750529463E+02  0.66362608344E+02  0.10000000000E+01 0.  0.
<mgrwt>
<rscale>  0 0.12499966E+03</rscale>
<asrwt>0</asrwt>
<pdfrwt beam="1">  1        4 0.26822653E-02 0.12499966E+03</pdfrwt>
<pdfrwt beam="2">  1       -4 0.34469042E-01 0.12499966E+03</pdfrwt>
<totfact> 0.83577558E+03</totfact>
</mgrwt>
</event>
<event>
 5    1  0.3271306E-002  0.1250005E+03  0.7818608E-02  0.1235069E+00
          4   -1    0    0  501    0  0.00000000000E+00  0.00000000000E+00  0.55148357200E+01  0.56591795358E+01  0.12700000000E+01 0.  1.
         -4   -1    0    0    0  501 -0.00000000000E+00 -0.00000000000E+00 -0.69902725569E+03  0.69902840936E+03  0.12700000000E+01 0.  1.
         25    2    1    2    0    0  0.00000000000E+00  0.00000000000E+00 -0.69351241997E+03  0.70468758890E+03  0.12500048518E+03 0.  0.
    9000005    1    3    3    0    0 -0.34527463728E+02  0.44436755860E+02 -0.19355474837E+03  0.20157185230E+03  0.10000000000E+01 0.  0.
    9000005    1    3    3    0    0  0.34527463728E+02 -0.44436755860E+02 -0.49995767160E+03  0.50311573660E+03  0.10000000000E+01 0.  0.
<mgrwt>
<rscale>  0 0.12500049E+03</rscale>
<asrwt>0</asrwt>
<pdfrwt beam="1">  1        4 0.85962893E-03 0.12500049E+03</pdfrwt>
<pdfrwt beam="2">  1       -4 0.10755378E+00 0.12500049E+03</pdfrwt>
<totfact> 0.42839963E+03</totfact>
</mgrwt>
</event>
<event>
 5    1  0.3271306E-002  0.1249983E+03  0.7818608E-02  0.1235072E+00
         -4   -1    0    0    0  501 -0.00000000000E+00  0.00000000000E+00  0.19353458834E+02  0.19395083626E+02  0.12700000000E+01 0. -1.
          4   -1    0    0  501    0  0.00000000000E+00 -0.00000000000E+00 -0.20157128836E+03  0.20157528914E+03  0.12700000000E+01 0. -1.
         25    2    1    2    0    0  0.00000000000E+00  0.00000000000E+00 -0.18221782953E+03  0.22097037276E+03  0.12499827296E+03 0.  0.
    9000005    1    3    3    0    0 -0.40879993338E+02  0.32752204796E+02 -0.30867521225E+02  0.60808590190E+02  0.10000000000E+01 0.  0.
    9000005    1    3    3    0    0  0.40879993338E+02 -0.32752204796E+02 -0.15135030830E+03  0.16016178257E+03  0.10000000000E+01 0.  0.
<mgrwt>
<rscale>  0 0.12499827E+03</rscale>
<asrwt>0</asrwt>
<pdfrwt beam="2">  1        4 0.31014476E-01 0.12499827E+03</pdfrwt>
<pdfrwt beam="1">  1       -4 0.29809650E-02 0.12499827E+03</pdfrwt>
<totfact> 0.86718379E+03</totfact>
</mgrwt>
</event>
<event>
 5    1  0.3271306E-002  0.1249996E+03  0.7818608E-02  0.1235070E+00
          4   -1    0    0  501    0  0.00000000000E+00  0.00000000000E+00  0.24005672625E+03  0.24006008564E+03  0.12700000000E+01 0.  1.
         -4   -1    0    0    0  501 -0.00000000000E+00 -0.00000000000E+00 -0.16243842014E+02  0.16293412883E+02  0.12700000000E+01 0.  1.
         25    2    1    2    0    0  0.00000000000E+00  0.00000000000E+00  0.22381288424E+03  0.25635349852E+03  0.12499963622E+03 0.  0.
    9000005    1    3    3    0    0  0.93897638745E+01 -0.27674963689E+02  0.22518891084E+03  0.22707953859E+03  0.10000000000E+01 0.  0.
    9000005    1    3    3    0    0 -0.93897638745E+01  0.27674963689E+02 -0.13760266081E+01  0.29273959931E+02  0.10000000000E+01 0.  0.
<mgrwt>
<rscale>  0 0.12499964E+03</rscale>
<asrwt>0</asrwt>
<pdfrwt beam="1">  1        4 0.36935876E-01 0.12499964E+03</pdfrwt>
<pdfrwt beam="2">  1       -4 0.25031241E-02 0.12499964E+03</pdfrwt>
<totfact> 0.81421192E+03</totfact>
</mgrwt>
</event>
<event>
 5    1  0.3271306E-002  0.1249992E+03  0.7818608E-02  0.1235071E+00
         -4   -1    0    0    0  501 -0.00000000000E+00  0.00000000000E+00  0.69146141786E+02  0.69157803781E+02  0.12700000000E+01 0. -1.
          4   -1    0    0  501    0  0.00000000000E+00 -0.00000000000E+00 -0.56468347449E+02  0.56482627096E+02  0.12700000000E+01 0. -1.
         25    2    1    2    0    0  0.00000000000E+00  0.00000000000E+00  0.12677794337E+02  0.12564043088E+03  0.12499916560E+03 0.  0.
    9000005    1    3    3    0    0 -0.53680268488E+02  0.58512182380E+01  0.37954832384E+02  0.66010433123E+02  0.10000000000E+01 0.  0.
    9000005    1    3    3    0    0  0.53680268488E+02 -0.58512182380E+01 -0.25277038047E+02  0.59629997754E+02  0.10000000000E+01 0.  0.
<mgrwt>
<rscale>  0 0.12499917E+03</rscale>
<asrwt>0</asrwt>
<pdfrwt beam="2">  1        4 0.86894336E-02 0.12499917E+03</pdfrwt>
<pdfrwt beam="1">  1       -4 0.10639863E-01 0.12499917E+03</pdfrwt>
<totfact> 0.10439052E+04</totfact>
</mgrwt>
</event>
<event>
 5    1  0.3271306E-002  0.1249994E+03  0.7818608E-02  0.1235070E+00
          4   -1    0    0  501    0  0.00000000000E+00  0.00000000000E+00  0.43310257083E+02  0.43328873382E+02  0.12700000000E+01 0.  1.
         -4   -1    0    0    0  501 -0.00000000000E+00 -0.00000000000E+00 -0.90148938906E+02  0.90157884214E+02  0.12700000000E+01 0.  1.
         25    2    1    2    0    0  0.00000000000E+00  0.00000000000E+00 -0.46838681823E+02  0.13348675760E+03  0.12499940935E+03 0.  0.
    9000005    1    3    3    0    0  0.13843570961E+02  0.56687395244E+02 -0.47300866032E+02  0.75123080101E+02  0.10000000000E+01 0.  0.
    9000005    1    3    3    0    0 -0.13843570961E+02 -0.56687395244E+02  0.46218420846E+00  0.58363677495E+02  0.10000000000E+01 0.  0.
<mgrwt>
<rscale>  0 0.12499941E+03</rscale>
<asrwt>0</asrwt>
<pdfrwt beam="1">  1        4 0.66652367E-02 0.12499941E+03</pdfrwt>
<pdfrwt beam="2">  1       -4 0.13871188E-01 0.12499941E+03</pdfrwt>
<totfact> 0.10270202E+04</totfact>
</mgrwt>
</event>
<event>
 5    1  0.3271306E-002  0.1250057E+03  0.7818608E-02  0.1235060E+00
         -4   -1    0    0    0  501 -0.00000000000E+00  0.00000000000E+00  0.82551553741E+03  0.82551651432E+03  0.12700000000E+01 0.  1.
          4   -1    0    0  501    0  0.00000000000E+00 -0.00000000000E+00 -0.46461194386E+01  0.48165678484E+01  0.12700000000E+01 0.  1.
         25    2    1    2    0    0  0.00000000000E+00  0.00000000000E+00  0.82086941798E+03  0.83033308217E+03  0.12500570376E+03 0.  0.
    9000005    1    3    3    0    0 -0.66136960428E+00  0.37938498721E+02  0.74027591190E+03  0.74124840158E+03  0.10000000000E+01 0.  0.
    9000005    1    3    3    0    0  0.66136960428E+00 -0.37938498721E+02  0.80593506074E+02  0.89084680592E+02  0.10000000000E+01 0.  0.
<mgrwt>
<rscale>  0 0.12500570E+03</rscale>
<asrwt>0</asrwt>
<pdfrwt beam="2">  1        4 0.72797377E-03 0.12500570E+03</pdfrwt>
<pdfrwt beam="1">  1       -4 0.12701565E+00 0.12500570E+03</pdfrwt>
<totfact> 0.36941275E+03</totfact>
</mgrwt>
</event>
<event>
 5    1  0.3271306E-002  0.1249928E+03  0.7818608E-02  0.1235081E+00
          4   -1    0    0  501    0  0.00000000000E+00  0.00000000000E+00  0.25095055750E+02  0.25127171013E+02  0.12700000000E+01 0. -1.
         -4   -1    0    0    0  501 -0.00000000000E+00 -0.00000000000E+00 -0.15550587120E+03  0.15551105710E+03  0.12700000000E+01 0. -1.
         25    2    1    2    0    0  0.00000000000E+00  0.00000000000E+00 -0.13041081545E+03  0.18063822811E+03  0.12499275446E+03 0.  0.
    9000005    1    3    3    0    0 -0.59862779535E+02  0.15652415693E+02 -0.52586107186E+02  0.81208676628E+02  0.10000000000E+01 0.  0.
    9000005    1    3    3    0    0  0.59862779535E+02 -0.15652415693E+02 -0.77824708269E+02  0.99429551482E+02  0.10000000000E+01 0.  0.
<mgrwt>
<rscale>  0 0.12499275E+03</rscale>
<asrwt>0</asrwt>
<pdfrwt beam="1">  1        4 0.38636472E-02 0.12499275E+03</pdfrwt>
<pdfrwt beam="2">  1       -4 0.23926849E-01 0.12499275E+03</pdfrwt>
<totfact> 0.93517437E+03</totfact>
</mgrwt>
</event>
<event>
 5    1  0.3271306E-002  0.1249983E+03  0.7818608E-02  0.1235072E+00
         -4   -1    0    0    0  501 -0.00000000000E+00  0.00000000000E+00  0.32080900312E+02  0.32106028481E+02  0.12700000000E+01 0.  1.
          4   -1    0    0  501    0  0.00000000000E+00 -0.00000000000E+00 -0.12168313368E+03  0.12168976096E+03  0.12700000000E+01 0.  1.
         25    2    1    2    0    0  0.00000000000E+00  0.00000000000E+00 -0.89602233370E+02  0.15379578944E+03  0.12499833849E+03 0.  0.
    9000005    1    3    3    0    0  0.56526247597E+02  0.14910447366E+02 -0.17631992552E+02  0.61069020537E+02  0.10000000000E+01 0.  0.
    9000005    1    3    3    0    0 -0.56526247597E+02 -0.14910447366E+02 -0.71970240818E+02  0.92726768904E+02  0.10000000000E+01 0.  0.
<mgrwt>
<rscale>  0 0.12499834E+03</rscale>
<asrwt>0</asrwt>
<pdfrwt beam="2">  1        4 0.18722925E-01 0.12499834E+03</pdfrwt>
<pdfrwt beam="1">  1       -4 0.49379659E-02 0.12499834E+03</pdfrwt>
<totfact> 0.98556058E+03</totfact>
</mgrwt>
</event>
<event>
 5    1  0.3271306E-002  0.1249983E+03  0.7818608E-02  0.1235072E+00
         -4   -1    0    0    0  501 -0.00000000000E+00  0.00000000000E+00  0.15667390391E+02  0.15718779267E+02  0.12700000000E+01 0.  1.
          4   -1    0    0  501    0  0.00000000000E+00 -0.00000000000E+00 -0.24885551926E+03  0.24885875987E+03  0.12700000000E+01 0.  1.
         25    2    1    2    0    0  0.00000000000E+00  0.00000000000E+00 -0.23318812887E+03  0.26457753914E+03  0.12499828308E+03 0.  0.
    9000005    1    3    3    0    0 -0.51674172152E+02  0.33692191731E+02 -0.95453108325E+02  0.11365597098E+03  0.10000000000E+01 0.  0.
    9000005    1    3    3    0    0  0.51674172152E+02 -0.33692191731E+02 -0.13773502055E+03  0.15092156816E+03  0.10000000000E+01 0.  0.
<mgrwt>
<rscale>  0 0.12499828E+03</rscale>
<asrwt>0</asrwt>
<pdfrwt beam="2">  1        4 0.38289664E-01 0.12499828E+03</pdfrwt>
<pdfrwt beam="1">  1       -4 0.24145702E-02 0.12499828E+03</pdfrwt>
<totfact> 0.80270997E+03</totfact>
</mgrwt>
</event>
<event>
 5    1  0.3271306E-002  0.1249985E+03  0.7818608E-02  0.1235072E+00
          4   -1    0    0  501    0  0.00000000000E+00  0.00000000000E+00  0.14103394231E+02  0.14160460051E+02  0.12700000000E+01 0.  1.
         -4   -1    0    0    0  501 -0.00000000000E+00 -0.00000000000E+00 -0.27634798368E+03  0.27635090190E+03  0.12700000000E+01 0.  1.
         25    2    1    2    0    0  0.00000000000E+00  0.00000000000E+00 -0.26224458944E+03  0.29051136195E+03  0.12499850691E+03 0.  0.
    9000005    1    3    3    0    0  0.56098837499E+02 -0.29221215136E+01 -0.67493277220E+02  0.87817770597E+02  0.10000000000E+01 0.  0.
    9000005    1    3    3    0    0 -0.56098837499E+02  0.29221215136E+01 -0.19475131222E+03  0.20269359135E+03  0.10000000000E+01 0.  0.
<mgrwt>
<rscale>  0 0.12499851E+03</rscale>
<asrwt>0</asrwt>
<pdfrwt beam="1">  1        4 0.21743673E-02 0.12499851E+03</pdfrwt>
<pdfrwt beam="2">  1       -4 0.42519685E-01 0.12499851E+03</pdfrwt>
<totfact> 0.76807252E+03</totfact>
</mgrwt>
</event>
<event>
 5    1  0.3271306E-002  0.1250013E+03  0.7818608E-02  0.1235067E+00
         -4   -1    0    0    0  501 -0.00000000000E+00  0.00000000000E+00  0.21028972918E+03  0.21029356409E+03  0.12700000000E+01 0. -1.
          4   -1    0    0  501    0  0.00000000000E+00 -0.00000000000E+00 -0.18550244095E+02  0.18593667093E+02  0.12700000000E+01 0. -1.
         25    2    1    2    0    0  0.00000000000E+00  0.00000000000E+00  0.19173948508E+03  0.22888723118E+03  0.12500133783E+03 0.  0.
    9000005    1    3    3    0    0  0.55126141806E+02 -0.29293448341E+02  0.10115645220E+03  0.11887230732E+03  0.10000000000E+01 0.  0.
    9000005    1    3    3    0    0 -0.55126141806E+02  0.29293448341E+02  0.90583032883E+02  0.11001492386E+03  0.10000000000E+01 0.  0.
<mgrwt>
<rscale>  0 0.12500134E+03</rscale>
<asrwt>0</asrwt>
<pdfrwt beam="2">  1        4 0.28575190E-02 0.12500134E+03</pdfrwt>
<pdfrwt beam="1">  1       -4 0.32355901E-01 0.12500134E+03</pdfrwt>
<totfact> 0.85478205E+03</totfact>
</mgrwt>
</event>
<event>
 5    1  0.3271306E-002  0.1249988E+03  0.7818608E-02  0.1235071E+00
          4   -1    0    0  501    0  0.00000000000E+00  0.00000000000E+00  0.12511170337E+03  0.12511814904E+03  0.12700000000E+01 0. -1.
         -4   -1    0    0    0  501 -0.00000000000E+00 -0.00000000000E+00 -0.31201325386E+02  0.31227161348E+02  0.12700000000E+01 0. -1.
         25    2    1    2    0    0  0.00000000000E+00  0.00000000000E+00  0.93910377981E+02  0.15634531039E+03  0.12499878795E+03 0.  0.
    9000005    1    3    3    0    0  0.50907842965E+02 -0.23585776207E+02  0.12535541272E+02  0.57498148749E+02  0.10000000000E+01 0.  0.
    9000005    1    3    3    0    0 -0.50907842965E+02  0.23585776207E+02  0.81374836709E+02  0.98847161639E+02  0.10000000000E+01 0.  0.
<mgrwt>
<rscale>  0 0.12499879E+03</rscale>
<asrwt>0</asrwt>
<pdfrwt beam="1">  1        4 0.19250437E-01 0.12499879E+03</pdfrwt>
<pdfrwt beam="2">  1       -4 0.48026871E-02 0.12499879E+03</pdfrwt>
<totfact> 0.98054716E+03</totfact>
</mgrwt>
</event>
<event>
 5    1  0.3271306E-002  0.1249996E+03  0.7818608E-02  0.1235070E+00
         -4   -1    0    0    0  501 -0.00000000000E+00  0.00000000000E+00  0.20789396475E+02  0.20828151761E+02  0.12700000000E+01 0.  1.
          4   -1    0    0  501    0  0.00000000000E+00 -0.00000000000E+00 -0.18767921369E+03  0.18768351060E+03  0.12700000000E+01 0.  1.
         25    2    1    2    0    0  0.00000000000E+00  0.00000000000E+00 -0.16688981721E+03  0.20851166236E+03  0.12499960900E+03 0.  0.
    9000005    1    3    3    0    0  0.23786102090E+01  0.15476500002E+02  0.17472235474E+02  0.23483161016E+02  0.10000000000E+01 0.  0.
    9000005    1    3    3    0    0 -0.23786102090E+01 -0.15476500002E+02 -0.18436205268E+03  0.18502850134E+03  0.10000000000E+01 0.  0.
<mgrwt>
<rscale>  0 0.12499961E+03</rscale>
<asrwt>0</asrwt>
<pdfrwt beam="2">  1        4 0.28877036E-01 0.12499961E+03</pdfrwt>
<pdfrwt beam="1">  1       -4 0.32016805E-02 0.12499961E+03</pdfrwt>
<totfact> 0.88720300E+03</totfact>
</mgrwt>
</event>
<event>
 5    1  0.3271306E-002  0.1249926E+03  0.7818608E-02  0.1235081E+00
          4   -1    0    0  501    0  0.00000000000E+00  0.00000000000E+00  0.80042989947E+01  0.81044248653E+01  0.12700000000E+01 0.  1.
         -4   -1    0    0    0  501 -0.00000000000E+00 -0.00000000000E+00 -0.48482722688E+03  0.48482889025E+03  0.12700000000E+01 0.  1.
         25    2    1    2    0    0  0.00000000000E+00  0.00000000000E+00 -0.47682292788E+03  0.49293331511E+03  0.12499259417E+03 0.  0.
    9000005    1    3    3    0    0  0.20123855030E+02 -0.32566211960E+02 -0.43636610087E+02  0.58057570072E+02  0.10000000000E+01 0.  0.
    9000005    1    3    3    0    0 -0.20123855030E+02  0.32566211960E+02 -0.43318631779E+03  0.43487574504E+03  0.10000000000E+01 0.  0.
<mgrwt>
<rscale>  0 0.12499259E+03</rscale>
<asrwt>0</asrwt>
<pdfrwt beam="1">  1        4 0.12392609E-02 0.12499259E+03</pdfrwt>
<pdfrwt beam="2">  1       -4 0.74596611E-01 0.12499259E+03</pdfrwt>
<totfact> 0.56426053E+03</totfact>
</mgrwt>
</event>
<event>
 5    1  0.3271306E-002  0.1250031E+03  0.7818608E-02  0.1235065E+00
          4   -1    0    0  501    0  0.00000000000E+00  0.00000000000E+00  0.29255691355E+03  0.29255967010E+03  0.12700000000E+01 0. -1.
         -4   -1    0    0    0  501 -0.00000000000E+00 -0.00000000000E+00 -0.13319731188E+02  0.13380139720E+02  0.12700000000E+01 0. -1.
         25    2    1    2    0    0  0.00000000000E+00  0.00000000000E+00  0.27923718236E+03  0.30593980982E+03  0.12500305283E+03 0.  0.
    9000005    1    3    3    0    0 -0.34343950092E+02 -0.60504044908E+00  0.11844185509E+02  0.36347733247E+02  0.10000000000E+01 0.  0.
    9000005    1    3    3    0    0  0.34343950092E+02  0.60504044908E+00  0.26739299686E+03  0.26959207657E+03  0.10000000000E+01 0.  0.
<mgrwt>
<rscale>  0 0.12500305E+03</rscale>
<asrwt>0</asrwt>
<pdfrwt beam="1">  1        4 0.45013615E-01 0.12500305E+03</pdfrwt>
<pdfrwt beam="2">  1       -4 0.20540483E-02 0.12500305E+03</pdfrwt>
<totfact> 0.74854677E+03</totfact>
</mgrwt>
</event>
<event>
 5    1  0.3271306E-002  0.1249956E+03  0.7818608E-02  0.1235076E+00
          4   -1    0    0  501    0  0.00000000000E+00  0.00000000000E+00  0.14008884704E+02  0.14066333945E+02  0.12700000000E+01 0.  1.
         -4   -1    0    0    0  501 -0.00000000000E+00 -0.00000000000E+00 -0.27819203183E+03  0.27819493072E+03  0.12700000000E+01 0.  1.
         25    2    1    2    0    0  0.00000000000E+00  0.00000000000E+00 -0.26418314713E+03  0.29226126466E+03  0.12499564630E+03 0.  0.
    9000005    1    3    3    0    0  0.57659250214E+02 -0.58872798760E+01 -0.18671321781E+03  0.19550466722E+03  0.10000000000E+01 0.  0.
    9000005    1    3    3    0    0 -0.57659250214E+02  0.58872798760E+01 -0.77469929321E+02  0.96756597442E+02  0.10000000000E+01 0.  0.
<mgrwt>
<rscale>  0 0.12499565E+03</rscale>
<asrwt>0</asrwt>
<pdfrwt beam="1">  1        4 0.21598554E-02 0.12499565E+03</pdfrwt>
<pdfrwt beam="2">  1       -4 0.42803413E-01 0.12499565E+03</pdfrwt>
<totfact> 0.76587347E+03</totfact>
</mgrwt>
</event>
<event>
 5    1  0.3271306E-002  0.1249842E+03  0.7818608E-02  0.1235094E+00
         -4   -1    0    0    0  501 -0.00000000000E+00  0.00000000000E+00  0.23033706685E+02  0.23068691850E+02  0.12700000000E+01 0.  1.
          4   -1    0    0  501    0  0.00000000000E+00 -0.00000000000E+00 -0.16937955644E+03  0.16938431757E+03  0.12700000000E+01 0.  1.
         25    2    1    2    0    0  0.00000000000E+00  0.00000000000E+00 -0.14634584976E+03  0.19245300942E+03  0.12498421138E+03 0.  0.
    9000005    1    3    3    0    0  0.55372283234E+02  0.94918540696E+01 -0.11528853149E+03  0.12825221455E+03  0.10000000000E+01 0.  0.
    9000005    1    3    3    0    0 -0.55372283234E+02 -0.94918540696E+01 -0.31057318262E+02  0.64200794869E+02  0.10000000000E+01 0.  0.
<mgrwt>
<rscale>  0 0.12498421E+03</rscale>
<asrwt>0</asrwt>
<pdfrwt beam="2">  1        4 0.26061450E-01 0.12498421E+03</pdfrwt>
<pdfrwt beam="1">  1       -4 0.35467047E-02 0.12498421E+03</pdfrwt>
<totfact> 0.91454575E+03</totfact>
</mgrwt>
</event>
<event>
 5    1  0.3271306E-002  0.1249929E+03  0.7818608E-02  0.1235080E+00
          4   -1    0    0  501    0  0.00000000000E+00  0.00000000000E+00  0.40895271004E+01  0.42821877475E+01  0.12700000000E+01 0. -1.
         -4   -1    0    0    0  501 -0.00000000000E+00 -0.00000000000E+00 -0.93290295570E+03  0.93290382015E+03  0.12700000000E+01 0. -1.
         25    2    1    2    0    0  0.00000000000E+00  0.00000000000E+00 -0.92881342860E+03  0.93718600790E+03  0.12499291282E+03 0.  0.
    9000005    1    3    3    0    0 -0.81770166981E+01 -0.10938962671E+02 -0.72010505012E+01  0.15471898226E+02  0.10000000000E+01 0.  0.
    9000005    1    3    3    0    0  0.81770166981E+01  0.10938962671E+02 -0.92161237810E+03  0.92171410967E+03  0.10000000000E+01 0.  0.
<mgrwt>
<rscale>  0 0.12499291E+03</rscale>
<asrwt>0</asrwt>
<pdfrwt beam="1">  1        4 0.64404530E-03 0.12499291E+03</pdfrwt>
<pdfrwt beam="2">  1       -4 0.14353825E+00 0.12499291E+03</pdfrwt>
<totfact> 0.32780441E+03</totfact>
</mgrwt>
</event>
<event>
 5    1  0.3271306E-002  0.1249988E+03  0.7818608E-02  0.1235071E+00
         -4   -1    0    0    0  501 -0.00000000000E+00  0.00000000000E+00  0.71794115181E+01  0.72908744157E+01  0.12700000000E+01 0.  1.
          4   -1    0    0  501    0  0.00000000000E+00 -0.00000000000E+00 -0.53977682911E+03  0.53977832315E+03  0.12700000000E+01 0.  1.
         25    2    1    2    0    0  0.00000000000E+00  0.00000000000E+00 -0.53259741759E+03  0.54706919757E+03  0.12499879080E+03 0.  0.
    9000005    1    3    3    0    0 -0.21921698352E+02  0.83511420221E+00 -0.52239188780E+03  0.52285327073E+03  0.10000000000E+01 0.  0.
    9000005    1    3    3    0    0  0.21921698352E+02 -0.83511420221E+00 -0.10205529797E+02  0.24215926841E+02  0.10000000000E+01 0.  0.
<mgrwt>
<rscale>  0 0.12499879E+03</rscale>
<asrwt>0</asrwt>
<pdfrwt beam="2">  1        4 0.83051247E-01 0.12499879E+03</pdfrwt>
<pdfrwt beam="1">  1       -4 0.11132143E-02 0.12499879E+03</pdfrwt>
<totfact> 0.52390224E+03</totfact>
</mgrwt>
</event>
<event>
 5    1  0.3271306E-002  0.1249942E+03  0.7818608E-02  0.1235078E+00
         -4   -1    0    0    0  501 -0.00000000000E+00  0.00000000000E+00  0.79534607611E+03  0.79534709007E+03  0.12700000000E+01 0.  1.
          4   -1    0    0  501    0  0.00000000000E+00 -0.00000000000E+00 -0.48277879796E+01  0.49920373372E+01  0.12700000000E+01 0.  1.
         25    2    1    2    0    0  0.00000000000E+00  0.00000000000E+00  0.79051828813E+03  0.80033912740E+03  0.12499421983E+03 0.  0.
    9000005    1    3    3    0    0 -0.51004362374E+02  0.34472586346E+02  0.46394900621E+03  0.46801654304E+03  0.10000000000E+01 0.  0.
    9000005    1    3    3    0    0  0.51004362374E+02 -0.34472586346E+02  0.32656928191E+03  0.33232258437E+03  0.10000000000E+01 0.  0.
<mgrwt>
<rscale>  0 0.12499422E+03</rscale>
<asrwt>0</asrwt>
<pdfrwt beam="2">  1        4 0.75544857E-03 0.12499422E+03</pdfrwt>
<pdfrwt beam="1">  1       -4 0.12237375E+00 0.12499422E+03</pdfrwt>
<totfact> 0.38254390E+03</totfact>
</mgrwt>
</event>
<event>
 5    1  0.3271306E-002  0.1250183E+03  0.7818608E-02  0.1235041E+00
          4   -1    0    0  501    0  0.00000000000E+00  0.00000000000E+00  0.41515184605E+01  0.43414289730E+01  0.12700000000E+01 0. -1.
         -4   -1    0    0    0  501 -0.00000000000E+00 -0.00000000000E+00 -0.91995963948E+03  0.91996051610E+03  0.12700000000E+01 0. -1.
         25    2    1    2    0    0  0.00000000000E+00  0.00000000000E+00 -0.91580812102E+03  0.92430194507E+03  0.12501828318E+03 0.  0.
    9000005    1    3    3    0    0  0.25777861673E+02  0.55321513994E+02 -0.35832028987E+03  0.36348232171E+03  0.10000000000E+01 0.  0.
    9000005    1    3    3    0    0 -0.25777861673E+02 -0.55321513994E+02 -0.55748783115E+03  0.56081962336E+03  0.10000000000E+01 0.  0.
<mgrwt>
<rscale>  0 0.12501828E+03</rscale>
<asrwt>0</asrwt>
<pdfrwt beam="1">  1        4 0.65337181E-03 0.12501828E+03</pdfrwt>
<pdfrwt beam="2">  1       -4 0.14154677E+00 0.12501828E+03</pdfrwt>
<totfact> 0.33233048E+03</totfact>
</mgrwt>
</event>
<event>
 5    1  0.3271306E-002  0.1249978E+03  0.7818608E-02  0.1235073E+00
          4   -1    0    0  501    0  0.00000000000E+00  0.00000000000E+00  0.33416775882E+02  0.33440900262E+02  0.12700000000E+01 0.  1.
         -4   -1    0    0    0  501 -0.00000000000E+00 -0.00000000000E+00 -0.11682092347E+03  0.11682782657E+03  0.12700000000E+01 0.  1.
         25    2    1    2    0    0  0.00000000000E+00  0.00000000000E+00 -0.83404147588E+02  0.15026872683E+03  0.12499775369E+03 0.  0.
    9000005    1    3    3    0    0 -0.11860306863E+02 -0.54837950249E+01 -0.11516616542E+03  0.11590938074E+03  0.10000000000E+01 0.  0.
    9000005    1    3    3    0    0  0.11860306863E+02  0.54837950249E+01  0.31762017831E+02  0.34359346086E+02  0.10000000000E+01 0.  0.
<mgrwt>
<rscale>  0 0.12499775E+03</rscale>
<asrwt>0</asrwt>
<pdfrwt beam="1">  1        4 0.51434292E-02 0.12499775E+03</pdfrwt>
<pdfrwt beam="2">  1       -4 0.17974836E-01 0.12499775E+03</pdfrwt>
<totfact> 0.99255176E+03</totfact>
</mgrwt>
</event>
<event>
 5    1  0.3271306E-002  0.1249969E+03  0.7818608E-02  0.1235074E+00
         -4   -1    0    0    0  501 -0.00000000000E+00  0.00000000000E+00  0.49235768325E+02  0.49252144954E+02  0.12700000000E+01 0. -1.
          4   -1    0    0  501    0  0.00000000000E+00 -0.00000000000E+00 -0.79299029566E+02  0.79309198648E+02  0.12700000000E+01 0. -1.
         25    2    1    2    0    0  0.00000000000E+00  0.00000000000E+00 -0.30063261242E+02  0.12856134360E+03  0.12499687753E+03 0.  0.
    9000005    1    3    3    0    0 -0.34227046062E+02 -0.22128102693E+02 -0.63752392949E+02  0.75673715501E+02  0.10000000000E+01 0.  0.
    9000005    1    3    3    0    0  0.34227046062E+02  0.22128102693E+02  0.33689131708E+02  0.52887628101E+02  0.10000000000E+01 0.  0.
<mgrwt>
<rscale>  0 0.12499688E+03</rscale>
<asrwt>0</asrwt>
<pdfrwt beam="2">  1        4 0.12201893E-01 0.12499688E+03</pdfrwt>
<pdfrwt beam="1">  1       -4 0.75767756E-02 0.12499688E+03</pdfrwt>
<totfact> 0.10376114E+04</totfact>
</mgrwt>
</event>
<event>
 5    1  0.3271306E-002  0.1249486E+03  0.7818608E-02  0.1235150E+00
          4   -1    0    0  501    0  0.00000000000E+00  0.00000000000E+00  0.20576936332E+03  0.20577328247E+03  0.12700000000E+01 0. -1.
         -4   -1    0    0    0  501 -0.00000000000E+00 -0.00000000000E+00 -0.18942673938E+02  0.18985199391E+02  0.12700000000E+01 0. -1.
         25    2    1    2    0    0  0.00000000000E+00  0.00000000000E+00  0.18682668938E+03  0.22475848186E+03  0.12494864267E+03 0.  0.
    9000005    1    3    3    0    0  0.27553708040E+02  0.54161281040E+02  0.11944262365E+03  0.13401563915E+03  0.10000000000E+01 0.  0.
    9000005    1    3    3    0    0 -0.27553708040E+02 -0.54161281040E+02  0.67384065728E+02  0.90742842719E+02  0.10000000000E+01 0.  0.
<mgrwt>
<rscale>  0 0.12494864E+03</rscale>
<asrwt>0</asrwt>
<pdfrwt beam="1">  1        4 0.31660400E-01 0.12494864E+03</pdfrwt>
<pdfrwt beam="2">  1       -4 0.29178300E-02 0.12494864E+03</pdfrwt>
<totfact> 0.86219762E+03</totfact>
</mgrwt>
</event>
<event>
 5    1  0.3271306E-002  0.1250019E+03  0.7818608E-02  0.1235066E+00
         -4   -1    0    0    0  501 -0.00000000000E+00  0.00000000000E+00  0.95092648431E+02  0.95101128729E+02  0.12700000000E+01 0.  1.
          4   -1    0    0  501    0  0.00000000000E+00 -0.00000000000E+00 -0.41059495046E+02  0.41079131361E+02  0.12700000000E+01 0.  1.
         25    2    1    2    0    0  0.00000000000E+00  0.00000000000E+00  0.54033153385E+02  0.13618026009E+03  0.12500192628E+03 0.  0.
    9000005    1    3    3    0    0  0.14942898320E+02  0.10092362271E+02 -0.38169160026E+02  0.42225948935E+02  0.10000000000E+01 0.  0.
    9000005    1    3    3    0    0 -0.14942898320E+02 -0.10092362271E+02  0.92202313411E+02  0.93954311156E+02  0.10000000000E+01 0.  0.
<mgrwt>
<rscale>  0 0.12500193E+03</rscale>
<asrwt>0</asrwt>
<pdfrwt beam="2">  1        4 0.63190082E-02 0.12500193E+03</pdfrwt>
<pdfrwt beam="1">  1       -4 0.14631801E-01 0.12500193E+03</pdfrwt>
<totfact> 0.10212810E+04</totfact>
</mgrwt>
</event>
<event>
 5    1  0.3271306E-002  0.1250002E+03  0.7818608E-02  0.1235069E+00
         -4   -1    0    0    0  501 -0.00000000000E+00  0.00000000000E+00  0.10071507712E+04  0.10071515719E+04  0.12700000000E+01 0.  1.
          4   -1    0    0  501    0  0.00000000000E+00 -0.00000000000E+00 -0.37737422896E+01  0.39817120524E+01  0.12700000000E+01 0.  1.
         25    2    1    2    0    0  0.00000000000E+00  0.00000000000E+00  0.10033770289E+04  0.10111332839E+04  0.12500022328E+03 0.  0.
    9000005    1    3    3    0    0 -0.37803887233E+02  0.33335473802E+02  0.80053231870E+03  0.80211805926E+03  0.10000000000E+01 0.  0.
    9000005    1    3    3    0    0  0.37803887233E+02 -0.33335473802E+02  0.20284471017E+03  0.20901522468E+03  0.10000000000E+01 0.  0.
<mgrwt>
<rscale>  0 0.12500022E+03</rscale>
<asrwt>0</asrwt>
<pdfrwt beam="2">  1        4 0.59663479E-03 0.12500022E+03</pdfrwt>
<pdfrwt beam="1">  1       -4 0.15496239E+00 0.12500022E+03</pdfrwt>
<totfact> 0.30239516E+03</totfact>
</mgrwt>
</event>
<event>
 5    1  0.3271306E-002  0.1249947E+03  0.7818608E-02  0.1235077E+00
         -4   -1    0    0    0  501 -0.00000000000E+00  0.00000000000E+00  0.18043154883E+02  0.18087795282E+02  0.12700000000E+01 0.  1.
          4   -1    0    0  501    0  0.00000000000E+00 -0.00000000000E+00 -0.21616268932E+03  0.21616642005E+03  0.12700000000E+01 0.  1.
         25    2    1    2    0    0  0.00000000000E+00  0.00000000000E+00 -0.19811953444E+03  0.23425421533E+03  0.12499474978E+03 0.  0.
    9000005    1    3    3    0    0  0.11968013556E+02 -0.26239506895E+02 -0.20295351571E+03  0.20499481606E+03  0.10000000000E+01 0.  0.
    9000005    1    3    3    0    0 -0.11968013556E+02  0.26239506895E+02  0.48339812739E+01  0.29259399268E+02  0.10000000000E+01 0.  0.
<mgrwt>
<rscale>  0 0.12499475E+03</rscale>
<asrwt>0</asrwt>
<pdfrwt beam="2">  1        4 0.33259517E-01 0.12499475E+03</pdfrwt>
<pdfrwt beam="1">  1       -4 0.27795910E-02 0.12499475E+03</pdfrwt>
<totfact> 0.84670526E+03</totfact>
</mgrwt>
</event>
<event>
 5    1  0.3271306E-002  0.1249992E+03  0.7818608E-02  0.1235071E+00
         -4   -1    0    0    0  501 -0.00000000000E+00  0.00000000000E+00  0.59860307977E+02  0.59873778661E+02  0.12700000000E+01 0.  1.
          4   -1    0    0  501    0  0.00000000000E+00 -0.00000000000E+00 -0.65228284482E+02  0.65240646812E+02  0.12700000000E+01 0.  1.
         25    2    1    2    0    0  0.00000000000E+00  0.00000000000E+00 -0.53679765046E+01  0.12511442547E+03  0.12499921716E+03 0.  0.
    9000005    1    3    3    0    0  0.61573994445E+01  0.52744112780E+02  0.30290966794E+02  0.61142437556E+02  0.10000000000E+01 0.  0.
    9000005    1    3    3    0    0 -0.61573994445E+01 -0.52744112780E+02 -0.35658943299E+02  0.63971987917E+02  0.10000000000E+01 0.  0.
<mgrwt>
<rscale>  0 0.12499922E+03</rscale>
<asrwt>0</asrwt>
<pdfrwt beam="2">  1        4 0.10037108E-01 0.12499922E+03</pdfrwt>
<pdfrwt beam="1">  1       -4 0.92112654E-02 0.12499922E+03</pdfrwt>
<totfact> 0.10450563E+04</totfact>
</mgrwt>
</event>
<event>
 5    1  0.3271306E-002  0.1250002E+03  0.7818608E-02  0.1235069E+00
         -4   -1    0    0    0  501 -0.00000000000E+00  0.00000000000E+00  0.18565655027E+03  0.18566089399E+03  0.12700000000E+01 0. -1.
          4   -1    0    0  501    0  0.00000000000E+00 -0.00000000000E+00 -0.21016514589E+02  0.21054851827E+02  0.12700000000E+01 0. -1.
         25    2    1    2    0    0  0.00000000000E+00  0.00000000000E+00  0.16464003568E+03  0.20671574582E+03  0.12500023288E+03 0.  0.
    9000005    1    3    3    0    0  0.12271407801E+01  0.42593946807E+02  0.67263499519E+01  0.43150828066E+02  0.10000000000E+01 0.  0.
    9000005    1    3    3    0    0 -0.12271407801E+01 -0.42593946807E+02  0.15791368573E+03  0.16356491775E+03  0.10000000000E+01 0.  0.
<mgrwt>
<rscale>  0 0.12500023E+03</rscale>
<asrwt>0</asrwt>
<pdfrwt beam="2">  1        4 0.32365931E-02 0.12500023E+03</pdfrwt>
<pdfrwt beam="1">  1       -4 0.28565829E-01 0.12500023E+03</pdfrwt>
<totfact> 0.89014603E+03</totfact>
</mgrwt>
</event>
<event>
 5    1  0.3271306E-002  0.1249970E+03  0.7818608E-02  0.1235074E+00
         -4   -1    0    0    0  501 -0.00000000000E+00  0.00000000000E+00  0.18265612063E+03  0.18266053570E+03  0.12700000000E+01 0. -1.
          4   -1    0    0  501    0  0.00000000000E+00 -0.00000000000E+00 -0.21361240166E+02  0.21398959821E+02  0.12700000000E+01 0. -1.
         25    2    1    2    0    0  0.00000000000E+00  0.00000000000E+00  0.16129488046E+03  0.20405949552E+03  0.12499695696E+03 0.  0.
    9000005    1    3    3    0    0  0.11157206425E+02  0.14776758768E+02  0.17808311081E+03  0.17904588856E+03  0.10000000000E+01 0.  0.
    9000005    1    3    3    0    0 -0.11157206425E+02 -0.14776758768E+02 -0.16788230350E+02  0.25013606960E+02  0.10000000000E+01 0.  0.
<mgrwt>
<rscale>  0 0.12499696E+03</rscale>
<asrwt>0</asrwt>
<pdfrwt beam="2">  1        4 0.32895856E-02 0.12499696E+03</pdfrwt>
<pdfrwt beam="1">  1       -4 0.28104184E-01 0.12499696E+03</pdfrwt>
<totfact> 0.89461414E+03</totfact>
</mgrwt>
</event>
<event>
 5    1  0.3271306E-002  0.1249607E+03  0.7818608E-02  0.1235131E+00
          4   -1    0    0  501    0  0.00000000000E+00  0.00000000000E+00  0.64551586056E+02  0.64564077956E+02  0.12700000000E+01 0. -1.
         -4   -1    0    0    0  501 -0.00000000000E+00 -0.00000000000E+00 -0.60450577948E+02  0.60463917126E+02  0.12700000000E+01 0. -1.
         25    2    1    2    0    0  0.00000000000E+00  0.00000000000E+00  0.41010081075E+01  0.12502799508E+03  0.12496071898E+03 0.  0.
    9000005    1    3    3    0    0 -0.23891122734E+02 -0.32987731285E+02  0.49444974798E+02  0.64068570248E+02  0.10000000000E+01 0.  0.
    9000005    1    3    3    0    0  0.23891122734E+02  0.32987731285E+02 -0.45343966691E+02  0.60959424834E+02  0.10000000000E+01 0.  0.
<mgrwt>
<rscale>  0 0.12496072E+03</rscale>
<asrwt>0</asrwt>
<pdfrwt beam="1">  1        4 0.99330003E-02 0.12496072E+03</pdfrwt>
<pdfrwt beam="2">  1       -4 0.93020759E-02 0.12496072E+03</pdfrwt>
<totfact> 0.10461539E+04</totfact>
</mgrwt>
</event>
<event>
 5    1  0.3271306E-002  0.1249991E+03  0.7818608E-02  0.1235071E+00
         -4   -1    0    0    0  501 -0.00000000000E+00  0.00000000000E+00  0.23239800002E+03  0.23240147012E+03  0.12700000000E+01 0. -1.
          4   -1    0    0  501    0  0.00000000000E+00 -0.00000000000E+00 -0.16780616731E+02  0.16828606533E+02  0.12700000000E+01 0. -1.
         25    2    1    2    0    0  0.00000000000E+00  0.00000000000E+00  0.21561738329E+03  0.24923007665E+03  0.12499910052E+03 0.  0.
    9000005    1    3    3    0    0 -0.42435734693E+02  0.25769318424E+02  0.32138167500E+02  0.59149904152E+02  0.10000000000E+01 0.  0.
    9000005    1    3    3    0    0  0.42435734693E+02 -0.25769318424E+02  0.18347921579E+03  0.19008017250E+03  0.10000000000E+01 0.  0.
<mgrwt>
<rscale>  0 0.12499910E+03</rscale>
<asrwt>0</asrwt>
<pdfrwt beam="2">  1        4 0.25855920E-02 0.12499910E+03</pdfrwt>
<pdfrwt beam="1">  1       -4 0.35757494E-01 0.12499910E+03</pdfrwt>
<totfact> 0.82443287E+03</totfact>
</mgrwt>
</event>
<event>
 5    1  0.3271306E-002  0.1249958E+03  0.7818608E-02  0.1235076E+00
         -4   -1    0    0    0  501 -0.00000000000E+00  0.00000000000E+00  0.65002025029E+02  0.65014430382E+02  0.12700000000E+01 0. -1.
          4   -1    0    0  501    0  0.00000000000E+00 -0.00000000000E+00 -0.60065406068E+02  0.60078830765E+02  0.12700000000E+01 0. -1.
         25    2    1    2    0    0  0.00000000000E+00  0.00000000000E+00  0.49366189618E+01  0.12509326115E+03  0.12499581504E+03 0.  0.
    9000005    1    3    3    0    0 -0.26167822252E+02 -0.56739701876E+02  0.33854048227E+01  0.62582822373E+02  0.10000000000E+01 0.  0.
    9000005    1    3    3    0    0  0.26167822252E+02  0.56739701876E+02  0.15512141391E+01  0.62510438774E+02  0.10000000000E+01 0.  0.
<mgrwt>
<rscale>  0 0.12499582E+03</rscale>
<asrwt>0</asrwt>
<pdfrwt beam="2">  1        4 0.92428186E-02 0.12499582E+03</pdfrwt>
<pdfrwt beam="1">  1       -4 0.10002299E-01 0.12499582E+03</pdfrwt>
<totfact> 0.10451826E+04</totfact>
</mgrwt>
</event>
<event>
 5    1  0.3271306E-002  0.1249936E+03  0.7818608E-02  0.1235079E+00
          4   -1    0    0  501    0  0.00000000000E+00  0.00000000000E+00  0.89247384738E+01  0.90146467943E+01  0.12700000000E+01 0. -1.
         -4   -1    0    0    0  501 -0.00000000000E+00 -0.00000000000E+00 -0.43535859647E+03  0.43536044885E+03  0.12700000000E+01 0. -1.
         25    2    1    2    0    0  0.00000000000E+00  0.00000000000E+00 -0.42643385799E+03  0.44437509564E+03  0.12499356136E+03 0.  0.
    9000005    1    3    3    0    0 -0.47237147382E+02  0.11433690924E+02 -0.73576012029E+02  0.88184505027E+02  0.10000000000E+01 0.  0.
    9000005    1    3    3    0    0  0.47237147382E+02 -0.11433690924E+02 -0.35285784597E+03  0.35619059061E+03  0.10000000000E+01 0.  0.
<mgrwt>
<rscale>  0 0.12499356E+03</rscale>
<asrwt>0</asrwt>
<pdfrwt beam="1">  1        4 0.13800955E-02 0.12499356E+03</pdfrwt>
<pdfrwt beam="2">  1       -4 0.66985288E-01 0.12499356E+03</pdfrwt>
<totfact> 0.60462780E+03</totfact>
</mgrwt>
</event>
<event>
 5    1  0.3271306E-002  0.1250024E+03  0.7818608E-02  0.1235065E+00
          4   -1    0    0  501    0  0.00000000000E+00  0.00000000000E+00  0.16058542464E+02  0.16108683561E+02  0.12700000000E+01 0. -1.
         -4   -1    0    0    0  501 -0.00000000000E+00 -0.00000000000E+00 -0.24282903458E+03  0.24283235562E+03  0.12700000000E+01 0. -1.
         25    2    1    2    0    0  0.00000000000E+00  0.00000000000E+00 -0.22677049211E+03  0.25894103918E+03  0.12500242268E+03 0.  0.
    9000005    1    3    3    0    0 -0.40303403856E+02 -0.27356157727E+02 -0.19448282225E+03  0.20049262300E+03  0.10000000000E+01 0.  0.
    9000005    1    3    3    0    0  0.40303403856E+02  0.27356157727E+02 -0.32287669860E+02  0.58448416171E+02  0.10000000000E+01 0.  0.
<mgrwt>
<rscale>  0 0.12500242E+03</rscale>
<asrwt>0</asrwt>
<pdfrwt beam="1">  1        4 0.24746576E-02 0.12500242E+03</pdfrwt>
<pdfrwt beam="2">  1       -4 0.37362423E-01 0.12500242E+03</pdfrwt>
<totfact> 0.81050531E+03</totfact>
</mgrwt>
</event>
<event>
 5    1  0.3271306E-002  0.1250075E+03  0.7818608E-02  0.1235057E+00
          4   -1    0    0  501    0  0.00000000000E+00  0.00000000000E+00  0.10983333905E+03  0.10984068129E+03  0.12700000000E+01 0.  1.
         -4   -1    0    0    0  501 -0.00000000000E+00 -0.00000000000E+00 -0.35549670553E+02  0.35572348481E+02  0.12700000000E+01 0.  1.
         25    2    1    2    0    0  0.00000000000E+00  0.00000000000E+00  0.74283668493E+02  0.14541302977E+03  0.12500754306E+03 0.  0.
    9000005    1    3    3    0    0  0.73628512037E+00  0.61188652066E+02  0.22376173733E+02  0.65163535879E+02  0.10000000000E+01 0.  0.
    9000005    1    3    3    0    0 -0.73628512037E+00 -0.61188652066E+02  0.51907494760E+02  0.80249493890E+02  0.10000000000E+01 0.  0.
<mgrwt>
<rscale>  0 0.12500754E+03</rscale>
<asrwt>0</asrwt>
<pdfrwt beam="1">  1        4 0.16899746E-01 0.12500754E+03</pdfrwt>
<pdfrwt beam="2">  1       -4 0.54714894E-02 0.12500754E+03</pdfrwt>
<totfact> 0.10020901E+04</totfact>
</mgrwt>
</event>
<event>
 5    1  0.3271306E-002  0.1249927E+03  0.7818608E-02  0.1235081E+00
         -4   -1    0    0    0  501 -0.00000000000E+00  0.00000000000E+00  0.36834623229E+03  0.36834842166E+03  0.12700000000E+01 0.  1.
          4   -1    0    0  501    0  0.00000000000E+00 -0.00000000000E+00 -0.10563329229E+02  0.10639399626E+02  0.12700000000E+01 0.  1.
         25    2    1    2    0    0  0.00000000000E+00  0.00000000000E+00  0.35778290306E+03  0.37898782129E+03  0.12499265163E+03 0.  0.
    9000005    1    3    3    0    0  0.12523785255E+02 -0.44939352642E+02  0.52835626949E+02  0.70491092261E+02  0.10000000000E+01 0.  0.
    9000005    1    3    3    0    0 -0.12523785255E+02  0.44939352642E+02  0.30494727611E+03  0.30849672903E+03  0.10000000000E+01 0.  0.
<mgrwt>
<rscale>  0 0.12499265E+03</rscale>
<asrwt>0</asrwt>
<pdfrwt beam="2">  1        4 0.16311476E-02 0.12499265E+03</pdfrwt>
<pdfrwt beam="1">  1       -4 0.56674669E-01 0.12499265E+03</pdfrwt>
<totfact> 0.66659832E+03</totfact>
</mgrwt>
</event>
<event>
 5    1  0.3271306E-002  0.1250103E+03  0.7818608E-02  0.1235053E+00
          4   -1    0    0  501    0  0.00000000000E+00  0.00000000000E+00  0.13503030718E+02  0.13562622850E+02  0.12700000000E+01 0.  1.
         -4   -1    0    0    0  501 -0.00000000000E+00 -0.00000000000E+00 -0.28863674534E+03  0.28863953932E+03  0.12700000000E+01 0.  1.
         25    2    1    2    0    0  0.00000000000E+00  0.00000000000E+00 -0.27513371462E+03  0.30220216217E+03  0.12501034317E+03 0.  0.
    9000005    1    3    3    0    0 -0.30405113498E+02  0.10526180674E+02 -0.26708775818E+03  0.26902070920E+03  0.10000000000E+01 0.  0.
    9000005    1    3    3    0    0  0.30405113498E+02 -0.10526180674E+02 -0.80459564384E+01  0.33181452973E+02  0.10000000000E+01 0.  0.
<mgrwt>
<rscale>  0 0.12501034E+03</rscale>
<asrwt>0</asrwt>
<pdfrwt beam="1">  1        4 0.20821885E-02 0.12501034E+03</pdfrwt>
<pdfrwt beam="2">  1       -4 0.44410447E-01 0.12501034E+03</pdfrwt>
<totfact> 0.75306143E+03</totfact>
</mgrwt>
</event>
<event>
 4    1  0.3271306E-002  0.1248630E+03  0.7818608E-02  0.1235283E+00
          4   -1    0    0  501    0  0.00000000000E+00  0.00000000000E+00  0.12945842640E+02  0.13007987610E+02  0.12700000000E+01 0.  1.
         -4   -1    0    0    0  501 -0.00000000000E+00 -0.00000000000E+00 -0.30029257181E+03  0.30029525735E+03  0.12700000000E+01 0.  1.
    9000005    1    1    2    0    0  0.50908338816E+01 -0.17024266370E+02 -0.29382506964E+03  0.29436357415E+03  0.10000000000E+01 0.  0.
    9000005    1    1    2    0    0 -0.50908338816E+01  0.17024266370E+02  0.64783404720E+01  0.18939670808E+02  0.10000000000E+01 0.  0.
<mgrwt>
<rscale>  0 0.12486305E+03</rscale>
<asrwt>0</asrwt>
<pdfrwt beam="1">  1        4 0.19966553E-02 0.12486305E+03</pdfrwt>
<pdfrwt beam="2">  1       -4 0.46203839E-01 0.12486305E+03</pdfrwt>
<totfact> 0.74184833E+03</totfact>
</mgrwt>
</event>
<event>
 5    1  0.3271306E-002  0.1250029E+03  0.7818608E-02  0.1235065E+00
          4   -1    0    0  501    0  0.00000000000E+00  0.00000000000E+00  0.19418009079E+02  0.19459495795E+02  0.12700000000E+01 0. -1.
         -4   -1    0    0    0  501 -0.00000000000E+00 -0.00000000000E+00 -0.20091755218E+03  0.20092156597E+03  0.12700000000E+01 0. -1.
         25    2    1    2    0    0  0.00000000000E+00  0.00000000000E+00 -0.18149954310E+03  0.22038106177E+03  0.12500291293E+03 0.  0.
    9000005    1    3    3    0    0 -0.30971424471E+01 -0.62368835050E+01 -0.20024006970E+03  0.20036361077E+03  0.10000000000E+01 0.  0.
    9000005    1    3    3    0    0  0.30971424471E+01  0.62368835050E+01  0.18740526601E+02  0.20017450999E+02  0.10000000000E+01 0.  0.
<mgrwt>
<rscale>  0 0.12500291E+03</rscale>
<asrwt>0</asrwt>
<pdfrwt beam="1">  1        4 0.29908862E-02 0.12500291E+03</pdfrwt>
<pdfrwt beam="2">  1       -4 0.30913891E-01 0.12500291E+03</pdfrwt>
<totfact> 0.86802440E+03</totfact>
</mgrwt>
</event>
<event>
 5    1  0.3271306E-002  0.1250022E+03  0.7818608E-02  0.1235066E+00
         -4   -1    0    0    0  501 -0.00000000000E+00  0.00000000000E+00  0.22484594559E+02  0.22520432777E+02  0.12700000000E+01 0.  1.
          4   -1    0    0  501    0  0.00000000000E+00 -0.00000000000E+00 -0.17355978899E+03  0.17356443545E+03  0.12700000000E+01 0.  1.
         25    2    1    2    0    0  0.00000000000E+00  0.00000000000E+00 -0.15107519443E+03  0.19608486823E+03  0.12500224469E+03 0.  0.
    9000005    1    3    3    0    0 -0.48995352747E+02  0.36609626959E+02 -0.55413518468E+02  0.82537672647E+02  0.10000000000E+01 0.  0.
    9000005    1    3    3    0    0  0.48995352747E+02 -0.36609626959E+02 -0.95661675963E+02  0.11354719558E+03  0.10000000000E+01 0.  0.
<mgrwt>
<rscale>  0 0.12500224E+03</rscale>
<asrwt>0</asrwt>
<pdfrwt beam="2">  1        4 0.26704619E-01 0.12500224E+03</pdfrwt>
<pdfrwt beam="1">  1       -4 0.34622827E-02 0.12500224E+03</pdfrwt>
<totfact> 0.90794652E+03</totfact>
</mgrwt>
</event>
<event>
 5    1  0.3271306E-002  0.1249999E+03  0.7818608E-02  0.1235070E+00
          4   -1    0    0  501    0  0.00000000000E+00  0.00000000000E+00  0.19494341503E+03  0.19494755183E+03  0.12700000000E+01 0. -1.
         -4   -1    0    0    0  501 -0.00000000000E+00 -0.00000000000E+00 -0.20013340958E+02  0.20053596094E+02  0.12700000000E+01 0. -1.
         25    2    1    2    0    0  0.00000000000E+00  0.00000000000E+00  0.17493007407E+03  0.21500114792E+03  0.12499985117E+03 0.  0.
    9000005    1    3    3    0    0  0.52111256502E+02 -0.34153747016E+02  0.95745995107E+02  0.11423815942E+03  0.10000000000E+01 0.  0.
    9000005    1    3    3    0    0 -0.52111256502E+02  0.34153747016E+02  0.79184078963E+02  0.10076298850E+03  0.10000000000E+01 0.  0.
<mgrwt>
<rscale>  0 0.12499985E+03</rscale>
<asrwt>0</asrwt>
<pdfrwt beam="1">  1        4 0.29994709E-01 0.12499985E+03</pdfrwt>
<pdfrwt beam="2">  1       -4 0.30823904E-02 0.12499985E+03</pdfrwt>
<totfact> 0.87665877E+03</totfact>
</mgrwt>
</event>
<event>
 5    1  0.3271306E-002  0.1250185E+03  0.7818608E-02  0.1235040E+00
         -4   -1    0    0    0  501 -0.00000000000E+00  0.00000000000E+00  0.18325037561E+03  0.18325477637E+03  0.12700000000E+01 0. -1.
          4   -1    0    0  501    0  0.00000000000E+00 -0.00000000000E+00 -0.21299211830E+02  0.21337041139E+02  0.12700000000E+01 0. -1.
         25    2    1    2    0    0  0.00000000000E+00  0.00000000000E+00  0.16195116378E+03  0.20459181751E+03  0.12501852799E+03 0.  0.
    9000005    1    3    3    0    0 -0.19226592371E+02 -0.59465702454E+02  0.79733073165E+02  0.10131236143E+03  0.10000000000E+01 0.  0.
    9000005    1    3    3    0    0  0.19226592371E+02  0.59465702454E+02  0.82218090616E+02  0.10327945607E+03  0.10000000000E+01 0.  0.
<mgrwt>
<rscale>  0 0.12501853E+03</rscale>
<asrwt>0</asrwt>
<pdfrwt beam="2">  1        4 0.32800503E-02 0.12501853E+03</pdfrwt>
<pdfrwt beam="1">  1       -4 0.28195613E-01 0.12501853E+03</pdfrwt>
<totfact> 0.89329769E+03</totfact>
</mgrwt>
</event>
<event>
 5    1  0.3271306E-002  0.1250012E+03  0.7818608E-02  0.1235067E+00
          4   -1    0    0  501    0  0.00000000000E+00  0.00000000000E+00  0.15622277534E+02  0.15673814321E+02  0.12700000000E+01 0.  1.
         -4   -1    0    0    0  501 -0.00000000000E+00 -0.00000000000E+00 -0.24958355700E+03  0.24958678816E+03  0.12700000000E+01 0.  1.
         25    2    1    2    0    0  0.00000000000E+00  0.00000000000E+00 -0.23396127946E+03  0.26526060248E+03  0.12500122775E+03 0.  0.
    9000005    1    3    3    0    0  0.48201426884E+02  0.35705427521E+02 -0.15416654152E+03  0.16542846682E+03  0.10000000000E+01 0.  0.
    9000005    1    3    3    0    0 -0.48201426884E+02 -0.35705427521E+02 -0.79794737939E+02  0.99832135662E+02  0.10000000000E+01 0.  0.
<mgrwt>
<rscale>  0 0.12500123E+03</rscale>
<asrwt>0</asrwt>
<pdfrwt beam="1">  1        4 0.24076404E-02 0.12500123E+03</pdfrwt>
<pdfrwt beam="2">  1       -4 0.38401680E-01 0.12500123E+03</pdfrwt>
<totfact> 0.80171243E+03</totfact>
</mgrwt>
</event>
<event>
 5    1  0.3271306E-002  0.1249771E+03  0.7818608E-02  0.1235105E+00
          4   -1    0    0  501    0  0.00000000000E+00  0.00000000000E+00  0.15794285506E+03  0.15794796094E+03  0.12700000000E+01 0. -1.
         -4   -1    0    0    0  501 -0.00000000000E+00 -0.00000000000E+00 -0.24701183255E+02  0.24733809941E+02  0.12700000000E+01 0. -1.
         25    2    1    2    0    0  0.00000000000E+00  0.00000000000E+00  0.13324167180E+03  0.18268177088E+03  0.12497714313E+03 0.  0.
    9000005    1    3    3    0    0 -0.19082735016E+02  0.57717468508E+02  0.87720552374E+02  0.10673027806E+03  0.10000000000E+01 0.  0.
    9000005    1    3    3    0    0  0.19082735016E+02 -0.57717468508E+02  0.45521119428E+02  0.75951492814E+02  0.10000000000E+01 0.  0.
<mgrwt>
<rscale>  0 0.12497714E+03</rscale>
<asrwt>0</asrwt>
<pdfrwt beam="1">  1        4 0.24301803E-01 0.12497714E+03</pdfrwt>
<pdfrwt beam="2">  1       -4 0.38030846E-02 0.12497714E+03</pdfrwt>
<totfact> 0.93184227E+03</totfact>
</mgrwt>
</event>
<event>
 5    1  0.3271306E-002  0.1250053E+03  0.7818608E-02  0.1235061E+00
          4   -1    0    0  501    0  0.00000000000E+00  0.00000000000E+00  0.36709857318E+02  0.36731818963E+02  0.12700000000E+01 0.  1.
         -4   -1    0    0    0  501 -0.00000000000E+00 -0.00000000000E+00 -0.10636017966E+03  0.10636776164E+03  0.12700000000E+01 0.  1.
         25    2    1    2    0    0  0.00000000000E+00  0.00000000000E+00 -0.69650322338E+02  0.14309958060E+03  0.12500529016E+03 0.  0.
    9000005    1    3    3    0    0 -0.61759269166E+02 -0.90436194626E+01 -0.38369494761E+02  0.73274910502E+02  0.10000000000E+01 0.  0.
    9000005    1    3    3    0    0  0.61759269166E+02  0.90436194626E+01 -0.31280827577E+02  0.69824670102E+02  0.10000000000E+01 0.  0.
<mgrwt>
<rscale>  0 0.12500529E+03</rscale>
<asrwt>0</asrwt>
<pdfrwt beam="1">  1        4 0.56499430E-02 0.12500529E+03</pdfrwt>
<pdfrwt beam="2">  1       -4 0.16365377E-01 0.12500529E+03</pdfrwt>
<totfact> 0.10068545E+04</totfact>
</mgrwt>
</event>
<event>
 5    1  0.3271306E-002  0.1250031E+03  0.7818608E-02  0.1235064E+00
          4   -1    0    0  501    0  0.00000000000E+00  0.00000000000E+00  0.17841913502E+02  0.17887056141E+02  0.12700000000E+01 0.  1.
         -4   -1    0    0    0  501 -0.00000000000E+00 -0.00000000000E+00 -0.21862394888E+03  0.21862763761E+03  0.12700000000E+01 0.  1.
         25    2    1    2    0    0  0.00000000000E+00  0.00000000000E+00 -0.20078203538E+03  0.23651469375E+03  0.12500309847E+03 0.  0.
    9000005    1    3    3    0    0  0.36506929570E+02 -0.12725460186E+02 -0.19329053850E+03  0.19712160084E+03  0.10000000000E+01 0.  0.
    9000005    1    3    3    0    0 -0.36506929570E+02  0.12725460186E+02 -0.74914968850E+01  0.39393092912E+02  0.10000000000E+01 0.  0.
<mgrwt>
<rscale>  0 0.12500310E+03</rscale>
<asrwt>0</asrwt>
<pdfrwt beam="1">  1        4 0.27486662E-02 0.12500310E+03</pdfrwt>
<pdfrwt beam="2">  1       -4 0.33638208E-01 0.12500310E+03</pdfrwt>
<totfact> 0.84313370E+03</totfact>
</mgrwt>
</event>
<event>
 5    1  0.3271306E-002  0.1249956E+03  0.7818608E-02  0.1235076E+00
         -4   -1    0    0    0  501 -0.00000000000E+00  0.00000000000E+00  0.94219144544E+02  0.94227703456E+02  0.12700000000E+01 0. -1.
          4   -1    0    0  501    0  0.00000000000E+00 -0.00000000000E+00 -0.41436134308E+02  0.41455592221E+02  0.12700000000E+01 0. -1.
         25    2    1    2    0    0  0.00000000000E+00  0.00000000000E+00  0.52783010236E+02  0.13568329568E+03  0.12499564215E+03 0.  0.
    9000005    1    3    3    0    0 -0.27115241299E+02 -0.72556790987E+01 -0.34213240410E+02  0.44265415498E+02  0.10000000000E+01 0.  0.
    9000005    1    3    3    0    0  0.27115241299E+02  0.72556790987E+01  0.86996250646E+02  0.91417880179E+02  0.10000000000E+01 0.  0.
<mgrwt>
<rscale>  0 0.12499564E+03</rscale>
<asrwt>0</asrwt>
<pdfrwt beam="2">  1        4 0.63769451E-02 0.12499564E+03</pdfrwt>
<pdfrwt beam="1">  1       -4 0.14497408E-01 0.12499564E+03</pdfrwt>
<totfact> 0.10224694E+04</totfact>
</mgrwt>
</event>
<event>
 5    1  0.3271306E-002  0.1250000E+03  0.7818608E-02  0.1235069E+00
          4   -1    0    0  501    0  0.00000000000E+00  0.00000000000E+00  0.16442078343E+03  0.16442568815E+03  0.12700000000E+01 0. -1.
         -4   -1    0    0    0  501 -0.00000000000E+00 -0.00000000000E+00 -0.23735396596E+02  0.23769348993E+02  0.12700000000E+01 0. -1.
         25    2    1    2    0    0  0.00000000000E+00  0.00000000000E+00  0.14068538684E+03  0.18819503715E+03  0.12499997575E+03 0.  0.
    9000005    1    3    3    0    0 -0.35670816209E+02  0.50130803678E+02  0.53867713383E+02  0.81781630893E+02  0.10000000000E+01 0.  0.
    9000005    1    3    3    0    0  0.35670816209E+02 -0.50130803678E+02  0.86817673455E+02  0.10641340625E+03  0.10000000000E+01 0.  0.
<mgrwt>
<rscale>  0 0.12499998E+03</rscale>
<asrwt>0</asrwt>
<pdfrwt beam="1">  1        4 0.25298494E-01 0.12499998E+03</pdfrwt>
<pdfrwt beam="2">  1       -4 0.36545885E-02 0.12499998E+03</pdfrwt>
<totfact> 0.92162373E+03</totfact>
</mgrwt>
</event>
<event>
 5    1  0.3271306E-002  0.1249916E+03  0.7818608E-02  0.1235082E+00
          4   -1    0    0  501    0  0.00000000000E+00  0.00000000000E+00  0.11057162245E+02  0.11129857902E+02  0.12700000000E+01 0.  1.
         -4   -1    0    0    0  501 -0.00000000000E+00 -0.00000000000E+00 -0.35199901533E+03  0.35200130638E+03  0.12700000000E+01 0.  1.
         25    2    1    2    0    0  0.00000000000E+00  0.00000000000E+00 -0.34094185309E+03  0.36313116428E+03  0.12499158087E+03 0.  0.
    9000005    1    3    3    0    0  0.57519194939E+02 -0.19903553458E+01 -0.24117676636E+03  0.24795090629E+03  0.10000000000E+01 0.  0.
    9000005    1    3    3    0    0 -0.57519194939E+02  0.19903553458E+01 -0.99765086729E+02  0.11518025799E+03  0.10000000000E+01 0.  0.
<mgrwt>
<rscale>  0 0.12499158E+03</rscale>
<asrwt>0</asrwt>
<pdfrwt beam="1">  1        4 0.17068704E-02 0.12499158E+03</pdfrwt>
<pdfrwt beam="2">  1       -4 0.54159454E-01 0.12499158E+03</pdfrwt>
<totfact> 0.68316444E+03</totfact>
</mgrwt>
</event>
<event>
 5    1  0.3271306E-002  0.1249978E+03  0.7818608E-02  0.1235073E+00
          4   -1    0    0  501    0  0.00000000000E+00  0.00000000000E+00  0.11157106537E+02  0.11229155190E+02  0.12700000000E+01 0. -1.
         -4   -1    0    0    0  501 -0.00000000000E+00 -0.00000000000E+00 -0.34890102444E+03  0.34890333583E+03  0.12700000000E+01 0. -1.
         25    2    1    2    0    0  0.00000000000E+00  0.00000000000E+00 -0.33774391790E+03  0.36013249102E+03  0.12499782802E+03 0.  0.
    9000005    1    3    3    0    0 -0.96967784647E+01  0.26379184607E+02 -0.80650984572E+01  0.29256361808E+02  0.10000000000E+01 0.  0.
    9000005    1    3    3    0    0  0.96967784647E+01 -0.26379184607E+02 -0.32967881944E+03  0.33087612921E+03  0.10000000000E+01 0.  0.
<mgrwt>
<rscale>  0 0.12499783E+03</rscale>
<asrwt>0</asrwt>
<pdfrwt beam="1">  1        4 0.17221982E-02 0.12499783E+03</pdfrwt>
<pdfrwt beam="2">  1       -4 0.53682793E-01 0.12499783E+03</pdfrwt>
<totfact> 0.68627356E+03</totfact>
</mgrwt>
</event>
<event>
 5    1  0.3271306E-002  0.1249954E+03  0.7818608E-02  0.1235076E+00
          4   -1    0    0  501    0  0.00000000000E+00  0.00000000000E+00  0.13811569026E+03  0.13812152908E+03  0.12700000000E+01 0. -1.
         -4   -1    0    0    0  501 -0.00000000000E+00 -0.00000000000E+00 -0.28259688711E+02  0.28288211433E+02  0.12700000000E+01 0. -1.
         25    2    1    2    0    0  0.00000000000E+00  0.00000000000E+00  0.10985600155E+03  0.16640974051E+03  0.12499544256E+03 0.  0.
    9000005    1    3    3    0    0  0.42838931739E+02  0.36895853351E+02  0.19491523863E+02  0.59811349839E+02  0.10000000000E+01 0.  0.
    9000005    1    3    3    0    0 -0.42838931739E+02 -0.36895853351E+02  0.90364477684E+02  0.10659839067E+03  0.10000000000E+01 0.  0.
<mgrwt>
<rscale>  0 0.12499544E+03</rscale>
<asrwt>0</asrwt>
<pdfrwt beam="1">  1        4 0.21251211E-01 0.12499544E+03</pdfrwt>
<pdfrwt beam="2">  1       -4 0.43502877E-02 0.12499544E+03</pdfrwt>
<totfact> 0.96130914E+03</totfact>
</mgrwt>
</event>
<event>
 5    1  0.3271306E-002  0.1250012E+03  0.7818608E-02  0.1235067E+00
          4   -1    0    0  501    0  0.00000000000E+00  0.00000000000E+00  0.69369932769E+02  0.69381557149E+02  0.12700000000E+01 0. -1.
         -4   -1    0    0    0  501 -0.00000000000E+00 -0.00000000000E+00 -0.56287977021E+02  0.56302302413E+02  0.12700000000E+01 0. -1.
         25    2    1    2    0    0  0.00000000000E+00  0.00000000000E+00  0.13081955749E+02  0.12568385956E+03  0.12500117995E+03 0.  0.
    9000005    1    3    3    0    0 -0.21242695373E+02 -0.47596857248E+02 -0.28123545725E+02  0.59233831133E+02  0.10000000000E+01 0.  0.
    9000005    1    3    3    0    0  0.21242695373E+02  0.47596857248E+02  0.41205501474E+02  0.66450028429E+02  0.10000000000E+01 0.  0.
<mgrwt>
<rscale>  0 0.12500118E+03</rscale>
<asrwt>0</asrwt>
<pdfrwt beam="1">  1        4 0.10674293E-01 0.12500118E+03</pdfrwt>
<pdfrwt beam="2">  1       -4 0.86616849E-02 0.12500118E+03</pdfrwt>
<totfact> 0.10437622E+04</totfact>
</mgrwt>
</event>
<event>
 5    1  0.3271306E-002  0.1250050E+03  0.7818608E-02  0.1235062E+00
         -4   -1    0    0    0  501 -0.00000000000E+00  0.00000000000E+00  0.12693205315E+03  0.12693840639E+03  0.12700000000E+01 0.  1.
          4   -1    0    0  501    0  0.00000000000E+00 -0.00000000000E+00 -0.30756559129E+02  0.30782768386E+02  0.12700000000E+01 0.  1.
         25    2    1    2    0    0  0.00000000000E+00  0.00000000000E+00  0.96175494024E+02  0.15772117478E+03  0.12500497319E+03 0.  0.
    9000005    1    3    3    0    0 -0.15626159453E+02  0.60149942987E+02  0.39778741217E+02  0.73793907292E+02  0.10000000000E+01 0.  0.
    9000005    1    3    3    0    0  0.15626159453E+02 -0.60149942987E+02  0.56396752807E+02  0.83927267487E+02  0.10000000000E+01 0.  0.
<mgrwt>
<rscale>  0 0.12500497E+03</rscale>
<asrwt>0</asrwt>
<pdfrwt beam="2">  1        4 0.47342831E-02 0.12500497E+03</pdfrwt>
<pdfrwt beam="1">  1       -4 0.19530513E-01 0.12500497E+03</pdfrwt>
<totfact> 0.97772999E+03</totfact>
</mgrwt>
</event>
<event>
 4    1  0.3271306E-002  0.1249371E+03  0.7818608E-02  0.1235168E+00
         -4   -1    0    0    0  501 -0.00000000000E+00  0.00000000000E+00  0.65911028051E+02  0.65923262349E+02  0.12700000000E+01 0.  1.
          4   -1    0    0  501    0  0.00000000000E+00 -0.00000000000E+00 -0.59181299651E+02  0.59194924853E+02  0.12700000000E+01 0.  1.
    9000005    1    1    2    0    0 -0.23273881921E+02  0.34973890728E+02 -0.42924120402E+02  0.60069349294E+02  0.10000000000E+01 0.  0.
    9000005    1    1    2    0    0  0.23273881921E+02 -0.34973890728E+02  0.49653848803E+02  0.65048837908E+02  0.10000000000E+01 0.  0.
<mgrwt>
<rscale>  0 0.12493707E+03</rscale>
<asrwt>0</asrwt>
<pdfrwt beam="2">  1        4 0.91068046E-02 0.12493707E+03</pdfrwt>
<pdfrwt beam="1">  1       -4 0.10142147E-01 0.12493707E+03</pdfrwt>
<totfact> 0.10465173E+04</totfact>
</mgrwt>
</event>
<event>
 5    1  0.3271306E-002  0.1249967E+03  0.7818608E-02  0.1235074E+00
          4   -1    0    0  501    0  0.00000000000E+00  0.00000000000E+00  0.47596594425E+03  0.47596763859E+03  0.12700000000E+01 0. -1.
         -4   -1    0    0    0  501 -0.00000000000E+00 -0.00000000000E+00 -0.81557113142E+01  0.82540006688E+01  0.12700000000E+01 0. -1.
         25    2    1    2    0    0  0.00000000000E+00  0.00000000000E+00  0.46781023294E+03  0.48422163926E+03  0.12499672751E+03 0.  0.
    9000005    1    3    3    0    0  0.13939640497E+02 -0.55577666542E+02  0.13730223677E+03  0.14878203796E+03  0.10000000000E+01 0.  0.
    9000005    1    3    3    0    0 -0.13939640497E+02  0.55577666542E+02  0.33050799617E+03  0.33543960131E+03  0.10000000000E+01 0.  0.
<mgrwt>
<rscale>  0 0.12499673E+03</rscale>
<asrwt>0</asrwt>
<pdfrwt beam="1">  1        4 0.73233198E-01 0.12499673E+03</pdfrwt>
<pdfrwt beam="2">  1       -4 0.12624163E-02 0.12499673E+03</pdfrwt>
<totfact> 0.57113819E+03</totfact>
</mgrwt>
</event>
<event>
 5    1  0.3271306E-002  0.1249973E+03  0.7818608E-02  0.1235074E+00
          4   -1    0    0  501    0  0.00000000000E+00  0.00000000000E+00  0.47995341494E+02  0.48012141226E+02  0.12700000000E+01 0. -1.
         -4   -1    0    0    0  501 -0.00000000000E+00 -0.00000000000E+00 -0.81348534756E+02  0.81358447668E+02  0.12700000000E+01 0. -1.
         25    2    1    2    0    0  0.00000000000E+00  0.00000000000E+00 -0.33353193261E+02  0.12937058889E+03  0.12499725505E+03 0.  0.
    9000005    1    3    3    0    0  0.26170098258E+02 -0.50499924446E+02  0.10112629872E+02  0.57778730471E+02  0.10000000000E+01 0.  0.
    9000005    1    3    3    0    0 -0.26170098258E+02  0.50499924446E+02 -0.43465823133E+02  0.71591858423E+02  0.10000000000E+01 0.  0.
<mgrwt>
<rscale>  0 0.12499726E+03</rscale>
<asrwt>0</asrwt>
<pdfrwt beam="1">  1        4 0.73859535E-02 0.12499726E+03</pdfrwt>
<pdfrwt beam="2">  1       -4 0.12517214E-01 0.12499726E+03</pdfrwt>
<totfact> 0.10358632E+04</totfact>
</mgrwt>
</event>
<event>
 5    1  0.3271306E-002  0.1249983E+03  0.7818608E-02  0.1235072E+00
         -4   -1    0    0    0  501 -0.00000000000E+00  0.00000000000E+00  0.40504792015E+02  0.40524697114E+02  0.12700000000E+01 0. -1.
          4   -1    0    0  501    0  0.00000000000E+00 -0.00000000000E+00 -0.96388784366E+02  0.96397150640E+02  0.12700000000E+01 0. -1.
         25    2    1    2    0    0  0.00000000000E+00  0.00000000000E+00 -0.55883992351E+02  0.13692184775E+03  0.12499828715E+03 0.  0.
    9000005    1    3    3    0    0  0.32254579329E+01 -0.62187521920E+02 -0.22202792707E+02  0.66118495638E+02  0.10000000000E+01 0.  0.
    9000005    1    3    3    0    0 -0.32254579329E+01  0.62187521920E+02 -0.33681199644E+02  0.70803352117E+02  0.10000000000E+01 0.  0.
<mgrwt>
<rscale>  0 0.12499829E+03</rscale>
<asrwt>0</asrwt>
<pdfrwt beam="2">  1        4 0.14831218E-01 0.12499829E+03</pdfrwt>
<pdfrwt beam="1">  1       -4 0.62336812E-02 0.12499829E+03</pdfrwt>
<totfact> 0.10198114E+04</totfact>
</mgrwt>
</event>
<event>
 5    1  0.3271306E-002  0.1249990E+03  0.7818608E-02  0.1235071E+00
         -4   -1    0    0    0  501 -0.00000000000E+00  0.00000000000E+00  0.21002574888E+03  0.21002958861E+03  0.12700000000E+01 0.  1.
          4   -1    0    0  501    0  0.00000000000E+00 -0.00000000000E+00 -0.18572920450E+02  0.18616290556E+02  0.12700000000E+01 0.  1.
         25    2    1    2    0    0  0.00000000000E+00  0.00000000000E+00  0.19145282843E+03  0.22864587917E+03  0.12499901018E+03 0.  0.
    9000005    1    3    3    0    0 -0.14912155112E+02  0.59496648244E+02  0.11759753722E+03  0.13263636109E+03  0.10000000000E+01 0.  0.
    9000005    1    3    3    0    0  0.14912155112E+02 -0.59496648244E+02  0.73855291212E+02  0.96009518082E+02  0.10000000000E+01 0.  0.
<mgrwt>
<rscale>  0 0.12499901E+03</rscale>
<asrwt>0</asrwt>
<pdfrwt beam="2">  1        4 0.28610038E-02 0.12499901E+03</pdfrwt>
<pdfrwt beam="1">  1       -4 0.32315286E-01 0.12499901E+03</pdfrwt>
<totfact> 0.85519845E+03</totfact>
</mgrwt>
</event>
<event>
 5    1  0.3271306E-002  0.1250249E+03  0.7818608E-02  0.1235030E+00
         -4   -1    0    0    0  501 -0.00000000000E+00  0.00000000000E+00  0.20607299864E+01  0.24206420795E+01  0.12700000000E+01 0.  1.
          4   -1    0    0  501    0  0.00000000000E+00 -0.00000000000E+00 -0.17436615053E+04  0.17436619678E+04  0.12700000000E+01 0.  1.
         25    2    1    2    0    0  0.00000000000E+00  0.00000000000E+00 -0.17416007753E+04  0.17460826099E+04  0.12502487738E+03 0.  0.
    9000005    1    3    3    0    0 -0.21970251615E+02  0.69309157558E+01 -0.59326739434E+02  0.63650542504E+02  0.10000000000E+01 0.  0.
    9000005    1    3    3    0    0  0.21970251615E+02 -0.69309157558E+01 -0.16822740358E+04  0.16824320673E+04  0.10000000000E+01 0.  0.
<mgrwt>
<rscale>  0 0.12502488E+03</rscale>
<asrwt>0</asrwt>
<pdfrwt beam="2">  1        4 0.26828225E+00 0.12502488E+03</pdfrwt>
<pdfrwt beam="1">  1       -4 0.34475790E-03 0.12502488E+03</pdfrwt>
<totfact> 0.13545464E+03</totfact>
</mgrwt>
</event>
<event>
 5    1  0.3271306E-002  0.1250008E+03  0.7818608E-02  0.1235068E+00
          4   -1    0    0  501    0  0.00000000000E+00  0.00000000000E+00  0.21531745638E+02  0.21569167120E+02  0.12700000000E+01 0.  1.
         -4   -1    0    0    0  501 -0.00000000000E+00 -0.00000000000E+00 -0.18122323946E+03  0.18122768944E+03  0.12700000000E+01 0.  1.
         25    2    1    2    0    0  0.00000000000E+00  0.00000000000E+00 -0.15969149382E+03  0.20279685656E+03  0.12500076732E+03 0.  0.
    9000005    1    3    3    0    0  0.51400992681E+02  0.24185709502E+02 -0.12209853812E+03  0.13467020310E+03  0.10000000000E+01 0.  0.
    9000005    1    3    3    0    0 -0.51400992681E+02 -0.24185709502E+02 -0.37592955697E+02  0.68126653453E+02  0.10000000000E+01 0.  0.
<mgrwt>
<rscale>  0 0.12500077E+03</rscale>
<asrwt>0</asrwt>
<pdfrwt beam="1">  1        4 0.33157973E-02 0.12500077E+03</pdfrwt>
<pdfrwt beam="2">  1       -4 0.27883718E-01 0.12500077E+03</pdfrwt>
<totfact> 0.89664390E+03</totfact>
</mgrwt>
</event>
<event>
 5    1  0.3271306E-002  0.1249994E+03  0.7818608E-02  0.1235070E+00
         -4   -1    0    0    0  501 -0.00000000000E+00  0.00000000000E+00  0.32472099206E+02  0.32496924883E+02  0.12700000000E+01 0.  1.
          4   -1    0    0  501    0  0.00000000000E+00 -0.00000000000E+00 -0.12022023135E+03  0.12022693927E+03  0.12700000000E+01 0.  1.
         25    2    1    2    0    0  0.00000000000E+00  0.00000000000E+00 -0.87748132143E+02  0.15272386415E+03  0.12499937594E+03 0.  0.
    9000005    1    3    3    0    0  0.13476961559E+02 -0.24498269602E+02  0.24409165144E+02  0.37129517225E+02  0.10000000000E+01 0.  0.
    9000005    1    3    3    0    0 -0.13476961559E+02  0.24498269602E+02 -0.11215729729E+03  0.11559434693E+03  0.10000000000E+01 0.  0.
<mgrwt>
<rscale>  0 0.12499938E+03</rscale>
<asrwt>0</asrwt>
<pdfrwt beam="2">  1        4 0.18497846E-01 0.12499938E+03</pdfrwt>
<pdfrwt beam="1">  1       -4 0.49981333E-02 0.12499938E+03</pdfrwt>
<totfact> 0.98764869E+03</totfact>
</mgrwt>
</event>
<event>
 5    1  0.3271306E-002  0.1249968E+03  0.7818608E-02  0.1235074E+00
         -4   -1    0    0    0  501 -0.00000000000E+00  0.00000000000E+00  0.10534084797E+03  0.10534850331E+03  0.12700000000E+01 0. -1.
          4   -1    0    0  501    0  0.00000000000E+00 -0.00000000000E+00 -0.37060217645E+02  0.37081971791E+02  0.12700000000E+01 0. -1.
         25    2    1    2    0    0  0.00000000000E+00  0.00000000000E+00  0.68280630321E+02  0.14243047510E+03  0.12499678300E+03 0.  0.
    9000005    1    3    3    0    0  0.97453661728E+00  0.18359960386E+02  0.10219473184E+03  0.10384026716E+03  0.10000000000E+01 0.  0.
    9000005    1    3    3    0    0 -0.97453661728E+00 -0.18359960386E+02 -0.33914101524E+02  0.38590207944E+02  0.10000000000E+01 0.  0.
<mgrwt>
<rscale>  0 0.12499678E+03</rscale>
<asrwt>0</asrwt>
<pdfrwt beam="2">  1        4 0.57038344E-02 0.12499678E+03</pdfrwt>
<pdfrwt beam="1">  1       -4 0.16208546E-01 0.12499678E+03</pdfrwt>
<totfact> 0.10084190E+04</totfact>
</mgrwt>
</event>
<event>
 5    1  0.3271306E-002  0.1249981E+03  0.7818608E-02  0.1235072E+00
          4   -1    0    0  501    0  0.00000000000E+00  0.00000000000E+00  0.41955401313E+02  0.41974618514E+02  0.12700000000E+01 0.  1.
         -4   -1    0    0    0  501 -0.00000000000E+00 -0.00000000000E+00 -0.93057174877E+02  0.93065840652E+02  0.12700000000E+01 0.  1.
         25    2    1    2    0    0  0.00000000000E+00  0.00000000000E+00 -0.51101773564E+02  0.13504045917E+03  0.12499813739E+03 0.  0.
    9000005    1    3    3    0    0 -0.76539746184E+01  0.37818387610E+02 -0.78656150809E+02  0.87616230397E+02  0.10000000000E+01 0.  0.
    9000005    1    3    3    0    0  0.76539746184E+01 -0.37818387610E+02  0.27554377245E+02  0.47424228768E+02  0.10000000000E+01 0.  0.
<mgrwt>
<rscale>  0 0.12499814E+03</rscale>
<asrwt>0</asrwt>
<pdfrwt beam="1">  1        4 0.64568220E-02 0.12499814E+03</pdfrwt>
<pdfrwt beam="2">  1       -4 0.14318633E-01 0.12499814E+03</pdfrwt>
<totfact> 0.10237648E+04</totfact>
</mgrwt>
</event>
<event>
 5    1  0.3271306E-002  0.1249995E+03  0.7818608E-02  0.1235070E+00
         -4   -1    0    0    0  501 -0.00000000000E+00  0.00000000000E+00  0.12132918185E+03  0.12133582846E+03  0.12700000000E+01 0. -1.
          4   -1    0    0  501    0  0.00000000000E+00 -0.00000000000E+00 -0.32175134921E+02  0.32200189552E+02  0.12700000000E+01 0. -1.
         25    2    1    2    0    0  0.00000000000E+00  0.00000000000E+00  0.89154046930E+02  0.15353601801E+03  0.12499945897E+03 0.  0.
    9000005    1    3    3    0    0  0.30811975980E+02  0.54365819547E+02  0.45120794173E+02  0.77083761361E+02  0.10000000000E+01 0.  0.
    9000005    1    3    3    0    0 -0.30811975980E+02 -0.54365819547E+02  0.44033252757E+02  0.76452256652E+02  0.10000000000E+01 0.  0.
<mgrwt>
<rscale>  0 0.12499946E+03</rscale>
<asrwt>0</asrwt>
<pdfrwt beam="2">  1        4 0.49524595E-02 0.12499946E+03</pdfrwt>
<pdfrwt beam="1">  1       -4 0.18668466E-01 0.12499946E+03</pdfrwt>
<totfact> 0.98604659E+03</totfact>
</mgrwt>
</event>
<event>
 5    1  0.3271306E-002  0.1249990E+03  0.7818608E-02  0.1235071E+00
         -4   -1    0    0    0  501 -0.00000000000E+00  0.00000000000E+00  0.75652074944E+01  0.76710667076E+01  0.12700000000E+01 0. -1.
          4   -1    0    0  501    0  0.00000000000E+00 -0.00000000000E+00 -0.51264157781E+03  0.51264315093E+03  0.12700000000E+01 0. -1.
         25    2    1    2    0    0  0.00000000000E+00  0.00000000000E+00 -0.50507637032E+03  0.52031421764E+03  0.12499898091E+03 0.  0.
    9000005    1    3    3    0    0 -0.13273259458E+02 -0.19634437042E+02 -0.11847318828E+02  0.26515080577E+02  0.10000000000E+01 0.  0.
    9000005    1    3    3    0    0  0.13273259458E+02  0.19634437042E+02 -0.49322905149E+03  0.49379913707E+03  0.10000000000E+01 0.  0.
<mgrwt>
<rscale>  0 0.12499898E+03</rscale>
<asrwt>0</asrwt>
<pdfrwt beam="2">  1        4 0.78876172E-01 0.12499898E+03</pdfrwt>
<pdfrwt beam="1">  1       -4 0.11721425E-02 0.12499898E+03</pdfrwt>
<totfact> 0.54323204E+03</totfact>
</mgrwt>
</event>
<event>
 5    1  0.3271306E-002  0.1249922E+03  0.7818608E-02  0.1235082E+00
         -4   -1    0    0    0  501 -0.00000000000E+00  0.00000000000E+00  0.41816839707E+02  0.41836120555E+02  0.12700000000E+01 0.  1.
          4   -1    0    0  501    0  0.00000000000E+00 -0.00000000000E+00 -0.93356497182E+02  0.93365135174E+02  0.12700000000E+01 0.  1.
         25    2    1    2    0    0  0.00000000000E+00  0.00000000000E+00 -0.51539657475E+02  0.13520125573E+03  0.12499217279E+03 0.  0.
    9000005    1    3    3    0    0 -0.61443939000E+02  0.45410208543E+01 -0.37051593363E+02  0.71901314876E+02  0.10000000000E+01 0.  0.
    9000005    1    3    3    0    0  0.61443939000E+02 -0.45410208543E+01 -0.14488064112E+02  0.63299940852E+02  0.10000000000E+01 0.  0.
<mgrwt>
<rscale>  0 0.12499217E+03</rscale>
<asrwt>0</asrwt>
<pdfrwt beam="2">  1        4 0.14364686E-01 0.12499217E+03</pdfrwt>
<pdfrwt beam="1">  1       -4 0.64355076E-02 0.12499217E+03</pdfrwt>
<totfact> 0.10235637E+04</totfact>
</mgrwt>
</event>
<event>
 5    1  0.3271306E-002  0.1249980E+03  0.7818608E-02  0.1235072E+00
          4   -1    0    0  501    0  0.00000000000E+00  0.00000000000E+00  0.14093154205E+02  0.14150261321E+02  0.12700000000E+01 0.  1.
         -4   -1    0    0    0  501 -0.00000000000E+00 -0.00000000000E+00 -0.27654571931E+03  0.27654863544E+03  0.12700000000E+01 0.  1.
         25    2    1    2    0    0  0.00000000000E+00  0.00000000000E+00 -0.26245256510E+03  0.29069889677E+03  0.12499799859E+03 0.  0.
    9000005    1    3    3    0    0  0.23558020184E+02  0.52762255283E+02 -0.18656886147E+03  0.19531455646E+03  0.10000000000E+01 0.  0.
    9000005    1    3    3    0    0 -0.23558020184E+02 -0.52762255283E+02 -0.75883703634E+02  0.95384340302E+02  0.10000000000E+01 0.  0.
<mgrwt>
<rscale>  0 0.12499800E+03</rscale>
<asrwt>0</asrwt>
<pdfrwt beam="1">  1        4 0.21727950E-02 0.12499800E+03</pdfrwt>
<pdfrwt beam="2">  1       -4 0.42550108E-01 0.12499800E+03</pdfrwt>
<totfact> 0.76783978E+03</totfact>
</mgrwt>
</event>
<event>
 5    1  0.3271306E-002  0.1249991E+03  0.7818608E-02  0.1235071E+00
          4   -1    0    0  501    0  0.00000000000E+00  0.00000000000E+00  0.11804115781E+03  0.11804798955E+03  0.12700000000E+01 0. -1.
         -4   -1    0    0    0  501 -0.00000000000E+00 -0.00000000000E+00 -0.33071810859E+02  0.33096186691E+02  0.12700000000E+01 0. -1.
         25    2    1    2    0    0  0.00000000000E+00  0.00000000000E+00  0.84969346952E+02  0.15114417624E+03  0.12499908836E+03 0.  0.
    9000005    1    3    3    0    0  0.17865655557E+01 -0.52923990773E+02  0.82607227238E+02  0.98127950187E+02  0.10000000000E+01 0.  0.
    9000005    1    3    3    0    0 -0.17865655557E+01  0.52923990773E+02  0.23621197141E+01  0.53016226058E+02  0.10000000000E+01 0.  0.
<mgrwt>
<rscale>  0 0.12499909E+03</rscale>
<asrwt>0</asrwt>
<pdfrwt beam="1">  1        4 0.18162579E-01 0.12499909E+03</pdfrwt>
<pdfrwt beam="2">  1       -4 0.50903715E-02 0.12499909E+03</pdfrwt>
<totfact> 0.99078144E+03</totfact>
</mgrwt>
</event>
<event>
 5    1  0.3271306E-002  0.1249983E+03  0.7818608E-02  0.1235072E+00
         -4   -1    0    0    0  501 -0.00000000000E+00  0.00000000000E+00  0.15291247324E+04  0.15291252598E+04  0.12700000000E+01 0.  1.
          4   -1    0    0  501    0  0.00000000000E+00 -0.00000000000E+00 -0.23960864405E+01  0.27118499646E+01  0.12700000000E+01 0.  1.
         25    2    1    2    0    0  0.00000000000E+00  0.00000000000E+00  0.15267286459E+04  0.15318371097E+04  0.12499828974E+03 0.  0.
    9000005    1    3    3    0    0  0.53169525137E+02  0.27868316710E+02  0.55057327787E+03  0.55383713833E+03  0.10000000000E+01 0.  0.
    9000005    1    3    3    0    0 -0.53169525137E+02 -0.27868316710E+02  0.97615536805E+03  0.97799997140E+03  0.10000000000E+01 0.  0.
<mgrwt>
<rscale>  0 0.12499829E+03</rscale>
<asrwt>0</asrwt>
<pdfrwt beam="2">  1        4 0.39296015E-03 0.12499829E+03</pdfrwt>
<pdfrwt beam="1">  1       -4 0.23527346E+00 0.12499829E+03</pdfrwt>
<totfact> 0.17313740E+03</totfact>
</mgrwt>
</event>
<event>
 5    1  0.3271306E-002  0.1250029E+03  0.7818608E-02  0.1235065E+00
          4   -1    0    0  501    0  0.00000000000E+00  0.00000000000E+00  0.22234332977E+02  0.22270573925E+02  0.12700000000E+01 0. -1.
         -4   -1    0    0    0  501 -0.00000000000E+00 -0.00000000000E+00 -0.17551206185E+03  0.17551665663E+03  0.12700000000E+01 0. -1.
         25    2    1    2    0    0  0.00000000000E+00  0.00000000000E+00 -0.15327772887E+03  0.19778723055E+03  0.12500290557E+03 0.  0.
    9000005    1    3    3    0    0  0.22572642405E+01 -0.20015707229E+02  0.16965055336E+02  0.26354067623E+02  0.10000000000E+01 0.  0.
    9000005    1    3    3    0    0 -0.22572642405E+01  0.20015707229E+02 -0.17024278421E+03  0.17143316293E+03  0.10000000000E+01 0.  0.
<mgrwt>
<rscale>  0 0.12500291E+03</rscale>
<asrwt>0</asrwt>
<pdfrwt beam="1">  1        4 0.34238079E-02 0.12500291E+03</pdfrwt>
<pdfrwt beam="2">  1       -4 0.27004996E-01 0.12500291E+03</pdfrwt>
<totfact> 0.90503852E+03</totfact>
</mgrwt>
</event>
<event>
 5    1  0.3271306E-002  0.1250012E+03  0.7818608E-02  0.1235067E+00
          4   -1    0    0  501    0  0.00000000000E+00  0.00000000000E+00  0.10616739237E+03  0.10617498812E+03  0.12700000000E+01 0. -1.
         -4   -1    0    0    0  501 -0.00000000000E+00 -0.00000000000E+00 -0.36774151004E+02  0.36796074275E+02  0.12700000000E+01 0. -1.
         25    2    1    2    0    0  0.00000000000E+00  0.00000000000E+00  0.69393241367E+02  0.14297106240E+03  0.12500121094E+03 0.  0.
    9000005    1    3    3    0    0  0.59185563234E+02  0.14671197294E+02  0.19049669774E+02  0.63891038839E+02  0.10000000000E+01 0.  0.
    9000005    1    3    3    0    0 -0.59185563234E+02 -0.14671197294E+02  0.50343571593E+02  0.79080023559E+02  0.10000000000E+01 0.  0.
<mgrwt>
<rscale>  0 0.12500121E+03</rscale>
<asrwt>0</asrwt>
<pdfrwt beam="1">  1        4 0.16335716E-01 0.12500121E+03</pdfrwt>
<pdfrwt beam="2">  1       -4 0.56598324E-02 0.12500121E+03</pdfrwt>
<totfact> 0.10072101E+04</totfact>
</mgrwt>
</event>
<event>
 5    1  0.3271306E-002  0.1250001E+03  0.7818608E-02  0.1235069E+00
          4   -1    0    0  501    0  0.00000000000E+00  0.00000000000E+00  0.17467449053E+03  0.17467910734E+03  0.12700000000E+01 0. -1.
         -4   -1    0    0    0  501 -0.00000000000E+00 -0.00000000000E+00 -0.22340108262E+02  0.22376177894E+02  0.12700000000E+01 0. -1.
         25    2    1    2    0    0  0.00000000000E+00  0.00000000000E+00  0.15233438227E+03  0.19705528524E+03  0.12500008568E+03 0.  0.
    9000005    1    3    3    0    0  0.30196728294E+02 -0.71416815106E+01  0.16167963576E+03  0.16463338250E+03  0.10000000000E+01 0.  0.
    9000005    1    3    3    0    0 -0.30196728294E+02  0.71416815106E+01 -0.93452534879E+01  0.32421902739E+02  0.10000000000E+01 0.  0.
<mgrwt>
<rscale>  0 0.12500009E+03</rscale>
<asrwt>0</asrwt>
<pdfrwt beam="1">  1        4 0.26876128E-01 0.12500009E+03</pdfrwt>
<pdfrwt beam="2">  1       -4 0.34400694E-02 0.12500009E+03</pdfrwt>
<totfact> 0.90633828E+03</totfact>
</mgrwt>
</event>
<event>
 5    1  0.3271306E-002  0.1249995E+03  0.7818608E-02  0.1235070E+00
          4   -1    0    0  501    0  0.00000000000E+00  0.00000000000E+00  0.27364071371E+02  0.27393526644E+02  0.12700000000E+01 0.  1.
         -4   -1    0    0    0  501 -0.00000000000E+00 -0.00000000000E+00 -0.14264078712E+03  0.14264644072E+03  0.12700000000E+01 0.  1.
         25    2    1    2    0    0  0.00000000000E+00  0.00000000000E+00 -0.11527671575E+03  0.17003996736E+03  0.12499947723E+03 0.  0.
    9000005    1    3    3    0    0 -0.47375397397E+02  0.33974052621E+02 -0.27021883731E+02  0.64263883562E+02  0.10000000000E+01 0.  0.
    9000005    1    3    3    0    0  0.47375397397E+02 -0.33974052621E+02 -0.88254832018E+02  0.10577608380E+03  0.10000000000E+01 0.  0.
<mgrwt>
<rscale>  0 0.12499948E+03</rscale>
<asrwt>0</asrwt>
<pdfrwt beam="1">  1        4 0.42125579E-02 0.12499948E+03</pdfrwt>
<pdfrwt beam="2">  1       -4 0.21947437E-01 0.12499948E+03</pdfrwt>
<totfact> 0.95442308E+03</totfact>
</mgrwt>
</event>
<event>
 5    1  0.3271306E-002  0.1249995E+03  0.7818608E-02  0.1235070E+00
         -4   -1    0    0    0  501 -0.00000000000E+00  0.00000000000E+00  0.50429195882E+02  0.50445185076E+02  0.12700000000E+01 0.  1.
          4   -1    0    0  501    0  0.00000000000E+00 -0.00000000000E+00 -0.77425942198E+02  0.77436357257E+02  0.12700000000E+01 0.  1.
         25    2    1    2    0    0  0.00000000000E+00  0.00000000000E+00 -0.26996746316E+02  0.12788154233E+03  0.12499945823E+03 0.  0.
    9000005    1    3    3    0    0  0.19465856298E+02  0.43634086656E+02 -0.54705635196E+02  0.72639931181E+02  0.10000000000E+01 0.  0.
    9000005    1    3    3    0    0 -0.19465856298E+02 -0.43634086656E+02  0.27708888880E+02  0.55241611152E+02  0.10000000000E+01 0.  0.
<mgrwt>
<rscale>  0 0.12499946E+03</rscale>
<asrwt>0</asrwt>
<pdfrwt beam="2">  1        4 0.11913715E-01 0.12499946E+03</pdfrwt>
<pdfrwt beam="1">  1       -4 0.77603689E-02 0.12499946E+03</pdfrwt>
<totfact> 0.10390174E+04</totfact>
</mgrwt>
</event>
<event>
 5    1  0.3271306E-002  0.1250034E+03  0.7818608E-02  0.1235064E+00
         -4   -1    0    0    0  501 -0.00000000000E+00  0.00000000000E+00  0.32767617957E+03  0.32767864068E+03  0.12700000000E+01 0.  1.
          4   -1    0    0  501    0  0.00000000000E+00 -0.00000000000E+00 -0.11885384680E+02  0.11953044340E+02  0.12700000000E+01 0.  1.
         25    2    1    2    0    0  0.00000000000E+00  0.00000000000E+00  0.31579079489E+03  0.33963168502E+03  0.12500342128E+03 0.  0.
    9000005    1    3    3    0    0  0.21643295760E+02  0.56585930625E+02  0.11623922184E+03  0.13108377661E+03  0.10000000000E+01 0.  0.
    9000005    1    3    3    0    0 -0.21643295760E+02 -0.56585930625E+02  0.19955157305E+03  0.20854790841E+03  0.10000000000E+01 0.  0.
<mgrwt>
<rscale>  0 0.12500342E+03</rscale>
<asrwt>0</asrwt>
<pdfrwt beam="2">  1        4 0.18339149E-02 0.12500342E+03</pdfrwt>
<pdfrwt beam="1">  1       -4 0.50417106E-01 0.12500342E+03</pdfrwt>
<totfact> 0.70875098E+03</totfact>
</mgrwt>
</event>
<event>
 5    1  0.3271306E-002  0.1249885E+03  0.7818608E-02  0.1235087E+00
         -4   -1    0    0    0  501 -0.00000000000E+00  0.00000000000E+00  0.30305921073E+03  0.30306187175E+03  0.12700000000E+01 0. -1.
          4   -1    0    0  501    0  0.00000000000E+00 -0.00000000000E+00 -0.12853016842E+02  0.12915608462E+02  0.12700000000E+01 0. -1.
         25    2    1    2    0    0  0.00000000000E+00  0.00000000000E+00  0.29020619389E+03  0.31597748021E+03  0.12498853159E+03 0.  0.
    9000005    1    3    3    0    0 -0.44911859726E+02 -0.43353541245E+02  0.13798467815E+03  0.15145090322E+03  0.10000000000E+01 0.  0.
    9000005    1    3    3    0    0  0.44911859726E+02  0.43353541245E+02  0.15222151574E+03  0.16452657699E+03  0.10000000000E+01 0.  0.
<mgrwt>
<rscale>  0 0.12498853E+03</rscale>
<asrwt>0</asrwt>
<pdfrwt beam="2">  1        4 0.19824067E-02 0.12498853E+03</pdfrwt>
<pdfrwt beam="1">  1       -4 0.46629513E-01 0.12498853E+03</pdfrwt>
<totfact> 0.73655845E+03</totfact>
</mgrwt>
</event>
<event>
 5    1  0.3271306E-002  0.1250001E+03  0.7818608E-02  0.1235069E+00
         -4   -1    0    0    0  501 -0.00000000000E+00  0.00000000000E+00  0.44485845086E+01  0.46263164754E+01  0.12700000000E+01 0. -1.
          4   -1    0    0  501    0  0.00000000000E+00 -0.00000000000E+00 -0.86071405511E+03  0.86071499207E+03  0.12700000000E+01 0. -1.
         25    2    1    2    0    0  0.00000000000E+00  0.00000000000E+00 -0.85626547061E+03  0.86534130854E+03  0.12500009648E+03 0.  0.
    9000005    1    3    3    0    0 -0.14699364206E+02 -0.57407866008E+02 -0.56546146376E+03  0.56855905708E+03  0.10000000000E+01 0.  0.
    9000005    1    3    3    0    0  0.14699364206E+02  0.57407866008E+02 -0.29080400684E+03  0.29678225146E+03  0.10000000000E+01 0.  0.
<mgrwt>
<rscale>  0 0.12500010E+03</rscale>
<asrwt>0</asrwt>
<pdfrwt beam="2">  1        4 0.13243116E+00 0.12500010E+03</pdfrwt>
<pdfrwt beam="1">  1       -4 0.69814206E-03 0.12500010E+03</pdfrwt>
<totfact> 0.35507596E+03</totfact>
</mgrwt>
</event>
<event>
 5    1  0.3271306E-002  0.1250082E+03  0.7818608E-02  0.1235056E+00
          4   -1    0    0  501    0  0.00000000000E+00  0.00000000000E+00  0.30529694877E+03  0.30529959029E+03  0.12700000000E+01 0.  1.
         -4   -1    0    0    0  501 -0.00000000000E+00 -0.00000000000E+00 -0.12762391205E+02  0.12825425111E+02  0.12700000000E+01 0.  1.
         25    2    1    2    0    0  0.00000000000E+00  0.00000000000E+00  0.29253455757E+03  0.31812501540E+03  0.12500823194E+03 0.  0.
    9000005    1    3    3    0    0  0.52202795653E+02 -0.10989005694E+01  0.23366384767E+03  0.23942876428E+03  0.10000000000E+01 0.  0.
    9000005    1    3    3    0    0 -0.52202795653E+02  0.10989005694E+01  0.58870709899E+02  0.78696251121E+02  0.10000000000E+01 0.  0.
<mgrwt>
<rscale>  0 0.12500823E+03</rscale>
<asrwt>0</asrwt>
<pdfrwt beam="1">  1        4 0.46973811E-01 0.12500823E+03</pdfrwt>
<pdfrwt beam="2">  1       -4 0.19684968E-02 0.12500823E+03</pdfrwt>
<totfact> 0.73366295E+03</totfact>
</mgrwt>
</event>
<event>
 5    1  0.3271306E-002  0.1250031E+03  0.7818608E-02  0.1235064E+00
         -4   -1    0    0    0  501 -0.00000000000E+00  0.00000000000E+00  0.22404584622E+03  0.22404944568E+03  0.12700000000E+01 0. -1.
          4   -1    0    0  501    0  0.00000000000E+00 -0.00000000000E+00 -0.17409044193E+02  0.17455306348E+02  0.12700000000E+01 0. -1.
         25    2    1    2    0    0  0.00000000000E+00  0.00000000000E+00  0.20663680203E+03  0.24150475202E+03  0.12500310916E+03 0.  0.
    9000005    1    3    3    0    0  0.59850916471E+02 -0.17070899001E+02  0.92407098862E+02  0.11141642480E+03  0.10000000000E+01 0.  0.
    9000005    1    3    3    0    0 -0.59850916471E+02  0.17070899001E+02  0.11422970316E+03  0.13008832722E+03  0.10000000000E+01 0.  0.
<mgrwt>
<rscale>  0 0.12500311E+03</rscale>
<asrwt>0</asrwt>
<pdfrwt beam="2">  1        4 0.26821499E-02 0.12500311E+03</pdfrwt>
<pdfrwt beam="1">  1       -4 0.34472428E-01 0.12500311E+03</pdfrwt>
<totfact> 0.83567977E+03</totfact>
</mgrwt>
</event>
<event>
 5    1  0.3271306E-002  0.1250002E+03  0.7818608E-02  0.1235069E+00
          4   -1    0    0  501    0  0.00000000000E+00  0.00000000000E+00  0.90072862562E+01  0.90963787136E+01  0.12700000000E+01 0.  1.
         -4   -1    0    0    0  501 -0.00000000000E+00 -0.00000000000E+00 -0.43145412265E+03  0.43145599179E+03  0.12700000000E+01 0.  1.
         25    2    1    2    0    0  0.00000000000E+00  0.00000000000E+00 -0.42244683639E+03  0.44055237050E+03  0.12500024631E+03 0.  0.
    9000005    1    3    3    0    0 -0.43109965973E+02  0.42293829972E+02 -0.15460988776E+03  0.16598932078E+03  0.10000000000E+01 0.  0.
    9000005    1    3    3    0    0  0.43109965973E+02 -0.42293829972E+02 -0.26783694863E+03  0.27456304972E+03  0.10000000000E+01 0.  0.
<mgrwt>
<rscale>  0 0.12500025E+03</rscale>
<asrwt>0</asrwt>
<pdfrwt beam="1">  1        4 0.13927337E-02 0.12500025E+03</pdfrwt>
<pdfrwt beam="2">  1       -4 0.66384538E-01 0.12500025E+03</pdfrwt>
<totfact> 0.60790670E+03</totfact>
</mgrwt>
</event>
<event>
 5    1  0.3271306E-002  0.1250016E+03  0.7818608E-02  0.1235067E+00
         -4   -1    0    0    0  501 -0.00000000000E+00  0.00000000000E+00  0.84006111501E+02  0.84015710850E+02  0.12700000000E+01 0.  1.
          4   -1    0    0  501    0  0.00000000000E+00 -0.00000000000E+00 -0.46479853637E+02  0.46497200928E+02  0.12700000000E+01 0.  1.
         25    2    1    2    0    0  0.00000000000E+00  0.00000000000E+00  0.37526257865E+02  0.13051291178E+03  0.12500160043E+03 0.  0.
    9000005    1    3    3    0    0  0.50957498647E+02  0.32921917844E+02  0.31076738210E+01  0.60755057234E+02  0.10000000000E+01 0.  0.
    9000005    1    3    3    0    0 -0.50957498647E+02 -0.32921917844E+02  0.34418584044E+02  0.69757854543E+02  0.10000000000E+01 0.  0.
<mgrwt>
<rscale>  0 0.12500160E+03</rscale>
<asrwt>0</asrwt>
<pdfrwt beam="2">  1        4 0.71528196E-02 0.12500160E+03</pdfrwt>
<pdfrwt beam="1">  1       -4 0.12926090E-01 0.12500160E+03</pdfrwt>
<totfact> 0.10333170E+04</totfact>
</mgrwt>
</event>
<event>
 5    1  0.3271306E-002  0.1250007E+03  0.7818608E-02  0.1235068E+00
          4   -1    0    0  501    0  0.00000000000E+00  0.00000000000E+00  0.61420811034E+03  0.61420942333E+03  0.12700000000E+01 0. -1.
         -4   -1    0    0    0  501 -0.00000000000E+00 -0.00000000000E+00 -0.62951559738E+01  0.64219847971E+01  0.12700000000E+01 0. -1.
         25    2    1    2    0    0  0.00000000000E+00  0.00000000000E+00  0.60791295437E+03  0.62063140813E+03  0.12500073867E+03 0.  0.
    9000005    1    3    3    0    0 -0.54023852269E+02 -0.74492875884E+01  0.15244375330E+03  0.16190789487E+03  0.10000000000E+01 0.  0.
    9000005    1    3    3    0    0  0.54023852269E+02  0.74492875884E+01  0.45546920106E+03  0.45872351326E+03  0.10000000000E+01 0.  0.
<mgrwt>
<rscale>  0 0.12500074E+03</rscale>
<asrwt>0</asrwt>
<pdfrwt beam="1">  1        4 0.94503426E-01 0.12500074E+03</pdfrwt>
<pdfrwt beam="2">  1       -4 0.97834245E-03 0.12500074E+03</pdfrwt>
<totfact> 0.47589890E+03</totfact>
</mgrwt>
</event>
<event>
 5    1  0.3271306E-002  0.1250005E+03  0.7818608E-02  0.1235068E+00
         -4   -1    0    0    0  501 -0.00000000000E+00  0.00000000000E+00  0.16805036074E+03  0.16805515954E+03  0.12700000000E+01 0.  1.
          4   -1    0    0  501    0  0.00000000000E+00 -0.00000000000E+00 -0.23222229134E+02  0.23256930708E+02  0.12700000000E+01 0.  1.
         25    2    1    2    0    0  0.00000000000E+00  0.00000000000E+00  0.14482813161E+03  0.19131209024E+03  0.12500051267E+03 0.  0.
    9000005    1    3    3    0    0 -0.25727902839E+02  0.25180797466E+01 -0.14662855928E+02  0.29736594527E+02  0.10000000000E+01 0.  0.
    9000005    1    3    3    0    0  0.25727902839E+02 -0.25180797466E+01  0.15949098754E+03  0.16157549572E+03  0.10000000000E+01 0.  0.
<mgrwt>
<rscale>  0 0.12500051E+03</rscale>
<asrwt>0</asrwt>
<pdfrwt beam="2">  1        4 0.35756891E-02 0.12500051E+03</pdfrwt>
<pdfrwt beam="1">  1       -4 0.25856940E-01 0.12500051E+03</pdfrwt>
<totfact> 0.91618463E+03</totfact>
</mgrwt>
</event>
<event>
 5    1  0.3271306E-002  0.1249981E+03  0.7818608E-02  0.1235072E+00
          4   -1    0    0  501    0  0.00000000000E+00  0.00000000000E+00  0.43003639543E+02  0.43022388520E+02  0.12700000000E+01 0. -1.
         -4   -1    0    0    0  501 -0.00000000000E+00 -0.00000000000E+00 -0.90789516563E+02  0.90798398762E+02  0.12700000000E+01 0. -1.
         25    2    1    2    0    0  0.00000000000E+00  0.00000000000E+00 -0.47785877020E+02  0.13382078728E+03  0.12499805225E+03 0.  0.
    9000005    1    3    3    0    0  0.32592559974E+01 -0.18118267727E+02 -0.87825962427E+02  0.89740147377E+02  0.10000000000E+01 0.  0.
    9000005    1    3    3    0    0 -0.32592559974E+01  0.18118267727E+02  0.40040085406E+02  0.44080639905E+02  0.10000000000E+01 0.  0.
<mgrwt>
<rscale>  0 0.12499805E+03</rscale>
<asrwt>0</asrwt>
<pdfrwt beam="1">  1        4 0.66180700E-02 0.12499805E+03</pdfrwt>
<pdfrwt beam="2">  1       -4 0.13969743E-01 0.12499805E+03</pdfrwt>
<totfact> 0.10263437E+04</totfact>
</mgrwt>
</event>
<event>
 5    1  0.3271306E-002  0.1250015E+03  0.7818608E-02  0.1235067E+00
         -4   -1    0    0    0  501 -0.00000000000E+00  0.00000000000E+00  0.12004135515E+02  0.12071129585E+02  0.12700000000E+01 0.  1.
          4   -1    0    0  501    0  0.00000000000E+00 -0.00000000000E+00 -0.32444262489E+03  0.32444511053E+03  0.12700000000E+01 0.  1.
         25    2    1    2    0    0  0.00000000000E+00  0.00000000000E+00 -0.31243848937E+03  0.33651624011E+03  0.12500148086E+03 0.  0.
    9000005    1    3    3    0    0  0.56015043644E+02 -0.26933389442E+02 -0.13872061312E+03  0.15201151630E+03  0.10000000000E+01 0.  0.
    9000005    1    3    3    0    0 -0.56015043644E+02  0.26933389442E+02 -0.17371787625E+03  0.18450472382E+03  0.10000000000E+01 0.  0.
<mgrwt>
<rscale>  0 0.12500148E+03</rscale>
<asrwt>0</asrwt>
<pdfrwt beam="2">  1        4 0.49919588E-01 0.12500148E+03</pdfrwt>
<pdfrwt beam="1">  1       -4 0.18521349E-02 0.12500148E+03</pdfrwt>
<totfact> 0.71231526E+03</totfact>
</mgrwt>
</event>
<event>
 5    1  0.3271306E-002  0.1249990E+03  0.7818608E-02  0.1235071E+00
          4   -1    0    0  501    0  0.00000000000E+00  0.00000000000E+00  0.48137699639E+01  0.49784818233E+01  0.12700000000E+01 0. -1.
         -4   -1    0    0    0  501 -0.00000000000E+00 -0.00000000000E+00 -0.79764688290E+03  0.79764789393E+03  0.12700000000E+01 0. -1.
         25    2    1    2    0    0  0.00000000000E+00  0.00000000000E+00 -0.79283311293E+03  0.80262637575E+03  0.12499901638E+03 0.  0.
    9000005    1    3    3    0    0 -0.32836429205E+02  0.11586233930E+02 -0.72961438129E+03  0.73044549234E+03  0.10000000000E+01 0.  0.
    9000005    1    3    3    0    0  0.32836429205E+02 -0.11586233930E+02 -0.63218731640E+02  0.72180883410E+02  0.10000000000E+01 0.  0.
<mgrwt>
<rscale>  0 0.12499902E+03</rscale>
<asrwt>0</asrwt>
<pdfrwt beam="1">  1        4 0.75332854E-03 0.12499902E+03</pdfrwt>
<pdfrwt beam="2">  1       -4 0.12272755E+00 0.12499902E+03</pdfrwt>
<totfact> 0.38148593E+03</totfact>
</mgrwt>
</event>
<event>
 5    1  0.3271306E-002  0.1250000E+03  0.7818608E-02  0.1235069E+00
         -4   -1    0    0    0  501 -0.00000000000E+00  0.00000000000E+00  0.28350725592E+02  0.28379156816E+02  0.12700000000E+01 0.  1.
          4   -1    0    0  501    0  0.00000000000E+00 -0.00000000000E+00 -0.13768256942E+03  0.13768842661E+03  0.12700000000E+01 0.  1.
         25    2    1    2    0    0  0.00000000000E+00  0.00000000000E+00 -0.10933184382E+03  0.16606758342E+03  0.12499996076E+03 0.  0.
    9000005    1    3    3    0    0  0.11331502100E+02 -0.53923290325E+01 -0.13599789412E+03  0.13657930794E+03  0.10000000000E+01 0.  0.
    9000005    1    3    3    0    0 -0.11331502100E+02  0.53923290325E+01  0.26666050299E+02  0.29488275479E+02  0.10000000000E+01 0.  0.
<mgrwt>
<rscale>  0 0.12499996E+03</rscale>
<asrwt>0</asrwt>
<pdfrwt beam="2">  1        4 0.21184571E-01 0.12499996E+03</pdfrwt>
<pdfrwt beam="1">  1       -4 0.43642878E-02 0.12499996E+03</pdfrwt>
<totfact> 0.96185675E+03</totfact>
</mgrwt>
</event>
<event>
 5    1  0.3271306E-002  0.1250027E+03  0.7818608E-02  0.1235065E+00
          4   -1    0    0  501    0  0.00000000000E+00  0.00000000000E+00  0.57114893081E+02  0.57129011121E+02  0.12700000000E+01 0. -1.
         -4   -1    0    0    0  501 -0.00000000000E+00 -0.00000000000E+00 -0.68367379242E+02  0.68379174054E+02  0.12700000000E+01 0. -1.
         25    2    1    2    0    0  0.00000000000E+00  0.00000000000E+00 -0.11252486160E+02  0.12550818518E+03  0.12500274438E+03 0.  0.
    9000005    1    3    3    0    0  0.48810843011E+02 -0.12724347708E+01  0.33535364497E+02  0.59243043116E+02  0.10000000000E+01 0.  0.
    9000005    1    3    3    0    0 -0.48810843011E+02  0.12724347708E+01 -0.44787850657E+02  0.66265142060E+02  0.10000000000E+01 0.  0.
<mgrwt>
<rscale>  0 0.12500274E+03</rscale>
<asrwt>0</asrwt>
<pdfrwt beam="1">  1        4 0.87888999E-02 0.12500274E+03</pdfrwt>
<pdfrwt beam="2">  1       -4 0.10520052E-01 0.12500274E+03</pdfrwt>
<totfact> 0.10441127E+04</totfact>
</mgrwt>
</event>
<event>
 5    1  0.3271306E-002  0.1249968E+03  0.7818608E-02  0.1235074E+00
          4   -1    0    0  501    0  0.00000000000E+00  0.00000000000E+00  0.42765499082E+03  0.42765687656E+03  0.12700000000E+01 0.  1.
         -4   -1    0    0    0  501 -0.00000000000E+00 -0.00000000000E+00 -0.90875798593E+01  0.91758927467E+01  0.12700000000E+01 0.  1.
         25    2    1    2    0    0  0.00000000000E+00  0.00000000000E+00  0.41856741096E+03  0.43683276931E+03  0.12499676326E+03 0.  0.
    9000005    1    3    3    0    0  0.20610548194E+02  0.12770585648E+02  0.80039993542E+01  0.25552819029E+02  0.10000000000E+01 0.  0.
    9000005    1    3    3    0    0 -0.20610548194E+02 -0.12770585648E+02  0.41056341160E+03  0.41127995028E+03  0.10000000000E+01 0.  0.
<mgrwt>
<rscale>  0 0.12499676E+03</rscale>
<asrwt>0</asrwt>
<pdfrwt beam="1">  1        4 0.65800009E-01 0.12499676E+03</pdfrwt>
<pdfrwt beam="2">  1       -4 0.14050277E-02 0.12499676E+03</pdfrwt>
<totfact> 0.61125850E+03</totfact>
</mgrwt>
</event>
<event>
 5    1  0.3271306E-002  0.1250008E+03  0.7818608E-02  0.1235068E+00
          4   -1    0    0  501    0  0.00000000000E+00  0.00000000000E+00  0.42347247984E+03  0.42347438421E+03  0.12700000000E+01 0. -1.
         -4   -1    0    0    0  501 -0.00000000000E+00 -0.00000000000E+00 -0.91787993354E+01  0.92662428869E+01  0.12700000000E+01 0. -1.
         25    2    1    2    0    0  0.00000000000E+00  0.00000000000E+00  0.41429368050E+03  0.43274062709E+03  0.12500078653E+03 0.  0.
    9000005    1    3    3    0    0 -0.34329125622E+02  0.30910028562E+01  0.26687152281E+02  0.43603294158E+02  0.10000000000E+01 0.  0.
    9000005    1    3    3    0    0  0.34329125622E+02 -0.30910028562E+01  0.38760652822E+03  0.38913733294E+03  0.10000000000E+01 0.  0.
<mgrwt>
<rscale>  0 0.12500079E+03</rscale>
<asrwt>0</asrwt>
<pdfrwt beam="1">  1        4 0.65156502E-01 0.12500079E+03</pdfrwt>
<pdfrwt beam="2">  1       -4 0.14189955E-02 0.12500079E+03</pdfrwt>
<totfact> 0.61487276E+03</totfact>
</mgrwt>
</event>
<event>
 5    1  0.3271306E-002  0.1249993E+03  0.7818608E-02  0.1235070E+00
         -4   -1    0    0    0  501 -0.00000000000E+00  0.00000000000E+00  0.52493384394E+01  0.54007827258E+01  0.12700000000E+01 0.  1.
          4   -1    0    0  501    0  0.00000000000E+00 -0.00000000000E+00 -0.73339942066E+03  0.73340052026E+03  0.12700000000E+01 0.  1.
         25    2    1    2    0    0  0.00000000000E+00  0.00000000000E+00 -0.72815008222E+03  0.73880130299E+03  0.12499929225E+03 0.  0.
    9000005    1    3    3    0    0  0.36610035637E+02  0.27105241406E+02 -0.61692994723E+03  0.61861017499E+03  0.10000000000E+01 0.  0.
    9000005    1    3    3    0    0 -0.36610035637E+02 -0.27105241406E+02 -0.11122013499E+03  0.12019112800E+03  0.10000000000E+01 0.  0.
<mgrwt>
<rscale>  0 0.12499929E+03</rscale>
<asrwt>0</asrwt>
<pdfrwt beam="2">  1        4 0.11284233E+00 0.12499929E+03</pdfrwt>
<pdfrwt beam="1">  1       -4 0.81932526E-03 0.12499929E+03</pdfrwt>
<totfact> 0.41116245E+03</totfact>
</mgrwt>
</event>
<event>
 5    1  0.3271306E-002  0.1250165E+03  0.7818608E-02  0.1235043E+00
         -4   -1    0    0    0  501 -0.00000000000E+00  0.00000000000E+00  0.39777317618E+01  0.41755538517E+01  0.12700000000E+01 0. -1.
          4   -1    0    0  501    0  0.00000000000E+00 -0.00000000000E+00 -0.95825793288E+03  0.95825877446E+03  0.12700000000E+01 0. -1.
         25    2    1    2    0    0  0.00000000000E+00  0.00000000000E+00 -0.95428020112E+03  0.96243432831E+03  0.12501653516E+03 0.  0.
    9000005    1    3    3    0    0 -0.17705580388E+02 -0.16165235605E+02 -0.92148717339E+03  0.92179955150E+03  0.10000000000E+01 0.  0.
    9000005    1    3    3    0    0  0.17705580388E+02  0.16165235605E+02 -0.32793027726E+02  0.40634776811E+02  0.10000000000E+01 0.  0.
<mgrwt>
<rscale>  0 0.12501654E+03</rscale>
<asrwt>0</asrwt>
<pdfrwt beam="2">  1        4 0.14743940E+00 0.12501654E+03</pdfrwt>
<pdfrwt beam="1">  1       -4 0.62724131E-03 0.12501654E+03</pdfrwt>
<totfact> 0.31867118E+03</totfact>
</mgrwt>
</event>
<event>
 5    1  0.3271306E-002  0.1250135E+03  0.7818608E-02  0.1235048E+00
          4   -1    0    0  501    0  0.00000000000E+00  0.00000000000E+00  0.16603713591E+02  0.16652213217E+02  0.12700000000E+01 0. -1.
         -4   -1    0    0    0  501 -0.00000000000E+00 -0.00000000000E+00 -0.23492097527E+03  0.23492440810E+03  0.12700000000E+01 0. -1.
         25    2    1    2    0    0  0.00000000000E+00  0.00000000000E+00 -0.21831726168E+03  0.25157662132E+03  0.12501347786E+03 0.  0.
    9000005    1    3    3    0    0  0.22870001155E+02  0.21522243329E+02 -0.41756086231E+00  0.31423212245E+02  0.10000000000E+01 0.  0.
    9000005    1    3    3    0    0 -0.22870001155E+02 -0.21522243329E+02 -0.21789970082E+03  0.22015340908E+03  0.10000000000E+01 0.  0.
<mgrwt>
<rscale>  0 0.12501348E+03</rscale>
<asrwt>0</asrwt>
<pdfrwt beam="1">  1        4 0.25584124E-02 0.12501348E+03</pdfrwt>
<pdfrwt beam="2">  1       -4 0.36145681E-01 0.12501348E+03</pdfrwt>
<totfact> 0.82078248E+03</totfact>
</mgrwt>
</event>
<event>
 5    1  0.3271306E-002  0.1249998E+03  0.7818608E-02  0.1235070E+00
         -4   -1    0    0    0  501 -0.00000000000E+00  0.00000000000E+00  0.89005938008E+03  0.89006028614E+03  0.12700000000E+01 0.  1.
          4   -1    0    0  501    0  0.00000000000E+00 -0.00000000000E+00 -0.42959368248E+01  0.44797291439E+01  0.12700000000E+01 0.  1.
         25    2    1    2    0    0  0.00000000000E+00  0.00000000000E+00  0.88576344325E+03  0.89454001529E+03  0.12499984617E+03 0.  0.
    9000005    1    3    3    0    0 -0.59810483791E+02  0.17366751787E+02  0.47961143357E+03  0.48363935453E+03  0.10000000000E+01 0.  0.
    9000005    1    3    3    0    0  0.59810483791E+02 -0.17366751787E+02  0.40615200968E+03  0.41090066075E+03  0.10000000000E+01 0.  0.
<mgrwt>
<rscale>  0 0.12499985E+03</rscale>
<asrwt>0</asrwt>
<pdfrwt beam="2">  1        4 0.67512125E-03 0.12499985E+03</pdfrwt>
<pdfrwt beam="1">  1       -4 0.13694635E+00 0.12499985E+03</pdfrwt>
<totfact> 0.34369980E+03</totfact>
</mgrwt>
</event>
<event>
 5    1  0.3271306E-002  0.1249945E+03  0.7818608E-02  0.1235078E+00
          4   -1    0    0  501    0  0.00000000000E+00  0.00000000000E+00  0.79368845552E+02  0.79379005689E+02  0.12700000000E+01 0. -1.
         -4   -1    0    0    0  501 -0.00000000000E+00 -0.00000000000E+00 -0.49190549177E+02  0.49206940855E+02  0.12700000000E+01 0. -1.
         25    2    1    2    0    0  0.00000000000E+00  0.00000000000E+00  0.30178296375E+02  0.12858594654E+03  0.12499446418E+03 0.  0.
    9000005    1    3    3    0    0  0.80698807683E+01 -0.28003882083E+02  0.71954586775E+02  0.77638926740E+02  0.10000000000E+01 0.  0.
    9000005    1    3    3    0    0 -0.80698807683E+01  0.28003882083E+02 -0.41776290400E+02  0.50947019805E+02  0.10000000000E+01 0.  0.
<mgrwt>
<rscale>  0 0.12499446E+03</rscale>
<asrwt>0</asrwt>
<pdfrwt beam="1">  1        4 0.12212634E-01 0.12499446E+03</pdfrwt>
<pdfrwt beam="2">  1       -4 0.75698193E-02 0.12499446E+03</pdfrwt>
<totfact> 0.10376149E+04</totfact>
</mgrwt>
</event>
<event>
 5    1  0.3271306E-002  0.1250001E+03  0.7818608E-02  0.1235069E+00
         -4   -1    0    0    0  501 -0.00000000000E+00  0.00000000000E+00  0.46119791699E+02  0.46137274371E+02  0.12700000000E+01 0.  1.
          4   -1    0    0  501    0  0.00000000000E+00 -0.00000000000E+00 -0.84659773224E+02  0.84669298464E+02  0.12700000000E+01 0.  1.
         25    2    1    2    0    0  0.00000000000E+00  0.00000000000E+00 -0.38539981525E+02  0.13080657283E+03  0.12500011728E+03 0.  0.
    9000005    1    3    3    0    0  0.24459938068E+02  0.32766853459E+02 -0.68723017945E+02  0.79973798530E+02  0.10000000000E+01 0.  0.
    9000005    1    3    3    0    0 -0.24459938068E+02 -0.32766853459E+02  0.30183036420E+02  0.50832774304E+02  0.10000000000E+01 0.  0.
<mgrwt>
<rscale>  0 0.12500012E+03</rscale>
<asrwt>0</asrwt>
<pdfrwt beam="2">  1        4 0.13026658E-01 0.12500012E+03</pdfrwt>
<pdfrwt beam="1">  1       -4 0.70974301E-02 0.12500012E+03</pdfrwt>
<totfact> 0.10327210E+04</totfact>
</mgrwt>
</event>
<event>
 5    1  0.3271306E-002  0.1250032E+03  0.7818608E-02  0.1235064E+00
          4   -1    0    0  501    0  0.00000000000E+00  0.00000000000E+00  0.45116025049E+01  0.46869453978E+01  0.12700000000E+01 0. -1.
         -4   -1    0    0    0  501 -0.00000000000E+00 -0.00000000000E+00 -0.84918620671E+03  0.84918715638E+03  0.12700000000E+01 0. -1.
         25    2    1    2    0    0  0.00000000000E+00  0.00000000000E+00 -0.84467460421E+03  0.85387410178E+03  0.12500317877E+03 0.  0.
    9000005    1    3    3    0    0  0.24918970626E+02 -0.26105340285E+02 -0.73831295359E+02  0.82185789908E+02  0.10000000000E+01 0.  0.
    9000005    1    3    3    0    0 -0.24918970626E+02  0.26105340285E+02 -0.77084330885E+03  0.77168831187E+03  0.10000000000E+01 0.  0.
<mgrwt>
<rscale>  0 0.12500318E+03</rscale>
<asrwt>0</asrwt>
<pdfrwt beam="1">  1        4 0.70765434E-03 0.12500318E+03</pdfrwt>
<pdfrwt beam="2">  1       -4 0.13065747E+00 0.12500318E+03</pdfrwt>
<totfact> 0.35966848E+03</totfact>
</mgrwt>
</event>
<event>
 5    1  0.3271306E-002  0.1249974E+03  0.7818608E-02  0.1235073E+00
          4   -1    0    0  501    0  0.00000000000E+00  0.00000000000E+00  0.69800063019E+01  0.70946027355E+01  0.12700000000E+01 0. -1.
         -4   -1    0    0    0  501 -0.00000000000E+00 -0.00000000000E+00 -0.55493910395E+03  0.55494055717E+03  0.12700000000E+01 0. -1.
         25    2    1    2    0    0  0.00000000000E+00  0.00000000000E+00 -0.54795909765E+03  0.56203515991E+03  0.12499739307E+03 0.  0.
    9000005    1    3    3    0    0  0.15516845500E+02 -0.31721769538E+02 -0.50579565424E+03  0.50702789569E+03  0.10000000000E+01 0.  0.
    9000005    1    3    3    0    0 -0.15516845500E+02  0.31721769538E+02 -0.42163443410E+02  0.55007264221E+02  0.10000000000E+01 0.  0.
<mgrwt>
<rscale>  0 0.12499739E+03</rscale>
<asrwt>0</asrwt>
<pdfrwt beam="1">  1        4 0.10827745E-02 0.12499739E+03</pdfrwt>
<pdfrwt beam="2">  1       -4 0.85384139E-01 0.12499739E+03</pdfrwt>
<totfact> 0.51358192E+03</totfact>
</mgrwt>
</event>
<event>
 5    1  0.3271306E-002  0.1249987E+03  0.7818608E-02  0.1235071E+00
         -4   -1    0    0    0  501 -0.00000000000E+00  0.00000000000E+00  0.13291076006E+02  0.13351614187E+02  0.12700000000E+01 0.  1.
          4   -1    0    0  501    0  0.00000000000E+00 -0.00000000000E+00 -0.29316424149E+03  0.29316699232E+03  0.12700000000E+01 0.  1.
         25    2    1    2    0    0  0.00000000000E+00  0.00000000000E+00 -0.27987316548E+03  0.30651860651E+03  0.12499866951E+03 0.  0.
    9000005    1    3    3    0    0 -0.24163035714E+02  0.55393330398E+02 -0.10094056284E+03  0.11765317919E+03  0.10000000000E+01 0.  0.
    9000005    1    3    3    0    0  0.24163035714E+02 -0.55393330398E+02 -0.17893260264E+03  0.18886542732E+03  0.10000000000E+01 0.  0.
<mgrwt>
<rscale>  0 0.12499867E+03</rscale>
<asrwt>0</asrwt>
<pdfrwt beam="2">  1        4 0.45107054E-01 0.12499867E+03</pdfrwt>
<pdfrwt beam="1">  1       -4 0.20496495E-02 0.12499867E+03</pdfrwt>
<totfact> 0.74790575E+03</totfact>
</mgrwt>
</event>
<event>
 5    1  0.3271306E-002  0.1250010E+03  0.7818608E-02  0.1235068E+00
         -4   -1    0    0    0  501 -0.00000000000E+00  0.00000000000E+00  0.58920973550E+03  0.58921110420E+03  0.12700000000E+01 0. -1.
          4   -1    0    0  501    0  0.00000000000E+00 -0.00000000000E+00 -0.65675376539E+01  0.66892040510E+01  0.12700000000E+01 0. -1.
         25    2    1    2    0    0  0.00000000000E+00  0.00000000000E+00  0.58264219785E+03  0.59590030825E+03  0.12500098663E+03 0.  0.
    9000005    1    3    3    0    0  0.57280142738E+02 -0.13891732682E+02  0.39032636465E+03  0.39475266424E+03  0.10000000000E+01 0.  0.
    9000005    1    3    3    0    0 -0.57280142738E+02  0.13891732682E+02  0.19231583320E+03  0.20114764400E+03  0.10000000000E+01 0.  0.
<mgrwt>
<rscale>  0 0.12500099E+03</rscale>
<asrwt>0</asrwt>
<pdfrwt beam="2">  1        4 0.10198544E-02 0.12500099E+03</pdfrwt>
<pdfrwt beam="1">  1       -4 0.90657133E-01 0.12500099E+03</pdfrwt>
<totfact> 0.49126351E+03</totfact>
</mgrwt>
</event>
<event>
 5    1  0.3271306E-002  0.1249939E+03  0.7818608E-02  0.1235079E+00
          4   -1    0    0  501    0  0.00000000000E+00  0.00000000000E+00  0.17493613785E+02  0.17539652884E+02  0.12700000000E+01 0. -1.
         -4   -1    0    0    0  501 -0.00000000000E+00 -0.00000000000E+00 -0.22293271342E+03  0.22293633085E+03  0.12700000000E+01 0. -1.
         25    2    1    2    0    0  0.00000000000E+00  0.00000000000E+00 -0.20543909964E+03  0.24047598374E+03  0.12499390023E+03 0.  0.
    9000005    1    3    3    0    0 -0.56527547856E+02 -0.13264575216E+02 -0.58279661806E+02  0.82272909287E+02  0.10000000000E+01 0.  0.
    9000005    1    3    3    0    0  0.56527547856E+02  0.13264575216E+02 -0.14715943783E+03  0.15820307445E+03  0.10000000000E+01 0.  0.
<mgrwt>
<rscale>  0 0.12499390E+03</rscale>
<asrwt>0</asrwt>
<pdfrwt beam="1">  1        4 0.26951451E-02 0.12499390E+03</pdfrwt>
<pdfrwt beam="2">  1       -4 0.34301158E-01 0.12499390E+03</pdfrwt>
<totfact> 0.83737916E+03</totfact>
</mgrwt>
</event>
<event>
 5    1  0.3271306E-002  0.1249995E+03  0.7818608E-02  0.1235070E+00
          4   -1    0    0  501    0  0.00000000000E+00  0.00000000000E+00  0.15869941307E+03  0.15870449461E+03  0.12700000000E+01 0.  1.
         -4   -1    0    0    0  501 -0.00000000000E+00 -0.00000000000E+00 -0.24592078025E+02  0.24624849270E+02  0.12700000000E+01 0.  1.
         25    2    1    2    0    0  0.00000000000E+00  0.00000000000E+00  0.13410733504E+03  0.18332934388E+03  0.12499948405E+03 0.  0.
    9000005    1    3    3    0    0 -0.18039497771E+02  0.59668516055E+02  0.73523941777E+02  0.96397745318E+02  0.10000000000E+01 0.  0.
    9000005    1    3    3    0    0  0.18039497771E+02 -0.59668516055E+02  0.60583393266E+02  0.86931598557E+02  0.10000000000E+01 0.  0.
<mgrwt>
<rscale>  0 0.12499948E+03</rscale>
<asrwt>0</asrwt>
<pdfrwt beam="1">  1        4 0.24418206E-01 0.12499948E+03</pdfrwt>
<pdfrwt beam="2">  1       -4 0.37863083E-02 0.12499948E+03</pdfrwt>
<totfact> 0.93022195E+03</totfact>
</mgrwt>
</event>
<event>
 4    1  0.3271306E-002  0.1251306E+03  0.7818608E-02  0.1234865E+00
         -4   -1    0    0    0  501 -0.00000000000E+00  0.00000000000E+00  0.37456981860E+02  0.37478505707E+02  0.12700000000E+01 0.  1.
          4   -1    0    0  501    0  0.00000000000E+00 -0.00000000000E+00 -0.10444899732E+03  0.10445671803E+03  0.12700000000E+01 0.  1.
    9000005    1    1    2    0    0  0.17595255208E+02  0.58047288136E+02 -0.16132056650E+02  0.62771999470E+02  0.10000000000E+01 0.  0.
    9000005    1    1    2    0    0 -0.17595255208E+02 -0.58047288136E+02 -0.50859958808E+02  0.79163224263E+02  0.10000000000E+01 0.  0.
<mgrwt>
<rscale>  0 0.12513064E+03</rscale>
<asrwt>0</asrwt>
<pdfrwt beam="2">  1        4 0.16071326E-01 0.12513064E+03</pdfrwt>
<pdfrwt beam="1">  1       -4 0.57648622E-02 0.12513064E+03</pdfrwt>
<totfact> 0.10063988E+04</totfact>
</mgrwt>
</event>
<event>
 5    1  0.3271306E-002  0.1250033E+03  0.7818608E-02  0.1235064E+00
         -4   -1    0    0    0  501 -0.00000000000E+00  0.00000000000E+00  0.27903768864E+02  0.27932655026E+02  0.12700000000E+01 0.  1.
          4   -1    0    0  501    0  0.00000000000E+00 -0.00000000000E+00 -0.13989335338E+03  0.13989911801E+03  0.12700000000E+01 0.  1.
         25    2    1    2    0    0  0.00000000000E+00  0.00000000000E+00 -0.11198958451E+03  0.16783177303E+03  0.12500334795E+03 0.  0.
    9000005    1    3    3    0    0  0.58248525386E+01  0.61077586180E+02 -0.40048759764E+02  0.73275532064E+02  0.10000000000E+01 0.  0.
    9000005    1    3    3    0    0 -0.58248525386E+01 -0.61077586180E+02 -0.71940824749E+02  0.94556240969E+02  0.10000000000E+01 0.  0.
<mgrwt>
<rscale>  0 0.12500335E+03</rscale>
<asrwt>0</asrwt>
<pdfrwt beam="2">  1        4 0.21524719E-01 0.12500335E+03</pdfrwt>
<pdfrwt beam="1">  1       -4 0.42955530E-02 0.12500335E+03</pdfrwt>
<totfact> 0.95846565E+03</totfact>
</mgrwt>
</event>
<event>
 5    1  0.3271306E-002  0.1249995E+03  0.7818608E-02  0.1235070E+00
         -4   -1    0    0    0  501 -0.00000000000E+00  0.00000000000E+00  0.36059414717E+03  0.36059638361E+03  0.12700000000E+01 0. -1.
          4   -1    0    0  501    0  0.00000000000E+00 -0.00000000000E+00 -0.10793227338E+02  0.10867688640E+02  0.12700000000E+01 0. -1.
         25    2    1    2    0    0  0.00000000000E+00  0.00000000000E+00  0.34980091984E+03  0.37146407225E+03  0.12499949383E+03 0.  0.
    9000005    1    3    3    0    0 -0.45293101694E+02 -0.34851449270E+02  0.25002867838E+03  0.25647890477E+03  0.10000000000E+01 0.  0.
    9000005    1    3    3    0    0  0.45293101694E+02  0.34851449270E+02  0.99772241450E+02  0.11498516748E+03  0.10000000000E+01 0.  0.
<mgrwt>
<rscale>  0 0.12499949E+03</rscale>
<asrwt>0</asrwt>
<pdfrwt beam="2">  1        4 0.16663966E-02 0.12499949E+03</pdfrwt>
<pdfrwt beam="1">  1       -4 0.55481914E-01 0.12499949E+03</pdfrwt>
<totfact> 0.67426804E+03</totfact>
</mgrwt>
</event>
<event>
 5    1  0.3271306E-002  0.1250019E+03  0.7818608E-02  0.1235066E+00
         -4   -1    0    0    0  501 -0.00000000000E+00  0.00000000000E+00  0.30616924559E+02  0.30643253246E+02  0.12700000000E+01 0.  1.
          4   -1    0    0  501    0  0.00000000000E+00 -0.00000000000E+00 -0.12750429687E+03  0.12751062160E+03  0.12700000000E+01 0.  1.
         25    2    1    2    0    0  0.00000000000E+00  0.00000000000E+00 -0.96887372311E+02  0.15815387484E+03  0.12500194084E+03 0.  0.
    9000005    1    3    3    0    0 -0.19278770064E+02 -0.46994897437E+02 -0.94501201745E+02  0.10729244378E+03  0.10000000000E+01 0.  0.
    9000005    1    3    3    0    0  0.19278770064E+02  0.46994897437E+02 -0.23861705660E+01  0.50861431067E+02  0.10000000000E+01 0.  0.
<mgrwt>
<rscale>  0 0.12500194E+03</rscale>
<asrwt>0</asrwt>
<pdfrwt beam="2">  1        4 0.19618557E-01 0.12500194E+03</pdfrwt>
<pdfrwt beam="1">  1       -4 0.47128080E-02 0.12500194E+03</pdfrwt>
<totfact> 0.97695625E+03</totfact>
</mgrwt>
</event>
<event>
 5    1  0.3271306E-002  0.1250021E+03  0.7818608E-02  0.1235066E+00
          4   -1    0    0  501    0  0.00000000000E+00  0.00000000000E+00  0.13711194823E+02  0.13769886109E+02  0.12700000000E+01 0.  1.
         -4   -1    0    0    0  501 -0.00000000000E+00 -0.00000000000E+00 -0.28423603989E+03  0.28423887713E+03  0.12700000000E+01 0.  1.
         25    2    1    2    0    0  0.00000000000E+00  0.00000000000E+00 -0.27052484507E+03  0.29800876324E+03  0.12500212466E+03 0.  0.
    9000005    1    3    3    0    0 -0.14139150107E+02 -0.57015352245E+02 -0.84425159978E+02  0.10285559584E+03  0.10000000000E+01 0.  0.
    9000005    1    3    3    0    0  0.14139150107E+02  0.57015352245E+02 -0.18609968509E+03  0.19515316740E+03  0.10000000000E+01 0.  0.
<mgrwt>
<rscale>  0 0.12500212E+03</rscale>
<asrwt>0</asrwt>
<pdfrwt beam="1">  1        4 0.21141478E-02 0.12500212E+03</pdfrwt>
<pdfrwt beam="2">  1       -4 0.43733350E-01 0.12500212E+03</pdfrwt>
<totfact> 0.75845720E+03</totfact>
</mgrwt>
</event>
<event>
 5    1  0.3271306E-002  0.1250003E+03  0.7818608E-02  0.1235069E+00
          4   -1    0    0  501    0  0.00000000000E+00  0.00000000000E+00  0.34958645437E+01  0.37194043754E+01  0.12700000000E+01 0.  1.
         -4   -1    0    0    0  501 -0.00000000000E+00 -0.00000000000E+00 -0.10825547044E+04  0.10825554493E+04  0.12700000000E+01 0.  1.
         25    2    1    2    0    0  0.00000000000E+00  0.00000000000E+00 -0.10790588398E+04  0.10862748537E+04  0.12500031186E+03 0.  0.
    9000005    1    3    3    0    0  0.16913205580E+02 -0.18414167058E+02 -0.41821843692E+02  0.48736071663E+02  0.10000000000E+01 0.  0.
    9000005    1    3    3    0    0 -0.16913205580E+02  0.18414167058E+02 -0.10372369961E+04  0.10375387820E+04  0.10000000000E+01 0.  0.
<mgrwt>
<rscale>  0 0.12500031E+03</rscale>
<asrwt>0</asrwt>
<pdfrwt beam="1">  1        4 0.55507885E-03 0.12500031E+03</pdfrwt>
<pdfrwt beam="2">  1       -4 0.16656387E+00 0.12500031E+03</pdfrwt>
<totfact> 0.27888453E+03</totfact>
</mgrwt>
</event>
<event>
 5    1  0.3271306E-002  0.1249971E+03  0.7818608E-02  0.1235074E+00
          4   -1    0    0  501    0  0.00000000000E+00  0.00000000000E+00  0.63351433970E+01  0.64611873414E+01  0.12700000000E+01 0. -1.
         -4   -1    0    0    0  501 -0.00000000000E+00 -0.00000000000E+00 -0.61037126954E+03  0.61037259078E+03  0.12700000000E+01 0. -1.
         25    2    1    2    0    0  0.00000000000E+00  0.00000000000E+00 -0.60403612614E+03  0.61683377813E+03  0.12499707257E+03 0.  0.
    9000005    1    3    3    0    0  0.30125388630E+02 -0.52642370223E+02 -0.22778129110E+03  0.23572033166E+03  0.10000000000E+01 0.  0.
    9000005    1    3    3    0    0 -0.30125388630E+02  0.52642370223E+02 -0.37625483505E+03  0.38111344647E+03  0.10000000000E+01 0.  0.
<mgrwt>
<rscale>  0 0.12499707E+03</rscale>
<asrwt>0</asrwt>
<pdfrwt beam="1">  1        4 0.98443525E-03 0.12499707E+03</pdfrwt>
<pdfrwt beam="2">  1       -4 0.93913023E-01 0.12499707E+03</pdfrwt>
<totfact> 0.47825053E+03</totfact>
</mgrwt>
</event>
<event>
 5    1  0.3271306E-002  0.1250028E+03  0.7818608E-02  0.1235065E+00
          4   -1    0    0  501    0  0.00000000000E+00  0.00000000000E+00  0.17773085573E+04  0.17773090110E+04  0.12700000000E+01 0.  1.
         -4   -1    0    0    0  501 -0.00000000000E+00 -0.00000000000E+00 -0.20139985562E+01  0.23809851289E+01  0.12700000000E+01 0.  1.
         25    2    1    2    0    0  0.00000000000E+00  0.00000000000E+00  0.17752945587E+04  0.17796899962E+04  0.12500284871E+03 0.  0.
    9000005    1    3    3    0    0 -0.40253372671E+02 -0.44281500739E+02  0.11440127738E+04  0.11455773269E+04  0.10000000000E+01 0.  0.
    9000005    1    3    3    0    0  0.40253372671E+02  0.44281500739E+02  0.63128178492E+03  0.63411266924E+03  0.10000000000E+01 0.  0.
<mgrwt>
<rscale>  0 0.12500285E+03</rscale>
<asrwt>0</asrwt>
<pdfrwt beam="1">  1        4 0.27346019E+00 0.12500285E+03</pdfrwt>
<pdfrwt beam="2">  1       -4 0.33811077E-03 0.12500285E+03</pdfrwt>
<totfact> 0.13018208E+03</totfact>
</mgrwt>
</event>
<event>
 5    1  0.3271306E-002  0.1250040E+03  0.7818608E-02  0.1235063E+00
          4   -1    0    0  501    0  0.00000000000E+00  0.00000000000E+00  0.33071879299E+03  0.33072123146E+03  0.12700000000E+01 0. -1.
         -4   -1    0    0    0  501 -0.00000000000E+00 -0.00000000000E+00 -0.11775516784E+02  0.11843804099E+02  0.12700000000E+01 0. -1.
         25    2    1    2    0    0  0.00000000000E+00  0.00000000000E+00  0.31894327621E+03  0.34256503556E+03  0.12500396053E+03 0.  0.
    9000005    1    3    3    0    0  0.11862743461E+02 -0.58875524571E+02  0.20681419941E+03  0.21536054688E+03  0.10000000000E+01 0.  0.
    9000005    1    3    3    0    0 -0.11862743461E+02  0.58875524571E+02  0.11212907680E+03  0.12720448868E+03  0.10000000000E+01 0.  0.
<mgrwt>
<rscale>  0 0.12500396E+03</rscale>
<asrwt>0</asrwt>
<pdfrwt beam="1">  1        4 0.50885248E-01 0.12500396E+03</pdfrwt>
<pdfrwt beam="2">  1       -4 0.18170586E-02 0.12500396E+03</pdfrwt>
<totfact> 0.70544129E+03</totfact>
</mgrwt>
</event>
<event>
 5    1  0.3271306E-002  0.1249979E+03  0.7818608E-02  0.1235073E+00
         -4   -1    0    0    0  501 -0.00000000000E+00  0.00000000000E+00  0.78772988756E+02  0.78783225737E+02  0.12700000000E+01 0. -1.
          4   -1    0    0  501    0  0.00000000000E+00 -0.00000000000E+00 -0.49565399828E+02  0.49581667580E+02  0.12700000000E+01 0. -1.
         25    2    1    2    0    0  0.00000000000E+00  0.00000000000E+00  0.29207588928E+02  0.12836489332E+03  0.12499785032E+03 0.  0.
    9000005    1    3    3    0    0 -0.13889781768E+02 -0.45715910145E+02  0.55965835836E+02  0.73593785463E+02  0.10000000000E+01 0.  0.
    9000005    1    3    3    0    0  0.13889781768E+02  0.45715910145E+02 -0.26758246908E+02  0.54771107854E+02  0.10000000000E+01 0.  0.
<mgrwt>
<rscale>  0 0.12499785E+03</rscale>
<asrwt>0</asrwt>
<pdfrwt beam="2">  1        4 0.76274850E-02 0.12499785E+03</pdfrwt>
<pdfrwt beam="1">  1       -4 0.12120960E-01 0.12499785E+03</pdfrwt>
<totfact> 0.10380119E+04</totfact>
</mgrwt>
</event>
<event>
 5    1  0.3271306E-002  0.1249986E+03  0.7818608E-02  0.1235072E+00
         -4   -1    0    0    0  501 -0.00000000000E+00  0.00000000000E+00  0.92170647211E+02  0.92179396328E+02  0.12700000000E+01 0.  1.
          4   -1    0    0  501    0  0.00000000000E+00 -0.00000000000E+00 -0.42359372503E+02  0.42378406516E+02  0.12700000000E+01 0.  1.
         25    2    1    2    0    0  0.00000000000E+00  0.00000000000E+00  0.49811274708E+02  0.13455780284E+03  0.12499855686E+03 0.  0.
    9000005    1    3    3    0    0  0.57638319246E+02 -0.12939669310E+02  0.46849595460E+02  0.75402224650E+02  0.10000000000E+01 0.  0.
    9000005    1    3    3    0    0 -0.57638319246E+02  0.12939669310E+02  0.29616792479E+01  0.59155578193E+02  0.10000000000E+01 0.  0.
<mgrwt>
<rscale>  0 0.12499856E+03</rscale>
<asrwt>0</asrwt>
<pdfrwt beam="2">  1        4 0.65189637E-02 0.12499856E+03</pdfrwt>
<pdfrwt beam="1">  1       -4 0.14182237E-01 0.12499856E+03</pdfrwt>
<totfact> 0.10247733E+04</totfact>
</mgrwt>
</event>
<event>
 5    1  0.3271306E-002  0.1250040E+03  0.7818608E-02  0.1235063E+00
          4   -1    0    0  501    0  0.00000000000E+00  0.00000000000E+00  0.28387851545E+02  0.28416245623E+02  0.12700000000E+01 0.  1.
         -4   -1    0    0    0  501 -0.00000000000E+00 -0.00000000000E+00 -0.13751161844E+03  0.13751748291E+03  0.12700000000E+01 0.  1.
         25    2    1    2    0    0  0.00000000000E+00  0.00000000000E+00 -0.10912376690E+03  0.16593372854E+03  0.12500402299E+03 0.  0.
    9000005    1    3    3    0    0  0.55249962417E+02 -0.16247375277E+02 -0.86776706756E+02  0.10415244782E+03  0.10000000000E+01 0.  0.
    9000005    1    3    3    0    0 -0.55249962417E+02  0.16247375277E+02 -0.22347060140E+02  0.61781280720E+02  0.10000000000E+01 0.  0.
<mgrwt>
<rscale>  0 0.12500402E+03</rscale>
<asrwt>0</asrwt>
<pdfrwt beam="1">  1        4 0.43699971E-02 0.12500402E+03</pdfrwt>
<pdfrwt beam="2">  1       -4 0.21158269E-01 0.12500402E+03</pdfrwt>
<totfact> 0.96202157E+03</totfact>
</mgrwt>
</event>
<event>
 5    1  0.3271306E-002  0.1249890E+03  0.7818608E-02  0.1235086E+00
          4   -1    0    0  501    0  0.00000000000E+00  0.00000000000E+00  0.48285138270E+02  0.48301837208E+02  0.12700000000E+01 0. -1.
         -4   -1    0    0    0  501 -0.00000000000E+00 -0.00000000000E+00 -0.80849722183E+02  0.80859696246E+02  0.12700000000E+01 0. -1.
         25    2    1    2    0    0  0.00000000000E+00  0.00000000000E+00 -0.32564583913E+02  0.12916153345E+03  0.12498899791E+03 0.  0.
    9000005    1    3    3    0    0 -0.11653130232E+02 -0.60047874253E+02 -0.30881387711E+01  0.61254218203E+02  0.10000000000E+01 0.  0.
    9000005    1    3    3    0    0  0.11653130232E+02  0.60047874253E+02 -0.29476445142E+02  0.67907315252E+02  0.10000000000E+01 0.  0.
<mgrwt>
<rscale>  0 0.12498900E+03</rscale>
<asrwt>0</asrwt>
<pdfrwt beam="1">  1        4 0.74305346E-02 0.12498900E+03</pdfrwt>
<pdfrwt beam="2">  1       -4 0.12440471E-01 0.12498900E+03</pdfrwt>
<totfact> 0.10365051E+04</totfact>
</mgrwt>
</event>
<event>
 5    1  0.3271306E-002  0.1249996E+03  0.7818608E-02  0.1235070E+00
         -4   -1    0    0    0  501 -0.00000000000E+00  0.00000000000E+00  0.29481339596E+02  0.29508681508E+02  0.12700000000E+01 0. -1.
          4   -1    0    0  501    0  0.00000000000E+00 -0.00000000000E+00 -0.13240651875E+03  0.13241260932E+03  0.12700000000E+01 0. -1.
         25    2    1    2    0    0  0.00000000000E+00  0.00000000000E+00 -0.10292517915E+03  0.16192129083E+03  0.12499964768E+03 0.  0.
    9000005    1    3    3    0    0  0.61317978538E+01 -0.31916049683E+02  0.17679260694E+02  0.37010666449E+02  0.10000000000E+01 0.  0.
    9000005    1    3    3    0    0 -0.61317978538E+01  0.31916049683E+02 -0.12060443985E+03  0.12491062438E+03  0.10000000000E+01 0.  0.
<mgrwt>
<rscale>  0 0.12499965E+03</rscale>
<asrwt>0</asrwt>
<pdfrwt beam="2">  1        4 0.20372805E-01 0.12499965E+03</pdfrwt>
<pdfrwt beam="1">  1       -4 0.45381625E-02 0.12499965E+03</pdfrwt>
<totfact> 0.96974417E+03</totfact>
</mgrwt>
</event>
<event>
 5    1  0.3271306E-002  0.1250163E+03  0.7818608E-02  0.1235044E+00
          4   -1    0    0  501    0  0.00000000000E+00  0.00000000000E+00  0.26915964266E+01  0.29761705804E+01  0.12700000000E+01 0. -1.
         -4   -1    0    0    0  501 -0.00000000000E+00 -0.00000000000E+00 -0.13784831917E+04  0.13784837767E+04  0.12700000000E+01 0. -1.
         25    2    1    2    0    0  0.00000000000E+00  0.00000000000E+00 -0.13757915953E+04  0.13814599473E+04  0.12501628850E+03 0.  0.
    9000005    1    3    3    0    0  0.32224756443E+00  0.60058582754E+02 -0.87901412205E+03  0.88106410889E+03  0.10000000000E+01 0.  0.
    9000005    1    3    3    0    0 -0.32224756443E+00 -0.60058582754E+02 -0.49677747321E+03  0.50039583841E+03  0.10000000000E+01 0.  0.
<mgrwt>
<rscale>  0 0.12501629E+03</rscale>
<asrwt>0</asrwt>
<pdfrwt beam="1">  1        4 0.43602818E-03 0.12501629E+03</pdfrwt>
<pdfrwt beam="2">  1       -4 0.21209574E+00 0.12501629E+03</pdfrwt>
<totfact> 0.20375135E+03</totfact>
</mgrwt>
</event>
<event>
 5    1  0.3271306E-002  0.1249991E+03  0.7818608E-02  0.1235071E+00
         -4   -1    0    0    0  501 -0.00000000000E+00  0.00000000000E+00  0.69654755447E+02  0.69666332302E+02  0.12700000000E+01 0.  1.
          4   -1    0    0  501    0  0.00000000000E+00 -0.00000000000E+00 -0.56055954937E+02  0.56070339609E+02  0.12700000000E+01 0.  1.
         25    2    1    2    0    0  0.00000000000E+00  0.00000000000E+00  0.13598800511E+02  0.12573667191E+03  0.12499913315E+03 0.  0.
    9000005    1    3    3    0    0 -0.52530584180E+02 -0.21100332188E+02 -0.19823905720E+02  0.59988945072E+02  0.10000000000E+01 0.  0.
    9000005    1    3    3    0    0  0.52530584180E+02  0.21100332188E+02  0.33422706231E+02  0.65747726840E+02  0.10000000000E+01 0.  0.
<mgrwt>
<rscale>  0 0.12499913E+03</rscale>
<asrwt>0</asrwt>
<pdfrwt beam="2">  1        4 0.86259902E-02 0.12499913E+03</pdfrwt>
<pdfrwt beam="1">  1       -4 0.10718113E-01 0.12499913E+03</pdfrwt>
<totfact> 0.10436942E+04</totfact>
</mgrwt>
</event>
<event>
 5    1  0.3271306E-002  0.1249715E+03  0.7818608E-02  0.1235114E+00
          4   -1    0    0  501    0  0.00000000000E+00  0.00000000000E+00  0.23985841562E+01  0.27140571023E+01  0.12700000000E+01 0. -1.
         -4   -1    0    0    0  501 -0.00000000000E+00 -0.00000000000E+00 -0.15270631819E+04  0.15270637100E+04  0.12700000000E+01 0. -1.
         25    2    1    2    0    0  0.00000000000E+00  0.00000000000E+00 -0.15246645978E+04  0.15297777671E+04  0.12497152125E+03 0.  0.
    9000005    1    3    3    0    0  0.26212456762E+01  0.62422621493E+02 -0.76386501039E+03  0.76641647210E+03  0.10000000000E+01 0.  0.
    9000005    1    3    3    0    0 -0.26212456762E+01 -0.62422621493E+02 -0.76079958739E+03  0.76336129505E+03  0.10000000000E+01 0.  0.
<mgrwt>
<rscale>  0 0.12497152E+03</rscale>
<asrwt>0</asrwt>
<pdfrwt beam="1">  1        4 0.39332194E-03 0.12497152E+03</pdfrwt>
<pdfrwt beam="2">  1       -4 0.23495638E+00 0.12497152E+03</pdfrwt>
<totfact> 0.17363319E+03</totfact>
</mgrwt>
</event>
<event>
 5    1  0.3271306E-002  0.1249978E+03  0.7818608E-02  0.1235073E+00
          4   -1    0    0  501    0  0.00000000000E+00  0.00000000000E+00  0.18870823247E+01  0.22746383669E+01  0.12700000000E+01 0. -1.
         -4   -1    0    0    0  501 -0.00000000000E+00 -0.00000000000E+00 -0.18767750994E+04  0.18767755291E+04  0.12700000000E+01 0. -1.
         25    2    1    2    0    0  0.00000000000E+00  0.00000000000E+00 -0.18748880170E+04  0.18790501674E+04  0.12499782112E+03 0.  0.
    9000005    1    3    3    0    0  0.19706186275E+02  0.58878785018E+02 -0.10438140110E+04  0.10456594736E+04  0.10000000000E+01 0.  0.
    9000005    1    3    3    0    0 -0.19706186275E+02 -0.58878785018E+02 -0.83107400604E+03  0.83339069386E+03  0.10000000000E+01 0.  0.
<mgrwt>
<rscale>  0 0.12499782E+03</rscale>
<asrwt>0</asrwt>
<pdfrwt beam="1">  1        4 0.32016691E-03 0.12499782E+03</pdfrwt>
<pdfrwt beam="2">  1       -4 0.28876312E+00 0.12499782E+03</pdfrwt>
<totfact> 0.11524356E+03</totfact>
</mgrwt>
</event>
<event>
 5    1  0.3271306E-002  0.1250010E+03  0.7818608E-02  0.1235068E+00
          4   -1    0    0  501    0  0.00000000000E+00  0.00000000000E+00  0.38344343639E+02  0.38365369660E+02  0.12700000000E+01 0. -1.
         -4   -1    0    0    0  501 -0.00000000000E+00 -0.00000000000E+00 -0.10182166808E+03  0.10182958799E+03  0.12700000000E+01 0. -1.
         25    2    1    2    0    0  0.00000000000E+00  0.00000000000E+00 -0.63477324436E+02  0.14019495765E+03  0.12500102172E+03 0.  0.
    9000005    1    3    3    0    0  0.91516877413E+01  0.58354208516E+02 -0.88538972820E+01  0.59735739194E+02  0.10000000000E+01 0.  0.
    9000005    1    3    3    0    0 -0.91516877413E+01 -0.58354208516E+02 -0.54623427154E+02  0.80459218453E+02  0.10000000000E+01 0.  0.
<mgrwt>
<rscale>  0 0.12500102E+03</rscale>
<asrwt>0</asrwt>
<pdfrwt beam="1">  1        4 0.59013564E-02 0.12500102E+03</pdfrwt>
<pdfrwt beam="2">  1       -4 0.15667099E-01 0.12500102E+03</pdfrwt>
<totfact> 0.10129314E+04</totfact>
</mgrwt>
</event>
<event>
 5    1  0.3271306E-002  0.1249952E+03  0.7818608E-02  0.1235077E+00
          4   -1    0    0  501    0  0.00000000000E+00  0.00000000000E+00  0.11128822931E+02  0.11201053514E+02  0.12700000000E+01 0.  1.
         -4   -1    0    0    0  501 -0.00000000000E+00 -0.00000000000E+00 -0.34976728811E+03  0.34976959378E+03  0.12700000000E+01 0.  1.
         25    2    1    2    0    0  0.00000000000E+00  0.00000000000E+00 -0.33863846518E+03  0.36097064729E+03  0.12499519234E+03 0.  0.
    9000005    1    3    3    0    0 -0.31234466518E+02 -0.39575423116E+02 -0.62696607762E+02  0.80459124021E+02  0.10000000000E+01 0.  0.
    9000005    1    3    3    0    0  0.31234466518E+02  0.39575423116E+02 -0.27594185742E+03  0.28051152327E+03  0.10000000000E+01 0.  0.
<mgrwt>
<rscale>  0 0.12499519E+03</rscale>
<asrwt>0</asrwt>
<pdfrwt beam="1">  1        4 0.17178604E-02 0.12499519E+03</pdfrwt>
<pdfrwt beam="2">  1       -4 0.53816077E-01 0.12499519E+03</pdfrwt>
<totfact> 0.68541568E+03</totfact>
</mgrwt>
</event>
<event>
 5    1  0.3271306E-002  0.1249989E+03  0.7818608E-02  0.1235071E+00
         -4   -1    0    0    0  501 -0.00000000000E+00  0.00000000000E+00  0.97815065272E+01  0.98636083632E+01  0.12700000000E+01 0. -1.
          4   -1    0    0  501    0  0.00000000000E+00 -0.00000000000E+00 -0.39759119653E+03  0.39759322486E+03  0.12700000000E+01 0. -1.
         25    2    1    2    0    0  0.00000000000E+00  0.00000000000E+00 -0.38780969000E+03  0.40745683322E+03  0.12499886113E+03 0.  0.
    9000005    1    3    3    0    0  0.35357048009E+02 -0.29234873806E+02 -0.55593547643E+02  0.72086345655E+02  0.10000000000E+01 0.  0.
    9000005    1    3    3    0    0 -0.35357048009E+02  0.29234873806E+02 -0.33221614236E+03  0.33537048757E+03  0.10000000000E+01 0.  0.
<mgrwt>
<rscale>  0 0.12499886E+03</rscale>
<asrwt>0</asrwt>
<pdfrwt beam="2">  1        4 0.61174335E-01 0.12499886E+03</pdfrwt>
<pdfrwt beam="1">  1       -4 0.15113190E-02 0.12499886E+03</pdfrwt>
<totfact> 0.63835561E+03</totfact>
</mgrwt>
</event>
<event>
 5    1  0.3271306E-002  0.1250002E+03  0.7818608E-02  0.1235069E+00
         -4   -1    0    0    0  501 -0.00000000000E+00  0.00000000000E+00  0.38252169635E+01  0.40305315801E+01  0.12700000000E+01 0.  1.
          4   -1    0    0  501    0  0.00000000000E+00 -0.00000000000E+00 -0.99429185347E+03  0.99429266454E+03  0.12700000000E+01 0.  1.
         25    2    1    2    0    0  0.00000000000E+00  0.00000000000E+00 -0.99046663650E+03  0.99832319613E+03  0.12500018359E+03 0.  0.
    9000005    1    3    3    0    0  0.29641731649E+01 -0.58713225246E+02 -0.66450956243E+03  0.66710567956E+03  0.10000000000E+01 0.  0.
    9000005    1    3    3    0    0 -0.29641731649E+01  0.58713225246E+02 -0.32595707408E+03  0.33121751657E+03  0.10000000000E+01 0.  0.
<mgrwt>
<rscale>  0 0.12500018E+03</rscale>
<asrwt>0</asrwt>
<pdfrwt beam="2">  1        4 0.15298363E+00 0.12500018E+03</pdfrwt>
<pdfrwt beam="1">  1       -4 0.60435153E-03 0.12500018E+03</pdfrwt>
<totfact> 0.30659831E+03</totfact>
</mgrwt>
</event>
<event>
 5    1  0.3271306E-002  0.1249966E+03  0.7818608E-02  0.1235075E+00
         -4   -1    0    0    0  501 -0.00000000000E+00  0.00000000000E+00  0.63229346010E+03  0.63229473553E+03  0.12700000000E+01 0.  1.
          4   -1    0    0  501    0  0.00000000000E+00 -0.00000000000E+00 -0.61110002209E+01  0.62415722138E+01  0.12700000000E+01 0.  1.
         25    2    1    2    0    0  0.00000000000E+00  0.00000000000E+00  0.62618245988E+03  0.63853630775E+03  0.12499657297E+03 0.  0.
    9000005    1    3    3    0    0 -0.52889456302E+02  0.48324443074E+01  0.48131214216E+03  0.48423447346E+03  0.10000000000E+01 0.  0.
    9000005    1    3    3    0    0  0.52889456302E+02 -0.48324443074E+01  0.14487031772E+03  0.15430183428E+03  0.10000000000E+01 0.  0.
<mgrwt>
<rscale>  0 0.12499657E+03</rscale>
<asrwt>0</asrwt>
<pdfrwt beam="2">  1        4 0.95029606E-03 0.12499657E+03</pdfrwt>
<pdfrwt beam="1">  1       -4 0.97286052E-01 0.12499657E+03</pdfrwt>
<totfact> 0.46525524E+03</totfact>
</mgrwt>
</event>
<event>
 5    1  0.3271306E-002  0.1249850E+03  0.7818608E-02  0.1235093E+00
         -4   -1    0    0    0  501 -0.00000000000E+00  0.00000000000E+00  0.57332277362E+03  0.57332418024E+03  0.12700000000E+01 0. -1.
          4   -1    0    0  501    0  0.00000000000E+00 -0.00000000000E+00 -0.67510905143E+01  0.68695067604E+01  0.12700000000E+01 0. -1.
         25    2    1    2    0    0  0.00000000000E+00  0.00000000000E+00  0.56657168310E+03  0.58019368700E+03  0.12498496846E+03 0.  0.
    9000005    1    3    3    0    0  0.48046067270E+02  0.21039024342E+02  0.44092934965E+03  0.44403913849E+03  0.10000000000E+01 0.  0.
    9000005    1    3    3    0    0 -0.48046067270E+02 -0.21039024342E+02  0.12564233345E+03  0.13615454851E+03  0.10000000000E+01 0.  0.
<mgrwt>
<rscale>  0 0.12498497E+03</rscale>
<asrwt>0</asrwt>
<pdfrwt beam="2">  1        4 0.10478464E-02 0.12498497E+03</pdfrwt>
<pdfrwt beam="1">  1       -4 0.88212723E-01 0.12498497E+03</pdfrwt>
<totfact> 0.50158731E+03</totfact>
</mgrwt>
</event>
<event>
 5    1  0.3271306E-002  0.1250208E+03  0.7818608E-02  0.1235037E+00
          4   -1    0    0  501    0  0.00000000000E+00  0.00000000000E+00  0.85582789997E+02  0.85592212517E+02  0.12700000000E+01 0.  1.
         -4   -1    0    0    0  501 -0.00000000000E+00 -0.00000000000E+00 -0.45637358226E+02  0.45655025636E+02  0.12700000000E+01 0.  1.
         25    2    1    2    0    0  0.00000000000E+00  0.00000000000E+00  0.39945431771E+02  0.13124723815E+03  0.12502079828E+03 0.  0.
    9000005    1    3    3    0    0  0.30526703759E+02  0.21567904841E+02 -0.32617038879E+02  0.49617793047E+02  0.10000000000E+01 0.  0.
    9000005    1    3    3    0    0 -0.30526703759E+02 -0.21567904841E+02  0.72562470650E+02  0.81629445107E+02  0.10000000000E+01 0.  0.
<mgrwt>
<rscale>  0 0.12502080E+03</rscale>
<asrwt>0</asrwt>
<pdfrwt beam="1">  1        4 0.13168667E-01 0.12502080E+03</pdfrwt>
<pdfrwt beam="2">  1       -4 0.70232159E-02 0.12502080E+03</pdfrwt>
<totfact> 0.10312952E+04</totfact>
</mgrwt>
</event>
<event>
 5    1  0.3271306E-002  0.1250072E+03  0.7818608E-02  0.1235058E+00
         -4   -1    0    0    0  501 -0.00000000000E+00  0.00000000000E+00  0.16875592161E+02  0.16923312642E+02  0.12700000000E+01 0.  1.
          4   -1    0    0  501    0  0.00000000000E+00 -0.00000000000E+00 -0.23112356935E+03  0.23112705858E+03  0.12700000000E+01 0.  1.
         25    2    1    2    0    0  0.00000000000E+00  0.00000000000E+00 -0.21424797719E+03  0.24805037122E+03  0.12500716354E+03 0.  0.
    9000005    1    3    3    0    0 -0.59942084532E+02 -0.64383376752E+01 -0.74446892718E+02  0.95801072674E+02  0.10000000000E+01 0.  0.
    9000005    1    3    3    0    0  0.59942084532E+02  0.64383376752E+01 -0.13980108447E+03  0.15224929855E+03  0.10000000000E+01 0.  0.
<mgrwt>
<rscale>  0 0.12500716E+03</rscale>
<asrwt>0</asrwt>
<pdfrwt beam="2">  1        4 0.35561409E-01 0.12500716E+03</pdfrwt>
<pdfrwt beam="1">  1       -4 0.26001843E-02 0.12500716E+03</pdfrwt>
<totfact> 0.82599646E+03</totfact>
</mgrwt>
</event>
<event>
 5    1  0.3271306E-002  0.1250031E+03  0.7818608E-02  0.1235064E+00
          4   -1    0    0  501    0  0.00000000000E+00  0.00000000000E+00  0.24895883624E+03  0.24896207551E+03  0.12700000000E+01 0.  1.
         -4   -1    0    0    0  501 -0.00000000000E+00 -0.00000000000E+00 -0.15662083477E+02  0.15713489710E+02  0.12700000000E+01 0.  1.
         25    2    1    2    0    0  0.00000000000E+00  0.00000000000E+00  0.23329675277E+03  0.26467556522E+03  0.12500311986E+03 0.  0.
    9000005    1    3    3    0    0 -0.34366325861E+02 -0.44054488256E+02  0.17591919972E+03  0.18458170851E+03  0.10000000000E+01 0.  0.
    9000005    1    3    3    0    0  0.34366325861E+02  0.44054488256E+02  0.57377553048E+02  0.80093856709E+02  0.10000000000E+01 0.  0.
<mgrwt>
<rscale>  0 0.12500312E+03</rscale>
<asrwt>0</asrwt>
<pdfrwt beam="1">  1        4 0.38305560E-01 0.12500312E+03</pdfrwt>
<pdfrwt beam="2">  1       -4 0.24137550E-02 0.12500312E+03</pdfrwt>
<totfact> 0.80248787E+03</totfact>
</mgrwt>
</event>
<event>
 5    1  0.3271306E-002  0.1250035E+03  0.7818608E-02  0.1235064E+00
         -4   -1    0    0    0  501 -0.00000000000E+00  0.00000000000E+00  0.59761958776E+02  0.59775451623E+02  0.12700000000E+01 0.  1.
          4   -1    0    0  501    0  0.00000000000E+00 -0.00000000000E+00 -0.65340153299E+02  0.65352494468E+02  0.12700000000E+01 0.  1.
         25    2    1    2    0    0  0.00000000000E+00  0.00000000000E+00 -0.55781945235E+01  0.12512794609E+03  0.12500354650E+03 0.  0.
    9000005    1    3    3    0    0  0.34726895863E+02  0.49900424342E+02  0.11698108170E+02  0.61918134505E+02  0.10000000000E+01 0.  0.
    9000005    1    3    3    0    0 -0.34726895863E+02 -0.49900424342E+02 -0.17276302693E+02  0.63209811585E+02  0.10000000000E+01 0.  0.
<mgrwt>
<rscale>  0 0.12500355E+03</rscale>
<asrwt>0</asrwt>
<pdfrwt beam="2">  1        4 0.10054319E-01 0.12500355E+03</pdfrwt>
<pdfrwt beam="1">  1       -4 0.91961347E-02 0.12500355E+03</pdfrwt>
<totfact> 0.10449247E+04</totfact>
</mgrwt>
</event>
<event>
 5    1  0.3271306E-002  0.1249998E+03  0.7818608E-02  0.1235070E+00
         -4   -1    0    0    0  501 -0.00000000000E+00  0.00000000000E+00  0.61134481289E+03  0.61134613203E+03  0.12700000000E+01 0.  1.
          4   -1    0    0  501    0  0.00000000000E+00 -0.00000000000E+00 -0.63251345445E+01  0.64513740401E+01  0.12700000000E+01 0.  1.
         25    2    1    2    0    0  0.00000000000E+00  0.00000000000E+00  0.60501967834E+03  0.61779750607E+03  0.12499978928E+03 0.  0.
    9000005    1    3    3    0    0  0.22409262038E+02  0.47979439633E+02  0.13851224870E+03  0.14829310399E+03  0.10000000000E+01 0.  0.
    9000005    1    3    3    0    0 -0.22409262038E+02 -0.47979439633E+02  0.46650742965E+03  0.46950440208E+03  0.10000000000E+01 0.  0.
<mgrwt>
<rscale>  0 0.12499979E+03</rscale>
<asrwt>0</asrwt>
<pdfrwt beam="2">  1        4 0.98290963E-03 0.12499979E+03</pdfrwt>
<pdfrwt beam="1">  1       -4 0.94062879E-01 0.12499979E+03</pdfrwt>
<totfact> 0.47763325E+03</totfact>
</mgrwt>
</event>
<event>
 5    1  0.3271306E-002  0.1250056E+03  0.7818608E-02  0.1235061E+00
          4   -1    0    0  501    0  0.00000000000E+00  0.00000000000E+00  0.28344417241E+03  0.28344701757E+03  0.12700000000E+01 0. -1.
         -4   -1    0    0    0  501 -0.00000000000E+00 -0.00000000000E+00 -0.13750434271E+02  0.13808958782E+02  0.12700000000E+01 0. -1.
         25    2    1    2    0    0  0.00000000000E+00  0.00000000000E+00  0.26969373813E+03  0.29725597635E+03  0.12500561223E+03 0.  0.
    9000005    1    3    3    0    0  0.12505492891E+02  0.54274582151E-01 -0.10756355896E+02  0.16525419521E+02  0.10000000000E+01 0.  0.
    9000005    1    3    3    0    0 -0.12505492891E+02 -0.54274582151E-01  0.28045009403E+03  0.28073055683E+03  0.10000000000E+01 0.  0.
<mgrwt>
<rscale>  0 0.12500561E+03</rscale>
<asrwt>0</asrwt>
<pdfrwt beam="1">  1        4 0.43611511E-01 0.12500561E+03</pdfrwt>
<pdfrwt beam="2">  1       -4 0.21201724E-02 0.12500561E+03</pdfrwt>
<totfact> 0.75934878E+03</totfact>
</mgrwt>
</event>
<event>
 5    1  0.3271306E-002  0.1250221E+03  0.7818608E-02  0.1235035E+00
         -4   -1    0    0    0  501 -0.00000000000E+00  0.00000000000E+00  0.13480623254E+03  0.13481221470E+03  0.12700000000E+01 0.  1.
          4   -1    0    0  501    0  0.00000000000E+00 -0.00000000000E+00 -0.28966474145E+02  0.28994301585E+02  0.12700000000E+01 0.  1.
         25    2    1    2    0    0  0.00000000000E+00  0.00000000000E+00  0.10583975840E+03  0.16380651629E+03  0.12502207933E+03 0.  0.
    9000005    1    3    3    0    0 -0.25391999039E+02  0.65521530356E+01  0.12725623821E+03  0.12993396203E+03  0.10000000000E+01 0.  0.
    9000005    1    3    3    0    0  0.25391999039E+02 -0.65521530356E+01 -0.21416479811E+02  0.33872554260E+02  0.10000000000E+01 0.  0.
<mgrwt>
<rscale>  0 0.12502208E+03</rscale>
<asrwt>0</asrwt>
<pdfrwt beam="2">  1        4 0.44589814E-02 0.12502208E+03</pdfrwt>
<pdfrwt beam="1">  1       -4 0.20742021E-01 0.12502208E+03</pdfrwt>
<totfact> 0.96565985E+03</totfact>
</mgrwt>
</event>
<event>
 5    1  0.3271306E-002  0.1250116E+03  0.7818608E-02  0.1235051E+00
         -4   -1    0    0    0  501 -0.00000000000E+00  0.00000000000E+00  0.40180629687E+01  0.42139921714E+01  0.12700000000E+01 0.  1.
          4   -1    0    0  501    0  0.00000000000E+00 -0.00000000000E+00 -0.94901435918E+03  0.94901520895E+03  0.12700000000E+01 0.  1.
         25    2    1    2    0    0  0.00000000000E+00  0.00000000000E+00 -0.94499629621E+03  0.95322920112E+03  0.12501163957E+03 0.  0.
    9000005    1    3    3    0    0 -0.53127442875E+02 -0.31779779440E+02 -0.40712724737E+03  0.41180829899E+03  0.10000000000E+01 0.  0.
    9000005    1    3    3    0    0  0.53127442875E+02  0.31779779440E+02 -0.53786904884E+03  0.54142090213E+03  0.10000000000E+01 0.  0.
<mgrwt>
<rscale>  0 0.12501164E+03</rscale>
<asrwt>0</asrwt>
<pdfrwt beam="2">  1        4 0.14601717E+00 0.12501164E+03</pdfrwt>
<pdfrwt beam="1">  1       -4 0.63330113E-03 0.12501164E+03</pdfrwt>
<totfact> 0.32193459E+03</totfact>
</mgrwt>
</event>
<event>
 5    1  0.3271306E-002  0.1249995E+03  0.7818608E-02  0.1235070E+00
          4   -1    0    0  501    0  0.00000000000E+00  0.00000000000E+00  0.35786913770E+03  0.35787139117E+03  0.12700000000E+01 0. -1.
         -4   -1    0    0    0  501 -0.00000000000E+00 -0.00000000000E+00 -0.10875970040E+02  0.10949868689E+02  0.12700000000E+01 0. -1.
         25    2    1    2    0    0  0.00000000000E+00  0.00000000000E+00  0.34699316766E+03  0.36882125986E+03  0.12499945328E+03 0.  0.
    9000005    1    3    3    0    0 -0.55575516569E+02  0.22789647078E+02  0.12262920285E+03  0.13655375296E+03  0.10000000000E+01 0.  0.
    9000005    1    3    3    0    0  0.55575516569E+02 -0.22789647078E+02  0.22436396481E+03  0.23226750690E+03  0.10000000000E+01 0.  0.
<mgrwt>
<rscale>  0 0.12499945E+03</rscale>
<asrwt>0</asrwt>
<pdfrwt beam="1">  1        4 0.55062645E-01 0.12499945E+03</pdfrwt>
<pdfrwt beam="2">  1       -4 0.16790841E-02 0.12499945E+03</pdfrwt>
<totfact> 0.67703255E+03</totfact>
</mgrwt>
</event>
<event>
 5    1  0.3271306E-002  0.1250006E+03  0.7818608E-02  0.1235068E+00
          4   -1    0    0  501    0  0.00000000000E+00  0.00000000000E+00  0.78515879037E+02  0.78526149536E+02  0.12700000000E+01 0. -1.
         -4   -1    0    0    0  501 -0.00000000000E+00 -0.00000000000E+00 -0.49729916528E+02  0.49746130481E+02  0.12700000000E+01 0. -1.
         25    2    1    2    0    0  0.00000000000E+00  0.00000000000E+00  0.28785962509E+02  0.12827228002E+03  0.12500058473E+03 0.  0.
    9000005    1    3    3    0    0 -0.38752294495E+02  0.36140733631E+02 -0.19600995982E+02  0.56507450831E+02  0.10000000000E+01 0.  0.
    9000005    1    3    3    0    0  0.38752294495E+02 -0.36140733631E+02  0.48386958491E+02  0.71764829185E+02  0.10000000000E+01 0.  0.
<mgrwt>
<rscale>  0 0.12500058E+03</rscale>
<asrwt>0</asrwt>
<pdfrwt beam="1">  1        4 0.12081403E-01 0.12500058E+03</pdfrwt>
<pdfrwt beam="2">  1       -4 0.76527937E-02 0.12500058E+03</pdfrwt>
<totfact> 0.10381475E+04</totfact>
</mgrwt>
</event>
<event>
 5    1  0.3271306E-002  0.1250004E+03  0.7818608E-02  0.1235069E+00
          4   -1    0    0  501    0  0.00000000000E+00  0.00000000000E+00  0.18851020908E+02  0.18893752652E+02  0.12700000000E+01 0. -1.
         -4   -1    0    0    0  501 -0.00000000000E+00 -0.00000000000E+00 -0.20693901144E+03  0.20694290845E+03  0.12700000000E+01 0. -1.
         25    2    1    2    0    0  0.00000000000E+00  0.00000000000E+00 -0.18808799054E+03  0.22583666110E+03  0.12500042125E+03 0.  0.
    9000005    1    3    3    0    0 -0.40877296565E+02 -0.96592415858E+01 -0.17764154210E+03  0.18254252053E+03  0.10000000000E+01 0.  0.
    9000005    1    3    3    0    0  0.40877296565E+02  0.96592415858E+01 -0.10446448433E+02  0.43294140566E+02  0.10000000000E+01 0.  0.
<mgrwt>
<rscale>  0 0.12500042E+03</rscale>
<asrwt>0</asrwt>
<pdfrwt beam="1">  1        4 0.29037440E-02 0.12500042E+03</pdfrwt>
<pdfrwt beam="2">  1       -4 0.31840356E-01 0.12500042E+03</pdfrwt>
<totfact> 0.85952201E+03</totfact>
</mgrwt>
</event>
<event>
 5    1  0.3271306E-002  0.1250038E+03  0.7818608E-02  0.1235063E+00
          4   -1    0    0  501    0  0.00000000000E+00  0.00000000000E+00  0.18770720683E+03  0.18771150310E+03  0.12700000000E+01 0. -1.
         -4   -1    0    0    0  501 -0.00000000000E+00 -0.00000000000E+00 -0.20787691744E+02  0.20826450203E+02  0.12700000000E+01 0. -1.
         25    2    1    2    0    0  0.00000000000E+00  0.00000000000E+00  0.16691951509E+03  0.20853795331E+03  0.12500381375E+03 0.  0.
    9000005    1    3    3    0    0 -0.50733445025E+02  0.33965538060E+02  0.10571378267E+03  0.12208171061E+03  0.10000000000E+01 0.  0.
    9000005    1    3    3    0    0  0.50733445025E+02 -0.33965538060E+02  0.61205732424E+02  0.86456242698E+02  0.10000000000E+01 0.  0.
<mgrwt>
<rscale>  0 0.12500381E+03</rscale>
<asrwt>0</asrwt>
<pdfrwt beam="1">  1        4 0.28881343E-01 0.12500381E+03</pdfrwt>
<pdfrwt beam="2">  1       -4 0.32014184E-02 0.12500381E+03</pdfrwt>
<totfact> 0.88707645E+03</totfact>
</mgrwt>
</event>
<event>
 5    1  0.3271306E-002  0.1249958E+03  0.7818608E-02  0.1235076E+00
         -4   -1    0    0    0  501 -0.00000000000E+00  0.00000000000E+00  0.38801417811E+01  0.40826952178E+01  0.12700000000E+01 0.  1.
          4   -1    0    0  501    0  0.00000000000E+00 -0.00000000000E+00 -0.98085145344E+03  0.98085227564E+03  0.12700000000E+01 0.  1.
         25    2    1    2    0    0  0.00000000000E+00  0.00000000000E+00 -0.97697131166E+03  0.98493497086E+03  0.12499581194E+03 0.  0.
    9000005    1    3    3    0    0 -0.16315465906E+01  0.36955702376E+02 -0.91624774506E+02  0.98815409657E+02  0.10000000000E+01 0.  0.
    9000005    1    3    3    0    0  0.16315465906E+01 -0.36955702376E+02 -0.88534653716E+03  0.88611956120E+03  0.10000000000E+01 0.  0.
<mgrwt>
<rscale>  0 0.12499581E+03</rscale>
<asrwt>0</asrwt>
<pdfrwt beam="2">  1        4 0.15091568E+00 0.12499581E+03</pdfrwt>
<pdfrwt beam="1">  1       -4 0.61258995E-03 0.12499581E+03</pdfrwt>
<totfact> 0.31110072E+03</totfact>
</mgrwt>
</event>
<event>
 5    1  0.3271306E-002  0.1249983E+03  0.7818608E-02  0.1235072E+00
          4   -1    0    0  501    0  0.00000000000E+00  0.00000000000E+00  0.58593642122E+03  0.58593779756E+03  0.12700000000E+01 0.  1.
         -4   -1    0    0    0  501 -0.00000000000E+00 -0.00000000000E+00 -0.66046184117E+01  0.67256140511E+01  0.12700000000E+01 0.  1.
         25    2    1    2    0    0  0.00000000000E+00  0.00000000000E+00  0.57933180281E+03  0.59266341161E+03  0.12499832687E+03 0.  0.
    9000005    1    3    3    0    0 -0.36272516930E+02 -0.49772995500E+02  0.23946580820E+03  0.24726083366E+03  0.10000000000E+01 0.  0.
    9000005    1    3    3    0    0  0.36272516930E+02  0.49772995500E+02  0.33986599461E+03  0.34540257796E+03  0.10000000000E+01 0.  0.
<mgrwt>
<rscale>  0 0.12499833E+03</rscale>
<asrwt>0</asrwt>
<pdfrwt beam="1">  1        4 0.90153501E-01 0.12499833E+03</pdfrwt>
<pdfrwt beam="2">  1       -4 0.10255081E-02 0.12499833E+03</pdfrwt>
<totfact> 0.49335817E+03</totfact>
</mgrwt>
</event>
<event>
 5    1  0.3271306E-002  0.1249965E+03  0.7818608E-02  0.1235075E+00
          4   -1    0    0  501    0  0.00000000000E+00  0.00000000000E+00  0.27004405093E+02  0.27034252244E+02  0.12700000000E+01 0. -1.
         -4   -1    0    0    0  501 -0.00000000000E+00 -0.00000000000E+00 -0.14453168521E+03  0.14453726485E+03  0.12700000000E+01 0. -1.
         25    2    1    2    0    0  0.00000000000E+00  0.00000000000E+00 -0.11752728012E+03  0.17157151709E+03  0.12499649557E+03 0.  0.
    9000005    1    3    3    0    0 -0.47237965206E+02 -0.19655776872E+01 -0.26753685972E+01  0.47365034039E+02  0.10000000000E+01 0.  0.
    9000005    1    3    3    0    0  0.47237965206E+02  0.19655776872E+01 -0.11485191152E+03  0.12420648305E+03  0.10000000000E+01 0.  0.
<mgrwt>
<rscale>  0 0.12499650E+03</rscale>
<asrwt>0</asrwt>
<pdfrwt beam="1">  1        4 0.41572491E-02 0.12499650E+03</pdfrwt>
<pdfrwt beam="2">  1       -4 0.22238369E-01 0.12499650E+03</pdfrwt>
<totfact> 0.95164020E+03</totfact>
</mgrwt>
</event>
<event>
 5    1  0.3271306E-002  0.1249932E+03  0.7818608E-02  0.1235080E+00
          4   -1    0    0  501    0  0.00000000000E+00  0.00000000000E+00  0.72373394514E+01  0.73479236751E+01  0.12700000000E+01 0.  1.
         -4   -1    0    0    0  501 -0.00000000000E+00 -0.00000000000E+00 -0.53547414041E+03  0.53547564646E+03  0.12700000000E+01 0.  1.
         25    2    1    2    0    0  0.00000000000E+00  0.00000000000E+00 -0.52823680096E+03  0.54282357013E+03  0.12499324143E+03 0.  0.
    9000005    1    3    3    0    0  0.48488474440E+02 -0.11001106967E+02 -0.99739748189E+02  0.11145032022E+03  0.10000000000E+01 0.  0.
    9000005    1    3    3    0    0 -0.48488474440E+02  0.11001106967E+02 -0.42849705277E+03  0.43137324991E+03  0.10000000000E+01 0.  0.
<mgrwt>
<rscale>  0 0.12499324E+03</rscale>
<asrwt>0</asrwt>
<pdfrwt beam="1">  1        4 0.11220596E-02 0.12499324E+03</pdfrwt>
<pdfrwt beam="2">  1       -4 0.82389228E-01 0.12499324E+03</pdfrwt>
<totfact> 0.52696253E+03</totfact>
</mgrwt>
</event>
<event>
 5    1  0.3271306E-002  0.1249970E+03  0.7818608E-02  0.1235074E+00
         -4   -1    0    0    0  501 -0.00000000000E+00  0.00000000000E+00  0.35553948953E+02  0.35576624154E+02  0.12700000000E+01 0. -1.
          4   -1    0    0  501    0  0.00000000000E+00 -0.00000000000E+00 -0.10980151946E+03  0.10980886384E+03  0.12700000000E+01 0. -1.
         25    2    1    2    0    0  0.00000000000E+00  0.00000000000E+00 -0.74247570511E+02  0.14538548799E+03  0.12499695353E+03 0.  0.
    9000005    1    3    3    0    0 -0.12180240571E+02  0.34056599158E+02 -0.96395161515E+02  0.10296231043E+03  0.10000000000E+01 0.  0.
    9000005    1    3    3    0    0  0.12180240571E+02 -0.34056599158E+02  0.22147591004E+02  0.42423177554E+02  0.10000000000E+01 0.  0.
<mgrwt>
<rscale>  0 0.12499695E+03</rscale>
<asrwt>0</asrwt>
<pdfrwt beam="2">  1        4 0.16894850E-01 0.12499695E+03</pdfrwt>
<pdfrwt beam="1">  1       -4 0.54721476E-02 0.12499695E+03</pdfrwt>
<totfact> 0.10023850E+04</totfact>
</mgrwt>
</event>
<event>
 5    1  0.3271306E-002  0.1249986E+03  0.7818608E-02  0.1235072E+00
         -4   -1    0    0    0  501 -0.00000000000E+00  0.00000000000E+00  0.14918249659E+03  0.14918790229E+03  0.12700000000E+01 0. -1.
          4   -1    0    0  501    0  0.00000000000E+00 -0.00000000000E+00 -0.26162491244E+02  0.26193297771E+02  0.12700000000E+01 0. -1.
         25    2    1    2    0    0  0.00000000000E+00  0.00000000000E+00  0.12302000535E+03  0.17538120006E+03  0.12499857447E+03 0.  0.
    9000005    1    3    3    0    0 -0.60384659838E+01  0.92870829074E+01 -0.24780789513E+02  0.27162483489E+02  0.10000000000E+01 0.  0.
    9000005    1    3    3    0    0  0.60384659838E+01 -0.92870829074E+01  0.14780079486E+03  0.14821871657E+03  0.10000000000E+01 0.  0.
<mgrwt>
<rscale>  0 0.12499857E+03</rscale>
<asrwt>0</asrwt>
<pdfrwt beam="2">  1        4 0.40277842E-02 0.12499857E+03</pdfrwt>
<pdfrwt beam="1">  1       -4 0.22953939E-01 0.12499857E+03</pdfrwt>
<totfact> 0.94458091E+03</totfact>
</mgrwt>
</event>
<event>
 5    1  0.3271306E-002  0.1249998E+03  0.7818608E-02  0.1235070E+00
          4   -1    0    0  501    0  0.00000000000E+00  0.00000000000E+00  0.45305101124E+02  0.45322898052E+02  0.12700000000E+01 0. -1.
         -4   -1    0    0    0  501 -0.00000000000E+00 -0.00000000000E+00 -0.86181299034E+02  0.86190656125E+02  0.12700000000E+01 0. -1.
         25    2    1    2    0    0  0.00000000000E+00  0.00000000000E+00 -0.40876197911E+02  0.13151355418E+03  0.12499980551E+03 0.  0.
    9000005    1    3    3    0    0 -0.43811040062E+02 -0.11247271429E+02 -0.65805025393E+02  0.79857433673E+02  0.10000000000E+01 0.  0.
    9000005    1    3    3    0    0  0.43811040062E+02  0.11247271429E+02  0.24928827482E+02  0.51656120504E+02  0.10000000000E+01 0.  0.
<mgrwt>
<rscale>  0 0.12499981E+03</rscale>
<asrwt>0</asrwt>
<pdfrwt beam="1">  1        4 0.69721043E-02 0.12499981E+03</pdfrwt>
<pdfrwt beam="2">  1       -4 0.13260750E-01 0.12499981E+03</pdfrwt>
<totfact> 0.10312137E+04</totfact>
</mgrwt>
</event>
<event>
 5    1  0.3271306E-002  0.1249999E+03  0.7818608E-02  0.1235069E+00
         -4   -1    0    0    0  501 -0.00000000000E+00  0.00000000000E+00  0.23908065301E+02  0.23941772834E+02  0.12700000000E+01 0.  1.
          4   -1    0    0  501    0  0.00000000000E+00 -0.00000000000E+00 -0.16323483239E+03  0.16323977275E+03  0.12700000000E+01 0.  1.
         25    2    1    2    0    0  0.00000000000E+00  0.00000000000E+00 -0.13932676709E+03  0.18718154558E+03  0.12499993191E+03 0.  0.
    9000005    1    3    3    0    0  0.57218538356E+02 -0.49439124795E+01 -0.32774867009E+02  0.66133163463E+02  0.10000000000E+01 0.  0.
    9000005    1    3    3    0    0 -0.57218538356E+02  0.49439124795E+01 -0.10655190008E+03  0.12104838212E+03  0.10000000000E+01 0.  0.
<mgrwt>
<rscale>  0 0.12499993E+03</rscale>
<asrwt>0</asrwt>
<pdfrwt beam="2">  1        4 0.25116023E-01 0.12499993E+03</pdfrwt>
<pdfrwt beam="1">  1       -4 0.36811369E-02 0.12499993E+03</pdfrwt>
<totfact> 0.92340183E+03</totfact>
</mgrwt>
</event>
<event>
 5    1  0.3271306E-002  0.1249960E+03  0.7818608E-02  0.1235076E+00
         -4   -1    0    0    0  501 -0.00000000000E+00  0.00000000000E+00  0.80398039438E+02  0.80408069529E+02  0.12700000000E+01 0.  1.
          4   -1    0    0  501    0  0.00000000000E+00 -0.00000000000E+00 -0.48561917103E+02  0.48578520899E+02  0.12700000000E+01 0.  1.
         25    2    1    2    0    0  0.00000000000E+00  0.00000000000E+00  0.31836122335E+02  0.12898659043E+03  0.12499600724E+03 0.  0.
    9000005    1    3    3    0    0 -0.12767121286E+02  0.54733880218E+02  0.44106890614E+02  0.71450786065E+02  0.10000000000E+01 0.  0.
    9000005    1    3    3    0    0  0.12767121286E+02 -0.54733880218E+02 -0.12270768279E+02  0.57535804364E+02  0.10000000000E+01 0.  0.
<mgrwt>
<rscale>  0 0.12499601E+03</rscale>
<asrwt>0</asrwt>
<pdfrwt beam="2">  1        4 0.74731130E-02 0.12499601E+03</pdfrwt>
<pdfrwt beam="1">  1       -4 0.12370978E-01 0.12499601E+03</pdfrwt>
<totfact> 0.10367169E+04</totfact>
</mgrwt>
</event>
<event>
 5    1  0.3271306E-002  0.1250083E+03  0.7818608E-02  0.1235056E+00
          4   -1    0    0  501    0  0.00000000000E+00  0.00000000000E+00  0.13589514383E+02  0.13648728921E+02  0.12700000000E+01 0.  1.
         -4   -1    0    0    0  501 -0.00000000000E+00 -0.00000000000E+00 -0.28679828603E+03  0.28680109793E+03  0.12700000000E+01 0.  1.
         25    2    1    2    0    0  0.00000000000E+00  0.00000000000E+00 -0.27320877165E+03  0.30044982685E+03  0.12500826191E+03 0.  0.
    9000005    1    3    3    0    0 -0.34662836584E+02  0.64084322603E+01 -0.26063645884E+03  0.26301129999E+03  0.10000000000E+01 0.  0.
    9000005    1    3    3    0    0  0.34662836584E+02 -0.64084322603E+01 -0.12572312812E+02  0.37438526861E+02  0.10000000000E+01 0.  0.
<mgrwt>
<rscale>  0 0.12500826E+03</rscale>
<asrwt>0</asrwt>
<pdfrwt beam="1">  1        4 0.20954660E-02 0.12500826E+03</pdfrwt>
<pdfrwt beam="2">  1       -4 0.44127580E-01 0.12500826E+03</pdfrwt>
<totfact> 0.75528597E+03</totfact>
</mgrwt>
</event>
<event>
 5    1  0.3271306E-002  0.1249996E+03  0.7818608E-02  0.1235070E+00
          4   -1    0    0  501    0  0.00000000000E+00  0.00000000000E+00  0.71970841985E+01  0.73082775645E+01  0.12700000000E+01 0.  1.
         -4   -1    0    0    0  501 -0.00000000000E+00 -0.00000000000E+00 -0.53847813921E+03  0.53847963686E+03  0.12700000000E+01 0.  1.
         25    2    1    2    0    0  0.00000000000E+00  0.00000000000E+00 -0.53128105502E+03  0.54578791442E+03  0.12499955245E+03 0.  0.
    9000005    1    3    3    0    0  0.60970711562E+02 -0.13424386332E+02 -0.27766195687E+03  0.28459586102E+03  0.10000000000E+01 0.  0.
    9000005    1    3    3    0    0 -0.60970711562E+02  0.13424386332E+02 -0.25361909815E+03  0.26119205341E+03  0.10000000000E+01 0.  0.
<mgrwt>
<rscale>  0 0.12499955E+03</rscale>
<asrwt>0</asrwt>
<pdfrwt beam="1">  1        4 0.11159127E-02 0.12499955E+03</pdfrwt>
<pdfrwt beam="2">  1       -4 0.82851428E-01 0.12499955E+03</pdfrwt>
<totfact> 0.52479469E+03</totfact>
</mgrwt>
</event>
<event>
 5    1  0.3271306E-002  0.1250002E+03  0.7818608E-02  0.1235069E+00
         -4   -1    0    0    0  501 -0.00000000000E+00  0.00000000000E+00  0.71320076595E+01  0.72441999734E+01  0.12700000000E+01 0. -1.
          4   -1    0    0  501    0  0.00000000000E+00 -0.00000000000E+00 -0.54332182712E+03  0.54332331142E+03  0.12700000000E+01 0. -1.
         25    2    1    2    0    0  0.00000000000E+00  0.00000000000E+00 -0.53618981946E+03  0.55056751139E+03  0.12500024841E+03 0.  0.
    9000005    1    3    3    0    0  0.12823502100E+02  0.36316975765E+02 -0.48485427015E+03  0.48638259448E+03  0.10000000000E+01 0.  0.
    9000005    1    3    3    0    0 -0.12823502100E+02 -0.36316975765E+02 -0.51335549313E+02  0.64184916905E+02  0.10000000000E+01 0.  0.
<mgrwt>
<rscale>  0 0.12500025E+03</rscale>
<asrwt>0</asrwt>
<pdfrwt beam="2">  1        4 0.83596685E-01 0.12500025E+03</pdfrwt>
<pdfrwt beam="1">  1       -4 0.11059767E-02 0.12500025E+03</pdfrwt>
<totfact> 0.52144126E+03</totfact>
</mgrwt>
</event>
<event>
 5    1  0.3271306E-002  0.1250033E+03  0.7818608E-02  0.1235064E+00
          4   -1    0    0  501    0  0.00000000000E+00  0.00000000000E+00  0.10826931500E+02  0.10901162585E+02  0.12700000000E+01 0.  1.
         -4   -1    0    0    0  501 -0.00000000000E+00 -0.00000000000E+00 -0.35950143500E+03  0.35950367824E+03  0.12700000000E+01 0.  1.
         25    2    1    2    0    0  0.00000000000E+00  0.00000000000E+00 -0.34867450350E+03  0.37040484082E+03  0.12500334681E+03 0.  0.
    9000005    1    3    3    0    0  0.48599434181E+02 -0.11983097130E+02 -0.63467580919E+02  0.80837079656E+02  0.10000000000E+01 0.  0.
    9000005    1    3    3    0    0 -0.48599434181E+02  0.11983097130E+02 -0.28520692258E+03  0.28956776117E+03  0.10000000000E+01 0.  0.
<mgrwt>
<rscale>  0 0.12500335E+03</rscale>
<asrwt>0</asrwt>
<pdfrwt beam="1">  1        4 0.16715647E-02 0.12500335E+03</pdfrwt>
<pdfrwt beam="2">  1       -4 0.55313787E-01 0.12500335E+03</pdfrwt>
<totfact> 0.67531612E+03</totfact>
</mgrwt>
</event>
<event>
 4    1  0.3271306E-002  0.1239287E+03  0.7818608E-02  0.1236753E+00
         -4   -1    0    0    0  501 -0.00000000000E+00  0.00000000000E+00  0.23493469140E+03  0.23493812403E+03  0.12700000000E+01 0.  1.
          4   -1    0    0  501    0  0.00000000000E+00 -0.00000000000E+00 -0.16314951639E+02  0.16364307104E+02  0.12700000000E+01 0.  1.
    9000005    1    1    2    0    0  0.49183178204E+02 -0.10768726115E+02  0.36094550316E+02  0.61957784361E+02  0.10000000000E+01 0.  0.
    9000005    1    1    2    0    0 -0.49183178204E+02  0.10768726115E+02  0.18252518945E+03  0.18934464678E+03  0.10000000000E+01 0.  0.
<mgrwt>
<rscale>  0 0.12392869E+03</rscale>
<asrwt>0</asrwt>
<pdfrwt beam="2">  1        4 0.25140535E-02 0.12392869E+03</pdfrwt>
<pdfrwt beam="1">  1       -4 0.36147855E-01 0.12392869E+03</pdfrwt>
<totfact> 0.84133683E+03</totfact>
</mgrwt>
</event>
<event>
 5    1  0.3271306E-002  0.1249837E+03  0.7818608E-02  0.1235095E+00
         -4   -1    0    0    0  501 -0.00000000000E+00  0.00000000000E+00  0.28419787664E+02  0.28448149868E+02  0.12700000000E+01 0.  1.
          4   -1    0    0  501    0  0.00000000000E+00 -0.00000000000E+00 -0.13731255293E+03  0.13731842591E+03  0.12700000000E+01 0.  1.
         25    2    1    2    0    0  0.00000000000E+00  0.00000000000E+00 -0.10889276527E+03  0.16576657577E+03  0.12498369220E+03 0.  0.
    9000005    1    3    3    0    0 -0.21502429569E+02 -0.27732433966E+02 -0.12301508169E+03  0.12792635653E+03  0.10000000000E+01 0.  0.
    9000005    1    3    3    0    0  0.21502429569E+02  0.27732433966E+02  0.14122316425E+02  0.37840219242E+02  0.10000000000E+01 0.  0.
<mgrwt>
<rscale>  0 0.12498369E+03</rscale>
<asrwt>0</asrwt>
<pdfrwt beam="2">  1        4 0.21127641E-01 0.12498369E+03</pdfrwt>
<pdfrwt beam="1">  1       -4 0.43749086E-02 0.12498369E+03</pdfrwt>
<totfact> 0.96277676E+03</totfact>
</mgrwt>
</event>
<event>
 5    1  0.3271306E-002  0.1250037E+03  0.7818608E-02  0.1235064E+00
         -4   -1    0    0    0  501 -0.00000000000E+00  0.00000000000E+00  0.20453683349E+02  0.20493073526E+02  0.12700000000E+01 0. -1.
          4   -1    0    0  501    0  0.00000000000E+00 -0.00000000000E+00 -0.19076623377E+03  0.19077046115E+03  0.12700000000E+01 0. -1.
         25    2    1    2    0    0  0.00000000000E+00  0.00000000000E+00 -0.17031255042E+03  0.21126353467E+03  0.12500366495E+03 0.  0.
    9000005    1    3    3    0    0 -0.58304460057E+02 -0.39877624120E+01 -0.12257368499E+03  0.13579624650E+03  0.10000000000E+01 0.  0.
    9000005    1    3    3    0    0  0.58304460057E+02  0.39877624120E+01 -0.47738865432E+02  0.75467288175E+02  0.10000000000E+01 0.  0.
<mgrwt>
<rscale>  0 0.12500366E+03</rscale>
<asrwt>0</asrwt>
<pdfrwt beam="2">  1        4 0.29352005E-01 0.12500366E+03</pdfrwt>
<pdfrwt beam="1">  1       -4 0.31500758E-02 0.12500366E+03</pdfrwt>
<totfact> 0.88262713E+03</totfact>
</mgrwt>
</event>
<event>
 5    1  0.3271306E-002  0.1249918E+03  0.7818608E-02  0.1235082E+00
          4   -1    0    0  501    0  0.00000000000E+00  0.00000000000E+00  0.73145685389E+02  0.73156709816E+02  0.12700000000E+01 0. -1.
         -4   -1    0    0    0  501 -0.00000000000E+00 -0.00000000000E+00 -0.53374094087E+02  0.53389201339E+02  0.12700000000E+01 0. -1.
         25    2    1    2    0    0  0.00000000000E+00  0.00000000000E+00  0.19771591302E+02  0.12654591115E+03  0.12499180696E+03 0.  0.
    9000005    1    3    3    0    0  0.12452147000E+02 -0.48384356004E+02 -0.28112662499E+02  0.57336059017E+02  0.10000000000E+01 0.  0.
    9000005    1    3    3    0    0 -0.12452147000E+02  0.48384356004E+02  0.47884253802E+02  0.69209852138E+02  0.10000000000E+01 0.  0.
<mgrwt>
<rscale>  0 0.12499181E+03</rscale>
<asrwt>0</asrwt>
<pdfrwt beam="1">  1        4 0.11255192E-01 0.12499181E+03</pdfrwt>
<pdfrwt beam="2">  1       -4 0.82134092E-02 0.12499181E+03</pdfrwt>
<totfact> 0.10420954E+04</totfact>
</mgrwt>
</event>
<event>
 5    1  0.3271306E-002  0.1249985E+03  0.7818608E-02  0.1235072E+00
         -4   -1    0    0    0  501 -0.00000000000E+00  0.00000000000E+00  0.32548155639E+03  0.32548403409E+03  0.12700000000E+01 0.  1.
          4   -1    0    0  501    0  0.00000000000E+00 -0.00000000000E+00 -0.11965022401E+02  0.12032234250E+02  0.12700000000E+01 0.  1.
         25    2    1    2    0    0  0.00000000000E+00  0.00000000000E+00  0.31351653399E+03  0.33751626834E+03  0.12499845724E+03 0.  0.
    9000005    1    3    3    0    0  0.60422606969E+02 -0.28144590775E+01  0.11437851829E+03  0.12939187788E+03  0.10000000000E+01 0.  0.
    9000005    1    3    3    0    0 -0.60422606969E+02  0.28144590775E+01  0.19913801569E+03  0.20812439047E+03  0.10000000000E+01 0.  0.
<mgrwt>
<rscale>  0 0.12499846E+03</rscale>
<asrwt>0</asrwt>
<pdfrwt beam="2">  1        4 0.18461338E-02 0.12499846E+03</pdfrwt>
<pdfrwt beam="1">  1       -4 0.50079437E-01 0.12499846E+03</pdfrwt>
<totfact> 0.71122546E+03</totfact>
</mgrwt>
</event>
<event>
 5    1  0.3271306E-002  0.1250163E+03  0.7818608E-02  0.1235044E+00
         -4   -1    0    0    0  501 -0.00000000000E+00  0.00000000000E+00  0.88751269976E+02  0.88760356142E+02  0.12700000000E+01 0. -1.
          4   -1    0    0  501    0  0.00000000000E+00 -0.00000000000E+00 -0.44004456781E+02  0.44022779519E+02  0.12700000000E+01 0. -1.
         25    2    1    2    0    0  0.00000000000E+00  0.00000000000E+00  0.44746813195E+02  0.13278313566E+03  0.12501633423E+03 0.  0.
    9000005    1    3    3    0    0 -0.18421483328E+02  0.56656742731E+02  0.23069929130E+01  0.59629353185E+02  0.10000000000E+01 0.  0.
    9000005    1    3    3    0    0  0.18421483328E+02 -0.56656742731E+02  0.42439820282E+02  0.73153782476E+02  0.10000000000E+01 0.  0.
<mgrwt>
<rscale>  0 0.12501633E+03</rscale>
<asrwt>0</asrwt>
<pdfrwt beam="2">  1        4 0.67720249E-02 0.12501633E+03</pdfrwt>
<pdfrwt beam="1">  1       -4 0.13656150E-01 0.12501633E+03</pdfrwt>
<totfact> 0.10281222E+04</totfact>
</mgrwt>
</event>
<event>
 5    1  0.3271306E-002  0.1250022E+03  0.7818608E-02  0.1235066E+00
         -4   -1    0    0    0  501 -0.00000000000E+00  0.00000000000E+00  0.15445435958E+03  0.15445958077E+03  0.12700000000E+01 0.  1.
          4   -1    0    0  501    0  0.00000000000E+00 -0.00000000000E+00 -0.25269947194E+02  0.25301840471E+02  0.12700000000E+01 0.  1.
         25    2    1    2    0    0  0.00000000000E+00  0.00000000000E+00  0.12918441238E+03  0.17976142124E+03  0.12500222464E+03 0.  0.
    9000005    1    3    3    0    0  0.18469193061E+02  0.44854504456E+02  0.79325719285E+01  0.49162621571E+02  0.10000000000E+01 0.  0.
    9000005    1    3    3    0    0 -0.18469193061E+02 -0.44854504456E+02  0.12125184045E+03  0.13059879967E+03  0.10000000000E+01 0.  0.
<mgrwt>
<rscale>  0 0.12500222E+03</rscale>
<asrwt>0</asrwt>
<pdfrwt beam="2">  1        4 0.38905391E-02 0.12500222E+03</pdfrwt>
<pdfrwt beam="1">  1       -4 0.23765064E-01 0.12500222E+03</pdfrwt>
<totfact> 0.93655294E+03</totfact>
</mgrwt>
</event>
<event>
 5    1  0.3271306E-002  0.1250013E+03  0.7818608E-02  0.1235067E+00
         -4   -1    0    0    0  501 -0.00000000000E+00  0.00000000000E+00  0.10291072499E+02  0.10369140426E+02  0.12700000000E+01 0. -1.
          4   -1    0    0  501    0  0.00000000000E+00 -0.00000000000E+00 -0.37807074554E+03  0.37807287860E+03  0.12700000000E+01 0. -1.
         25    2    1    2    0    0  0.00000000000E+00  0.00000000000E+00 -0.36777967304E+03  0.38844201903E+03  0.12500125697E+03 0.  0.
    9000005    1    3    3    0    0 -0.56066773748E+02 -0.26097932339E+02 -0.15596663194E+03  0.16778312034E+03  0.10000000000E+01 0.  0.
    9000005    1    3    3    0    0  0.56066773748E+02  0.26097932339E+02 -0.21181304111E+03  0.22065889870E+03  0.10000000000E+01 0.  0.
<mgrwt>
<rscale>  0 0.12500126E+03</rscale>
<asrwt>0</asrwt>
<pdfrwt beam="2">  1        4 0.58170889E-01 0.12500126E+03</pdfrwt>
<pdfrwt beam="1">  1       -4 0.15894115E-02 0.12500126E+03</pdfrwt>
<totfact> 0.65690825E+03</totfact>
</mgrwt>
</event>
<event>
 5    1  0.3271306E-002  0.1250009E+03  0.7818608E-02  0.1235068E+00
         -4   -1    0    0    0  501 -0.00000000000E+00  0.00000000000E+00  0.50848475461E+02  0.50864332854E+02  0.12700000000E+01 0. -1.
          4   -1    0    0  501    0  0.00000000000E+00 -0.00000000000E+00 -0.76789346447E+02  0.76799847837E+02  0.12700000000E+01 0. -1.
         25    2    1    2    0    0  0.00000000000E+00  0.00000000000E+00 -0.25940870987E+02  0.12766418069E+03  0.12500085697E+03 0.  0.
    9000005    1    3    3    0    0  0.46898559283E+02  0.41272463199E+02 -0.14556744914E+02  0.64154422325E+02  0.10000000000E+01 0.  0.
    9000005    1    3    3    0    0 -0.46898559283E+02 -0.41272463199E+02 -0.11384126072E+02  0.63509758366E+02  0.10000000000E+01 0.  0.
<mgrwt>
<rscale>  0 0.12500086E+03</rscale>
<asrwt>0</asrwt>
<pdfrwt beam="2">  1        4 0.11815773E-01 0.12500086E+03</pdfrwt>
<pdfrwt beam="1">  1       -4 0.78248700E-02 0.12500086E+03</pdfrwt>
<totfact> 0.10394545E+04</totfact>
</mgrwt>
</event>
<event>
 5    1  0.3271306E-002  0.1250006E+03  0.7818608E-02  0.1235068E+00
          4   -1    0    0  501    0  0.00000000000E+00  0.00000000000E+00  0.13526072649E+04  0.13526078612E+04  0.12700000000E+01 0. -1.
         -4   -1    0    0    0  501 -0.00000000000E+00 -0.00000000000E+00 -0.27477184422E+01  0.30270210832E+01  0.12700000000E+01 0. -1.
         25    2    1    2    0    0  0.00000000000E+00  0.00000000000E+00  0.13498595465E+04  0.13556348822E+04  0.12500055472E+03 0.  0.
    9000005    1    3    3    0    0 -0.62345832375E+02  0.25965509365E+00  0.62864494641E+03  0.63172979895E+03  0.10000000000E+01 0.  0.
    9000005    1    3    3    0    0  0.62345832375E+02 -0.25965509365E+00  0.72121460008E+03  0.72390508328E+03  0.10000000000E+01 0.  0.
<mgrwt>
<rscale>  0 0.12500055E+03</rscale>
<asrwt>0</asrwt>
<pdfrwt beam="1">  1        4 0.20811550E+00 0.12500055E+03</pdfrwt>
<pdfrwt beam="2">  1       -4 0.44425543E-03 0.12500055E+03</pdfrwt>
<totfact> 0.20951884E+03</totfact>
</mgrwt>
</event>
<event>
 5    1  0.3271306E-002  0.1250012E+03  0.7818608E-02  0.1235067E+00
         -4   -1    0    0    0  501 -0.00000000000E+00  0.00000000000E+00  0.19884247335E+02  0.19924763288E+02  0.12700000000E+01 0. -1.
          4   -1    0    0  501    0  0.00000000000E+00 -0.00000000000E+00 -0.19621070206E+03  0.19621481214E+03  0.12700000000E+01 0. -1.
         25    2    1    2    0    0  0.00000000000E+00  0.00000000000E+00 -0.17632645472E+03  0.21613957543E+03  0.12500118972E+03 0.  0.
    9000005    1    3    3    0    0 -0.35262172066E+02  0.43083465956E+02 -0.13724404919E+03  0.14810987427E+03  0.10000000000E+01 0.  0.
    9000005    1    3    3    0    0  0.35262172066E+02 -0.43083465956E+02 -0.39082405536E+02  0.68029701161E+02  0.10000000000E+01 0.  0.
<mgrwt>
<rscale>  0 0.12500119E+03</rscale>
<asrwt>0</asrwt>
<pdfrwt beam="2">  1        4 0.30189693E-01 0.12500119E+03</pdfrwt>
<pdfrwt beam="1">  1       -4 0.30625479E-02 0.12500119E+03</pdfrwt>
<totfact> 0.87480596E+03</totfact>
</mgrwt>
</event>
<event>
 5    1  0.3271306E-002  0.1250009E+03  0.7818608E-02  0.1235068E+00
          4   -1    0    0  501    0  0.00000000000E+00  0.00000000000E+00  0.33645499111E+02  0.33669459610E+02  0.12700000000E+01 0. -1.
         -4   -1    0    0    0  501 -0.00000000000E+00 -0.00000000000E+00 -0.11603308621E+03  0.11604003617E+03  0.12700000000E+01 0. -1.
         25    2    1    2    0    0  0.00000000000E+00  0.00000000000E+00 -0.82387587097E+02  0.14970949578E+03  0.12500087448E+03 0.  0.
    9000005    1    3    3    0    0  0.46996969902E+02  0.40106929890E+02 -0.29957166091E+02  0.68671047796E+02  0.10000000000E+01 0.  0.
    9000005    1    3    3    0    0 -0.46996969902E+02 -0.40106929890E+02 -0.52430421006E+02  0.81038447987E+02  0.10000000000E+01 0.  0.
<mgrwt>
<rscale>  0 0.12500087E+03</rscale>
<asrwt>0</asrwt>
<pdfrwt beam="1">  1        4 0.51786084E-02 0.12500087E+03</pdfrwt>
<pdfrwt beam="2">  1       -4 0.17853621E-01 0.12500087E+03</pdfrwt>
<totfact> 0.99359682E+03</totfact>
</mgrwt>
</event>
<event>
 4    1  0.3271306E-002  0.1246061E+03  0.7818608E-02  0.1235686E+00
         -4   -1    0    0    0  501 -0.00000000000E+00  0.00000000000E+00  0.85992698726E+02  0.86002076336E+02  0.12700000000E+01 0.  1.
          4   -1    0    0  501    0  0.00000000000E+00 -0.00000000000E+00 -0.45118741181E+02  0.45136611589E+02  0.12700000000E+01 0.  1.
    9000005    1    1    2    0    0 -0.15676643759E+02  0.25311104146E+02  0.78025553239E+02  0.83518836862E+02  0.10000000000E+01 0.  0.
    9000005    1    1    2    0    0  0.15676643759E+02 -0.25311104146E+02 -0.37151595694E+02  0.47619851063E+02  0.10000000000E+01 0.  0.
<mgrwt>
<rscale>  0 0.12460608E+03</rscale>
<asrwt>0</asrwt>
<pdfrwt beam="2">  1        4 0.69434409E-02 0.12460608E+03</pdfrwt>
<pdfrwt beam="1">  1       -4 0.13231742E-01 0.12460608E+03</pdfrwt>
<totfact> 0.10412371E+04</totfact>
</mgrwt>
</event>
<event>
 5    1  0.3271306E-002  0.1249394E+03  0.7818608E-02  0.1235164E+00
         -4   -1    0    0    0  501 -0.00000000000E+00  0.00000000000E+00  0.56109008224E+02  0.56123379298E+02  0.12700000000E+01 0. -1.
          4   -1    0    0  501    0  0.00000000000E+00 -0.00000000000E+00 -0.69522363241E+02  0.69533962138E+02  0.12700000000E+01 0. -1.
         25    2    1    2    0    0  0.00000000000E+00  0.00000000000E+00 -0.13413355017E+02  0.12565734144E+03  0.12493938276E+03 0.  0.
    9000005    1    3    3    0    0  0.33322215571E+02 -0.52744831427E+02 -0.97364706770E+01  0.63152087487E+02  0.10000000000E+01 0.  0.
    9000005    1    3    3    0    0 -0.33322215571E+02  0.52744831427E+02 -0.36768843399E+01  0.62505253949E+02  0.10000000000E+01 0.  0.
<mgrwt>
<rscale>  0 0.12493938E+03</rscale>
<asrwt>0</asrwt>
<pdfrwt beam="2">  1        4 0.10697746E-01 0.12493938E+03</pdfrwt>
<pdfrwt beam="1">  1       -4 0.86341528E-02 0.12493938E+03</pdfrwt>
<totfact> 0.10452772E+04</totfact>
</mgrwt>
</event>
<event>
 5    1  0.3271306E-002  0.1250007E+03  0.7818608E-02  0.1235068E+00
          4   -1    0    0  501    0  0.00000000000E+00  0.00000000000E+00  0.13750097730E+02  0.13808623667E+02  0.12700000000E+01 0. -1.
         -4   -1    0    0    0  501 -0.00000000000E+00 -0.00000000000E+00 -0.28342892394E+03  0.28343176926E+03  0.12700000000E+01 0. -1.
         25    2    1    2    0    0  0.00000000000E+00  0.00000000000E+00 -0.26967882621E+03  0.29724039292E+03  0.12500072752E+03 0.  0.
    9000005    1    3    3    0    0 -0.49911592359E+02 -0.35544931785E+02 -0.16402927824E+03  0.17510343614E+03  0.10000000000E+01 0.  0.
    9000005    1    3    3    0    0  0.49911592359E+02  0.35544931785E+02 -0.10564954797E+03  0.12213695679E+03  0.10000000000E+01 0.  0.
<mgrwt>
<rscale>  0 0.12500073E+03</rscale>
<asrwt>0</asrwt>
<pdfrwt beam="1">  1        4 0.21201207E-02 0.12500073E+03</pdfrwt>
<pdfrwt beam="2">  1       -4 0.43609166E-01 0.12500073E+03</pdfrwt>
<totfact> 0.75945083E+03</totfact>
</mgrwt>
</event>
<event>
 5    1  0.3271306E-002  0.1250517E+03  0.7818608E-02  0.1234988E+00
          4   -1    0    0  501    0  0.00000000000E+00  0.00000000000E+00  0.44078758381E+01  0.45871853466E+01  0.12700000000E+01 0. -1.
         -4   -1    0    0    0  501 -0.00000000000E+00 -0.00000000000E+00 -0.86907113816E+03  0.86907206610E+03  0.12700000000E+01 0. -1.
         25    2    1    2    0    0  0.00000000000E+00  0.00000000000E+00 -0.86466326232E+03  0.87365925145E+03  0.12505171105E+03 0.  0.
    9000005    1    3    3    0    0 -0.35529537546E+02 -0.47037921026E+02 -0.28685898763E+03  0.29285490065E+03  0.10000000000E+01 0.  0.
    9000005    1    3    3    0    0  0.35529537546E+02  0.47037921026E+02 -0.57780427469E+03  0.58080435080E+03  0.10000000000E+01 0.  0.
<mgrwt>
<rscale>  0 0.12505171E+03</rscale>
<asrwt>0</asrwt>
<pdfrwt beam="1">  1        4 0.69199985E-03 0.12505171E+03</pdfrwt>
<pdfrwt beam="2">  1       -4 0.13371698E+00 0.12505171E+03</pdfrwt>
<totfact> 0.35138590E+03</totfact>
</mgrwt>
</event>
<event>
 5    1  0.3271306E-002  0.1250014E+03  0.7818608E-02  0.1235067E+00
         -4   -1    0    0    0  501 -0.00000000000E+00  0.00000000000E+00  0.30830604093E+03  0.30830865666E+03  0.12700000000E+01 0. -1.
          4   -1    0    0  501    0  0.00000000000E+00 -0.00000000000E+00 -0.12635833454E+02  0.12699495545E+02  0.12700000000E+01 0. -1.
         25    2    1    2    0    0  0.00000000000E+00  0.00000000000E+00  0.29567020747E+03  0.32100815221E+03  0.12500144877E+03 0.  0.
    9000005    1    3    3    0    0 -0.40308347543E+01 -0.62331682555E+02  0.14279346091E+03  0.15586038226E+03  0.10000000000E+01 0.  0.
    9000005    1    3    3    0    0  0.40308347543E+01  0.62331682555E+02  0.15287674656E+03  0.16514776995E+03  0.10000000000E+01 0.  0.
<mgrwt>
<rscale>  0 0.12500145E+03</rscale>
<asrwt>0</asrwt>
<pdfrwt beam="2">  1        4 0.19490727E-02 0.12500145E+03</pdfrwt>
<pdfrwt beam="1">  1       -4 0.47436797E-01 0.12500145E+03</pdfrwt>
<totfact> 0.73034032E+03</totfact>
</mgrwt>
</event>
<event>
 5    1  0.3271306E-002  0.1250052E+03  0.7818608E-02  0.1235061E+00
          4   -1    0    0  501    0  0.00000000000E+00  0.00000000000E+00  0.12736762054E+03  0.12737395205E+03  0.12700000000E+01 0.  1.
         -4   -1    0    0    0  501 -0.00000000000E+00 -0.00000000000E+00 -0.30651419263E+02  0.30677718345E+02  0.12700000000E+01 0.  1.
         25    2    1    2    0    0  0.00000000000E+00  0.00000000000E+00  0.96716201276E+02  0.15805167040E+03  0.12500522760E+03 0.  0.
    9000005    1    3    3    0    0 -0.35601166324E+02 -0.45836177361E+02  0.77662325580E+02  0.96957903305E+02  0.10000000000E+01 0.  0.
    9000005    1    3    3    0    0  0.35601166324E+02  0.45836177361E+02  0.19053875696E+02  0.61093767094E+02  0.10000000000E+01 0.  0.
<mgrwt>
<rscale>  0 0.12500523E+03</rscale>
<asrwt>0</asrwt>
<pdfrwt beam="1">  1        4 0.19597529E-01 0.12500523E+03</pdfrwt>
<pdfrwt beam="2">  1       -4 0.47181130E-02 0.12500523E+03</pdfrwt>
<totfact> 0.97708243E+03</totfact>
</mgrwt>
</event>
<event>
 5    1  0.3271306E-002  0.1249938E+03  0.7818608E-02  0.1235079E+00
          4   -1    0    0  501    0  0.00000000000E+00  0.00000000000E+00  0.11428118810E+03  0.11428824460E+03  0.12700000000E+01 0. -1.
         -4   -1    0    0    0  501 -0.00000000000E+00 -0.00000000000E+00 -0.34157724158E+02  0.34181325599E+02  0.12700000000E+01 0. -1.
         25    2    1    2    0    0  0.00000000000E+00  0.00000000000E+00  0.80123463945E+02  0.14846957020E+03  0.12499377505E+03 0.  0.
    9000005    1    3    3    0    0 -0.40000242264E+02  0.43885929944E+02  0.63181969779E+02  0.86711911139E+02  0.10000000000E+01 0.  0.
    9000005    1    3    3    0    0  0.40000242264E+02 -0.43885929944E+02  0.16941494166E+02  0.61757659062E+02  0.10000000000E+01 0.  0.
<mgrwt>
<rscale>  0 0.12499378E+03</rscale>
<asrwt>0</asrwt>
<pdfrwt beam="1">  1        4 0.17584080E-01 0.12499378E+03</pdfrwt>
<pdfrwt beam="2">  1       -4 0.52573928E-02 0.12499378E+03</pdfrwt>
<totfact> 0.99623603E+03</totfact>
</mgrwt>
</event>
<event>
 5    1  0.3271306E-002  0.1250005E+03  0.7818608E-02  0.1235068E+00
          4   -1    0    0  501    0  0.00000000000E+00  0.00000000000E+00  0.25595483402E+02  0.25626971546E+02  0.12700000000E+01 0.  1.
         -4   -1    0    0    0  501 -0.00000000000E+00 -0.00000000000E+00 -0.15248820492E+03  0.15249349343E+03  0.12700000000E+01 0.  1.
         25    2    1    2    0    0  0.00000000000E+00  0.00000000000E+00 -0.12689272151E+03  0.17812046498E+03  0.12500054908E+03 0.  0.
    9000005    1    3    3    0    0 -0.52555675408E+02  0.10542764311E+02 -0.17669163307E+02  0.56448633543E+02  0.10000000000E+01 0.  0.
    9000005    1    3    3    0    0  0.52555675408E+02 -0.10542764311E+02 -0.10922355821E+03  0.12167183143E+03  0.10000000000E+01 0.  0.
<mgrwt>
<rscale>  0 0.12500055E+03</rscale>
<asrwt>0</asrwt>
<pdfrwt beam="1">  1        4 0.39405957E-02 0.12500055E+03</pdfrwt>
<pdfrwt beam="2">  1       -4 0.23462552E-01 0.12500055E+03</pdfrwt>
<totfact> 0.93955267E+03</totfact>
</mgrwt>
</event>
<event>
 5    1  0.3271306E-002  0.1250001E+03  0.7818608E-02  0.1235069E+00
         -4   -1    0    0    0  501 -0.00000000000E+00  0.00000000000E+00  0.35044719721E+01  0.37274956476E+01  0.12700000000E+01 0. -1.
          4   -1    0    0  501    0  0.00000000000E+00 -0.00000000000E+00 -0.10800514854E+04  0.10800522321E+04  0.12700000000E+01 0. -1.
         25    2    1    2    0    0  0.00000000000E+00  0.00000000000E+00 -0.10765470135E+04  0.10837797278E+04  0.12500010443E+03 0.  0.
    9000005    1    3    3    0    0 -0.54315938808E+02 -0.22021752881E+02 -0.72625516673E+03  0.72861700914E+03  0.10000000000E+01 0.  0.
    9000005    1    3    3    0    0  0.54315938808E+02  0.22021752881E+02 -0.35029184673E+03  0.35516271861E+03  0.10000000000E+01 0.  0.
<mgrwt>
<rscale>  0 0.12500010E+03</rscale>
<asrwt>0</asrwt>
<pdfrwt beam="2">  1        4 0.16617872E+00 0.12500010E+03</pdfrwt>
<pdfrwt beam="1">  1       -4 0.55636350E-03 0.12500010E+03</pdfrwt>
<totfact> 0.27963009E+03</totfact>
</mgrwt>
</event>
<event>
 5    1  0.3271306E-002  0.1250021E+03  0.7818608E-02  0.1235066E+00
         -4   -1    0    0    0  501 -0.00000000000E+00  0.00000000000E+00  0.63137963451E+01  0.64402580917E+01  0.12700000000E+01 0.  1.
          4   -1    0    0  501    0  0.00000000000E+00 -0.00000000000E+00 -0.61244331389E+03  0.61244463066E+03  0.12700000000E+01 0.  1.
         25    2    1    2    0    0  0.00000000000E+00  0.00000000000E+00 -0.60612951754E+03  0.61888488875E+03  0.12500205394E+03 0.  0.
    9000005    1    3    3    0    0 -0.43830074073E+02  0.43424067831E+02 -0.35224023396E+03  0.35760440081E+03  0.10000000000E+01 0.  0.
    9000005    1    3    3    0    0  0.43830074073E+02 -0.43424067831E+02 -0.25388928358E+03  0.26128048794E+03  0.10000000000E+01 0.  0.
<mgrwt>
<rscale>  0 0.12500205E+03</rscale>
<asrwt>0</asrwt>
<pdfrwt beam="2">  1        4 0.94231832E-01 0.12500205E+03</pdfrwt>
<pdfrwt beam="1">  1       -4 0.98118288E-03 0.12500205E+03</pdfrwt>
<totfact> 0.47694705E+03</totfact>
</mgrwt>
</event>
<event>
 5    1  0.3271306E-002  0.1250041E+03  0.7818608E-02  0.1235063E+00
         -4   -1    0    0    0  501 -0.00000000000E+00  0.00000000000E+00  0.36907043495E+03  0.36907262003E+03  0.12700000000E+01 0.  1.
          4   -1    0    0  501    0  0.00000000000E+00 -0.00000000000E+00 -0.10544402828E+02  0.10620608787E+02  0.12700000000E+01 0.  1.
         25    2    1    2    0    0  0.00000000000E+00  0.00000000000E+00  0.35852603212E+03  0.37969322881E+03  0.12500412913E+03 0.  0.
    9000005    1    3    3    0    0 -0.26982145478E+02 -0.56193632542E+02  0.16576514622E+03  0.17710122590E+03  0.10000000000E+01 0.  0.
    9000005    1    3    3    0    0  0.26982145478E+02  0.56193632542E+02  0.19276088590E+03  0.20259200291E+03  0.10000000000E+01 0.  0.
<mgrwt>
<rscale>  0 0.12500413E+03</rscale>
<asrwt>0</asrwt>
<pdfrwt beam="2">  1        4 0.16282457E-02 0.12500413E+03</pdfrwt>
<pdfrwt beam="1">  1       -4 0.56786103E-01 0.12500413E+03</pdfrwt>
<totfact> 0.66570810E+03</totfact>
</mgrwt>
</event>
<event>
 5    1  0.3271306E-002  0.1250006E+03  0.7818608E-02  0.1235068E+00
          4   -1    0    0  501    0  0.00000000000E+00  0.00000000000E+00  0.13072632682E+02  0.13134177753E+02  0.12700000000E+01 0.  1.
         -4   -1    0    0    0  501 -0.00000000000E+00 -0.00000000000E+00 -0.29804950692E+03  0.29805221267E+03  0.12700000000E+01 0.  1.
         25    2    1    2    0    0  0.00000000000E+00  0.00000000000E+00 -0.28497687424E+03  0.31118639042E+03  0.12500060292E+03 0.  0.
    9000005    1    3    3    0    0  0.36334654573E+02  0.50807917360E+02 -0.14723551122E+03  0.15994044940E+03  0.10000000000E+01 0.  0.
    9000005    1    3    3    0    0 -0.36334654573E+02 -0.50807917360E+02 -0.13774136301E+03  0.15124594102E+03  0.10000000000E+01 0.  0.
<mgrwt>
<rscale>  0 0.12500060E+03</rscale>
<asrwt>0</asrwt>
<pdfrwt beam="1">  1        4 0.20161168E-02 0.12500060E+03</pdfrwt>
<pdfrwt beam="2">  1       -4 0.45858708E-01 0.12500060E+03</pdfrwt>
<totfact> 0.74215736E+03</totfact>
</mgrwt>
</event>
<event>
 5    1  0.3271306E-002  0.1250017E+03  0.7818608E-02  0.1235067E+00
         -4   -1    0    0    0  501 -0.00000000000E+00  0.00000000000E+00  0.91646399190E+01  0.92522172935E+01  0.12700000000E+01 0.  1.
          4   -1    0    0  501    0  0.00000000000E+00 -0.00000000000E+00 -0.42412681460E+03  0.42412871603E+03  0.12700000000E+01 0.  1.
         25    2    1    2    0    0  0.00000000000E+00  0.00000000000E+00 -0.41496217468E+03  0.43338093332E+03  0.12500170780E+03 0.  0.
    9000005    1    3    3    0    0  0.43439448087E+02 -0.44624847078E+02 -0.18946799094E+03  0.19944292973E+03  0.10000000000E+01 0.  0.
    9000005    1    3    3    0    0 -0.43439448087E+02  0.44624847078E+02 -0.22549418374E+03  0.23393800359E+03  0.10000000000E+01 0.  0.
<mgrwt>
<rscale>  0 0.12500171E+03</rscale>
<asrwt>0</asrwt>
<pdfrwt beam="2">  1        4 0.65257147E-01 0.12500171E+03</pdfrwt>
<pdfrwt beam="1">  1       -4 0.14168279E-02 0.12500171E+03</pdfrwt>
<totfact> 0.61428416E+03</totfact>
</mgrwt>
</event>
<event>
 5    1  0.3271306E-002  0.1249993E+03  0.7818608E-02  0.1235070E+00
         -4   -1    0    0    0  501 -0.00000000000E+00  0.00000000000E+00  0.25257693727E+02  0.25289602457E+02  0.12700000000E+01 0. -1.
          4   -1    0    0  501    0  0.00000000000E+00 -0.00000000000E+00 -0.15452205499E+03  0.15452727390E+03  0.12700000000E+01 0. -1.
         25    2    1    2    0    0  0.00000000000E+00  0.00000000000E+00 -0.12926436127E+03  0.17981687636E+03  0.12499933572E+03 0.  0.
    9000005    1    3    3    0    0 -0.22074918986E+02  0.53854779038E+02 -0.97359238162E+02  0.11343482943E+03  0.10000000000E+01 0.  0.
    9000005    1    3    3    0    0  0.22074918986E+02 -0.53854779038E+02 -0.31905123106E+02  0.66382046924E+02  0.10000000000E+01 0.  0.
<mgrwt>
<rscale>  0 0.12499934E+03</rscale>
<asrwt>0</asrwt>
<pdfrwt beam="2">  1        4 0.23775479E-01 0.12499934E+03</pdfrwt>
<pdfrwt beam="1">  1       -4 0.38886551E-02 0.12499934E+03</pdfrwt>
<totfact> 0.93651372E+03</totfact>
</mgrwt>
</event>
<event>
 5    1  0.3271306E-002  0.1249993E+03  0.7818608E-02  0.1235070E+00
          4   -1    0    0  501    0  0.00000000000E+00  0.00000000000E+00  0.13439290179E+03  0.13439890234E+03  0.12700000000E+01 0. -1.
         -4   -1    0    0    0  501 -0.00000000000E+00 -0.00000000000E+00 -0.29045062256E+02  0.29072814475E+02  0.12700000000E+01 0. -1.
         25    2    1    2    0    0  0.00000000000E+00  0.00000000000E+00  0.10534783953E+03  0.16347171682E+03  0.12499933962E+03 0.  0.
    9000005    1    3    3    0    0 -0.34755811701E+02  0.29937593528E+02  0.10817349822E+03  0.11750204964E+03  0.10000000000E+01 0.  0.
    9000005    1    3    3    0    0  0.34755811701E+02 -0.29937593528E+02 -0.28256586865E+01  0.45969667176E+02  0.10000000000E+01 0.  0.
<mgrwt>
<rscale>  0 0.12499934E+03</rscale>
<asrwt>0</asrwt>
<pdfrwt beam="1">  1        4 0.20678427E-01 0.12499934E+03</pdfrwt>
<pdfrwt beam="2">  1       -4 0.44710675E-02 0.12499934E+03</pdfrwt>
<totfact> 0.96679044E+03</totfact>
</mgrwt>
</event>
<event>
 5    1  0.3271306E-002  0.1249990E+03  0.7818608E-02  0.1235071E+00
         -4   -1    0    0    0  501 -0.00000000000E+00  0.00000000000E+00  0.17447931958E+03  0.17448394155E+03  0.12700000000E+01 0. -1.
          4   -1    0    0  501    0  0.00000000000E+00 -0.00000000000E+00 -0.22364742049E+02  0.22400772016E+02  0.12700000000E+01 0. -1.
         25    2    1    2    0    0  0.00000000000E+00  0.00000000000E+00  0.15211457753E+03  0.19688471357E+03  0.12499898296E+03 0.  0.
    9000005    1    3    3    0    0  0.12014048218E+02 -0.43376650934E+02  0.77754298508E+01  0.45687290467E+02  0.10000000000E+01 0.  0.
    9000005    1    3    3    0    0 -0.12014048218E+02  0.43376650934E+02  0.14433914768E+03  0.15119742310E+03  0.10000000000E+01 0.  0.
<mgrwt>
<rscale>  0 0.12499898E+03</rscale>
<asrwt>0</asrwt>
<pdfrwt beam="2">  1        4 0.34438567E-02 0.12499898E+03</pdfrwt>
<pdfrwt beam="1">  1       -4 0.26846099E-01 0.12499898E+03</pdfrwt>
<totfact> 0.90665069E+03</totfact>
</mgrwt>
</event>
<event>
 5    1  0.3271306E-002  0.1250007E+03  0.7818608E-02  0.1235068E+00
          4   -1    0    0  501    0  0.00000000000E+00  0.00000000000E+00  0.28953811039E+03  0.28954089567E+03  0.12700000000E+01 0.  1.
         -4   -1    0    0    0  501 -0.00000000000E+00 -0.00000000000E+00 -0.13458712288E+02  0.13518499786E+02  0.12700000000E+01 0.  1.
         25    2    1    2    0    0  0.00000000000E+00  0.00000000000E+00  0.27607939810E+03  0.30305939546E+03  0.12500065248E+03 0.  0.
    9000005    1    3    3    0    0  0.20991972087E+02  0.42817157091E+02  0.23596274472E+03  0.24073510075E+03  0.10000000000E+01 0.  0.
    9000005    1    3    3    0    0 -0.20991972087E+02 -0.42817157091E+02  0.40116653378E+02  0.62324294715E+02  0.10000000000E+01 0.  0.
<mgrwt>
<rscale>  0 0.12500065E+03</rscale>
<asrwt>0</asrwt>
<pdfrwt beam="1">  1        4 0.44549136E-01 0.12500065E+03</pdfrwt>
<pdfrwt beam="2">  1       -4 0.20753845E-02 0.12500065E+03</pdfrwt>
<totfact> 0.75215580E+03</totfact>
</mgrwt>
</event>
<event>
 5    1  0.3271306E-002  0.1249997E+03  0.7818608E-02  0.1235070E+00
          4   -1    0    0  501    0  0.00000000000E+00  0.00000000000E+00  0.11461976701E+04  0.11461983737E+04  0.12700000000E+01 0. -1.
         -4   -1    0    0    0  501 -0.00000000000E+00 -0.00000000000E+00 -0.32889422097E+01  0.35256263073E+01  0.12700000000E+01 0. -1.
         25    2    1    2    0    0  0.00000000000E+00  0.00000000000E+00  0.11429087279E+04  0.11497240000E+04  0.12499966350E+03 0.  0.
    9000005    1    3    3    0    0 -0.94835224169E+01  0.29152049656E+02  0.10723301529E+04  0.10727687244E+04  0.10000000000E+01 0.  0.
    9000005    1    3    3    0    0  0.94835224169E+01 -0.29152049656E+02  0.70578574984E+02  0.76955275605E+02  0.10000000000E+01 0.  0.
<mgrwt>
<rscale>  0 0.12499966E+03</rscale>
<asrwt>0</asrwt>
<pdfrwt beam="1">  1        4 0.17635676E+00 0.12499966E+03</pdfrwt>
<pdfrwt beam="2">  1       -4 0.52425051E-03 0.12499966E+03</pdfrwt>
<totfact> 0.26068009E+03</totfact>
</mgrwt>
</event>
<event>
 5    1  0.3271306E-002  0.1249974E+03  0.7818608E-02  0.1235073E+00
         -4   -1    0    0    0  501 -0.00000000000E+00  0.00000000000E+00  0.67649755303E+02  0.67661675212E+02  0.12700000000E+01 0.  1.
          4   -1    0    0  501    0  0.00000000000E+00 -0.00000000000E+00 -0.57715835819E+02  0.57729806896E+02  0.12700000000E+01 0.  1.
         25    2    1    2    0    0  0.00000000000E+00  0.00000000000E+00  0.99339194842E+01  0.12539148211E+03  0.12499736409E+03 0.  0.
    9000005    1    3    3    0    0 -0.48460165512E+02 -0.13526329032E+02  0.42147768023E+02  0.65641325153E+02  0.10000000000E+01 0.  0.
    9000005    1    3    3    0    0  0.48460165512E+02  0.13526329032E+02 -0.32213848539E+02  0.59750156955E+02  0.10000000000E+01 0.  0.
<mgrwt>
<rscale>  0 0.12499736E+03</rscale>
<asrwt>0</asrwt>
<pdfrwt beam="2">  1        4 0.88813510E-02 0.12499736E+03</pdfrwt>
<pdfrwt beam="1">  1       -4 0.10409646E-01 0.12499736E+03</pdfrwt>
<totfact> 0.10444976E+04</totfact>
</mgrwt>
</event>
<event>
 5    1  0.3271306E-002  0.1250001E+03  0.7818608E-02  0.1235069E+00
          4   -1    0    0  501    0  0.00000000000E+00  0.00000000000E+00  0.45130946122E+02  0.45148811699E+02  0.12700000000E+01 0. -1.
         -4   -1    0    0    0  501 -0.00000000000E+00 -0.00000000000E+00 -0.86514177522E+02  0.86523498614E+02  0.12700000000E+01 0. -1.
         25    2    1    2    0    0  0.00000000000E+00  0.00000000000E+00 -0.41383231401E+02  0.13167231031E+03  0.12500010185E+03 0.  0.
    9000005    1    3    3    0    0  0.34994123321E+02  0.49176822558E+02 -0.37752035333E+02  0.71198066797E+02  0.10000000000E+01 0.  0.
    9000005    1    3    3    0    0 -0.34994123321E+02 -0.49176822558E+02 -0.36311960678E+01  0.60474243516E+02  0.10000000000E+01 0.  0.
<mgrwt>
<rscale>  0 0.12500010E+03</rscale>
<asrwt>0</asrwt>
<pdfrwt beam="1">  1        4 0.69453138E-02 0.12500010E+03</pdfrwt>
<pdfrwt beam="2">  1       -4 0.13311965E-01 0.12500010E+03</pdfrwt>
<totfact> 0.10308674E+04</totfact>
</mgrwt>
</event>
<event>
 5    1  0.3271306E-002  0.1250038E+03  0.7818608E-02  0.1235063E+00
          4   -1    0    0  501    0  0.00000000000E+00  0.00000000000E+00  0.23354154124E+03  0.23354499435E+03  0.12700000000E+01 0.  1.
         -4   -1    0    0    0  501 -0.00000000000E+00 -0.00000000000E+00 -0.16699465304E+02  0.16747687645E+02  0.12700000000E+01 0.  1.
         25    2    1    2    0    0  0.00000000000E+00  0.00000000000E+00  0.21684207594E+03  0.25029268199E+03  0.12500376300E+03 0.  0.
    9000005    1    3    3    0    0  0.53799115118E+02 -0.31798168177E+02  0.10816071232E+03  0.12492080682E+03  0.10000000000E+01 0.  0.
    9000005    1    3    3    0    0 -0.53799115118E+02  0.31798168177E+02  0.10868136362E+03  0.12537187518E+03  0.10000000000E+01 0.  0.
<mgrwt>
<rscale>  0 0.12500376E+03</rscale>
<asrwt>0</asrwt>
<pdfrwt beam="1">  1        4 0.35933440E-01 0.12500376E+03</pdfrwt>
<pdfrwt beam="2">  1       -4 0.25731238E-02 0.12500376E+03</pdfrwt>
<totfact> 0.82281049E+03</totfact>
</mgrwt>
</event>
<event>
 5    1  0.3271306E-002  0.1249991E+03  0.7818608E-02  0.1235071E+00
          4   -1    0    0  501    0  0.00000000000E+00  0.00000000000E+00  0.48392568274E+02  0.48409230155E+02  0.12700000000E+01 0. -1.
         -4   -1    0    0    0  501 -0.00000000000E+00 -0.00000000000E+00 -0.80683284360E+02  0.80693278996E+02  0.12700000000E+01 0. -1.
         25    2    1    2    0    0  0.00000000000E+00  0.00000000000E+00 -0.32290716085E+02  0.12910250915E+03  0.12499907009E+03 0.  0.
    9000005    1    3    3    0    0 -0.17719025400E+02  0.26186057554E+01  0.45689643176E+02  0.49085277333E+02  0.10000000000E+01 0.  0.
    9000005    1    3    3    0    0  0.17719025400E+02 -0.26186057554E+01 -0.77980359262E+02  0.80017231818E+02  0.10000000000E+01 0.  0.
<mgrwt>
<rscale>  0 0.12499907E+03</rscale>
<asrwt>0</asrwt>
<pdfrwt beam="1">  1        4 0.74470610E-02 0.12499907E+03</pdfrwt>
<pdfrwt beam="2">  1       -4 0.12414863E-01 0.12499907E+03</pdfrwt>
<totfact> 0.10363962E+04</totfact>
</mgrwt>
</event>
<event>
 5    1  0.3271306E-002  0.1249997E+03  0.7818608E-02  0.1235070E+00
          4   -1    0    0  501    0  0.00000000000E+00  0.00000000000E+00  0.45859219944E+02  0.45876801915E+02  0.12700000000E+01 0. -1.
         -4   -1    0    0    0  501 -0.00000000000E+00 -0.00000000000E+00 -0.85140146637E+02  0.85149618140E+02  0.12700000000E+01 0. -1.
         25    2    1    2    0    0  0.00000000000E+00  0.00000000000E+00 -0.39280926693E+02  0.13102642005E+03  0.12499972620E+03 0.  0.
    9000005    1    3    3    0    0 -0.37987381033E+02 -0.30826851087E+02 -0.60398280748E+02  0.77732156686E+02  0.10000000000E+01 0.  0.
    9000005    1    3    3    0    0  0.37987381033E+02  0.30826851087E+02  0.21117354056E+02  0.53294263369E+02  0.10000000000E+01 0.  0.
<mgrwt>
<rscale>  0 0.12499973E+03</rscale>
<asrwt>0</asrwt>
<pdfrwt beam="1">  1        4 0.70573456E-02 0.12499973E+03</pdfrwt>
<pdfrwt beam="2">  1       -4 0.13100565E-01 0.12499973E+03</pdfrwt>
<totfact> 0.10322587E+04</totfact>
</mgrwt>
</event>
<event>
 5    1  0.3271306E-002  0.1250008E+03  0.7818608E-02  0.1235068E+00
          4   -1    0    0  501    0  0.00000000000E+00  0.00000000000E+00  0.33825371532E+01  0.36130952925E+01  0.12700000000E+01 0. -1.
         -4   -1    0    0    0  501 -0.00000000000E+00 -0.00000000000E+00 -0.11165510894E+04  0.11165518116E+04  0.12700000000E+01 0. -1.
         25    2    1    2    0    0  0.00000000000E+00  0.00000000000E+00 -0.11131685522E+04  0.11201649069E+04  0.12500077230E+03 0.  0.
    9000005    1    3    3    0    0 -0.36275197479E+02 -0.32230649840E+02 -0.90945713006E+03  0.91075132510E+03  0.10000000000E+01 0.  0.
    9000005    1    3    3    0    0  0.36275197479E+02  0.32230649840E+02 -0.20371142216E+03  0.20941358184E+03  0.10000000000E+01 0.  0.
<mgrwt>
<rscale>  0 0.12500077E+03</rscale>
<asrwt>0</asrwt>
<pdfrwt beam="1">  1        4 0.53818202E-03 0.12500077E+03</pdfrwt>
<pdfrwt beam="2">  1       -4 0.17179460E+00 0.12500077E+03</pdfrwt>
<totfact> 0.26900195E+03</totfact>
</mgrwt>
</event>
<event>
 5    1  0.3271306E-002  0.1249997E+03  0.7818608E-02  0.1235070E+00
          4   -1    0    0  501    0  0.00000000000E+00  0.00000000000E+00  0.37696047007E+03  0.37696260942E+03  0.12700000000E+01 0. -1.
         -4   -1    0    0    0  501 -0.00000000000E+00 -0.00000000000E+00 -0.10321348159E+02  0.10399188806E+02  0.12700000000E+01 0. -1.
         25    2    1    2    0    0  0.00000000000E+00  0.00000000000E+00  0.36663912191E+03  0.38736179822E+03  0.12499966801E+03 0.  0.
    9000005    1    3    3    0    0  0.11649303056E+02  0.46108700716E+02  0.30894980331E+03  0.31259030616E+03  0.10000000000E+01 0.  0.
    9000005    1    3    3    0    0 -0.11649303056E+02 -0.46108700716E+02  0.57689318607E+02  0.74771492059E+02  0.10000000000E+01 0.  0.
<mgrwt>
<rscale>  0 0.12499967E+03</rscale>
<asrwt>0</asrwt>
<pdfrwt beam="1">  1        4 0.58000068E-01 0.12499967E+03</pdfrwt>
<pdfrwt beam="2">  1       -4 0.15940521E-02 0.12499967E+03</pdfrwt>
<totfact> 0.65801292E+03</totfact>
</mgrwt>
</event>
<event>
 5    1  0.3271306E-002  0.1250036E+03  0.7818608E-02  0.1235064E+00
          4   -1    0    0  501    0  0.00000000000E+00  0.00000000000E+00  0.96461027468E+01  0.97293472650E+01  0.12700000000E+01 0.  1.
         -4   -1    0    0    0  501 -0.00000000000E+00 -0.00000000000E+00 -0.40315553576E+03  0.40315753610E+03  0.12700000000E+01 0.  1.
         25    2    1    2    0    0  0.00000000000E+00  0.00000000000E+00 -0.39350943302E+03  0.41288688337E+03  0.12500361828E+03 0.  0.
    9000005    1    3    3    0    0  0.78140488363E+01 -0.19796645009E+02 -0.26768756967E+01  0.21473988366E+02  0.10000000000E+01 0.  0.
    9000005    1    3    3    0    0 -0.78140488363E+01  0.19796645009E+02 -0.39083255732E+03  0.39141289500E+03  0.10000000000E+01 0.  0.
<mgrwt>
<rscale>  0 0.12500362E+03</rscale>
<asrwt>0</asrwt>
<pdfrwt beam="1">  1        4 0.14905734E-02 0.12500362E+03</pdfrwt>
<pdfrwt beam="2">  1       -4 0.62030473E-01 0.12500362E+03</pdfrwt>
<totfact> 0.63313383E+03</totfact>
</mgrwt>
</event>
<event>
 5    1  0.3271306E-002  0.1250022E+03  0.7818608E-02  0.1235066E+00
         -4   -1    0    0    0  501 -0.00000000000E+00  0.00000000000E+00  0.13635651935E+03  0.13636243349E+03  0.12700000000E+01 0. -1.
          4   -1    0    0  501    0  0.00000000000E+00 -0.00000000000E+00 -0.28627740331E+02  0.28655896714E+02  0.12700000000E+01 0. -1.
         25    2    1    2    0    0  0.00000000000E+00  0.00000000000E+00  0.10772877901E+03  0.16501833021E+03  0.12500223788E+03 0.  0.
    9000005    1    3    3    0    0 -0.34576929706E+02 -0.34698303826E+01 -0.14703085153E+02  0.37746317752E+02  0.10000000000E+01 0.  0.
    9000005    1    3    3    0    0  0.34576929706E+02  0.34698303826E+01  0.12243186417E+03  0.12727201245E+03  0.10000000000E+01 0.  0.
<mgrwt>
<rscale>  0 0.12500224E+03</rscale>
<asrwt>0</asrwt>
<pdfrwt beam="2">  1        4 0.44068885E-02 0.12500224E+03</pdfrwt>
<pdfrwt beam="1">  1       -4 0.20980547E-01 0.12500224E+03</pdfrwt>
<totfact> 0.96379075E+03</totfact>
</mgrwt>
</event>
<event>
 5    1  0.3271306E-002  0.1250019E+03  0.7818608E-02  0.1235066E+00
         -4   -1    0    0    0  501 -0.00000000000E+00  0.00000000000E+00  0.90294192643E+02  0.90303123562E+02  0.12700000000E+01 0.  1.
          4   -1    0    0  501    0  0.00000000000E+00 -0.00000000000E+00 -0.43242303314E+02  0.43260948856E+02  0.12700000000E+01 0.  1.
         25    2    1    2    0    0  0.00000000000E+00  0.00000000000E+00  0.47051889329E+02  0.13356407242E+03  0.12500192459E+03 0.  0.
    9000005    1    3    3    0    0  0.26957670361E+02 -0.21770278894E+02 -0.32043140384E+02  0.47206184765E+02  0.10000000000E+01 0.  0.
    9000005    1    3    3    0    0 -0.26957670361E+02  0.21770278894E+02  0.79095029713E+02  0.86357887652E+02  0.10000000000E+01 0.  0.
<mgrwt>
<rscale>  0 0.12500192E+03</rscale>
<asrwt>0</asrwt>
<pdfrwt beam="2">  1        4 0.66547833E-02 0.12500192E+03</pdfrwt>
<pdfrwt beam="1">  1       -4 0.13893536E-01 0.12500192E+03</pdfrwt>
<totfact> 0.10267980E+04</totfact>
</mgrwt>
</event>
<event>
 5    1  0.3271306E-002  0.1250009E+03  0.7818608E-02  0.1235068E+00
          4   -1    0    0  501    0  0.00000000000E+00  0.00000000000E+00  0.36212484003E+03  0.36212706702E+03  0.12700000000E+01 0.  1.
         -4   -1    0    0    0  501 -0.00000000000E+00 -0.00000000000E+00 -0.10747531241E+02  0.10822306952E+02  0.12700000000E+01 0.  1.
         25    2    1    2    0    0  0.00000000000E+00  0.00000000000E+00  0.35137730879E+03  0.37294937397E+03  0.12500088965E+03 0.  0.
    9000005    1    3    3    0    0  0.18488660210E+02  0.44094736477E+02  0.55634404287E+02  0.73364591471E+02  0.10000000000E+01 0.  0.
    9000005    1    3    3    0    0 -0.18488660210E+02 -0.44094736477E+02  0.29574290451E+03  0.29958478250E+03  0.10000000000E+01 0.  0.
<mgrwt>
<rscale>  0 0.12500089E+03</rscale>
<asrwt>0</asrwt>
<pdfrwt beam="1">  1        4 0.55717440E-01 0.12500089E+03</pdfrwt>
<pdfrwt beam="2">  1       -4 0.16593895E-02 0.12500089E+03</pdfrwt>
<totfact> 0.67270175E+03</totfact>
</mgrwt>
</event>
<event>
 5    1  0.3271306E-002  0.1250017E+03  0.7818608E-02  0.1235067E+00
          4   -1    0    0  501    0  0.00000000000E+00  0.00000000000E+00  0.31870747701E+03  0.31871000737E+03  0.12700000000E+01 0. -1.
         -4   -1    0    0    0  501 -0.00000000000E+00 -0.00000000000E+00 -0.12221378895E+02  0.12287188535E+02  0.12700000000E+01 0. -1.
         25    2    1    2    0    0  0.00000000000E+00  0.00000000000E+00  0.30648609811E+03  0.33099719591E+03  0.12500166144E+03 0.  0.
    9000005    1    3    3    0    0 -0.10973917280E+02  0.64139888150E+01 -0.87752757143E+01  0.15478099911E+02  0.10000000000E+01 0.  0.
    9000005    1    3    3    0    0  0.10973917280E+02 -0.64139888150E+01  0.31526137382E+03  0.31551909600E+03  0.10000000000E+01 0.  0.
<mgrwt>
<rscale>  0 0.12500166E+03</rscale>
<asrwt>0</asrwt>
<pdfrwt beam="1">  1        4 0.49037171E-01 0.12500166E+03</pdfrwt>
<pdfrwt beam="2">  1       -4 0.18854693E-02 0.12500166E+03</pdfrwt>
<totfact> 0.71864324E+03</totfact>
</mgrwt>
</event>
<event>
 5    1  0.3271306E-002  0.1250000E+03  0.7818608E-02  0.1235069E+00
         -4   -1    0    0    0  501 -0.00000000000E+00  0.00000000000E+00  0.94644363174E+01  0.95492646212E+01  0.12700000000E+01 0.  1.
          4   -1    0    0  501    0  0.00000000000E+00 -0.00000000000E+00 -0.41080182288E+03  0.41080378599E+03  0.12700000000E+01 0.  1.
         25    2    1    2    0    0  0.00000000000E+00  0.00000000000E+00 -0.40133738657E+03  0.42035305061E+03  0.12499995721E+03 0.  0.
    9000005    1    3    3    0    0  0.30815100376E+02  0.51225243062E+02 -0.13942727376E+03  0.15170550618E+03  0.10000000000E+01 0.  0.
    9000005    1    3    3    0    0 -0.30815100376E+02 -0.51225243062E+02 -0.26191011281E+03  0.26864754443E+03  0.10000000000E+01 0.  0.
<mgrwt>
<rscale>  0 0.12499996E+03</rscale>
<asrwt>0</asrwt>
<pdfrwt beam="2">  1        4 0.63206943E-01 0.12499996E+03</pdfrwt>
<pdfrwt beam="1">  1       -4 0.14627437E-02 0.12499996E+03</pdfrwt>
<totfact> 0.62620335E+03</totfact>
</mgrwt>
</event>
<event>
 5    1  0.3271306E-002  0.1250019E+03  0.7818608E-02  0.1235066E+00
          4   -1    0    0  501    0  0.00000000000E+00  0.00000000000E+00  0.31535933029E+02  0.31561495086E+02  0.12700000000E+01 0. -1.
         -4   -1    0    0    0  501 -0.00000000000E+00 -0.00000000000E+00 -0.12379137394E+03  0.12379788836E+03  0.12700000000E+01 0. -1.
         25    2    1    2    0    0  0.00000000000E+00  0.00000000000E+00 -0.92255440913E+02  0.15535938345E+03  0.12500188657E+03 0.  0.
    9000005    1    3    3    0    0 -0.35316316905E+02 -0.43853144873E+02 -0.79823280037E+02  0.97688774129E+02  0.10000000000E+01 0.  0.
    9000005    1    3    3    0    0  0.35316316905E+02  0.43853144873E+02 -0.12432160876E+02  0.57670609317E+02  0.10000000000E+01 0.  0.
<mgrwt>
<rscale>  0 0.12500189E+03</rscale>
<asrwt>0</asrwt>
<pdfrwt beam="1">  1        4 0.48541495E-02 0.12500189E+03</pdfrwt>
<pdfrwt beam="2">  1       -4 0.19047294E-01 0.12500189E+03</pdfrwt>
<totfact> 0.98240826E+03</totfact>
</mgrwt>
</event>
<event>
 5    1  0.3271306E-002  0.1249959E+03  0.7818608E-02  0.1235076E+00
         -4   -1    0    0    0  501 -0.00000000000E+00  0.00000000000E+00  0.36689902575E+03  0.36690122376E+03  0.12700000000E+01 0.  1.
          4   -1    0    0  501    0  0.00000000000E+00 -0.00000000000E+00 -0.10605841501E+02  0.10681609146E+02  0.12700000000E+01 0.  1.
         25    2    1    2    0    0  0.00000000000E+00  0.00000000000E+00  0.35629318425E+03  0.37758283290E+03  0.12499585018E+03 0.  0.
    9000005    1    3    3    0    0 -0.31600405394E+02 -0.37662558759E+01  0.34060131193E+03  0.34208628151E+03  0.10000000000E+01 0.  0.
    9000005    1    3    3    0    0  0.31600405394E+02  0.37662558759E+01  0.15691872313E+02  0.35496551397E+02  0.10000000000E+01 0.  0.
<mgrwt>
<rscale>  0 0.12499585E+03</rscale>
<asrwt>0</asrwt>
<pdfrwt beam="2">  1        4 0.16376654E-02 0.12499585E+03</pdfrwt>
<pdfrwt beam="1">  1       -4 0.56451996E-01 0.12499585E+03</pdfrwt>
<totfact> 0.66799149E+03</totfact>
</mgrwt>
</event>
<event>
 5    1  0.3271306E-002  0.1249984E+03  0.7818608E-02  0.1235072E+00
         -4   -1    0    0    0  501 -0.00000000000E+00  0.00000000000E+00  0.88835556691E+03  0.88835647471E+03  0.12700000000E+01 0. -1.
          4   -1    0    0  501    0  0.00000000000E+00 -0.00000000000E+00 -0.43044262366E+01  0.44878709013E+01  0.12700000000E+01 0. -1.
         25    2    1    2    0    0  0.00000000000E+00  0.00000000000E+00  0.88405114067E+03  0.89284434561E+03  0.12499842465E+03 0.  0.
    9000005    1    3    3    0    0  0.45536166063E+02  0.15911895564E+02  0.15824503936E+03  0.16543646310E+03  0.10000000000E+01 0.  0.
    9000005    1    3    3    0    0 -0.45536166063E+02 -0.15911895564E+02  0.72580610131E+03  0.72740788251E+03  0.10000000000E+01 0.  0.
<mgrwt>
<rscale>  0 0.12499842E+03</rscale>
<asrwt>0</asrwt>
<pdfrwt beam="2">  1        4 0.67640070E-03 0.12499842E+03</pdfrwt>
<pdfrwt beam="1">  1       -4 0.13668420E+00 0.12499842E+03</pdfrwt>
<totfact> 0.34436416E+03</totfact>
</mgrwt>
</event>
<event>
 4    1  0.3271306E-002  0.1249344E+03  0.7818608E-02  0.1235172E+00
         -4   -1    0    0    0  501 -0.00000000000E+00  0.00000000000E+00  0.10138758327E+03  0.10139553708E+03  0.12700000000E+01 0.  1.
          4   -1    0    0  501    0  0.00000000000E+00 -0.00000000000E+00 -0.38467518336E+02  0.38488477067E+02  0.12700000000E+01 0.  1.
    9000005    1    1    2    0    0 -0.50068626869E+02  0.37312859864E+00 -0.10346091331E+02  0.51137542250E+02  0.10000000000E+01 0.  0.
    9000005    1    1    2    0    0  0.50068626869E+02 -0.37312859864E+00  0.73266156262E+02  0.88746471902E+02  0.10000000000E+01 0.  0.
<mgrwt>
<rscale>  0 0.12493439E+03</rscale>
<asrwt>0</asrwt>
<pdfrwt beam="2">  1        4 0.59203038E-02 0.12493439E+03</pdfrwt>
<pdfrwt beam="1">  1       -4 0.15600314E-01 0.12493439E+03</pdfrwt>
<totfact> 0.10150987E+04</totfact>
</mgrwt>
</event>
<event>
 5    1  0.3271306E-002  0.1249900E+03  0.7818608E-02  0.1235085E+00
          4   -1    0    0  501    0  0.00000000000E+00  0.00000000000E+00  0.76026533835E+01  0.77079983439E+01  0.12700000000E+01 0.  1.
         -4   -1    0    0    0  501 -0.00000000000E+00 -0.00000000000E+00 -0.51007777209E+03  0.51007935312E+03  0.12700000000E+01 0.  1.
         25    2    1    2    0    0  0.00000000000E+00  0.00000000000E+00 -0.50247511870E+03  0.51778735146E+03  0.12498998527E+03 0.  0.
    9000005    1    3    3    0    0  0.35561948841E+02  0.32985805023E+02 -0.88041643632E+02  0.10052386061E+03  0.10000000000E+01 0.  0.
    9000005    1    3    3    0    0 -0.35561948841E+02 -0.32985805023E+02 -0.41443347507E+03  0.41726349085E+03  0.10000000000E+01 0.  0.
<mgrwt>
<rscale>  0 0.12498999E+03</rscale>
<asrwt>0</asrwt>
<pdfrwt beam="1">  1        4 0.11778645E-02 0.12498999E+03</pdfrwt>
<pdfrwt beam="2">  1       -4 0.78481702E-01 0.12498999E+03</pdfrwt>
<totfact> 0.54522234E+03</totfact>
</mgrwt>
</event>
<event>
 5    1  0.3271306E-002  0.1249975E+03  0.7818608E-02  0.1235073E+00
         -4   -1    0    0    0  501 -0.00000000000E+00  0.00000000000E+00  0.48705056698E+02  0.48721611713E+02  0.12700000000E+01 0.  1.
          4   -1    0    0  501    0  0.00000000000E+00 -0.00000000000E+00 -0.80163734178E+02  0.80173793582E+02  0.12700000000E+01 0.  1.
         25    2    1    2    0    0  0.00000000000E+00  0.00000000000E+00 -0.31458677480E+02  0.12889540530E+03  0.12499750845E+03 0.  0.
    9000005    1    3    3    0    0  0.58259597096E+00  0.66014906737E+01 -0.79805403716E+02  0.80086338157E+02  0.10000000000E+01 0.  0.
    9000005    1    3    3    0    0 -0.58259597096E+00 -0.66014906737E+01  0.48346726236E+02  0.48809067138E+02  0.10000000000E+01 0.  0.
<mgrwt>
<rscale>  0 0.12499751E+03</rscale>
<asrwt>0</asrwt>
<pdfrwt beam="2">  1        4 0.12334929E-01 0.12499751E+03</pdfrwt>
<pdfrwt beam="1">  1       -4 0.74951329E-02 0.12499751E+03</pdfrwt>
<totfact> 0.10368778E+04</totfact>
</mgrwt>
</event>
<event>
 5    1  0.3271306E-002  0.1250006E+03  0.7818608E-02  0.1235068E+00
          4   -1    0    0  501    0  0.00000000000E+00  0.00000000000E+00  0.18285582185E+03  0.18286023210E+03  0.12700000000E+01 0. -1.
         -4   -1    0    0    0  501 -0.00000000000E+00 -0.00000000000E+00 -0.21339127853E+02  0.21376886526E+02  0.12700000000E+01 0. -1.
         25    2    1    2    0    0  0.00000000000E+00  0.00000000000E+00  0.16151669399E+03  0.20423711863E+03  0.12500063274E+03 0.  0.
    9000005    1    3    3    0    0 -0.44899964781E+02 -0.24403556618E+02  0.21989455459E+02  0.55642398981E+02  0.10000000000E+01 0.  0.
    9000005    1    3    3    0    0  0.44899964781E+02  0.24403556618E+02  0.13952723854E+03  0.14859471964E+03  0.10000000000E+01 0.  0.
<mgrwt>
<rscale>  0 0.12500063E+03</rscale>
<asrwt>0</asrwt>
<pdfrwt beam="1">  1        4 0.28134909E-01 0.12500063E+03</pdfrwt>
<pdfrwt beam="2">  1       -4 0.32861865E-02 0.12500063E+03</pdfrwt>
<totfact> 0.89424503E+03</totfact>
</mgrwt>
</event>
<event>
 5    1  0.3271306E-002  0.1249833E+03  0.7818608E-02  0.1235095E+00
         -4   -1    0    0    0  501 -0.00000000000E+00  0.00000000000E+00  0.43529470127E+03  0.43529655392E+03  0.12700000000E+01 0. -1.
          4   -1    0    0  501    0  0.00000000000E+00 -0.00000000000E+00 -0.89245793751E+01  0.90144892824E+01  0.12700000000E+01 0. -1.
         25    2    1    2    0    0  0.00000000000E+00  0.00000000000E+00  0.42637012189E+03  0.44431104320E+03  0.12498328795E+03 0.  0.
    9000005    1    3    3    0    0  0.26978485584E+02  0.20348579274E+02  0.26344674426E+02  0.42859599082E+02  0.10000000000E+01 0.  0.
    9000005    1    3    3    0    0 -0.26978485584E+02 -0.20348579274E+02  0.40002544747E+03  0.40145144412E+03  0.10000000000E+01 0.  0.
<mgrwt>
<rscale>  0 0.12498329E+03</rscale>
<asrwt>0</asrwt>
<pdfrwt beam="2">  1        4 0.13800713E-02 0.12498329E+03</pdfrwt>
<pdfrwt beam="1">  1       -4 0.66975455E-01 0.12498329E+03</pdfrwt>
<totfact> 0.60482092E+03</totfact>
</mgrwt>
</event>
<event>
 5    1  0.3271306E-002  0.1249972E+03  0.7818608E-02  0.1235074E+00
         -4   -1    0    0    0  501 -0.00000000000E+00  0.00000000000E+00  0.83497248201E+03  0.83497344785E+03  0.12700000000E+01 0. -1.
          4   -1    0    0  501    0  0.00000000000E+00 -0.00000000000E+00 -0.45909111203E+01  0.47633354821E+01  0.12700000000E+01 0. -1.
         25    2    1    2    0    0  0.00000000000E+00  0.00000000000E+00  0.83038157089E+03  0.83973678333E+03  0.12499724800E+03 0.  0.
    9000005    1    3    3    0    0 -0.42412717153E+02 -0.41786941549E+02  0.54267277241E+03  0.54593014661E+03  0.10000000000E+01 0.  0.
    9000005    1    3    3    0    0  0.42412717153E+02  0.41786941549E+02  0.28770879848E+03  0.29380663672E+03  0.10000000000E+01 0.  0.
<mgrwt>
<rscale>  0 0.12499725E+03</rscale>
<asrwt>0</asrwt>
<pdfrwt beam="2">  1        4 0.71963146E-03 0.12499725E+03</pdfrwt>
<pdfrwt beam="1">  1       -4 0.12847069E+00 0.12499725E+03</pdfrwt>
<totfact> 0.36553207E+03</totfact>
</mgrwt>
</event>
<event>
 5    1  0.3271306E-002  0.1249994E+03  0.7818608E-02  0.1235070E+00
          4   -1    0    0  501    0  0.00000000000E+00  0.00000000000E+00  0.44539845541E+03  0.44540026604E+03  0.12700000000E+01 0. -1.
         -4   -1    0    0    0  501 -0.00000000000E+00 -0.00000000000E+00 -0.87223414886E+01  0.88143145533E+01  0.12700000000E+01 0. -1.
         25    2    1    2    0    0  0.00000000000E+00  0.00000000000E+00  0.43667611392E+03  0.45421458059E+03  0.12499942699E+03 0.  0.
    9000005    1    3    3    0    0  0.22045666231E+02 -0.21012683040E+02  0.41662372616E+03  0.41773660774E+03  0.10000000000E+01 0.  0.
    9000005    1    3    3    0    0 -0.22045666231E+02  0.21012683040E+02  0.20052387769E+02  0.36477972851E+02  0.10000000000E+01 0.  0.
<mgrwt>
<rscale>  0 0.12499943E+03</rscale>
<asrwt>0</asrwt>
<pdfrwt beam="1">  1        4 0.68530032E-01 0.12499943E+03</pdfrwt>
<pdfrwt beam="2">  1       -4 0.13491133E-02 0.12499943E+03</pdfrwt>
<totfact> 0.59601179E+03</totfact>
</mgrwt>
</event>
<event>
 5    1  0.3271306E-002  0.1249982E+03  0.7818608E-02  0.1235072E+00
         -4   -1    0    0    0  501 -0.00000000000E+00  0.00000000000E+00  0.24305094512E+01  0.27423121982E+01  0.12700000000E+01 0.  1.
          4   -1    0    0  501    0  0.00000000000E+00 -0.00000000000E+00 -0.15099423563E+04  0.15099428904E+04  0.12700000000E+01 0.  1.
         25    2    1    2    0    0  0.00000000000E+00  0.00000000000E+00 -0.15075118468E+04  0.15126852026E+04  0.12499821498E+03 0.  0.
    9000005    1    3    3    0    0 -0.17435501429E+01  0.19446816756E+01 -0.15093408851E+04  0.15093434762E+04  0.10000000000E+01 0.  0.
    9000005    1    3    3    0    0  0.17435501429E+01 -0.19446816756E+01  0.18290382841E+01  0.33417263450E+01  0.10000000000E+01 0.  0.
<mgrwt>
<rscale>  0 0.12499821E+03</rscale>
<asrwt>0</asrwt>
<pdfrwt beam="2">  1        4 0.23232215E+00 0.12499821E+03</pdfrwt>
<pdfrwt beam="1">  1       -4 0.39795165E-03 0.12499821E+03</pdfrwt>
<totfact> 0.17683169E+03</totfact>
</mgrwt>
</event>
<event>
 5    1  0.3271306E-002  0.1249990E+03  0.7818608E-02  0.1235071E+00
         -4   -1    0    0    0  501 -0.00000000000E+00  0.00000000000E+00  0.12282283110E+02  0.12347768154E+02  0.12700000000E+01 0. -1.
          4   -1    0    0  501    0  0.00000000000E+00 -0.00000000000E+00 -0.31712221787E+03  0.31712476089E+03  0.12700000000E+01 0. -1.
         25    2    1    2    0    0  0.00000000000E+00  0.00000000000E+00 -0.30483993476E+03  0.32947252904E+03  0.12499904627E+03 0.  0.
    9000005    1    3    3    0    0  0.21322818695E+02 -0.44209053887E+02 -0.25437084895E+03  0.25906491819E+03  0.10000000000E+01 0.  0.
    9000005    1    3    3    0    0 -0.21322818695E+02  0.44209053887E+02 -0.50469085810E+02  0.70407610847E+02  0.10000000000E+01 0.  0.
<mgrwt>
<rscale>  0 0.12499905E+03</rscale>
<asrwt>0</asrwt>
<pdfrwt beam="2">  1        4 0.48793260E-01 0.12499905E+03</pdfrwt>
<pdfrwt beam="1">  1       -4 0.18948152E-02 0.12499905E+03</pdfrwt>
<totfact> 0.72045004E+03</totfact>
</mgrwt>
</event>
<event>
 5    1  0.3271306E-002  0.1250011E+03  0.7818608E-02  0.1235068E+00
          4   -1    0    0  501    0  0.00000000000E+00  0.00000000000E+00  0.20588618499E+03  0.20589010192E+03  0.12700000000E+01 0.  1.
         -4   -1    0    0    0  501 -0.00000000000E+00 -0.00000000000E+00 -0.18947826713E+02  0.18990340628E+02  0.12700000000E+01 0.  1.
         25    2    1    2    0    0  0.00000000000E+00  0.00000000000E+00  0.18693835828E+03  0.22488044255E+03  0.12500105458E+03 0.  0.
    9000005    1    3    3    0    0  0.53986514517E+02 -0.31038136329E+02  0.10288726961E+03  0.12026928080E+03  0.10000000000E+01 0.  0.
    9000005    1    3    3    0    0 -0.53986514517E+02  0.31038136329E+02  0.84051088670E+02  0.10461116175E+03  0.10000000000E+01 0.  0.
<mgrwt>
<rscale>  0 0.12500105E+03</rscale>
<asrwt>0</asrwt>
<pdfrwt beam="1">  1        4 0.31678368E-01 0.12500105E+03</pdfrwt>
<pdfrwt beam="2">  1       -4 0.29186219E-02 0.12500105E+03</pdfrwt>
<totfact> 0.86099899E+03</totfact>
</mgrwt>
</event>
<event>
 5    1  0.3271306E-002  0.1250045E+03  0.7818608E-02  0.1235062E+00
          4   -1    0    0  501    0  0.00000000000E+00  0.00000000000E+00  0.38499312453E+02  0.38520253885E+02  0.12700000000E+01 0.  1.
         -4   -1    0    0    0  501 -0.00000000000E+00 -0.00000000000E+00 -0.10141757838E+03  0.10142552984E+03  0.12700000000E+01 0.  1.
         25    2    1    2    0    0  0.00000000000E+00  0.00000000000E+00 -0.62918265925E+02  0.13994578373E+03  0.12500445671E+03 0.  0.
    9000005    1    3    3    0    0  0.85771707165E+00  0.21601706111E+02  0.34185210720E+02  0.40459832148E+02  0.10000000000E+01 0.  0.
    9000005    1    3    3    0    0 -0.85771707165E+00 -0.21601706111E+02 -0.97103476644E+02  0.99485951581E+02  0.10000000000E+01 0.  0.
<mgrwt>
<rscale>  0 0.12500446E+03</rscale>
<asrwt>0</asrwt>
<pdfrwt beam="1">  1        4 0.59251937E-02 0.12500446E+03</pdfrwt>
<pdfrwt beam="2">  1       -4 0.15604927E-01 0.12500446E+03</pdfrwt>
<totfact> 0.10133692E+04</totfact>
</mgrwt>
</event>
<event>
 5    1  0.3271306E-002  0.1249999E+03  0.7818608E-02  0.1235069E+00
         -4   -1    0    0    0  501 -0.00000000000E+00  0.00000000000E+00  0.32376341168E+02  0.32401240215E+02  0.12700000000E+01 0. -1.
          4   -1    0    0  501    0  0.00000000000E+00 -0.00000000000E+00 -0.12057659624E+03  0.12058328433E+03  0.12700000000E+01 0. -1.
         25    2    1    2    0    0  0.00000000000E+00  0.00000000000E+00 -0.88200255068E+02  0.15298452455E+03  0.12499991903E+03 0.  0.
    9000005    1    3    3    0    0 -0.58619669716E+02  0.20107087664E+02 -0.53943346985E+02  0.82167179189E+02  0.10000000000E+01 0.  0.
    9000005    1    3    3    0    0  0.58619669716E+02 -0.20107087664E+02 -0.34256908084E+02  0.70817345357E+02  0.10000000000E+01 0.  0.
<mgrwt>
<rscale>  0 0.12499992E+03</rscale>
<asrwt>0</asrwt>
<pdfrwt beam="2">  1        4 0.18552675E-01 0.12499992E+03</pdfrwt>
<pdfrwt beam="1">  1       -4 0.49834054E-02 0.12499992E+03</pdfrwt>
<totfact> 0.98712250E+03</totfact>
</mgrwt>
</event>
<event>
 5    1  0.3271306E-002  0.1249990E+03  0.7818608E-02  0.1235071E+00
         -4   -1    0    0    0  501 -0.00000000000E+00  0.00000000000E+00  0.49077926726E+02  0.49094356007E+02  0.12700000000E+01 0.  1.
          4   -1    0    0  501    0  0.00000000000E+00 -0.00000000000E+00 -0.79556693953E+02  0.79566830104E+02  0.12700000000E+01 0.  1.
         25    2    1    2    0    0  0.00000000000E+00  0.00000000000E+00 -0.30478767227E+02  0.12866118611E+03  0.12499898224E+03 0.  0.
    9000005    1    3    3    0    0 -0.61595985272E+02 -0.88878565508E+01 -0.21073513874E+02  0.65712650097E+02  0.10000000000E+01 0.  0.
    9000005    1    3    3    0    0  0.61595985272E+02  0.88878565508E+01 -0.94052533525E+01  0.62948536014E+02  0.10000000000E+01 0.  0.
<mgrwt>
<rscale>  0 0.12499898E+03</rscale>
<asrwt>0</asrwt>
<pdfrwt beam="2">  1        4 0.12241535E-01 0.12499898E+03</pdfrwt>
<pdfrwt beam="1">  1       -4 0.75524938E-02 0.12499898E+03</pdfrwt>
<totfact> 0.10373471E+04</totfact>
</mgrwt>
</event>
<event>
 5    1  0.3271306E-002  0.1249854E+03  0.7818608E-02  0.1235092E+00
          4   -1    0    0  501    0  0.00000000000E+00  0.00000000000E+00  0.21264418695E+03  0.21264797940E+03  0.12700000000E+01 0.  1.
         -4   -1    0    0    0  501 -0.00000000000E+00 -0.00000000000E+00 -0.18339694463E+02  0.18383614797E+02  0.12700000000E+01 0.  1.
         25    2    1    2    0    0  0.00000000000E+00  0.00000000000E+00  0.19430449249E+03  0.23103159420E+03  0.12498544602E+03 0.  0.
    9000005    1    3    3    0    0 -0.46850290461E+02  0.31575745026E+01  0.17335354068E+03  0.17960336874E+03  0.10000000000E+01 0.  0.
    9000005    1    3    3    0    0  0.46850290461E+02 -0.31575745026E+01  0.20950951803E+02  0.51428225465E+02  0.10000000000E+01 0.  0.
<mgrwt>
<rscale>  0 0.12498545E+03</rscale>
<asrwt>0</asrwt>
<pdfrwt beam="1">  1        4 0.32718158E-01 0.12498545E+03</pdfrwt>
<pdfrwt beam="2">  1       -4 0.28251619E-02 0.12498545E+03</pdfrwt>
<totfact> 0.85179102E+03</totfact>
</mgrwt>
</event>
<event>
 5    1  0.3271306E-002  0.1250013E+03  0.7818608E-02  0.1235067E+00
          4   -1    0    0  501    0  0.00000000000E+00  0.00000000000E+00  0.15851451184E+03  0.15851959931E+03  0.12700000000E+01 0.  1.
         -4   -1    0    0    0  501 -0.00000000000E+00 -0.00000000000E+00 -0.24621508310E+02  0.24654240436E+02  0.12700000000E+01 0.  1.
         25    2    1    2    0    0  0.00000000000E+00  0.00000000000E+00  0.13389300353E+03  0.18317383975E+03  0.12500127668E+03 0.  0.
    9000005    1    3    3    0    0 -0.59914630924E+01  0.19842537771E+02 -0.19444897571E+02  0.28438142990E+02  0.10000000000E+01 0.  0.
    9000005    1    3    3    0    0  0.59914630924E+01 -0.19842537771E+02  0.15333790111E+03  0.15473569676E+03  0.10000000000E+01 0.  0.
<mgrwt>
<rscale>  0 0.12500128E+03</rscale>
<asrwt>0</asrwt>
<pdfrwt beam="1">  1        4 0.24389757E-01 0.12500128E+03</pdfrwt>
<pdfrwt beam="2">  1       -4 0.37908336E-02 0.12500128E+03</pdfrwt>
<totfact> 0.93046138E+03</totfact>
</mgrwt>
</event>
<event>
 5    1  0.3271306E-002  0.1249954E+03  0.7818608E-02  0.1235077E+00
         -4   -1    0    0    0  501 -0.00000000000E+00  0.00000000000E+00  0.78774422166E+03  0.78774524541E+03  0.12700000000E+01 0.  1.
          4   -1    0    0  501    0  0.00000000000E+00 -0.00000000000E+00 -0.48760476625E+01  0.50387241249E+01  0.12700000000E+01 0.  1.
         25    2    1    2    0    0  0.00000000000E+00  0.00000000000E+00  0.78286817400E+03  0.79278396953E+03  0.12499537786E+03 0.  0.
    9000005    1    3    3    0    0 -0.28517663405E+02  0.55243304032E+02  0.35138009016E+03  0.35683896582E+03  0.10000000000E+01 0.  0.
    9000005    1    3    3    0    0  0.28517663405E+02 -0.55243304032E+02  0.43148808384E+03  0.43594500372E+03  0.10000000000E+01 0.  0.
<mgrwt>
<rscale>  0 0.12499538E+03</rscale>
<asrwt>0</asrwt>
<pdfrwt beam="2">  1        4 0.76275362E-03 0.12499538E+03</pdfrwt>
<pdfrwt beam="1">  1       -4 0.12120399E+00 0.12499538E+03</pdfrwt>
<totfact> 0.38592808E+03</totfact>
</mgrwt>
</event>
<event>
 5    1  0.3271306E-002  0.1250011E+03  0.7818608E-02  0.1235068E+00
         -4   -1    0    0    0  501 -0.00000000000E+00  0.00000000000E+00  0.54267301452E+02  0.54282160117E+02  0.12700000000E+01 0. -1.
          4   -1    0    0  501    0  0.00000000000E+00 -0.00000000000E+00 -0.71952595991E+02  0.71963803191E+02  0.12700000000E+01 0. -1.
         25    2    1    2    0    0  0.00000000000E+00  0.00000000000E+00 -0.17685294538E+02  0.12624596331E+03  0.12500109443E+03 0.  0.
    9000005    1    3    3    0    0 -0.54428125402E+02  0.48035093587E+01  0.21787989252E+02  0.58832057694E+02  0.10000000000E+01 0.  0.
    9000005    1    3    3    0    0  0.54428125402E+02 -0.48035093587E+01 -0.39473283790E+02  0.67413905614E+02  0.10000000000E+01 0.  0.
<mgrwt>
<rscale>  0 0.12500109E+03</rscale>
<asrwt>0</asrwt>
<pdfrwt beam="2">  1        4 0.11071635E-01 0.12500109E+03</pdfrwt>
<pdfrwt beam="1">  1       -4 0.83508207E-02 0.12500109E+03</pdfrwt>
<totfact> 0.10425317E+04</totfact>
</mgrwt>
</event>
<event>
 5    1  0.3271306E-002  0.1250005E+03  0.7818608E-02  0.1235069E+00
          4   -1    0    0  501    0  0.00000000000E+00  0.00000000000E+00  0.43137142239E+03  0.43137329189E+03  0.12700000000E+01 0.  1.
         -4   -1    0    0    0  501 -0.00000000000E+00 -0.00000000000E+00 -0.90090610354E+01  0.90981361135E+01  0.12700000000E+01 0.  1.
         25    2    1    2    0    0  0.00000000000E+00  0.00000000000E+00  0.42236236136E+03  0.44047142800E+03  0.12500045839E+03 0.  0.
    9000005    1    3    3    0    0 -0.18631369294E+02  0.10764558573E+02  0.44390829822E+01  0.21993387660E+02  0.10000000000E+01 0.  0.
    9000005    1    3    3    0    0  0.18631369294E+02 -0.10764558573E+02  0.41792327837E+03  0.41847804034E+03  0.10000000000E+01 0.  0.
<mgrwt>
<rscale>  0 0.12500046E+03</rscale>
<asrwt>0</asrwt>
<pdfrwt beam="1">  1        4 0.66371834E-01 0.12500046E+03</pdfrwt>
<pdfrwt beam="2">  1       -4 0.13930050E-02 0.12500046E+03</pdfrwt>
<totfact> 0.60797537E+03</totfact>
</mgrwt>
</event>
<event>
 5    1  0.3271306E-002  0.1250005E+03  0.7818608E-02  0.1235069E+00
         -4   -1    0    0    0  501 -0.00000000000E+00  0.00000000000E+00  0.27817562428E+03  0.27817852333E+03  0.12700000000E+01 0.  1.
          4   -1    0    0  501    0  0.00000000000E+00 -0.00000000000E+00 -0.14010797750E+02  0.14068239179E+02  0.12700000000E+01 0.  1.
         25    2    1    2    0    0  0.00000000000E+00  0.00000000000E+00  0.26416482653E+03  0.29224676251E+03  0.12500045849E+03 0.  0.
    9000005    1    3    3    0    0 -0.17697052327E+00  0.44150253801E+02  0.28681875507E+02  0.52658581560E+02  0.10000000000E+01 0.  0.
    9000005    1    3    3    0    0  0.17697052327E+00 -0.44150253801E+02  0.23548295102E+03  0.23958818095E+03  0.10000000000E+01 0.  0.
<mgrwt>
<rscale>  0 0.12500046E+03</rscale>
<asrwt>0</asrwt>
<pdfrwt beam="2">  1        4 0.21601491E-02 0.12500046E+03</pdfrwt>
<pdfrwt beam="1">  1       -4 0.42800888E-01 0.12500046E+03</pdfrwt>
<totfact> 0.76581019E+03</totfact>
</mgrwt>
</event>
<event>
 5    1  0.3271306E-002  0.1250002E+03  0.7818608E-02  0.1235069E+00
         -4   -1    0    0    0  501 -0.00000000000E+00  0.00000000000E+00  0.26855005096E+03  0.26855305392E+03  0.12700000000E+01 0.  1.
          4   -1    0    0  501    0  0.00000000000E+00 -0.00000000000E+00 -0.14514938730E+02  0.14570392800E+02  0.12700000000E+01 0.  1.
         25    2    1    2    0    0  0.00000000000E+00  0.00000000000E+00  0.25403511223E+03  0.28312344672E+03  0.12500019135E+03 0.  0.
    9000005    1    3    3    0    0 -0.38334067336E+02  0.21961345573E+02  0.22712525543E+03  0.23138427577E+03  0.10000000000E+01 0.  0.
    9000005    1    3    3    0    0  0.38334067336E+02 -0.21961345573E+02  0.26909856797E+02  0.51739170951E+02  0.10000000000E+01 0.  0.
<mgrwt>
<rscale>  0 0.12500019E+03</rscale>
<asrwt>0</asrwt>
<pdfrwt beam="2">  1        4 0.22375645E-02 0.12500019E+03</pdfrwt>
<pdfrwt beam="1">  1       -4 0.41319884E-01 0.12500019E+03</pdfrwt>
<totfact> 0.77765446E+03</totfact>
</mgrwt>
</event>
<event>
 5    1  0.3271306E-002  0.1250002E+03  0.7818608E-02  0.1235069E+00
         -4   -1    0    0    0  501 -0.00000000000E+00  0.00000000000E+00  0.97680139064E+03  0.97680221624E+03  0.12700000000E+01 0. -1.
          4   -1    0    0  501    0  0.00000000000E+00 -0.00000000000E+00 -0.38973556298E+01  0.40990585389E+01  0.12700000000E+01 0. -1.
         25    2    1    2    0    0  0.00000000000E+00  0.00000000000E+00  0.97290403501E+03  0.98090127478E+03  0.12500019811E+03 0.  0.
    9000005    1    3    3    0    0 -0.14449738636E+02  0.33594894399E+02  0.88803410073E+02  0.96044039466E+02  0.10000000000E+01 0.  0.
    9000005    1    3    3    0    0  0.14449738636E+02 -0.33594894399E+02  0.88410062493E+03  0.88485723531E+03  0.10000000000E+01 0.  0.
<mgrwt>
<rscale>  0 0.12500020E+03</rscale>
<asrwt>0</asrwt>
<pdfrwt beam="2">  1        4 0.61517089E-03 0.12500020E+03</pdfrwt>
<pdfrwt beam="1">  1       -4 0.15029306E+00 0.12500020E+03</pdfrwt>
<totfact> 0.31243416E+03</totfact>
</mgrwt>
</event>
<event>
 5    1  0.3271306E-002  0.1249982E+03  0.7818608E-02  0.1235072E+00
         -4   -1    0    0    0  501 -0.00000000000E+00  0.00000000000E+00  0.12746297558E+02  0.12809410659E+02  0.12700000000E+01 0. -1.
          4   -1    0    0  501    0  0.00000000000E+00 -0.00000000000E+00 -0.30563167723E+03  0.30563431585E+03  0.12700000000E+01 0. -1.
         25    2    1    2    0    0  0.00000000000E+00  0.00000000000E+00 -0.29288537967E+03  0.31844372651E+03  0.12499824530E+03 0.  0.
    9000005    1    3    3    0    0  0.17989537587E+02 -0.45060039624E+02 -0.24677713136E+03  0.25150344570E+03  0.10000000000E+01 0.  0.
    9000005    1    3    3    0    0 -0.17989537587E+02  0.45060039624E+02 -0.46108248309E+02  0.66940280815E+02  0.10000000000E+01 0.  0.
<mgrwt>
<rscale>  0 0.12499825E+03</rscale>
<asrwt>0</asrwt>
<pdfrwt beam="2">  1        4 0.47025310E-01 0.12499825E+03</pdfrwt>
<pdfrwt beam="1">  1       -4 0.19660269E-02 0.12499825E+03</pdfrwt>
<totfact> 0.73344461E+03</totfact>
</mgrwt>
</event>
<event>
 5    1  0.3271306E-002  0.1250059E+03  0.7818608E-02  0.1235060E+00
         -4   -1    0    0    0  501 -0.00000000000E+00  0.00000000000E+00  0.14590071765E+02  0.14645241347E+02  0.12700000000E+01 0.  1.
          4   -1    0    0  501    0  0.00000000000E+00 -0.00000000000E+00 -0.26719655747E+03  0.26719957564E+03  0.12700000000E+01 0.  1.
         25    2    1    2    0    0  0.00000000000E+00  0.00000000000E+00 -0.25260648570E+03  0.28184481699E+03  0.12500585684E+03 0.  0.
    9000005    1    3    3    0    0 -0.99509116202E+01 -0.81385598095E+01 -0.26419437922E+03  0.26450884070E+03  0.10000000000E+01 0.  0.
    9000005    1    3    3    0    0  0.99509116202E+01  0.81385598095E+01  0.11587893514E+02  0.17335976290E+02  0.10000000000E+01 0.  0.
<mgrwt>
<rscale>  0 0.12500586E+03</rscale>
<asrwt>0</asrwt>
<pdfrwt beam="2">  1        4 0.41111635E-01 0.12500586E+03</pdfrwt>
<pdfrwt beam="1">  1       -4 0.22491026E-02 0.12500586E+03</pdfrwt>
<totfact> 0.77923988E+03</totfact>
</mgrwt>
</event>
<event>
 5    1  0.3271306E-002  0.1250009E+03  0.7818608E-02  0.1235068E+00
          4   -1    0    0  501    0  0.00000000000E+00  0.00000000000E+00  0.13842268332E+03  0.13842850919E+03  0.12700000000E+01 0. -1.
         -4   -1    0    0    0  501 -0.00000000000E+00 -0.00000000000E+00 -0.28199398706E+02  0.28227982347E+02  0.12700000000E+01 0. -1.
         25    2    1    2    0    0  0.00000000000E+00  0.00000000000E+00  0.11022328461E+03  0.16665649154E+03  0.12500085480E+03 0.  0.
    9000005    1    3    3    0    0  0.12554825185E+02  0.59155243599E+02  0.76121829342E+02  0.97223965066E+02  0.10000000000E+01 0.  0.
    9000005    1    3    3    0    0 -0.12554825185E+02 -0.59155243599E+02  0.34101455269E+02  0.69432526471E+02  0.10000000000E+01 0.  0.
<mgrwt>
<rscale>  0 0.12500085E+03</rscale>
<asrwt>0</asrwt>
<pdfrwt beam="1">  1        4 0.21298444E-01 0.12500085E+03</pdfrwt>
<pdfrwt beam="2">  1       -4 0.43410160E-02 0.12500085E+03</pdfrwt>
<totfact> 0.96072751E+03</totfact>
</mgrwt>
</event>
<event>
 5    1  0.3271306E-002  0.1249997E+03  0.7818608E-02  0.1235070E+00
         -4   -1    0    0    0  501 -0.00000000000E+00  0.00000000000E+00  0.14606169985E+03  0.14606722104E+03  0.12700000000E+01 0. -1.
          4   -1    0    0  501    0  0.00000000000E+00 -0.00000000000E+00 -0.26722593705E+02  0.26752755266E+02  0.12700000000E+01 0. -1.
         25    2    1    2    0    0  0.00000000000E+00  0.00000000000E+00  0.11933910614E+03  0.17281997631E+03  0.12499968782E+03 0.  0.
    9000005    1    3    3    0    0 -0.38286619058E+02 -0.43402950920E+02  0.27082412557E+02  0.63907264199E+02  0.10000000000E+01 0.  0.
    9000005    1    3    3    0    0  0.38286619058E+02  0.43402950920E+02  0.92256693588E+02  0.10891271211E+03  0.10000000000E+01 0.  0.
<mgrwt>
<rscale>  0 0.12499969E+03</rscale>
<asrwt>0</asrwt>
<pdfrwt beam="2">  1        4 0.41139131E-02 0.12499969E+03</pdfrwt>
<pdfrwt beam="1">  1       -4 0.22473776E-01 0.12499969E+03</pdfrwt>
<totfact> 0.94926295E+03</totfact>
</mgrwt>
</event>
<event>
 5    1  0.3271306E-002  0.1250012E+03  0.7818608E-02  0.1235067E+00
         -4   -1    0    0    0  501 -0.00000000000E+00  0.00000000000E+00  0.11147272786E+02  0.11219384589E+02  0.12700000000E+01 0. -1.
          4   -1    0    0  501    0  0.00000000000E+00 -0.00000000000E+00 -0.34922552571E+03  0.34922783496E+03  0.12700000000E+01 0. -1.
         25    2    1    2    0    0  0.00000000000E+00  0.00000000000E+00 -0.33807825293E+03  0.36044721955E+03  0.12500117190E+03 0.  0.
    9000005    1    3    3    0    0 -0.40083122253E+02 -0.44477388174E+02 -0.22065617416E+03  0.22863735903E+03  0.10000000000E+01 0.  0.
    9000005    1    3    3    0    0  0.40083122253E+02  0.44477388174E+02 -0.11742207877E+03  0.13180986052E+03  0.10000000000E+01 0.  0.
<mgrwt>
<rscale>  0 0.12500117E+03</rscale>
<asrwt>0</asrwt>
<pdfrwt beam="2">  1        4 0.53732720E-01 0.12500117E+03</pdfrwt>
<pdfrwt beam="1">  1       -4 0.17206900E-02 0.12500117E+03</pdfrwt>
<totfact> 0.68588547E+03</totfact>
</mgrwt>
</event>
<event>
 5    1  0.3271306E-002  0.1250031E+03  0.7818608E-02  0.1235065E+00
          4   -1    0    0  501    0  0.00000000000E+00  0.00000000000E+00  0.19905651240E+02  0.19946123716E+02  0.12700000000E+01 0.  1.
         -4   -1    0    0    0  501 -0.00000000000E+00 -0.00000000000E+00 -0.19600599698E+03  0.19601011135E+03  0.12700000000E+01 0.  1.
         25    2    1    2    0    0  0.00000000000E+00  0.00000000000E+00 -0.17610034574E+03  0.21595623507E+03  0.12500305474E+03 0.  0.
    9000005    1    3    3    0    0  0.56517919944E+01  0.45599636098E+02 -0.14872754976E+02  0.48305987264E+02  0.10000000000E+01 0.  0.
    9000005    1    3    3    0    0 -0.56517919944E+01 -0.45599636098E+02 -0.16122759077E+03  0.16765024780E+03  0.10000000000E+01 0.  0.
<mgrwt>
<rscale>  0 0.12500305E+03</rscale>
<asrwt>0</asrwt>
<pdfrwt beam="1">  1        4 0.30658378E-02 0.12500305E+03</pdfrwt>
<pdfrwt beam="2">  1       -4 0.30158197E-01 0.12500305E+03</pdfrwt>
<totfact> 0.87506322E+03</totfact>
</mgrwt>
</event>
<event>
 5    1  0.3271306E-002  0.1250017E+03  0.7818608E-02  0.1235067E+00
         -4   -1    0    0    0  501 -0.00000000000E+00  0.00000000000E+00  0.23482935692E+03  0.23483279109E+03  0.12700000000E+01 0. -1.
          4   -1    0    0  501    0  0.00000000000E+00 -0.00000000000E+00 -0.16607075575E+02  0.16655565410E+02  0.12700000000E+01 0. -1.
         25    2    1    2    0    0  0.00000000000E+00  0.00000000000E+00  0.21822228135E+03  0.25148835650E+03  0.12500171751E+03 0.  0.
    9000005    1    3    3    0    0 -0.34236225585E+02  0.47856975882E+02  0.15145381708E+03  0.16248590090E+03  0.10000000000E+01 0.  0.
    9000005    1    3    3    0    0  0.34236225585E+02 -0.47856975882E+02  0.66768464265E+02  0.89002455602E+02  0.10000000000E+01 0.  0.
<mgrwt>
<rscale>  0 0.12500172E+03</rscale>
<asrwt>0</asrwt>
<pdfrwt beam="2">  1        4 0.25589288E-02 0.12500172E+03</pdfrwt>
<pdfrwt beam="1">  1       -4 0.36131588E-01 0.12500172E+03</pdfrwt>
<totfact> 0.82112446E+03</totfact>
</mgrwt>
</event>
<event>
 5    1  0.3271306E-002  0.1249968E+03  0.7818608E-02  0.1235074E+00
          4   -1    0    0  501    0  0.00000000000E+00  0.00000000000E+00  0.29006380511E+03  0.29006658534E+03  0.12700000000E+01 0.  1.
         -4   -1    0    0    0  501 -0.00000000000E+00 -0.00000000000E+00 -0.13433371352E+02  0.13493271133E+02  0.12700000000E+01 0.  1.
         25    2    1    2    0    0  0.00000000000E+00  0.00000000000E+00  0.27663043376E+03  0.30355985648E+03  0.12499675830E+03 0.  0.
    9000005    1    3    3    0    0 -0.11992309064E+02 -0.43192710219E+02  0.24405086337E+03  0.24813554683E+03  0.10000000000E+01 0.  0.
    9000005    1    3    3    0    0  0.11992309064E+02  0.43192710219E+02  0.32579570389E+02  0.55424309644E+02  0.10000000000E+01 0.  0.
<mgrwt>
<rscale>  0 0.12499676E+03</rscale>
<asrwt>0</asrwt>
<pdfrwt beam="1">  1        4 0.44630024E-01 0.12499676E+03</pdfrwt>
<pdfrwt beam="2">  1       -4 0.20714940E-02 0.12499676E+03</pdfrwt>
<totfact> 0.75159860E+03</totfact>
</mgrwt>
</event>
<event>
 5    1  0.3271306E-002  0.1249989E+03  0.7818608E-02  0.1235071E+00
          4   -1    0    0  501    0  0.00000000000E+00  0.00000000000E+00  0.44671255347E+03  0.44671435876E+03  0.12700000000E+01 0.  1.
         -4   -1    0    0    0  501 -0.00000000000E+00 -0.00000000000E+00 -0.86963316741E+01  0.87885769374E+01  0.12700000000E+01 0.  1.
         25    2    1    2    0    0  0.00000000000E+00  0.00000000000E+00  0.43801622179E+03  0.45550293570E+03  0.12499885551E+03 0.  0.
    9000005    1    3    3    0    0 -0.37461525513E+02  0.48904201279E+02  0.25726058520E+03  0.26453543334E+03  0.10000000000E+01 0.  0.
    9000005    1    3    3    0    0  0.37461525513E+02 -0.48904201279E+02  0.18075563660E+03  0.19096750236E+03  0.10000000000E+01 0.  0.
<mgrwt>
<rscale>  0 0.12499886E+03</rscale>
<asrwt>0</asrwt>
<pdfrwt beam="1">  1        4 0.68732257E-01 0.12499886E+03</pdfrwt>
<pdfrwt beam="2">  1       -4 0.13451316E-02 0.12499886E+03</pdfrwt>
<totfact> 0.59491513E+03</totfact>
</mgrwt>
</event>
<event>
 5    1  0.3271306E-002  0.1249990E+03  0.7818608E-02  0.1235071E+00
          4   -1    0    0  501    0  0.00000000000E+00  0.00000000000E+00  0.34570328039E+02  0.34593647982E+02  0.12700000000E+01 0. -1.
         -4   -1    0    0    0  501 -0.00000000000E+00 -0.00000000000E+00 -0.11292753975E+03  0.11293468083E+03  0.12700000000E+01 0. -1.
         25    2    1    2    0    0  0.00000000000E+00  0.00000000000E+00 -0.78357211710E+02  0.14752832881E+03  0.12499902069E+03 0.  0.
    9000005    1    3    3    0    0 -0.36093120919E+02  0.50201805988E+02 -0.28474569700E+02  0.68078894099E+02  0.10000000000E+01 0.  0.
    9000005    1    3    3    0    0  0.36093120919E+02 -0.50201805988E+02 -0.49882642009E+02  0.79449434711E+02  0.10000000000E+01 0.  0.
<mgrwt>
<rscale>  0 0.12499902E+03</rscale>
<asrwt>0</asrwt>
<pdfrwt beam="1">  1        4 0.53208552E-02 0.12499902E+03</pdfrwt>
<pdfrwt beam="2">  1       -4 0.17375811E-01 0.12499902E+03</pdfrwt>
<totfact> 0.99800890E+03</totfact>
</mgrwt>
</event>
<event>
 5    1  0.3271306E-002  0.1250005E+03  0.7818608E-02  0.1235069E+00
         -4   -1    0    0    0  501 -0.00000000000E+00  0.00000000000E+00  0.39248745284E+02  0.39269287062E+02  0.12700000000E+01 0. -1.
          4   -1    0    0  501    0  0.00000000000E+00 -0.00000000000E+00 -0.99475581992E+02  0.99483688676E+02  0.12700000000E+01 0. -1.
         25    2    1    2    0    0  0.00000000000E+00  0.00000000000E+00 -0.60226836708E+02  0.13875297574E+03  0.12500046566E+03 0.  0.
    9000005    1    3    3    0    0 -0.20526159633E+02 -0.69566768142E+01  0.34948891386E+02  0.41135672970E+02  0.10000000000E+01 0.  0.
    9000005    1    3    3    0    0  0.20526159633E+02  0.69566768142E+01 -0.95175728094E+02  0.97617302768E+02  0.10000000000E+01 0.  0.
<mgrwt>
<rscale>  0 0.12500047E+03</rscale>
<asrwt>0</asrwt>
<pdfrwt beam="2">  1        4 0.15306139E-01 0.12500047E+03</pdfrwt>
<pdfrwt beam="1">  1       -4 0.60404723E-02 0.12500047E+03</pdfrwt>
<totfact> 0.10159390E+04</totfact>
</mgrwt>
</event>
<event>
 5    1  0.3271306E-002  0.1250023E+03  0.7818608E-02  0.1235066E+00
          4   -1    0    0  501    0  0.00000000000E+00  0.00000000000E+00  0.25453165531E+03  0.25453482366E+03  0.12700000000E+01 0.  1.
         -4   -1    0    0    0  501 -0.00000000000E+00 -0.00000000000E+00 -0.15317836485E+02  0.15370394094E+02  0.12700000000E+01 0.  1.
         25    2    1    2    0    0  0.00000000000E+00  0.00000000000E+00  0.23921381882E+03  0.26990521775E+03  0.12500230179E+03 0.  0.
    9000005    1    3    3    0    0  0.15139535742E+02  0.51401330994E+02  0.18904100018E+03  0.19649122657E+03  0.10000000000E+01 0.  0.
    9000005    1    3    3    0    0 -0.15139535742E+02 -0.51401330994E+02  0.50172818646E+02  0.73413991182E+02  0.10000000000E+01 0.  0.
<mgrwt>
<rscale>  0 0.12500230E+03</rscale>
<asrwt>0</asrwt>
<pdfrwt beam="1">  1        4 0.39163004E-01 0.12500230E+03</pdfrwt>
<pdfrwt beam="2">  1       -4 0.23608768E-02 0.12500230E+03</pdfrwt>
<totfact> 0.79531717E+03</totfact>
</mgrwt>
</event>
<event>
 5    1  0.3271306E-002  0.1250014E+03  0.7818608E-02  0.1235067E+00
         -4   -1    0    0    0  501 -0.00000000000E+00  0.00000000000E+00  0.28039362273E+02  0.28068108890E+02  0.12700000000E+01 0. -1.
          4   -1    0    0  501    0  0.00000000000E+00 -0.00000000000E+00 -0.13921321513E+03  0.13921900792E+03  0.12700000000E+01 0. -1.
         25    2    1    2    0    0  0.00000000000E+00  0.00000000000E+00 -0.11117385286E+03  0.16728711681E+03  0.12500141556E+03 0.  0.
    9000005    1    3    3    0    0  0.29273162946E+02 -0.53192409512E+02 -0.75391144433E+02  0.96804830238E+02  0.10000000000E+01 0.  0.
    9000005    1    3    3    0    0 -0.29273162946E+02  0.53192409512E+02 -0.35782708422E+02  0.70482286573E+02  0.10000000000E+01 0.  0.
<mgrwt>
<rscale>  0 0.12500142E+03</rscale>
<asrwt>0</asrwt>
<pdfrwt beam="2">  1        4 0.21420074E-01 0.12500142E+03</pdfrwt>
<pdfrwt beam="1">  1       -4 0.43164050E-02 0.12500142E+03</pdfrwt>
<totfact> 0.95952943E+03</totfact>
</mgrwt>
</event>
<event>
 5    1  0.3271306E-002  0.1249997E+03  0.7818608E-02  0.1235070E+00
         -4   -1    0    0    0  501 -0.00000000000E+00  0.00000000000E+00  0.12107970848E+04  0.12107977508E+04  0.12700000000E+01 0.  1.
          4   -1    0    0  501    0  0.00000000000E+00 -0.00000000000E+00 -0.31004843859E+01  0.33505079357E+01  0.12700000000E+01 0.  1.
         25    2    1    2    0    0  0.00000000000E+00  0.00000000000E+00  0.12076966004E+04  0.12141482587E+04  0.12499966263E+03 0.  0.
    9000005    1    3    3    0    0 -0.33702222872E+02 -0.42700486534E+02  0.30508884721E+03  0.30990220404E+03  0.10000000000E+01 0.  0.
    9000005    1    3    3    0    0  0.33702222872E+02  0.42700486534E+02  0.90260775317E+03  0.90424605471E+03  0.10000000000E+01 0.  0.
<mgrwt>
<rscale>  0 0.12499966E+03</rscale>
<asrwt>0</asrwt>
<pdfrwt beam="2">  1        4 0.49628055E-03 0.12499966E+03</pdfrwt>
<pdfrwt beam="1">  1       -4 0.18629608E+00 0.12499966E+03</pdfrwt>
<totfact> 0.24345523E+03</totfact>
</mgrwt>
</event>
<event>
 5    1  0.3271306E-002  0.1249994E+03  0.7818608E-02  0.1235070E+00
         -4   -1    0    0    0  501 -0.00000000000E+00  0.00000000000E+00  0.77132611382E+02  0.77143066044E+02  0.12700000000E+01 0.  1.
          4   -1    0    0  501    0  0.00000000000E+00 -0.00000000000E+00 -0.50620997604E+02  0.50636926233E+02  0.12700000000E+01 0.  1.
         25    2    1    2    0    0  0.00000000000E+00  0.00000000000E+00  0.26511613779E+02  0.12777999228E+03  0.12499944304E+03 0.  0.
    9000005    1    3    3    0    0  0.54442634557E+02  0.28208477434E+02  0.25586318688E+02  0.66448313452E+02  0.10000000000E+01 0.  0.
    9000005    1    3    3    0    0 -0.54442634557E+02 -0.28208477434E+02  0.92529509130E+00  0.61331678826E+02  0.10000000000E+01 0.  0.
<mgrwt>
<rscale>  0 0.12499944E+03</rscale>
<asrwt>0</asrwt>
<pdfrwt beam="2">  1        4 0.77898753E-02 0.12499944E+03</pdfrwt>
<pdfrwt beam="1">  1       -4 0.11868585E-01 0.12499944E+03</pdfrwt>
<totfact> 0.10392372E+04</totfact>
</mgrwt>
</event>
<event>
 5    1  0.3271306E-002  0.1250028E+03  0.7818608E-02  0.1235065E+00
          4   -1    0    0  501    0  0.00000000000E+00  0.00000000000E+00  0.38241217195E+02  0.38262299886E+02  0.12700000000E+01 0.  1.
         -4   -1    0    0    0  501 -0.00000000000E+00 -0.00000000000E+00 -0.10209907969E+03  0.10210697808E+03  0.12700000000E+01 0.  1.
         25    2    1    2    0    0  0.00000000000E+00  0.00000000000E+00 -0.63857862494E+02  0.14036927797E+03  0.12500283035E+03 0.  0.
    9000005    1    3    3    0    0 -0.23316808451E+02  0.21085526953E+02  0.28721220249E+02  0.42593209503E+02  0.10000000000E+01 0.  0.
    9000005    1    3    3    0    0  0.23316808451E+02 -0.21085526953E+02 -0.92579082743E+02  0.97776068467E+02  0.10000000000E+01 0.  0.
<mgrwt>
<rscale>  0 0.12500283E+03</rscale>
<asrwt>0</asrwt>
<pdfrwt beam="1">  1        4 0.58854935E-02 0.12500283E+03</pdfrwt>
<pdfrwt beam="2">  1       -4 0.15709780E-01 0.12500283E+03</pdfrwt>
<totfact> 0.10125292E+04</totfact>
</mgrwt>
</event>
<event>
 5    1  0.3271306E-002  0.1249979E+03  0.7818608E-02  0.1235072E+00
         -4   -1    0    0    0  501 -0.00000000000E+00  0.00000000000E+00  0.11429280408E+04  0.11429287464E+04  0.12700000000E+01 0.  1.
          4   -1    0    0  501    0  0.00000000000E+00 -0.00000000000E+00 -0.32989302131E+01  0.35349456221E+01  0.12700000000E+01 0.  1.
         25    2    1    2    0    0  0.00000000000E+00  0.00000000000E+00  0.11396291106E+04  0.11464636921E+04  0.12499794970E+03 0.  0.
    9000005    1    3    3    0    0 -0.44732786110E+02 -0.11225267560E+02  0.18306069178E+03  0.18878359478E+03  0.10000000000E+01 0.  0.
    9000005    1    3    3    0    0  0.44732786110E+02  0.11225267560E+02  0.95656841886E+03  0.95768009729E+03  0.10000000000E+01 0.  0.
<mgrwt>
<rscale>  0 0.12499795E+03</rscale>
<asrwt>0</asrwt>
<pdfrwt beam="2">  1        4 0.52573801E-03 0.12499795E+03</pdfrwt>
<pdfrwt beam="1">  1       -4 0.17585297E+00 0.12499795E+03</pdfrwt>
<totfact> 0.26159783E+03</totfact>
</mgrwt>
</event>
<event>
 5    1  0.3271306E-002  0.1250003E+03  0.7818608E-02  0.1235069E+00
          4   -1    0    0  501    0  0.00000000000E+00  0.00000000000E+00  0.66237377208E+02  0.66249551239E+02  0.12700000000E+01 0. -1.
         -4   -1    0    0    0  501 -0.00000000000E+00 -0.00000000000E+00 -0.58949332316E+02  0.58963011121E+02  0.12700000000E+01 0. -1.
         25    2    1    2    0    0  0.00000000000E+00  0.00000000000E+00  0.72880448927E+01  0.12521256236E+03  0.12500028070E+03 0.  0.
    9000005    1    3    3    0    0 -0.24402037838E+01 -0.61574204598E+02 -0.67625703503E+01  0.62000561482E+02  0.10000000000E+01 0.  0.
    9000005    1    3    3    0    0  0.24402037838E+01  0.61574204598E+02  0.14050615243E+02  0.63212000878E+02  0.10000000000E+01 0.  0.
<mgrwt>
<rscale>  0 0.12500028E+03</rscale>
<asrwt>0</asrwt>
<pdfrwt beam="1">  1        4 0.10192354E-01 0.12500028E+03</pdfrwt>
<pdfrwt beam="2">  1       -4 0.90711167E-02 0.12500028E+03</pdfrwt>
<totfact> 0.10448181E+04</totfact>
</mgrwt>
</event>
<event>
 5    1  0.3271306E-002  0.1250002E+03  0.7818608E-02  0.1235069E+00
         -4   -1    0    0    0  501 -0.00000000000E+00  0.00000000000E+00  0.20357221984E+02  0.20396798447E+02  0.12700000000E+01 0.  1.
          4   -1    0    0  501    0  0.00000000000E+00 -0.00000000000E+00 -0.19165777710E+03  0.19166198482E+03  0.12700000000E+01 0.  1.
         25    2    1    2    0    0  0.00000000000E+00  0.00000000000E+00 -0.17130055512E+03  0.21205878326E+03  0.12500018950E+03 0.  0.
    9000005    1    3    3    0    0  0.56210486054E+02 -0.63222413939E+01 -0.13071608420E+03  0.14243343760E+03  0.10000000000E+01 0.  0.
    9000005    1    3    3    0    0 -0.56210486054E+02  0.63222413939E+01 -0.40584470920E+02  0.69625345662E+02  0.10000000000E+01 0.  0.
<mgrwt>
<rscale>  0 0.12500019E+03</rscale>
<asrwt>0</asrwt>
<pdfrwt beam="2">  1        4 0.29489179E-01 0.12500019E+03</pdfrwt>
<pdfrwt beam="1">  1       -4 0.31352485E-02 0.12500019E+03</pdfrwt>
<totfact> 0.88140382E+03</totfact>
</mgrwt>
</event>
<event>
 5    1  0.3271306E-002  0.1250013E+03  0.7818608E-02  0.1235067E+00
         -4   -1    0    0    0  501 -0.00000000000E+00  0.00000000000E+00  0.18527931054E+02  0.18571406224E+02  0.12700000000E+01 0.  1.
          4   -1    0    0  501    0  0.00000000000E+00 -0.00000000000E+00 -0.21054213387E+03  0.21054596418E+03  0.12700000000E+01 0.  1.
         25    2    1    2    0    0  0.00000000000E+00  0.00000000000E+00 -0.19201420282E+03  0.22911737041E+03  0.12500126135E+03 0.  0.
    9000005    1    3    3    0    0  0.15434851522E+02 -0.58761069366E+01  0.14464424155E+02  0.21976870578E+02  0.10000000000E+01 0.  0.
    9000005    1    3    3    0    0 -0.15434851522E+02  0.58761069366E+01 -0.20647862697E+03  0.20714049983E+03  0.10000000000E+01 0.  0.
<mgrwt>
<rscale>  0 0.12500126E+03</rscale>
<asrwt>0</asrwt>
<pdfrwt beam="2">  1        4 0.32394735E-01 0.12500126E+03</pdfrwt>
<pdfrwt beam="1">  1       -4 0.28540900E-02 0.12500126E+03</pdfrwt>
<totfact> 0.85442906E+03</totfact>
</mgrwt>
</event>
<event>
 5    1  0.3271306E-002  0.1249979E+03  0.7818608E-02  0.1235073E+00
          4   -1    0    0  501    0  0.00000000000E+00  0.00000000000E+00  0.15456501682E+02  0.15508589370E+02  0.12700000000E+01 0.  1.
         -4   -1    0    0    0  501 -0.00000000000E+00 -0.00000000000E+00 -0.25223816323E+03  0.25224136039E+03  0.12700000000E+01 0.  1.
         25    2    1    2    0    0  0.00000000000E+00  0.00000000000E+00 -0.23678166155E+03  0.26774994976E+03  0.12499792138E+03 0.  0.
    9000005    1    3    3    0    0 -0.31814978703E+02  0.10397415429E+02 -0.23142903440E+03  0.23383904097E+03  0.10000000000E+01 0.  0.
    9000005    1    3    3    0    0  0.31814978703E+02 -0.10397415429E+02 -0.53526271480E+01  0.33910908788E+02  0.10000000000E+01 0.  0.
<mgrwt>
<rscale>  0 0.12499792E+03</rscale>
<asrwt>0</asrwt>
<pdfrwt beam="1">  1        4 0.23821762E-02 0.12499792E+03</pdfrwt>
<pdfrwt beam="2">  1       -4 0.38810121E-01 0.12499792E+03</pdfrwt>
<totfact> 0.79834312E+03</totfact>
</mgrwt>
</event>
<event>
 5    1  0.3271306E-002  0.1250018E+03  0.7818608E-02  0.1235067E+00
         -4   -1    0    0    0  501 -0.00000000000E+00  0.00000000000E+00  0.21665006719E+03  0.21665378952E+03  0.12700000000E+01 0. -1.
          4   -1    0    0  501    0  0.00000000000E+00 -0.00000000000E+00 -0.18004491380E+02  0.18049227403E+02  0.12700000000E+01 0. -1.
         25    2    1    2    0    0  0.00000000000E+00  0.00000000000E+00  0.19864557581E+03  0.23470301692E+03  0.12500176544E+03 0.  0.
    9000005    1    3    3    0    0  0.11897609093E+02 -0.42777844230E+01  0.21423280209E+03  0.21460788903E+03  0.10000000000E+01 0.  0.
    9000005    1    3    3    0    0 -0.11897609093E+02  0.42777844230E+01 -0.15587226285E+02  0.20095127891E+02  0.10000000000E+01 0.  0.
<mgrwt>
<rscale>  0 0.12500177E+03</rscale>
<asrwt>0</asrwt>
<pdfrwt beam="2">  1        4 0.27736493E-02 0.12500177E+03</pdfrwt>
<pdfrwt beam="1">  1       -4 0.33334507E-01 0.12500177E+03</pdfrwt>
<totfact> 0.84589306E+03</totfact>
</mgrwt>
</event>
<event>
 5    1  0.3271306E-002  0.1250020E+03  0.7818608E-02  0.1235066E+00
         -4   -1    0    0    0  501 -0.00000000000E+00  0.00000000000E+00  0.22566253776E+02  0.22601962514E+02  0.12700000000E+01 0.  1.
          4   -1    0    0  501    0  0.00000000000E+00 -0.00000000000E+00 -0.17293205709E+03  0.17293672041E+03  0.12700000000E+01 0.  1.
         25    2    1    2    0    0  0.00000000000E+00  0.00000000000E+00 -0.15036580331E+03  0.19553868293E+03  0.12500200685E+03 0.  0.
    9000005    1    3    3    0    0 -0.14511106577E+02  0.11277074853E+00  0.19901791467E+02  0.24650887102E+02  0.10000000000E+01 0.  0.
    9000005    1    3    3    0    0  0.14511106577E+02 -0.11277074853E+00 -0.17026759478E+03  0.17088779583E+03  0.10000000000E+01 0.  0.
<mgrwt>
<rscale>  0 0.12500201E+03</rscale>
<asrwt>0</asrwt>
<pdfrwt beam="2">  1        4 0.26608037E-01 0.12500201E+03</pdfrwt>
<pdfrwt beam="1">  1       -4 0.34748370E-02 0.12500201E+03</pdfrwt>
<totfact> 0.90888350E+03</totfact>
</mgrwt>
</event>
<event>
 5    1  0.3271306E-002  0.1249990E+03  0.7818608E-02  0.1235071E+00
          4   -1    0    0  501    0  0.00000000000E+00  0.00000000000E+00  0.75450479699E+02  0.75461167410E+02  0.12700000000E+01 0.  1.
         -4   -1    0    0    0  501 -0.00000000000E+00 -0.00000000000E+00 -0.51749398759E+02  0.51764980169E+02  0.12700000000E+01 0.  1.
         25    2    1    2    0    0  0.00000000000E+00  0.00000000000E+00  0.23701080940E+02  0.12722614758E+03  0.12499900556E+03 0.  0.
    9000005    1    3    3    0    0  0.34864485473E+02  0.51707460251E+02  0.15921053102E+02  0.64371373488E+02  0.10000000000E+01 0.  0.
    9000005    1    3    3    0    0 -0.34864485473E+02 -0.51707460251E+02  0.77800278379E+01  0.62854774091E+02  0.10000000000E+01 0.  0.
<mgrwt>
<rscale>  0 0.12499901E+03</rscale>
<asrwt>0</asrwt>
<pdfrwt beam="1">  1        4 0.11609787E-01 0.12499901E+03</pdfrwt>
<pdfrwt beam="2">  1       -4 0.79634667E-02 0.12499901E+03</pdfrwt>
<totfact> 0.10404470E+04</totfact>
</mgrwt>
</event>
<event>
 5    1  0.3271306E-002  0.1249903E+03  0.7818608E-02  0.1235084E+00
          4   -1    0    0  501    0  0.00000000000E+00  0.00000000000E+00  0.19672801730E+03  0.19673211657E+03  0.12700000000E+01 0.  1.
         -4   -1    0    0    0  501 -0.00000000000E+00 -0.00000000000E+00 -0.19828394262E+02  0.19869024108E+02  0.12700000000E+01 0.  1.
         25    2    1    2    0    0  0.00000000000E+00  0.00000000000E+00  0.17689962304E+03  0.21660114068E+03  0.12499030968E+03 0.  0.
    9000005    1    3    3    0    0 -0.14590040139E+02 -0.44960476666E+02  0.15927465442E+03  0.16614370067E+03  0.10000000000E+01 0.  0.
    9000005    1    3    3    0    0  0.14590040139E+02  0.44960476666E+02  0.17624968621E+02  0.50457440008E+02  0.10000000000E+01 0.  0.
<mgrwt>
<rscale>  0 0.12499031E+03</rscale>
<asrwt>0</asrwt>
<pdfrwt beam="1">  1        4 0.30269289E-01 0.12499031E+03</pdfrwt>
<pdfrwt beam="2">  1       -4 0.30539629E-02 0.12499031E+03</pdfrwt>
<totfact> 0.87427976E+03</totfact>
</mgrwt>
</event>
<event>
 5    1  0.3271306E-002  0.1250008E+03  0.7818608E-02  0.1235068E+00
         -4   -1    0    0    0  501 -0.00000000000E+00  0.00000000000E+00  0.43003040377E+01  0.44839173517E+01  0.12700000000E+01 0. -1.
          4   -1    0    0  501    0  0.00000000000E+00 -0.00000000000E+00 -0.88920546485E+03  0.88920637178E+03  0.12700000000E+01 0. -1.
         25    2    1    2    0    0  0.00000000000E+00  0.00000000000E+00 -0.88490516081E+03  0.89369028914E+03  0.12500075704E+03 0.  0.
    9000005    1    3    3    0    0  0.45086639847E+02 -0.11684845949E+02 -0.74033428272E+03  0.74179861883E+03  0.10000000000E+01 0.  0.
    9000005    1    3    3    0    0 -0.45086639847E+02  0.11684845949E+02 -0.14457087809E+03  0.15189167031E+03  0.10000000000E+01 0.  0.
<mgrwt>
<rscale>  0 0.12500076E+03</rscale>
<asrwt>0</asrwt>
<pdfrwt beam="2">  1        4 0.13681489E+00 0.12500076E+03</pdfrwt>
<pdfrwt beam="1">  1       -4 0.67577981E-03 0.12500076E+03</pdfrwt>
<totfact> 0.34402143E+03</totfact>
</mgrwt>
</event>
<event>
 5    1  0.3271306E-002  0.1250326E+03  0.7818608E-02  0.1235018E+00
          4   -1    0    0  501    0  0.00000000000E+00  0.00000000000E+00  0.64297949929E+03  0.64298075353E+03  0.12700000000E+01 0.  1.
         -4   -1    0    0    0  501 -0.00000000000E+00 -0.00000000000E+00 -0.60107889724E+01  0.61434911956E+01  0.12700000000E+01 0.  1.
         25    2    1    2    0    0  0.00000000000E+00  0.00000000000E+00  0.63696871032E+03  0.64912424472E+03  0.12503258441E+03 0.  0.
    9000005    1    3    3    0    0 -0.56176917385E+02 -0.25784306962E+02  0.27016854237E+03  0.27715107400E+03  0.10000000000E+01 0.  0.
    9000005    1    3    3    0    0  0.56176917385E+02  0.25784306962E+02  0.36680016795E+03  0.37197317073E+03  0.10000000000E+01 0.  0.
<mgrwt>
<rscale>  0 0.12503258E+03</rscale>
<asrwt>0</asrwt>
<pdfrwt beam="1">  1        4 0.98930225E-01 0.12503258E+03</pdfrwt>
<pdfrwt beam="2">  1       -4 0.93504113E-03 0.12503258E+03</pdfrwt>
<totfact> 0.45873736E+03</totfact>
</mgrwt>
</event>
<event>
 5    1  0.3271306E-002  0.1250161E+03  0.7818608E-02  0.1235044E+00
         -4   -1    0    0    0  501 -0.00000000000E+00  0.00000000000E+00  0.86338061114E+01  0.87267123230E+01  0.12700000000E+01 0. -1.
          4   -1    0    0  501    0  0.00000000000E+00 -0.00000000000E+00 -0.45003763037E+03  0.45003942233E+03  0.12700000000E+01 0. -1.
         25    2    1    2    0    0  0.00000000000E+00  0.00000000000E+00 -0.44140382426E+03  0.45876613465E+03  0.12501611989E+03 0.  0.
    9000005    1    3    3    0    0  0.30950490724E+02 -0.38739176457E+02 -0.81081229657E+02  0.95046422718E+02  0.10000000000E+01 0.  0.
    9000005    1    3    3    0    0 -0.30950490724E+02  0.38739176457E+02 -0.36032259460E+03  0.36371971193E+03  0.10000000000E+01 0.  0.
<mgrwt>
<rscale>  0 0.12501612E+03</rscale>
<asrwt>0</asrwt>
<pdfrwt beam="2">  1        4 0.69243825E-01 0.12501612E+03</pdfrwt>
<pdfrwt beam="1">  1       -4 0.13355627E-02 0.12501612E+03</pdfrwt>
<totfact> 0.59190833E+03</totfact>
</mgrwt>
</event>
<event>
 5    1  0.3271306E-002  0.1249982E+03  0.7818608E-02  0.1235072E+00
          4   -1    0    0  501    0  0.00000000000E+00  0.00000000000E+00  0.10357472623E+03  0.10358251211E+03  0.12700000000E+01 0.  1.
         -4   -1    0    0    0  501 -0.00000000000E+00 -0.00000000000E+00 -0.37693334647E+02  0.37714723608E+02  0.12700000000E+01 0.  1.
         25    2    1    2    0    0  0.00000000000E+00  0.00000000000E+00  0.65881391587E+02  0.14129723572E+03  0.12499820424E+03 0.  0.
    9000005    1    3    3    0    0 -0.18069188464E+02  0.83288881839E+01 -0.34022842900E+02  0.39426130790E+02  0.10000000000E+01 0.  0.
    9000005    1    3    3    0    0  0.18069188464E+02 -0.83288881839E+01  0.99904234487E+02  0.10187110492E+03  0.10000000000E+01 0.  0.
<mgrwt>
<rscale>  0 0.12499820E+03</rscale>
<asrwt>0</asrwt>
<pdfrwt beam="1">  1        4 0.15936817E-01 0.12499820E+03</pdfrwt>
<pdfrwt beam="2">  1       -4 0.58012189E-02 0.12499820E+03</pdfrwt>
<totfact> 0.10107179E+04</totfact>
</mgrwt>
</event>
<event>
 5    1  0.3271306E-002  0.1249974E+03  0.7818608E-02  0.1235073E+00
         -4   -1    0    0    0  501 -0.00000000000E+00  0.00000000000E+00  0.12696880366E+03  0.12697515506E+03  0.12700000000E+01 0. -1.
          4   -1    0    0  501    0  0.00000000000E+00 -0.00000000000E+00 -0.30743903034E+02  0.30770123070E+02  0.12700000000E+01 0. -1.
         25    2    1    2    0    0  0.00000000000E+00  0.00000000000E+00  0.96224900622E+02  0.15774527813E+03  0.12499736506E+03 0.  0.
    9000005    1    3    3    0    0  0.24883488096E+02 -0.13915783126E+02  0.11828910974E+03  0.12168052631E+03  0.10000000000E+01 0.  0.
    9000005    1    3    3    0    0 -0.24883488096E+02  0.13915783126E+02 -0.22064209116E+02  0.36064751819E+02  0.10000000000E+01 0.  0.
<mgrwt>
<rscale>  0 0.12499737E+03</rscale>
<asrwt>0</asrwt>
<pdfrwt beam="2">  1        4 0.47323368E-02 0.12499737E+03</pdfrwt>
<pdfrwt beam="1">  1       -4 0.19536167E-01 0.12499737E+03</pdfrwt>
<totfact> 0.97785040E+03</totfact>
</mgrwt>
</event>
<event>
 5    1  0.3271306E-002  0.1249982E+03  0.7818608E-02  0.1235072E+00
         -4   -1    0    0    0  501 -0.00000000000E+00  0.00000000000E+00  0.14740582167E+02  0.14795190523E+02  0.12700000000E+01 0. -1.
          4   -1    0    0  501    0  0.00000000000E+00 -0.00000000000E+00 -0.26444615112E+03  0.26444920069E+03  0.12700000000E+01 0. -1.
         25    2    1    2    0    0  0.00000000000E+00  0.00000000000E+00 -0.24970556896E+03  0.27924439121E+03  0.12499823541E+03 0.  0.
    9000005    1    3    3    0    0  0.31458363429E+02 -0.16446746533E+02 -0.99594863169E+01  0.36882454756E+02  0.10000000000E+01 0.  0.
    9000005    1    3    3    0    0 -0.31458363429E+02  0.16446746533E+02 -0.23974608264E+03  0.24236193645E+03  0.10000000000E+01 0.  0.
<mgrwt>
<rscale>  0 0.12499824E+03</rscale>
<asrwt>0</asrwt>
<pdfrwt beam="2">  1        4 0.40688455E-01 0.12499824E+03</pdfrwt>
<pdfrwt beam="1">  1       -4 0.22722173E-02 0.12499824E+03</pdfrwt>
<totfact> 0.78281472E+03</totfact>
</mgrwt>
</event>
<event>
 5    1  0.3271306E-002  0.1249985E+03  0.7818608E-02  0.1235072E+00
         -4   -1    0    0    0  501 -0.00000000000E+00  0.00000000000E+00  0.16143415183E+03  0.16143914728E+03  0.12700000000E+01 0. -1.
          4   -1    0    0  501    0  0.00000000000E+00 -0.00000000000E+00 -0.24174551074E+02  0.24207887550E+02  0.12700000000E+01 0. -1.
         25    2    1    2    0    0  0.00000000000E+00  0.00000000000E+00  0.13725960075E+03  0.18564703483E+03  0.12499849417E+03 0.  0.
    9000005    1    3    3    0    0  0.71263562744E+01  0.26003737509E+02 -0.15098494429E+02  0.30918341679E+02  0.10000000000E+01 0.  0.
    9000005    1    3    3    0    0 -0.71263562744E+01 -0.26003737509E+02  0.15235809518E+03  0.15472869315E+03  0.10000000000E+01 0.  0.
<mgrwt>
<rscale>  0 0.12499849E+03</rscale>
<asrwt>0</asrwt>
<pdfrwt beam="2">  1        4 0.37221103E-02 0.12499849E+03</pdfrwt>
<pdfrwt beam="1">  1       -4 0.24838972E-01 0.12499849E+03</pdfrwt>
<totfact> 0.92613406E+03</totfact>
</mgrwt>
</event>
<event>
 5    1  0.3271306E-002  0.1250003E+03  0.7818608E-02  0.1235069E+00
          4   -1    0    0  501    0  0.00000000000E+00  0.00000000000E+00  0.26653389242E+02  0.26683629028E+02  0.12700000000E+01 0. -1.
         -4   -1    0    0    0  501 -0.00000000000E+00 -0.00000000000E+00 -0.14644193147E+03  0.14644743833E+03  0.12700000000E+01 0. -1.
         25    2    1    2    0    0  0.00000000000E+00  0.00000000000E+00 -0.11978854223E+03  0.17313106736E+03  0.12500028654E+03 0.  0.
    9000005    1    3    3    0    0  0.14412915713E+02  0.30100705236E+02 -0.13307243628E+03  0.13719714973E+03  0.10000000000E+01 0.  0.
    9000005    1    3    3    0    0 -0.14412915713E+02 -0.30100705236E+02  0.13283894053E+02  0.35933917630E+02  0.10000000000E+01 0.  0.
<mgrwt>
<rscale>  0 0.12500029E+03</rscale>
<asrwt>0</asrwt>
<pdfrwt beam="1">  1        4 0.41032713E-02 0.12500029E+03</pdfrwt>
<pdfrwt beam="2">  1       -4 0.22532277E-01 0.12500029E+03</pdfrwt>
<totfact> 0.94867640E+03</totfact>
</mgrwt>
</event>
<event>
 5    1  0.3271306E-002  0.1249991E+03  0.7818608E-02  0.1235071E+00
          4   -1    0    0  501    0  0.00000000000E+00  0.00000000000E+00  0.95334145656E+02  0.95342604474E+02  0.12700000000E+01 0. -1.
         -4   -1    0    0    0  501 -0.00000000000E+00 -0.00000000000E+00 -0.40953568141E+02  0.40973255222E+02  0.12700000000E+01 0. -1.
         25    2    1    2    0    0  0.00000000000E+00  0.00000000000E+00  0.54380577515E+02  0.13631585970E+03  0.12499906557E+03 0.  0.
    9000005    1    3    3    0    0 -0.48430506027E+02 -0.23488681717E+02  0.61813007278E+02  0.81969994215E+02  0.10000000000E+01 0.  0.
    9000005    1    3    3    0    0  0.48430506027E+02  0.23488681717E+02 -0.74324297631E+01  0.54345865482E+02  0.10000000000E+01 0.  0.
<mgrwt>
<rscale>  0 0.12499907E+03</rscale>
<asrwt>0</asrwt>
<pdfrwt beam="1">  1        4 0.14668956E-01 0.12499907E+03</pdfrwt>
<pdfrwt beam="2">  1       -4 0.63027141E-02 0.12499907E+03</pdfrwt>
<totfact> 0.10210625E+04</totfact>
</mgrwt>
</event>
<event>
 5    1  0.3271306E-002  0.1249987E+03  0.7818608E-02  0.1235071E+00
         -4   -1    0    0    0  501 -0.00000000000E+00  0.00000000000E+00  0.94984639209E+02  0.94993129149E+02  0.12700000000E+01 0.  1.
          4   -1    0    0  501    0  0.00000000000E+00 -0.00000000000E+00 -0.41104056349E+02  0.41123671387E+02  0.12700000000E+01 0.  1.
         25    2    1    2    0    0  0.00000000000E+00  0.00000000000E+00  0.53880582860E+02  0.13611680054E+03  0.12499866471E+03 0.  0.
    9000005    1    3    3    0    0  0.36608747614E+02 -0.11927127445E+02  0.80539336748E+02  0.89275089105E+02  0.10000000000E+01 0.  0.
    9000005    1    3    3    0    0 -0.36608747614E+02  0.11927127445E+02 -0.26658753888E+02  0.46841711431E+02  0.10000000000E+01 0.  0.
<mgrwt>
<rscale>  0 0.12499866E+03</rscale>
<asrwt>0</asrwt>
<pdfrwt beam="2">  1        4 0.63258629E-02 0.12499866E+03</pdfrwt>
<pdfrwt beam="1">  1       -4 0.14615183E-01 0.12499866E+03</pdfrwt>
<totfact> 0.10214892E+04</totfact>
</mgrwt>
</event>
<event>
 5    1  0.3271306E-002  0.1250237E+03  0.7818608E-02  0.1235032E+00
         -4   -1    0    0    0  501 -0.00000000000E+00  0.00000000000E+00  0.99693853289E+01  0.10049952430E+02  0.12700000000E+01 0.  1.
          4   -1    0    0  501    0  0.00000000000E+00 -0.00000000000E+00 -0.39031432304E+03  0.39031638919E+03  0.12700000000E+01 0.  1.
         25    2    1    2    0    0  0.00000000000E+00  0.00000000000E+00 -0.38034493771E+03  0.40036634162E+03  0.12502374118E+03 0.  0.
    9000005    1    3    3    0    0 -0.56402268976E+02  0.26935382871E+02 -0.19035273629E+03  0.20035442348E+03  0.10000000000E+01 0.  0.
    9000005    1    3    3    0    0  0.56402268976E+02 -0.26935382871E+02 -0.18999220143E+03  0.20001191814E+03  0.10000000000E+01 0.  0.
<mgrwt>
<rscale>  0 0.12502374E+03</rscale>
<asrwt>0</asrwt>
<pdfrwt beam="2">  1        4 0.60054702E-01 0.12502374E+03</pdfrwt>
<pdfrwt beam="1">  1       -4 0.15401083E-02 0.12502374E+03</pdfrwt>
<totfact> 0.64483377E+03</totfact>
</mgrwt>
</event>
<event>
 5    1  0.3271306E-002  0.1250267E+03  0.7818608E-02  0.1235028E+00
          4   -1    0    0  501    0  0.00000000000E+00  0.00000000000E+00  0.19854096607E+03  0.19854502791E+03  0.12700000000E+01 0. -1.
         -4   -1    0    0    0  501 -0.00000000000E+00 -0.00000000000E+00 -0.19658438842E+02  0.19699419222E+02  0.12700000000E+01 0. -1.
         25    2    1    2    0    0  0.00000000000E+00  0.00000000000E+00  0.17888252723E+03  0.21824444713E+03  0.12502671777E+03 0.  0.
    9000005    1    3    3    0    0 -0.66644348634E+01 -0.40661349686E+02  0.73959164647E+01  0.41874331406E+02  0.10000000000E+01 0.  0.
    9000005    1    3    3    0    0  0.66644348634E+01  0.40661349686E+02  0.17148661076E+03  0.17637011572E+03  0.10000000000E+01 0.  0.
<mgrwt>
<rscale>  0 0.12502672E+03</rscale>
<asrwt>0</asrwt>
<pdfrwt beam="1">  1        4 0.30548229E-01 0.12502672E+03</pdfrwt>
<pdfrwt beam="2">  1       -4 0.30278399E-02 0.12502672E+03</pdfrwt>
<totfact> 0.87094911E+03</totfact>
</mgrwt>
</event>
<event>
 5    1  0.3271306E-002  0.1250010E+03  0.7818608E-02  0.1235068E+00
         -4   -1    0    0    0  501 -0.00000000000E+00  0.00000000000E+00  0.50648413667E+02  0.50664333677E+02  0.12700000000E+01 0. -1.
          4   -1    0    0  501    0  0.00000000000E+00 -0.00000000000E+00 -0.77092813924E+02  0.77103273982E+02  0.12700000000E+01 0. -1.
         25    2    1    2    0    0  0.00000000000E+00  0.00000000000E+00 -0.26444400258E+02  0.12776760766E+03  0.12500102104E+03 0.  0.
    9000005    1    3    3    0    0 -0.25323850120E+02 -0.53761634587E+01  0.44914710520E+02  0.51851053408E+02  0.10000000000E+01 0.  0.
    9000005    1    3    3    0    0  0.25323850120E+02  0.53761634587E+01 -0.71359110778E+02  0.75916554251E+02  0.10000000000E+01 0.  0.
<mgrwt>
<rscale>  0 0.12500102E+03</rscale>
<asrwt>0</asrwt>
<pdfrwt beam="2">  1        4 0.11862462E-01 0.12500102E+03</pdfrwt>
<pdfrwt beam="1">  1       -4 0.77940929E-02 0.12500102E+03</pdfrwt>
<totfact> 0.10392270E+04</totfact>
</mgrwt>
</event>
<event>
 5    1  0.3271306E-002  0.1249944E+03  0.7818608E-02  0.1235078E+00
         -4   -1    0    0    0  501 -0.00000000000E+00  0.00000000000E+00  0.34461451695E+02  0.34484845265E+02  0.12700000000E+01 0.  1.
          4   -1    0    0  501    0  0.00000000000E+00 -0.00000000000E+00 -0.11327566733E+03  0.11328278647E+03  0.12700000000E+01 0.  1.
         25    2    1    2    0    0  0.00000000000E+00  0.00000000000E+00 -0.78814215636E+02  0.14776763173E+03  0.12499436948E+03 0.  0.
    9000005    1    3    3    0    0  0.89338138112E+01 -0.59526907622E+02 -0.19567635141E+02  0.63302117699E+02  0.10000000000E+01 0.  0.
    9000005    1    3    3    0    0 -0.89338138112E+01  0.59526907622E+02 -0.59246580495E+02  0.84465514031E+02  0.10000000000E+01 0.  0.
<mgrwt>
<rscale>  0 0.12499437E+03</rscale>
<asrwt>0</asrwt>
<pdfrwt beam="2">  1        4 0.17429373E-01 0.12499437E+03</pdfrwt>
<pdfrwt beam="1">  1       -4 0.53041090E-02 0.12499437E+03</pdfrwt>
<totfact> 0.99763207E+03</totfact>
</mgrwt>
</event>
<event>
 5    1  0.3271306E-002  0.1249999E+03  0.7818608E-02  0.1235069E+00
          4   -1    0    0  501    0  0.00000000000E+00  0.00000000000E+00  0.86086352105E+01  0.87018101673E+01  0.12700000000E+01 0.  1.
         -4   -1    0    0    0  501 -0.00000000000E+00 -0.00000000000E+00 -0.45122210478E+03  0.45122389203E+03  0.12700000000E+01 0.  1.
         25    2    1    2    0    0  0.00000000000E+00  0.00000000000E+00 -0.44261346957E+03  0.45992570220E+03  0.12499987240E+03 0.  0.
    9000005    1    3    3    0    0 -0.43987714252E+02  0.26017270307E+02 -0.88979669851E+02  0.10261675792E+03  0.10000000000E+01 0.  0.
    9000005    1    3    3    0    0  0.43987714252E+02 -0.26017270307E+02 -0.35363379972E+03  0.35730894428E+03  0.10000000000E+01 0.  0.
<mgrwt>
<rscale>  0 0.12499987E+03</rscale>
<asrwt>0</asrwt>
<pdfrwt beam="1">  1        4 0.13317106E-02 0.12499987E+03</pdfrwt>
<pdfrwt beam="2">  1       -4 0.69426072E-01 0.12499987E+03</pdfrwt>
<totfact> 0.59113649E+03</totfact>
</mgrwt>
</event>
<event>
 5    1  0.3271306E-002  0.1250074E+03  0.7818608E-02  0.1235058E+00
         -4   -1    0    0    0  501 -0.00000000000E+00  0.00000000000E+00  0.27865156230E+02  0.27894082378E+02  0.12700000000E+01 0. -1.
          4   -1    0    0  501    0  0.00000000000E+00 -0.00000000000E+00 -0.14009600742E+03  0.14010176371E+03  0.12700000000E+01 0. -1.
         25    2    1    2    0    0  0.00000000000E+00  0.00000000000E+00 -0.11223085119E+03  0.16799584609E+03  0.12500736116E+03 0.  0.
    9000005    1    3    3    0    0 -0.37317228924E+02 -0.22049674199E+02  0.43885741903E+01  0.43577784367E+02  0.10000000000E+01 0.  0.
    9000005    1    3    3    0    0  0.37317228924E+02  0.22049674199E+02 -0.11661942538E+03  0.12441806172E+03  0.10000000000E+01 0.  0.
<mgrwt>
<rscale>  0 0.12500736E+03</rscale>
<asrwt>0</asrwt>
<pdfrwt beam="2">  1        4 0.21555899E-01 0.12500736E+03</pdfrwt>
<pdfrwt beam="1">  1       -4 0.42896151E-02 0.12500736E+03</pdfrwt>
<totfact> 0.95807177E+03</totfact>
</mgrwt>
</event>
<event>
 5    1  0.3271306E-002  0.1250048E+03  0.7818608E-02  0.1235062E+00
         -4   -1    0    0    0  501 -0.00000000000E+00  0.00000000000E+00  0.46923430624E+01  0.48611709922E+01  0.12700000000E+01 0. -1.
          4   -1    0    0  501    0  0.00000000000E+00 -0.00000000000E+00 -0.81765544420E+03  0.81765643050E+03  0.12700000000E+01 0. -1.
         25    2    1    2    0    0  0.00000000000E+00  0.00000000000E+00 -0.81296310114E+03  0.82251760149E+03  0.12500480369E+03 0.  0.
    9000005    1    3    3    0    0 -0.35793455852E+02  0.12753287443E+02 -0.73294827369E+03  0.73393323247E+03  0.10000000000E+01 0.  0.
    9000005    1    3    3    0    0  0.35793455852E+02 -0.12753287443E+02 -0.80014827457E+02  0.88584369025E+02  0.10000000000E+01 0.  0.
<mgrwt>
<rscale>  0 0.12500480E+03</rscale>
<asrwt>0</asrwt>
<pdfrwt beam="2">  1        4 0.12580610E+00 0.12500480E+03</pdfrwt>
<pdfrwt beam="1">  1       -4 0.73496222E-03 0.12500480E+03</pdfrwt>
<totfact> 0.37275153E+03</totfact>
</mgrwt>
</event>
<event>
 5    1  0.3271306E-002  0.1250013E+03  0.7818608E-02  0.1235067E+00
          4   -1    0    0  501    0  0.00000000000E+00  0.00000000000E+00  0.41488319272E+02  0.41507752721E+02  0.12700000000E+01 0.  1.
         -4   -1    0    0    0  501 -0.00000000000E+00 -0.00000000000E+00 -0.94109256341E+02  0.94117825246E+02  0.12700000000E+01 0.  1.
         25    2    1    2    0    0  0.00000000000E+00  0.00000000000E+00 -0.52620937069E+02  0.13562557797E+03  0.12500133752E+03 0.  0.
    9000005    1    3    3    0    0  0.39595579174E+02  0.45987717697E+02 -0.10120659331E+02  0.61531356351E+02  0.10000000000E+01 0.  0.
    9000005    1    3    3    0    0 -0.39595579174E+02 -0.45987717697E+02 -0.42500277739E+02  0.74094221617E+02  0.10000000000E+01 0.  0.
<mgrwt>
<rscale>  0 0.12500134E+03</rscale>
<asrwt>0</asrwt>
<pdfrwt beam="1">  1        4 0.63849724E-02 0.12500134E+03</pdfrwt>
<pdfrwt beam="2">  1       -4 0.14480501E-01 0.12500134E+03</pdfrwt>
<totfact> 0.10224594E+04</totfact>
</mgrwt>
</event>
<event>
 5    1  0.3271306E-002  0.1249991E+03  0.7818608E-02  0.1235071E+00
         -4   -1    0    0    0  501 -0.00000000000E+00  0.00000000000E+00  0.46017098116E+01  0.47737441480E+01  0.12700000000E+01 0.  1.
          4   -1    0    0  501    0  0.00000000000E+00 -0.00000000000E+00 -0.83310889127E+03  0.83310985927E+03  0.12700000000E+01 0.  1.
         25    2    1    2    0    0  0.00000000000E+00  0.00000000000E+00 -0.82850718145E+03  0.83788360341E+03  0.12499913259E+03 0.  0.
    9000005    1    3    3    0    0  0.11705731012E+02 -0.26538505697E+02 -0.78528657823E+03  0.78582270671E+03  0.10000000000E+01 0.  0.
    9000005    1    3    3    0    0 -0.11705731012E+02  0.26538505697E+02 -0.43220603222E+02  0.52060896708E+02  0.10000000000E+01 0.  0.
<mgrwt>
<rscale>  0 0.12499913E+03</rscale>
<asrwt>0</asrwt>
<pdfrwt beam="2">  1        4 0.12818379E+00 0.12499913E+03</pdfrwt>
<pdfrwt beam="1">  1       -4 0.72126389E-03 0.12499913E+03</pdfrwt>
<totfact> 0.36629058E+03</totfact>
</mgrwt>
</event>
<event>
 5    1  0.3271306E-002  0.1250002E+03  0.7818608E-02  0.1235069E+00
         -4   -1    0    0    0  501 -0.00000000000E+00  0.00000000000E+00  0.66275434343E+02  0.66287601384E+02  0.12700000000E+01 0. -1.
          4   -1    0    0  501    0  0.00000000000E+00 -0.00000000000E+00 -0.58915396826E+02  0.58929083509E+02  0.12700000000E+01 0. -1.
         25    2    1    2    0    0  0.00000000000E+00  0.00000000000E+00  0.73600375164E+01  0.12521668489E+03  0.12500019209E+03 0.  0.
    9000005    1    3    3    0    0 -0.24527674573E+02 -0.57197312462E+02  0.93575180569E+01  0.62942056822E+02  0.10000000000E+01 0.  0.
    9000005    1    3    3    0    0  0.24527674573E+02  0.57197312462E+02 -0.19974805405E+01  0.62274628071E+02  0.10000000000E+01 0.  0.
<mgrwt>
<rscale>  0 0.12500019E+03</rscale>
<asrwt>0</asrwt>
<pdfrwt beam="2">  1        4 0.90658960E-02 0.12500019E+03</pdfrwt>
<pdfrwt beam="1">  1       -4 0.10198209E-01 0.12500019E+03</pdfrwt>
<totfact> 0.10448113E+04</totfact>
</mgrwt>
</event>
<event>
 5    1  0.3271306E-002  0.1249996E+03  0.7818608E-02  0.1235070E+00
          4   -1    0    0  501    0  0.00000000000E+00  0.00000000000E+00  0.17989414959E+02  0.18034188381E+02  0.12700000000E+01 0.  1.
         -4   -1    0    0    0  501 -0.00000000000E+00 -0.00000000000E+00 -0.21682375187E+03  0.21682747122E+03  0.12700000000E+01 0.  1.
         25    2    1    2    0    0  0.00000000000E+00  0.00000000000E+00 -0.19883433691E+03  0.23486165960E+03  0.12499962246E+03 0.  0.
    9000005    1    3    3    0    0 -0.11793504771E+02  0.28602463477E+02 -0.20143357380E+03  0.20379811659E+03  0.10000000000E+01 0.  0.
    9000005    1    3    3    0    0  0.11793504771E+02 -0.28602463477E+02  0.25992368913E+01  0.31063543007E+02  0.10000000000E+01 0.  0.
<mgrwt>
<rscale>  0 0.12499962E+03</rscale>
<asrwt>0</asrwt>
<pdfrwt beam="1">  1        4 0.27713327E-02 0.12499962E+03</pdfrwt>
<pdfrwt beam="2">  1       -4 0.33361229E-01 0.12499962E+03</pdfrwt>
<totfact> 0.84569345E+03</totfact>
</mgrwt>
</event>
<event>
 5    1  0.3271306E-002  0.1250003E+03  0.7818608E-02  0.1235069E+00
          4   -1    0    0  501    0  0.00000000000E+00  0.00000000000E+00  0.51255110713E+02  0.51270842339E+02  0.12700000000E+01 0. -1.
         -4   -1    0    0    0  501 -0.00000000000E+00 -0.00000000000E+00 -0.76179613022E+02  0.76190198452E+02  0.12700000000E+01 0. -1.
         25    2    1    2    0    0  0.00000000000E+00  0.00000000000E+00 -0.24924502309E+02  0.12746104079E+03  0.12500034442E+03 0.  0.
    9000005    1    3    3    0    0 -0.15532488179E+02 -0.44701503161E+02  0.29155272927E+02  0.55592378194E+02  0.10000000000E+01 0.  0.
    9000005    1    3    3    0    0  0.15532488179E+02  0.44701503161E+02 -0.54079775236E+02  0.71868662597E+02  0.10000000000E+01 0.  0.
<mgrwt>
<rscale>  0 0.12500034E+03</rscale>
<asrwt>0</asrwt>
<pdfrwt beam="1">  1        4 0.78874260E-02 0.12500034E+03</pdfrwt>
<pdfrwt beam="2">  1       -4 0.11721965E-01 0.12500034E+03</pdfrwt>
<totfact> 0.10399063E+04</totfact>
</mgrwt>
</event>
<event>
 5    1  0.3271306E-002  0.1250044E+03  0.7818608E-02  0.1235062E+00
         -4   -1    0    0    0  501 -0.00000000000E+00  0.00000000000E+00  0.23896387454E+02  0.23930111436E+02  0.12700000000E+01 0. -1.
          4   -1    0    0  501    0  0.00000000000E+00 -0.00000000000E+00 -0.16332606391E+03  0.16333100150E+03  0.12700000000E+01 0. -1.
         25    2    1    2    0    0  0.00000000000E+00  0.00000000000E+00 -0.13942967645E+03  0.18726111294E+03  0.12500435889E+03 0.  0.
    9000005    1    3    3    0    0  0.53980273417E+02 -0.67890264134E+01 -0.11577944468E+03  0.12792904521E+03  0.10000000000E+01 0.  0.
    9000005    1    3    3    0    0 -0.53980273417E+02  0.67890264134E+01 -0.23650231773E+02  0.59332067727E+02  0.10000000000E+01 0.  0.
<mgrwt>
<rscale>  0 0.12500436E+03</rscale>
<asrwt>0</asrwt>
<pdfrwt beam="2">  1        4 0.25130060E-01 0.12500436E+03</pdfrwt>
<pdfrwt beam="1">  1       -4 0.36793414E-02 0.12500436E+03</pdfrwt>
<totfact> 0.92317051E+03</totfact>
</mgrwt>
</event>
<event>
 5    1  0.3271306E-002  0.1250001E+03  0.7818608E-02  0.1235069E+00
         -4   -1    0    0    0  501 -0.00000000000E+00  0.00000000000E+00  0.95815069695E+02  0.95823486060E+02  0.12700000000E+01 0.  1.
          4   -1    0    0  501    0  0.00000000000E+00 -0.00000000000E+00 -0.40748571714E+02  0.40768357788E+02  0.12700000000E+01 0.  1.
         25    2    1    2    0    0  0.00000000000E+00  0.00000000000E+00  0.55066497981E+02  0.13659184385E+03  0.12500005042E+03 0.  0.
    9000005    1    3    3    0    0  0.31254774556E+02 -0.42322378630E+02  0.64383005734E+02  0.83151765422E+02  0.10000000000E+01 0.  0.
    9000005    1    3    3    0    0 -0.31254774556E+02  0.42322378630E+02 -0.93165077525E+01  0.53440078426E+02  0.10000000000E+01 0.  0.
<mgrwt>
<rscale>  0 0.12500005E+03</rscale>
<asrwt>0</asrwt>
<pdfrwt beam="2">  1        4 0.62711805E-02 0.12500005E+03</pdfrwt>
<pdfrwt beam="1">  1       -4 0.14742949E-01 0.12500005E+03</pdfrwt>
<totfact> 0.10204615E+04</totfact>
</mgrwt>
</event>
<event>
 5    1  0.3271306E-002  0.1250004E+03  0.7818608E-02  0.1235069E+00
          4   -1    0    0  501    0  0.00000000000E+00  0.00000000000E+00  0.79296035288E+02  0.79306204754E+02  0.12700000000E+01 0. -1.
         -4   -1    0    0    0  501 -0.00000000000E+00 -0.00000000000E+00 -0.49240413236E+02  0.49256788321E+02  0.12700000000E+01 0. -1.
         25    2    1    2    0    0  0.00000000000E+00  0.00000000000E+00  0.30055622052E+02  0.12856299307E+03  0.12500041108E+03 0.  0.
    9000005    1    3    3    0    0  0.20190842567E+02 -0.57640804371E+02  0.28639161734E+02  0.67463575631E+02  0.10000000000E+01 0.  0.
    9000005    1    3    3    0    0 -0.20190842567E+02  0.57640804371E+02  0.14164603177E+01  0.61099417443E+02  0.10000000000E+01 0.  0.
<mgrwt>
<rscale>  0 0.12500041E+03</rscale>
<asrwt>0</asrwt>
<pdfrwt beam="1">  1        4 0.12201432E-01 0.12500041E+03</pdfrwt>
<pdfrwt beam="2">  1       -4 0.75774902E-02 0.12500041E+03</pdfrwt>
<totfact> 0.10375251E+04</totfact>
</mgrwt>
</event>
<event>
 5    1  0.3271306E-002  0.1249991E+03  0.7818608E-02  0.1235071E+00
          4   -1    0    0  501    0  0.00000000000E+00  0.00000000000E+00  0.28824106911E+02  0.28852071662E+02  0.12700000000E+01 0. -1.
         -4   -1    0    0    0  501 -0.00000000000E+00 -0.00000000000E+00 -0.13542161398E+03  0.13542756895E+03  0.12700000000E+01 0. -1.
         25    2    1    2    0    0  0.00000000000E+00  0.00000000000E+00 -0.10659750707E+03  0.16427964061E+03  0.12499908723E+03 0.  0.
    9000005    1    3    3    0    0  0.28567886640E+02  0.44224814016E+01 -0.12611217879E+03  0.12938687773E+03  0.10000000000E+01 0.  0.
    9000005    1    3    3    0    0 -0.28567886640E+02 -0.44224814016E+01  0.19514671729E+02  0.34892762881E+02  0.10000000000E+01 0.  0.
<mgrwt>
<rscale>  0 0.12499909E+03</rscale>
<asrwt>0</asrwt>
<pdfrwt beam="1">  1        4 0.44370873E-02 0.12499909E+03</pdfrwt>
<pdfrwt beam="2">  1       -4 0.20836703E-01 0.12499909E+03</pdfrwt>
<totfact> 0.96525971E+03</totfact>
</mgrwt>
</event>
<event>
 5    1  0.3271306E-002  0.1250005E+03  0.7818608E-02  0.1235068E+00
          4   -1    0    0  501    0  0.00000000000E+00  0.00000000000E+00  0.72572914022E+03  0.72573025145E+03  0.12700000000E+01 0.  1.
         -4   -1    0    0    0  501 -0.00000000000E+00 -0.00000000000E+00 -0.53065205578E+01  0.54563779589E+01  0.12700000000E+01 0.  1.
         25    2    1    2    0    0  0.00000000000E+00  0.00000000000E+00  0.72042261966E+03  0.73118662940E+03  0.12500054440E+03 0.  0.
    9000005    1    3    3    0    0  0.38635684579E+02 -0.90017529777E+01  0.64265861255E+03  0.64388262903E+03  0.10000000000E+01 0.  0.
    9000005    1    3    3    0    0 -0.38635684579E+02  0.90017529777E+01  0.77764007107E+02  0.87304000372E+02  0.10000000000E+01 0.  0.
<mgrwt>
<rscale>  0 0.12500054E+03</rscale>
<asrwt>0</asrwt>
<pdfrwt beam="1">  1        4 0.11166229E+00 0.12500054E+03</pdfrwt>
<pdfrwt beam="2">  1       -4 0.82800044E-03 0.12500054E+03</pdfrwt>
<totfact> 0.41490041E+03</totfact>
</mgrwt>
</event>
<event>
 5    1  0.3271306E-002  0.1250062E+03  0.7818608E-02  0.1235060E+00
          4   -1    0    0  501    0  0.00000000000E+00  0.00000000000E+00  0.75807073902E+03  0.75807180284E+03  0.12700000000E+01 0.  1.
         -4   -1    0    0    0  501 -0.00000000000E+00 -0.00000000000E+00 -0.50740622526E+01  0.52305838817E+01  0.12700000000E+01 0.  1.
         25    2    1    2    0    0  0.00000000000E+00  0.00000000000E+00  0.75299667677E+03  0.76330238672E+03  0.12500615325E+03 0.  0.
    9000005    1    3    3    0    0  0.45840852403E+02  0.42195152658E+02  0.34669702021E+03  0.35225223701E+03  0.10000000000E+01 0.  0.
    9000005    1    3    3    0    0 -0.45840852403E+02 -0.42195152658E+02  0.40629965656E+03  0.41105014971E+03  0.10000000000E+01 0.  0.
<mgrwt>
<rscale>  0 0.12500615E+03</rscale>
<asrwt>0</asrwt>
<pdfrwt beam="1">  1        4 0.11663837E+00 0.12500615E+03</pdfrwt>
<pdfrwt beam="2">  1       -4 0.79274706E-03 0.12500615E+03</pdfrwt>
<totfact> 0.39940457E+03</totfact>
</mgrwt>
</event>
<event>
 5    1  0.3271306E-002  0.1250058E+03  0.7818608E-02  0.1235060E+00
         -4   -1    0    0    0  501 -0.00000000000E+00  0.00000000000E+00  0.59762109023E+02  0.59775601836E+02  0.12700000000E+01 0. -1.
          4   -1    0    0  501    0  0.00000000000E+00 -0.00000000000E+00 -0.65342353233E+02  0.65354693986E+02  0.12700000000E+01 0. -1.
         25    2    1    2    0    0  0.00000000000E+00  0.00000000000E+00 -0.55802442099E+01  0.12513029582E+03  0.12500580709E+03 0.  0.
    9000005    1    3    3    0    0  0.38237246128E+02 -0.21245933528E+02  0.41887680397E+02  0.60572720361E+02  0.10000000000E+01 0.  0.
    9000005    1    3    3    0    0 -0.38237246128E+02  0.21245933528E+02 -0.47467924607E+02  0.64557575461E+02  0.10000000000E+01 0.  0.
<mgrwt>
<rscale>  0 0.12500581E+03</rscale>
<asrwt>0</asrwt>
<pdfrwt beam="2">  1        4 0.10054657E-01 0.12500581E+03</pdfrwt>
<pdfrwt beam="1">  1       -4 0.91961578E-02 0.12500581E+03</pdfrwt>
<totfact> 0.10448662E+04</totfact>
</mgrwt>
</event>
<event>
 5    1  0.3271306E-002  0.1250035E+03  0.7818608E-02  0.1235064E+00
          4   -1    0    0  501    0  0.00000000000E+00  0.00000000000E+00  0.21296053420E+02  0.21333888330E+02  0.12700000000E+01 0. -1.
         -4   -1    0    0    0  501 -0.00000000000E+00 -0.00000000000E+00 -0.18323335049E+03  0.18323775165E+03  0.12700000000E+01 0. -1.
         25    2    1    2    0    0  0.00000000000E+00  0.00000000000E+00 -0.16193729707E+03  0.20457163998E+03  0.12500347077E+03 0.  0.
    9000005    1    3    3    0    0 -0.54991237894E+02  0.10410230335E+02 -0.35466769207E+02  0.66266891120E+02  0.10000000000E+01 0.  0.
    9000005    1    3    3    0    0  0.54991237894E+02 -0.10410230335E+02 -0.12647052786E+03  0.13830474886E+03  0.10000000000E+01 0.  0.
<mgrwt>
<rscale>  0 0.12500347E+03</rscale>
<asrwt>0</asrwt>
<pdfrwt beam="1">  1        4 0.32795650E-02 0.12500347E+03</pdfrwt>
<pdfrwt beam="2">  1       -4 0.28192994E-01 0.12500347E+03</pdfrwt>
<totfact> 0.89363211E+03</totfact>
</mgrwt>
</event>
<event>
 5    1  0.3271306E-002  0.1250000E+03  0.7818608E-02  0.1235069E+00
          4   -1    0    0  501    0  0.00000000000E+00  0.00000000000E+00  0.11429757483E+03  0.11430463032E+03  0.12700000000E+01 0.  1.
         -4   -1    0    0    0  501 -0.00000000000E+00 -0.00000000000E+00 -0.34156205051E+02  0.34179807540E+02  0.12700000000E+01 0.  1.
         25    2    1    2    0    0  0.00000000000E+00  0.00000000000E+00  0.80141369780E+02  0.14848443786E+03  0.12499995654E+03 0.  0.
    9000005    1    3    3    0    0 -0.43313250609E+02  0.22078654403E+02  0.86712669035E+02  0.99416254354E+02  0.10000000000E+01 0.  0.
    9000005    1    3    3    0    0  0.43313250609E+02 -0.22078654403E+02 -0.65712992547E+01  0.49068183505E+02  0.10000000000E+01 0.  0.
<mgrwt>
<rscale>  0 0.12499996E+03</rscale>
<asrwt>0</asrwt>
<pdfrwt beam="1">  1        4 0.17586601E-01 0.12499996E+03</pdfrwt>
<pdfrwt beam="2">  1       -4 0.52571591E-02 0.12499996E+03</pdfrwt>
<totfact> 0.99606762E+03</totfact>
</mgrwt>
</event>
<event>
 5    1  0.3271306E-002  0.1250005E+03  0.7818608E-02  0.1235068E+00
          4   -1    0    0  501    0  0.00000000000E+00  0.00000000000E+00  0.30062171753E+02  0.30088985867E+02  0.12700000000E+01 0.  1.
         -4   -1    0    0    0  501 -0.00000000000E+00 -0.00000000000E+00 -0.12985230684E+03  0.12985851721E+03  0.12700000000E+01 0.  1.
         25    2    1    2    0    0  0.00000000000E+00  0.00000000000E+00 -0.99790135088E+02  0.15994750308E+03  0.12500053072E+03 0.  0.
    9000005    1    3    3    0    0  0.17770585785E+02  0.36687708193E+02  0.10712770396E+02  0.42160942841E+02  0.10000000000E+01 0.  0.
    9000005    1    3    3    0    0 -0.17770585785E+02 -0.36687708193E+02 -0.11050290548E+03  0.11778656024E+03  0.10000000000E+01 0.  0.
<mgrwt>
<rscale>  0 0.12500053E+03</rscale>
<asrwt>0</asrwt>
<pdfrwt beam="1">  1        4 0.46274899E-02 0.12500053E+03</pdfrwt>
<pdfrwt beam="2">  1       -4 0.19979818E-01 0.12500053E+03</pdfrwt>
<totfact> 0.97351746E+03</totfact>
</mgrwt>
</event>
<event>
 5    1  0.3271306E-002  0.1249992E+03  0.7818608E-02  0.1235070E+00
          4   -1    0    0  501    0  0.00000000000E+00  0.00000000000E+00  0.39056165819E+02  0.39076808832E+02  0.12700000000E+01 0. -1.
         -4   -1    0    0    0  501 -0.00000000000E+00 -0.00000000000E+00 -0.99963904987E+02  0.99971972073E+02  0.12700000000E+01 0. -1.
         25    2    1    2    0    0  0.00000000000E+00  0.00000000000E+00 -0.60907739168E+02  0.13904878090E+03  0.12499924312E+03 0.  0.
    9000005    1    3    3    0    0 -0.67107703914E+01  0.46208272775E+02 -0.76654701189E+02  0.89761807727E+02  0.10000000000E+01 0.  0.
    9000005    1    3    3    0    0  0.67107703914E+01 -0.46208272775E+02  0.15746962021E+02  0.49286973178E+02  0.10000000000E+01 0.  0.
<mgrwt>
<rscale>  0 0.12499924E+03</rscale>
<asrwt>0</asrwt>
<pdfrwt beam="1">  1        4 0.60108494E-02 0.12499924E+03</pdfrwt>
<pdfrwt beam="2">  1       -4 0.15381271E-01 0.12499924E+03</pdfrwt>
<totfact> 0.10153511E+04</totfact>
</mgrwt>
</event>
<event>
 5    1  0.3271306E-002  0.1250025E+03  0.7818608E-02  0.1235065E+00
          4   -1    0    0  501    0  0.00000000000E+00  0.00000000000E+00  0.58750431128E+02  0.58764156232E+02  0.12700000000E+01 0.  1.
         -4   -1    0    0    0  501 -0.00000000000E+00 -0.00000000000E+00 -0.66463928575E+02  0.66476061117E+02  0.12700000000E+01 0.  1.
         25    2    1    2    0    0  0.00000000000E+00  0.00000000000E+00 -0.77134974475E+01  0.12524021735E+03  0.12500245597E+03 0.  0.
    9000005    1    3    3    0    0 -0.51050691196E+02 -0.72913647062E+01  0.31510059265E+02  0.60441880395E+02  0.10000000000E+01 0.  0.
    9000005    1    3    3    0    0  0.51050691196E+02  0.72913647062E+01 -0.39223556712E+02  0.64798336954E+02  0.10000000000E+01 0.  0.
<mgrwt>
<rscale>  0 0.12500246E+03</rscale>
<asrwt>0</asrwt>
<pdfrwt beam="1">  1        4 0.90405169E-02 0.12500246E+03</pdfrwt>
<pdfrwt beam="2">  1       -4 0.10227209E-01 0.12500246E+03</pdfrwt>
<totfact> 0.10447067E+04</totfact>
</mgrwt>
</event>
<event>
 5    1  0.3271306E-002  0.1249631E+03  0.7818608E-02  0.1235127E+00
         -4   -1    0    0    0  501 -0.00000000000E+00  0.00000000000E+00  0.79337634378E+02  0.79347798512E+02  0.12700000000E+01 0. -1.
          4   -1    0    0  501    0  0.00000000000E+00 -0.00000000000E+00 -0.49185220819E+02  0.49201614272E+02  0.12700000000E+01 0. -1.
         25    2    1    2    0    0  0.00000000000E+00  0.00000000000E+00  0.30152413560E+02  0.12854941278E+03  0.12496312850E+03 0.  0.
    9000005    1    3    3    0    0 -0.45445377007E+02  0.54023640359E+01 -0.28670445867E+02  0.54013538069E+02  0.10000000000E+01 0.  0.
    9000005    1    3    3    0    0  0.45445377007E+02 -0.54023640359E+01  0.58822859426E+02  0.74535874716E+02  0.10000000000E+01 0.  0.
<mgrwt>
<rscale>  0 0.12496313E+03</rscale>
<asrwt>0</asrwt>
<pdfrwt beam="2">  1        4 0.75690000E-02 0.12496313E+03</pdfrwt>
<pdfrwt beam="1">  1       -4 0.12207833E-01 0.12496313E+03</pdfrwt>
<totfact> 0.10384280E+04</totfact>
</mgrwt>
</event>
<event>
 5    1  0.3271306E-002  0.1249967E+03  0.7818608E-02  0.1235074E+00
          4   -1    0    0  501    0  0.00000000000E+00  0.00000000000E+00  0.10204977392E+03  0.10205767613E+03  0.12700000000E+01 0. -1.
         -4   -1    0    0    0  501 -0.00000000000E+00 -0.00000000000E+00 -0.38255975948E+02  0.38277050510E+02  0.12700000000E+01 0. -1.
         25    2    1    2    0    0  0.00000000000E+00  0.00000000000E+00  0.63793797972E+02  0.14033472664E+03  0.12499674732E+03 0.  0.
    9000005    1    3    3    0    0 -0.27264752536E+02 -0.56220314965E+02  0.30799074765E+02  0.69668310960E+02  0.10000000000E+01 0.  0.
    9000005    1    3    3    0    0  0.27264752536E+02  0.56220314965E+02  0.32994723207E+02  0.70666415681E+02  0.10000000000E+01 0.  0.
<mgrwt>
<rscale>  0 0.12499675E+03</rscale>
<asrwt>0</asrwt>
<pdfrwt beam="1">  1        4 0.15702194E-01 0.12499675E+03</pdfrwt>
<pdfrwt beam="2">  1       -4 0.58877639E-02 0.12499675E+03</pdfrwt>
<totfact> 0.10127395E+04</totfact>
</mgrwt>
</event>
<event>
 5    1  0.3271306E-002  0.1250017E+03  0.7818608E-02  0.1235067E+00
         -4   -1    0    0    0  501 -0.00000000000E+00  0.00000000000E+00  0.17315863699E+02  0.17362374136E+02  0.12700000000E+01 0.  1.
          4   -1    0    0  501    0  0.00000000000E+00 -0.00000000000E+00 -0.22524332286E+03  0.22524690319E+03  0.12700000000E+01 0.  1.
         25    2    1    2    0    0  0.00000000000E+00  0.00000000000E+00 -0.20792745917E+03  0.24260927732E+03  0.12500173266E+03 0.  0.
    9000005    1    3    3    0    0  0.51489901253E+02  0.33812682231E+02 -0.83529373998E+02  0.10379144344E+03  0.10000000000E+01 0.  0.
    9000005    1    3    3    0    0 -0.51489901253E+02 -0.33812682231E+02 -0.12439808517E+03  0.13881783388E+03  0.10000000000E+01 0.  0.
<mgrwt>
<rscale>  0 0.12500173E+03</rscale>
<asrwt>0</asrwt>
<pdfrwt beam="2">  1        4 0.34656670E-01 0.12500173E+03</pdfrwt>
<pdfrwt beam="1">  1       -4 0.26678323E-02 0.12500173E+03</pdfrwt>
<totfact> 0.83407070E+03</totfact>
</mgrwt>
</event>
<event>
 5    1  0.3271306E-002  0.1250012E+03  0.7818608E-02  0.1235067E+00
          4   -1    0    0  501    0  0.00000000000E+00  0.00000000000E+00  0.11309970383E+02  0.11381051361E+02  0.12700000000E+01 0.  1.
         -4   -1    0    0    0  501 -0.00000000000E+00 -0.00000000000E+00 -0.34423360907E+03  0.34423595181E+03  0.12700000000E+01 0.  1.
         25    2    1    2    0    0  0.00000000000E+00  0.00000000000E+00 -0.33292363869E+03  0.35561700317E+03  0.12500121496E+03 0.  0.
    9000005    1    3    3    0    0  0.38998000745E+02  0.21258678840E+02 -0.29152621919E+03  0.29489203442E+03  0.10000000000E+01 0.  0.
    9000005    1    3    3    0    0 -0.38998000745E+02 -0.21258678840E+02 -0.41397419496E+02  0.60724968744E+02  0.10000000000E+01 0.  0.
<mgrwt>
<rscale>  0 0.12500121E+03</rscale>
<asrwt>0</asrwt>
<pdfrwt beam="1">  1        4 0.17456437E-02 0.12500121E+03</pdfrwt>
<pdfrwt beam="2">  1       -4 0.52964657E-01 0.12500121E+03</pdfrwt>
<totfact> 0.69109151E+03</totfact>
</mgrwt>
</event>
<event>
 5    1  0.3271306E-002  0.1249970E+03  0.7818608E-02  0.1235074E+00
         -4   -1    0    0    0  501 -0.00000000000E+00  0.00000000000E+00  0.15039360148E+03  0.15039896364E+03  0.12700000000E+01 0. -1.
          4   -1    0    0  501    0  0.00000000000E+00 -0.00000000000E+00 -0.25950895967E+02  0.25981953381E+02  0.12700000000E+01 0. -1.
         25    2    1    2    0    0  0.00000000000E+00  0.00000000000E+00  0.12444270551E+03  0.17638091703E+03  0.12499696371E+03 0.  0.
    9000005    1    3    3    0    0 -0.57490147895E+02 -0.95294258157E+01  0.30381736136E+02  0.65726531568E+02  0.10000000000E+01 0.  0.
    9000005    1    3    3    0    0  0.57490147895E+02  0.95294258157E+01  0.94060969374E+02  0.11065438546E+03  0.10000000000E+01 0.  0.
<mgrwt>
<rscale>  0 0.12499696E+03</rscale>
<asrwt>0</asrwt>
<pdfrwt beam="2">  1        4 0.39952470E-02 0.12499696E+03</pdfrwt>
<pdfrwt beam="1">  1       -4 0.23140279E-01 0.12499696E+03</pdfrwt>
<totfact> 0.94278956E+03</totfact>
</mgrwt>
</event>
<event>
 5    1  0.3271306E-002  0.1249981E+03  0.7818608E-02  0.1235072E+00
         -4   -1    0    0    0  501 -0.00000000000E+00  0.00000000000E+00  0.12312874849E+02  0.12378198053E+02  0.12700000000E+01 0.  1.
          4   -1    0    0  501    0  0.00000000000E+00 -0.00000000000E+00 -0.31633343612E+03  0.31633598548E+03  0.12700000000E+01 0.  1.
         25    2    1    2    0    0  0.00000000000E+00  0.00000000000E+00 -0.30402056127E+03  0.32871418353E+03  0.12499805110E+03 0.  0.
    9000005    1    3    3    0    0  0.10650674060E+02  0.57021849957E+02 -0.21313156581E+03  0.22088683205E+03  0.10000000000E+01 0.  0.
    9000005    1    3    3    0    0 -0.10650674060E+02 -0.57021849957E+02 -0.90888995466E+02  0.10782735148E+03  0.10000000000E+01 0.  0.
<mgrwt>
<rscale>  0 0.12499805E+03</rscale>
<asrwt>0</asrwt>
<pdfrwt beam="2">  1        4 0.48671897E-01 0.12499805E+03</pdfrwt>
<pdfrwt beam="1">  1       -4 0.18995096E-02 0.12499805E+03</pdfrwt>
<totfact> 0.72134654E+03</totfact>
</mgrwt>
</event>
<event>
 5    1  0.3271306E-002  0.1249979E+03  0.7818608E-02  0.1235073E+00
         -4   -1    0    0    0  501 -0.00000000000E+00  0.00000000000E+00  0.13105232641E+02  0.13166625330E+02  0.12700000000E+01 0. -1.
          4   -1    0    0  501    0  0.00000000000E+00 -0.00000000000E+00 -0.29729875834E+03  0.29730147092E+03  0.12700000000E+01 0. -1.
         25    2    1    2    0    0  0.00000000000E+00  0.00000000000E+00 -0.28419352570E+03  0.31046809625E+03  0.12499791494E+03 0.  0.
    9000005    1    3    3    0    0  0.40363968499E+02  0.47482598605E+02 -0.15355252804E+03  0.16572032462E+03  0.10000000000E+01 0.  0.
    9000005    1    3    3    0    0 -0.40363968499E+02 -0.47482598605E+02 -0.13064099766E+03  0.14474777164E+03  0.10000000000E+01 0.  0.
<mgrwt>
<rscale>  0 0.12499791E+03</rscale>
<asrwt>0</asrwt>
<pdfrwt beam="2">  1        4 0.45743197E-01 0.12499791E+03</pdfrwt>
<pdfrwt beam="1">  1       -4 0.20211210E-02 0.12499791E+03</pdfrwt>
<totfact> 0.74307665E+03</totfact>
</mgrwt>
</event>
<event>
 5    1  0.3271306E-002  0.1249984E+03  0.7818608E-02  0.1235072E+00
         -4   -1    0    0    0  501 -0.00000000000E+00  0.00000000000E+00  0.63637460979E+02  0.63650132284E+02  0.12700000000E+01 0. -1.
          4   -1    0    0  501    0  0.00000000000E+00 -0.00000000000E+00 -0.61355904960E+02  0.61369047356E+02  0.12700000000E+01 0. -1.
         25    2    1    2    0    0  0.00000000000E+00  0.00000000000E+00  0.22815560191E+01  0.12501917964E+03  0.12499835911E+03 0.  0.
    9000005    1    3    3    0    0  0.35239561966E+02  0.49352134419E+02  0.16232610315E+02  0.62785010447E+02  0.10000000000E+01 0.  0.
    9000005    1    3    3    0    0 -0.35239561966E+02 -0.49352134419E+02 -0.13951054296E+02  0.62234169193E+02  0.10000000000E+01 0.  0.
<mgrwt>
<rscale>  0 0.12499836E+03</rscale>
<asrwt>0</asrwt>
<pdfrwt beam="2">  1        4 0.94413556E-02 0.12499836E+03</pdfrwt>
<pdfrwt beam="1">  1       -4 0.97923643E-02 0.12499836E+03</pdfrwt>
<totfact> 0.10452834E+04</totfact>
</mgrwt>
</event>
<event>
 5    1  0.3271306E-002  0.1249728E+03  0.7818608E-02  0.1235112E+00
          4   -1    0    0  501    0  0.00000000000E+00  0.00000000000E+00  0.30864949770E+02  0.30891067063E+02  0.12700000000E+01 0.  1.
         -4   -1    0    0    0  501 -0.00000000000E+00 -0.00000000000E+00 -0.12642154425E+03  0.12642792315E+03  0.12700000000E+01 0.  1.
         25    2    1    2    0    0  0.00000000000E+00  0.00000000000E+00 -0.95556594483E+02  0.15731899021E+03  0.12497280477E+03 0.  0.
    9000005    1    3    3    0    0  0.54830710465E+02  0.28540678595E+02 -0.36339363247E+02  0.71711410988E+02  0.10000000000E+01 0.  0.
    9000005    1    3    3    0    0 -0.54830710465E+02 -0.28540678595E+02 -0.59217231236E+02  0.85607579221E+02  0.10000000000E+01 0.  0.
<mgrwt>
<rscale>  0 0.12497280E+03</rscale>
<asrwt>0</asrwt>
<pdfrwt beam="1">  1        4 0.47509536E-02 0.12497280E+03</pdfrwt>
<pdfrwt beam="2">  1       -4 0.19451968E-01 0.12497280E+03</pdfrwt>
<totfact> 0.97922029E+03</totfact>
</mgrwt>
</event>
<event>
 5    1  0.3271306E-002  0.1249994E+03  0.7818608E-02  0.1235070E+00
          4   -1    0    0  501    0  0.00000000000E+00  0.00000000000E+00  0.11951464951E+03  0.11952139703E+03  0.12700000000E+01 0.  1.
         -4   -1    0    0    0  501 -0.00000000000E+00 -0.00000000000E+00 -0.32663975280E+02  0.32688655235E+02  0.12700000000E+01 0.  1.
         25    2    1    2    0    0  0.00000000000E+00  0.00000000000E+00  0.86850674235E+02  0.15221005227E+03  0.12499944158E+03 0.  0.
    9000005    1    3    3    0    0 -0.36575960839E+02 -0.23006983738E+02  0.98398060014E+02  0.10747232400E+03  0.10000000000E+01 0.  0.
    9000005    1    3    3    0    0  0.36575960839E+02  0.23006983738E+02 -0.11547385779E+02  0.44737728265E+02  0.10000000000E+01 0.  0.
<mgrwt>
<rscale>  0 0.12499944E+03</rscale>
<asrwt>0</asrwt>
<pdfrwt beam="1">  1        4 0.18389287E-01 0.12499944E+03</pdfrwt>
<pdfrwt beam="2">  1       -4 0.50276445E-02 0.12499944E+03</pdfrwt>
<totfact> 0.98866210E+03</totfact>
</mgrwt>
</event>
<event>
 5    1  0.3271306E-002  0.1249959E+03  0.7818608E-02  0.1235076E+00
         -4   -1    0    0    0  501 -0.00000000000E+00  0.00000000000E+00  0.37357418485E+03  0.37357634358E+03  0.12700000000E+01 0. -1.
          4   -1    0    0  501    0  0.00000000000E+00 -0.00000000000E+00 -0.10414982424E+02  0.10492128425E+02  0.12700000000E+01 0. -1.
         25    2    1    2    0    0  0.00000000000E+00  0.00000000000E+00  0.36315920242E+03  0.38406847201E+03  0.12499593948E+03 0.  0.
    9000005    1    3    3    0    0 -0.48421810515E+02 -0.45938720781E+01  0.30212849185E+03  0.30602026238E+03  0.10000000000E+01 0.  0.
    9000005    1    3    3    0    0  0.48421810515E+02  0.45938720781E+01  0.61030710569E+02  0.78048209632E+02  0.10000000000E+01 0.  0.
<mgrwt>
<rscale>  0 0.12499594E+03</rscale>
<asrwt>0</asrwt>
<pdfrwt beam="2">  1        4 0.16084052E-02 0.12499594E+03</pdfrwt>
<pdfrwt beam="1">  1       -4 0.57479058E-01 0.12499594E+03</pdfrwt>
<totfact> 0.66138264E+03</totfact>
</mgrwt>
</event>
<event>
 5    1  0.3271306E-002  0.1249996E+03  0.7818608E-02  0.1235070E+00
         -4   -1    0    0    0  501 -0.00000000000E+00  0.00000000000E+00  0.18017631934E+02  0.18062335411E+02  0.12700000000E+01 0.  1.
          4   -1    0    0  501    0  0.00000000000E+00 -0.00000000000E+00 -0.21648485479E+03  0.21648857996E+03  0.12700000000E+01 0.  1.
         25    2    1    2    0    0  0.00000000000E+00  0.00000000000E+00 -0.19846722286E+03  0.23455091537E+03  0.12499957341E+03 0.  0.
    9000005    1    3    3    0    0 -0.13598869471E+02  0.59155247628E+02 -0.71341823360E+02  0.93674587446E+02  0.10000000000E+01 0.  0.
    9000005    1    3    3    0    0  0.13598869471E+02 -0.59155247628E+02 -0.12712539950E+03  0.14087632793E+03  0.10000000000E+01 0.  0.
<mgrwt>
<rscale>  0 0.12499957E+03</rscale>
<asrwt>0</asrwt>
<pdfrwt beam="2">  1        4 0.33309086E-01 0.12499957E+03</pdfrwt>
<pdfrwt beam="1">  1       -4 0.27756688E-02 0.12499957E+03</pdfrwt>
<totfact> 0.84616469E+03</totfact>
</mgrwt>
</event>
<event>
 5    1  0.3271306E-002  0.1249989E+03  0.7818608E-02  0.1235071E+00
         -4   -1    0    0    0  501 -0.00000000000E+00  0.00000000000E+00  0.43412830501E+01  0.45232331933E+01  0.12700000000E+01 0.  1.
          4   -1    0    0  501    0  0.00000000000E+00 -0.00000000000E+00 -0.88112516840E+03  0.88112608364E+03  0.12700000000E+01 0.  1.
         25    2    1    2    0    0  0.00000000000E+00  0.00000000000E+00 -0.87678388535E+03  0.88564931684E+03  0.12499892326E+03 0.  0.
    9000005    1    3    3    0    0  0.55305605356E+02  0.10364467987E+01 -0.64440097205E+03  0.64677151838E+03  0.10000000000E+01 0.  0.
    9000005    1    3    3    0    0 -0.55305605356E+02 -0.10364467987E+01 -0.23238291329E+03  0.23887779846E+03  0.10000000000E+01 0.  0.
<mgrwt>
<rscale>  0 0.12499892E+03</rscale>
<asrwt>0</asrwt>
<pdfrwt beam="2">  1        4 0.13557165E+00 0.12499892E+03</pdfrwt>
<pdfrwt beam="1">  1       -4 0.68195697E-03 0.12499892E+03</pdfrwt>
<totfact> 0.34712070E+03</totfact>
</mgrwt>
</event>
<event>
 5    1  0.3271306E-002  0.1249833E+03  0.7818608E-02  0.1235095E+00
          4   -1    0    0  501    0  0.00000000000E+00  0.00000000000E+00  0.39458659469E+02  0.39479092025E+02  0.12700000000E+01 0.  1.
         -4   -1    0    0    0  501 -0.00000000000E+00 -0.00000000000E+00 -0.98919393513E+02  0.98927545774E+02  0.12700000000E+01 0.  1.
         25    2    1    2    0    0  0.00000000000E+00  0.00000000000E+00 -0.59460734043E+02  0.13840663780E+03  0.12498327286E+03 0.  0.
    9000005    1    3    3    0    0  0.25502709221E+02  0.33769588460E+02 -0.80639898179E+02  0.91074510488E+02  0.10000000000E+01 0.  0.
    9000005    1    3    3    0    0 -0.25502709221E+02 -0.33769588460E+02  0.21179164135E+02  0.47332127312E+02  0.10000000000E+01 0.  0.
<mgrwt>
<rscale>  0 0.12498327E+03</rscale>
<asrwt>0</asrwt>
<pdfrwt beam="1">  1        4 0.60727619E-02 0.12498327E+03</pdfrwt>
<pdfrwt beam="2">  1       -4 0.15220567E-01 0.12498327E+03</pdfrwt>
<totfact> 0.10170549E+04</totfact>
</mgrwt>
</event>
<event>
 4    1  0.3271306E-002  0.1250907E+03  0.7818608E-02  0.1234928E+00
          4   -1    0    0  501    0  0.00000000000E+00  0.00000000000E+00  0.12573257001E+03  0.12573898386E+03  0.12700000000E+01 0.  1.
         -4   -1    0    0    0  501 -0.00000000000E+00 -0.00000000000E+00 -0.31092854290E+02  0.31118780309E+02  0.12700000000E+01 0.  1.
    9000005    1    1    2    0    0 -0.46631648535E+02 -0.39131793124E+02  0.29361058243E+02  0.67593487995E+02  0.10000000000E+01 0.  0.
    9000005    1    1    2    0    0  0.46631648535E+02  0.39131793124E+02  0.65278657476E+02  0.89264276170E+02  0.10000000000E+01 0.  0.
<mgrwt>
<rscale>  0 0.12509070E+03</rscale>
<asrwt>0</asrwt>
<pdfrwt beam="1">  1        4 0.19345960E-01 0.12509070E+03</pdfrwt>
<pdfrwt beam="2">  1       -4 0.47860037E-02 0.12509070E+03</pdfrwt>
<totfact> 0.97752537E+03</totfact>
</mgrwt>
</event>
<event>
 5    1  0.3271306E-002  0.1250016E+03  0.7818608E-02  0.1235067E+00
         -4   -1    0    0    0  501 -0.00000000000E+00  0.00000000000E+00  0.51393823271E+02  0.51409512451E+02  0.12700000000E+01 0.  1.
          4   -1    0    0  501    0  0.00000000000E+00 -0.00000000000E+00 -0.75975529483E+02  0.75986143344E+02  0.12700000000E+01 0.  1.
         25    2    1    2    0    0  0.00000000000E+00  0.00000000000E+00 -0.24581706212E+02  0.12739565579E+03  0.12500157133E+03 0.  0.
    9000005    1    3    3    0    0  0.24340250032E+02  0.21463344857E+02 -0.66719941135E+02  0.74200225667E+02  0.10000000000E+01 0.  0.
    9000005    1    3    3    0    0 -0.24340250032E+02 -0.21463344857E+02  0.42138234922E+02  0.53195430128E+02  0.10000000000E+01 0.  0.
<mgrwt>
<rscale>  0 0.12500157E+03</rscale>
<asrwt>0</asrwt>
<pdfrwt beam="2">  1        4 0.11690566E-01 0.12500157E+03</pdfrwt>
<pdfrwt beam="1">  1       -4 0.79087653E-02 0.12500157E+03</pdfrwt>
<totfact> 0.10400192E+04</totfact>
</mgrwt>
</event>
<event>
 5    1  0.3271306E-002  0.1249987E+03  0.7818608E-02  0.1235071E+00
         -4   -1    0    0    0  501 -0.00000000000E+00  0.00000000000E+00  0.10452652967E+03  0.10453424465E+03  0.12700000000E+01 0.  1.
          4   -1    0    0  501    0  0.00000000000E+00 -0.00000000000E+00 -0.37350257901E+02  0.37371843215E+02  0.12700000000E+01 0.  1.
         25    2    1    2    0    0  0.00000000000E+00  0.00000000000E+00  0.67176271772E+02  0.14190608787E+03  0.12499874513E+03 0.  0.
    9000005    1    3    3    0    0 -0.60224069014E+02 -0.12421422365E+02  0.46226867273E+02  0.76936034991E+02  0.10000000000E+01 0.  0.
    9000005    1    3    3    0    0  0.60224069014E+02  0.12421422365E+02  0.20949404499E+02  0.64970052879E+02  0.10000000000E+01 0.  0.
<mgrwt>
<rscale>  0 0.12499875E+03</rscale>
<asrwt>0</asrwt>
<pdfrwt beam="2">  1        4 0.57484475E-02 0.12499875E+03</pdfrwt>
<pdfrwt beam="1">  1       -4 0.16083258E-01 0.12499875E+03</pdfrwt>
<totfact> 0.10094518E+04</totfact>
</mgrwt>
</event>
<event>
 5    1  0.3271306E-002  0.1250037E+03  0.7818608E-02  0.1235064E+00
         -4   -1    0    0    0  501 -0.00000000000E+00  0.00000000000E+00  0.12262657255E+03  0.12263314884E+03  0.12700000000E+01 0.  1.
          4   -1    0    0  501    0  0.00000000000E+00 -0.00000000000E+00 -0.31836620336E+02  0.31861941159E+02  0.12700000000E+01 0.  1.
         25    2    1    2    0    0  0.00000000000E+00  0.00000000000E+00  0.90789952211E+02  0.15449509000E+03  0.12500366959E+03 0.  0.
    9000005    1    3    3    0    0 -0.27387973804E+02  0.54974234792E+02  0.31130258094E+02  0.68864799201E+02  0.10000000000E+01 0.  0.
    9000005    1    3    3    0    0  0.27387973804E+02 -0.54974234792E+02  0.59659694117E+02  0.85630290799E+02  0.10000000000E+01 0.  0.
<mgrwt>
<rscale>  0 0.12500367E+03</rscale>
<asrwt>0</asrwt>
<pdfrwt beam="2">  1        4 0.49003953E-02 0.12500367E+03</pdfrwt>
<pdfrwt beam="1">  1       -4 0.18868080E-01 0.12500367E+03</pdfrwt>
<totfact> 0.98406588E+03</totfact>
</mgrwt>
</event>
<event>
 5    1  0.3271306E-002  0.1249765E+03  0.7818608E-02  0.1235106E+00
         -4   -1    0    0    0  501 -0.00000000000E+00  0.00000000000E+00  0.88912863364E+02  0.88921933017E+02  0.12700000000E+01 0. -1.
          4   -1    0    0  501    0  0.00000000000E+00 -0.00000000000E+00 -0.43896447803E+02  0.43914815606E+02  0.12700000000E+01 0. -1.
         25    2    1    2    0    0  0.00000000000E+00  0.00000000000E+00  0.45016415561E+02  0.13283674862E+03  0.12497649425E+03 0.  0.
    9000005    1    3    3    0    0  0.29777341769E+02 -0.25720011632E+02  0.74094948042E+02  0.83900359990E+02  0.10000000000E+01 0.  0.
    9000005    1    3    3    0    0 -0.29777341769E+02  0.25720011632E+02 -0.29078532481E+02  0.48936388633E+02  0.10000000000E+01 0.  0.
<mgrwt>
<rscale>  0 0.12497649E+03</rscale>
<asrwt>0</asrwt>
<pdfrwt beam="2">  1        4 0.67554103E-02 0.12497649E+03</pdfrwt>
<pdfrwt beam="1">  1       -4 0.13681012E-01 0.12497649E+03</pdfrwt>
<totfact> 0.10289325E+04</totfact>
</mgrwt>
</event>
<event>
 5    1  0.3271306E-002  0.1249913E+03  0.7818608E-02  0.1235083E+00
          4   -1    0    0  501    0  0.00000000000E+00  0.00000000000E+00  0.29369748031E+02  0.29397193733E+02  0.12700000000E+01 0.  1.
         -4   -1    0    0    0  501 -0.00000000000E+00 -0.00000000000E+00 -0.13289132188E+03  0.13289739023E+03  0.12700000000E+01 0.  1.
         25    2    1    2    0    0  0.00000000000E+00  0.00000000000E+00 -0.10352157385E+03  0.16229458396E+03  0.12499126262E+03 0.  0.
    9000005    1    3    3    0    0 -0.21830838944E+02  0.51935246275E+02 -0.86863289589E+02  0.10353785015E+03  0.10000000000E+01 0.  0.
    9000005    1    3    3    0    0  0.21830838944E+02 -0.51935246275E+02 -0.16658284258E+02  0.58756733819E+02  0.10000000000E+01 0.  0.
<mgrwt>
<rscale>  0 0.12499126E+03</rscale>
<asrwt>0</asrwt>
<pdfrwt beam="1">  1        4 0.45210009E-02 0.12499126E+03</pdfrwt>
<pdfrwt beam="2">  1       -4 0.20447396E-01 0.12499126E+03</pdfrwt>
<totfact> 0.96921251E+03</totfact>
</mgrwt>
</event>
<event>
 5    1  0.3271306E-002  0.1249935E+03  0.7818608E-02  0.1235079E+00
          4   -1    0    0  501    0  0.00000000000E+00  0.00000000000E+00  0.58497746927E+01  0.59860474401E+01  0.12700000000E+01 0.  1.
         -4   -1    0    0    0  501 -0.00000000000E+00 -0.00000000000E+00 -0.65986742049E+03  0.65986864263E+03  0.12700000000E+01 0.  1.
         25    2    1    2    0    0  0.00000000000E+00  0.00000000000E+00 -0.65401764580E+03  0.66585469007E+03  0.12499354892E+03 0.  0.
    9000005    1    3    3    0    0 -0.60047167256E+01 -0.61829947236E+02 -0.29093840216E+03  0.29749815604E+03  0.10000000000E+01 0.  0.
    9000005    1    3    3    0    0  0.60047167256E+01  0.61829947236E+02 -0.36307924364E+03  0.36835653403E+03  0.10000000000E+01 0.  0.
<mgrwt>
<rscale>  0 0.12499355E+03</rscale>
<asrwt>0</asrwt>
<pdfrwt beam="1">  1        4 0.91054239E-03 0.12499355E+03</pdfrwt>
<pdfrwt beam="2">  1       -4 0.10152858E+00 0.12499355E+03</pdfrwt>
<totfact> 0.44957818E+03</totfact>
</mgrwt>
</event>
<event>
 4    1  0.3271306E-002  0.1251144E+03  0.7818608E-02  0.1234891E+00
         -4   -1    0    0    0  501 -0.00000000000E+00  0.00000000000E+00  0.18162502596E+01  0.22162276520E+01  0.12700000000E+01 0.  1.
          4   -1    0    0  501    0  0.00000000000E+00 -0.00000000000E+00 -0.19405424263E+04  0.19405428418E+04  0.12700000000E+01 0.  1.
    9000005    1    1    2    0    0 -0.59405961010E+02 -0.97114472036E+01 -0.70537863293E+03  0.70794307412E+03  0.10000000000E+01 0.  0.
    9000005    1    1    2    0    0  0.59405961010E+02  0.97114472036E+01 -0.12333475431E+04  0.12348159954E+04  0.10000000000E+01 0.  0.
<mgrwt>
<rscale>  0 0.12511441E+03</rscale>
<asrwt>0</asrwt>
<pdfrwt beam="2">  1        4 0.29857429E+00 0.12511441E+03</pdfrwt>
<pdfrwt beam="1">  1       -4 0.31022413E-03 0.12511441E+03</pdfrwt>
<totfact> 0.10600378E+03</totfact>
</mgrwt>
</event>
<event>
 5    1  0.3271306E-002  0.1249950E+03  0.7818608E-02  0.1235077E+00
         -4   -1    0    0    0  501 -0.00000000000E+00  0.00000000000E+00  0.97303814414E+02  0.97312102020E+02  0.12700000000E+01 0. -1.
          4   -1    0    0  501    0  0.00000000000E+00 -0.00000000000E+00 -0.40121618206E+02  0.40141713310E+02  0.12700000000E+01 0. -1.
         25    2    1    2    0    0  0.00000000000E+00  0.00000000000E+00  0.57182196208E+02  0.13745381533E+03  0.12499499104E+03 0.  0.
    9000005    1    3    3    0    0  0.28295709283E+02 -0.73601284716E+01 -0.32141593746E+02  0.43461485289E+02  0.10000000000E+01 0.  0.
    9000005    1    3    3    0    0 -0.28295709283E+02  0.73601284716E+01  0.89323789954E+02  0.93992330041E+02  0.10000000000E+01 0.  0.
<mgrwt>
<rscale>  0 0.12499499E+03</rscale>
<asrwt>0</asrwt>
<pdfrwt beam="2">  1        4 0.61747400E-02 0.12499499E+03</pdfrwt>
<pdfrwt beam="1">  1       -4 0.14972001E-01 0.12499499E+03</pdfrwt>
<totfact> 0.10187756E+04</totfact>
</mgrwt>
</event>
<event>
 5    1  0.3271306E-002  0.1250044E+03  0.7818608E-02  0.1235062E+00
         -4   -1    0    0    0  501 -0.00000000000E+00  0.00000000000E+00  0.10254606143E+02  0.10332949586E+02  0.12700000000E+01 0.  1.
          4   -1    0    0  501    0  0.00000000000E+00 -0.00000000000E+00 -0.37942438477E+03  0.37942651022E+03  0.12700000000E+01 0.  1.
         25    2    1    2    0    0  0.00000000000E+00  0.00000000000E+00 -0.36916977862E+03  0.38975945980E+03  0.12500444415E+03 0.  0.
    9000005    1    3    3    0    0 -0.31686055051E+02 -0.38786965896E+02 -0.68042514673E+02  0.84493896887E+02  0.10000000000E+01 0.  0.
    9000005    1    3    3    0    0  0.31686055051E+02  0.38786965896E+02 -0.30112726395E+03  0.30526556292E+03  0.10000000000E+01 0.  0.
<mgrwt>
<rscale>  0 0.12500444E+03</rscale>
<asrwt>0</asrwt>
<pdfrwt beam="2">  1        4 0.58379161E-01 0.12500444E+03</pdfrwt>
<pdfrwt beam="1">  1       -4 0.15838219E-02 0.12500444E+03</pdfrwt>
<totfact> 0.65554678E+03</totfact>
</mgrwt>
</event>
<event>
 5    1  0.3271306E-002  0.1249995E+03  0.7818608E-02  0.1235070E+00
         -4   -1    0    0    0  501 -0.00000000000E+00  0.00000000000E+00  0.41717028962E+02  0.41736355920E+02  0.12700000000E+01 0.  1.
          4   -1    0    0  501    0  0.00000000000E+00 -0.00000000000E+00 -0.93590751627E+02  0.93599368001E+02  0.12700000000E+01 0.  1.
         25    2    1    2    0    0  0.00000000000E+00  0.00000000000E+00 -0.51873722665E+02  0.13533572392E+03  0.12499950026E+03 0.  0.
    9000005    1    3    3    0    0 -0.52779901162E+02  0.17606316563E+02  0.48678781579E+01  0.55860510089E+02  0.10000000000E+01 0.  0.
    9000005    1    3    3    0    0  0.52779901162E+02 -0.17606316563E+02 -0.56741600823E+02  0.79475213832E+02  0.10000000000E+01 0.  0.
<mgrwt>
<rscale>  0 0.12499950E+03</rscale>
<asrwt>0</asrwt>
<pdfrwt beam="2">  1        4 0.14400727E-01 0.12499950E+03</pdfrwt>
<pdfrwt beam="1">  1       -4 0.64201540E-02 0.12499950E+03</pdfrwt>
<totfact> 0.10231115E+04</totfact>
</mgrwt>
</event>
<event>
 5    1  0.3271306E-002  0.1250010E+03  0.7818608E-02  0.1235068E+00
         -4   -1    0    0    0  501 -0.00000000000E+00  0.00000000000E+00  0.47066167460E+02  0.47083298731E+02  0.12700000000E+01 0. -1.
          4   -1    0    0  501    0  0.00000000000E+00 -0.00000000000E+00 -0.82959046538E+02  0.82968767031E+02  0.12700000000E+01 0. -1.
         25    2    1    2    0    0  0.00000000000E+00  0.00000000000E+00 -0.35892879079E+02  0.13005206576E+03  0.12500096416E+03 0.  0.
    9000005    1    3    3    0    0  0.88769233352E+01 -0.95474657175E+01  0.45640791584E+02  0.47476686130E+02  0.10000000000E+01 0.  0.
    9000005    1    3    3    0    0 -0.88769233352E+01  0.95474657175E+01 -0.81533670662E+02  0.82575379631E+02  0.10000000000E+01 0.  0.
<mgrwt>
<rscale>  0 0.12500096E+03</rscale>
<asrwt>0</asrwt>
<pdfrwt beam="2">  1        4 0.12764996E-01 0.12500096E+03</pdfrwt>
<pdfrwt beam="1">  1       -4 0.72430144E-02 0.12500096E+03</pdfrwt>
<totfact> 0.10343169E+04</totfact>
</mgrwt>
</event>
<event>
 4    1  0.3271306E-002  0.1248940E+03  0.7818608E-02  0.1235235E+00
          4   -1    0    0  501    0  0.00000000000E+00  0.00000000000E+00  0.24667486878E+02  0.24700158074E+02  0.12700000000E+01 0.  1.
         -4   -1    0    0    0  501 -0.00000000000E+00 -0.00000000000E+00 -0.15794800639E+03  0.15795311211E+03  0.12700000000E+01 0.  1.
    9000005    1    1    2    0    0  0.25811276446E+02 -0.56372547078E+02 -0.55839377164E+02  0.83445324003E+02  0.10000000000E+01 0.  0.
    9000005    1    1    2    0    0 -0.25811276446E+02  0.56372547078E+02 -0.77441142351E+02  0.99207946176E+02  0.10000000000E+01 0.  0.
<mgrwt>
<rscale>  0 0.12489404E+03</rscale>
<asrwt>0</asrwt>
<pdfrwt beam="1">  1        4 0.37979040E-02 0.12489404E+03</pdfrwt>
<pdfrwt beam="2">  1       -4 0.24302599E-01 0.12489404E+03</pdfrwt>
<totfact> 0.93363159E+03</totfact>
</mgrwt>
</event>
<event>
 5    1  0.3271306E-002  0.1249931E+03  0.7818608E-02  0.1235080E+00
          4   -1    0    0  501    0  0.00000000000E+00  0.00000000000E+00  0.50672595958E+03  0.50672755107E+03  0.12700000000E+01 0.  1.
         -4   -1    0    0    0  501 -0.00000000000E+00 -0.00000000000E+00 -0.76540267074E+01  0.77586741675E+01  0.12700000000E+01 0.  1.
         25    2    1    2    0    0  0.00000000000E+00  0.00000000000E+00  0.49907193287E+03  0.51448622524E+03  0.12499312692E+03 0.  0.
    9000005    1    3    3    0    0 -0.50683075146E+02  0.19474083770E+02  0.37685685309E+03  0.38074939497E+03  0.10000000000E+01 0.  0.
    9000005    1    3    3    0    0  0.50683075146E+02 -0.19474083770E+02  0.12221507978E+03  0.13373683027E+03  0.10000000000E+01 0.  0.
<mgrwt>
<rscale>  0 0.12499313E+03</rscale>
<asrwt>0</asrwt>
<pdfrwt beam="1">  1        4 0.77966007E-01 0.12499313E+03</pdfrwt>
<pdfrwt beam="2">  1       -4 0.11857149E-02 0.12499313E+03</pdfrwt>
<totfact> 0.54765948E+03</totfact>
</mgrwt>
</event>
<event>
 5    1  0.3271306E-002  0.1249982E+03  0.7818608E-02  0.1235072E+00
         -4   -1    0    0    0  501 -0.00000000000E+00  0.00000000000E+00  0.59884839726E+01  0.61216697305E+01  0.12700000000E+01 0. -1.
          4   -1    0    0  501    0  0.00000000000E+00 -0.00000000000E+00 -0.64496769926E+03  0.64496894964E+03  0.12700000000E+01 0. -1.
         25    2    1    2    0    0  0.00000000000E+00  0.00000000000E+00 -0.63897921529E+03  0.65109061937E+03  0.12499822820E+03 0.  0.
    9000005    1    3    3    0    0 -0.40928318845E+02  0.38016746406E+02 -0.17357452285E+03  0.18234449614E+03  0.10000000000E+01 0.  0.
    9000005    1    3    3    0    0  0.40928318845E+02 -0.38016746406E+02 -0.46540469244E+03  0.46874612323E+03  0.10000000000E+01 0.  0.
<mgrwt>
<rscale>  0 0.12499823E+03</rscale>
<asrwt>0</asrwt>
<pdfrwt beam="2">  1        4 0.99236087E-01 0.12499823E+03</pdfrwt>
<pdfrwt beam="1">  1       -4 0.93164698E-03 0.12499823E+03</pdfrwt>
<totfact> 0.45795268E+03</totfact>
</mgrwt>
</event>
<event>
 5    1  0.3271306E-002  0.1249994E+03  0.7818608E-02  0.1235070E+00
          4   -1    0    0  501    0  0.00000000000E+00  0.00000000000E+00  0.32222134176E+02  0.32247152291E+02  0.12700000000E+01 0. -1.
         -4   -1    0    0    0  501 -0.00000000000E+00 -0.00000000000E+00 -0.12115221056E+03  0.12115886688E+03  0.12700000000E+01 0. -1.
         25    2    1    2    0    0  0.00000000000E+00  0.00000000000E+00 -0.88930076379E+02  0.15340601917E+03  0.12499939293E+03 0.  0.
    9000005    1    3    3    0    0 -0.32633927211E+02 -0.31341468984E+02  0.84344712853E+01  0.46036954603E+02  0.10000000000E+01 0.  0.
    9000005    1    3    3    0    0  0.32633927211E+02  0.31341468984E+02 -0.97364547664E+02  0.10736906456E+03  0.10000000000E+01 0.  0.
<mgrwt>
<rscale>  0 0.12499939E+03</rscale>
<asrwt>0</asrwt>
<pdfrwt beam="1">  1        4 0.49596880E-02 0.12499939E+03</pdfrwt>
<pdfrwt beam="2">  1       -4 0.18641238E-01 0.12499939E+03</pdfrwt>
<totfact> 0.98630388E+03</totfact>
</mgrwt>
</event>
<event>
 5    1  0.3271306E-002  0.1250003E+03  0.7818608E-02  0.1235069E+00
         -4   -1    0    0    0  501 -0.00000000000E+00  0.00000000000E+00  0.21338636510E+02  0.21376396051E+02  0.12700000000E+01 0. -1.
          4   -1    0    0  501    0  0.00000000000E+00 -0.00000000000E+00 -0.18285915441E+03  0.18286356458E+03  0.12700000000E+01 0. -1.
         25    2    1    2    0    0  0.00000000000E+00  0.00000000000E+00 -0.16152051790E+03  0.20423996063E+03  0.12500033526E+03 0.  0.
    9000005    1    3    3    0    0 -0.13568533019E+02  0.61000804804E+02 -0.81185325187E+02  0.10245613842E+03  0.10000000000E+01 0.  0.
    9000005    1    3    3    0    0  0.13568533019E+02 -0.61000804804E+02 -0.80335192709E+02  0.10178382221E+03  0.10000000000E+01 0.  0.
<mgrwt>
<rscale>  0 0.12500034E+03</rscale>
<asrwt>0</asrwt>
<pdfrwt beam="2">  1        4 0.28135420E-01 0.12500034E+03</pdfrwt>
<pdfrwt beam="1">  1       -4 0.32861111E-02 0.12500034E+03</pdfrwt>
<totfact> 0.89424626E+03</totfact>
</mgrwt>
</event>
<event>
 5    1  0.3271306E-002  0.1249972E+03  0.7818608E-02  0.1235074E+00
         -4   -1    0    0    0  501 -0.00000000000E+00  0.00000000000E+00  0.20031266238E+02  0.20071485424E+02  0.12700000000E+01 0. -1.
          4   -1    0    0  501    0  0.00000000000E+00 -0.00000000000E+00 -0.19476092143E+03  0.19476506210E+03  0.12700000000E+01 0. -1.
         25    2    1    2    0    0  0.00000000000E+00  0.00000000000E+00 -0.17472965519E+03  0.21483654752E+03  0.12499715897E+03 0.  0.
    9000005    1    3    3    0    0 -0.17644597282E+02 -0.24127872751E+02  0.69555834304E+01  0.30706126385E+02  0.10000000000E+01 0.  0.
    9000005    1    3    3    0    0  0.17644597282E+02  0.24127872751E+02 -0.18168523862E+03  0.18413042114E+03  0.10000000000E+01 0.  0.
<mgrwt>
<rscale>  0 0.12499716E+03</rscale>
<asrwt>0</asrwt>
<pdfrwt beam="2">  1        4 0.29966630E-01 0.12499716E+03</pdfrwt>
<pdfrwt beam="1">  1       -4 0.30851457E-02 0.12499716E+03</pdfrwt>
<totfact> 0.87697619E+03</totfact>
</mgrwt>
</event>
<event>
 5    1  0.3271306E-002  0.1249966E+03  0.7818608E-02  0.1235075E+00
          4   -1    0    0  501    0  0.00000000000E+00  0.00000000000E+00  0.40067313703E+03  0.40067514976E+03  0.12700000000E+01 0. -1.
         -4   -1    0    0    0  501 -0.00000000000E+00 -0.00000000000E+00 -0.97052805770E+01  0.97880218164E+01  0.12700000000E+01 0. -1.
         25    2    1    2    0    0  0.00000000000E+00  0.00000000000E+00  0.39096785645E+03  0.41046317158E+03  0.12499660173E+03 0.  0.
    9000005    1    3    3    0    0  0.55767071937E+01 -0.47393870280E+02  0.32797025038E+03  0.33142535168E+03  0.10000000000E+01 0.  0.
    9000005    1    3    3    0    0 -0.55767071937E+01  0.47393870280E+02  0.62997606075E+02  0.79037819900E+02  0.10000000000E+01 0.  0.
<mgrwt>
<rscale>  0 0.12499660E+03</rscale>
<asrwt>0</asrwt>
<pdfrwt beam="1">  1        4 0.61648533E-01 0.12499660E+03</pdfrwt>
<pdfrwt beam="2">  1       -4 0.14996398E-02 0.12499660E+03</pdfrwt>
<totfact> 0.63552487E+03</totfact>
</mgrwt>
</event>
<event>
 5    1  0.3271306E-002  0.1250012E+03  0.7818608E-02  0.1235067E+00
         -4   -1    0    0    0  501 -0.00000000000E+00  0.00000000000E+00  0.80708785304E+02  0.80718776782E+02  0.12700000000E+01 0. -1.
          4   -1    0    0  501    0  0.00000000000E+00 -0.00000000000E+00 -0.48378903341E+02  0.48395569926E+02  0.12700000000E+01 0. -1.
         25    2    1    2    0    0  0.00000000000E+00  0.00000000000E+00  0.32329881963E+02  0.12911434671E+03  0.12500117303E+03 0.  0.
    9000005    1    3    3    0    0 -0.34942371088E+02 -0.38209562683E+02  0.52307518310E+02  0.73607176616E+02  0.10000000000E+01 0.  0.
    9000005    1    3    3    0    0  0.34942371088E+02  0.38209562683E+02 -0.19977636347E+02  0.55507170092E+02  0.10000000000E+01 0.  0.
<mgrwt>
<rscale>  0 0.12500117E+03</rscale>
<asrwt>0</asrwt>
<pdfrwt beam="2">  1        4 0.74449588E-02 0.12500117E+03</pdfrwt>
<pdfrwt beam="1">  1       -4 0.12418787E-01 0.12500117E+03</pdfrwt>
<totfact> 0.10363216E+04</totfact>
</mgrwt>
</event>
<event>
 5    1  0.3271306E-002  0.1249996E+03  0.7818608E-02  0.1235070E+00
          4   -1    0    0  501    0  0.00000000000E+00  0.00000000000E+00  0.32380756144E+02  0.32405651798E+02  0.12700000000E+01 0.  1.
         -4   -1    0    0    0  501 -0.00000000000E+00 -0.00000000000E+00 -0.12055949907E+03  0.12056618811E+03  0.12700000000E+01 0.  1.
         25    2    1    2    0    0  0.00000000000E+00  0.00000000000E+00 -0.88178742928E+02  0.15297183991E+03  0.12499957241E+03 0.  0.
    9000005    1    3    3    0    0  0.25826116925E+02 -0.38223458658E+01  0.25393090080E+02  0.36433606288E+02  0.10000000000E+01 0.  0.
    9000005    1    3    3    0    0 -0.25826116925E+02  0.38223458658E+01 -0.11357183301E+03  0.11653823362E+03  0.10000000000E+01 0.  0.
<mgrwt>
<rscale>  0 0.12499957E+03</rscale>
<asrwt>0</asrwt>
<pdfrwt beam="1">  1        4 0.49840845E-02 0.12499957E+03</pdfrwt>
<pdfrwt beam="2">  1       -4 0.18550045E-01 0.12499957E+03</pdfrwt>
<totfact> 0.98715521E+03</totfact>
</mgrwt>
</event>
<event>
 5    1  0.3271306E-002  0.1249999E+03  0.7818608E-02  0.1235069E+00
          4   -1    0    0  501    0  0.00000000000E+00  0.00000000000E+00  0.46217460394E+02  0.46234906135E+02  0.12700000000E+01 0.  1.
         -4   -1    0    0    0  501 -0.00000000000E+00 -0.00000000000E+00 -0.84480605710E+02  0.84490151149E+02  0.12700000000E+01 0.  1.
         25    2    1    2    0    0  0.00000000000E+00  0.00000000000E+00 -0.38263145316E+02  0.13072505728E+03  0.12499988925E+03 0.  0.
    9000005    1    3    3    0    0 -0.39887497631E+02 -0.47943178525E+02 -0.14990114172E+02  0.64150326244E+02  0.10000000000E+01 0.  0.
    9000005    1    3    3    0    0  0.39887497631E+02  0.47943178525E+02 -0.23273031145E+02  0.66574731040E+02  0.10000000000E+01 0.  0.
<mgrwt>
<rscale>  0 0.12499989E+03</rscale>
<asrwt>0</asrwt>
<pdfrwt beam="1">  1        4 0.71124548E-02 0.12499989E+03</pdfrwt>
<pdfrwt beam="2">  1       -4 0.12999093E-01 0.12499989E+03</pdfrwt>
<totfact> 0.10329013E+04</totfact>
</mgrwt>
</event>
<event>
 5    1  0.3271306E-002  0.1249905E+03  0.7818608E-02  0.1235084E+00
         -4   -1    0    0    0  501 -0.00000000000E+00  0.00000000000E+00  0.28056746962E+03  0.28057034396E+03  0.12700000000E+01 0.  1.
          4   -1    0    0  501    0  0.00000000000E+00 -0.00000000000E+00 -0.13888638598E+02  0.13946583169E+02  0.12700000000E+01 0.  1.
         25    2    1    2    0    0  0.00000000000E+00  0.00000000000E+00  0.26667883103E+03  0.29451692713E+03  0.12499048544E+03 0.  0.
    9000005    1    3    3    0    0 -0.10208742922E+02  0.58599645938E+02  0.88228544524E+02  0.10641152665E+03  0.10000000000E+01 0.  0.
    9000005    1    3    3    0    0  0.10208742922E+02 -0.58599645938E+02  0.17845028650E+03  0.18810540048E+03  0.10000000000E+01 0.  0.
<mgrwt>
<rscale>  0 0.12499049E+03</rscale>
<asrwt>0</asrwt>
<pdfrwt beam="2">  1        4 0.21413920E-02 0.12499049E+03</pdfrwt>
<pdfrwt beam="1">  1       -4 0.43168904E-01 0.12499049E+03</pdfrwt>
<totfact> 0.76307934E+03</totfact>
</mgrwt>
</event>
<event>
 5    1  0.3271306E-002  0.1249963E+03  0.7818608E-02  0.1235075E+00
         -4   -1    0    0    0  501 -0.00000000000E+00  0.00000000000E+00  0.17146193533E+01  0.21337337057E+01  0.12700000000E+01 0. -1.
          4   -1    0    0  501    0  0.00000000000E+00 -0.00000000000E+00 -0.20295501892E+04  0.20295505865E+04  0.12700000000E+01 0. -1.
         25    2    1    2    0    0  0.00000000000E+00  0.00000000000E+00 -0.20278355698E+04  0.20316843202E+04  0.12499631536E+03 0.  0.
    9000005    1    3    3    0    0 -0.18762822014E+02 -0.59293997227E+02 -0.11130510686E+04  0.11147876492E+04  0.10000000000E+01 0.  0.
    9000005    1    3    3    0    0  0.18762822014E+02  0.59293997227E+02 -0.91478450126E+03  0.91689667102E+03  0.10000000000E+01 0.  0.
<mgrwt>
<rscale>  0 0.12499632E+03</rscale>
<asrwt>0</asrwt>
<pdfrwt beam="2">  1        4 0.31226905E+00 0.12499632E+03</pdfrwt>
<pdfrwt beam="1">  1       -4 0.29605935E-03 0.12499632E+03</pdfrwt>
<totfact> 0.94541956E+02</totfact>
</mgrwt>
</event>
<event>
 5    1  0.3271306E-002  0.1249999E+03  0.7818608E-02  0.1235069E+00
          4   -1    0    0  501    0  0.00000000000E+00  0.00000000000E+00  0.43817021124E+03  0.43817205173E+03  0.12700000000E+01 0. -1.
         -4   -1    0    0    0  501 -0.00000000000E+00 -0.00000000000E+00 -0.88678014244E+01  0.89582812025E+01  0.12700000000E+01 0. -1.
         25    2    1    2    0    0  0.00000000000E+00  0.00000000000E+00  0.42930240981E+03  0.44713033293E+03  0.12499990222E+03 0.  0.
    9000005    1    3    3    0    0  0.29907087599E+02  0.35921516165E+02  0.66281211358E+02  0.81110962214E+02  0.10000000000E+01 0.  0.
    9000005    1    3    3    0    0 -0.29907087599E+02 -0.35921516165E+02  0.36302119845E+03  0.36601937072E+03  0.10000000000E+01 0.  0.
<mgrwt>
<rscale>  0 0.12499990E+03</rscale>
<asrwt>0</asrwt>
<pdfrwt beam="1">  1        4 0.67417874E-01 0.12499990E+03</pdfrwt>
<pdfrwt beam="2">  1       -4 0.13713793E-02 0.12499990E+03</pdfrwt>
<totfact> 0.60213346E+03</totfact>
</mgrwt>
</event>
<event>
 5    1  0.3271306E-002  0.1249967E+03  0.7818608E-02  0.1235075E+00
          4   -1    0    0  501    0  0.00000000000E+00  0.00000000000E+00  0.29413023770E+02  0.29440429129E+02  0.12700000000E+01 0.  1.
         -4   -1    0    0    0  501 -0.00000000000E+00 -0.00000000000E+00 -0.13270742715E+03  0.13271350391E+03  0.12700000000E+01 0.  1.
         25    2    1    2    0    0  0.00000000000E+00  0.00000000000E+00 -0.10329440338E+03  0.16215393304E+03  0.12499665688E+03 0.  0.
    9000005    1    3    3    0    0 -0.31256199743E+02  0.51631221118E+02 -0.72657629309E+02  0.94460913151E+02  0.10000000000E+01 0.  0.
    9000005    1    3    3    0    0  0.31256199743E+02 -0.51631221118E+02 -0.30636774070E+02  0.67693019891E+02  0.10000000000E+01 0.  0.
<mgrwt>
<rscale>  0 0.12499666E+03</rscale>
<asrwt>0</asrwt>
<pdfrwt beam="1">  1        4 0.45276562E-02 0.12499666E+03</pdfrwt>
<pdfrwt beam="2">  1       -4 0.20419103E-01 0.12499666E+03</pdfrwt>
<totfact> 0.96936406E+03</totfact>
</mgrwt>
</event>
<event>
 5    1  0.3271306E-002  0.1250031E+03  0.7818608E-02  0.1235064E+00
         -4   -1    0    0    0  501 -0.00000000000E+00  0.00000000000E+00  0.12160750190E+03  0.12161413330E+03  0.12700000000E+01 0.  1.
          4   -1    0    0  501    0  0.00000000000E+00 -0.00000000000E+00 -0.32103303966E+02  0.32128414613E+02  0.12700000000E+01 0.  1.
         25    2    1    2    0    0  0.00000000000E+00  0.00000000000E+00  0.89504197936E+02  0.15374254792E+03  0.12500307833E+03 0.  0.
    9000005    1    3    3    0    0  0.96062527993E+01 -0.51402910503E+02  0.26664679320E+01  0.52370309836E+02  0.10000000000E+01 0.  0.
    9000005    1    3    3    0    0 -0.96062527993E+01  0.51402910503E+02  0.86837730004E+02  0.10137223808E+03  0.10000000000E+01 0.  0.
<mgrwt>
<rscale>  0 0.12500308E+03</rscale>
<asrwt>0</asrwt>
<pdfrwt beam="2">  1        4 0.49414116E-02 0.12500308E+03</pdfrwt>
<pdfrwt beam="1">  1       -4 0.18711288E-01 0.12500308E+03</pdfrwt>
<totfact> 0.98556015E+03</totfact>
</mgrwt>
</event>
<event>
 5    1  0.3271306E-002  0.1249994E+03  0.7818608E-02  0.1235070E+00
         -4   -1    0    0    0  501 -0.00000000000E+00  0.00000000000E+00  0.72146166679E+01  0.73255439160E+01  0.12700000000E+01 0. -1.
          4   -1    0    0  501    0  0.00000000000E+00 -0.00000000000E+00 -0.53718819307E+03  0.53718969431E+03  0.12700000000E+01 0. -1.
         25    2    1    2    0    0  0.00000000000E+00  0.00000000000E+00 -0.52997357641E+03  0.54451523823E+03  0.12499941191E+03 0.  0.
    9000005    1    3    3    0    0 -0.26017500653E+02 -0.63138028341E+01 -0.19011708047E+02  0.32851476212E+02  0.10000000000E+01 0.  0.
    9000005    1    3    3    0    0  0.26017500653E+02  0.63138028341E+01 -0.51096186836E+03  0.51166376202E+03  0.10000000000E+01 0.  0.
<mgrwt>
<rscale>  0 0.12499941E+03</rscale>
<asrwt>0</asrwt>
<pdfrwt beam="2">  1        4 0.82652954E-01 0.12499941E+03</pdfrwt>
<pdfrwt beam="1">  1       -4 0.11185898E-02 0.12499941E+03</pdfrwt>
<totfact> 0.52569410E+03</totfact>
</mgrwt>
</event>
<event>
 5    1  0.3271306E-002  0.1250000E+03  0.7818608E-02  0.1235069E+00
         -4   -1    0    0    0  501 -0.00000000000E+00  0.00000000000E+00  0.15640670408E+02  0.15692146787E+02  0.12700000000E+01 0.  1.
          4   -1    0    0  501    0  0.00000000000E+00 -0.00000000000E+00 -0.24928628464E+03  0.24928951966E+03  0.12700000000E+01 0.  1.
         25    2    1    2    0    0  0.00000000000E+00  0.00000000000E+00 -0.23364561424E+03  0.26498166645E+03  0.12500004200E+03 0.  0.
    9000005    1    3    3    0    0 -0.55359623151E+02  0.27159205869E+02 -0.13833093316E+03  0.15145546345E+03  0.10000000000E+01 0.  0.
    9000005    1    3    3    0    0  0.55359623151E+02 -0.27159205869E+02 -0.95314681077E+02  0.11352620300E+03  0.10000000000E+01 0.  0.
<mgrwt>
<rscale>  0 0.12500004E+03</rscale>
<asrwt>0</asrwt>
<pdfrwt beam="2">  1        4 0.38355942E-01 0.12500004E+03</pdfrwt>
<pdfrwt beam="1">  1       -4 0.24104657E-02 0.12500004E+03</pdfrwt>
<totfact> 0.80211925E+03</totfact>
</mgrwt>
</event>
<event>
 5    1  0.3271306E-002  0.1249987E+03  0.7818608E-02  0.1235071E+00
         -4   -1    0    0    0  501 -0.00000000000E+00  0.00000000000E+00  0.13164733752E+03  0.13165346322E+03  0.12700000000E+01 0. -1.
          4   -1    0    0  501    0  0.00000000000E+00 -0.00000000000E+00 -0.29651031238E+02  0.29678216818E+02  0.12700000000E+01 0. -1.
         25    2    1    2    0    0  0.00000000000E+00  0.00000000000E+00  0.10199630628E+03  0.16133168003E+03  0.12499865794E+03 0.  0.
    9000005    1    3    3    0    0 -0.43710101230E+02 -0.43911064815E+02  0.61516225249E+02  0.87315522856E+02  0.10000000000E+01 0.  0.
    9000005    1    3    3    0    0  0.43710101230E+02  0.43911064815E+02  0.40480081036E+02  0.74016157178E+02  0.10000000000E+01 0.  0.
<mgrwt>
<rscale>  0 0.12499866E+03</rscale>
<asrwt>0</asrwt>
<pdfrwt beam="2">  1        4 0.45642594E-02 0.12499866E+03</pdfrwt>
<pdfrwt beam="1">  1       -4 0.20255999E-01 0.12499866E+03</pdfrwt>
<totfact> 0.97089588E+03</totfact>
</mgrwt>
</event>
<event>
 5    1  0.3271306E-002  0.1250017E+03  0.7818608E-02  0.1235067E+00
          4   -1    0    0  501    0  0.00000000000E+00  0.00000000000E+00  0.44117403328E+02  0.44135679176E+02  0.12700000000E+01 0.  1.
         -4   -1    0    0    0  501 -0.00000000000E+00 -0.00000000000E+00 -0.88503437276E+02  0.88512548882E+02  0.12700000000E+01 0.  1.
         25    2    1    2    0    0  0.00000000000E+00  0.00000000000E+00 -0.44386033948E+02  0.13264822806E+03  0.12500172958E+03 0.  0.
    9000005    1    3    3    0    0 -0.12419266800E+02  0.61242188133E+02 -0.21431998030E+02  0.66069465979E+02  0.10000000000E+01 0.  0.
    9000005    1    3    3    0    0  0.12419266800E+02 -0.61242188133E+02 -0.22954035919E+02  0.66578762080E+02  0.10000000000E+01 0.  0.
<mgrwt>
<rscale>  0 0.12500173E+03</rscale>
<asrwt>0</asrwt>
<pdfrwt beam="1">  1        4 0.67893996E-02 0.12500173E+03</pdfrwt>
<pdfrwt beam="2">  1       -4 0.13618020E-01 0.12500173E+03</pdfrwt>
<totfact> 0.10287480E+04</totfact>
</mgrwt>
</event>
<event>
 5    1  0.3271306E-002  0.1249935E+03  0.7818608E-02  0.1235079E+00
         -4   -1    0    0    0  501 -0.00000000000E+00  0.00000000000E+00  0.11847769810E+03  0.11848450467E+03  0.12700000000E+01 0. -1.
          4   -1    0    0  501    0  0.00000000000E+00 -0.00000000000E+00 -0.32946934895E+02  0.32971403048E+02  0.12700000000E+01 0. -1.
         25    2    1    2    0    0  0.00000000000E+00  0.00000000000E+00  0.85530763202E+02  0.15145590772E+03  0.12499352194E+03 0.  0.
    9000005    1    3    3    0    0  0.49436231560E+02 -0.35463469956E+02  0.60040068570E+02  0.85483381578E+02  0.10000000000E+01 0.  0.
    9000005    1    3    3    0    0 -0.49436231560E+02  0.35463469956E+02  0.25490694632E+02  0.65972526137E+02  0.10000000000E+01 0.  0.
<mgrwt>
<rscale>  0 0.12499352E+03</rscale>
<asrwt>0</asrwt>
<pdfrwt beam="2">  1        4 0.50711650E-02 0.12499352E+03</pdfrwt>
<pdfrwt beam="1">  1       -4 0.18229744E-01 0.12499352E+03</pdfrwt>
<totfact> 0.99028708E+03</totfact>
</mgrwt>
</event>
<event>
 5    1  0.3271306E-002  0.1250030E+03  0.7818608E-02  0.1235065E+00
          4   -1    0    0  501    0  0.00000000000E+00  0.00000000000E+00  0.18442216501E+03  0.18442653780E+03  0.12700000000E+01 0. -1.
         -4   -1    0    0    0  501 -0.00000000000E+00 -0.00000000000E+00 -0.21158386014E+02  0.21196466657E+02  0.12700000000E+01 0. -1.
         25    2    1    2    0    0  0.00000000000E+00  0.00000000000E+00  0.16326377899E+03  0.20562300446E+03  0.12500303369E+03 0.  0.
    9000005    1    3    3    0    0 -0.17335882812E+02  0.53050813083E+02  0.35382390676E+02  0.66089599572E+02  0.10000000000E+01 0.  0.
    9000005    1    3    3    0    0  0.17335882812E+02 -0.53050813083E+02  0.12788138832E+03  0.13953340489E+03  0.10000000000E+01 0.  0.
<mgrwt>
<rscale>  0 0.12500303E+03</rscale>
<asrwt>0</asrwt>
<pdfrwt beam="1">  1        4 0.28375907E-01 0.12500303E+03</pdfrwt>
<pdfrwt beam="2">  1       -4 0.32584019E-02 0.12500303E+03</pdfrwt>
<totfact> 0.89189675E+03</totfact>
</mgrwt>
</event>
<event>
 5    1  0.3271306E-002  0.1249900E+03  0.7818608E-02  0.1235085E+00
          4   -1    0    0  501    0  0.00000000000E+00  0.00000000000E+00  0.34341887869E+02  0.34365362830E+02  0.12700000000E+01 0. -1.
         -4   -1    0    0    0  501 -0.00000000000E+00 -0.00000000000E+00 -0.11366189500E+03  0.11366898995E+03  0.12700000000E+01 0. -1.
         25    2    1    2    0    0  0.00000000000E+00  0.00000000000E+00 -0.79320007135E+02  0.14803435278E+03  0.12499002388E+03 0.  0.
    9000005    1    3    3    0    0  0.58417302657E+02  0.21741251362E+02 -0.44871667041E+02  0.76809698369E+02  0.10000000000E+01 0.  0.
    9000005    1    3    3    0    0 -0.58417302657E+02 -0.21741251362E+02 -0.34448340094E+02  0.71224654410E+02  0.10000000000E+01 0.  0.
<mgrwt>
<rscale>  0 0.12499002E+03</rscale>
<asrwt>0</asrwt>
<pdfrwt beam="1">  1        4 0.52857190E-02 0.12499002E+03</pdfrwt>
<pdfrwt beam="2">  1       -4 0.17488797E-01 0.12499002E+03</pdfrwt>
<totfact> 0.99719365E+03</totfact>
</mgrwt>
</event>
<event>
 5    1  0.3271306E-002  0.1250019E+03  0.7818608E-02  0.1235066E+00
          4   -1    0    0  501    0  0.00000000000E+00  0.00000000000E+00  0.64910053271E+02  0.64922476198E+02  0.12700000000E+01 0.  1.
         -4   -1    0    0    0  501 -0.00000000000E+00 -0.00000000000E+00 -0.60156328057E+02  0.60169732469E+02  0.12700000000E+01 0.  1.
         25    2    1    2    0    0  0.00000000000E+00  0.00000000000E+00  0.47537252139E+01  0.12509220867E+03  0.12500185105E+03 0.  0.
    9000005    1    3    3    0    0 -0.40607781136E+02  0.43145010144E+02  0.22262862445E+02  0.63301807505E+02  0.10000000000E+01 0.  0.
    9000005    1    3    3    0    0  0.40607781136E+02 -0.43145010144E+02 -0.17509137231E+02  0.61790401162E+02  0.10000000000E+01 0.  0.
<mgrwt>
<rscale>  0 0.12500185E+03</rscale>
<asrwt>0</asrwt>
<pdfrwt beam="1">  1        4 0.99881488E-02 0.12500185E+03</pdfrwt>
<pdfrwt beam="2">  1       -4 0.92568064E-02 0.12500185E+03</pdfrwt>
<totfact> 0.10450423E+04</totfact>
</mgrwt>
</event>
<event>
 5    1  0.3271306E-002  0.1249938E+03  0.7818608E-02  0.1235079E+00
         -4   -1    0    0    0  501 -0.00000000000E+00  0.00000000000E+00  0.32809571998E+03  0.32809817794E+03  0.12700000000E+01 0.  1.
          4   -1    0    0  501    0  0.00000000000E+00 -0.00000000000E+00 -0.11868256589E+02  0.11936013341E+02  0.12700000000E+01 0.  1.
         25    2    1    2    0    0  0.00000000000E+00  0.00000000000E+00  0.31622746339E+03  0.34003419128E+03  0.12499377040E+03 0.  0.
    9000005    1    3    3    0    0 -0.15404892762E+02  0.32683823828E+02  0.19417745292E+02  0.41031596280E+02  0.10000000000E+01 0.  0.
    9000005    1    3    3    0    0  0.15404892762E+02 -0.32683823828E+02  0.29680971809E+03  0.29900259500E+03  0.10000000000E+01 0.  0.
<mgrwt>
<rscale>  0 0.12499377E+03</rscale>
<asrwt>0</asrwt>
<pdfrwt beam="2">  1        4 0.18312864E-02 0.12499377E+03</pdfrwt>
<pdfrwt beam="1">  1       -4 0.50481676E-01 0.12499377E+03</pdfrwt>
<totfact> 0.70844775E+03</totfact>
</mgrwt>
</event>
<event>
 5    1  0.3271306E-002  0.1249958E+03  0.7818608E-02  0.1235076E+00
         -4   -1    0    0    0  501 -0.00000000000E+00  0.00000000000E+00  0.50055729207E+02  0.50071837658E+02  0.12700000000E+01 0.  1.
          4   -1    0    0  501    0  0.00000000000E+00 -0.00000000000E+00 -0.77998897477E+02  0.78009236040E+02  0.12700000000E+01 0.  1.
         25    2    1    2    0    0  0.00000000000E+00  0.00000000000E+00 -0.27943168269E+02  0.12808107370E+03  0.12499576308E+03 0.  0.
    9000005    1    3    3    0    0  0.52728643758E+02 -0.13518783296E+02  0.17476643514E+02  0.57179545669E+02  0.10000000000E+01 0.  0.
    9000005    1    3    3    0    0 -0.52728643758E+02  0.13518783296E+02 -0.45419811784E+02  0.70901528029E+02  0.10000000000E+01 0.  0.
<mgrwt>
<rscale>  0 0.12499576E+03</rscale>
<asrwt>0</asrwt>
<pdfrwt beam="2">  1        4 0.12001865E-01 0.12499576E+03</pdfrwt>
<pdfrwt beam="1">  1       -4 0.77029158E-02 0.12499576E+03</pdfrwt>
<totfact> 0.10386730E+04</totfact>
</mgrwt>
</event>
<event>
 5    1  0.3271306E-002  0.1249994E+03  0.7818608E-02  0.1235070E+00
          4   -1    0    0  501    0  0.00000000000E+00  0.00000000000E+00  0.11618133048E+03  0.11618827158E+03  0.12700000000E+01 0.  1.
         -4   -1    0    0    0  501 -0.00000000000E+00 -0.00000000000E+00 -0.33601735629E+02  0.33625727312E+02  0.12700000000E+01 0.  1.
         25    2    1    2    0    0  0.00000000000E+00  0.00000000000E+00  0.82579594854E+02  0.14981399889E+03  0.12499937911E+03 0.  0.
    9000005    1    3    3    0    0 -0.46546504826E+02  0.35878873083E+02  0.66752043870E+02  0.88942149772E+02  0.10000000000E+01 0.  0.
    9000005    1    3    3    0    0  0.46546504826E+02 -0.35878873083E+02  0.15827550985E+02  0.60871849121E+02  0.10000000000E+01 0.  0.
<mgrwt>
<rscale>  0 0.12499938E+03</rscale>
<asrwt>0</asrwt>
<pdfrwt beam="1">  1        4 0.17876430E-01 0.12499938E+03</pdfrwt>
<pdfrwt beam="2">  1       -4 0.51718773E-02 0.12499938E+03</pdfrwt>
<totfact> 0.99342176E+03</totfact>
</mgrwt>
</event>
<event>
 5    1  0.3271306E-002  0.1249989E+03  0.7818608E-02  0.1235071E+00
          4   -1    0    0  501    0  0.00000000000E+00  0.00000000000E+00  0.40729117710E+02  0.40748913230E+02  0.12700000000E+01 0. -1.
         -4   -1    0    0    0  501 -0.00000000000E+00 -0.00000000000E+00 -0.95858982815E+02  0.95867395325E+02  0.12700000000E+01 0. -1.
         25    2    1    2    0    0  0.00000000000E+00  0.00000000000E+00 -0.55129865105E+02  0.13661630855E+03  0.12499885494E+03 0.  0.
    9000005    1    3    3    0    0 -0.36382039215E+02  0.35059633577E+02  0.12627167891E+02  0.52089116454E+02  0.10000000000E+01 0.  0.
    9000005    1    3    3    0    0  0.36382039215E+02 -0.35059633577E+02 -0.67757032996E+02  0.84527192101E+02  0.10000000000E+01 0.  0.
<mgrwt>
<rscale>  0 0.12499885E+03</rscale>
<asrwt>0</asrwt>
<pdfrwt beam="1">  1        4 0.62681880E-02 0.12499885E+03</pdfrwt>
<pdfrwt beam="2">  1       -4 0.14749706E-01 0.12499885E+03</pdfrwt>
<totfact> 0.10204378E+04</totfact>
</mgrwt>
</event>
<event>
 5    1  0.3271306E-002  0.1250008E+03  0.7818608E-02  0.1235068E+00
          4   -1    0    0  501    0  0.00000000000E+00  0.00000000000E+00  0.14672097492E+04  0.14672102988E+04  0.12700000000E+01 0.  1.
         -4   -1    0    0    0  501 -0.00000000000E+00 -0.00000000000E+00 -0.25103693451E+01  0.28133350758E+01  0.12700000000E+01 0.  1.
         25    2    1    2    0    0  0.00000000000E+00  0.00000000000E+00  0.14646993798E+04  0.14700236339E+04  0.12500084379E+03 0.  0.
    9000005    1    3    3    0    0  0.55775586252E+02  0.27503185770E+02  0.65989224985E+03  0.66281680928E+03  0.10000000000E+01 0.  0.
    9000005    1    3    3    0    0 -0.55775586252E+02 -0.27503185770E+02  0.80480712998E+03  0.80720682462E+03  0.10000000000E+01 0.  0.
<mgrwt>
<rscale>  0 0.12500084E+03</rscale>
<asrwt>0</asrwt>
<pdfrwt beam="1">  1        4 0.22574848E+00 0.12500084E+03</pdfrwt>
<pdfrwt beam="2">  1       -4 0.40955700E-03 0.12500084E+03</pdfrwt>
<totfact> 0.18525898E+03</totfact>
</mgrwt>
</event>
<event>
 5    1  0.3271306E-002  0.1250025E+03  0.7818608E-02  0.1235065E+00
         -4   -1    0    0    0  501 -0.00000000000E+00  0.00000000000E+00  0.41136215524E+02  0.41155815234E+02  0.12700000000E+01 0.  1.
          4   -1    0    0  501    0  0.00000000000E+00 -0.00000000000E+00 -0.94916268542E+02  0.94924764598E+02  0.12700000000E+01 0.  1.
         25    2    1    2    0    0  0.00000000000E+00  0.00000000000E+00 -0.53780053019E+02  0.13608057983E+03  0.12500252039E+03 0.  0.
    9000005    1    3    3    0    0 -0.45897317947E+02  0.30304055904E+02  0.54130597113E+01  0.55273870992E+02  0.10000000000E+01 0.  0.
    9000005    1    3    3    0    0  0.45897317947E+02 -0.30304055904E+02 -0.59193112730E+02  0.80806708841E+02  0.10000000000E+01 0.  0.
<mgrwt>
<rscale>  0 0.12500252E+03</rscale>
<asrwt>0</asrwt>
<pdfrwt beam="2">  1        4 0.14604664E-01 0.12500252E+03</pdfrwt>
<pdfrwt beam="1">  1       -4 0.63308098E-02 0.12500252E+03</pdfrwt>
<totfact> 0.10214764E+04</totfact>
</mgrwt>
</event>
<event>
 5    1  0.3271306E-002  0.1249985E+03  0.7818608E-02  0.1235072E+00
          4   -1    0    0  501    0  0.00000000000E+00  0.00000000000E+00  0.43594170579E+03  0.43594355569E+03  0.12700000000E+01 0. -1.
         -4   -1    0    0    0  501 -0.00000000000E+00 -0.00000000000E+00 -0.89133988950E+01  0.90034204535E+01  0.12700000000E+01 0. -1.
         25    2    1    2    0    0  0.00000000000E+00  0.00000000000E+00  0.42702830690E+03  0.44494697614E+03  0.12499854675E+03 0.  0.
    9000005    1    3    3    0    0 -0.20414497958E+01  0.16636948634E+01  0.43576154818E+03  0.43577065329E+03  0.10000000000E+01 0.  0.
    9000005    1    3    3    0    0  0.20414497958E+01 -0.16636948634E+01 -0.87332412812E+01  0.91763228552E+01  0.10000000000E+01 0.  0.
<mgrwt>
<rscale>  0 0.12499855E+03</rscale>
<asrwt>0</asrwt>
<pdfrwt beam="1">  1        4 0.67075018E-01 0.12499855E+03</pdfrwt>
<pdfrwt beam="2">  1       -4 0.13783593E-02 0.12499855E+03</pdfrwt>
<totfact> 0.60405986E+03</totfact>
</mgrwt>
</event>
<event>
 5    1  0.3271306E-002  0.1250034E+03  0.7818608E-02  0.1235064E+00
          4   -1    0    0  501    0  0.00000000000E+00  0.00000000000E+00  0.54148354499E+02  0.54163245794E+02  0.12700000000E+01 0. -1.
         -4   -1    0    0    0  501 -0.00000000000E+00 -0.00000000000E+00 -0.72113351366E+02  0.72124533587E+02  0.12700000000E+01 0. -1.
         25    2    1    2    0    0  0.00000000000E+00  0.00000000000E+00 -0.17964996867E+02  0.12628777938E+03  0.12500344839E+03 0.  0.
    9000005    1    3    3    0    0 -0.26707033818E+02 -0.19058425474E+02  0.44752097419E+02  0.55499905048E+02  0.10000000000E+01 0.  0.
    9000005    1    3    3    0    0  0.26707033818E+02  0.19058425474E+02 -0.62717094286E+02  0.70787874333E+02  0.10000000000E+01 0.  0.
<mgrwt>
<rscale>  0 0.12500345E+03</rscale>
<asrwt>0</asrwt>
<pdfrwt beam="1">  1        4 0.83325217E-02 0.12500345E+03</pdfrwt>
<pdfrwt beam="2">  1       -4 0.11096367E-01 0.12500345E+03</pdfrwt>
<totfact> 0.10423849E+04</totfact>
</mgrwt>
</event>
<event>
 5    1  0.3271306E-002  0.1250281E+03  0.7818608E-02  0.1235025E+00
         -4   -1    0    0    0  501 -0.00000000000E+00  0.00000000000E+00  0.17971513236E+03  0.17971961968E+03  0.12700000000E+01 0. -1.
          4   -1    0    0  501    0  0.00000000000E+00 -0.00000000000E+00 -0.21722239988E+02  0.21759333861E+02  0.12700000000E+01 0. -1.
         25    2    1    2    0    0  0.00000000000E+00  0.00000000000E+00  0.15799289237E+03  0.20147895354E+03  0.12502805558E+03 0.  0.
    9000005    1    3    3    0    0  0.16133733083E+02  0.12419695909E+00 -0.18316738635E+02  0.24429811344E+02  0.10000000000E+01 0.  0.
    9000005    1    3    3    0    0 -0.16133733083E+02 -0.12419695909E+00  0.17630963100E+03  0.17704914220E+03  0.10000000000E+01 0.  0.
<mgrwt>
<rscale>  0 0.12502806E+03</rscale>
<asrwt>0</asrwt>
<pdfrwt beam="2">  1        4 0.33450818E-02 0.12502806E+03</pdfrwt>
<pdfrwt beam="1">  1       -4 0.27651679E-01 0.12502806E+03</pdfrwt>
<totfact> 0.89830267E+03</totfact>
</mgrwt>
</event>
<event>
 5    1  0.3271306E-002  0.1250009E+03  0.7818608E-02  0.1235068E+00
         -4   -1    0    0    0  501 -0.00000000000E+00  0.00000000000E+00  0.26573580048E+03  0.26573883525E+03  0.12700000000E+01 0. -1.
          4   -1    0    0  501    0  0.00000000000E+00 -0.00000000000E+00 -0.14669405792E+02  0.14724278124E+02  0.12700000000E+01 0. -1.
         25    2    1    2    0    0  0.00000000000E+00  0.00000000000E+00  0.25106639469E+03  0.28046311337E+03  0.12500089367E+03 0.  0.
    9000005    1    3    3    0    0  0.47361058250E+02  0.12948328172E+02  0.21227366376E+03  0.21788032808E+03  0.10000000000E+01 0.  0.
    9000005    1    3    3    0    0 -0.47361058250E+02 -0.12948328172E+02  0.38792730934E+02  0.62582785287E+02  0.10000000000E+01 0.  0.
<mgrwt>
<rscale>  0 0.12500089E+03</rscale>
<asrwt>0</asrwt>
<pdfrwt beam="2">  1        4 0.22612862E-02 0.12500089E+03</pdfrwt>
<pdfrwt beam="1">  1       -4 0.40886883E-01 0.12500089E+03</pdfrwt>
<totfact> 0.78115189E+03</totfact>
</mgrwt>
</event>
<event>
 5    1  0.3271306E-002  0.1250017E+03  0.7818608E-02  0.1235067E+00
          4   -1    0    0  501    0  0.00000000000E+00  0.00000000000E+00  0.56711645416E+03  0.56711787618E+03  0.12700000000E+01 0.  1.
         -4   -1    0    0    0  501 -0.00000000000E+00 -0.00000000000E+00 -0.68281151081E+01  0.69452182061E+01  0.12700000000E+01 0.  1.
         25    2    1    2    0    0  0.00000000000E+00  0.00000000000E+00  0.56028833905E+03  0.57406309438E+03  0.12500165381E+03 0.  0.
    9000005    1    3    3    0    0  0.52041573336E+02 -0.47788547264E+01  0.12277735265E+03  0.13344077762E+03  0.10000000000E+01 0.  0.
    9000005    1    3    3    0    0 -0.52041573336E+02  0.47788547264E+01  0.43751098641E+03  0.44062231677E+03  0.10000000000E+01 0.  0.
<mgrwt>
<rscale>  0 0.12500165E+03</rscale>
<asrwt>0</asrwt>
<pdfrwt beam="1">  1        4 0.87257776E-01 0.12500165E+03</pdfrwt>
<pdfrwt beam="2">  1       -4 0.10595969E-02 0.12500165E+03</pdfrwt>
<totfact> 0.50545025E+03</totfact>
</mgrwt>
</event>
<event>
 5    1  0.3271306E-002  0.1249978E+03  0.7818608E-02  0.1235073E+00
          4   -1    0    0  501    0  0.00000000000E+00  0.00000000000E+00  0.43198345781E+02  0.43217010288E+02  0.12700000000E+01 0. -1.
         -4   -1    0    0    0  501 -0.00000000000E+00 -0.00000000000E+00 -0.90380133840E+02  0.90389056267E+02  0.12700000000E+01 0. -1.
         25    2    1    2    0    0  0.00000000000E+00  0.00000000000E+00 -0.47181788059E+02  0.13360606655E+03  0.12499783956E+03 0.  0.
    9000005    1    3    3    0    0  0.57318229989E+02 -0.23826274556E+02 -0.31301873198E+02  0.69526096640E+02  0.10000000000E+01 0.  0.
    9000005    1    3    3    0    0 -0.57318229989E+02  0.23826274556E+02 -0.15879914861E+02  0.64079969915E+02  0.10000000000E+01 0.  0.
<mgrwt>
<rscale>  0 0.12499784E+03</rscale>
<asrwt>0</asrwt>
<pdfrwt beam="1">  1        4 0.66480215E-02 0.12499784E+03</pdfrwt>
<pdfrwt beam="2">  1       -4 0.13906758E-01 0.12499784E+03</pdfrwt>
<totfact> 0.10268036E+04</totfact>
</mgrwt>
</event>
<event>
 5    1  0.3271306E-002  0.1249999E+03  0.7818608E-02  0.1235069E+00
         -4   -1    0    0    0  501 -0.00000000000E+00  0.00000000000E+00  0.20655070563E+03  0.20655460996E+03  0.12700000000E+01 0.  1.
          4   -1    0    0  501    0  0.00000000000E+00 -0.00000000000E+00 -0.18886371366E+02  0.18929023308E+02  0.12700000000E+01 0.  1.
         25    2    1    2    0    0  0.00000000000E+00  0.00000000000E+00  0.18766433426E+03  0.22548363327E+03  0.12499986607E+03 0.  0.
    9000005    1    3    3    0    0 -0.43981917772E+02  0.23174955828E+02  0.25528693329E+02  0.55894560126E+02  0.10000000000E+01 0.  0.
    9000005    1    3    3    0    0  0.43981917772E+02 -0.23174955828E+02  0.16213564093E+03  0.16958907314E+03  0.10000000000E+01 0.  0.
<mgrwt>
<rscale>  0 0.12499987E+03</rscale>
<asrwt>0</asrwt>
<pdfrwt beam="2">  1        4 0.29091768E-02 0.12499987E+03</pdfrwt>
<pdfrwt beam="1">  1       -4 0.31780614E-01 0.12499987E+03</pdfrwt>
<totfact> 0.86008204E+03</totfact>
</mgrwt>
</event>
<event>
 5    1  0.3271306E-002  0.1250020E+03  0.7818608E-02  0.1235066E+00
          4   -1    0    0  501    0  0.00000000000E+00  0.00000000000E+00  0.13342790743E+02  0.13403095344E+02  0.12700000000E+01 0.  1.
         -4   -1    0    0    0  501 -0.00000000000E+00 -0.00000000000E+00 -0.29204848772E+03  0.29205124906E+03  0.12700000000E+01 0.  1.
         25    2    1    2    0    0  0.00000000000E+00  0.00000000000E+00 -0.27870569697E+03  0.30545434440E+03  0.12500196394E+03 0.  0.
    9000005    1    3    3    0    0 -0.32898162154E+02 -0.52533132248E+02 -0.15880266145E+03  0.17047376437E+03  0.10000000000E+01 0.  0.
    9000005    1    3    3    0    0  0.32898162154E+02  0.52533132248E+02 -0.11990303553E+03  0.13498058003E+03  0.10000000000E+01 0.  0.
<mgrwt>
<rscale>  0 0.12500196E+03</rscale>
<asrwt>0</asrwt>
<pdfrwt beam="1">  1        4 0.20575885E-02 0.12500196E+03</pdfrwt>
<pdfrwt beam="2">  1       -4 0.44935383E-01 0.12500196E+03</pdfrwt>
<totfact> 0.74916447E+03</totfact>
</mgrwt>
</event>
<event>
 5    1  0.3271306E-002  0.1249979E+03  0.7818608E-02  0.1235073E+00
         -4   -1    0    0    0  501 -0.00000000000E+00  0.00000000000E+00  0.32974461301E+02  0.32998909044E+02  0.12700000000E+01 0.  1.
          4   -1    0    0  501    0  0.00000000000E+00 -0.00000000000E+00 -0.11838720226E+03  0.11839401403E+03  0.12700000000E+01 0.  1.
         25    2    1    2    0    0  0.00000000000E+00  0.00000000000E+00 -0.85412740956E+02  0.15139292307E+03  0.12499792334E+03 0.  0.
    9000005    1    3    3    0    0 -0.45256473915E+02  0.38354361531E+02 -0.18913411583E+02  0.62272968593E+02  0.10000000000E+01 0.  0.
    9000005    1    3    3    0    0  0.45256473915E+02 -0.38354361531E+02 -0.66499329373E+02  0.89119954481E+02  0.10000000000E+01 0.  0.
<mgrwt>
<rscale>  0 0.12499792E+03</rscale>
<asrwt>0</asrwt>
<pdfrwt beam="2">  1        4 0.18215820E-01 0.12499792E+03</pdfrwt>
<pdfrwt beam="1">  1       -4 0.50753987E-02 0.12499792E+03</pdfrwt>
<totfact> 0.99031389E+03</totfact>
</mgrwt>
</event>
<event>
 5    1  0.3271306E-002  0.1249991E+03  0.7818608E-02  0.1235071E+00
         -4   -1    0    0    0  501 -0.00000000000E+00  0.00000000000E+00  0.36904176658E+03  0.36904395183E+03  0.12700000000E+01 0.  1.
          4   -1    0    0  501    0  0.00000000000E+00 -0.00000000000E+00 -0.10544373928E+02  0.10620580094E+02  0.12700000000E+01 0.  1.
         25    2    1    2    0    0  0.00000000000E+00  0.00000000000E+00  0.35849739265E+03  0.37966453192E+03  0.12499910504E+03 0.  0.
    9000005    1    3    3    0    0  0.19528537882E+02 -0.37846194237E+02  0.31815489547E+03  0.32099413658E+03  0.10000000000E+01 0.  0.
    9000005    1    3    3    0    0 -0.19528537882E+02  0.37846194237E+02  0.40342497182E+02  0.58670395337E+02  0.10000000000E+01 0.  0.
<mgrwt>
<rscale>  0 0.12499911E+03</rscale>
<asrwt>0</asrwt>
<pdfrwt beam="2">  1        4 0.16282417E-02 0.12499911E+03</pdfrwt>
<pdfrwt beam="1">  1       -4 0.56781677E-01 0.12499911E+03</pdfrwt>
<totfact> 0.66581142E+03</totfact>
</mgrwt>
</event>
<event>
 5    1  0.3271306E-002  0.1249974E+03  0.7818608E-02  0.1235073E+00
          4   -1    0    0  501    0  0.00000000000E+00  0.00000000000E+00  0.27076498410E+03  0.27076796250E+03  0.12700000000E+01 0.  1.
         -4   -1    0    0    0  501 -0.00000000000E+00 -0.00000000000E+00 -0.14395113504E+02  0.14451027396E+02  0.12700000000E+01 0.  1.
         25    2    1    2    0    0  0.00000000000E+00  0.00000000000E+00  0.25636987059E+03  0.28521898989E+03  0.12499744656E+03 0.  0.
    9000005    1    3    3    0    0  0.24461577372E+02 -0.57485542867E+02  0.13151824018E+03  0.14560564517E+03  0.10000000000E+01 0.  0.
    9000005    1    3    3    0    0 -0.24461577372E+02  0.57485542867E+02  0.12485163041E+03  0.13961334472E+03  0.10000000000E+01 0.  0.
<mgrwt>
<rscale>  0 0.12499745E+03</rscale>
<asrwt>0</asrwt>
<pdfrwt beam="1">  1        4 0.41660679E-01 0.12499745E+03</pdfrwt>
<pdfrwt beam="2">  1       -4 0.22191632E-02 0.12499745E+03</pdfrwt>
<totfact> 0.77495553E+03</totfact>
</mgrwt>
</event>
<event>
 5    1  0.3271306E-002  0.1250027E+03  0.7818608E-02  0.1235065E+00
          4   -1    0    0  501    0  0.00000000000E+00  0.00000000000E+00  0.24521223941E+03  0.24521552817E+03  0.12700000000E+01 0. -1.
         -4   -1    0    0    0  501 -0.00000000000E+00 -0.00000000000E+00 -0.15902062517E+02  0.15952695455E+02  0.12700000000E+01 0. -1.
         25    2    1    2    0    0  0.00000000000E+00  0.00000000000E+00  0.22931017689E+03  0.26116822363E+03  0.12500273519E+03 0.  0.
    9000005    1    3    3    0    0 -0.45042417501E+02 -0.30043446325E+02  0.17985976080E+03  0.18783493178E+03  0.10000000000E+01 0.  0.
    9000005    1    3    3    0    0  0.45042417501E+02  0.30043446325E+02  0.49450416091E+02  0.73333291846E+02  0.10000000000E+01 0.  0.
<mgrwt>
<rscale>  0 0.12500274E+03</rscale>
<asrwt>0</asrwt>
<pdfrwt beam="1">  1        4 0.37729107E-01 0.12500274E+03</pdfrwt>
<pdfrwt beam="2">  1       -4 0.24506190E-02 0.12500274E+03</pdfrwt>
<totfact> 0.80737481E+03</totfact>
</mgrwt>
</event>
<event>
 5    1  0.3271306E-002  0.1249841E+03  0.7818608E-02  0.1235094E+00
         -4   -1    0    0    0  501 -0.00000000000E+00  0.00000000000E+00  0.94629506130E+02  0.94638027930E+02  0.12700000000E+01 0.  1.
          4   -1    0    0  501    0  0.00000000000E+00 -0.00000000000E+00 -0.41248765902E+02  0.41268312159E+02  0.12700000000E+01 0.  1.
         25    2    1    2    0    0  0.00000000000E+00  0.00000000000E+00  0.53380740228E+02  0.13590634009E+03  0.12498411839E+03 0.  0.
    9000005    1    3    3    0    0 -0.49826931764E+02  0.34078431659E+02  0.91501832133E+01  0.61063806679E+02  0.10000000000E+01 0.  0.
    9000005    1    3    3    0    0  0.49826931764E+02 -0.34078431659E+02  0.44230557015E+02  0.74842533410E+02  0.10000000000E+01 0.  0.
<mgrwt>
<rscale>  0 0.12498412E+03</rscale>
<asrwt>0</asrwt>
<pdfrwt beam="2">  1        4 0.63481231E-02 0.12498412E+03</pdfrwt>
<pdfrwt beam="1">  1       -4 0.14560545E-01 0.12498412E+03</pdfrwt>
<totfact> 0.10222663E+04</totfact>
</mgrwt>
</event>
<event>
 5    1  0.3271306E-002  0.1249937E+03  0.7818608E-02  0.1235079E+00
         -4   -1    0    0    0  501 -0.00000000000E+00  0.00000000000E+00  0.32632266016E+02  0.32656969935E+02  0.12700000000E+01 0.  1.
          4   -1    0    0  501    0  0.00000000000E+00 -0.00000000000E+00 -0.11961979662E+03  0.11962653821E+03  0.12700000000E+01 0.  1.
         25    2    1    2    0    0  0.00000000000E+00  0.00000000000E+00 -0.86987530604E+02  0.15228350814E+03  0.12499374533E+03 0.  0.
    9000005    1    3    3    0    0  0.42677817306E+02  0.25291844204E+02  0.27993009461E+01  0.49698184665E+02  0.10000000000E+01 0.  0.
    9000005    1    3    3    0    0 -0.42677817306E+02 -0.25291844204E+02 -0.89786831550E+02  0.10258532348E+03  0.10000000000E+01 0.  0.
<mgrwt>
<rscale>  0 0.12499375E+03</rscale>
<asrwt>0</asrwt>
<pdfrwt beam="2">  1        4 0.18405464E-01 0.12499375E+03</pdfrwt>
<pdfrwt beam="1">  1       -4 0.50227676E-02 0.12499375E+03</pdfrwt>
<totfact> 0.98864360E+03</totfact>
</mgrwt>
</event>
<event>
 5    1  0.3271306E-002  0.1249964E+03  0.7818608E-02  0.1235075E+00
          4   -1    0    0  501    0  0.00000000000E+00  0.00000000000E+00  0.58381874761E+02  0.58395686490E+02  0.12700000000E+01 0. -1.
         -4   -1    0    0    0  501 -0.00000000000E+00 -0.00000000000E+00 -0.66876960494E+02  0.66889018119E+02  0.12700000000E+01 0. -1.
         25    2    1    2    0    0  0.00000000000E+00  0.00000000000E+00 -0.84950857328E+01  0.12528470461E+03  0.12499636286E+03 0.  0.
    9000005    1    3    3    0    0 -0.33341563653E+02  0.50822516245E+02 -0.18787372269E+02  0.63628243580E+02  0.10000000000E+01 0.  0.
    9000005    1    3    3    0    0  0.33341563653E+02 -0.50822516245E+02  0.10292286537E+02  0.61656461028E+02  0.10000000000E+01 0.  0.
<mgrwt>
<rscale>  0 0.12499636E+03</rscale>
<asrwt>0</asrwt>
<pdfrwt beam="1">  1        4 0.89838169E-02 0.12499636E+03</pdfrwt>
<pdfrwt beam="2">  1       -4 0.10290753E-01 0.12499636E+03</pdfrwt>
<totfact> 0.10447541E+04</totfact>
</mgrwt>
</event>
<event>
 5    1  0.3271306E-002  0.1249861E+03  0.7818608E-02  0.1235091E+00
          4   -1    0    0  501    0  0.00000000000E+00  0.00000000000E+00  0.75722999970E+01  0.76780614249E+01  0.12700000000E+01 0.  1.
         -4   -1    0    0    0  501 -0.00000000000E+00 -0.00000000000E+00 -0.51206219048E+03  0.51206376539E+03  0.12700000000E+01 0.  1.
         25    2    1    2    0    0  0.00000000000E+00  0.00000000000E+00 -0.50448989049E+03  0.51974182681E+03  0.12498606696E+03 0.  0.
    9000005    1    3    3    0    0 -0.25060430974E+02  0.48748381911E+02 -0.37699337477E+03  0.38095857328E+03  0.10000000000E+01 0.  0.
    9000005    1    3    3    0    0  0.25060430974E+02 -0.48748381911E+02 -0.12749651572E+03  0.13878325353E+03  0.10000000000E+01 0.  0.
<mgrwt>
<rscale>  0 0.12498607E+03</rscale>
<asrwt>0</asrwt>
<pdfrwt beam="1">  1        4 0.11732263E-02 0.12498607E+03</pdfrwt>
<pdfrwt beam="2">  1       -4 0.78787029E-01 0.12498607E+03</pdfrwt>
<totfact> 0.54381190E+03</totfact>
</mgrwt>
</event>
<event>
 5    1  0.3271306E-002  0.1250054E+03  0.7818608E-02  0.1235061E+00
          4   -1    0    0  501    0  0.00000000000E+00  0.00000000000E+00  0.12319225699E+02  0.12384515405E+02  0.12700000000E+01 0.  1.
         -4   -1    0    0    0  501 -0.00000000000E+00 -0.00000000000E+00 -0.31620843008E+03  0.31621098044E+03  0.12700000000E+01 0.  1.
         25    2    1    2    0    0  0.00000000000E+00  0.00000000000E+00 -0.30388920438E+03  0.32859549585E+03  0.12500540529E+03 0.  0.
    9000005    1    3    3    0    0  0.50210590829E+02  0.21457805883E+02 -0.72038519919E+02  0.90399608500E+02  0.10000000000E+01 0.  0.
    9000005    1    3    3    0    0 -0.50210590829E+02 -0.21457805883E+02 -0.23185068446E+03  0.23819588735E+03  0.10000000000E+01 0.  0.
<mgrwt>
<rscale>  0 0.12500541E+03</rscale>
<asrwt>0</asrwt>
<pdfrwt beam="1">  1        4 0.19004842E-02 0.12500541E+03</pdfrwt>
<pdfrwt beam="2">  1       -4 0.48652663E-01 0.12500541E+03</pdfrwt>
<totfact> 0.72136698E+03</totfact>
</mgrwt>
</event>
<event>
 5    1  0.3271306E-002  0.1250012E+03  0.7818608E-02  0.1235067E+00
          4   -1    0    0  501    0  0.00000000000E+00  0.00000000000E+00  0.41990714055E+02  0.42009915102E+02  0.12700000000E+01 0.  1.
         -4   -1    0    0    0  501 -0.00000000000E+00 -0.00000000000E+00 -0.92983517542E+02  0.92992190180E+02  0.12700000000E+01 0.  1.
         25    2    1    2    0    0  0.00000000000E+00  0.00000000000E+00 -0.50992803487E+02  0.13500210528E+03  0.12500120969E+03 0.  0.
    9000005    1    3    3    0    0  0.41018720026E+00 -0.59640436524E+02 -0.53440588715E+01  0.59889138310E+02  0.10000000000E+01 0.  0.
    9000005    1    3    3    0    0 -0.41018720026E+00  0.59640436524E+02 -0.45648744615E+02  0.75112966971E+02  0.10000000000E+01 0.  0.
<mgrwt>
<rscale>  0 0.12500121E+03</rscale>
<asrwt>0</asrwt>
<pdfrwt beam="1">  1        4 0.64622540E-02 0.12500121E+03</pdfrwt>
<pdfrwt beam="2">  1       -4 0.14307301E-01 0.12500121E+03</pdfrwt>
<totfact> 0.10237747E+04</totfact>
</mgrwt>
</event>
<event>
 5    1  0.3271306E-002  0.1250065E+03  0.7818608E-02  0.1235059E+00
         -4   -1    0    0    0  501 -0.00000000000E+00  0.00000000000E+00  0.25614898980E+04  0.25614902129E+04  0.12700000000E+01 0. -1.
          4   -1    0    0  501    0  0.00000000000E+00 -0.00000000000E+00 -0.12603954993E+01  0.17892727055E+01  0.12700000000E+01 0. -1.
         25    2    1    2    0    0  0.00000000000E+00  0.00000000000E+00  0.25602295025E+04  0.25632794856E+04  0.12500646193E+03 0.  0.
    9000005    1    3    3    0    0 -0.29641586077E+02  0.46635932989E+02  0.68154622069E+03  0.68378343414E+03  0.10000000000E+01 0.  0.
    9000005    1    3    3    0    0  0.29641586077E+02 -0.46635932989E+02  0.18786832818E+04  0.18794960514E+04  0.10000000000E+01 0.  0.
<mgrwt>
<rscale>  0 0.12500646E+03</rscale>
<asrwt>0</asrwt>
<pdfrwt beam="2">  1        4 0.23461662E-03 0.12500646E+03</pdfrwt>
<pdfrwt beam="1">  1       -4 0.39411181E+00 0.12500646E+03</pdfrwt>
<totfact> 0.41906556E+02</totfact>
</mgrwt>
</event>
<event>
 5    1  0.3271306E-002  0.1250008E+03  0.7818608E-02  0.1235068E+00
         -4   -1    0    0    0  501 -0.00000000000E+00  0.00000000000E+00  0.20917655890E+03  0.20918041422E+03  0.12700000000E+01 0. -1.
          4   -1    0    0  501    0  0.00000000000E+00 -0.00000000000E+00 -0.18649044893E+02  0.18692238373E+02  0.12700000000E+01 0. -1.
         25    2    1    2    0    0  0.00000000000E+00  0.00000000000E+00  0.19052751401E+03  0.22787265260E+03  0.12500084882E+03 0.  0.
    9000005    1    3    3    0    0  0.45325725736E+02 -0.38707096073E+02  0.61030637177E+02  0.85313535703E+02  0.10000000000E+01 0.  0.
    9000005    1    3    3    0    0 -0.45325725736E+02  0.38707096073E+02  0.12949687683E+03  0.14255911689E+03  0.10000000000E+01 0.  0.
<mgrwt>
<rscale>  0 0.12500085E+03</rscale>
<asrwt>0</asrwt>
<pdfrwt beam="2">  1        4 0.28727031E-02 0.12500085E+03</pdfrwt>
<pdfrwt beam="1">  1       -4 0.32184626E-01 0.12500085E+03</pdfrwt>
<totfact> 0.85635706E+03</totfact>
</mgrwt>
</event>
<event>
 5    1  0.3271306E-002  0.1249993E+03  0.7818608E-02  0.1235070E+00
          4   -1    0    0  501    0  0.00000000000E+00  0.00000000000E+00  0.91255210212E+01  0.92134702424E+01  0.12700000000E+01 0. -1.
         -4   -1    0    0    0  501 -0.00000000000E+00 -0.00000000000E+00 -0.42591155870E+03  0.42591345217E+03  0.12700000000E+01 0. -1.
         25    2    1    2    0    0  0.00000000000E+00  0.00000000000E+00 -0.41678603768E+03  0.43512692241E+03  0.12499934959E+03 0.  0.
    9000005    1    3    3    0    0 -0.61425628940E+01  0.38022385281E+02 -0.37085970936E+02  0.53477117552E+02  0.10000000000E+01 0.  0.
    9000005    1    3    3    0    0  0.61425628940E+01 -0.38022385281E+02 -0.37970006675E+03  0.38164980486E+03  0.10000000000E+01 0.  0.
<mgrwt>
<rscale>  0 0.12499935E+03</rscale>
<asrwt>0</asrwt>
<pdfrwt beam="1">  1        4 0.14108376E-02 0.12499935E+03</pdfrwt>
<pdfrwt beam="2">  1       -4 0.65531751E-01 0.12499935E+03</pdfrwt>
<totfact> 0.61274887E+03</totfact>
</mgrwt>
</event>
<event>
 5    1  0.3271306E-002  0.1249985E+03  0.7818608E-02  0.1235072E+00
          4   -1    0    0  501    0  0.00000000000E+00  0.00000000000E+00  0.48943861993E+02  0.48960336261E+02  0.12700000000E+01 0. -1.
         -4   -1    0    0    0  501 -0.00000000000E+00 -0.00000000000E+00 -0.79774013136E+02  0.79784121677E+02  0.12700000000E+01 0. -1.
         25    2    1    2    0    0  0.00000000000E+00  0.00000000000E+00 -0.30830151143E+02  0.12874445794E+03  0.12499854891E+03 0.  0.
    9000005    1    3    3    0    0 -0.20772473280E+02  0.16374490403E+01 -0.76095663337E+02  0.78903275371E+02  0.10000000000E+01 0.  0.
    9000005    1    3    3    0    0  0.20772473280E+02 -0.16374490403E+01  0.45265512194E+02  0.49841182568E+02  0.10000000000E+01 0.  0.
<mgrwt>
<rscale>  0 0.12499855E+03</rscale>
<asrwt>0</asrwt>
<pdfrwt beam="1">  1        4 0.75318697E-02 0.12499855E+03</pdfrwt>
<pdfrwt beam="2">  1       -4 0.12274970E-01 0.12499855E+03</pdfrwt>
<totfact> 0.10371781E+04</totfact>
</mgrwt>
</event>
<event>
 5    1  0.3271306E-002  0.1249988E+03  0.7818608E-02  0.1235071E+00
         -4   -1    0    0    0  501 -0.00000000000E+00  0.00000000000E+00  0.65785568295E+01  0.67000231312E+01  0.12700000000E+01 0.  1.
          4   -1    0    0  501    0  0.00000000000E+00 -0.00000000000E+00 -0.58822014133E+03  0.58822151233E+03  0.12700000000E+01 0.  1.
         25    2    1    2    0    0  0.00000000000E+00  0.00000000000E+00 -0.58164158450E+03  0.59492153546E+03  0.12499880213E+03 0.  0.
    9000005    1    3    3    0    0  0.46965280276E+02 -0.39269396309E+02 -0.35052296059E+03  0.35583025299E+03  0.10000000000E+01 0.  0.
    9000005    1    3    3    0    0 -0.46965280276E+02  0.39269396309E+02 -0.23111862391E+03  0.23909128248E+03  0.10000000000E+01 0.  0.
<mgrwt>
<rscale>  0 0.12499880E+03</rscale>
<asrwt>0</asrwt>
<pdfrwt beam="2">  1        4 0.90504815E-01 0.12499880E+03</pdfrwt>
<pdfrwt beam="1">  1       -4 0.10215351E-02 0.12499880E+03</pdfrwt>
<totfact> 0.49191063E+03</totfact>
</mgrwt>
</event>
<event>
 5    1  0.3271306E-002  0.1250008E+03  0.7818608E-02  0.1235068E+00
         -4   -1    0    0    0  501 -0.00000000000E+00  0.00000000000E+00  0.30456116035E+02  0.30482583617E+02  0.12700000000E+01 0.  1.
          4   -1    0    0  501    0  0.00000000000E+00 -0.00000000000E+00 -0.12817455885E+03  0.12818085051E+03  0.12700000000E+01 0.  1.
         25    2    1    2    0    0  0.00000000000E+00  0.00000000000E+00 -0.97718442819E+02  0.15866343413E+03  0.12500076504E+03 0.  0.
    9000005    1    3    3    0    0 -0.18546179924E+02  0.55448050436E+02 -0.76865931188E+02  0.96580631932E+02  0.10000000000E+01 0.  0.
    9000005    1    3    3    0    0  0.18546179924E+02 -0.55448050436E+02 -0.20852511631E+02  0.62082802194E+02  0.10000000000E+01 0.  0.
<mgrwt>
<rscale>  0 0.12500077E+03</rscale>
<asrwt>0</asrwt>
<pdfrwt beam="2">  1        4 0.19721683E-01 0.12500077E+03</pdfrwt>
<pdfrwt beam="1">  1       -4 0.46880763E-02 0.12500077E+03</pdfrwt>
<totfact> 0.97599406E+03</totfact>
</mgrwt>
</event>
<event>
 5    1  0.3271306E-002  0.1250004E+03  0.7818608E-02  0.1235069E+00
          4   -1    0    0  501    0  0.00000000000E+00  0.00000000000E+00  0.31824092684E+02  0.31849423467E+02  0.12700000000E+01 0.  1.
         -4   -1    0    0    0  501 -0.00000000000E+00 -0.00000000000E+00 -0.12266838437E+03  0.12267495843E+03  0.12700000000E+01 0.  1.
         25    2    1    2    0    0  0.00000000000E+00  0.00000000000E+00 -0.90844291690E+02  0.15452438189E+03  0.12500039707E+03 0.  0.
    9000005    1    3    3    0    0  0.15028723096E+02  0.58375416319E+02 -0.25044740824E+02  0.65282392659E+02  0.10000000000E+01 0.  0.
    9000005    1    3    3    0    0 -0.15028723096E+02 -0.58375416319E+02 -0.65799550865E+02  0.89241989234E+02  0.10000000000E+01 0.  0.
<mgrwt>
<rscale>  0 0.12500040E+03</rscale>
<asrwt>0</asrwt>
<pdfrwt beam="1">  1        4 0.48984685E-02 0.12500040E+03</pdfrwt>
<pdfrwt beam="2">  1       -4 0.18874513E-01 0.12500040E+03</pdfrwt>
<totfact> 0.98408071E+03</totfact>
</mgrwt>
</event>
<event>
 5    1  0.3271306E-002  0.1250041E+03  0.7818608E-02  0.1235063E+00
         -4   -1    0    0    0  501 -0.00000000000E+00  0.00000000000E+00  0.69545311880E+02  0.69556906951E+02  0.12700000000E+01 0.  1.
          4   -1    0    0  501    0  0.00000000000E+00 -0.00000000000E+00 -0.56148636228E+02  0.56162997163E+02  0.12700000000E+01 0.  1.
         25    2    1    2    0    0  0.00000000000E+00  0.00000000000E+00  0.13396675652E+02  0.12571990411E+03  0.12500409342E+03 0.  0.
    9000005    1    3    3    0    0 -0.32627271978E+02  0.51590373509E+02 -0.67724011852E+01  0.61424514107E+02  0.10000000000E+01 0.  0.
    9000005    1    3    3    0    0  0.32627271978E+02 -0.51590373509E+02  0.20169076837E+02  0.64295390006E+02  0.10000000000E+01 0.  0.
<mgrwt>
<rscale>  0 0.12500409E+03</rscale>
<asrwt>0</asrwt>
<pdfrwt beam="2">  1        4 0.86402484E-02 0.12500409E+03</pdfrwt>
<pdfrwt beam="1">  1       -4 0.10701275E-01 0.12500409E+03</pdfrwt>
<totfact> 0.10436142E+04</totfact>
</mgrwt>
</event>
<event>
 5    1  0.3271306E-002  0.1250032E+03  0.7818608E-02  0.1235064E+00
         -4   -1    0    0    0  501 -0.00000000000E+00  0.00000000000E+00  0.31794811576E+02  0.31820165668E+02  0.12700000000E+01 0. -1.
          4   -1    0    0  501    0  0.00000000000E+00 -0.00000000000E+00 -0.12278681629E+03  0.12279338400E+03  0.12700000000E+01 0. -1.
         25    2    1    2    0    0  0.00000000000E+00  0.00000000000E+00 -0.90992004715E+02  0.15461354967E+03  0.12500321924E+03 0.  0.
    9000005    1    3    3    0    0 -0.24678724066E+02 -0.41908176702E+02 -0.94036378951E+02  0.10587339261E+03  0.10000000000E+01 0.  0.
    9000005    1    3    3    0    0  0.24678724066E+02  0.41908176702E+02  0.30443742353E+01  0.48740157063E+02  0.10000000000E+01 0.  0.
<mgrwt>
<rscale>  0 0.12500322E+03</rscale>
<asrwt>0</asrwt>
<pdfrwt beam="2">  1        4 0.18892735E-01 0.12500322E+03</pdfrwt>
<pdfrwt beam="1">  1       -4 0.48939651E-02 0.12500322E+03</pdfrwt>
<totfact> 0.98384294E+03</totfact>
</mgrwt>
</event>
<event>
 5    1  0.3271306E-002  0.1249993E+03  0.7818608E-02  0.1235070E+00
          4   -1    0    0  501    0  0.00000000000E+00  0.00000000000E+00  0.34625321115E+02  0.34648604046E+02  0.12700000000E+01 0.  1.
         -4   -1    0    0    0  501 -0.00000000000E+00 -0.00000000000E+00 -0.11274876533E+03  0.11275591773E+03  0.12700000000E+01 0.  1.
         25    2    1    2    0    0  0.00000000000E+00  0.00000000000E+00 -0.78123444210E+02  0.14740452177E+03  0.12499928201E+03 0.  0.
    9000005    1    3    3    0    0  0.65814952160E+01 -0.49916982292E+02  0.45891295799E+01  0.50567591506E+02  0.10000000000E+01 0.  0.
    9000005    1    3    3    0    0 -0.65814952160E+01  0.49916982292E+02 -0.82712573790E+02  0.96836930266E+02  0.10000000000E+01 0.  0.
<mgrwt>
<rscale>  0 0.12499928E+03</rscale>
<asrwt>0</asrwt>
<pdfrwt beam="1">  1        4 0.53293137E-02 0.12499928E+03</pdfrwt>
<pdfrwt beam="2">  1       -4 0.17348305E-01 0.12499928E+03</pdfrwt>
<totfact> 0.99825220E+03</totfact>
</mgrwt>
</event>
<event>
 5    1  0.3271306E-002  0.1249958E+03  0.7818608E-02  0.1235076E+00
         -4   -1    0    0    0  501 -0.00000000000E+00  0.00000000000E+00  0.36740963955E+01  0.38874007156E+01  0.12700000000E+01 0. -1.
          4   -1    0    0  501    0  0.00000000000E+00 -0.00000000000E+00 -0.10329118740E+04  0.10329126547E+04  0.12700000000E+01 0. -1.
         25    2    1    2    0    0  0.00000000000E+00  0.00000000000E+00 -0.10292377776E+04  0.10368000554E+04  0.12499580862E+03 0.  0.
    9000005    1    3    3    0    0 -0.31705221957E+02  0.53141882563E+02 -0.58679082050E+03  0.59004554723E+03  0.10000000000E+01 0.  0.
    9000005    1    3    3    0    0  0.31705221957E+02 -0.53141882563E+02 -0.44244695707E+03  0.44675450821E+03  0.10000000000E+01 0.  0.
<mgrwt>
<rscale>  0 0.12499581E+03</rscale>
<asrwt>0</asrwt>
<pdfrwt beam="2">  1        4 0.15892576E+00 0.12499581E+03</pdfrwt>
<pdfrwt beam="1">  1       -4 0.58171451E-03 0.12499581E+03</pdfrwt>
<totfact> 0.29413261E+03</totfact>
</mgrwt>
</event>
<event>
 5    1  0.3271306E-002  0.1250024E+03  0.7818608E-02  0.1235066E+00
          4   -1    0    0  501    0  0.00000000000E+00  0.00000000000E+00  0.86495293058E+02  0.86504616185E+02  0.12700000000E+01 0.  1.
         -4   -1    0    0    0  501 -0.00000000000E+00 -0.00000000000E+00 -0.45142435709E+02  0.45160296741E+02  0.12700000000E+01 0.  1.
         25    2    1    2    0    0  0.00000000000E+00  0.00000000000E+00  0.41352857350E+02  0.13166491293E+03  0.12500236192E+03 0.  0.
    9000005    1    3    3    0    0 -0.41735801212E+02  0.29906858044E+02 -0.16846767240E+02  0.54047301758E+02  0.10000000000E+01 0.  0.
    9000005    1    3    3    0    0  0.41735801212E+02 -0.29906858044E+02  0.58199624590E+02  0.77617611167E+02  0.10000000000E+01 0.  0.
<mgrwt>
<rscale>  0 0.12500236E+03</rscale>
<asrwt>0</asrwt>
<pdfrwt beam="1">  1        4 0.13309059E-01 0.12500236E+03</pdfrwt>
<pdfrwt beam="2">  1       -4 0.69470812E-02 0.12500236E+03</pdfrwt>
<totfact> 0.10308306E+04</totfact>
</mgrwt>
</event>
<event>
 5    1  0.3271306E-002  0.1250025E+03  0.7818608E-02  0.1235065E+00
         -4   -1    0    0    0  501 -0.00000000000E+00  0.00000000000E+00  0.96504561598E+03  0.96504645164E+03  0.12700000000E+01 0.  1.
          4   -1    0    0  501    0  0.00000000000E+00 -0.00000000000E+00 -0.39474245088E+01  0.41466926885E+01  0.12700000000E+01 0.  1.
         25    2    1    2    0    0  0.00000000000E+00  0.00000000000E+00  0.96109819147E+03  0.96919314433E+03  0.12500246943E+03 0.  0.
    9000005    1    3    3    0    0 -0.34805131589E+02 -0.39499819073E+02  0.74161761084E+03  0.74348457523E+03  0.10000000000E+01 0.  0.
    9000005    1    3    3    0    0  0.34805131589E+02  0.39499819073E+02  0.21948058063E+03  0.22570856910E+03  0.10000000000E+01 0.  0.
<mgrwt>
<rscale>  0 0.12500247E+03</rscale>
<asrwt>0</asrwt>
<pdfrwt beam="2">  1        4 0.62268834E-03 0.12500247E+03</pdfrwt>
<pdfrwt beam="1">  1       -4 0.14848403E+00 0.12500247E+03</pdfrwt>
<totfact> 0.31642468E+03</totfact>
</mgrwt>
</event>
<event>
 5    1  0.3271306E-002  0.1250024E+03  0.7818608E-02  0.1235066E+00
         -4   -1    0    0    0  501 -0.00000000000E+00  0.00000000000E+00  0.12460504193E+02  0.12525057474E+02  0.12700000000E+01 0. -1.
          4   -1    0    0  501    0  0.00000000000E+00 -0.00000000000E+00 -0.31262661800E+03  0.31262919758E+03  0.12700000000E+01 0. -1.
         25    2    1    2    0    0  0.00000000000E+00  0.00000000000E+00 -0.30016611381E+03  0.32515425506E+03  0.12500237480E+03 0.  0.
    9000005    1    3    3    0    0  0.24140286625E+02  0.37224286685E+02 -0.35601453233E+02  0.56893448040E+02  0.10000000000E+01 0.  0.
    9000005    1    3    3    0    0 -0.24140286625E+02 -0.37224286685E+02 -0.26456466057E+03  0.26826080702E+03  0.10000000000E+01 0.  0.
<mgrwt>
<rscale>  0 0.12500237E+03</rscale>
<asrwt>0</asrwt>
<pdfrwt beam="2">  1        4 0.48101561E-01 0.12500237E+03</pdfrwt>
<pdfrwt beam="1">  1       -4 0.19221650E-02 0.12500237E+03</pdfrwt>
<totfact> 0.72543445E+03</totfact>
</mgrwt>
</event>
<event>
 5    1  0.3271306E-002  0.1249981E+03  0.7818608E-02  0.1235072E+00
          4   -1    0    0  501    0  0.00000000000E+00  0.00000000000E+00  0.78805892872E+03  0.78805995206E+03  0.12700000000E+01 0. -1.
         -4   -1    0    0    0  501 -0.00000000000E+00 -0.00000000000E+00 -0.48742556890E+01  0.50369900260E+01  0.12700000000E+01 0. -1.
         25    2    1    2    0    0  0.00000000000E+00  0.00000000000E+00  0.78318467303E+03  0.79309694209E+03  0.12499810987E+03 0.  0.
    9000005    1    3    3    0    0 -0.50183393407E+02  0.74168007077E+01  0.62313667996E+03  0.62519893140E+03  0.10000000000E+01 0.  0.
    9000005    1    3    3    0    0  0.50183393407E+02 -0.74168007077E+01  0.16004799307E+03  0.16789801069E+03  0.10000000000E+01 0.  0.
<mgrwt>
<rscale>  0 0.12499811E+03</rscale>
<asrwt>0</asrwt>
<pdfrwt beam="1">  1        4 0.12125252E+00 0.12499811E+03</pdfrwt>
<pdfrwt beam="2">  1       -4 0.76248167E-03 0.12499811E+03</pdfrwt>
<totfact> 0.38576327E+03</totfact>
</mgrwt>
</event>
<event>
 5    1  0.3271306E-002  0.1249977E+03  0.7818608E-02  0.1235073E+00
          4   -1    0    0  501    0  0.00000000000E+00  0.00000000000E+00  0.15722685446E+03  0.15723198359E+03  0.12700000000E+01 0.  1.
         -4   -1    0    0    0  501 -0.00000000000E+00 -0.00000000000E+00 -0.24821991344E+02  0.24854459444E+02  0.12700000000E+01 0.  1.
         25    2    1    2    0    0  0.00000000000E+00  0.00000000000E+00  0.13240486311E+03  0.18208644303E+03  0.12499769982E+03 0.  0.
    9000005    1    3    3    0    0 -0.50060844204E+02 -0.30203516499E+02  0.34063193329E+02  0.67673049814E+02  0.10000000000E+01 0.  0.
    9000005    1    3    3    0    0  0.50060844204E+02  0.30203516499E+02  0.98341669784E+02  0.11441339322E+03  0.10000000000E+01 0.  0.
<mgrwt>
<rscale>  0 0.12499770E+03</rscale>
<asrwt>0</asrwt>
<pdfrwt beam="1">  1        4 0.24191639E-01 0.12499770E+03</pdfrwt>
<pdfrwt beam="2">  1       -4 0.38216600E-02 0.12499770E+03</pdfrwt>
<totfact> 0.93247587E+03</totfact>
</mgrwt>
</event>
<event>
 5    1  0.3271306E-002  0.1249993E+03  0.7818608E-02  0.1235070E+00
         -4   -1    0    0    0  501 -0.00000000000E+00  0.00000000000E+00  0.98374175857E+01  0.99190566465E+01  0.12700000000E+01 0. -1.
          4   -1    0    0  501    0  0.00000000000E+00 -0.00000000000E+00 -0.39535258457E+03  0.39535462439E+03  0.12700000000E+01 0. -1.
         25    2    1    2    0    0  0.00000000000E+00  0.00000000000E+00 -0.38551516699E+03  0.40527368104E+03  0.12499925026E+03 0.  0.
    9000005    1    3    3    0    0  0.33688383926E+01 -0.33272949298E+02 -0.21601965103E+02  0.39825659109E+02  0.10000000000E+01 0.  0.
    9000005    1    3    3    0    0 -0.33688383926E+01  0.33272949298E+02 -0.36391320188E+03  0.36544802193E+03  0.10000000000E+01 0.  0.
<mgrwt>
<rscale>  0 0.12499925E+03</rscale>
<asrwt>0</asrwt>
<pdfrwt beam="2">  1        4 0.60829899E-01 0.12499925E+03</pdfrwt>
<pdfrwt beam="1">  1       -4 0.15198860E-02 0.12499925E+03</pdfrwt>
<totfact> 0.64044154E+03</totfact>
</mgrwt>
</event>
<event>
 5    1  0.3271306E-002  0.1249997E+03  0.7818608E-02  0.1235070E+00
         -4   -1    0    0    0  501 -0.00000000000E+00  0.00000000000E+00  0.17536531175E+03  0.17536991037E+03  0.12700000000E+01 0. -1.
          4   -1    0    0  501    0  0.00000000000E+00 -0.00000000000E+00 -0.22251838650E+02  0.22288051133E+02  0.12700000000E+01 0. -1.
         25    2    1    2    0    0  0.00000000000E+00  0.00000000000E+00  0.15311347310E+03  0.19765796151E+03  0.12499973641E+03 0.  0.
    9000005    1    3    3    0    0 -0.12397143003E+02 -0.41972003766E+01  0.17318144078E+03  0.17367819978E+03  0.10000000000E+01 0.  0.
    9000005    1    3    3    0    0  0.12397143003E+02  0.41972003766E+01 -0.20067967686E+02  0.23979761731E+02  0.10000000000E+01 0.  0.
<mgrwt>
<rscale>  0 0.12499974E+03</rscale>
<asrwt>0</asrwt>
<pdfrwt beam="2">  1        4 0.34264990E-02 0.12499974E+03</pdfrwt>
<pdfrwt beam="1">  1       -4 0.26982419E-01 0.12499974E+03</pdfrwt>
<totfact> 0.90532195E+03</totfact>
</mgrwt>
</event>
<event>
 5    1  0.3271306E-002  0.1250045E+03  0.7818608E-02  0.1235062E+00
          4   -1    0    0  501    0  0.00000000000E+00  0.00000000000E+00  0.70363753734E+02  0.70375213958E+02  0.12700000000E+01 0. -1.
         -4   -1    0    0    0  501 -0.00000000000E+00 -0.00000000000E+00 -0.55495837786E+02  0.55510367604E+02  0.12700000000E+01 0. -1.
         25    2    1    2    0    0  0.00000000000E+00  0.00000000000E+00  0.14867915949E+02  0.12588558156E+03  0.12500449880E+03 0.  0.
    9000005    1    3    3    0    0 -0.20108139414E+02 -0.58135469172E+02  0.18532578750E+02  0.64253610962E+02  0.10000000000E+01 0.  0.
    9000005    1    3    3    0    0  0.20108139414E+02  0.58135469172E+02 -0.36646628006E+01  0.61631970600E+02  0.10000000000E+01 0.  0.
<mgrwt>
<rscale>  0 0.12500450E+03</rscale>
<asrwt>0</asrwt>
<pdfrwt beam="1">  1        4 0.10827192E-01 0.12500450E+03</pdfrwt>
<pdfrwt beam="2">  1       -4 0.85398204E-02 0.12500450E+03</pdfrwt>
<totfact> 0.10432407E+04</totfact>
</mgrwt>
</event>
<event>
 5    1  0.3271306E-002  0.1250066E+03  0.7818608E-02  0.1235059E+00
          4   -1    0    0  501    0  0.00000000000E+00  0.00000000000E+00  0.24778772992E+02  0.24811297648E+02  0.12700000000E+01 0.  1.
         -4   -1    0    0    0  501 -0.00000000000E+00 -0.00000000000E+00 -0.15752316389E+03  0.15752828337E+03  0.12700000000E+01 0.  1.
         25    2    1    2    0    0  0.00000000000E+00  0.00000000000E+00 -0.13274439090E+03  0.18233958102E+03  0.12500659779E+03 0.  0.
    9000005    1    3    3    0    0 -0.21530503365E+02  0.50831238143E+02 -0.10910523503E+03  0.12227971891E+03  0.10000000000E+01 0.  0.
    9000005    1    3    3    0    0  0.21530503365E+02 -0.50831238143E+02 -0.23639155872E+02  0.60059862110E+02  0.10000000000E+01 0.  0.
<mgrwt>
<rscale>  0 0.12500660E+03</rscale>
<asrwt>0</asrwt>
<pdfrwt beam="1">  1        4 0.38150147E-02 0.12500660E+03</pdfrwt>
<pdfrwt beam="2">  1       -4 0.24237228E-01 0.12500660E+03</pdfrwt>
<totfact> 0.93183776E+03</totfact>
</mgrwt>
</event>
<event>
 5    1  0.3271306E-002  0.1249931E+03  0.7818608E-02  0.1235080E+00
          4   -1    0    0  501    0  0.00000000000E+00  0.00000000000E+00  0.76390266948E+01  0.77438768613E+01  0.12700000000E+01 0.  1.
         -4   -1    0    0    0  501 -0.00000000000E+00 -0.00000000000E+00 -0.50770691245E+03  0.50770850087E+03  0.12700000000E+01 0.  1.
         25    2    1    2    0    0  0.00000000000E+00  0.00000000000E+00 -0.50006788576E+03  0.51545237773E+03  0.12499305316E+03 0.  0.
    9000005    1    3    3    0    0 -0.60593916923E+02  0.12644559396E+01 -0.31279157179E+03  0.31861071702E+03  0.10000000000E+01 0.  0.
    9000005    1    3    3    0    0  0.60593916923E+02 -0.12644559396E+01 -0.18727631396E+03  0.19684166070E+03  0.10000000000E+01 0.  0.
<mgrwt>
<rscale>  0 0.12499305E+03</rscale>
<asrwt>0</asrwt>
<pdfrwt beam="1">  1        4 0.11834229E-02 0.12499305E+03</pdfrwt>
<pdfrwt beam="2">  1       -4 0.78116917E-01 0.12499305E+03</pdfrwt>
<totfact> 0.54693434E+03</totfact>
</mgrwt>
</event>
<event>
 5    1  0.3271306E-002  0.1250000E+03  0.7818608E-02  0.1235069E+00
         -4   -1    0    0    0  501 -0.00000000000E+00  0.00000000000E+00  0.14895619578E+02  0.14949661622E+02  0.12700000000E+01 0. -1.
          4   -1    0    0  501    0  0.00000000000E+00 -0.00000000000E+00 -0.26171096735E+03  0.26171404879E+03  0.12700000000E+01 0. -1.
         25    2    1    2    0    0  0.00000000000E+00  0.00000000000E+00 -0.24681534777E+03  0.27666371041E+03  0.12499997104E+03 0.  0.
    9000005    1    3    3    0    0  0.60230818104E+02  0.33142777245E+01 -0.87274932186E+02  0.10609735941E+03  0.10000000000E+01 0.  0.
    9000005    1    3    3    0    0 -0.60230818104E+02 -0.33142777245E+01 -0.15954041559E+03  0.17056635100E+03  0.10000000000E+01 0.  0.
<mgrwt>
<rscale>  0 0.12499997E+03</rscale>
<asrwt>0</asrwt>
<pdfrwt beam="2">  1        4 0.40267616E-01 0.12499997E+03</pdfrwt>
<pdfrwt beam="1">  1       -4 0.22960281E-02 0.12499997E+03</pdfrwt>
<totfact> 0.78622615E+03</totfact>
</mgrwt>
</event>
<event>
 5    1  0.3271306E-002  0.1249995E+03  0.7818608E-02  0.1235070E+00
          4   -1    0    0  501    0  0.00000000000E+00  0.00000000000E+00  0.31853167133E+01  0.34291606210E+01  0.12700000000E+01 0.  1.
         -4   -1    0    0    0  501 -0.00000000000E+00 -0.00000000000E+00 -0.11808676112E+04  0.11808682942E+04  0.12700000000E+01 0.  1.
         25    2    1    2    0    0  0.00000000000E+00  0.00000000000E+00 -0.11776822945E+04  0.11842974548E+04  0.12499949833E+03 0.  0.
    9000005    1    3    3    0    0 -0.46189309243E+02 -0.34878496862E+02 -0.81209526316E+03  0.81415580713E+03  0.10000000000E+01 0.  0.
    9000005    1    3    3    0    0  0.46189309243E+02  0.34878496862E+02 -0.36558703136E+03  0.37014164765E+03  0.10000000000E+01 0.  0.
<mgrwt>
<rscale>  0 0.12499950E+03</rscale>
<asrwt>0</asrwt>
<pdfrwt beam="1">  1        4 0.50885942E-03 0.12499950E+03</pdfrwt>
<pdfrwt beam="2">  1       -4 0.18169041E+00 0.12499950E+03</pdfrwt>
<totfact> 0.25127834E+03</totfact>
</mgrwt>
</event>
<event>
 5    1  0.3271306E-002  0.1250001E+03  0.7818608E-02  0.1235069E+00
         -4   -1    0    0    0  501 -0.00000000000E+00  0.00000000000E+00  0.24707071362E+02  0.24739690283E+02  0.12700000000E+01 0.  1.
          4   -1    0    0  501    0  0.00000000000E+00 -0.00000000000E+00 -0.15796326112E+03  0.15796836634E+03  0.12700000000E+01 0.  1.
         25    2    1    2    0    0  0.00000000000E+00  0.00000000000E+00 -0.13325618976E+03  0.18270805662E+03  0.12500008738E+03 0.  0.
    9000005    1    3    3    0    0 -0.42124223584E+02 -0.42078165769E+02 -0.38885999639E+02  0.71120624399E+02  0.10000000000E+01 0.  0.
    9000005    1    3    3    0    0  0.42124223584E+02  0.42078165769E+02 -0.94370190122E+02  0.11158743223E+03  0.10000000000E+01 0.  0.
<mgrwt>
<rscale>  0 0.12500009E+03</rscale>
<asrwt>0</asrwt>
<pdfrwt beam="2">  1        4 0.24304941E-01 0.12500009E+03</pdfrwt>
<pdfrwt beam="1">  1       -4 0.38039899E-02 0.12500009E+03</pdfrwt>
<totfact> 0.93131621E+03</totfact>
</mgrwt>
</event>
<event>
 5    1  0.3271306E-002  0.1250003E+03  0.7818608E-02  0.1235069E+00
          4   -1    0    0  501    0  0.00000000000E+00  0.00000000000E+00  0.12949463945E+02  0.13011591620E+02  0.12700000000E+01 0.  1.
         -4   -1    0    0    0  501 -0.00000000000E+00 -0.00000000000E+00 -0.30086961068E+03  0.30087229107E+03  0.12700000000E+01 0.  1.
         25    2    1    2    0    0  0.00000000000E+00  0.00000000000E+00 -0.28792014674E+03  0.31388388269E+03  0.12500032365E+03 0.  0.
    9000005    1    3    3    0    0 -0.45066685937E+02  0.41632631288E+02 -0.11414409638E+03  0.12959227179E+03  0.10000000000E+01 0.  0.
    9000005    1    3    3    0    0  0.45066685937E+02 -0.41632631288E+02 -0.17377605036E+03  0.18429161090E+03  0.10000000000E+01 0.  0.
<mgrwt>
<rscale>  0 0.12500032E+03</rscale>
<asrwt>0</asrwt>
<pdfrwt beam="1">  1        4 0.19972107E-02 0.12500032E+03</pdfrwt>
<pdfrwt beam="2">  1       -4 0.46292612E-01 0.12500032E+03</pdfrwt>
<totfact> 0.73888982E+03</totfact>
</mgrwt>
</event>
<event>
 5    1  0.3271306E-002  0.1250000E+03  0.7818608E-02  0.1235069E+00
          4   -1    0    0  501    0  0.00000000000E+00  0.00000000000E+00  0.76338575845E+03  0.76338681486E+03  0.12700000000E+01 0. -1.
         -4   -1    0    0    0  501 -0.00000000000E+00 -0.00000000000E+00 -0.50371321379E+01  0.51947666140E+01  0.12700000000E+01 0. -1.
         25    2    1    2    0    0  0.00000000000E+00  0.00000000000E+00  0.75834862632E+03  0.76858158148E+03  0.12500003342E+03 0.  0.
    9000005    1    3    3    0    0 -0.34310590586E+02  0.48834406602E+02  0.49308812439E+03  0.49668794460E+03  0.10000000000E+01 0.  0.
    9000005    1    3    3    0    0  0.34310590586E+02 -0.48834406602E+02  0.26526050193E+03  0.27189363688E+03  0.10000000000E+01 0.  0.
<mgrwt>
<rscale>  0 0.12500003E+03</rscale>
<asrwt>0</asrwt>
<pdfrwt beam="1">  1        4 0.11745615E+00 0.12500003E+03</pdfrwt>
<pdfrwt beam="2">  1       -4 0.78715050E-03 0.12500003E+03</pdfrwt>
<totfact> 0.39700727E+03</totfact>
</mgrwt>
</event>
<event>
 5    1  0.3271306E-002  0.1250003E+03  0.7818608E-02  0.1235069E+00
          4   -1    0    0  501    0  0.00000000000E+00  0.00000000000E+00  0.48111299927E+01  0.49759292405E+01  0.12700000000E+01 0. -1.
         -4   -1    0    0    0  501 -0.00000000000E+00 -0.00000000000E+00 -0.79808673899E+03  0.79808774946E+03  0.12700000000E+01 0. -1.
         25    2    1    2    0    0  0.00000000000E+00  0.00000000000E+00 -0.79327560899E+03  0.80306367870E+03  0.12500032093E+03 0.  0.
    9000005    1    3    3    0    0  0.12242744792E+02  0.13246464971E+02 -0.78103065352E+03  0.78123955057E+03  0.10000000000E+01 0.  0.
    9000005    1    3    3    0    0 -0.12242744792E+02 -0.13246464971E+02 -0.12244955467E+02  0.21824128131E+02  0.10000000000E+01 0.  0.
<mgrwt>
<rscale>  0 0.12500032E+03</rscale>
<asrwt>0</asrwt>
<pdfrwt beam="1">  1        4 0.75292907E-03 0.12500032E+03</pdfrwt>
<pdfrwt beam="2">  1       -4 0.12279523E+00 0.12500032E+03</pdfrwt>
<totfact> 0.38128081E+03</totfact>
</mgrwt>
</event>
<event>
 5    1  0.3271306E-002  0.1249995E+03  0.7818608E-02  0.1235070E+00
         -4   -1    0    0    0  501 -0.00000000000E+00  0.00000000000E+00  0.20776752436E+02  0.20815531264E+02  0.12700000000E+01 0. -1.
          4   -1    0    0  501    0  0.00000000000E+00 -0.00000000000E+00 -0.18779297959E+03  0.18779727390E+03  0.12700000000E+01 0. -1.
         25    2    1    2    0    0  0.00000000000E+00  0.00000000000E+00 -0.16701622716E+03  0.20861280516E+03  0.12499952938E+03 0.  0.
    9000005    1    3    3    0    0 -0.14098307155E+02 -0.58418665744E+02 -0.11211020095E+03  0.12720534552E+03  0.10000000000E+01 0.  0.
    9000005    1    3    3    0    0  0.14098307155E+02  0.58418665744E+02 -0.54906026208E+02  0.81407459645E+02  0.10000000000E+01 0.  0.
<mgrwt>
<rscale>  0 0.12499953E+03</rscale>
<asrwt>0</asrwt>
<pdfrwt beam="2">  1        4 0.28894540E-01 0.12499953E+03</pdfrwt>
<pdfrwt beam="1">  1       -4 0.31997369E-02 0.12499953E+03</pdfrwt>
<totfact> 0.88703864E+03</totfact>
</mgrwt>
</event>
<event>
 5    1  0.3271306E-002  0.1249990E+03  0.7818608E-02  0.1235071E+00
          4   -1    0    0  501    0  0.00000000000E+00  0.00000000000E+00  0.13417687381E+02  0.13477656869E+02  0.12700000000E+01 0.  1.
         -4   -1    0    0    0  501 -0.00000000000E+00 -0.00000000000E+00 -0.29041158171E+03  0.29041435862E+03  0.12700000000E+01 0.  1.
         25    2    1    2    0    0  0.00000000000E+00  0.00000000000E+00 -0.27699389433E+03  0.30389201549E+03  0.12499895832E+03 0.  0.
    9000005    1    3    3    0    0 -0.27015405654E+02 -0.31433458078E+02 -0.25219842924E+03  0.25558353260E+03  0.10000000000E+01 0.  0.
    9000005    1    3    3    0    0  0.27015405654E+02  0.31433458078E+02 -0.24795465097E+02  0.48308482886E+02  0.10000000000E+01 0.  0.
<mgrwt>
<rscale>  0 0.12499896E+03</rscale>
<asrwt>0</asrwt>
<pdfrwt beam="1">  1        4 0.20690865E-02 0.12499896E+03</pdfrwt>
<pdfrwt beam="2">  1       -4 0.44683527E-01 0.12499896E+03</pdfrwt>
<totfact> 0.75114949E+03</totfact>
</mgrwt>
</event>
<event>
 5    1  0.3271306E-002  0.1249956E+03  0.7818608E-02  0.1235076E+00
         -4   -1    0    0    0  501 -0.00000000000E+00  0.00000000000E+00  0.22446796535E+02  0.22482695005E+02  0.12700000000E+01 0. -1.
          4   -1    0    0  501    0  0.00000000000E+00 -0.00000000000E+00 -0.17383312106E+03  0.17383776022E+03  0.12700000000E+01 0. -1.
         25    2    1    2    0    0  0.00000000000E+00  0.00000000000E+00 -0.15138632452E+03  0.19632045522E+03  0.12499560747E+03 0.  0.
    9000005    1    3    3    0    0 -0.38872726390E+02  0.35484616175E+01  0.95070394731E+00  0.39058728536E+02  0.10000000000E+01 0.  0.
    9000005    1    3    3    0    0  0.38872726390E+02 -0.35484616175E+01 -0.15233702847E+03  0.15726172669E+03  0.10000000000E+01 0.  0.
<mgrwt>
<rscale>  0 0.12499561E+03</rscale>
<asrwt>0</asrwt>
<pdfrwt beam="2">  1        4 0.26746675E-01 0.12499561E+03</pdfrwt>
<pdfrwt beam="1">  1       -4 0.34564717E-02 0.12499561E+03</pdfrwt>
<totfact> 0.90767983E+03</totfact>
</mgrwt>
</event>
<event>
 5    1  0.3271306E-002  0.1249568E+03  0.7818608E-02  0.1235137E+00
          4   -1    0    0  501    0  0.00000000000E+00  0.00000000000E+00  0.14615710521E+03  0.14616262280E+03  0.12700000000E+01 0. -1.
         -4   -1    0    0    0  501 -0.00000000000E+00 -0.00000000000E+00 -0.26686773670E+02  0.26716975670E+02  0.12700000000E+01 0. -1.
         25    2    1    2    0    0  0.00000000000E+00  0.00000000000E+00  0.11947033154E+03  0.17287959847E+03  0.12495677432E+03 0.  0.
    9000005    1    3    3    0    0  0.44845984696E+02 -0.12000984198E+02  0.19021959743E+01  0.46473694867E+02  0.10000000000E+01 0.  0.
    9000005    1    3    3    0    0 -0.44845984696E+02  0.12000984198E+02  0.11756813557E+03  0.12640590360E+03  0.10000000000E+01 0.  0.
<mgrwt>
<rscale>  0 0.12495677E+03</rscale>
<asrwt>0</asrwt>
<pdfrwt beam="1">  1        4 0.22488456E-01 0.12495677E+03</pdfrwt>
<pdfrwt beam="2">  1       -4 0.41084052E-02 0.12495677E+03</pdfrwt>
<totfact> 0.95006745E+03</totfact>
</mgrwt>
</event>
<event>
 5    1  0.3271306E-002  0.1250021E+03  0.7818608E-02  0.1235066E+00
         -4   -1    0    0    0  501 -0.00000000000E+00  0.00000000000E+00  0.27649338070E+02  0.27678489766E+02  0.12700000000E+01 0. -1.
          4   -1    0    0  501    0  0.00000000000E+00 -0.00000000000E+00 -0.14117660729E+03  0.14118231953E+03  0.12700000000E+01 0. -1.
         25    2    1    2    0    0  0.00000000000E+00  0.00000000000E+00 -0.11352726922E+03  0.16886080929E+03  0.12500212821E+03 0.  0.
    9000005    1    3    3    0    0  0.21556649370E+02 -0.52807880359E+02 -0.22269721194E+02  0.61239708051E+02  0.10000000000E+01 0.  0.
    9000005    1    3    3    0    0 -0.21556649370E+02  0.52807880359E+02 -0.91257548029E+02  0.10762110124E+03  0.10000000000E+01 0.  0.
<mgrwt>
<rscale>  0 0.12500213E+03</rscale>
<asrwt>0</asrwt>
<pdfrwt beam="2">  1        4 0.21722160E-01 0.12500213E+03</pdfrwt>
<pdfrwt beam="1">  1       -4 0.42564262E-02 0.12500213E+03</pdfrwt>
<totfact> 0.95656600E+03</totfact>
</mgrwt>
</event>
<event>
 5    1  0.3271306E-002  0.1249999E+03  0.7818608E-02  0.1235069E+00
          4   -1    0    0  501    0  0.00000000000E+00  0.00000000000E+00  0.13201872387E+02  0.13262817745E+02  0.12700000000E+01 0. -1.
         -4   -1    0    0    0  501 -0.00000000000E+00 -0.00000000000E+00 -0.29514170291E+03  0.29514443531E+03  0.12700000000E+01 0. -1.
         25    2    1    2    0    0  0.00000000000E+00  0.00000000000E+00 -0.28193983052E+03  0.30840725306E+03  0.12499986281E+03 0.  0.
    9000005    1    3    3    0    0  0.80572024710E+01 -0.57986307698E+02 -0.87032693157E+02  0.10489528145E+03  0.10000000000E+01 0.  0.
    9000005    1    3    3    0    0 -0.80572024710E+01  0.57986307698E+02 -0.19490713737E+03  0.20351197161E+03  0.10000000000E+01 0.  0.
<mgrwt>
<rscale>  0 0.12499986E+03</rscale>
<asrwt>0</asrwt>
<pdfrwt beam="1">  1        4 0.20359558E-02 0.12499986E+03</pdfrwt>
<pdfrwt beam="2">  1       -4 0.45411309E-01 0.12499986E+03</pdfrwt>
<totfact> 0.74556436E+03</totfact>
</mgrwt>
</event>
<event>
 5    1  0.3271306E-002  0.1249975E+03  0.7818608E-02  0.1235073E+00
          4   -1    0    0  501    0  0.00000000000E+00  0.00000000000E+00  0.40079169035E+02  0.40099285411E+02  0.12700000000E+01 0. -1.
         -4   -1    0    0    0  501 -0.00000000000E+00 -0.00000000000E+00 -0.97410749280E+02  0.97419027789E+02  0.12700000000E+01 0. -1.
         25    2    1    2    0    0  0.00000000000E+00  0.00000000000E+00 -0.57331580245E+02  0.13751831320E+03  0.12499750546E+03 0.  0.
    9000005    1    3    3    0    0  0.17085273836E+02 -0.25761605260E+02 -0.88415443998E+02  0.93668872230E+02  0.10000000000E+01 0.  0.
    9000005    1    3    3    0    0 -0.17085273836E+02  0.25761605260E+02  0.31083863752E+02  0.43849440970E+02  0.10000000000E+01 0.  0.
<mgrwt>
<rscale>  0 0.12499751E+03</rscale>
<asrwt>0</asrwt>
<pdfrwt beam="1">  1        4 0.61682103E-02 0.12499751E+03</pdfrwt>
<pdfrwt beam="2">  1       -4 0.14988453E-01 0.12499751E+03</pdfrwt>
<totfact> 0.10185832E+04</totfact>
</mgrwt>
</event>
<event>
 5    1  0.3271306E-002  0.1250035E+03  0.7818608E-02  0.1235064E+00
         -4   -1    0    0    0  501 -0.00000000000E+00  0.00000000000E+00  0.87299517414E+03  0.87299609791E+03  0.12700000000E+01 0.  1.
          4   -1    0    0  501    0  0.00000000000E+00 -0.00000000000E+00 -0.43837326429E+01  0.45639907849E+01  0.12700000000E+01 0.  1.
         25    2    1    2    0    0  0.00000000000E+00  0.00000000000E+00  0.86861144150E+03  0.87756008870E+03  0.12500349186E+03 0.  0.
    9000005    1    3    3    0    0  0.42958341586E+02  0.40479740000E+02  0.29018630834E+03  0.29613024501E+03  0.10000000000E+01 0.  0.
    9000005    1    3    3    0    0 -0.42958341586E+02 -0.40479740000E+02  0.57842513315E+03  0.58142984369E+03  0.10000000000E+01 0.  0.
<mgrwt>
<rscale>  0 0.12500349E+03</rscale>
<asrwt>0</asrwt>
<pdfrwt beam="2">  1        4 0.68835759E-03 0.12500349E+03</pdfrwt>
<pdfrwt beam="1">  1       -4 0.13432087E+00 0.12500349E+03</pdfrwt>
<totfact> 0.35022643E+03</totfact>
</mgrwt>
</event>
<event>
 5    1  0.3271306E-002  0.1250089E+03  0.7818608E-02  0.1235055E+00
          4   -1    0    0  501    0  0.00000000000E+00  0.00000000000E+00  0.91905060825E+02  0.91913835222E+02  0.12700000000E+01 0.  1.
         -4   -1    0    0    0  501 -0.00000000000E+00 -0.00000000000E+00 -0.42488882595E+02  0.42507858617E+02  0.12700000000E+01 0.  1.
         25    2    1    2    0    0  0.00000000000E+00  0.00000000000E+00  0.49416178230E+02  0.13442169384E+03  0.12500893210E+03 0.  0.
    9000005    1    3    3    0    0 -0.33800874108E+02  0.38408519607E+02 -0.13884350484E+02  0.53023472701E+02  0.10000000000E+01 0.  0.
    9000005    1    3    3    0    0  0.33800874108E+02 -0.38408519607E+02  0.63300528714E+02  0.81398221138E+02  0.10000000000E+01 0.  0.
<mgrwt>
<rscale>  0 0.12500893E+03</rscale>
<asrwt>0</asrwt>
<pdfrwt beam="1">  1        4 0.14141375E-01 0.12500893E+03</pdfrwt>
<pdfrwt beam="2">  1       -4 0.65388859E-02 0.12500893E+03</pdfrwt>
<totfact> 0.10248210E+04</totfact>
</mgrwt>
</event>
<event>
 5    1  0.3271306E-002  0.1250036E+03  0.7818608E-02  0.1235064E+00
          4   -1    0    0  501    0  0.00000000000E+00  0.00000000000E+00  0.30588248775E+02  0.30614602123E+02  0.12700000000E+01 0.  1.
         -4   -1    0    0    0  501 -0.00000000000E+00 -0.00000000000E+00 -0.12762716239E+03  0.12763348103E+03  0.12700000000E+01 0.  1.
         25    2    1    2    0    0  0.00000000000E+00  0.00000000000E+00 -0.97038913619E+02  0.15824808316E+03  0.12500362021E+03 0.  0.
    9000005    1    3    3    0    0  0.14708567958E+02 -0.45033668819E+02 -0.10011523232E+03  0.11076295880E+03  0.10000000000E+01 0.  0.
    9000005    1    3    3    0    0 -0.14708567958E+02  0.45033668819E+02  0.30763187025E+01  0.47485124359E+02  0.10000000000E+01 0.  0.
<mgrwt>
<rscale>  0 0.12500362E+03</rscale>
<asrwt>0</asrwt>
<pdfrwt beam="1">  1        4 0.47083977E-02 0.12500362E+03</pdfrwt>
<pdfrwt beam="2">  1       -4 0.19637461E-01 0.12500362E+03</pdfrwt>
<totfact> 0.97673658E+03</totfact>
</mgrwt>
</event>
<event>
 5    1  0.3271306E-002  0.1249953E+03  0.7818608E-02  0.1235077E+00
          4   -1    0    0  501    0  0.00000000000E+00  0.00000000000E+00  0.10220611003E+02  0.10299213042E+02  0.12700000000E+01 0. -1.
         -4   -1    0    0    0  501 -0.00000000000E+00 -0.00000000000E+00 -0.38062090915E+03  0.38062302792E+03  0.12700000000E+01 0. -1.
         25    2    1    2    0    0  0.00000000000E+00  0.00000000000E+00 -0.37040029814E+03  0.39092224096E+03  0.12499527035E+03 0.  0.
    9000005    1    3    3    0    0  0.22886503790E+02 -0.52854591538E+02 -0.10939112985E+03  0.12363178876E+03  0.10000000000E+01 0.  0.
    9000005    1    3    3    0    0 -0.22886503790E+02  0.52854591538E+02 -0.26100916830E+03  0.26729045220E+03  0.10000000000E+01 0.  0.
<mgrwt>
<rscale>  0 0.12499527E+03</rscale>
<asrwt>0</asrwt>
<pdfrwt beam="1">  1        4 0.15786113E-02 0.12499527E+03</pdfrwt>
<pdfrwt beam="2">  1       -4 0.58563261E-01 0.12499527E+03</pdfrwt>
<totfact> 0.65452203E+03</totfact>
</mgrwt>
</event>
<event>
 5    1  0.3271306E-002  0.1250015E+03  0.7818608E-02  0.1235067E+00
          4   -1    0    0  501    0  0.00000000000E+00  0.00000000000E+00  0.63651277591E+02  0.63663946147E+02  0.12700000000E+01 0.  1.
         -4   -1    0    0    0  501 -0.00000000000E+00 -0.00000000000E+00 -0.61345652046E+02  0.61358796638E+02  0.12700000000E+01 0.  1.
         25    2    1    2    0    0  0.00000000000E+00  0.00000000000E+00  0.23056255451E+01  0.12502274278E+03  0.12500148121E+03 0.  0.
    9000005    1    3    3    0    0 -0.20612564347E+02 -0.22272619285E+02  0.55791723073E+02  0.63519003000E+02  0.10000000000E+01 0.  0.
    9000005    1    3    3    0    0  0.20612564347E+02  0.22272619285E+02 -0.53486097527E+02  0.61503739785E+02  0.10000000000E+01 0.  0.
<mgrwt>
<rscale>  0 0.12500148E+03</rscale>
<asrwt>0</asrwt>
<pdfrwt beam="1">  1        4 0.97944899E-02 0.12500148E+03</pdfrwt>
<pdfrwt beam="2">  1       -4 0.94397782E-02 0.12500148E+03</pdfrwt>
<totfact> 0.10452019E+04</totfact>
</mgrwt>
</event>
<event>
 5    1  0.3271306E-002  0.1250006E+03  0.7818608E-02  0.1235068E+00
         -4   -1    0    0    0  501 -0.00000000000E+00  0.00000000000E+00  0.10779779502E+02  0.10854333057E+02  0.12700000000E+01 0. -1.
          4   -1    0    0  501    0  0.00000000000E+00 -0.00000000000E+00 -0.36104758144E+03  0.36104981507E+03  0.12700000000E+01 0. -1.
         25    2    1    2    0    0  0.00000000000E+00  0.00000000000E+00 -0.35026780194E+03  0.37190414813E+03  0.12500064928E+03 0.  0.
    9000005    1    3    3    0    0  0.73800901717E+01 -0.52957279137E+02 -0.78893474053E+02  0.95310646796E+02  0.10000000000E+01 0.  0.
    9000005    1    3    3    0    0 -0.73800901717E+01  0.52957279137E+02 -0.27137432788E+03  0.27659350133E+03  0.10000000000E+01 0.  0.
<mgrwt>
<rscale>  0 0.12500065E+03</rscale>
<asrwt>0</asrwt>
<pdfrwt beam="2">  1        4 0.55551679E-01 0.12500065E+03</pdfrwt>
<pdfrwt beam="1">  1       -4 0.16643346E-02 0.12500065E+03</pdfrwt>
<totfact> 0.67379234E+03</totfact>
</mgrwt>
</event>
<event>
 5    1  0.3271306E-002  0.1250002E+03  0.7818608E-02  0.1235069E+00
          4   -1    0    0  501    0  0.00000000000E+00  0.00000000000E+00  0.47878539442E+03  0.47878707878E+03  0.12700000000E+01 0.  1.
         -4   -1    0    0    0  501 -0.00000000000E+00 -0.00000000000E+00 -0.81075655137E+01  0.82064315362E+01  0.12700000000E+01 0.  1.
         25    2    1    2    0    0  0.00000000000E+00  0.00000000000E+00  0.47067782890E+03  0.48699351031E+03  0.12500024188E+03 0.  0.
    9000005    1    3    3    0    0  0.18867680090E+02 -0.21797716993E+02  0.19328938099E+02  0.34723733471E+02  0.10000000000E+01 0.  0.
    9000005    1    3    3    0    0 -0.18867680090E+02  0.21797716993E+02  0.45134889080E+03  0.45226977684E+03  0.10000000000E+01 0.  0.
<mgrwt>
<rscale>  0 0.12500024E+03</rscale>
<asrwt>0</asrwt>
<pdfrwt beam="1">  1        4 0.73667029E-01 0.12500024E+03</pdfrwt>
<pdfrwt beam="2">  1       -4 0.12550524E-02 0.12500024E+03</pdfrwt>
<totfact> 0.56887516E+03</totfact>
</mgrwt>
</event>
<event>
 5    1  0.3271306E-002  0.1249925E+03  0.7818608E-02  0.1235081E+00
          4   -1    0    0  501    0  0.00000000000E+00  0.00000000000E+00  0.21286351317E+03  0.21286730171E+03  0.12700000000E+01 0.  1.
         -4   -1    0    0    0  501 -0.00000000000E+00 -0.00000000000E+00 -0.18322834939E+02  0.18366795589E+02  0.12700000000E+01 0.  1.
         25    2    1    2    0    0  0.00000000000E+00  0.00000000000E+00  0.19454067823E+03  0.23123409730E+03  0.12499252885E+03 0.  0.
    9000005    1    3    3    0    0  0.47614489417E+02 -0.35099632145E+02  0.13453082654E+03  0.14696484978E+03  0.10000000000E+01 0.  0.
    9000005    1    3    3    0    0 -0.47614489417E+02  0.35099632145E+02  0.60009851685E+02  0.84269247525E+02  0.10000000000E+01 0.  0.
<mgrwt>
<rscale>  0 0.12499253E+03</rscale>
<asrwt>0</asrwt>
<pdfrwt beam="1">  1        4 0.32751908E-01 0.12499253E+03</pdfrwt>
<pdfrwt beam="2">  1       -4 0.28225705E-02 0.12499253E+03</pdfrwt>
<totfact> 0.85134646E+03</totfact>
</mgrwt>
</event>
<event>
 5    1  0.3271306E-002  0.1250032E+03  0.7818608E-02  0.1235064E+00
          4   -1    0    0  501    0  0.00000000000E+00  0.00000000000E+00  0.17895857143E+02  0.17940864050E+02  0.12700000000E+01 0.  1.
         -4   -1    0    0    0  501 -0.00000000000E+00 -0.00000000000E+00 -0.21796694899E+03  0.21797064883E+03  0.12700000000E+01 0.  1.
         25    2    1    2    0    0  0.00000000000E+00  0.00000000000E+00 -0.20007109185E+03  0.23591151288E+03  0.12500320043E+03 0.  0.
    9000005    1    3    3    0    0  0.47306744816E+02  0.93211001049E+01 -0.25003920903E+02  0.54323172521E+02  0.10000000000E+01 0.  0.
    9000005    1    3    3    0    0 -0.47306744816E+02 -0.93211001049E+01 -0.17506717094E+03  0.18158834036E+03  0.10000000000E+01 0.  0.
<mgrwt>
<rscale>  0 0.12500320E+03</rscale>
<asrwt>0</asrwt>
<pdfrwt beam="1">  1        4 0.27569556E-02 0.12500320E+03</pdfrwt>
<pdfrwt beam="2">  1       -4 0.33537122E-01 0.12500320E+03</pdfrwt>
<totfact> 0.84404044E+03</totfact>
</mgrwt>
</event>
<event>
 5    1  0.3271306E-002  0.1249992E+03  0.7818608E-02  0.1235071E+00
         -4   -1    0    0    0  501 -0.00000000000E+00  0.00000000000E+00  0.44854923973E+02  0.44872899445E+02  0.12700000000E+01 0.  1.
          4   -1    0    0  501    0  0.00000000000E+00 -0.00000000000E+00 -0.87045077261E+02  0.87054341508E+02  0.12700000000E+01 0.  1.
         25    2    1    2    0    0  0.00000000000E+00  0.00000000000E+00 -0.42190153288E+02  0.13192724095E+03  0.12499915148E+03 0.  0.
    9000005    1    3    3    0    0  0.35625768771E+02 -0.51046109057E+02 -0.15285796289E+02  0.64105820473E+02  0.10000000000E+01 0.  0.
    9000005    1    3    3    0    0 -0.35625768771E+02  0.51046109057E+02 -0.26904356999E+02  0.67821420480E+02  0.10000000000E+01 0.  0.
<mgrwt>
<rscale>  0 0.12499915E+03</rscale>
<asrwt>0</asrwt>
<pdfrwt beam="2">  1        4 0.13393646E-01 0.12499915E+03</pdfrwt>
<pdfrwt beam="1">  1       -4 0.69028529E-02 0.12499915E+03</pdfrwt>
<totfact> 0.10303449E+04</totfact>
</mgrwt>
</event>
<event>
 5    1  0.3271306E-002  0.1249995E+03  0.7818608E-02  0.1235070E+00
          4   -1    0    0  501    0  0.00000000000E+00  0.00000000000E+00  0.38922819578E+02  0.38943533274E+02  0.12700000000E+01 0. -1.
         -4   -1    0    0    0  501 -0.00000000000E+00 -0.00000000000E+00 -0.10030666562E+03  0.10031470515E+03  0.12700000000E+01 0. -1.
         25    2    1    2    0    0  0.00000000000E+00  0.00000000000E+00 -0.61383846047E+02  0.13925823842E+03  0.12499952165E+03 0.  0.
    9000005    1    3    3    0    0 -0.54486512270E+02  0.30597107534E+02 -0.30127039583E+02  0.69380123399E+02  0.10000000000E+01 0.  0.
    9000005    1    3    3    0    0  0.54486512270E+02 -0.30597107534E+02 -0.31256806464E+02  0.69878115022E+02  0.10000000000E+01 0.  0.
<mgrwt>
<rscale>  0 0.12499952E+03</rscale>
<asrwt>0</asrwt>
<pdfrwt beam="1">  1        4 0.59903379E-02 0.12499952E+03</pdfrwt>
<pdfrwt beam="2">  1       -4 0.15434006E-01 0.12499952E+03</pdfrwt>
<totfact> 0.10149092E+04</totfact>
</mgrwt>
</event>
<event>
 5    1  0.3271306E-002  0.1249862E+03  0.7818608E-02  0.1235091E+00
         -4   -1    0    0    0  501 -0.00000000000E+00  0.00000000000E+00  0.80741622892E+02  0.80751610307E+02  0.12700000000E+01 0. -1.
          4   -1    0    0  501    0  0.00000000000E+00 -0.00000000000E+00 -0.48347636674E+02  0.48364314033E+02  0.12700000000E+01 0. -1.
         25    2    1    2    0    0  0.00000000000E+00  0.00000000000E+00  0.32393986218E+02  0.12911592434E+03  0.12498620554E+03 0.  0.
    9000005    1    3    3    0    0 -0.39550177681E+02 -0.34673456680E+02 -0.18650706432E+02  0.55814998013E+02  0.10000000000E+01 0.  0.
    9000005    1    3    3    0    0  0.39550177681E+02  0.34673456680E+02  0.51044692650E+02  0.73300926328E+02  0.10000000000E+01 0.  0.
<mgrwt>
<rscale>  0 0.12498621E+03</rscale>
<asrwt>0</asrwt>
<pdfrwt beam="2">  1        4 0.74401492E-02 0.12498621E+03</pdfrwt>
<pdfrwt beam="1">  1       -4 0.12423839E-01 0.12498621E+03</pdfrwt>
<totfact> 0.10366684E+04</totfact>
</mgrwt>
</event>
<event>
 5    1  0.3271306E-002  0.1249977E+03  0.7818608E-02  0.1235073E+00
          4   -1    0    0  501    0  0.00000000000E+00  0.00000000000E+00  0.12135010933E+02  0.12201286421E+02  0.12700000000E+01 0.  1.
         -4   -1    0    0    0  501 -0.00000000000E+00 -0.00000000000E+00 -0.32094295312E+03  0.32094546586E+03  0.12700000000E+01 0.  1.
         25    2    1    2    0    0  0.00000000000E+00  0.00000000000E+00 -0.30880794219E+03  0.33314675228E+03  0.12499765357E+03 0.  0.
    9000005    1    3    3    0    0  0.54554430557E+02 -0.30393653001E+02 -0.14835954281E+03  0.16097053761E+03  0.10000000000E+01 0.  0.
    9000005    1    3    3    0    0 -0.54554430557E+02  0.30393653001E+02 -0.16044839938E+03  0.17217621467E+03  0.10000000000E+01 0.  0.
<mgrwt>
<rscale>  0 0.12499765E+03</rscale>
<asrwt>0</asrwt>
<pdfrwt beam="1">  1        4 0.18722164E-02 0.12499765E+03</pdfrwt>
<pdfrwt beam="2">  1       -4 0.49381124E-01 0.12499765E+03</pdfrwt>
<totfact> 0.71623027E+03</totfact>
</mgrwt>
</event>
<event>
 5    1  0.3271306E-002  0.1249981E+03  0.7818608E-02  0.1235072E+00
          4   -1    0    0  501    0  0.00000000000E+00  0.00000000000E+00  0.44133321252E+03  0.44133503982E+03  0.12700000000E+01 0. -1.
         -4   -1    0    0    0  501 -0.00000000000E+00 -0.00000000000E+00 -0.88033382538E+01  0.88944738130E+01  0.12700000000E+01 0. -1.
         25    2    1    2    0    0  0.00000000000E+00  0.00000000000E+00  0.43252987426E+03  0.45022951363E+03  0.12499809124E+03 0.  0.
    9000005    1    3    3    0    0  0.58516430992E+02  0.17053052417E+02  0.26593335831E+03  0.27283058912E+03  0.10000000000E+01 0.  0.
    9000005    1    3    3    0    0 -0.58516430992E+02 -0.17053052417E+02  0.16659651595E+03  0.17739892452E+03  0.10000000000E+01 0.  0.
<mgrwt>
<rscale>  0 0.12499809E+03</rscale>
<asrwt>0</asrwt>
<pdfrwt beam="1">  1        4 0.67904566E-01 0.12499809E+03</pdfrwt>
<pdfrwt beam="2">  1       -4 0.13615108E-02 0.12499809E+03</pdfrwt>
<totfact> 0.59946437E+03</totfact>
</mgrwt>
</event>
<event>
 5    1  0.3271306E-002  0.1249943E+03  0.7818608E-02  0.1235078E+00
         -4   -1    0    0    0  501 -0.00000000000E+00  0.00000000000E+00  0.40412822555E+02  0.40432772931E+02  0.12700000000E+01 0.  1.
          4   -1    0    0  501    0  0.00000000000E+00 -0.00000000000E+00 -0.96601964245E+02  0.96610312058E+02  0.12700000000E+01 0.  1.
         25    2    1    2    0    0  0.00000000000E+00  0.00000000000E+00 -0.56189141689E+02  0.13704308499E+03  0.12499434987E+03 0.  0.
    9000005    1    3    3    0    0 -0.25275413247E+02  0.29416362844E+02 -0.81814844890E+02  0.90547433769E+02  0.10000000000E+01 0.  0.
    9000005    1    3    3    0    0  0.25275413247E+02 -0.29416362844E+02  0.25625703201E+02  0.46495651219E+02  0.10000000000E+01 0.  0.
<mgrwt>
<rscale>  0 0.12499435E+03</rscale>
<asrwt>0</asrwt>
<pdfrwt beam="2">  1        4 0.14864017E-01 0.12499435E+03</pdfrwt>
<pdfrwt beam="1">  1       -4 0.62195341E-02 0.12499435E+03</pdfrwt>
<totfact> 0.10196484E+04</totfact>
</mgrwt>
</event>
<event>
 5    1  0.3271306E-002  0.1250021E+03  0.7818608E-02  0.1235066E+00
         -4   -1    0    0    0  501 -0.00000000000E+00  0.00000000000E+00  0.19224473460E+03  0.19224892947E+03  0.12700000000E+01 0. -1.
          4   -1    0    0  501    0  0.00000000000E+00 -0.00000000000E+00 -0.20295574845E+02  0.20335271286E+02  0.12700000000E+01 0. -1.
         25    2    1    2    0    0  0.00000000000E+00  0.00000000000E+00  0.17194915976E+03  0.21258420076E+03  0.12500211546E+03 0.  0.
    9000005    1    3    3    0    0 -0.26487624838E+02 -0.48212246886E+02  0.35543443694E+02  0.65500774110E+02  0.10000000000E+01 0.  0.
    9000005    1    3    3    0    0  0.26487624838E+02  0.48212246886E+02  0.13640571606E+03  0.14708342665E+03  0.10000000000E+01 0.  0.
<mgrwt>
<rscale>  0 0.12500212E+03</rscale>
<asrwt>0</asrwt>
<pdfrwt beam="2">  1        4 0.31257724E-02 0.12500212E+03</pdfrwt>
<pdfrwt beam="1">  1       -4 0.29579489E-01 0.12500212E+03</pdfrwt>
<totfact> 0.88051415E+03</totfact>
</mgrwt>
</event>
<event>
 5    1  0.3271306E-002  0.1249992E+03  0.7818608E-02  0.1235070E+00
          4   -1    0    0  501    0  0.00000000000E+00  0.00000000000E+00  0.11053444531E+02  0.11126164479E+02  0.12700000000E+01 0.  1.
         -4   -1    0    0    0  501 -0.00000000000E+00 -0.00000000000E+00 -0.35215979143E+03  0.35216208144E+03  0.12700000000E+01 0.  1.
         25    2    1    2    0    0  0.00000000000E+00  0.00000000000E+00 -0.34110634690E+03  0.36328824592E+03  0.12499923889E+03 0.  0.
    9000005    1    3    3    0    0  0.47774373870E+02 -0.39012841421E+02 -0.14137249176E+03  0.15424517503E+03  0.10000000000E+01 0.  0.
    9000005    1    3    3    0    0 -0.47774373870E+02  0.39012841421E+02 -0.19973385514E+03  0.20904307088E+03  0.10000000000E+01 0.  0.
<mgrwt>
<rscale>  0 0.12499924E+03</rscale>
<asrwt>0</asrwt>
<pdfrwt beam="1">  1        4 0.17063002E-02 0.12499924E+03</pdfrwt>
<pdfrwt beam="2">  1       -4 0.54184191E-01 0.12499924E+03</pdfrwt>
<totfact> 0.68288160E+03</totfact>
</mgrwt>
</event>
<event>
 5    1  0.3271306E-002  0.1249996E+03  0.7818608E-02  0.1235070E+00
          4   -1    0    0  501    0  0.00000000000E+00  0.00000000000E+00  0.24846705588E+02  0.24879141435E+02  0.12700000000E+01 0. -1.
         -4   -1    0    0    0  501 -0.00000000000E+00 -0.00000000000E+00 -0.15707534678E+03  0.15708048085E+03  0.12700000000E+01 0. -1.
         25    2    1    2    0    0  0.00000000000E+00  0.00000000000E+00 -0.13222864119E+03  0.18195962229E+03  0.12499956237E+03 0.  0.
    9000005    1    3    3    0    0 -0.10000102230E+02 -0.61635752584E+02 -0.62473774395E+02  0.88334254558E+02  0.10000000000E+01 0.  0.
    9000005    1    3    3    0    0  0.10000102230E+02  0.61635752584E+02 -0.69754866795E+02  0.93625367731E+02  0.10000000000E+01 0.  0.
<mgrwt>
<rscale>  0 0.12499956E+03</rscale>
<asrwt>0</asrwt>
<pdfrwt beam="1">  1        4 0.38254602E-02 0.12499956E+03</pdfrwt>
<pdfrwt beam="2">  1       -4 0.24168327E-01 0.12499956E+03</pdfrwt>
<totfact> 0.93266365E+03</totfact>
</mgrwt>
</event>
<event>
 5    1  0.3271306E-002  0.1249986E+03  0.7818608E-02  0.1235071E+00
          4   -1    0    0  501    0  0.00000000000E+00  0.00000000000E+00  0.14557430019E+03  0.14557983987E+03  0.12700000000E+01 0. -1.
         -4   -1    0    0    0  501 -0.00000000000E+00 -0.00000000000E+00 -0.26811693419E+02  0.26841754860E+02  0.12700000000E+01 0. -1.
         25    2    1    2    0    0  0.00000000000E+00  0.00000000000E+00  0.11876260677E+03  0.17242159473E+03  0.12499859824E+03 0.  0.
    9000005    1    3    3    0    0 -0.23568323862E+02  0.44915309607E+02  0.10973013503E+03  0.12089066739E+03  0.10000000000E+01 0.  0.
    9000005    1    3    3    0    0  0.23568323862E+02 -0.44915309607E+02  0.90324717351E+01  0.51530927338E+02  0.10000000000E+01 0.  0.
<mgrwt>
<rscale>  0 0.12499860E+03</rscale>
<asrwt>0</asrwt>
<pdfrwt beam="1">  1        4 0.22398785E-01 0.12499860E+03</pdfrwt>
<pdfrwt beam="2">  1       -4 0.41276143E-02 0.12499860E+03</pdfrwt>
<totfact> 0.95002189E+03</totfact>
</mgrwt>
</event>
<event>
 5    1  0.3271306E-002  0.1250005E+03  0.7818608E-02  0.1235069E+00
          4   -1    0    0  501    0  0.00000000000E+00  0.00000000000E+00  0.13472789516E+04  0.13472795502E+04  0.12700000000E+01 0. -1.
         -4   -1    0    0    0  501 -0.00000000000E+00 -0.00000000000E+00 -0.27596839498E+01  0.30378866837E+01  0.12700000000E+01 0. -1.
         25    2    1    2    0    0  0.00000000000E+00  0.00000000000E+00  0.13445192677E+04  0.13503174369E+04  0.12500047683E+03 0.  0.
    9000005    1    3    3    0    0  0.42719318959E+01  0.12147552495E+02  0.11674067786E+02  0.17409660893E+02  0.10000000000E+01 0.  0.
    9000005    1    3    3    0    0 -0.42719318959E+01 -0.12147552495E+02  0.13328451999E+04  0.13329077760E+04  0.10000000000E+01 0.  0.
<mgrwt>
<rscale>  0 0.12500048E+03</rscale>
<asrwt>0</asrwt>
<pdfrwt beam="1">  1        4 0.20729542E+00 0.12500048E+03</pdfrwt>
<pdfrwt beam="2">  1       -4 0.44601239E-03 0.12500048E+03</pdfrwt>
<totfact> 0.21070870E+03</totfact>
</mgrwt>
</event>
<event>
 5    1  0.3271306E-002  0.1249997E+03  0.7818608E-02  0.1235070E+00
          4   -1    0    0  501    0  0.00000000000E+00  0.00000000000E+00  0.18353207548E+04  0.18353211942E+04  0.12700000000E+01 0.  1.
         -4   -1    0    0    0  501 -0.00000000000E+00 -0.00000000000E+00 -0.19384322652E+01  0.23174165890E+01  0.12700000000E+01 0.  1.
         25    2    1    2    0    0  0.00000000000E+00  0.00000000000E+00  0.18333823225E+04  0.18376386108E+04  0.12499969320E+03 0.  0.
    9000005    1    3    3    0    0  0.53479549593E+02 -0.14598988750E+02  0.49263558915E+03  0.49574591919E+03  0.10000000000E+01 0.  0.
    9000005    1    3    3    0    0 -0.53479549593E+02  0.14598988750E+02  0.13407467334E+04  0.13418926916E+04  0.10000000000E+01 0.  0.
<mgrwt>
<rscale>  0 0.12499969E+03</rscale>
<asrwt>0</asrwt>
<pdfrwt beam="1">  1        4 0.28238559E+00 0.12499969E+03</pdfrwt>
<pdfrwt beam="2">  1       -4 0.32740753E-03 0.12499969E+03</pdfrwt>
<totfact> 0.12132635E+03</totfact>
</mgrwt>
</event>
<event>
 5    1  0.3271306E-002  0.1249998E+03  0.7818608E-02  0.1235070E+00
         -4   -1    0    0    0  501 -0.00000000000E+00  0.00000000000E+00  0.21163345641E+03  0.21163726697E+03  0.12700000000E+01 0. -1.
          4   -1    0    0  501    0  0.00000000000E+00 -0.00000000000E+00 -0.18431744925E+02  0.18475446435E+02  0.12700000000E+01 0. -1.
         25    2    1    2    0    0  0.00000000000E+00  0.00000000000E+00  0.19320171148E+03  0.23011271341E+03  0.12499983821E+03 0.  0.
    9000005    1    3    3    0    0  0.56925853616E+02  0.30866254599E+01  0.14372080244E+03  0.15461807501E+03  0.10000000000E+01 0.  0.
    9000005    1    3    3    0    0 -0.56925853616E+02 -0.30866254599E+01  0.49480909047E+02  0.75494638397E+02  0.10000000000E+01 0.  0.
<mgrwt>
<rscale>  0 0.12499984E+03</rscale>
<asrwt>0</asrwt>
<pdfrwt beam="2">  1        4 0.28393081E-02 0.12499984E+03</pdfrwt>
<pdfrwt beam="1">  1       -4 0.32562646E-01 0.12499984E+03</pdfrwt>
<totfact> 0.85292602E+03</totfact>
</mgrwt>
</event>
<event>
 5    1  0.3271306E-002  0.1250085E+03  0.7818608E-02  0.1235056E+00
          4   -1    0    0  501    0  0.00000000000E+00  0.00000000000E+00  0.87789133718E+03  0.87789225580E+03  0.12700000000E+01 0.  1.
         -4   -1    0    0    0  501 -0.00000000000E+00 -0.00000000000E+00 -0.43586408043E+01  0.45398953359E+01  0.12700000000E+01 0.  1.
         25    2    1    2    0    0  0.00000000000E+00  0.00000000000E+00  0.87353269638E+03  0.88243215114E+03  0.12500851860E+03 0.  0.
    9000005    1    3    3    0    0  0.27794807674E+02  0.16721997665E+02  0.81385087402E+03  0.81449764989E+03  0.10000000000E+01 0.  0.
    9000005    1    3    3    0    0 -0.27794807674E+02 -0.16721997665E+02  0.59681822360E+02  0.67934501247E+02  0.10000000000E+01 0.  0.
<mgrwt>
<rscale>  0 0.12500852E+03</rscale>
<asrwt>0</asrwt>
<pdfrwt beam="1">  1        4 0.13507436E+00 0.12500852E+03</pdfrwt>
<pdfrwt beam="2">  1       -4 0.68457273E-03 0.12500852E+03</pdfrwt>
<totfact> 0.34829135E+03</totfact>
</mgrwt>
</event>
<event>
 5    1  0.3271306E-002  0.1250051E+03  0.7818608E-02  0.1235061E+00
          4   -1    0    0  501    0  0.00000000000E+00  0.00000000000E+00  0.37256896895E+03  0.37257113351E+03  0.12700000000E+01 0. -1.
         -4   -1    0    0    0  501 -0.00000000000E+00 -0.00000000000E+00 -0.10444826770E+02  0.10521753954E+02  0.12700000000E+01 0. -1.
         25    2    1    2    0    0  0.00000000000E+00  0.00000000000E+00  0.36212414218E+03  0.38309288746E+03  0.12500506420E+03 0.  0.
    9000005    1    3    3    0    0 -0.20250278965E+01 -0.32770363155E+02  0.34402285058E+03  0.34558749856E+03  0.10000000000E+01 0.  0.
    9000005    1    3    3    0    0  0.20250278965E+01  0.32770363155E+02  0.18101291601E+02  0.37505388905E+02  0.10000000000E+01 0.  0.
<mgrwt>
<rscale>  0 0.12500506E+03</rscale>
<asrwt>0</asrwt>
<pdfrwt beam="1">  1        4 0.57324393E-01 0.12500506E+03</pdfrwt>
<pdfrwt beam="2">  1       -4 0.16129802E-02 0.12500506E+03</pdfrwt>
<totfact> 0.66223640E+03</totfact>
</mgrwt>
</event>
<event>
 5    1  0.3271306E-002  0.1249998E+03  0.7818608E-02  0.1235070E+00
          4   -1    0    0  501    0  0.00000000000E+00  0.00000000000E+00  0.58624350990E+02  0.58638105606E+02  0.12700000000E+01 0.  1.
         -4   -1    0    0    0  501 -0.00000000000E+00 -0.00000000000E+00 -0.66603996506E+02  0.66616103538E+02  0.12700000000E+01 0.  1.
         25    2    1    2    0    0  0.00000000000E+00  0.00000000000E+00 -0.79796455161E+01  0.12525420914E+03  0.12499976866E+03 0.  0.
    9000005    1    3    3    0    0 -0.24514648823E+02 -0.41850301942E+02 -0.43475868532E+02  0.65142665927E+02  0.10000000000E+01 0.  0.
    9000005    1    3    3    0    0  0.24514648823E+02  0.41850301942E+02  0.35496223015E+02  0.60111543217E+02  0.10000000000E+01 0.  0.
<mgrwt>
<rscale>  0 0.12499977E+03</rscale>
<asrwt>0</asrwt>
<pdfrwt beam="1">  1        4 0.90211203E-02 0.12499977E+03</pdfrwt>
<pdfrwt beam="2">  1       -4 0.10248758E-01 0.12499977E+03</pdfrwt>
<totfact> 0.10447398E+04</totfact>
</mgrwt>
</event>
<event>
 5    1  0.3271306E-002  0.1249869E+03  0.7818608E-02  0.1235090E+00
         -4   -1    0    0    0  501 -0.00000000000E+00  0.00000000000E+00  0.20715459950E+01  0.24298565409E+01  0.12700000000E+01 0. -1.
          4   -1    0    0  501    0  0.00000000000E+00 -0.00000000000E+00 -0.17348483051E+04  0.17348487700E+04  0.12700000000E+01 0. -1.
         25    2    1    2    0    0  0.00000000000E+00  0.00000000000E+00 -0.17327767591E+04  0.17372786265E+04  0.12498691603E+03 0.  0.
    9000005    1    3    3    0    0 -0.14560592171E+02 -0.41672031361E+02 -0.14811038852E+04  0.14817618863E+04  0.10000000000E+01 0.  0.
    9000005    1    3    3    0    0  0.14560592171E+02  0.41672031361E+02 -0.25167287395E+03  0.25551674021E+03  0.10000000000E+01 0.  0.
<mgrwt>
<rscale>  0 0.12498692E+03</rscale>
<asrwt>0</asrwt>
<pdfrwt beam="2">  1        4 0.26692627E+00 0.12498692E+03</pdfrwt>
<pdfrwt beam="1">  1       -4 0.34629888E-03 0.12498692E+03</pdfrwt>
<totfact> 0.13699030E+03</totfact>
</mgrwt>
</event>
<event>
 5    1  0.3271306E-002  0.1249986E+03  0.7818608E-02  0.1235072E+00
          4   -1    0    0  501    0  0.00000000000E+00  0.00000000000E+00  0.12663876893E+04  0.12663883262E+04  0.12700000000E+01 0. -1.
         -4   -1    0    0    0  501 -0.00000000000E+00 -0.00000000000E+00 -0.29530987607E+01  0.32146060864E+01  0.12700000000E+01 0. -1.
         25    2    1    2    0    0  0.00000000000E+00  0.00000000000E+00  0.12634345906E+04  0.12696029322E+04  0.12499856349E+03 0.  0.
    9000005    1    3    3    0    0 -0.46772554154E+02  0.27578287954E+02  0.31752019717E+03  0.32213088861E+03  0.10000000000E+01 0.  0.
    9000005    1    3    3    0    0  0.46772554154E+02 -0.27578287954E+02  0.94591439341E+03  0.94747204363E+03  0.10000000000E+01 0.  0.
<mgrwt>
<rscale>  0 0.12499856E+03</rscale>
<asrwt>0</asrwt>
<pdfrwt beam="1">  1        4 0.19484906E+00 0.12499856E+03</pdfrwt>
<pdfrwt beam="2">  1       -4 0.47448778E-03 0.12499856E+03</pdfrwt>
<totfact> 0.22958220E+03</totfact>
</mgrwt>
</event>
<event>
 5    1  0.3271306E-002  0.1249980E+03  0.7818608E-02  0.1235072E+00
          4   -1    0    0  501    0  0.00000000000E+00  0.00000000000E+00  0.23504145889E+03  0.23504488996E+03  0.12700000000E+01 0.  1.
         -4   -1    0    0    0  501 -0.00000000000E+00 -0.00000000000E+00 -0.16591059033E+02  0.16639595543E+02  0.12700000000E+01 0.  1.
         25    2    1    2    0    0  0.00000000000E+00  0.00000000000E+00  0.21845039986E+03  0.25168448550E+03  0.12499801217E+03 0.  0.
    9000005    1    3    3    0    0  0.42640430597E+02 -0.39020102655E+02  0.15705824172E+03  0.16735909304E+03  0.10000000000E+01 0.  0.
    9000005    1    3    3    0    0 -0.42640430597E+02  0.39020102655E+02  0.61392158138E+02  0.84325392461E+02  0.10000000000E+01 0.  0.
<mgrwt>
<rscale>  0 0.12499801E+03</rscale>
<asrwt>0</asrwt>
<pdfrwt beam="1">  1        4 0.36164220E-01 0.12499801E+03</pdfrwt>
<pdfrwt beam="2">  1       -4 0.25564682E-02 0.12499801E+03</pdfrwt>
<totfact> 0.82091010E+03</totfact>
</mgrwt>
</event>
<event>
 5    1  0.3271306E-002  0.1249978E+03  0.7818608E-02  0.1235073E+00
         -4   -1    0    0    0  501 -0.00000000000E+00  0.00000000000E+00  0.51305976860E+03  0.51306134044E+03  0.12700000000E+01 0. -1.
          4   -1    0    0  501    0  0.00000000000E+00 -0.00000000000E+00 -0.75588157424E+01  0.76647632337E+01  0.12700000000E+01 0. -1.
         25    2    1    2    0    0  0.00000000000E+00  0.00000000000E+00  0.50550095286E+03  0.52072610368E+03  0.12499784682E+03 0.  0.
    9000005    1    3    3    0    0  0.28541095512E+02  0.32962657060E+02  0.43923981122E+03  0.44139975380E+03  0.10000000000E+01 0.  0.
    9000005    1    3    3    0    0 -0.28541095512E+02 -0.32962657060E+02  0.66261141636E+02  0.79326349875E+02  0.10000000000E+01 0.  0.
<mgrwt>
<rscale>  0 0.12499785E+03</rscale>
<asrwt>0</asrwt>
<pdfrwt beam="2">  1        4 0.11711649E-02 0.12499785E+03</pdfrwt>
<pdfrwt beam="1">  1       -4 0.78940581E-01 0.12499785E+03</pdfrwt>
<totfact> 0.54293936E+03</totfact>
</mgrwt>
</event>
<event>
 5    1  0.3271306E-002  0.1250004E+03  0.7818608E-02  0.1235069E+00
         -4   -1    0    0    0  501 -0.00000000000E+00  0.00000000000E+00  0.89850753635E+02  0.89859728626E+02  0.12700000000E+01 0. -1.
          4   -1    0    0  501    0  0.00000000000E+00 -0.00000000000E+00 -0.43454734013E+02  0.43473288444E+02  0.12700000000E+01 0. -1.
         25    2    1    2    0    0  0.00000000000E+00  0.00000000000E+00  0.46396019622E+02  0.13333301707E+03  0.12500041122E+03 0.  0.
    9000005    1    3    3    0    0 -0.21186666935E+02 -0.58491562349E+02  0.29520885681E+02  0.68866685801E+02  0.10000000000E+01 0.  0.
    9000005    1    3    3    0    0  0.21186666935E+02  0.58491562349E+02  0.16875133941E+02  0.64466331270E+02  0.10000000000E+01 0.  0.
<mgrwt>
<rscale>  0 0.12500041E+03</rscale>
<asrwt>0</asrwt>
<pdfrwt beam="2">  1        4 0.66874613E-02 0.12500041E+03</pdfrwt>
<pdfrwt beam="1">  1       -4 0.13825311E-01 0.12500041E+03</pdfrwt>
<totfact> 0.10273232E+04</totfact>
</mgrwt>
</event>
<event>
 5    1  0.3271306E-002  0.1249945E+03  0.7818608E-02  0.1235078E+00
         -4   -1    0    0    0  501 -0.00000000000E+00  0.00000000000E+00  0.19883839764E+02  0.19924356545E+02  0.12700000000E+01 0. -1.
          4   -1    0    0  501    0  0.00000000000E+00 -0.00000000000E+00 -0.19619356743E+03  0.19619767787E+03  0.12700000000E+01 0. -1.
         25    2    1    2    0    0  0.00000000000E+00  0.00000000000E+00 -0.17630972767E+03  0.21612203442E+03  0.12499445464E+03 0.  0.
    9000005    1    3    3    0    0 -0.39487113502E+02 -0.30884914199E+02 -0.15266020579E+03  0.16068369080E+03  0.10000000000E+01 0.  0.
    9000005    1    3    3    0    0  0.39487113502E+02  0.30884914199E+02 -0.23649521882E+02  0.55438343617E+02  0.10000000000E+01 0.  0.
<mgrwt>
<rscale>  0 0.12499445E+03</rscale>
<asrwt>0</asrwt>
<pdfrwt beam="2">  1        4 0.30187057E-01 0.12499445E+03</pdfrwt>
<pdfrwt beam="1">  1       -4 0.30624853E-02 0.12499445E+03</pdfrwt>
<totfact> 0.87496572E+03</totfact>
</mgrwt>
</event>
<event>
 5    1  0.3271306E-002  0.1250029E+03  0.7818608E-02  0.1235065E+00
          4   -1    0    0  501    0  0.00000000000E+00  0.00000000000E+00  0.13553424999E+03  0.13554020001E+03  0.12700000000E+01 0. -1.
         -4   -1    0    0    0  501 -0.00000000000E+00 -0.00000000000E+00 -0.28801892250E+02  0.28829878550E+02  0.12700000000E+01 0. -1.
         25    2    1    2    0    0  0.00000000000E+00  0.00000000000E+00  0.10673235774E+03  0.16437007856E+03  0.12500290612E+03 0.  0.
    9000005    1    3    3    0    0 -0.34183026200E+02 -0.42221264568E+02  0.12745327413E+02  0.55808223701E+02  0.10000000000E+01 0.  0.
    9000005    1    3    3    0    0  0.34183026200E+02  0.42221264568E+02  0.93987030325E+02  0.10856185486E+03  0.10000000000E+01 0.  0.
<mgrwt>
<rscale>  0 0.12500291E+03</rscale>
<asrwt>0</asrwt>
<pdfrwt beam="1">  1        4 0.20854034E-01 0.12500291E+03</pdfrwt>
<pdfrwt beam="2">  1       -4 0.44336708E-02 0.12500291E+03</pdfrwt>
<totfact> 0.96500521E+03</totfact>
</mgrwt>
</event>
<event>
 5    1  0.3271306E-002  0.1249941E+03  0.7818608E-02  0.1235079E+00
          4   -1    0    0  501    0  0.00000000000E+00  0.00000000000E+00  0.18409015545E+03  0.18409453614E+03  0.12700000000E+01 0.  1.
         -4   -1    0    0    0  501 -0.00000000000E+00 -0.00000000000E+00 -0.21193572553E+02  0.21231590085E+02  0.12700000000E+01 0.  1.
         25    2    1    2    0    0  0.00000000000E+00  0.00000000000E+00  0.16289658290E+03  0.20532612622E+03  0.12499408541E+03 0.  0.
    9000005    1    3    3    0    0 -0.34222446483E+02 -0.18039386441E+02  0.83462121251E+00  0.38707775693E+02  0.10000000000E+01 0.  0.
    9000005    1    3    3    0    0  0.34222446483E+02  0.18039386441E+02  0.16206196169E+03  0.16661835053E+03  0.10000000000E+01 0.  0.
<mgrwt>
<rscale>  0 0.12499409E+03</rscale>
<asrwt>0</asrwt>
<pdfrwt beam="1">  1        4 0.28324824E-01 0.12499409E+03</pdfrwt>
<pdfrwt beam="2">  1       -4 0.32638110E-02 0.12499409E+03</pdfrwt>
<totfact> 0.89256727E+03</totfact>
</mgrwt>
</event>
<event>
 5    1  0.3271306E-002  0.1249848E+03  0.7818608E-02  0.1235093E+00
         -4   -1    0    0    0  501 -0.00000000000E+00  0.00000000000E+00  0.48799491140E+02  0.48816014129E+02  0.12700000000E+01 0. -1.
          4   -1    0    0  501    0  0.00000000000E+00 -0.00000000000E+00 -0.79992402554E+02  0.80002483501E+02  0.12700000000E+01 0. -1.
         25    2    1    2    0    0  0.00000000000E+00  0.00000000000E+00 -0.31192911414E+02  0.12881849763E+03  0.12498482952E+03 0.  0.
    9000005    1    3    3    0    0 -0.97864149898E+01 -0.34670883755E+02  0.37022990965E+02  0.51667649053E+02  0.10000000000E+01 0.  0.
    9000005    1    3    3    0    0  0.97864149898E+01  0.34670883755E+02 -0.68215902379E+02  0.77150848577E+02  0.10000000000E+01 0.  0.
<mgrwt>
<rscale>  0 0.12498483E+03</rscale>
<asrwt>0</asrwt>
<pdfrwt beam="2">  1        4 0.12308570E-01 0.12498483E+03</pdfrwt>
<pdfrwt beam="1">  1       -4 0.75096605E-02 0.12498483E+03</pdfrwt>
<totfact> 0.10373401E+04</totfact>
</mgrwt>
</event>
<event>
 5    1  0.3271306E-002  0.1249991E+03  0.7818608E-02  0.1235071E+00
         -4   -1    0    0    0  501 -0.00000000000E+00  0.00000000000E+00  0.31155727394E+02  0.31181601137E+02  0.12700000000E+01 0. -1.
          4   -1    0    0  501    0  0.00000000000E+00 -0.00000000000E+00 -0.12529524864E+03  0.12530168487E+03  0.12700000000E+01 0. -1.
         25    2    1    2    0    0  0.00000000000E+00  0.00000000000E+00 -0.94139521244E+02  0.15648328601E+03  0.12499907736E+03 0.  0.
    9000005    1    3    3    0    0  0.61923769413E+02  0.73682722746E+01 -0.42008144344E+02  0.75196601292E+02  0.10000000000E+01 0.  0.
    9000005    1    3    3    0    0 -0.61923769413E+02 -0.73682722746E+01 -0.52131376900E+02  0.81286684716E+02  0.10000000000E+01 0.  0.
<mgrwt>
<rscale>  0 0.12499908E+03</rscale>
<asrwt>0</asrwt>
<pdfrwt beam="2">  1        4 0.19278677E-01 0.12499908E+03</pdfrwt>
<pdfrwt beam="1">  1       -4 0.47956743E-02 0.12499908E+03</pdfrwt>
<totfact> 0.98027130E+03</totfact>
</mgrwt>
</event>
<event>
 5    1  0.3271306E-002  0.1249989E+03  0.7818608E-02  0.1235071E+00
         -4   -1    0    0    0  501 -0.00000000000E+00  0.00000000000E+00  0.79978779338E+02  0.79988862002E+02  0.12700000000E+01 0.  1.
          4   -1    0    0  501    0  0.00000000000E+00 -0.00000000000E+00 -0.48818779460E+02  0.48835295924E+02  0.12700000000E+01 0.  1.
         25    2    1    2    0    0  0.00000000000E+00  0.00000000000E+00  0.31159999878E+02  0.12882415793E+03  0.12499887229E+03 0.  0.
    9000005    1    3    3    0    0  0.29740461375E+02 -0.28861201219E+02 -0.32624395807E+02  0.52752395020E+02  0.10000000000E+01 0.  0.
    9000005    1    3    3    0    0 -0.29740461375E+02  0.28861201219E+02  0.63784395685E+02  0.76071762905E+02  0.10000000000E+01 0.  0.
<mgrwt>
<rscale>  0 0.12499887E+03</rscale>
<asrwt>0</asrwt>
<pdfrwt beam="2">  1        4 0.75126276E-02 0.12499887E+03</pdfrwt>
<pdfrwt beam="1">  1       -4 0.12306474E-01 0.12499887E+03</pdfrwt>
<totfact> 0.10369991E+04</totfact>
</mgrwt>
</event>
<event>
 5    1  0.3271306E-002  0.1249992E+03  0.7818608E-02  0.1235071E+00
          4   -1    0    0  501    0  0.00000000000E+00  0.00000000000E+00  0.10442221292E+02  0.10519167529E+02  0.12700000000E+01 0.  1.
         -4   -1    0    0    0  501 -0.00000000000E+00 -0.00000000000E+00 -0.37262616426E+03  0.37262832849E+03  0.12700000000E+01 0.  1.
         25    2    1    2    0    0  0.00000000000E+00  0.00000000000E+00 -0.36218394297E+03  0.38314749602E+03  0.12499918064E+03 0.  0.
    9000005    1    3    3    0    0  0.22627242687E+02  0.43392260562E+02 -0.61969668134E+02  0.78969108878E+02  0.10000000000E+01 0.  0.
    9000005    1    3    3    0    0 -0.22627242687E+02 -0.43392260562E+02 -0.30021427484E+03  0.30417838714E+03  0.10000000000E+01 0.  0.
<mgrwt>
<rscale>  0 0.12499918E+03</rscale>
<asrwt>0</asrwt>
<pdfrwt beam="1">  1        4 0.16125813E-02 0.12499918E+03</pdfrwt>
<pdfrwt beam="2">  1       -4 0.57333178E-01 0.12499918E+03</pdfrwt>
<totfact> 0.66226727E+03</totfact>
</mgrwt>
</event>
<event>
 5    1  0.3271306E-002  0.1250043E+03  0.7818608E-02  0.1235063E+00
         -4   -1    0    0    0  501 -0.00000000000E+00  0.00000000000E+00  0.53490972284E+02  0.53506046536E+02  0.12700000000E+01 0.  1.
          4   -1    0    0  501    0  0.00000000000E+00 -0.00000000000E+00 -0.73000423421E+02  0.73011469781E+02  0.12700000000E+01 0.  1.
         25    2    1    2    0    0  0.00000000000E+00  0.00000000000E+00 -0.19509451136E+02  0.12651751632E+03  0.12500425293E+03 0.  0.
    9000005    1    3    3    0    0 -0.15540798122E+02 -0.85214625027E+01 -0.70408355262E+02  0.72611763649E+02  0.10000000000E+01 0.  0.
    9000005    1    3    3    0    0  0.15540798122E+02  0.85214625027E+01  0.50898904126E+02  0.53905752668E+02  0.10000000000E+01 0.  0.
<mgrwt>
<rscale>  0 0.12500425E+03</rscale>
<asrwt>0</asrwt>
<pdfrwt beam="2">  1        4 0.11232844E-01 0.12500425E+03</pdfrwt>
<pdfrwt beam="1">  1       -4 0.82313896E-02 0.12500425E+03</pdfrwt>
<totfact> 0.10418646E+04</totfact>
</mgrwt>
</event>
<event>
 5    1  0.3271306E-002  0.1250014E+03  0.7818608E-02  0.1235067E+00
         -4   -1    0    0    0  501 -0.00000000000E+00  0.00000000000E+00  0.30107020245E+02  0.30133794451E+02  0.12700000000E+01 0.  1.
          4   -1    0    0  501    0  0.00000000000E+00 -0.00000000000E+00 -0.12966088011E+03  0.12966709965E+03  0.12700000000E+01 0.  1.
         25    2    1    2    0    0  0.00000000000E+00  0.00000000000E+00 -0.99553859863E+02  0.15980089410E+03  0.12500141895E+03 0.  0.
    9000005    1    3    3    0    0  0.33124884440E+02 -0.33085702025E+02 -0.10269400152E+03  0.11286708819E+03  0.10000000000E+01 0.  0.
    9000005    1    3    3    0    0 -0.33124884440E+02  0.33085702025E+02  0.31401416546E+01  0.46933805911E+02  0.10000000000E+01 0.  0.
<mgrwt>
<rscale>  0 0.12500142E+03</rscale>
<asrwt>0</asrwt>
<pdfrwt beam="2">  1        4 0.19950365E-01 0.12500142E+03</pdfrwt>
<pdfrwt beam="1">  1       -4 0.46343873E-02 0.12500142E+03</pdfrwt>
<totfact> 0.97378079E+03</totfact>
</mgrwt>
</event>
<event>
 5    1  0.3271306E-002  0.1250021E+03  0.7818608E-02  0.1235066E+00
         -4   -1    0    0    0  501 -0.00000000000E+00  0.00000000000E+00  0.92771533265E+02  0.92780225718E+02  0.12700000000E+01 0. -1.
          4   -1    0    0  501    0  0.00000000000E+00 -0.00000000000E+00 -0.42087295142E+02  0.42106452146E+02  0.12700000000E+01 0. -1.
         25    2    1    2    0    0  0.00000000000E+00  0.00000000000E+00  0.50684238123E+02  0.13488667786E+03  0.12500209547E+03 0.  0.
    9000005    1    3    3    0    0  0.34082204762E+02 -0.92769862244E+01 -0.30287556309E+02  0.46540253781E+02  0.10000000000E+01 0.  0.
    9000005    1    3    3    0    0 -0.34082204762E+02  0.92769862244E+01  0.80971794432E+02  0.88346424084E+02  0.10000000000E+01 0.  0.
<mgrwt>
<rscale>  0 0.12500210E+03</rscale>
<asrwt>0</asrwt>
<pdfrwt beam="2">  1        4 0.64771108E-02 0.12500210E+03</pdfrwt>
<pdfrwt beam="1">  1       -4 0.14274686E-01 0.12500210E+03</pdfrwt>
<totfact> 0.10239976E+04</totfact>
</mgrwt>
</event>
<event>
 5    1  0.3271306E-002  0.1250019E+03  0.7818608E-02  0.1235066E+00
         -4   -1    0    0    0  501 -0.00000000000E+00  0.00000000000E+00  0.50940094303E+03  0.50940252616E+03  0.12700000000E+01 0. -1.
          4   -1    0    0  501    0  0.00000000000E+00 -0.00000000000E+00 -0.76143664179E+01  0.77195515378E+01  0.12700000000E+01 0. -1.
         25    2    1    2    0    0  0.00000000000E+00  0.00000000000E+00  0.50178657661E+03  0.51712207770E+03  0.12500189909E+03 0.  0.
    9000005    1    3    3    0    0  0.55500326912E+02 -0.26609837531E+02  0.20614592431E+03  0.21514067921E+03  0.10000000000E+01 0.  0.
    9000005    1    3    3    0    0 -0.55500326912E+02  0.26609837531E+02  0.29564065230E+03  0.30198139849E+03  0.10000000000E+01 0.  0.
<mgrwt>
<rscale>  0 0.12500190E+03</rscale>
<asrwt>0</asrwt>
<pdfrwt beam="2">  1        4 0.11796539E-02 0.12500190E+03</pdfrwt>
<pdfrwt beam="1">  1       -4 0.78377589E-01 0.12500190E+03</pdfrwt>
<totfact> 0.54557674E+03</totfact>
</mgrwt>
</event>
<event>
 5    1  0.3271306E-002  0.1249987E+03  0.7818608E-02  0.1235071E+00
         -4   -1    0    0    0  501 -0.00000000000E+00  0.00000000000E+00  0.43761036847E+01  0.45566636325E+01  0.12700000000E+01 0. -1.
          4   -1    0    0  501    0  0.00000000000E+00 -0.00000000000E+00 -0.87439040980E+03  0.87439133210E+03  0.12700000000E+01 0. -1.
         25    2    1    2    0    0  0.00000000000E+00  0.00000000000E+00 -0.87001430611E+03  0.87894799573E+03  0.12499874542E+03 0.  0.
    9000005    1    3    3    0    0  0.94508272913E+01 -0.53896811758E+02 -0.64724051218E+03  0.64955020211E+03  0.10000000000E+01 0.  0.
    9000005    1    3    3    0    0 -0.94508272913E+01  0.53896811758E+02 -0.22277379393E+03  0.22939779362E+03  0.10000000000E+01 0.  0.
<mgrwt>
<rscale>  0 0.12499875E+03</rscale>
<asrwt>0</asrwt>
<pdfrwt beam="2">  1        4 0.13453543E+00 0.12499875E+03</pdfrwt>
<pdfrwt beam="1">  1       -4 0.68720759E-03 0.12499875E+03</pdfrwt>
<totfact> 0.34972119E+03</totfact>
</mgrwt>
</event>
<event>
 5    1  0.3271306E-002  0.1249967E+03  0.7818608E-02  0.1235074E+00
          4   -1    0    0  501    0  0.00000000000E+00  0.00000000000E+00  0.56809359254E+01  0.58211625117E+01  0.12700000000E+01 0.  1.
         -4   -1    0    0    0  501 -0.00000000000E+00 -0.00000000000E+00 -0.67904706587E+03  0.67904825349E+03  0.12700000000E+01 0.  1.
         25    2    1    2    0    0  0.00000000000E+00  0.00000000000E+00 -0.67336612995E+03  0.68486941600E+03  0.12499668802E+03 0.  0.
    9000005    1    3    3    0    0  0.60150072128E+02 -0.16913863695E+02 -0.34197555317E+03  0.34763830188E+03  0.10000000000E+01 0.  0.
    9000005    1    3    3    0    0 -0.60150072128E+02  0.16913863695E+02 -0.33139057677E+03  0.33723111413E+03  0.10000000000E+01 0.  0.
<mgrwt>
<rscale>  0 0.12499669E+03</rscale>
<asrwt>0</asrwt>
<pdfrwt beam="1">  1        4 0.88486869E-03 0.12499669E+03</pdfrwt>
<pdfrwt beam="2">  1       -4 0.10447959E+00 0.12499669E+03</pdfrwt>
<totfact> 0.43900747E+03</totfact>
</mgrwt>
</event>
<event>
 5    1  0.3271306E-002  0.1249918E+03  0.7818608E-02  0.1235082E+00
         -4   -1    0    0    0  501 -0.00000000000E+00  0.00000000000E+00  0.27574402716E+02  0.27603633550E+02  0.12700000000E+01 0. -1.
          4   -1    0    0  501    0  0.00000000000E+00 -0.00000000000E+00 -0.14153636568E+03  0.14154206340E+03  0.12700000000E+01 0. -1.
         25    2    1    2    0    0  0.00000000000E+00  0.00000000000E+00 -0.11396196297E+03  0.16914569695E+03  0.12499175090E+03 0.  0.
    9000005    1    3    3    0    0 -0.93436467038E+01  0.30991613623E+02  0.15351100781E+02  0.35839086817E+02  0.10000000000E+01 0.  0.
    9000005    1    3    3    0    0  0.93436467038E+01 -0.30991613623E+02 -0.12931306375E+03  0.13330661013E+03  0.10000000000E+01 0.  0.
<mgrwt>
<rscale>  0 0.12499175E+03</rscale>
<asrwt>0</asrwt>
<pdfrwt beam="2">  1        4 0.21777512E-01 0.12499175E+03</pdfrwt>
<pdfrwt beam="1">  1       -4 0.42449027E-02 0.12499175E+03</pdfrwt>
<totfact> 0.95625684E+03</totfact>
</mgrwt>
</event>
<event>
 5    1  0.3271306E-002  0.1249892E+03  0.7818608E-02  0.1235086E+00
         -4   -1    0    0    0  501 -0.00000000000E+00  0.00000000000E+00  0.22672052721E+03  0.22672408421E+03  0.12700000000E+01 0.  1.
          4   -1    0    0  501    0  0.00000000000E+00 -0.00000000000E+00 -0.17199269980E+02  0.17246094858E+02  0.12700000000E+01 0.  1.
         25    2    1    2    0    0  0.00000000000E+00  0.00000000000E+00  0.20952125723E+03  0.24397017907E+03  0.12498916369E+03 0.  0.
    9000005    1    3    3    0    0  0.25050527563E+02  0.23364441274E+02  0.27520026037E+01  0.34380220557E+02  0.10000000000E+01 0.  0.
    9000005    1    3    3    0    0 -0.25050527563E+02 -0.23364441274E+02  0.20676925463E+03  0.20958995851E+03  0.10000000000E+01 0.  0.
<mgrwt>
<rscale>  0 0.12498916E+03</rscale>
<asrwt>0</asrwt>
<pdfrwt beam="2">  1        4 0.26499172E-02 0.12498916E+03</pdfrwt>
<pdfrwt beam="1">  1       -4 0.34883954E-01 0.12498916E+03</pdfrwt>
<totfact> 0.83229710E+03</totfact>
</mgrwt>
</event>
<event>
 5    1  0.3271306E-002  0.1250012E+03  0.7818608E-02  0.1235067E+00
         -4   -1    0    0    0  501 -0.00000000000E+00  0.00000000000E+00  0.17051656826E+03  0.17052129764E+03  0.12700000000E+01 0.  1.
          4   -1    0    0  501    0  0.00000000000E+00 -0.00000000000E+00 -0.22886123071E+02  0.22921333496E+02  0.12700000000E+01 0.  1.
         25    2    1    2    0    0  0.00000000000E+00  0.00000000000E+00  0.14763044518E+03  0.19344263114E+03  0.12500121278E+03 0.  0.
    9000005    1    3    3    0    0 -0.30532932797E+01 -0.58828449288E+02  0.41530967766E+02  0.72082801895E+02  0.10000000000E+01 0.  0.
    9000005    1    3    3    0    0  0.30532932797E+01  0.58828449288E+02  0.10609947742E+03  0.12135982924E+03  0.10000000000E+01 0.  0.
<mgrwt>
<rscale>  0 0.12500121E+03</rscale>
<asrwt>0</asrwt>
<pdfrwt beam="2">  1        4 0.35240143E-02 0.12500121E+03</pdfrwt>
<pdfrwt beam="1">  1       -4 0.26236391E-01 0.12500121E+03</pdfrwt>
<totfact> 0.91249256E+03</totfact>
</mgrwt>
</event>
<event>
 5    1  0.3271306E-002  0.1249992E+03  0.7818608E-02  0.1235070E+00
         -4   -1    0    0    0  501 -0.00000000000E+00  0.00000000000E+00  0.58400153599E+02  0.58413961006E+02  0.12700000000E+01 0. -1.
          4   -1    0    0  501    0  0.00000000000E+00 -0.00000000000E+00 -0.66859112628E+02  0.66871173472E+02  0.12700000000E+01 0. -1.
         25    2    1    2    0    0  0.00000000000E+00  0.00000000000E+00 -0.84589590297E+01  0.12528513448E+03  0.12499924373E+03 0.  0.
    9000005    1    3    3    0    0 -0.56867672358E+02  0.22615515075E+02  0.84409939980E+01  0.61787086524E+02  0.10000000000E+01 0.  0.
    9000005    1    3    3    0    0  0.56867672358E+02 -0.22615515075E+02 -0.16899953028E+02  0.63498047953E+02  0.10000000000E+01 0.  0.
<mgrwt>
<rscale>  0 0.12499924E+03</rscale>
<asrwt>0</asrwt>
<pdfrwt beam="2">  1        4 0.10288007E-01 0.12499924E+03</pdfrwt>
<pdfrwt beam="1">  1       -4 0.89866289E-02 0.12499924E+03</pdfrwt>
<totfact> 0.10446851E+04</totfact>
</mgrwt>
</event>
<event>
 5    1  0.3271306E-002  0.1250003E+03  0.7818608E-02  0.1235069E+00
         -4   -1    0    0    0  501 -0.00000000000E+00  0.00000000000E+00  0.33307525092E+01  0.35646615937E+01  0.12700000000E+01 0. -1.
          4   -1    0    0  501    0  0.00000000000E+00 -0.00000000000E+00 -0.11327705662E+04  0.11327712781E+04  0.12700000000E+01 0. -1.
         25    2    1    2    0    0  0.00000000000E+00  0.00000000000E+00 -0.11294398137E+04  0.11363359397E+04  0.12500030060E+03 0.  0.
    9000005    1    3    3    0    0  0.38588078915E+02 -0.45287200578E+02 -0.39097200035E+03  0.39547449403E+03  0.10000000000E+01 0.  0.
    9000005    1    3    3    0    0 -0.38588078915E+02  0.45287200578E+02 -0.73846781334E+03  0.74086144569E+03  0.10000000000E+01 0.  0.
<mgrwt>
<rscale>  0 0.12500030E+03</rscale>
<asrwt>0</asrwt>
<pdfrwt beam="2">  1        4 0.17429015E+00 0.12500030E+03</pdfrwt>
<pdfrwt beam="1">  1       -4 0.53047214E-03 0.12500030E+03</pdfrwt>
<totfact> 0.26442302E+03</totfact>
</mgrwt>
</event>
<event>
 5    1  0.3271306E-002  0.1249964E+03  0.7818608E-02  0.1235075E+00
          4   -1    0    0  501    0  0.00000000000E+00  0.00000000000E+00  0.21633404698E+02  0.21670650633E+02  0.12700000000E+01 0. -1.
         -4   -1    0    0    0  501 -0.00000000000E+00 -0.00000000000E+00 -0.18036034778E+03  0.18036481906E+03  0.12700000000E+01 0. -1.
         25    2    1    2    0    0  0.00000000000E+00  0.00000000000E+00 -0.15872694309E+03  0.20203546969E+03  0.12499635415E+03 0.  0.
    9000005    1    3    3    0    0  0.58643635572E+02  0.81587695112E+00 -0.11422831316E+03  0.12840891392E+03  0.10000000000E+01 0.  0.
    9000005    1    3    3    0    0 -0.58643635572E+02 -0.81587695112E+00 -0.44498629930E+02  0.73626555766E+02  0.10000000000E+01 0.  0.
<mgrwt>
<rscale>  0 0.12499635E+03</rscale>
<asrwt>0</asrwt>
<pdfrwt beam="1">  1        4 0.33314252E-02 0.12499635E+03</pdfrwt>
<pdfrwt beam="2">  1       -4 0.27750954E-01 0.12499635E+03</pdfrwt>
<totfact> 0.89800665E+03</totfact>
</mgrwt>
</event>
<event>
 5    1  0.3271306E-002  0.1250348E+03  0.7818608E-02  0.1235015E+00
         -4   -1    0    0    0  501 -0.00000000000E+00  0.00000000000E+00  0.36635530696E+03  0.36635750824E+03  0.12700000000E+01 0. -1.
          4   -1    0    0  501    0  0.00000000000E+00 -0.00000000000E+00 -0.10628355736E+02  0.10703964016E+02  0.12700000000E+01 0. -1.
         25    2    1    2    0    0  0.00000000000E+00  0.00000000000E+00  0.35572695123E+03  0.37706147225E+03  0.12503475528E+03 0.  0.
    9000005    1    3    3    0    0 -0.13560064337E+02 -0.51069725505E+02  0.27858044033E+03  0.28354903270E+03  0.10000000000E+01 0.  0.
    9000005    1    3    3    0    0  0.13560064337E+02  0.51069725505E+02  0.77146510894E+02  0.93512439553E+02  0.10000000000E+01 0.  0.
<mgrwt>
<rscale>  0 0.12503476E+03</rscale>
<asrwt>0</asrwt>
<pdfrwt beam="2">  1        4 0.16411170E-02 0.12503476E+03</pdfrwt>
<pdfrwt beam="1">  1       -4 0.56368341E-01 0.12503476E+03</pdfrwt>
<totfact> 0.66795267E+03</totfact>
</mgrwt>
</event>
<event>
 5    1  0.3271306E-002  0.1250057E+03  0.7818608E-02  0.1235060E+00
          4   -1    0    0  501    0  0.00000000000E+00  0.00000000000E+00  0.16378785429E+02  0.16427949115E+02  0.12700000000E+01 0. -1.
         -4   -1    0    0    0  501 -0.00000000000E+00 -0.00000000000E+00 -0.23810789314E+03  0.23811128003E+03  0.12700000000E+01 0. -1.
         25    2    1    2    0    0  0.00000000000E+00  0.00000000000E+00 -0.22172910771E+03  0.25453922914E+03  0.12500568773E+03 0.  0.
    9000005    1    3    3    0    0 -0.34707903816E+02 -0.35396030448E+02 -0.18835040680E+03  0.19476753656E+03  0.10000000000E+01 0.  0.
    9000005    1    3    3    0    0  0.34707903816E+02  0.35396030448E+02 -0.33378700917E+02  0.59771692579E+02  0.10000000000E+01 0.  0.
<mgrwt>
<rscale>  0 0.12500569E+03</rscale>
<asrwt>0</asrwt>
<pdfrwt beam="1">  1        4 0.25238557E-02 0.12500569E+03</pdfrwt>
<pdfrwt beam="2">  1       -4 0.36636023E-01 0.12500569E+03</pdfrwt>
<totfact> 0.81668219E+03</totfact>
</mgrwt>
</event>
<event>
 5    1  0.3271306E-002  0.1250182E+03  0.7818608E-02  0.1235041E+00
          4   -1    0    0  501    0  0.00000000000E+00  0.00000000000E+00  0.70536093546E+02  0.70547525774E+02  0.12700000000E+01 0. -1.
         -4   -1    0    0    0  501 -0.00000000000E+00 -0.00000000000E+00 -0.55372334012E+02  0.55386896229E+02  0.12700000000E+01 0. -1.
         25    2    1    2    0    0  0.00000000000E+00  0.00000000000E+00  0.15163759535E+02  0.12593442200E+03  0.12501815485E+03 0.  0.
    9000005    1    3    3    0    0  0.48821369966E+01  0.33945490246E+01  0.70255451067E+02  0.70513733622E+02  0.10000000000E+01 0.  0.
    9000005    1    3    3    0    0 -0.48821369966E+01 -0.33945490246E+01 -0.55091691532E+02  0.55420688381E+02  0.10000000000E+01 0.  0.
<mgrwt>
<rscale>  0 0.12501815E+03</rscale>
<asrwt>0</asrwt>
<pdfrwt beam="1">  1        4 0.10853706E-01 0.12501815E+03</pdfrwt>
<pdfrwt beam="2">  1       -4 0.85208202E-02 0.12501815E+03</pdfrwt>
<totfact> 0.10428122E+04</totfact>
</mgrwt>
</event>
<event>
 5    1  0.3271306E-002  0.1250008E+03  0.7818608E-02  0.1235068E+00
          4   -1    0    0  501    0  0.00000000000E+00  0.00000000000E+00  0.20891922110E+03  0.20892308117E+03  0.12700000000E+01 0. -1.
         -4   -1    0    0    0  501 -0.00000000000E+00 -0.00000000000E+00 -0.18672043033E+02  0.18715183436E+02  0.12700000000E+01 0. -1.
         25    2    1    2    0    0  0.00000000000E+00  0.00000000000E+00  0.19024717807E+03  0.22763826461E+03  0.12500076300E+03 0.  0.
    9000005    1    3    3    0    0 -0.55492178581E+02  0.99887025665E+01  0.14419666359E+03  0.15483163066E+03  0.10000000000E+01 0.  0.
    9000005    1    3    3    0    0  0.55492178581E+02 -0.99887025665E+01  0.46050514477E+02  0.72806633944E+02  0.10000000000E+01 0.  0.
<mgrwt>
<rscale>  0 0.12500076E+03</rscale>
<asrwt>0</asrwt>
<pdfrwt beam="1">  1        4 0.32145032E-01 0.12500076E+03</pdfrwt>
<pdfrwt beam="2">  1       -4 0.28762376E-02 0.12500076E+03</pdfrwt>
<totfact> 0.85672110E+03</totfact>
</mgrwt>
</event>
<event>
 5    1  0.3271306E-002  0.1250002E+03  0.7818608E-02  0.1235069E+00
         -4   -1    0    0    0  501 -0.00000000000E+00  0.00000000000E+00  0.20987243080E+03  0.20987627334E+03  0.12700000000E+01 0. -1.
          4   -1    0    0  501    0  0.00000000000E+00 -0.00000000000E+00 -0.18586879231E+02  0.18630216841E+02  0.12700000000E+01 0. -1.
         25    2    1    2    0    0  0.00000000000E+00  0.00000000000E+00  0.19128555157E+03  0.22850649018E+03  0.12500021526E+03 0.  0.
    9000005    1    3    3    0    0  0.11264227739E+01 -0.54093400029E+02  0.15280836878E+03  0.16210725562E+03  0.10000000000E+01 0.  0.
    9000005    1    3    3    0    0 -0.11264227739E+01  0.54093400029E+02  0.38477182795E+02  0.66399234565E+02  0.10000000000E+01 0.  0.
<mgrwt>
<rscale>  0 0.12500022E+03</rscale>
<asrwt>0</asrwt>
<pdfrwt beam="2">  1        4 0.28631490E-02 0.12500022E+03</pdfrwt>
<pdfrwt beam="1">  1       -4 0.32291697E-01 0.12500022E+03</pdfrwt>
<totfact> 0.85539042E+03</totfact>
</mgrwt>
</event>
<event>
 5    1  0.3271306E-002  0.1249955E+03  0.7818608E-02  0.1235076E+00
         -4   -1    0    0    0  501 -0.00000000000E+00  0.00000000000E+00  0.27405508685E+03  0.27405802949E+03  0.12700000000E+01 0.  1.
          4   -1    0    0  501    0  0.00000000000E+00 -0.00000000000E+00 -0.14221172427E+02  0.14277767515E+02  0.12700000000E+01 0.  1.
         25    2    1    2    0    0  0.00000000000E+00  0.00000000000E+00  0.25983391443E+03  0.28833579701E+03  0.12499547492E+03 0.  0.
    9000005    1    3    3    0    0  0.31822552125E+02  0.52032321852E+02  0.98547444156E+02  0.11589924974E+03  0.10000000000E+01 0.  0.
    9000005    1    3    3    0    0 -0.31822552125E+02 -0.52032321852E+02  0.16128647027E+03  0.17243654727E+03  0.10000000000E+01 0.  0.
<mgrwt>
<rscale>  0 0.12499547E+03</rscale>
<asrwt>0</asrwt>
<pdfrwt beam="2">  1        4 0.21924526E-02 0.12499547E+03</pdfrwt>
<pdfrwt beam="1">  1       -4 0.42166900E-01 0.12499547E+03</pdfrwt>
<totfact> 0.77093413E+03</totfact>
</mgrwt>
</event>
<event>
 5    1  0.3271306E-002  0.1249993E+03  0.7818608E-02  0.1235070E+00
          4   -1    0    0  501    0  0.00000000000E+00  0.00000000000E+00  0.33737191587E+03  0.33737430625E+03  0.12700000000E+01 0. -1.
         -4   -1    0    0    0  501 -0.00000000000E+00 -0.00000000000E+00 -0.11541081747E+02  0.11610747947E+02  0.12700000000E+01 0. -1.
         25    2    1    2    0    0  0.00000000000E+00  0.00000000000E+00  0.32583083412E+03  0.34898505420E+03  0.12499934235E+03 0.  0.
    9000005    1    3    3    0    0 -0.26404184400E+02 -0.55887152990E+02  0.18860298754E+03  0.19847579634E+03  0.10000000000E+01 0.  0.
    9000005    1    3    3    0    0  0.26404184400E+02  0.55887152990E+02  0.13722784658E+03  0.15050925786E+03  0.10000000000E+01 0.  0.
<mgrwt>
<rscale>  0 0.12499934E+03</rscale>
<asrwt>0</asrwt>
<pdfrwt beam="1">  1        4 0.51908922E-01 0.12499934E+03</pdfrwt>
<pdfrwt beam="2">  1       -4 0.17810936E-02 0.12499934E+03</pdfrwt>
<totfact> 0.69837366E+03</totfact>
</mgrwt>
</event>
<event>
 5    1  0.3271306E-002  0.1250052E+03  0.7818608E-02  0.1235061E+00
         -4   -1    0    0    0  501 -0.00000000000E+00  0.00000000000E+00  0.76656675585E+02  0.76667195147E+02  0.12700000000E+01 0. -1.
          4   -1    0    0  501    0  0.00000000000E+00 -0.00000000000E+00 -0.50940019586E+02  0.50955848490E+02  0.12700000000E+01 0. -1.
         25    2    1    2    0    0  0.00000000000E+00  0.00000000000E+00  0.25716656000E+02  0.12762304364E+03  0.12500517938E+03 0.  0.
    9000005    1    3    3    0    0  0.25957259671E+02  0.54617202767E+02  0.28960611914E+02  0.67056209333E+02  0.10000000000E+01 0.  0.
    9000005    1    3    3    0    0 -0.25957259671E+02 -0.54617202767E+02 -0.32439559142E+01  0.60566834305E+02  0.10000000000E+01 0.  0.
<mgrwt>
<rscale>  0 0.12500518E+03</rscale>
<asrwt>0</asrwt>
<pdfrwt beam="2">  1        4 0.78389529E-02 0.12500518E+03</pdfrwt>
<pdfrwt beam="1">  1       -4 0.11795361E-01 0.12500518E+03</pdfrwt>
<totfact> 0.10394421E+04</totfact>
</mgrwt>
</event>
<event>
 5    1  0.3271306E-002  0.1249952E+03  0.7818608E-02  0.1235077E+00
          4   -1    0    0  501    0  0.00000000000E+00  0.00000000000E+00  0.52115717337E+02  0.52131189259E+02  0.12700000000E+01 0. -1.
         -4   -1    0    0    0  501 -0.00000000000E+00 -0.00000000000E+00 -0.74915709805E+02  0.74926473797E+02  0.12700000000E+01 0. -1.
         25    2    1    2    0    0  0.00000000000E+00  0.00000000000E+00 -0.22799992469E+02  0.12705766306E+03  0.12499524025E+03 0.  0.
    9000005    1    3    3    0    0  0.10696379386E+01 -0.51096906504E+02  0.25150417521E+02  0.56970005100E+02  0.10000000000E+01 0.  0.
    9000005    1    3    3    0    0 -0.10696379386E+01  0.51096906504E+02 -0.47950409990E+02  0.70087657956E+02  0.10000000000E+01 0.  0.
<mgrwt>
<rscale>  0 0.12499524E+03</rscale>
<asrwt>0</asrwt>
<pdfrwt beam="1">  1        4 0.80198209E-02 0.12499524E+03</pdfrwt>
<pdfrwt beam="2">  1       -4 0.11527512E-01 0.12499524E+03</pdfrwt>
<totfact> 0.10409011E+04</totfact>
</mgrwt>
</event>
<event>
 4    1  0.3271306E-002  0.1249298E+03  0.7818608E-02  0.1235179E+00
          4   -1    0    0  501    0  0.00000000000E+00  0.00000000000E+00  0.21348252033E+03  0.21348629788E+03  0.12700000000E+01 0. -1.
         -4   -1    0    0    0  501 -0.00000000000E+00 -0.00000000000E+00 -0.18251192760E+02  0.18295325555E+02  0.12700000000E+01 0. -1.
    9000005    1    1    2    0    0 -0.10405022800E+02 -0.17582044620E+02  0.20711690522E+03  0.20812449452E+03  0.10000000000E+01 0.  0.
    9000005    1    1    2    0    0  0.10405022800E+02  0.17582044620E+02 -0.11885577654E+02  0.23657128918E+02  0.10000000000E+01 0.  0.
<mgrwt>
<rscale>  0 0.12492978E+03</rscale>
<asrwt>0</asrwt>
<pdfrwt beam="1">  1        4 0.32847152E-01 0.12492978E+03</pdfrwt>
<pdfrwt beam="2">  1       -4 0.28115611E-02 0.12492978E+03</pdfrwt>
<totfact> 0.85170122E+03</totfact>
</mgrwt>
</event>
<event>
 5    1  0.3271306E-002  0.1250035E+03  0.7818608E-02  0.1235064E+00
         -4   -1    0    0    0  501 -0.00000000000E+00  0.00000000000E+00  0.13407643282E+03  0.13408244754E+03  0.12700000000E+01 0.  1.
          4   -1    0    0  501    0  0.00000000000E+00 -0.00000000000E+00 -0.29115641066E+02  0.29143326075E+02  0.12700000000E+01 0.  1.
         25    2    1    2    0    0  0.00000000000E+00  0.00000000000E+00  0.10496079176E+03  0.16322577362E+03  0.12500354141E+03 0.  0.
    9000005    1    3    3    0    0  0.44669400754E+02 -0.37591870611E+02  0.23371193871E+02  0.62894489446E+02  0.10000000000E+01 0.  0.
    9000005    1    3    3    0    0 -0.44669400754E+02  0.37591870611E+02  0.81589597886E+02  0.10033128417E+03  0.10000000000E+01 0.  0.
<mgrwt>
<rscale>  0 0.12500354E+03</rscale>
<asrwt>0</asrwt>
<pdfrwt beam="2">  1        4 0.44819217E-02 0.12500354E+03</pdfrwt>
<pdfrwt beam="1">  1       -4 0.20629736E-01 0.12500354E+03</pdfrwt>
<totfact> 0.96716765E+03</totfact>
</mgrwt>
</event>
<event>
 5    1  0.3271306E-002  0.1250002E+03  0.7818608E-02  0.1235069E+00
          4   -1    0    0  501    0  0.00000000000E+00  0.00000000000E+00  0.17961722085E+03  0.17962171062E+03  0.12700000000E+01 0.  1.
         -4   -1    0    0    0  501 -0.00000000000E+00 -0.00000000000E+00 -0.21724400419E+02  0.21761490610E+02  0.12700000000E+01 0.  1.
         25    2    1    2    0    0  0.00000000000E+00  0.00000000000E+00  0.15789282043E+03  0.20138320123E+03  0.12500020397E+03 0.  0.
    9000005    1    3    3    0    0 -0.13136421262E+02 -0.35240559978E+02 -0.14583863163E+01  0.37650890053E+02  0.10000000000E+01 0.  0.
    9000005    1    3    3    0    0  0.13136421262E+02  0.35240559978E+02  0.15935120675E+03  0.16373231118E+03  0.10000000000E+01 0.  0.
<mgrwt>
<rscale>  0 0.12500020E+03</rscale>
<asrwt>0</asrwt>
<pdfrwt beam="1">  1        4 0.27636618E-01 0.12500020E+03</pdfrwt>
<pdfrwt beam="2">  1       -4 0.33454138E-02 0.12500020E+03</pdfrwt>
<totfact> 0.89902330E+03</totfact>
</mgrwt>
</event>
<event>
 5    1  0.3271306E-002  0.1249643E+03  0.7818608E-02  0.1235125E+00
          4   -1    0    0  501    0  0.00000000000E+00  0.00000000000E+00  0.32334621952E+02  0.32359553100E+02  0.12700000000E+01 0.  1.
         -4   -1    0    0    0  501 -0.00000000000E+00 -0.00000000000E+00 -0.12066330849E+03  0.12066999178E+03  0.12700000000E+01 0.  1.
         25    2    1    2    0    0  0.00000000000E+00  0.00000000000E+00 -0.88328686538E+02  0.15302954488E+03  0.12496433387E+03 0.  0.
    9000005    1    3    3    0    0  0.53560282073E-01 -0.27087440305E+02  0.24775473138E+02  0.36722695437E+02  0.10000000000E+01 0.  0.
    9000005    1    3    3    0    0 -0.53560282073E-01  0.27087440305E+02 -0.11310415968E+03  0.11630684944E+03  0.10000000000E+01 0.  0.
<mgrwt>
<rscale>  0 0.12496433E+03</rscale>
<asrwt>0</asrwt>
<pdfrwt beam="1">  1        4 0.49769892E-02 0.12496433E+03</pdfrwt>
<pdfrwt beam="2">  1       -4 0.18566018E-01 0.12496433E+03</pdfrwt>
<totfact> 0.98782439E+03</totfact>
</mgrwt>
</event>
<event>
 4    1  0.3271306E-002  0.1248828E+03  0.7818608E-02  0.1235253E+00
          4   -1    0    0  501    0  0.00000000000E+00  0.00000000000E+00  0.91277976409E+02  0.91286811081E+02  0.12700000000E+01 0. -1.
         -4   -1    0    0    0  501 -0.00000000000E+00 -0.00000000000E+00 -0.42694517170E+02  0.42713401836E+02  0.12700000000E+01 0. -1.
    9000005    1    1    2    0    0 -0.35509674207E+02  0.18847158679E+02 -0.26963629645E+02  0.48416832571E+02  0.10000000000E+01 0.  0.
    9000005    1    1    2    0    0  0.35509674207E+02 -0.18847158679E+02  0.75547088884E+02  0.85583380346E+02  0.10000000000E+01 0.  0.
<mgrwt>
<rscale>  0 0.12488276E+03</rscale>
<asrwt>0</asrwt>
<pdfrwt beam="1">  1        4 0.14044898E-01 0.12488276E+03</pdfrwt>
<pdfrwt beam="2">  1       -4 0.65705196E-02 0.12488276E+03</pdfrwt>
<totfact> 0.10286362E+04</totfact>
</mgrwt>
</event>
<event>
 5    1  0.3271306E-002  0.1249946E+03  0.7818608E-02  0.1235078E+00
         -4   -1    0    0    0  501 -0.00000000000E+00  0.00000000000E+00  0.45249475364E+02  0.45267294162E+02  0.12700000000E+01 0. -1.
          4   -1    0    0  501    0  0.00000000000E+00 -0.00000000000E+00 -0.86279998841E+02  0.86289345229E+02  0.12700000000E+01 0. -1.
         25    2    1    2    0    0  0.00000000000E+00  0.00000000000E+00 -0.41030523476E+02  0.13155663939E+03  0.12499458193E+03 0.  0.
    9000005    1    3    3    0    0  0.34563794701E+02  0.51804755306E+02 -0.25935661013E+02  0.67468860140E+02  0.10000000000E+01 0.  0.
    9000005    1    3    3    0    0 -0.34563794701E+02 -0.51804755306E+02 -0.15094862463E+02  0.64087779250E+02  0.10000000000E+01 0.  0.
<mgrwt>
<rscale>  0 0.12499458E+03</rscale>
<asrwt>0</asrwt>
<pdfrwt beam="2">  1        4 0.13275936E-01 0.12499458E+03</pdfrwt>
<pdfrwt beam="1">  1       -4 0.69635474E-02 0.12499458E+03</pdfrwt>
<totfact> 0.10312431E+04</totfact>
</mgrwt>
</event>
<event>
 5    1  0.3271306E-002  0.1250000E+03  0.7818608E-02  0.1235069E+00
          4   -1    0    0  501    0  0.00000000000E+00  0.00000000000E+00  0.44219521372E+02  0.44237755033E+02  0.12700000000E+01 0.  1.
         -4   -1    0    0    0  501 -0.00000000000E+00 -0.00000000000E+00 -0.88296662435E+02  0.88305795377E+02  0.12700000000E+01 0.  1.
         25    2    1    2    0    0  0.00000000000E+00  0.00000000000E+00 -0.44077141062E+02  0.13254355041E+03  0.12499999356E+03 0.  0.
    9000005    1    3    3    0    0  0.49555873876E+02  0.92637706042E+01  0.17117551381E+02  0.53250470859E+02  0.10000000000E+01 0.  0.
    9000005    1    3    3    0    0 -0.49555873876E+02 -0.92637706042E+01 -0.61194692443E+02  0.79293079551E+02  0.10000000000E+01 0.  0.
<mgrwt>
<rscale>  0 0.12499999E+03</rscale>
<asrwt>0</asrwt>
<pdfrwt beam="1">  1        4 0.68051085E-02 0.12499999E+03</pdfrwt>
<pdfrwt beam="2">  1       -4 0.13586207E-01 0.12499999E+03</pdfrwt>
<totfact> 0.10290112E+04</totfact>
</mgrwt>
</event>
<event>
 5    1  0.3271306E-002  0.1249965E+03  0.7818608E-02  0.1235075E+00
          4   -1    0    0  501    0  0.00000000000E+00  0.00000000000E+00  0.13119731089E+03  0.13120345759E+03  0.12700000000E+01 0. -1.
         -4   -1    0    0    0  501 -0.00000000000E+00 -0.00000000000E+00 -0.29751783326E+02  0.29778876927E+02  0.12700000000E+01 0. -1.
         25    2    1    2    0    0  0.00000000000E+00  0.00000000000E+00  0.10144552756E+03  0.16098233452E+03  0.12499646781E+03 0.  0.
    9000005    1    3    3    0    0  0.50077316456E+02 -0.25742399944E+02  0.85629720793E+02  0.10248833037E+03  0.10000000000E+01 0.  0.
    9000005    1    3    3    0    0 -0.50077316456E+02  0.25742399944E+02  0.15815806771E+02  0.58494004155E+02  0.10000000000E+01 0.  0.
<mgrwt>
<rscale>  0 0.12499647E+03</rscale>
<asrwt>0</asrwt>
<pdfrwt beam="1">  1        4 0.20186759E-01 0.12499647E+03</pdfrwt>
<pdfrwt beam="2">  1       -4 0.45797544E-02 0.12499647E+03</pdfrwt>
<totfact> 0.97161445E+03</totfact>
</mgrwt>
</event>
<event>
 5    1  0.3271306E-002  0.1250006E+03  0.7818608E-02  0.1235068E+00
         -4   -1    0    0    0  501 -0.00000000000E+00  0.00000000000E+00  0.13628125035E+03  0.13628716776E+03  0.12700000000E+01 0.  1.
          4   -1    0    0  501    0  0.00000000000E+00 -0.00000000000E+00 -0.28642797214E+02  0.28670938810E+02  0.12700000000E+01 0.  1.
         25    2    1    2    0    0  0.00000000000E+00  0.00000000000E+00  0.10763845313E+03  0.16495810657E+03  0.12500056132E+03 0.  0.
    9000005    1    3    3    0    0 -0.52453398701E+02  0.25631243445E+02  0.24400438384E+02  0.63282707505E+02  0.10000000000E+01 0.  0.
    9000005    1    3    3    0    0  0.52453398701E+02 -0.25631243445E+02  0.83238014748E+02  0.10167539907E+03  0.10000000000E+01 0.  0.
<mgrwt>
<rscale>  0 0.12500056E+03</rscale>
<asrwt>0</asrwt>
<pdfrwt beam="2">  1        4 0.44092041E-02 0.12500056E+03</pdfrwt>
<pdfrwt beam="1">  1       -4 0.20968966E-01 0.12500056E+03</pdfrwt>
<totfact> 0.96394111E+03</totfact>
</mgrwt>
</event>
<event>
 5    1  0.3271306E-002  0.1250000E+03  0.7818608E-02  0.1235069E+00
         -4   -1    0    0    0  501 -0.00000000000E+00  0.00000000000E+00  0.26834572488E+03  0.26834873013E+03  0.12700000000E+01 0.  1.
          4   -1    0    0  501    0  0.00000000000E+00 -0.00000000000E+00 -0.14525990581E+02  0.14581402620E+02  0.12700000000E+01 0.  1.
         25    2    1    2    0    0  0.00000000000E+00  0.00000000000E+00  0.25381973430E+03  0.28293013275E+03  0.12500000999E+03 0.  0.
    9000005    1    3    3    0    0  0.55304001323E+02  0.14050328501E+02  0.69234021048E+02  0.89723430406E+02  0.10000000000E+01 0.  0.
    9000005    1    3    3    0    0 -0.55304001323E+02 -0.14050328501E+02  0.18458571325E+03  0.19320670234E+03  0.10000000000E+01 0.  0.
<mgrwt>
<rscale>  0 0.12500001E+03</rscale>
<asrwt>0</asrwt>
<pdfrwt beam="2">  1        4 0.22392614E-02 0.12500001E+03</pdfrwt>
<pdfrwt beam="1">  1       -4 0.41288452E-01 0.12500001E+03</pdfrwt>
<totfact> 0.77791170E+03</totfact>
</mgrwt>
</event>
<event>
 5    1  0.3271306E-002  0.1250020E+03  0.7818608E-02  0.1235066E+00
          4   -1    0    0  501    0  0.00000000000E+00  0.00000000000E+00  0.30937046135E+01  0.33442350748E+01  0.12700000000E+01 0. -1.
         -4   -1    0    0    0  501 -0.00000000000E+00 -0.00000000000E+00 -0.12132981957E+04  0.12132988604E+04  0.12700000000E+01 0. -1.
         25    2    1    2    0    0  0.00000000000E+00  0.00000000000E+00 -0.12102044911E+04  0.12166430954E+04  0.12500204583E+03 0.  0.
    9000005    1    3    3    0    0  0.32586715851E+02  0.48170949051E+02 -0.38250746712E+03  0.38690476449E+03  0.10000000000E+01 0.  0.
    9000005    1    3    3    0    0 -0.32586715851E+02 -0.48170949051E+02 -0.82769702394E+03  0.82973833093E+03  0.10000000000E+01 0.  0.
<mgrwt>
<rscale>  0 0.12500205E+03</rscale>
<asrwt>0</asrwt>
<pdfrwt beam="1">  1        4 0.49527822E-03 0.12500205E+03</pdfrwt>
<pdfrwt beam="2">  1       -4 0.18668022E+00 0.12500205E+03</pdfrwt>
<totfact> 0.24280208E+03</totfact>
</mgrwt>
</event>
<event>
 5    1  0.3271306E-002  0.1250047E+03  0.7818608E-02  0.1235062E+00
         -4   -1    0    0    0  501 -0.00000000000E+00  0.00000000000E+00  0.10575894231E+04  0.10575901856E+04  0.12700000000E+01 0. -1.
          4   -1    0    0  501    0  0.00000000000E+00 -0.00000000000E+00 -0.35838696038E+01  0.38022389900E+01  0.12700000000E+01 0. -1.
         25    2    1    2    0    0  0.00000000000E+00  0.00000000000E+00  0.10540055535E+04  0.10613924246E+04  0.12500468892E+03 0.  0.
    9000005    1    3    3    0    0 -0.16227895709E+02 -0.94540873218E+01  0.20902933492E+02  0.28118623629E+02  0.10000000000E+01 0.  0.
    9000005    1    3    3    0    0  0.16227895709E+02  0.94540873218E+01  0.10331026200E+04  0.10332738010E+04  0.10000000000E+01 0.  0.
<mgrwt>
<rscale>  0 0.12500469E+03</rscale>
<asrwt>0</asrwt>
<pdfrwt beam="2">  1        4 0.56822072E-03 0.12500469E+03</pdfrwt>
<pdfrwt beam="1">  1       -4 0.16272296E+00 0.12500469E+03</pdfrwt>
<totfact> 0.28638766E+03</totfact>
</mgrwt>
</event>
<event>
 5    1  0.3271306E-002  0.1250014E+03  0.7818608E-02  0.1235067E+00
          4   -1    0    0  501    0  0.00000000000E+00  0.00000000000E+00  0.28814530233E+03  0.28814810108E+03  0.12700000000E+01 0.  1.
         -4   -1    0    0    0  501 -0.00000000000E+00 -0.00000000000E+00 -0.13524220144E+02  0.13583719318E+02  0.12700000000E+01 0.  1.
         25    2    1    2    0    0  0.00000000000E+00  0.00000000000E+00  0.27462108219E+03  0.30173182040E+03  0.12500141063E+03 0.  0.
    9000005    1    3    3    0    0 -0.17786007430E+02 -0.59314515840E+02  0.15761889467E+03  0.16934954918E+03  0.10000000000E+01 0.  0.
    9000005    1    3    3    0    0  0.17786007430E+02  0.59314515840E+02  0.11700218752E+03  0.13238227122E+03  0.10000000000E+01 0.  0.
<mgrwt>
<rscale>  0 0.12500141E+03</rscale>
<asrwt>0</asrwt>
<pdfrwt beam="1">  1        4 0.44334839E-01 0.12500141E+03</pdfrwt>
<pdfrwt beam="2">  1       -4 0.20854414E-02 0.12500141E+03</pdfrwt>
<totfact> 0.75379752E+03</totfact>
</mgrwt>
</event>
<event>
 5    1  0.3271306E-002  0.1249984E+03  0.7818608E-02  0.1235072E+00
         -4   -1    0    0    0  501 -0.00000000000E+00  0.00000000000E+00  0.11245713804E+01  0.16963374634E+01  0.12700000000E+01 0.  1.
          4   -1    0    0  501    0  0.00000000000E+00 -0.00000000000E+00 -0.27688563897E+04  0.27688566809E+04  0.12700000000E+01 0.  1.
         25    2    1    2    0    0  0.00000000000E+00  0.00000000000E+00 -0.27677318183E+04  0.27705530184E+04  0.12499843896E+03 0.  0.
    9000005    1    3    3    0    0  0.35850751860E+02  0.38019940963E+02 -0.62430514529E+03  0.62648919125E+03  0.10000000000E+01 0.  0.
    9000005    1    3    3    0    0 -0.35850751860E+02 -0.38019940963E+02 -0.21434266730E+04  0.21440638271E+04  0.10000000000E+01 0.  0.
<mgrwt>
<rscale>  0 0.12499844E+03</rscale>
<asrwt>0</asrwt>
<pdfrwt beam="2">  1        4 0.42601756E+00 0.12499844E+03</pdfrwt>
<pdfrwt beam="1">  1       -4 0.21701761E-03 0.12499844E+03</pdfrwt>
<totfact> 0.28756695E+02</totfact>
</mgrwt>
</event>
<event>
 5    1  0.3271306E-002  0.1250015E+03  0.7818608E-02  0.1235067E+00
         -4   -1    0    0    0  501 -0.00000000000E+00  0.00000000000E+00  0.65274049961E+01  0.66498057102E+01  0.12700000000E+01 0. -1.
          4   -1    0    0  501    0  0.00000000000E+00 -0.00000000000E+00 -0.59277085854E+03  0.59277221902E+03  0.12700000000E+01 0. -1.
         25    2    1    2    0    0  0.00000000000E+00  0.00000000000E+00 -0.58624345355E+03  0.59942202473E+03  0.12500150759E+03 0.  0.
    9000005    1    3    3    0    0  0.27954984798E+02 -0.26831489620E+02 -0.58007594365E+02  0.69765973184E+02  0.10000000000E+01 0.  0.
    9000005    1    3    3    0    0 -0.27954984798E+02  0.26831489620E+02 -0.52823585918E+03  0.52965605154E+03  0.10000000000E+01 0.  0.
<mgrwt>
<rscale>  0 0.12500151E+03</rscale>
<asrwt>0</asrwt>
<pdfrwt beam="2">  1        4 0.91204995E-01 0.12500151E+03</pdfrwt>
<pdfrwt beam="1">  1       -4 0.10137367E-02 0.12500151E+03</pdfrwt>
<totfact> 0.48902514E+03</totfact>
</mgrwt>
</event>
<event>
 5    1  0.3271306E-002  0.1249792E+03  0.7818608E-02  0.1235102E+00
          4   -1    0    0  501    0  0.00000000000E+00  0.00000000000E+00  0.60577070522E+02  0.60590381852E+02  0.12700000000E+01 0. -1.
         -4   -1    0    0    0  501 -0.00000000000E+00 -0.00000000000E+00 -0.64435826380E+02  0.64448340718E+02  0.12700000000E+01 0. -1.
         25    2    1    2    0    0  0.00000000000E+00  0.00000000000E+00 -0.38587558582E+01  0.12503872257E+03  0.12497916684E+03 0.  0.
    9000005    1    3    3    0    0 -0.34223044046E+01  0.49887604352E+02  0.35551292961E+02  0.61362689533E+02  0.10000000000E+01 0.  0.
    9000005    1    3    3    0    0  0.34223044046E+01 -0.49887604352E+02 -0.39410048820E+02  0.63676033038E+02  0.10000000000E+01 0.  0.
<mgrwt>
<rscale>  0 0.12497917E+03</rscale>
<asrwt>0</asrwt>
<pdfrwt beam="1">  1        4 0.93215359E-02 0.12497917E+03</pdfrwt>
<pdfrwt beam="2">  1       -4 0.99151906E-02 0.12497917E+03</pdfrwt>
<totfact> 0.10456944E+04</totfact>
</mgrwt>
</event>
<event>
 5    1  0.3271306E-002  0.1249901E+03  0.7818608E-02  0.1235085E+00
          4   -1    0    0  501    0  0.00000000000E+00  0.00000000000E+00  0.57334940275E+02  0.57349004145E+02  0.12700000000E+01 0. -1.
         -4   -1    0    0    0  501 -0.00000000000E+00 -0.00000000000E+00 -0.68091176311E+02  0.68103018960E+02  0.12700000000E+01 0. -1.
         25    2    1    2    0    0  0.00000000000E+00  0.00000000000E+00 -0.10756236036E+02  0.12545202310E+03  0.12499005355E+03 0.  0.
    9000005    1    3    3    0    0  0.46852095609E+01  0.38108370371E+02 -0.54859715317E+02  0.66968555648E+02  0.10000000000E+01 0.  0.
    9000005    1    3    3    0    0 -0.46852095609E+01 -0.38108370371E+02  0.44103479281E+02  0.58483467456E+02  0.10000000000E+01 0.  0.
<mgrwt>
<rscale>  0 0.12499005E+03</rscale>
<asrwt>0</asrwt>
<pdfrwt beam="1">  1        4 0.88227529E-02 0.12499005E+03</pdfrwt>
<pdfrwt beam="2">  1       -4 0.10477558E-01 0.12499005E+03</pdfrwt>
<totfact> 0.10445358E+04</totfact>
</mgrwt>
</event>
<event>
 5    1  0.3271306E-002  0.1250120E+03  0.7818608E-02  0.1235051E+00
         -4   -1    0    0    0  501 -0.00000000000E+00  0.00000000000E+00  0.40881444968E+02  0.40901166765E+02  0.12700000000E+01 0.  1.
          4   -1    0    0  501    0  0.00000000000E+00 -0.00000000000E+00 -0.95521993430E+02  0.95530435615E+02  0.12700000000E+01 0.  1.
         25    2    1    2    0    0  0.00000000000E+00  0.00000000000E+00 -0.54640548462E+02  0.13643160238E+03  0.12501196979E+03 0.  0.
    9000005    1    3    3    0    0 -0.90009840800E+01  0.61797737129E+02 -0.29997998959E+02  0.69288223893E+02  0.10000000000E+01 0.  0.
    9000005    1    3    3    0    0  0.90009840800E+01 -0.61797737129E+02 -0.24642549503E+02  0.67143378487E+02  0.10000000000E+01 0.  0.
<mgrwt>
<rscale>  0 0.12501197E+03</rscale>
<asrwt>0</asrwt>
<pdfrwt beam="2">  1        4 0.14697858E-01 0.12501197E+03</pdfrwt>
<pdfrwt beam="1">  1       -4 0.62916196E-02 0.12501197E+03</pdfrwt>
<totfact> 0.10205229E+04</totfact>
</mgrwt>
</event>
<event>
 5    1  0.3271306E-002  0.1250013E+03  0.7818608E-02  0.1235067E+00
         -4   -1    0    0    0  501 -0.00000000000E+00  0.00000000000E+00  0.83186270681E+01  0.84150137432E+01  0.12700000000E+01 0.  1.
          4   -1    0    0  501    0  0.00000000000E+00 -0.00000000000E+00 -0.46678671631E+03  0.46678844397E+03  0.12700000000E+01 0.  1.
         25    2    1    2    0    0  0.00000000000E+00  0.00000000000E+00 -0.45846808924E+03  0.47520345771E+03  0.12500134947E+03 0.  0.
    9000005    1    3    3    0    0  0.37867277901E+02  0.46502339050E+02 -0.29605292571E+03  0.30206743137E+03  0.10000000000E+01 0.  0.
    9000005    1    3    3    0    0 -0.37867277901E+02 -0.46502339050E+02 -0.16241516353E+03  0.17313602635E+03  0.10000000000E+01 0.  0.
<mgrwt>
<rscale>  0 0.12500135E+03</rscale>
<asrwt>0</asrwt>
<pdfrwt beam="2">  1        4 0.71820868E-01 0.12500135E+03</pdfrwt>
<pdfrwt beam="1">  1       -4 0.12873364E-02 0.12500135E+03</pdfrwt>
<totfact> 0.57839235E+03</totfact>
</mgrwt>
</event>
<event>
 5    1  0.3271306E-002  0.1250000E+03  0.7818608E-02  0.1235069E+00
          4   -1    0    0  501    0  0.00000000000E+00  0.00000000000E+00  0.83536854280E+03  0.83536950818E+03  0.12700000000E+01 0. -1.
         -4   -1    0    0    0  501 -0.00000000000E+00 -0.00000000000E+00 -0.45888639625E+01  0.47613624590E+01  0.12700000000E+01 0. -1.
         25    2    1    2    0    0  0.00000000000E+00  0.00000000000E+00  0.83077967883E+03  0.84013087064E+03  0.12500002014E+03 0.  0.
    9000005    1    3    3    0    0  0.20823953173E+02  0.57730447163E+02  0.49457554172E+03  0.49836975031E+03  0.10000000000E+01 0.  0.
    9000005    1    3    3    0    0 -0.20823953173E+02 -0.57730447163E+02  0.33620413711E+03  0.34176112033E+03  0.10000000000E+01 0.  0.
<mgrwt>
<rscale>  0 0.12500002E+03</rscale>
<asrwt>0</asrwt>
<pdfrwt beam="1">  1        4 0.12853155E+00 0.12500002E+03</pdfrwt>
<pdfrwt beam="2">  1       -4 0.71932262E-03 0.12500002E+03</pdfrwt>
<totfact> 0.36534608E+03</totfact>
</mgrwt>
</event>
<event>
 5    1  0.3271306E-002  0.1249949E+03  0.7818608E-02  0.1235077E+00
          4   -1    0    0  501    0  0.00000000000E+00  0.00000000000E+00  0.18330446416E+03  0.18330886361E+03  0.12700000000E+01 0.  1.
         -4   -1    0    0    0  501 -0.00000000000E+00 -0.00000000000E+00 -0.21284853133E+02  0.21322707916E+02  0.12700000000E+01 0.  1.
         25    2    1    2    0    0  0.00000000000E+00  0.00000000000E+00  0.16201961102E+03  0.20463157153E+03  0.12499490274E+03 0.  0.
    9000005    1    3    3    0    0  0.34158556493E+02 -0.39160227960E+02  0.24189711902E+02  0.57327764630E+02  0.10000000000E+01 0.  0.
    9000005    1    3    3    0    0 -0.34158556493E+02  0.39160227960E+02  0.13782989912E+03  0.14730380690E+03  0.10000000000E+01 0.  0.
<mgrwt>
<rscale>  0 0.12499490E+03</rscale>
<asrwt>0</asrwt>
<pdfrwt beam="1">  1        4 0.28203938E-01 0.12499490E+03</pdfrwt>
<pdfrwt beam="2">  1       -4 0.32778430E-02 0.12499490E+03</pdfrwt>
<totfact> 0.89370378E+03</totfact>
</mgrwt>
</event>
<event>
 5    1  0.3271306E-002  0.1250010E+03  0.7818608E-02  0.1235068E+00
         -4   -1    0    0    0  501 -0.00000000000E+00  0.00000000000E+00  0.20355023596E+03  0.20355419784E+03  0.12700000000E+01 0.  1.
          4   -1    0    0  501    0  0.00000000000E+00 -0.00000000000E+00 -0.19165734588E+02  0.19207766198E+02  0.12700000000E+01 0.  1.
         25    2    1    2    0    0  0.00000000000E+00  0.00000000000E+00  0.18438450137E+03  0.22276196404E+03  0.12500099310E+03 0.  0.
    9000005    1    3    3    0    0  0.46620989807E+02  0.39533850811E+02  0.69034101320E+02  0.92212521902E+02  0.10000000000E+01 0.  0.
    9000005    1    3    3    0    0 -0.46620989807E+02 -0.39533850811E+02  0.11535040005E+03  0.13054944214E+03  0.10000000000E+01 0.  0.
<mgrwt>
<rscale>  0 0.12500099E+03</rscale>
<asrwt>0</asrwt>
<pdfrwt beam="2">  1        4 0.29521126E-02 0.12500099E+03</pdfrwt>
<pdfrwt beam="1">  1       -4 0.31318958E-01 0.12500099E+03</pdfrwt>
<totfact> 0.86431266E+03</totfact>
</mgrwt>
</event>
<event>
 4    1  0.3271306E-002  0.1253687E+03  0.7818608E-02  0.1234494E+00
         -4   -1    0    0    0  501 -0.00000000000E+00  0.00000000000E+00  0.54719035609E+02  0.54733771641E+02  0.12700000000E+01 0.  1.
          4   -1    0    0  501    0  0.00000000000E+00 -0.00000000000E+00 -0.71779174547E+02  0.71790408821E+02  0.12700000000E+01 0.  1.
    9000005    1    1    2    0    0  0.24194635882E+02  0.28267148465E+02 -0.59432184860E+02  0.70125577966E+02  0.10000000000E+01 0.  0.
    9000005    1    1    2    0    0 -0.24194635882E+02 -0.28267148465E+02  0.42372045922E+02  0.56398602496E+02  0.10000000000E+01 0.  0.
<mgrwt>
<rscale>  0 0.12536874E+03</rscale>
<asrwt>0</asrwt>
<pdfrwt beam="2">  1        4 0.11044948E-01 0.12536874E+03</pdfrwt>
<pdfrwt beam="1">  1       -4 0.84203109E-02 0.12536874E+03</pdfrwt>
<totfact> 0.10333260E+04</totfact>
</mgrwt>
</event>
<event>
 5    1  0.3271306E-002  0.1250027E+03  0.7818608E-02  0.1235065E+00
         -4   -1    0    0    0  501 -0.00000000000E+00  0.00000000000E+00  0.10980018743E+03  0.10980753189E+03  0.12700000000E+01 0. -1.
          4   -1    0    0  501    0  0.00000000000E+00 -0.00000000000E+00 -0.35557670575E+02  0.35580343404E+02  0.12700000000E+01 0. -1.
         25    2    1    2    0    0  0.00000000000E+00  0.00000000000E+00  0.74242516851E+02  0.14538787529E+03  0.12500273186E+03 0.  0.
    9000005    1    3    3    0    0 -0.15707433447E+02  0.60487021987E+02  0.37274893854E+02  0.72772391786E+02  0.10000000000E+01 0.  0.
    9000005    1    3    3    0    0  0.15707433447E+02 -0.60487021987E+02  0.36967622997E+02  0.72615483503E+02  0.10000000000E+01 0.  0.
<mgrwt>
<rscale>  0 0.12500273E+03</rscale>
<asrwt>0</asrwt>
<pdfrwt beam="2">  1        4 0.54727199E-02 0.12500273E+03</pdfrwt>
<pdfrwt beam="1">  1       -4 0.16894645E-01 0.12500273E+03</pdfrwt>
<totfact> 0.10022497E+04</totfact>
</mgrwt>
</event>
<event>
 5    1  0.3271306E-002  0.1250015E+03  0.7818608E-02  0.1235067E+00
         -4   -1    0    0    0  501 -0.00000000000E+00  0.00000000000E+00  0.60664749817E+02  0.60678041913E+02  0.12700000000E+01 0.  1.
          4   -1    0    0  501    0  0.00000000000E+00 -0.00000000000E+00 -0.64365699474E+02  0.64378227443E+02  0.12700000000E+01 0.  1.
         25    2    1    2    0    0  0.00000000000E+00  0.00000000000E+00 -0.37009496568E+01  0.12505626936E+03  0.12500149390E+03 0.  0.
    9000005    1    3    3    0    0  0.54291591095E+02  0.30467361369E+02 -0.72848342027E+01  0.62688960605E+02  0.10000000000E+01 0.  0.
    9000005    1    3    3    0    0 -0.54291591095E+02 -0.30467361369E+02  0.35838845459E+01  0.62367308751E+02  0.10000000000E+01 0.  0.
<mgrwt>
<rscale>  0 0.12500149E+03</rscale>
<asrwt>0</asrwt>
<pdfrwt beam="2">  1        4 0.99044015E-02 0.12500149E+03</pdfrwt>
<pdfrwt beam="1">  1       -4 0.93350246E-02 0.12500149E+03</pdfrwt>
<totfact> 0.10451288E+04</totfact>
</mgrwt>
</event>
<event>
 5    1  0.3271306E-002  0.1249979E+03  0.7818608E-02  0.1235072E+00
         -4   -1    0    0    0  501 -0.00000000000E+00  0.00000000000E+00  0.65386236284E+02  0.65398568757E+02  0.12700000000E+01 0.  1.
          4   -1    0    0  501    0  0.00000000000E+00 -0.00000000000E+00 -0.59714480937E+02  0.59727984510E+02  0.12700000000E+01 0.  1.
         25    2    1    2    0    0  0.00000000000E+00  0.00000000000E+00  0.56717553473E+01  0.12512655327E+03  0.12499794208E+03 0.  0.
    9000005    1    3    3    0    0 -0.14389266236E+02  0.55936011163E+02  0.26719031381E+02  0.63645855840E+02  0.10000000000E+01 0.  0.
    9000005    1    3    3    0    0  0.14389266236E+02 -0.55936011163E+02 -0.21047276033E+02  0.61480697427E+02  0.10000000000E+01 0.  0.
<mgrwt>
<rscale>  0 0.12499794E+03</rscale>
<asrwt>0</asrwt>
<pdfrwt beam="2">  1        4 0.91888306E-02 0.12499794E+03</pdfrwt>
<pdfrwt beam="1">  1       -4 0.10061408E-01 0.12499794E+03</pdfrwt>
<totfact> 0.10450601E+04</totfact>
</mgrwt>
</event>
<event>
 5    1  0.3271306E-002  0.1250227E+03  0.7818608E-02  0.1235034E+00
         -4   -1    0    0    0  501 -0.00000000000E+00  0.00000000000E+00  0.83457533180E+01  0.84418302781E+01  0.12700000000E+01 0.  1.
          4   -1    0    0  501    0  0.00000000000E+00 -0.00000000000E+00 -0.46544594441E+03  0.46544767704E+03  0.12700000000E+01 0.  1.
         25    2    1    2    0    0  0.00000000000E+00  0.00000000000E+00 -0.45710019109E+03  0.47388950732E+03  0.12502271976E+03 0.  0.
    9000005    1    3    3    0    0 -0.19537318928E+02  0.57250348921E+02 -0.16893536073E+03  0.17944209480E+03  0.10000000000E+01 0.  0.
    9000005    1    3    3    0    0  0.19537318928E+02 -0.57250348921E+02 -0.28816483036E+03  0.29444741252E+03  0.10000000000E+01 0.  0.
<mgrwt>
<rscale>  0 0.12502272E+03</rscale>
<asrwt>0</asrwt>
<pdfrwt beam="2">  1        4 0.71614572E-01 0.12502272E+03</pdfrwt>
<pdfrwt beam="1">  1       -4 0.12914862E-02 0.12502272E+03</pdfrwt>
<totfact> 0.57919745E+03</totfact>
</mgrwt>
</event>
<event>
 5    1  0.3271306E-002  0.1250020E+03  0.7818608E-02  0.1235066E+00
          4   -1    0    0  501    0  0.00000000000E+00  0.00000000000E+00  0.21513118821E+03  0.21513493682E+03  0.12700000000E+01 0.  1.
         -4   -1    0    0    0  501 -0.00000000000E+00 -0.00000000000E+00 -0.18131975787E+02  0.18176398046E+02  0.12700000000E+01 0.  1.
         25    2    1    2    0    0  0.00000000000E+00  0.00000000000E+00  0.19699921243E+03  0.23331133487E+03  0.12500195711E+03 0.  0.
    9000005    1    3    3    0    0  0.32820852302E+02 -0.26476884277E+02  0.12416700641E+02  0.43970537882E+02  0.10000000000E+01 0.  0.
    9000005    1    3    3    0    0 -0.32820852302E+02  0.26476884277E+02  0.18458251179E+03  0.18934079699E+03  0.10000000000E+01 0.  0.
<mgrwt>
<rscale>  0 0.12500196E+03</rscale>
<asrwt>0</asrwt>
<pdfrwt beam="1">  1        4 0.33100811E-01 0.12500196E+03</pdfrwt>
<pdfrwt beam="2">  1       -4 0.27932402E-02 0.12500196E+03</pdfrwt>
<totfact> 0.84800016E+03</totfact>
</mgrwt>
</event>
<event>
 5    1  0.3271306E-002  0.1250028E+03  0.7818608E-02  0.1235065E+00
          4   -1    0    0  501    0  0.00000000000E+00  0.00000000000E+00  0.13558431583E+03  0.13559026366E+03  0.12700000000E+01 0.  1.
         -4   -1    0    0    0  501 -0.00000000000E+00 -0.00000000000E+00 -0.28791183528E+02  0.28819180227E+02  0.12700000000E+01 0.  1.
         25    2    1    2    0    0  0.00000000000E+00  0.00000000000E+00  0.10679313230E+03  0.16440944389E+03  0.12500276850E+03 0.  0.
    9000005    1    3    3    0    0  0.14021067220E+02 -0.14213637179E+02  0.13128320297E+03  0.13279645021E+03  0.10000000000E+01 0.  0.
    9000005    1    3    3    0    0 -0.14021067220E+02  0.14213637179E+02 -0.24490070665E+02  0.31612993674E+02  0.10000000000E+01 0.  0.
<mgrwt>
<rscale>  0 0.12500277E+03</rscale>
<asrwt>0</asrwt>
<pdfrwt beam="1">  1        4 0.20861737E-01 0.12500277E+03</pdfrwt>
<pdfrwt beam="2">  1       -4 0.44320240E-02 0.12500277E+03</pdfrwt>
<totfact> 0.96493349E+03</totfact>
</mgrwt>
</event>
<event>
 5    1  0.3271306E-002  0.1249973E+03  0.7818608E-02  0.1235073E+00
          4   -1    0    0  501    0  0.00000000000E+00  0.00000000000E+00  0.38402328119E+03  0.38402538119E+03  0.12700000000E+01 0.  1.
         -4   -1    0    0    0  501 -0.00000000000E+00 -0.00000000000E+00 -0.10129695282E+02  0.10208997331E+02  0.12700000000E+01 0.  1.
         25    2    1    2    0    0  0.00000000000E+00  0.00000000000E+00  0.37389358591E+03  0.39423437852E+03  0.12499732646E+03 0.  0.
    9000005    1    3    3    0    0  0.43580616876E+02 -0.44459036699E+02  0.20399174228E+03  0.21328269276E+03  0.10000000000E+01 0.  0.
    9000005    1    3    3    0    0 -0.43580616876E+02  0.44459036699E+02  0.16990184363E+03  0.18095168576E+03  0.10000000000E+01 0.  0.
<mgrwt>
<rscale>  0 0.12499733E+03</rscale>
<asrwt>0</asrwt>
<pdfrwt beam="1">  1        4 0.59086752E-01 0.12499733E+03</pdfrwt>
<pdfrwt beam="2">  1       -4 0.15646767E-02 0.12499733E+03</pdfrwt>
<totfact> 0.65121287E+03</totfact>
</mgrwt>
</event>
<event>
 5    1  0.3271306E-002  0.1249991E+03  0.7818608E-02  0.1235071E+00
         -4   -1    0    0    0  501 -0.00000000000E+00  0.00000000000E+00  0.32659976227E+02  0.32684659202E+02  0.12700000000E+01 0.  1.
          4   -1    0    0  501    0  0.00000000000E+00 -0.00000000000E+00 -0.11952854626E+03  0.11953529299E+03  0.12700000000E+01 0.  1.
         25    2    1    2    0    0  0.00000000000E+00  0.00000000000E+00 -0.86868570033E+02  0.15221995220E+03  0.12499906154E+03 0.  0.
    9000005    1    3    3    0    0 -0.27547660209E+02  0.55812097705E+02 -0.50250256927E+02  0.79999700965E+02  0.10000000000E+01 0.  0.
    9000005    1    3    3    0    0  0.27547660209E+02 -0.55812097705E+02 -0.36618313106E+02  0.72220251232E+02  0.10000000000E+01 0.  0.
<mgrwt>
<rscale>  0 0.12499906E+03</rscale>
<asrwt>0</asrwt>
<pdfrwt beam="2">  1        4 0.18391425E-01 0.12499906E+03</pdfrwt>
<pdfrwt beam="1">  1       -4 0.50270294E-02 0.12499906E+03</pdfrwt>
<totfact> 0.98865098E+03</totfact>
</mgrwt>
</event>
<event>
 5    1  0.3271306E-002  0.1249995E+03  0.7818608E-02  0.1235070E+00
         -4   -1    0    0    0  501 -0.00000000000E+00  0.00000000000E+00  0.13385694602E+03  0.13386297060E+03  0.12700000000E+01 0. -1.
          4   -1    0    0  501    0  0.00000000000E+00 -0.00000000000E+00 -0.29161529119E+02  0.29189170604E+02  0.12700000000E+01 0. -1.
         25    2    1    2    0    0  0.00000000000E+00  0.00000000000E+00  0.10469541690E+03  0.16305214121E+03  0.12499948172E+03 0.  0.
    9000005    1    3    3    0    0  0.24229248683E+02  0.12328439821E+02  0.12574591630E+03  0.12865489647E+03  0.10000000000E+01 0.  0.
    9000005    1    3    3    0    0 -0.24229248683E+02 -0.12328439821E+02 -0.21050499399E+02  0.34397244732E+02  0.10000000000E+01 0.  0.
<mgrwt>
<rscale>  0 0.12499948E+03</rscale>
<asrwt>0</asrwt>
<pdfrwt beam="2">  1        4 0.44889787E-02 0.12499948E+03</pdfrwt>
<pdfrwt beam="1">  1       -4 0.20595966E-01 0.12499948E+03</pdfrwt>
<totfact> 0.96758689E+03</totfact>
</mgrwt>
</event>
<event>
 5    1  0.3271306E-002  0.1250015E+03  0.7818608E-02  0.1235067E+00
          4   -1    0    0  501    0  0.00000000000E+00  0.00000000000E+00  0.16619555518E+02  0.16668009048E+02  0.12700000000E+01 0.  1.
         -4   -1    0    0    0  501 -0.00000000000E+00 -0.00000000000E+00 -0.23465265352E+03  0.23465609028E+03  0.12700000000E+01 0.  1.
         25    2    1    2    0    0  0.00000000000E+00  0.00000000000E+00 -0.21803309800E+03  0.25132409933E+03  0.12500148430E+03 0.  0.
    9000005    1    3    3    0    0 -0.38445007188E+02 -0.49123783173E+02 -0.11658711352E+03  0.13222979879E+03  0.10000000000E+01 0.  0.
    9000005    1    3    3    0    0  0.38445007188E+02  0.49123783173E+02 -0.10144598449E+03  0.11909430053E+03  0.10000000000E+01 0.  0.
<mgrwt>
<rscale>  0 0.12500148E+03</rscale>
<asrwt>0</asrwt>
<pdfrwt beam="1">  1        4 0.25608464E-02 0.12500148E+03</pdfrwt>
<pdfrwt beam="2">  1       -4 0.36104397E-01 0.12500148E+03</pdfrwt>
<totfact> 0.82136516E+03</totfact>
</mgrwt>
</event>
<event>
 5    1  0.3271306E-002  0.1249965E+03  0.7818608E-02  0.1235075E+00
         -4   -1    0    0    0  501 -0.00000000000E+00  0.00000000000E+00  0.58210127687E+02  0.58223980158E+02  0.12700000000E+01 0.  1.
          4   -1    0    0  501    0  0.00000000000E+00 -0.00000000000E+00 -0.67074382187E+02  0.67086404329E+02  0.12700000000E+01 0.  1.
         25    2    1    2    0    0  0.00000000000E+00  0.00000000000E+00 -0.88642544999E+01  0.12531038449E+03  0.12499646976E+03 0.  0.
    9000005    1    3    3    0    0  0.13974018882E+02 -0.50956691879E+02 -0.37880145827E+02  0.65021251133E+02  0.10000000000E+01 0.  0.
    9000005    1    3    3    0    0 -0.13974018882E+02  0.50956691879E+02  0.29015891328E+02  0.60289133354E+02  0.10000000000E+01 0.  0.
<mgrwt>
<rscale>  0 0.12499647E+03</rscale>
<asrwt>0</asrwt>
<pdfrwt beam="2">  1        4 0.10321126E-01 0.12499647E+03</pdfrwt>
<pdfrwt beam="1">  1       -4 0.89573946E-02 0.12499647E+03</pdfrwt>
<totfact> 0.10446958E+04</totfact>
</mgrwt>
</event>
<event>
 5    1  0.3271306E-002  0.1250110E+03  0.7818608E-02  0.1235052E+00
          4   -1    0    0  501    0  0.00000000000E+00  0.00000000000E+00  0.67337331806E+02  0.67349307010E+02  0.12700000000E+01 0. -1.
         -4   -1    0    0    0  501 -0.00000000000E+00 -0.00000000000E+00 -0.57996249164E+02  0.58010152707E+02  0.12700000000E+01 0. -1.
         25    2    1    2    0    0  0.00000000000E+00  0.00000000000E+00  0.93410826415E+01  0.12535945972E+03  0.12501095278E+03 0.  0.
    9000005    1    3    3    0    0 -0.41253256271E+02  0.38964084450E+02  0.30933313812E+02  0.64636684115E+02  0.10000000000E+01 0.  0.
    9000005    1    3    3    0    0  0.41253256271E+02 -0.38964084450E+02 -0.21592231170E+02  0.60722775603E+02  0.10000000000E+01 0.  0.
<mgrwt>
<rscale>  0 0.12501095E+03</rscale>
<asrwt>0</asrwt>
<pdfrwt beam="1">  1        4 0.10361580E-01 0.12501095E+03</pdfrwt>
<pdfrwt beam="2">  1       -4 0.89244906E-02 0.12501095E+03</pdfrwt>
<totfact> 0.10442475E+04</totfact>
</mgrwt>
</event>
<event>
 5    1  0.3271306E-002  0.1249979E+03  0.7818608E-02  0.1235072E+00
         -4   -1    0    0    0  501 -0.00000000000E+00  0.00000000000E+00  0.22962195046E+03  0.22962546251E+03  0.12700000000E+01 0. -1.
          4   -1    0    0  501    0  0.00000000000E+00 -0.00000000000E+00 -0.16983746259E+02  0.17031163700E+02  0.12700000000E+01 0. -1.
         25    2    1    2    0    0  0.00000000000E+00  0.00000000000E+00  0.21263820420E+03  0.24665662621E+03  0.12499794146E+03 0.  0.
    9000005    1    3    3    0    0 -0.13428457713E+02 -0.50130747571E+01  0.22634397116E+03  0.22679957601E+03  0.10000000000E+01 0.  0.
    9000005    1    3    3    0    0  0.13428457713E+02  0.50130747571E+01 -0.13705766958E+02  0.19857050208E+02  0.10000000000E+01 0.  0.
<mgrwt>
<rscale>  0 0.12499794E+03</rscale>
<asrwt>0</asrwt>
<pdfrwt beam="2">  1        4 0.26168018E-02 0.12499794E+03</pdfrwt>
<pdfrwt beam="1">  1       -4 0.35330370E-01 0.12499794E+03</pdfrwt>
<totfact> 0.82819662E+03</totfact>
</mgrwt>
</event>
<event>
 5    1  0.3271306E-002  0.1250137E+03  0.7818608E-02  0.1235048E+00
          4   -1    0    0  501    0  0.00000000000E+00  0.00000000000E+00  0.36792516522E+03  0.36792735710E+03  0.12700000000E+01 0. -1.
         -4   -1    0    0    0  501 -0.00000000000E+00 -0.00000000000E+00 -0.10579095256E+02  0.10655053094E+02  0.12700000000E+01 0. -1.
         25    2    1    2    0    0  0.00000000000E+00  0.00000000000E+00  0.35734606996E+03  0.37858241019E+03  0.12501370960E+03 0.  0.
    9000005    1    3    3    0    0  0.52039225238E+02  0.32995202041E+02  0.21033934361E+03  0.21918121222E+03  0.10000000000E+01 0.  0.
    9000005    1    3    3    0    0 -0.52039225238E+02 -0.32995202041E+02  0.14700672635E+03  0.15940119797E+03  0.10000000000E+01 0.  0.
<mgrwt>
<rscale>  0 0.12501371E+03</rscale>
<asrwt>0</asrwt>
<pdfrwt beam="1">  1        4 0.56609872E-01 0.12501371E+03</pdfrwt>
<pdfrwt beam="2">  1       -4 0.16335649E-02 0.12501371E+03</pdfrwt>
<totfact> 0.66670317E+03</totfact>
</mgrwt>
</event>
<event>
 5    1  0.3271306E-002  0.1250006E+03  0.7818608E-02  0.1235068E+00
          4   -1    0    0  501    0  0.00000000000E+00  0.00000000000E+00  0.56975545684E+02  0.56989698245E+02  0.12700000000E+01 0.  1.
         -4   -1    0    0    0  501 -0.00000000000E+00 -0.00000000000E+00 -0.68532199801E+02  0.68543966252E+02  0.12700000000E+01 0.  1.
         25    2    1    2    0    0  0.00000000000E+00  0.00000000000E+00 -0.11556654117E+02  0.12553366450E+03  0.12500057867E+03 0.  0.
    9000005    1    3    3    0    0  0.36815538179E+01  0.52383088106E+02 -0.39801183764E+02  0.65898983202E+02  0.10000000000E+01 0.  0.
    9000005    1    3    3    0    0 -0.36815538179E+01 -0.52383088106E+02  0.28244529648E+02  0.59634681294E+02  0.10000000000E+01 0.  0.
<mgrwt>
<rscale>  0 0.12500058E+03</rscale>
<asrwt>0</asrwt>
<pdfrwt beam="1">  1        4 0.87674623E-02 0.12500058E+03</pdfrwt>
<pdfrwt beam="2">  1       -4 0.10545409E-01 0.12500058E+03</pdfrwt>
<totfact> 0.10441074E+04</totfact>
</mgrwt>
</event>
<event>
 5    1  0.3271306E-002  0.1249994E+03  0.7818608E-02  0.1235070E+00
          4   -1    0    0  501    0  0.00000000000E+00  0.00000000000E+00  0.49999131894E+02  0.50015258573E+02  0.12700000000E+01 0.  1.
         -4   -1    0    0    0  501 -0.00000000000E+00 -0.00000000000E+00 -0.78091702119E+02  0.78102028397E+02  0.12700000000E+01 0.  1.
         25    2    1    2    0    0  0.00000000000E+00  0.00000000000E+00 -0.28092570225E+02  0.12811728697E+03  0.12499938687E+03 0.  0.
    9000005    1    3    3    0    0 -0.52957736187E+01  0.29510832697E+02 -0.70243444441E+02  0.76381123005E+02  0.10000000000E+01 0.  0.
    9000005    1    3    3    0    0  0.52957736187E+01 -0.29510832697E+02  0.42150874216E+02  0.51736163966E+02  0.10000000000E+01 0.  0.
<mgrwt>
<rscale>  0 0.12499939E+03</rscale>
<asrwt>0</asrwt>
<pdfrwt beam="1">  1        4 0.76942090E-02 0.12499939E+03</pdfrwt>
<pdfrwt beam="2">  1       -4 0.12016143E-01 0.12499939E+03</pdfrwt>
<totfact> 0.10385099E+04</totfact>
</mgrwt>
</event>
<event>
 5    1  0.3271306E-002  0.1249934E+03  0.7818608E-02  0.1235080E+00
         -4   -1    0    0    0  501 -0.00000000000E+00  0.00000000000E+00  0.53606746334E+03  0.53606896772E+03  0.12700000000E+01 0.  1.
          4   -1    0    0  501    0  0.00000000000E+00 -0.00000000000E+00 -0.72292227939E+01  0.73399293051E+01  0.12700000000E+01 0.  1.
         25    2    1    2    0    0  0.00000000000E+00  0.00000000000E+00  0.52883824055E+03  0.54340889703E+03  0.12499337863E+03 0.  0.
    9000005    1    3    3    0    0  0.21666958716E+02  0.47887966154E+02  0.41134420260E+03  0.41468996541E+03  0.10000000000E+01 0.  0.
    9000005    1    3    3    0    0 -0.21666958716E+02 -0.47887966154E+02  0.11749403796E+03  0.12871893162E+03  0.10000000000E+01 0.  0.
<mgrwt>
<rscale>  0 0.12499338E+03</rscale>
<asrwt>0</asrwt>
<pdfrwt beam="2">  1        4 0.11208195E-02 0.12499338E+03</pdfrwt>
<pdfrwt beam="1">  1       -4 0.82480566E-01 0.12499338E+03</pdfrwt>
<totfact> 0.52654601E+03</totfact>
</mgrwt>
</event>
<event>
 5    1  0.3271306E-002  0.1249935E+03  0.7818608E-02  0.1235079E+00
         -4   -1    0    0    0  501 -0.00000000000E+00  0.00000000000E+00  0.18713309558E+02  0.18756355046E+02  0.12700000000E+01 0.  1.
          4   -1    0    0  501    0  0.00000000000E+00 -0.00000000000E+00 -0.20843537247E+03  0.20843924149E+03  0.12700000000E+01 0.  1.
         25    2    1    2    0    0  0.00000000000E+00  0.00000000000E+00 -0.18972206291E+03  0.22719559654E+03  0.12499351157E+03 0.  0.
    9000005    1    3    3    0    0  0.40124197193E+02  0.26056064968E+02 -0.16792945327E+03  0.17461434934E+03  0.10000000000E+01 0.  0.
    9000005    1    3    3    0    0 -0.40124197193E+02 -0.26056064968E+02 -0.21792609640E+02  0.52581247198E+02  0.10000000000E+01 0.  0.
<mgrwt>
<rscale>  0 0.12499351E+03</rscale>
<asrwt>0</asrwt>
<pdfrwt beam="2">  1        4 0.32070588E-01 0.12499351E+03</pdfrwt>
<pdfrwt beam="1">  1       -4 0.28825796E-02 0.12499351E+03</pdfrwt>
<totfact> 0.85754501E+03</totfact>
</mgrwt>
</event>
<event>
 5    1  0.3271306E-002  0.1250009E+03  0.7818608E-02  0.1235068E+00
          4   -1    0    0  501    0  0.00000000000E+00  0.00000000000E+00  0.17523821629E+03  0.17524281825E+03  0.12700000000E+01 0. -1.
         -4   -1    0    0    0  501 -0.00000000000E+00 -0.00000000000E+00 -0.22268415142E+02  0.22304600712E+02  0.12700000000E+01 0. -1.
         25    2    1    2    0    0  0.00000000000E+00  0.00000000000E+00  0.15296980115E+03  0.19754741896E+03  0.12500089070E+03 0.  0.
    9000005    1    3    3    0    0 -0.72786212526E+01  0.42376789286E+02  0.14815307010E+03  0.15426957826E+03  0.10000000000E+01 0.  0.
    9000005    1    3    3    0    0  0.72786212526E+01 -0.42376789286E+02  0.48167310464E+01  0.43277840698E+02  0.10000000000E+01 0.  0.
<mgrwt>
<rscale>  0 0.12500089E+03</rscale>
<asrwt>0</asrwt>
<pdfrwt beam="1">  1        4 0.26962863E-01 0.12500089E+03</pdfrwt>
<pdfrwt beam="2">  1       -4 0.34290475E-02 0.12500089E+03</pdfrwt>
<totfact> 0.90548613E+03</totfact>
</mgrwt>
</event>
<event>
 5    1  0.3271306E-002  0.1250212E+03  0.7818608E-02  0.1235036E+00
         -4   -1    0    0    0  501 -0.00000000000E+00  0.00000000000E+00  0.67843074732E+02  0.67854960682E+02  0.12700000000E+01 0.  1.
          4   -1    0    0  501    0  0.00000000000E+00 -0.00000000000E+00 -0.57573322286E+02  0.57587327939E+02  0.12700000000E+01 0.  1.
         25    2    1    2    0    0  0.00000000000E+00  0.00000000000E+00  0.10269752446E+02  0.12544228862E+03  0.12502119804E+03 0.  0.
    9000005    1    3    3    0    0  0.37870140131E+02  0.44386155161E+02 -0.17352587602E+02  0.60880132884E+02  0.10000000000E+01 0.  0.
    9000005    1    3    3    0    0 -0.37870140131E+02 -0.44386155161E+02  0.27622340048E+02  0.64562155736E+02  0.10000000000E+01 0.  0.
<mgrwt>
<rscale>  0 0.12502120E+03</rscale>
<asrwt>0</asrwt>
<pdfrwt beam="2">  1        4 0.88594259E-02 0.12502120E+03</pdfrwt>
<pdfrwt beam="1">  1       -4 0.10439388E-01 0.12502120E+03</pdfrwt>
<totfact> 0.10438240E+04</totfact>
</mgrwt>
</event>
<event>
 5    1  0.3271306E-002  0.1250026E+03  0.7818608E-02  0.1235065E+00
         -4   -1    0    0    0  501 -0.00000000000E+00  0.00000000000E+00  0.18876305466E+02  0.18918980101E+02  0.12700000000E+01 0.  1.
          4   -1    0    0  501    0  0.00000000000E+00 -0.00000000000E+00 -0.20666957964E+03  0.20667348172E+03  0.12700000000E+01 0.  1.
         25    2    1    2    0    0  0.00000000000E+00  0.00000000000E+00 -0.18779327417E+03  0.22559246183E+03  0.12500258001E+03 0.  0.
    9000005    1    3    3    0    0  0.75823514072E+01  0.18134896860E+02 -0.20095435942E+03  0.20191587631E+03  0.10000000000E+01 0.  0.
    9000005    1    3    3    0    0 -0.75823514072E+01 -0.18134896860E+02  0.13161085244E+02  0.23676585517E+02  0.10000000000E+01 0.  0.
<mgrwt>
<rscale>  0 0.12500258E+03</rscale>
<asrwt>0</asrwt>
<pdfrwt beam="2">  1        4 0.31798901E-01 0.12500258E+03</pdfrwt>
<pdfrwt beam="1">  1       -4 0.29076300E-02 0.12500258E+03</pdfrwt>
<totfact> 0.85986055E+03</totfact>
</mgrwt>
</event>
<event>
 5    1  0.3271306E-002  0.1249994E+03  0.7818608E-02  0.1235070E+00
          4   -1    0    0  501    0  0.00000000000E+00  0.00000000000E+00  0.26002017523E+02  0.26033013949E+02  0.12700000000E+01 0.  1.
         -4   -1    0    0    0  501 -0.00000000000E+00 -0.00000000000E+00 -0.15010402660E+03  0.15010939911E+03  0.12700000000E+01 0.  1.
         25    2    1    2    0    0  0.00000000000E+00  0.00000000000E+00 -0.12410200908E+03  0.17614241306E+03  0.12499936408E+03 0.  0.
    9000005    1    3    3    0    0  0.42021509710E+02 -0.19594579013E+02 -0.30103662099E+01  0.46473832527E+02  0.10000000000E+01 0.  0.
    9000005    1    3    3    0    0 -0.42021509710E+02  0.19594579013E+02 -0.12109164287E+03  0.12966858053E+03  0.10000000000E+01 0.  0.
<mgrwt>
<rscale>  0 0.12499936E+03</rscale>
<asrwt>0</asrwt>
<pdfrwt beam="1">  1        4 0.40031081E-02 0.12499936E+03</pdfrwt>
<pdfrwt beam="2">  1       -4 0.23095724E-01 0.12499936E+03</pdfrwt>
<totfact> 0.94317372E+03</totfact>
</mgrwt>
</event>
<event>
 5    1  0.3271306E-002  0.1249973E+03  0.7818608E-02  0.1235074E+00
          4   -1    0    0  501    0  0.00000000000E+00  0.00000000000E+00  0.54569440635E+02  0.54584217052E+02  0.12700000000E+01 0. -1.
         -4   -1    0    0    0  501 -0.00000000000E+00 -0.00000000000E+00 -0.71549886529E+02  0.71561156799E+02  0.12700000000E+01 0. -1.
         25    2    1    2    0    0  0.00000000000E+00  0.00000000000E+00 -0.16980445895E+02  0.12614537385E+03  0.12499727917E+03 0.  0.
    9000005    1    3    3    0    0 -0.33198875919E+02 -0.29545439565E+02 -0.52825288142E+02  0.69040636068E+02  0.10000000000E+01 0.  0.
    9000005    1    3    3    0    0  0.33198875919E+02  0.29545439565E+02  0.35844842247E+02  0.57104737782E+02  0.10000000000E+01 0.  0.
<mgrwt>
<rscale>  0 0.12499728E+03</rscale>
<asrwt>0</asrwt>
<pdfrwt beam="1">  1        4 0.83973021E-02 0.12499728E+03</pdfrwt>
<pdfrwt beam="2">  1       -4 0.11009679E-01 0.12499728E+03</pdfrwt>
<totfact> 0.10428414E+04</totfact>
</mgrwt>
</event>
<event>
 5    1  0.3271306E-002  0.1250021E+03  0.7818608E-02  0.1235066E+00
         -4   -1    0    0    0  501 -0.00000000000E+00  0.00000000000E+00  0.49525905706E+02  0.49542186428E+02  0.12700000000E+01 0.  1.
          4   -1    0    0  501    0  0.00000000000E+00 -0.00000000000E+00 -0.78841167132E+02  0.78851395262E+02  0.12700000000E+01 0.  1.
         25    2    1    2    0    0  0.00000000000E+00  0.00000000000E+00 -0.29315261426E+02  0.12839358169E+03  0.12500210905E+03 0.  0.
    9000005    1    3    3    0    0 -0.53720463390E+02  0.30101273303E+02 -0.37194307761E+01  0.61699343648E+02  0.10000000000E+01 0.  0.
    9000005    1    3    3    0    0  0.53720463390E+02 -0.30101273303E+02 -0.25595830650E+02  0.66694238041E+02  0.10000000000E+01 0.  0.
<mgrwt>
<rscale>  0 0.12500211E+03</rscale>
<asrwt>0</asrwt>
<pdfrwt beam="2">  1        4 0.12131449E-01 0.12500211E+03</pdfrwt>
<pdfrwt beam="1">  1       -4 0.76214093E-02 0.12500211E+03</pdfrwt>
<totfact> 0.10378502E+04</totfact>
</mgrwt>
</event>
<event>
 5    1  0.3271306E-002  0.1250151E+03  0.7818608E-02  0.1235046E+00
         -4   -1    0    0    0  501 -0.00000000000E+00  0.00000000000E+00  0.30478958680E+02  0.30505406442E+02  0.12700000000E+01 0. -1.
          4   -1    0    0  501    0  0.00000000000E+00 -0.00000000000E+00 -0.12810798174E+03  0.12811427666E+03  0.12700000000E+01 0. -1.
         25    2    1    2    0    0  0.00000000000E+00  0.00000000000E+00 -0.97629023057E+02  0.15861968310E+03  0.12501510999E+03 0.  0.
    9000005    1    3    3    0    0  0.53280484008E+02 -0.22512317460E+02 -0.78855441786E+02  0.97799770515E+02  0.10000000000E+01 0.  0.
    9000005    1    3    3    0    0 -0.53280484008E+02  0.22512317460E+02 -0.18773581271E+02  0.60819912589E+02  0.10000000000E+01 0.  0.
<mgrwt>
<rscale>  0 0.12501511E+03</rscale>
<asrwt>0</asrwt>
<pdfrwt beam="2">  1        4 0.19711439E-01 0.12501511E+03</pdfrwt>
<pdfrwt beam="1">  1       -4 0.46915893E-02 0.12501511E+03</pdfrwt>
<totfact> 0.97576412E+03</totfact>
</mgrwt>
</event>
<event>
 5    1  0.3271306E-002  0.1249996E+03  0.7818608E-02  0.1235070E+00
          4   -1    0    0  501    0  0.00000000000E+00  0.00000000000E+00  0.26480307002E+03  0.26480611548E+03  0.12700000000E+01 0.  1.
         -4   -1    0    0    0  501 -0.00000000000E+00 -0.00000000000E+00 -0.14720955597E+02  0.14775636490E+02  0.12700000000E+01 0.  1.
         25    2    1    2    0    0  0.00000000000E+00  0.00000000000E+00  0.25008211443E+03  0.27958175197E+03  0.12499956831E+03 0.  0.
    9000005    1    3    3    0    0  0.12637360634E+02 -0.23408634099E+02  0.25151742577E+03  0.25292228549E+03  0.10000000000E+01 0.  0.
    9000005    1    3    3    0    0 -0.12637360634E+02  0.23408634099E+02 -0.14353113394E+01  0.26659466476E+02  0.10000000000E+01 0.  0.
<mgrwt>
<rscale>  0 0.12499957E+03</rscale>
<asrwt>0</asrwt>
<pdfrwt beam="1">  1        4 0.40743376E-01 0.12499957E+03</pdfrwt>
<pdfrwt beam="2">  1       -4 0.22692028E-02 0.12499957E+03</pdfrwt>
<totfact> 0.78234342E+03</totfact>
</mgrwt>
</event>
<event>
 5    1  0.3271306E-002  0.1250016E+03  0.7818608E-02  0.1235067E+00
          4   -1    0    0  501    0  0.00000000000E+00  0.00000000000E+00  0.36853792730E+01  0.38980662367E+01  0.12700000000E+01 0. -1.
         -4   -1    0    0    0  501 -0.00000000000E+00 -0.00000000000E+00 -0.10300176109E+04  0.10300183938E+04  0.12700000000E+01 0. -1.
         25    2    1    2    0    0  0.00000000000E+00  0.00000000000E+00 -0.10263322316E+04  0.10339164601E+04  0.12500158702E+03 0.  0.
    9000005    1    3    3    0    0  0.43460463121E+02  0.11275001670E+02 -0.87269453029E+03  0.87384934669E+03  0.10000000000E+01 0.  0.
    9000005    1    3    3    0    0 -0.43460463121E+02 -0.11275001670E+02 -0.15363770134E+03  0.16006711339E+03  0.10000000000E+01 0.  0.
<mgrwt>
<rscale>  0 0.12500159E+03</rscale>
<asrwt>0</asrwt>
<pdfrwt beam="1">  1        4 0.58340301E-03 0.12500159E+03</pdfrwt>
<pdfrwt beam="2">  1       -4 0.15848045E+00 0.12500159E+03</pdfrwt>
<totfact> 0.29501343E+03</totfact>
</mgrwt>
</event>
<event>
 5    1  0.3271306E-002  0.1250041E+03  0.7818608E-02  0.1235063E+00
         -4   -1    0    0    0  501 -0.00000000000E+00  0.00000000000E+00  0.18063139361E+02  0.18107730492E+02  0.12700000000E+01 0. -1.
          4   -1    0    0  501    0  0.00000000000E+00 -0.00000000000E+00 -0.21595635682E+03  0.21596009111E+03  0.12700000000E+01 0. -1.
         25    2    1    2    0    0  0.00000000000E+00  0.00000000000E+00 -0.19789321746E+03  0.23406782160E+03  0.12500407830E+03 0.  0.
    9000005    1    3    3    0    0 -0.55967959044E+02  0.25746466849E+02 -0.11860426705E+03  0.13365352654E+03  0.10000000000E+01 0.  0.
    9000005    1    3    3    0    0  0.55967959044E+02 -0.25746466849E+02 -0.79288950411E+02  0.10041429506E+03  0.10000000000E+01 0.  0.
<mgrwt>
<rscale>  0 0.12500408E+03</rscale>
<asrwt>0</asrwt>
<pdfrwt beam="2">  1        4 0.33227771E-01 0.12500408E+03</pdfrwt>
<pdfrwt beam="1">  1       -4 0.27826620E-02 0.12500408E+03</pdfrwt>
<totfact> 0.84681166E+03</totfact>
</mgrwt>
</event>
<event>
 5    1  0.3271306E-002  0.1250102E+03  0.7818608E-02  0.1235053E+00
          4   -1    0    0  501    0  0.00000000000E+00  0.00000000000E+00  0.13409970811E+02  0.13469974653E+02  0.12700000000E+01 0. -1.
         -4   -1    0    0    0  501 -0.00000000000E+00 -0.00000000000E+00 -0.29063036989E+03  0.29063314471E+03  0.12700000000E+01 0. -1.
         25    2    1    2    0    0  0.00000000000E+00  0.00000000000E+00 -0.27722039908E+03  0.30410311936E+03  0.12501022974E+03 0.  0.
    9000005    1    3    3    0    0 -0.60498358817E+02  0.12577024621E+02 -0.16138566069E+03  0.17281366973E+03  0.10000000000E+01 0.  0.
    9000005    1    3    3    0    0  0.60498358817E+02 -0.12577024621E+02 -0.11583473839E+03  0.13128944964E+03  0.10000000000E+01 0.  0.
<mgrwt>
<rscale>  0 0.12501023E+03</rscale>
<asrwt>0</asrwt>
<pdfrwt beam="1">  1        4 0.20679018E-02 0.12501023E+03</pdfrwt>
<pdfrwt beam="2">  1       -4 0.44717189E-01 0.12501023E+03</pdfrwt>
<totfact> 0.75069974E+03</totfact>
</mgrwt>
</event>
<event>
 5    1  0.3271306E-002  0.1250022E+03  0.7818608E-02  0.1235066E+00
         -4   -1    0    0    0  501 -0.00000000000E+00  0.00000000000E+00  0.73601312102E+02  0.73612268292E+02  0.12700000000E+01 0. -1.
          4   -1    0    0  501    0  0.00000000000E+00 -0.00000000000E+00 -0.53052451769E+02  0.53067650586E+02  0.12700000000E+01 0. -1.
         25    2    1    2    0    0  0.00000000000E+00  0.00000000000E+00  0.20548860333E+02  0.12667991888E+03  0.12500218473E+03 0.  0.
    9000005    1    3    3    0    0  0.15881712426E+02 -0.58911509589E+02 -0.34195849228E+01  0.61118641286E+02  0.10000000000E+01 0.  0.
    9000005    1    3    3    0    0 -0.15881712426E+02  0.58911509589E+02  0.23968445255E+02  0.65561277592E+02  0.10000000000E+01 0.  0.
<mgrwt>
<rscale>  0 0.12500218E+03</rscale>
<asrwt>0</asrwt>
<pdfrwt beam="2">  1        4 0.81639276E-02 0.12500218E+03</pdfrwt>
<pdfrwt beam="1">  1       -4 0.11325291E-01 0.12500218E+03</pdfrwt>
<totfact> 0.10415594E+04</totfact>
</mgrwt>
</event>
<event>
 5    1  0.3271306E-002  0.1250004E+03  0.7818608E-02  0.1235069E+00
          4   -1    0    0  501    0  0.00000000000E+00  0.00000000000E+00  0.78786434565E+02  0.78796669800E+02  0.12700000000E+01 0. -1.
         -4   -1    0    0    0  501 -0.00000000000E+00 -0.00000000000E+00 -0.49558975533E+02  0.49575245394E+02  0.12700000000E+01 0. -1.
         25    2    1    2    0    0  0.00000000000E+00  0.00000000000E+00  0.29227459033E+02  0.12837191519E+03  0.12500041699E+03 0.  0.
    9000005    1    3    3    0    0  0.32005370143E+00  0.43893697540E+02 -0.31066517712E+02  0.53785570935E+02  0.10000000000E+01 0.  0.
    9000005    1    3    3    0    0 -0.32005370143E+00 -0.43893697540E+02  0.60293976745E+02  0.74586344258E+02  0.10000000000E+01 0.  0.
<mgrwt>
<rscale>  0 0.12500042E+03</rscale>
<asrwt>0</asrwt>
<pdfrwt beam="1">  1        4 0.12123029E-01 0.12500042E+03</pdfrwt>
<pdfrwt beam="2">  1       -4 0.76264966E-02 0.12500042E+03</pdfrwt>
<totfact> 0.10379366E+04</totfact>
</mgrwt>
</event>
<event>
 5    1  0.3271306E-002  0.1249981E+03  0.7818608E-02  0.1235072E+00
          4   -1    0    0  501    0  0.00000000000E+00  0.00000000000E+00  0.16554526766E+02  0.16603170072E+02  0.12700000000E+01 0. -1.
         -4   -1    0    0    0  501 -0.00000000000E+00 -0.00000000000E+00 -0.23555913095E+03  0.23556255448E+03  0.12700000000E+01 0. -1.
         25    2    1    2    0    0  0.00000000000E+00  0.00000000000E+00 -0.21900460418E+03  0.25216572455E+03  0.12499814393E+03 0.  0.
    9000005    1    3    3    0    0 -0.25610065240E+02 -0.33837432926E+02 -0.16961140904E+02  0.45711350991E+02  0.10000000000E+01 0.  0.
    9000005    1    3    3    0    0  0.25610065240E+02  0.33837432926E+02 -0.20204346328E+03  0.20645437356E+03  0.10000000000E+01 0.  0.
<mgrwt>
<rscale>  0 0.12499814E+03</rscale>
<asrwt>0</asrwt>
<pdfrwt beam="1">  1        4 0.25508556E-02 0.12499814E+03</pdfrwt>
<pdfrwt beam="2">  1       -4 0.36243869E-01 0.12499814E+03</pdfrwt>
<totfact> 0.82021609E+03</totfact>
</mgrwt>
</event>
<event>
 5    1  0.3271306E-002  0.1250131E+03  0.7818608E-02  0.1235049E+00
         -4   -1    0    0    0  501 -0.00000000000E+00  0.00000000000E+00  0.49798393989E+02  0.49814585654E+02  0.12700000000E+01 0. -1.
          4   -1    0    0  501    0  0.00000000000E+00 -0.00000000000E+00 -0.78423677025E+02  0.78433959597E+02  0.12700000000E+01 0. -1.
         25    2    1    2    0    0  0.00000000000E+00  0.00000000000E+00 -0.28625283036E+02  0.12824854525E+03  0.12501312943E+03 0.  0.
    9000005    1    3    3    0    0  0.14055998170E+02 -0.33747887295E+02 -0.66315577386E+02  0.75731412145E+02  0.10000000000E+01 0.  0.
    9000005    1    3    3    0    0 -0.14055998170E+02  0.33747887295E+02  0.37690294350E+02  0.52517133106E+02  0.10000000000E+01 0.  0.
<mgrwt>
<rscale>  0 0.12501313E+03</rscale>
<asrwt>0</asrwt>
<pdfrwt beam="2">  1        4 0.12067218E-01 0.12501313E+03</pdfrwt>
<pdfrwt beam="1">  1       -4 0.76633278E-02 0.12501313E+03</pdfrwt>
<totfact> 0.10379047E+04</totfact>
</mgrwt>
</event>
<event>
 5    1  0.3271306E-002  0.1249998E+03  0.7818608E-02  0.1235070E+00
         -4   -1    0    0    0  501 -0.00000000000E+00  0.00000000000E+00  0.13567098880E+03  0.13567693283E+03  0.12700000000E+01 0. -1.
          4   -1    0    0  501    0  0.00000000000E+00 -0.00000000000E+00 -0.28771391163E+02  0.28799407103E+02  0.12700000000E+01 0. -1.
         25    2    1    2    0    0  0.00000000000E+00  0.00000000000E+00  0.10689959764E+03  0.16447633993E+03  0.12499976969E+03 0.  0.
    9000005    1    3    3    0    0  0.78610935533E+01 -0.32750404918E+02 -0.15813107662E+02  0.37221501691E+02  0.10000000000E+01 0.  0.
    9000005    1    3    3    0    0 -0.78610935533E+01  0.32750404918E+02  0.12271270530E+03  0.12725483824E+03  0.10000000000E+01 0.  0.
<mgrwt>
<rscale>  0 0.12499977E+03</rscale>
<asrwt>0</asrwt>
<pdfrwt beam="2">  1        4 0.44289803E-02 0.12499977E+03</pdfrwt>
<pdfrwt beam="1">  1       -4 0.20875071E-01 0.12499977E+03</pdfrwt>
<totfact> 0.96487157E+03</totfact>
</mgrwt>
</event>
<event>
 5    1  0.3271306E-002  0.1249996E+03  0.7818608E-02  0.1235070E+00
         -4   -1    0    0    0  501 -0.00000000000E+00  0.00000000000E+00  0.16305640247E+03  0.16306134823E+03  0.12700000000E+01 0.  1.
          4   -1    0    0  501    0  0.00000000000E+00 -0.00000000000E+00 -0.23934119079E+02  0.23967789971E+02  0.12700000000E+01 0.  1.
         25    2    1    2    0    0  0.00000000000E+00  0.00000000000E+00  0.13912228339E+03  0.18702913820E+03  0.12499955520E+03 0.  0.
    9000005    1    3    3    0    0  0.26150949890E+02  0.26834758797E+02 -0.52694167179E+01  0.37851594582E+02  0.10000000000E+01 0.  0.
    9000005    1    3    3    0    0 -0.26150949890E+02 -0.26834758797E+02  0.14439170011E+03  0.14917754362E+03  0.10000000000E+01 0.  0.
<mgrwt>
<rscale>  0 0.12499956E+03</rscale>
<asrwt>0</asrwt>
<pdfrwt beam="2">  1        4 0.36851426E-02 0.12499956E+03</pdfrwt>
<pdfrwt beam="1">  1       -4 0.25088571E-01 0.12499956E+03</pdfrwt>
<totfact> 0.92367739E+03</totfact>
</mgrwt>
</event>
<event>
 5    1  0.3271306E-002  0.1250017E+03  0.7818608E-02  0.1235067E+00
          4   -1    0    0  501    0  0.00000000000E+00  0.00000000000E+00  0.23320245739E+03  0.23320591552E+03  0.12700000000E+01 0.  1.
         -4   -1    0    0    0  501 -0.00000000000E+00 -0.00000000000E+00 -0.16723275731E+02  0.16771429610E+02  0.12700000000E+01 0.  1.
         25    2    1    2    0    0  0.00000000000E+00  0.00000000000E+00  0.21647918166E+03  0.24997734513E+03  0.12500174793E+03 0.  0.
    9000005    1    3    3    0    0 -0.60849385099E+02 -0.21479576209E+01  0.80093087173E+02  0.10061393543E+03  0.10000000000E+01 0.  0.
    9000005    1    3    3    0    0  0.60849385099E+02  0.21479576209E+01  0.13638609448E+03  0.14936340970E+03  0.10000000000E+01 0.  0.
<mgrwt>
<rscale>  0 0.12500175E+03</rscale>
<asrwt>0</asrwt>
<pdfrwt beam="1">  1        4 0.35881271E-01 0.12500175E+03</pdfrwt>
<pdfrwt beam="2">  1       -4 0.25767819E-02 0.12500175E+03</pdfrwt>
<totfact> 0.82330296E+03</totfact>
</mgrwt>
</event>
<event>
 5    1  0.3271306E-002  0.1250021E+03  0.7818608E-02  0.1235066E+00
         -4   -1    0    0    0  501 -0.00000000000E+00  0.00000000000E+00  0.88695087997E+02  0.88704179918E+02  0.12700000000E+01 0.  1.
          4   -1    0    0  501    0  0.00000000000E+00 -0.00000000000E+00 -0.44022294596E+02  0.44040609913E+02  0.12700000000E+01 0.  1.
         25    2    1    2    0    0  0.00000000000E+00  0.00000000000E+00  0.44672793401E+02  0.13274478983E+03  0.12500208301E+03 0.  0.
    9000005    1    3    3    0    0 -0.20642628401E+02  0.56245142905E+02  0.34665161852E+01  0.60022087119E+02  0.10000000000E+01 0.  0.
    9000005    1    3    3    0    0  0.20642628401E+02 -0.56245142905E+02  0.41206277216E+02  0.72722702712E+02  0.10000000000E+01 0.  0.
<mgrwt>
<rscale>  0 0.12500208E+03</rscale>
<asrwt>0</asrwt>
<pdfrwt beam="2">  1        4 0.67747690E-02 0.12500208E+03</pdfrwt>
<pdfrwt beam="1">  1       -4 0.13647506E-01 0.12500208E+03</pdfrwt>
<totfact> 0.10285344E+04</totfact>
</mgrwt>
</event>
<event>
 5    1  0.3271306E-002  0.1250006E+03  0.7818608E-02  0.1235068E+00
         -4   -1    0    0    0  501 -0.00000000000E+00  0.00000000000E+00  0.93514118521E+01  0.94372561493E+01  0.12700000000E+01 0. -1.
          4   -1    0    0  501    0  0.00000000000E+00 -0.00000000000E+00 -0.41572659559E+03  0.41572853544E+03  0.12700000000E+01 0. -1.
         25    2    1    2    0    0  0.00000000000E+00  0.00000000000E+00 -0.40637518374E+03  0.42516579159E+03  0.12500064152E+03 0.  0.
    9000005    1    3    3    0    0  0.30899615148E+02 -0.24589656862E+02 -0.36792659648E+03  0.37004110290E+03  0.10000000000E+01 0.  0.
    9000005    1    3    3    0    0 -0.30899615148E+02  0.24589656862E+02 -0.38448587261E+02  0.55124688691E+02  0.10000000000E+01 0.  0.
<mgrwt>
<rscale>  0 0.12500064E+03</rscale>
<asrwt>0</asrwt>
<pdfrwt beam="2">  1        4 0.63964676E-01 0.12500064E+03</pdfrwt>
<pdfrwt beam="1">  1       -4 0.14454317E-02 0.12500064E+03</pdfrwt>
<totfact> 0.62175767E+03</totfact>
</mgrwt>
</event>
<event>
 5    1  0.3271306E-002  0.1250016E+03  0.7818608E-02  0.1235067E+00
          4   -1    0    0  501    0  0.00000000000E+00  0.00000000000E+00  0.16626899377E+03  0.16627384398E+03  0.12700000000E+01 0.  1.
         -4   -1    0    0    0  501 -0.00000000000E+00 -0.00000000000E+00 -0.23471807371E+02  0.23506140501E+02  0.12700000000E+01 0.  1.
         25    2    1    2    0    0  0.00000000000E+00  0.00000000000E+00  0.14279718640E+03  0.18977998448E+03  0.12500162424E+03 0.  0.
    9000005    1    3    3    0    0  0.52955109563E+02  0.31868905397E+02  0.85435419557E+02  0.10545179787E+03  0.10000000000E+01 0.  0.
    9000005    1    3    3    0    0 -0.52955109563E+02 -0.31868905397E+02  0.57361766845E+02  0.84328186602E+02  0.10000000000E+01 0.  0.
<mgrwt>
<rscale>  0 0.12500162E+03</rscale>
<asrwt>0</asrwt>
<pdfrwt beam="1">  1        4 0.25582858E-01 0.12500162E+03</pdfrwt>
<pdfrwt beam="2">  1       -4 0.36140615E-02 0.12500162E+03</pdfrwt>
<totfact> 0.91882268E+03</totfact>
</mgrwt>
</event>
<event>
 5    1  0.3271306E-002  0.1250009E+03  0.7818608E-02  0.1235068E+00
          4   -1    0    0  501    0  0.00000000000E+00  0.00000000000E+00  0.50335860099E+03  0.50336020312E+03  0.12700000000E+01 0.  1.
         -4   -1    0    0    0  501 -0.00000000000E+00 -0.00000000000E+00 -0.77068971500E+01  0.78108362984E+01  0.12700000000E+01 0.  1.
         25    2    1    2    0    0  0.00000000000E+00  0.00000000000E+00  0.49565170384E+03  0.51117103942E+03  0.12500088010E+03 0.  0.
    9000005    1    3    3    0    0  0.60984388971E+02 -0.85842752930E+01  0.29120361148E+03  0.29764631497E+03  0.10000000000E+01 0.  0.
    9000005    1    3    3    0    0 -0.60984388971E+02  0.85842752930E+01  0.20444809236E+03  0.21352472445E+03  0.10000000000E+01 0.  0.
<mgrwt>
<rscale>  0 0.12500088E+03</rscale>
<asrwt>0</asrwt>
<pdfrwt beam="1">  1        4 0.77447914E-01 0.12500088E+03</pdfrwt>
<pdfrwt beam="2">  1       -4 0.11937949E-02 0.12500088E+03</pdfrwt>
<totfact> 0.55006859E+03</totfact>
</mgrwt>
</event>
<event>
 5    1  0.3271306E-002  0.1249939E+03  0.7818608E-02  0.1235079E+00
          4   -1    0    0  501    0  0.00000000000E+00  0.00000000000E+00  0.17509958454E+02  0.17555954689E+02  0.12700000000E+01 0. -1.
         -4   -1    0    0    0  501 -0.00000000000E+00 -0.00000000000E+00 -0.22272523803E+03  0.22272885883E+03  0.12700000000E+01 0. -1.
         25    2    1    2    0    0  0.00000000000E+00  0.00000000000E+00 -0.20521527958E+03  0.24028481352E+03  0.12499392240E+03 0.  0.
    9000005    1    3    3    0    0  0.17706421307E+02 -0.34652639489E+02 -0.86166756516E+01  0.39869410308E+02  0.10000000000E+01 0.  0.
    9000005    1    3    3    0    0 -0.17706421307E+02  0.34652639489E+02 -0.19659860393E+03  0.20041540321E+03  0.10000000000E+01 0.  0.
<mgrwt>
<rscale>  0 0.12499392E+03</rscale>
<asrwt>0</asrwt>
<pdfrwt beam="1">  1        4 0.26976566E-02 0.12499392E+03</pdfrwt>
<pdfrwt beam="2">  1       -4 0.34269236E-01 0.12499392E+03</pdfrwt>
<totfact> 0.83766318E+03</totfact>
</mgrwt>
</event>
<event>
 5    1  0.3271306E-002  0.1249987E+03  0.7818608E-02  0.1235071E+00
         -4   -1    0    0    0  501 -0.00000000000E+00  0.00000000000E+00  0.30842961011E+02  0.30869096908E+02  0.12700000000E+01 0. -1.
          4   -1    0    0  501    0  0.00000000000E+00 -0.00000000000E+00 -0.12656401816E+03  0.12657038987E+03  0.12700000000E+01 0. -1.
         25    2    1    2    0    0  0.00000000000E+00  0.00000000000E+00 -0.95721057144E+02  0.15743948678E+03  0.12499868486E+03 0.  0.
    9000005    1    3    3    0    0  0.15836886319E+02 -0.60307294789E+02 -0.53113086924E+02  0.81913227110E+02  0.10000000000E+01 0.  0.
    9000005    1    3    3    0    0 -0.15836886319E+02  0.60307294789E+02 -0.42607970220E+02  0.75526259667E+02  0.10000000000E+01 0.  0.
<mgrwt>
<rscale>  0 0.12499868E+03</rscale>
<asrwt>0</asrwt>
<pdfrwt beam="2">  1        4 0.19473888E-01 0.12499868E+03</pdfrwt>
<pdfrwt beam="1">  1       -4 0.47475716E-02 0.12499868E+03</pdfrwt>
<totfact> 0.97841608E+03</totfact>
</mgrwt>
</event>
<event>
 5    1  0.3271306E-002  0.1249992E+03  0.7818608E-02  0.1235070E+00
         -4   -1    0    0    0  501 -0.00000000000E+00  0.00000000000E+00  0.15219304644E+03  0.15219834521E+03  0.12700000000E+01 0.  1.
          4   -1    0    0  501    0  0.00000000000E+00 -0.00000000000E+00 -0.25644639718E+02  0.25676067578E+02  0.12700000000E+01 0.  1.
         25    2    1    2    0    0  0.00000000000E+00  0.00000000000E+00  0.12654840672E+03  0.17787441279E+03  0.12499922992E+03 0.  0.
    9000005    1    3    3    0    0  0.59787384180E+02  0.13742668040E+02  0.46328522749E+02  0.76881234719E+02  0.10000000000E+01 0.  0.
    9000005    1    3    3    0    0 -0.59787384180E+02 -0.13742668040E+02  0.80219883975E+02  0.10099317807E+03  0.10000000000E+01 0.  0.
<mgrwt>
<rscale>  0 0.12499923E+03</rscale>
<asrwt>0</asrwt>
<pdfrwt beam="2">  1        4 0.39481543E-02 0.12499923E+03</pdfrwt>
<pdfrwt beam="1">  1       -4 0.23417140E-01 0.12499923E+03</pdfrwt>
<totfact> 0.94002644E+03</totfact>
</mgrwt>
</event>
<event>
 5    1  0.3271306E-002  0.1249910E+03  0.7818608E-02  0.1235083E+00
          4   -1    0    0  501    0  0.00000000000E+00  0.00000000000E+00  0.98662369625E+02  0.98670543123E+02  0.12700000000E+01 0. -1.
         -4   -1    0    0    0  501 -0.00000000000E+00 -0.00000000000E+00 -0.39566391853E+02  0.39586768804E+02  0.12700000000E+01 0. -1.
         25    2    1    2    0    0  0.00000000000E+00  0.00000000000E+00  0.59095977772E+02  0.13825731193E+03  0.12499099852E+03 0.  0.
    9000005    1    3    3    0    0  0.17018887659E+02  0.12267594540E+02 -0.35559785760E+02  0.41299331426E+02  0.10000000000E+01 0.  0.
    9000005    1    3    3    0    0 -0.17018887659E+02 -0.12267594540E+02  0.94655763532E+02  0.96957980500E+02  0.10000000000E+01 0.  0.
<mgrwt>
<rscale>  0 0.12499100E+03</rscale>
<asrwt>0</asrwt>
<pdfrwt beam="1">  1        4 0.15181022E-01 0.12499100E+03</pdfrwt>
<pdfrwt beam="2">  1       -4 0.60893334E-02 0.12499100E+03</pdfrwt>
<totfact> 0.10171895E+04</totfact>
</mgrwt>
</event>
<event>
 5    1  0.3271306E-002  0.1250031E+03  0.7818608E-02  0.1235064E+00
         -4   -1    0    0    0  501 -0.00000000000E+00  0.00000000000E+00  0.15440990129E+03  0.15441512399E+03  0.12700000000E+01 0.  1.
          4   -1    0    0  501    0  0.00000000000E+00 -0.00000000000E+00 -0.25277578647E+02  0.25309462307E+02  0.12700000000E+01 0.  1.
         25    2    1    2    0    0  0.00000000000E+00  0.00000000000E+00  0.12913232264E+03  0.17972458630E+03  0.12500308063E+03 0.  0.
    9000005    1    3    3    0    0 -0.13926238022E+02  0.54760245671E+02  0.10295244640E+03  0.11744288327E+03  0.10000000000E+01 0.  0.
    9000005    1    3    3    0    0  0.13926238022E+02 -0.54760245671E+02  0.26179876242E+02  0.62281703023E+02  0.10000000000E+01 0.  0.
<mgrwt>
<rscale>  0 0.12500308E+03</rscale>
<asrwt>0</asrwt>
<pdfrwt beam="2">  1        4 0.38917124E-02 0.12500308E+03</pdfrwt>
<pdfrwt beam="1">  1       -4 0.23758225E-01 0.12500308E+03</pdfrwt>
<totfact> 0.93660131E+03</totfact>
</mgrwt>
</event>
<event>
 5    1  0.3271306E-002  0.1249988E+03  0.7818608E-02  0.1235071E+00
         -4   -1    0    0    0  501 -0.00000000000E+00  0.00000000000E+00  0.24050505257E+02  0.24084013435E+02  0.12700000000E+01 0.  1.
          4   -1    0    0  501    0  0.00000000000E+00 -0.00000000000E+00 -0.16226631901E+03  0.16227128885E+03  0.12700000000E+01 0.  1.
         25    2    1    2    0    0  0.00000000000E+00  0.00000000000E+00 -0.13821581375E+03  0.18635530229E+03  0.12499875007E+03 0.  0.
    9000005    1    3    3    0    0 -0.29576303628E+01  0.30986177982E+02  0.11677868354E+02  0.33260538369E+02  0.10000000000E+01 0.  0.
    9000005    1    3    3    0    0  0.29576303628E+01 -0.30986177982E+02 -0.14989368211E+03  0.15309476392E+03  0.10000000000E+01 0.  0.
<mgrwt>
<rscale>  0 0.12499875E+03</rscale>
<asrwt>0</asrwt>
<pdfrwt beam="2">  1        4 0.24967008E-01 0.12499875E+03</pdfrwt>
<pdfrwt beam="1">  1       -4 0.37030377E-02 0.12499875E+03</pdfrwt>
<totfact> 0.92487966E+03</totfact>
</mgrwt>
</event>
<event>
 4    1  0.3271306E-002  0.1249315E+03  0.7818608E-02  0.1235176E+00
          4   -1    0    0  501    0  0.00000000000E+00  0.00000000000E+00  0.28549413769E+02  0.28577647323E+02  0.12700000000E+01 0.  1.
         -4   -1    0    0    0  501 -0.00000000000E+00 -0.00000000000E+00 -0.13657553867E+03  0.13658144333E+03  0.12700000000E+01 0.  1.
    9000005    1    1    2    0    0  0.36744712646E+02  0.28983756460E+01 -0.12067103383E+03  0.12617873393E+03  0.10000000000E+01 0.  0.
    9000005    1    1    2    0    0 -0.36744712646E+02 -0.28983756460E+01  0.12644908933E+02  0.38980356729E+02  0.10000000000E+01 0.  0.
<mgrwt>
<rscale>  0 0.12493151E+03</rscale>
<asrwt>0</asrwt>
<pdfrwt beam="1">  1        4 0.43948436E-02 0.12493151E+03</pdfrwt>
<pdfrwt beam="2">  1       -4 0.21014247E-01 0.12493151E+03</pdfrwt>
<totfact> 0.96505681E+03</totfact>
</mgrwt>
</event>
<event>
 5    1  0.3271306E-002  0.1249973E+03  0.7818608E-02  0.1235074E+00
         -4   -1    0    0    0  501 -0.00000000000E+00  0.00000000000E+00  0.34922508382E+02  0.34945593308E+02  0.12700000000E+01 0. -1.
          4   -1    0    0  501    0  0.00000000000E+00 -0.00000000000E+00 -0.11178631355E+03  0.11179352752E+03  0.12700000000E+01 0. -1.
         25    2    1    2    0    0  0.00000000000E+00  0.00000000000E+00 -0.76863805164E+02  0.14673912083E+03  0.12499730012E+03 0.  0.
    9000005    1    3    3    0    0  0.54096826654E+02 -0.17639149415E+02 -0.68761230490E+02  0.89256445508E+02  0.10000000000E+01 0.  0.
    9000005    1    3    3    0    0 -0.54096826654E+02  0.17639149415E+02 -0.81025746738E+01  0.57482675324E+02  0.10000000000E+01 0.  0.
<mgrwt>
<rscale>  0 0.12499730E+03</rscale>
<asrwt>0</asrwt>
<pdfrwt beam="2">  1        4 0.17200225E-01 0.12499730E+03</pdfrwt>
<pdfrwt beam="1">  1       -4 0.53750243E-02 0.12499730E+03</pdfrwt>
<totfact> 0.99963799E+03</totfact>
</mgrwt>
</event>
<event>
 5    1  0.3271306E-002  0.1250155E+03  0.7818608E-02  0.1235045E+00
          4   -1    0    0  501    0  0.00000000000E+00  0.00000000000E+00  0.10125483654E+04  0.10125491618E+04  0.12700000000E+01 0.  1.
         -4   -1    0    0    0  501 -0.00000000000E+00 -0.00000000000E+00 -0.37534836288E+01  0.39625167952E+01  0.12700000000E+01 0.  1.
         25    2    1    2    0    0  0.00000000000E+00  0.00000000000E+00  0.10087948817E+04  0.10165116786E+04  0.12501551642E+03 0.  0.
    9000005    1    3    3    0    0 -0.43632067423E+02 -0.38312692040E+02  0.31639521357E+03  0.32168082139E+03  0.10000000000E+01 0.  0.
    9000005    1    3    3    0    0  0.43632067423E+02  0.38312692040E+02  0.69239966815E+03  0.69483085721E+03  0.10000000000E+01 0.  0.
<mgrwt>
<rscale>  0 0.12501552E+03</rscale>
<asrwt>0</asrwt>
<pdfrwt beam="1">  1        4 0.15579272E+00 0.12501552E+03</pdfrwt>
<pdfrwt beam="2">  1       -4 0.59360013E-03 0.12501552E+03</pdfrwt>
<totfact> 0.30053692E+03</totfact>
</mgrwt>
</event>
<event>
 5    1  0.3271306E-002  0.1249972E+03  0.7818608E-02  0.1235074E+00
          4   -1    0    0  501    0  0.00000000000E+00  0.00000000000E+00  0.13054210507E+03  0.13054828263E+03  0.12700000000E+01 0. -1.
         -4   -1    0    0    0  501 -0.00000000000E+00 -0.00000000000E+00 -0.29901602067E+02  0.29928560042E+02  0.12700000000E+01 0. -1.
         25    2    1    2    0    0  0.00000000000E+00  0.00000000000E+00  0.10064050301E+03  0.16047684267E+03  0.12499722472E+03 0.  0.
    9000005    1    3    3    0    0  0.90815356495E+01 -0.61124980837E+02  0.38390938204E+02  0.72757141974E+02  0.10000000000E+01 0.  0.
    9000005    1    3    3    0    0 -0.90815356495E+01  0.61124980837E+02  0.62249564802E+02  0.87719700695E+02  0.10000000000E+01 0.  0.
<mgrwt>
<rscale>  0 0.12499722E+03</rscale>
<asrwt>0</asrwt>
<pdfrwt beam="1">  1        4 0.20085950E-01 0.12499722E+03</pdfrwt>
<pdfrwt beam="2">  1       -4 0.46027953E-02 0.12499722E+03</pdfrwt>
<totfact> 0.97256998E+03</totfact>
</mgrwt>
</event>
<event>
 5    1  0.3271306E-002  0.1250023E+03  0.7818608E-02  0.1235066E+00
         -4   -1    0    0    0  501 -0.00000000000E+00  0.00000000000E+00  0.35670642370E+02  0.35693243438E+02  0.12700000000E+01 0.  1.
          4   -1    0    0  501    0  0.00000000000E+00 -0.00000000000E+00 -0.10945192817E+03  0.10945929600E+03  0.12700000000E+01 0.  1.
         25    2    1    2    0    0  0.00000000000E+00  0.00000000000E+00 -0.73781285801E+02  0.14515253944E+03  0.12500232626E+03 0.  0.
    9000005    1    3    3    0    0 -0.45640736554E+02 -0.95430535278E+01  0.11424834124E+02  0.48017429529E+02  0.10000000000E+01 0.  0.
    9000005    1    3    3    0    0  0.45640736554E+02  0.95430535278E+01 -0.85206119925E+02  0.97135109907E+02  0.10000000000E+01 0.  0.
<mgrwt>
<rscale>  0 0.12500233E+03</rscale>
<asrwt>0</asrwt>
<pdfrwt beam="2">  1        4 0.16841063E-01 0.12500233E+03</pdfrwt>
<pdfrwt beam="1">  1       -4 0.54900965E-02 0.12500233E+03</pdfrwt>
<totfact> 0.10027365E+04</totfact>
</mgrwt>
</event>
<event>
 5    1  0.3271306E-002  0.1250022E+03  0.7818608E-02  0.1235066E+00
          4   -1    0    0  501    0  0.00000000000E+00  0.00000000000E+00  0.59199328338E+02  0.59212949392E+02  0.12700000000E+01 0.  1.
         -4   -1    0    0    0  501 -0.00000000000E+00 -0.00000000000E+00 -0.65959723716E+02  0.65971948983E+02  0.12700000000E+01 0.  1.
         25    2    1    2    0    0  0.00000000000E+00  0.00000000000E+00 -0.67603953776E+01  0.12518489838E+03  0.12500222332E+03 0.  0.
    9000005    1    3    3    0    0 -0.37327211554E+02 -0.37699358547E+02 -0.36456127659E+02  0.64378657963E+02  0.10000000000E+01 0.  0.
    9000005    1    3    3    0    0  0.37327211554E+02  0.37699358547E+02  0.29695732281E+02  0.60806240412E+02  0.10000000000E+01 0.  0.
<mgrwt>
<rscale>  0 0.12500222E+03</rscale>
<asrwt>0</asrwt>
<pdfrwt beam="1">  1        4 0.91095771E-02 0.12500222E+03</pdfrwt>
<pdfrwt beam="2">  1       -4 0.10149638E-01 0.12500222E+03</pdfrwt>
<totfact> 0.10448323E+04</totfact>
</mgrwt>
</event>
<event>
 5    1  0.3271306E-002  0.1249984E+03  0.7818608E-02  0.1235072E+00
         -4   -1    0    0    0  501 -0.00000000000E+00  0.00000000000E+00  0.68326497452E+03  0.68326615480E+03  0.12700000000E+01 0. -1.
          4   -1    0    0  501    0  0.00000000000E+00 -0.00000000000E+00 -0.56451525412E+01  0.57862463838E+01  0.12700000000E+01 0. -1.
         25    2    1    2    0    0  0.00000000000E+00  0.00000000000E+00  0.67761982197E+03  0.68905240119E+03  0.12499835379E+03 0.  0.
    9000005    1    3    3    0    0  0.31869879798E+02 -0.41058729703E+02  0.14756230452E+03  0.15645172494E+03  0.10000000000E+01 0.  0.
    9000005    1    3    3    0    0 -0.31869879798E+02  0.41058729703E+02  0.53005751745E+03  0.53260067624E+03  0.10000000000E+01 0.  0.
<mgrwt>
<rscale>  0 0.12499835E+03</rscale>
<asrwt>0</asrwt>
<pdfrwt beam="2">  1        4 0.87942959E-03 0.12499835E+03</pdfrwt>
<pdfrwt beam="1">  1       -4 0.10512858E+00 0.12499835E+03</pdfrwt>
<totfact> 0.43672525E+03</totfact>
</mgrwt>
</event>
<event>
 5    1  0.3271306E-002  0.1249976E+03  0.7818608E-02  0.1235073E+00
          4   -1    0    0  501    0  0.00000000000E+00  0.00000000000E+00  0.32047544049E+03  0.32047795689E+03  0.12700000000E+01 0. -1.
         -4   -1    0    0    0  501 -0.00000000000E+00 -0.00000000000E+00 -0.12152798382E+02  0.12218977392E+02  0.12700000000E+01 0. -1.
         25    2    1    2    0    0  0.00000000000E+00  0.00000000000E+00  0.30832264211E+03  0.33269693429E+03  0.12499759377E+03 0.  0.
    9000005    1    3    3    0    0  0.67499692542E+01 -0.55484615568E+02  0.22854390524E+03  0.23528157869E+03  0.10000000000E+01 0.  0.
    9000005    1    3    3    0    0 -0.67499692542E+01  0.55484615568E+02  0.79778736867E+02  0.97415355595E+02  0.10000000000E+01 0.  0.
<mgrwt>
<rscale>  0 0.12499759E+03</rscale>
<asrwt>0</asrwt>
<pdfrwt beam="1">  1        4 0.49309203E-01 0.12499759E+03</pdfrwt>
<pdfrwt beam="2">  1       -4 0.18749454E-02 0.12499759E+03</pdfrwt>
<totfact> 0.71674828E+03</totfact>
</mgrwt>
</event>
<event>
 5    1  0.3271306E-002  0.1249983E+03  0.7818608E-02  0.1235072E+00
          4   -1    0    0  501    0  0.00000000000E+00  0.00000000000E+00  0.18279674811E+03  0.18280115979E+03  0.12700000000E+01 0.  1.
         -4   -1    0    0    0  501 -0.00000000000E+00 -0.00000000000E+00 -0.21345236881E+02  0.21382984766E+02  0.12700000000E+01 0.  1.
         25    2    1    2    0    0  0.00000000000E+00  0.00000000000E+00  0.16145151123E+03  0.20418414456E+03  0.12499829762E+03 0.  0.
    9000005    1    3    3    0    0  0.51580311302E+02 -0.14165216246E+02  0.13350464015E+03  0.14382513969E+03  0.10000000000E+01 0.  0.
    9000005    1    3    3    0    0 -0.51580311302E+02  0.14165216246E+02  0.27946871087E+02  0.60359004870E+02  0.10000000000E+01 0.  0.
<mgrwt>
<rscale>  0 0.12499830E+03</rscale>
<asrwt>0</asrwt>
<pdfrwt beam="1">  1        4 0.28125820E-01 0.12499830E+03</pdfrwt>
<pdfrwt beam="2">  1       -4 0.32871256E-02 0.12499830E+03</pdfrwt>
<totfact> 0.89437988E+03</totfact>
</mgrwt>
</event>
<event>
 5    1  0.3271306E-002  0.1250041E+03  0.7818608E-02  0.1235063E+00
          4   -1    0    0  501    0  0.00000000000E+00  0.00000000000E+00  0.12941800828E+03  0.12942423949E+03  0.12700000000E+01 0. -1.
         -4   -1    0    0    0  501 -0.00000000000E+00 -0.00000000000E+00 -0.30164863531E+02  0.30191586442E+02  0.12700000000E+01 0. -1.
         25    2    1    2    0    0  0.00000000000E+00  0.00000000000E+00  0.99253144748E+02  0.15961582593E+03  0.12500410051E+03 0.  0.
    9000005    1    3    3    0    0 -0.23942937162E+02 -0.57081853123E+02  0.38649515157E+02  0.72982102037E+02  0.10000000000E+01 0.  0.
    9000005    1    3    3    0    0  0.23942937162E+02  0.57081853123E+02  0.60603629591E+02  0.86633723893E+02  0.10000000000E+01 0.  0.
<mgrwt>
<rscale>  0 0.12500410E+03</rscale>
<asrwt>0</asrwt>
<pdfrwt beam="1">  1        4 0.19912998E-01 0.12500410E+03</pdfrwt>
<pdfrwt beam="2">  1       -4 0.46432832E-02 0.12500410E+03</pdfrwt>
<totfact> 0.97407923E+03</totfact>
</mgrwt>
</event>
<event>
 5    1  0.3271306E-002  0.1250001E+03  0.7818608E-02  0.1235069E+00
         -4   -1    0    0    0  501 -0.00000000000E+00  0.00000000000E+00  0.31413470449E+02  0.31439132075E+02  0.12700000000E+01 0.  1.
          4   -1    0    0  501    0  0.00000000000E+00 -0.00000000000E+00 -0.12427006791E+03  0.12427655723E+03  0.12700000000E+01 0.  1.
         25    2    1    2    0    0  0.00000000000E+00  0.00000000000E+00 -0.92856597460E+02  0.15571568931E+03  0.12500011282E+03 0.  0.
    9000005    1    3    3    0    0 -0.51768481304E+02 -0.34868770902E+02 -0.50257804359E+02  0.80141460804E+02  0.10000000000E+01 0.  0.
    9000005    1    3    3    0    0  0.51768481304E+02  0.34868770902E+02 -0.42598793101E+02  0.75574228507E+02  0.10000000000E+01 0.  0.
<mgrwt>
<rscale>  0 0.12500011E+03</rscale>
<asrwt>0</asrwt>
<pdfrwt beam="2">  1        4 0.19120945E-01 0.12500011E+03</pdfrwt>
<pdfrwt beam="1">  1       -4 0.48353148E-02 0.12500011E+03</pdfrwt>
<totfact> 0.98174934E+03</totfact>
</mgrwt>
</event>
<event>
 5    1  0.3271306E-002  0.1250036E+03  0.7818608E-02  0.1235064E+00
         -4   -1    0    0    0  501 -0.00000000000E+00  0.00000000000E+00  0.74682566822E+01  0.75754708019E+01  0.12700000000E+01 0. -1.
          4   -1    0    0  501    0  0.00000000000E+00 -0.00000000000E+00 -0.51924128296E+03  0.51924283609E+03  0.12700000000E+01 0. -1.
         25    2    1    2    0    0  0.00000000000E+00  0.00000000000E+00 -0.51177302628E+03  0.52681830689E+03  0.12500359215E+03 0.  0.
    9000005    1    3    3    0    0 -0.31885735356E+02  0.28442352123E+02 -0.44808496392E+03  0.45011865369E+03  0.10000000000E+01 0.  0.
    9000005    1    3    3    0    0  0.31885735356E+02 -0.28442352123E+02 -0.63688062359E+02  0.76699653197E+02  0.10000000000E+01 0.  0.
<mgrwt>
<rscale>  0 0.12500359E+03</rscale>
<asrwt>0</asrwt>
<pdfrwt beam="2">  1        4 0.79891613E-01 0.12500359E+03</pdfrwt>
<pdfrwt beam="1">  1       -4 0.11573297E-02 0.12500359E+03</pdfrwt>
<totfact> 0.53837786E+03</totfact>
</mgrwt>
</event>
<event>
 5    1  0.3271306E-002  0.1250002E+03  0.7818608E-02  0.1235069E+00
         -4   -1    0    0    0  501 -0.00000000000E+00  0.00000000000E+00  0.26838072041E+02  0.26868103969E+02  0.12700000000E+01 0.  1.
          4   -1    0    0  501    0  0.00000000000E+00 -0.00000000000E+00 -0.14543515992E+03  0.14544070489E+03  0.12700000000E+01 0.  1.
         25    2    1    2    0    0  0.00000000000E+00  0.00000000000E+00 -0.11859708788E+03  0.17230880886E+03  0.12500022544E+03 0.  0.
    9000005    1    3    3    0    0 -0.48710681042E+01 -0.52289251880E+02 -0.10599120267E+03  0.11829213081E+03  0.10000000000E+01 0.  0.
    9000005    1    3    3    0    0  0.48710681042E+01  0.52289251880E+02 -0.12605885204E+02  0.54016678058E+02  0.10000000000E+01 0.  0.
<mgrwt>
<rscale>  0 0.12500023E+03</rscale>
<asrwt>0</asrwt>
<pdfrwt beam="2">  1        4 0.22377376E-01 0.12500023E+03</pdfrwt>
<pdfrwt beam="1">  1       -4 0.41316709E-02 0.12500023E+03</pdfrwt>
<totfact> 0.95019569E+03</totfact>
</mgrwt>
</event>
<event>
 5    1  0.3271306E-002  0.1250038E+03  0.7818608E-02  0.1235063E+00
          4   -1    0    0  501    0  0.00000000000E+00  0.00000000000E+00  0.64728409305E+01  0.65962542182E+01  0.12700000000E+01 0.  1.
         -4   -1    0    0    0  501 -0.00000000000E+00 -0.00000000000E+00 -0.59769661222E+03  0.59769796148E+03  0.12700000000E+01 0.  1.
         25    2    1    2    0    0  0.00000000000E+00  0.00000000000E+00 -0.59122377129E+03  0.60429421570E+03  0.12500380550E+03 0.  0.
    9000005    1    3    3    0    0  0.45918879435E+02  0.42389752239E+02 -0.29449619689E+03  0.30105555064E+03  0.10000000000E+01 0.  0.
    9000005    1    3    3    0    0 -0.45918879435E+02 -0.42389752239E+02 -0.29672757440E+03  0.30323866507E+03  0.10000000000E+01 0.  0.
<mgrwt>
<rscale>  0 0.12500381E+03</rscale>
<asrwt>0</asrwt>
<pdfrwt beam="1">  1        4 0.10054193E-02 0.12500381E+03</pdfrwt>
<pdfrwt beam="2">  1       -4 0.91962879E-01 0.12500381E+03</pdfrwt>
<totfact> 0.48593627E+03</totfact>
</mgrwt>
</event>
<event>
 5    1  0.3271306E-002  0.1249994E+03  0.7818608E-02  0.1235070E+00
         -4   -1    0    0    0  501 -0.00000000000E+00  0.00000000000E+00  0.14847926331E+02  0.14902141333E+02  0.12700000000E+01 0.  1.
          4   -1    0    0  501    0  0.00000000000E+00 -0.00000000000E+00 -0.26254609360E+03  0.26254916523E+03  0.12700000000E+01 0.  1.
         25    2    1    2    0    0  0.00000000000E+00  0.00000000000E+00 -0.24769816727E+03  0.27745130656E+03  0.12499938178E+03 0.  0.
    9000005    1    3    3    0    0 -0.32135267878E+02  0.29540260948E+02 -0.24586856287E+02  0.50108042873E+02  0.10000000000E+01 0.  0.
    9000005    1    3    3    0    0  0.32135267878E+02 -0.29540260948E+02 -0.22311131098E+03  0.22734326369E+03  0.10000000000E+01 0.  0.
<mgrwt>
<rscale>  0 0.12499938E+03</rscale>
<asrwt>0</asrwt>
<pdfrwt beam="2">  1        4 0.40396110E-01 0.12499938E+03</pdfrwt>
<pdfrwt beam="1">  1       -4 0.22887032E-02 0.12499938E+03</pdfrwt>
<totfact> 0.78518342E+03</totfact>
</mgrwt>
</event>
<event>
 5    1  0.3271306E-002  0.1249978E+03  0.7818608E-02  0.1235073E+00
          4   -1    0    0  501    0  0.00000000000E+00  0.00000000000E+00  0.31332777266E+02  0.31358504926E+02  0.12700000000E+01 0.  1.
         -4   -1    0    0    0  501 -0.00000000000E+00 -0.00000000000E+00 -0.12458528844E+03  0.12459176134E+03  0.12700000000E+01 0.  1.
         25    2    1    2    0    0  0.00000000000E+00  0.00000000000E+00 -0.93252511170E+02  0.15595026627E+03  0.12499781882E+03 0.  0.
    9000005    1    3    3    0    0 -0.52754410791E+02 -0.25468647394E+02 -0.19479788019E+02  0.61742546103E+02  0.10000000000E+01 0.  0.
    9000005    1    3    3    0    0  0.52754410791E+02  0.25468647394E+02 -0.73772723152E+02  0.94207720168E+02  0.10000000000E+01 0.  0.
<mgrwt>
<rscale>  0 0.12499782E+03</rscale>
<asrwt>0</asrwt>
<pdfrwt beam="1">  1        4 0.48229043E-02 0.12499782E+03</pdfrwt>
<pdfrwt beam="2">  1       -4 0.19169444E-01 0.12499782E+03</pdfrwt>
<totfact> 0.98134085E+03</totfact>
</mgrwt>
</event>
<event>
 5    1  0.3271306E-002  0.1250056E+03  0.7818608E-02  0.1235061E+00
          4   -1    0    0  501    0  0.00000000000E+00  0.00000000000E+00  0.66460097161E+03  0.66460218505E+03  0.12700000000E+01 0. -1.
         -4   -1    0    0    0  501 -0.00000000000E+00 -0.00000000000E+00 -0.58082814421E+01  0.59455053033E+01  0.12700000000E+01 0. -1.
         25    2    1    2    0    0  0.00000000000E+00  0.00000000000E+00  0.65879269017E+03  0.67054769035E+03  0.12500558552E+03 0.  0.
    9000005    1    3    3    0    0 -0.61207092211E+02 -0.26955101241E+01  0.26325728312E+03  0.27029423047E+03  0.10000000000E+01 0.  0.
    9000005    1    3    3    0    0  0.61207092211E+02  0.26955101241E+01  0.39553540705E+03  0.40025345988E+03  0.10000000000E+01 0.  0.
<mgrwt>
<rscale>  0 0.12500559E+03</rscale>
<asrwt>0</asrwt>
<pdfrwt beam="1">  1        4 0.10225690E+00 0.12500559E+03</pdfrwt>
<pdfrwt beam="2">  1       -4 0.90423127E-03 0.12500559E+03</pdfrwt>
<totfact> 0.44682249E+03</totfact>
</mgrwt>
</event>
<event>
 5    1  0.3271306E-002  0.1249983E+03  0.7818608E-02  0.1235072E+00
          4   -1    0    0  501    0  0.00000000000E+00  0.00000000000E+00  0.94763498831E+01  0.95610724872E+01  0.12700000000E+01 0.  1.
         -4   -1    0    0    0  501 -0.00000000000E+00 -0.00000000000E+00 -0.41027930818E+03  0.41028127378E+03  0.12700000000E+01 0.  1.
         25    2    1    2    0    0  0.00000000000E+00  0.00000000000E+00 -0.40080295829E+03  0.41984234627E+03  0.12499833737E+03 0.  0.
    9000005    1    3    3    0    0 -0.10948085762E+02 -0.33446622001E+02 -0.26956523856E+02  0.44341755530E+02  0.10000000000E+01 0.  0.
    9000005    1    3    3    0    0  0.10948085762E+02  0.33446622001E+02 -0.37384643444E+03  0.37550059074E+03  0.10000000000E+01 0.  0.
<mgrwt>
<rscale>  0 0.12499834E+03</rscale>
<asrwt>0</asrwt>
<pdfrwt beam="1">  1        4 0.14645686E-02 0.12499834E+03</pdfrwt>
<pdfrwt beam="2">  1       -4 0.63126548E-01 0.12499834E+03</pdfrwt>
<totfact> 0.62669943E+03</totfact>
</mgrwt>
</event>
<event>
 5    1  0.3271306E-002  0.1250011E+03  0.7818608E-02  0.1235068E+00
         -4   -1    0    0    0  501 -0.00000000000E+00  0.00000000000E+00  0.39981504110E+02  0.40001669601E+02  0.12700000000E+01 0.  1.
          4   -1    0    0  501    0  0.00000000000E+00 -0.00000000000E+00 -0.97654147444E+02  0.97662405321E+02  0.12700000000E+01 0.  1.
         25    2    1    2    0    0  0.00000000000E+00  0.00000000000E+00 -0.57672643334E+02  0.13766407492E+03  0.12500105494E+03 0.  0.
    9000005    1    3    3    0    0  0.22673735832E+01  0.50110617659E+02  0.12209962405E+02  0.51636209844E+02  0.10000000000E+01 0.  0.
    9000005    1    3    3    0    0 -0.22673735832E+01 -0.50110617659E+02 -0.69882605739E+02  0.86027865078E+02  0.10000000000E+01 0.  0.
<mgrwt>
<rscale>  0 0.12500105E+03</rscale>
<asrwt>0</asrwt>
<pdfrwt beam="2">  1        4 0.15025901E-01 0.12500105E+03</pdfrwt>
<pdfrwt beam="1">  1       -4 0.61531871E-02 0.12500105E+03</pdfrwt>
<totfact> 0.10181977E+04</totfact>
</mgrwt>
</event>
<event>
 5    1  0.3271306E-002  0.1249984E+03  0.7818608E-02  0.1235072E+00
         -4   -1    0    0    0  501 -0.00000000000E+00  0.00000000000E+00  0.37817177267E+02  0.37838496223E+02  0.12700000000E+01 0.  1.
          4   -1    0    0  501    0  0.00000000000E+00 -0.00000000000E+00 -0.10323597218E+03  0.10324378360E+03  0.12700000000E+01 0.  1.
         25    2    1    2    0    0  0.00000000000E+00  0.00000000000E+00 -0.65418794911E+02  0.14108227982E+03  0.12499836380E+03 0.  0.
    9000005    1    3    3    0    0 -0.60804588940E+02 -0.10060170313E+02 -0.21048360225E+02  0.65134004415E+02  0.10000000000E+01 0.  0.
    9000005    1    3    3    0    0  0.60804588940E+02  0.10060170313E+02 -0.44370434685E+02  0.75948275405E+02  0.10000000000E+01 0.  0.
<mgrwt>
<rscale>  0 0.12499836E+03</rscale>
<asrwt>0</asrwt>
<pdfrwt beam="2">  1        4 0.15884698E-01 0.12499836E+03</pdfrwt>
<pdfrwt beam="1">  1       -4 0.58202681E-02 0.12499836E+03</pdfrwt>
<totfact> 0.10111577E+04</totfact>
</mgrwt>
</event>
<event>
 5    1  0.3271306E-002  0.1249990E+03  0.7818608E-02  0.1235071E+00
          4   -1    0    0  501    0  0.00000000000E+00  0.00000000000E+00  0.56639563369E+02  0.56653799861E+02  0.12700000000E+01 0. -1.
         -4   -1    0    0    0  501 -0.00000000000E+00 -0.00000000000E+00 -0.68936913250E+02  0.68948610635E+02  0.12700000000E+01 0. -1.
         25    2    1    2    0    0  0.00000000000E+00  0.00000000000E+00 -0.12297349881E+02  0.12560241050E+03  0.12499896283E+03 0.  0.
    9000005    1    3    3    0    0  0.57621944471E+02  0.38127740057E+01  0.17848818648E+02  0.60451683660E+02  0.10000000000E+01 0.  0.
    9000005    1    3    3    0    0 -0.57621944471E+02 -0.38127740057E+01 -0.30146168529E+02  0.65150726836E+02  0.10000000000E+01 0.  0.
<mgrwt>
<rscale>  0 0.12499896E+03</rscale>
<asrwt>0</asrwt>
<pdfrwt beam="1">  1        4 0.87157738E-02 0.12499896E+03</pdfrwt>
<pdfrwt beam="2">  1       -4 0.10607674E-01 0.12499896E+03</pdfrwt>
<totfact> 0.10439938E+04</totfact>
</mgrwt>
</event>
<event>
 5    1  0.3271306E-002  0.1250002E+03  0.7818608E-02  0.1235069E+00
          4   -1    0    0  501    0  0.00000000000E+00  0.00000000000E+00  0.19324831114E+01  0.23124426427E+01  0.12700000000E+01 0. -1.
         -4   -1    0    0    0  501 -0.00000000000E+00 -0.00000000000E+00 -0.18400569220E+04  0.18400573603E+04  0.12700000000E+01 0. -1.
         25    2    1    2    0    0  0.00000000000E+00  0.00000000000E+00 -0.18381244389E+04  0.18423698029E+04  0.12500015145E+03 0.  0.
    9000005    1    3    3    0    0  0.14280715376E+02 -0.47848560337E+02 -0.14728691408E+04  0.14737156882E+04  0.10000000000E+01 0.  0.
    9000005    1    3    3    0    0 -0.14280715376E+02  0.47848560337E+02 -0.36525529806E+03  0.36865411474E+03  0.10000000000E+01 0.  0.
<mgrwt>
<rscale>  0 0.12500015E+03</rscale>
<asrwt>0</asrwt>
<pdfrwt beam="1">  1        4 0.32656793E-03 0.12500015E+03</pdfrwt>
<pdfrwt beam="2">  1       -4 0.28311367E+00 0.12500015E+03</pdfrwt>
<totfact> 0.12062040E+03</totfact>
</mgrwt>
</event>
<event>
 5    1  0.3271306E-002  0.1250093E+03  0.7818608E-02  0.1235055E+00
          4   -1    0    0  501    0  0.00000000000E+00  0.00000000000E+00  0.98460734269E+01  0.99276413074E+01  0.12700000000E+01 0. -1.
         -4   -1    0    0    0  501 -0.00000000000E+00 -0.00000000000E+00 -0.39507120253E+03  0.39507324380E+03  0.12700000000E+01 0. -1.
         25    2    1    2    0    0  0.00000000000E+00  0.00000000000E+00 -0.38522512910E+03  0.40500088511E+03  0.12500926705E+03 0.  0.
    9000005    1    3    3    0    0  0.57102005764E+02 -0.23304167820E+02 -0.15987553976E+03  0.17136193135E+03  0.10000000000E+01 0.  0.
    9000005    1    3    3    0    0 -0.57102005764E+02  0.23304167820E+02 -0.22534958934E+03  0.23363895376E+03  0.10000000000E+01 0.  0.
<mgrwt>
<rscale>  0 0.12500927E+03</rscale>
<asrwt>0</asrwt>
<pdfrwt beam="1">  1        4 0.15212123E-02 0.12500927E+03</pdfrwt>
<pdfrwt beam="2">  1       -4 0.60786604E-01 0.12500927E+03</pdfrwt>
<totfact> 0.64056201E+03</totfact>
</mgrwt>
</event>
<event>
 5    1  0.3271306E-002  0.1250037E+03  0.7818608E-02  0.1235064E+00
          4   -1    0    0  501    0  0.00000000000E+00  0.00000000000E+00  0.40974370274E+01  0.42897424390E+01  0.12700000000E+01 0.  1.
         -4   -1    0    0    0  501 -0.00000000000E+00 -0.00000000000E+00 -0.93134345720E+03  0.93134432310E+03  0.12700000000E+01 0.  1.
         25    2    1    2    0    0  0.00000000000E+00  0.00000000000E+00 -0.92724602017E+03  0.93563406554E+03  0.12500369062E+03 0.  0.
    9000005    1    3    3    0    0  0.57491651822E+02  0.13622277047E+02 -0.61603197616E+03  0.61885963846E+03  0.10000000000E+01 0.  0.
    9000005    1    3    3    0    0 -0.57491651822E+02 -0.13622277047E+02 -0.31121404402E+03  0.31677442708E+03  0.10000000000E+01 0.  0.
<mgrwt>
<rscale>  0 0.12500369E+03</rscale>
<asrwt>0</asrwt>
<pdfrwt beam="1">  1        4 0.64523500E-03 0.12500369E+03</pdfrwt>
<pdfrwt beam="2">  1       -4 0.14329830E+00 0.12500369E+03</pdfrwt>
<totfact> 0.32828969E+03</totfact>
</mgrwt>
</event>
<event>
 5    1  0.3271306E-002  0.1249530E+03  0.7818608E-02  0.1235143E+00
          4   -1    0    0  501    0  0.00000000000E+00  0.00000000000E+00  0.39210388347E+02  0.39230950209E+02  0.12700000000E+01 0. -1.
         -4   -1    0    0    0  501 -0.00000000000E+00 -0.00000000000E+00 -0.99497277383E+02  0.99505382300E+02  0.12700000000E+01 0. -1.
         25    2    1    2    0    0  0.00000000000E+00  0.00000000000E+00 -0.60286889036E+02  0.13873633251E+03  0.12495303505E+03 0.  0.
    9000005    1    3    3    0    0  0.27654202541E+02 -0.41069759508E+02  0.12147992178E+02  0.50990722472E+02  0.10000000000E+01 0.  0.
    9000005    1    3    3    0    0 -0.27654202541E+02  0.41069759508E+02 -0.72434881214E+02  0.87745610037E+02  0.10000000000E+01 0.  0.
<mgrwt>
<rscale>  0 0.12495304E+03</rscale>
<asrwt>0</asrwt>
<pdfrwt beam="1">  1        4 0.60345726E-02 0.12495304E+03</pdfrwt>
<pdfrwt beam="2">  1       -4 0.15309479E-01 0.12495304E+03</pdfrwt>
<totfact> 0.10170602E+04</totfact>
</mgrwt>
</event>
<event>
 5    1  0.3271306E-002  0.1249989E+03  0.7818608E-02  0.1235071E+00
         -4   -1    0    0    0  501 -0.00000000000E+00  0.00000000000E+00  0.13624805594E+02  0.13683867416E+02  0.12700000000E+01 0. -1.
          4   -1    0    0  501    0  0.00000000000E+00 -0.00000000000E+00 -0.28601589242E+03  0.28601871200E+03  0.12700000000E+01 0. -1.
         25    2    1    2    0    0  0.00000000000E+00  0.00000000000E+00 -0.27239108682E+03  0.29970257942E+03  0.12499892771E+03 0.  0.
    9000005    1    3    3    0    0  0.90666280988E+01 -0.11090691413E+02  0.96468003748E+01  0.17299362375E+02  0.10000000000E+01 0.  0.
    9000005    1    3    3    0    0 -0.90666280988E+01  0.11090691413E+02 -0.28203788720E+03  0.28240321704E+03  0.10000000000E+01 0.  0.
<mgrwt>
<rscale>  0 0.12499893E+03</rscale>
<asrwt>0</asrwt>
<pdfrwt beam="2">  1        4 0.44007201E-01 0.12499893E+03</pdfrwt>
<pdfrwt beam="1">  1       -4 0.21008843E-02 0.12499893E+03</pdfrwt>
<totfact> 0.75637964E+03</totfact>
</mgrwt>
</event>
<event>
 5    1  0.3271306E-002  0.1249958E+03  0.7818608E-02  0.1235076E+00
         -4   -1    0    0    0  501 -0.00000000000E+00  0.00000000000E+00  0.49843447513E+02  0.49859624548E+02  0.12700000000E+01 0. -1.
          4   -1    0    0  501    0  0.00000000000E+00 -0.00000000000E+00 -0.78331084399E+02  0.78341379125E+02  0.12700000000E+01 0. -1.
         25    2    1    2    0    0  0.00000000000E+00  0.00000000000E+00 -0.28487636886E+02  0.12820100367E+03  0.12499580748E+03 0.  0.
    9000005    1    3    3    0    0 -0.27862374124E+02 -0.27940502422E+02  0.35454927747E+02  0.53056907835E+02  0.10000000000E+01 0.  0.
    9000005    1    3    3    0    0  0.27862374124E+02  0.27940502422E+02 -0.63942564633E+02  0.75144095838E+02  0.10000000000E+01 0.  0.
<mgrwt>
<rscale>  0 0.12499581E+03</rscale>
<asrwt>0</asrwt>
<pdfrwt beam="2">  1        4 0.12052972E-01 0.12499581E+03</pdfrwt>
<pdfrwt beam="1">  1       -4 0.76702590E-02 0.12499581E+03</pdfrwt>
<totfact> 0.10384132E+04</totfact>
</mgrwt>
</event>
<event>
 5    1  0.3271306E-002  0.1250000E+03  0.7818608E-02  0.1235069E+00
          4   -1    0    0  501    0  0.00000000000E+00  0.00000000000E+00  0.89362557580E+02  0.89371581598E+02  0.12700000000E+01 0.  1.
         -4   -1    0    0    0  501 -0.00000000000E+00 -0.00000000000E+00 -0.43691953039E+02  0.43710406774E+02  0.12700000000E+01 0.  1.
         25    2    1    2    0    0  0.00000000000E+00  0.00000000000E+00  0.45670604541E+02  0.13308198837E+03  0.12500004604E+03 0.  0.
    9000005    1    3    3    0    0 -0.32617810821E+02 -0.84421931604E+01  0.78869576157E+02  0.85770637466E+02  0.10000000000E+01 0.  0.
    9000005    1    3    3    0    0  0.32617810821E+02  0.84421931604E+01 -0.33198971616E+02  0.47311350905E+02  0.10000000000E+01 0.  0.
<mgrwt>
<rscale>  0 0.12500005E+03</rscale>
<asrwt>0</asrwt>
<pdfrwt beam="1">  1        4 0.13750199E-01 0.12500005E+03</pdfrwt>
<pdfrwt beam="2">  1       -4 0.67239526E-02 0.12500005E+03</pdfrwt>
<totfact> 0.10278647E+04</totfact>
</mgrwt>
</event>
<event>
 4    1  0.3271306E-002  0.1252436E+03  0.7818608E-02  0.1234689E+00
         -4   -1    0    0    0  501 -0.00000000000E+00  0.00000000000E+00  0.69488330646E+02  0.69499935223E+02  0.12700000000E+01 0. -1.
          4   -1    0    0  501    0  0.00000000000E+00 -0.00000000000E+00 -0.56410305174E+02  0.56424599510E+02  0.12700000000E+01 0. -1.
    9000005    1    1    2    0    0  0.47465764507E+02 -0.55102150678E+01  0.47220432060E+02  0.67187279111E+02  0.10000000000E+01 0.  0.
    9000005    1    1    2    0    0 -0.47465764507E+02  0.55102150678E+01 -0.34142406588E+02  0.58737255622E+02  0.10000000000E+01 0.  0.
<mgrwt>
<rscale>  0 0.12524358E+03</rscale>
<asrwt>0</asrwt>
<pdfrwt beam="2">  1        4 0.86805007E-02 0.12524358E+03</pdfrwt>
<pdfrwt beam="1">  1       -4 0.10692505E-01 0.12524358E+03</pdfrwt>
<totfact> 0.10375482E+04</totfact>
</mgrwt>
</event>
<event>
 5    1  0.3271306E-002  0.1250003E+03  0.7818608E-02  0.1235069E+00
         -4   -1    0    0    0  501 -0.00000000000E+00  0.00000000000E+00  0.52717959838E+03  0.52718112813E+03  0.12700000000E+01 0.  1.
          4   -1    0    0  501    0  0.00000000000E+00 -0.00000000000E+00 -0.73537791182E+01  0.74626380938E+01  0.12700000000E+01 0.  1.
         25    2    1    2    0    0  0.00000000000E+00  0.00000000000E+00  0.51982581927E+03  0.53464376622E+03  0.12500029753E+03 0.  0.
    9000005    1    3    3    0    0  0.27182902185E+02  0.42388948620E+02  0.41819803384E+03  0.42122004777E+03  0.10000000000E+01 0.  0.
    9000005    1    3    3    0    0 -0.27182902185E+02 -0.42388948620E+02  0.10162778543E+03  0.11342371845E+03  0.10000000000E+01 0.  0.
<mgrwt>
<rscale>  0 0.12500030E+03</rscale>
<asrwt>0</asrwt>
<pdfrwt beam="2">  1        4 0.11398421E-02 0.12500030E+03</pdfrwt>
<pdfrwt beam="1">  1       -4 0.81113044E-01 0.12500030E+03</pdfrwt>
<totfact> 0.53272831E+03</totfact>
</mgrwt>
</event>
<event>
 5    1  0.3271306E-002  0.1249991E+03  0.7818608E-02  0.1235071E+00
         -4   -1    0    0    0  501 -0.00000000000E+00  0.00000000000E+00  0.16887015641E+02  0.16934703932E+02  0.12700000000E+01 0.  1.
          4   -1    0    0  501    0  0.00000000000E+00 -0.00000000000E+00 -0.23093795247E+03  0.23094144450E+03  0.12700000000E+01 0.  1.
         25    2    1    2    0    0  0.00000000000E+00  0.00000000000E+00 -0.21405093682E+03  0.24787614843E+03  0.12499912563E+03 0.  0.
    9000005    1    3    3    0    0 -0.36139288145E+02  0.43167445248E+01 -0.20776055944E+03  0.21092684156E+03  0.10000000000E+01 0.  0.
    9000005    1    3    3    0    0  0.36139288145E+02 -0.43167445248E+01 -0.62903773830E+01  0.36949306875E+02  0.10000000000E+01 0.  0.
<mgrwt>
<rscale>  0 0.12499913E+03</rscale>
<asrwt>0</asrwt>
<pdfrwt beam="2">  1        4 0.35532850E-01 0.12499913E+03</pdfrwt>
<pdfrwt beam="1">  1       -4 0.26019395E-02 0.12499913E+03</pdfrwt>
<totfact> 0.82639773E+03</totfact>
</mgrwt>
</event>
<event>
 5    1  0.3271306E-002  0.1250060E+03  0.7818608E-02  0.1235060E+00
         -4   -1    0    0    0  501 -0.00000000000E+00  0.00000000000E+00  0.14847328172E+02  0.14901545351E+02  0.12700000000E+01 0.  1.
          4   -1    0    0  501    0  0.00000000000E+00 -0.00000000000E+00 -0.26258431876E+03  0.26258738995E+03  0.12700000000E+01 0.  1.
         25    2    1    2    0    0  0.00000000000E+00  0.00000000000E+00 -0.24773699059E+03  0.27748893530E+03  0.12500597068E+03 0.  0.
    9000005    1    3    3    0    0 -0.25406962718E+02 -0.15050028403E+02 -0.16056479016E+01  0.29590458170E+02  0.10000000000E+01 0.  0.
    9000005    1    3    3    0    0  0.25406962718E+02  0.15050028403E+02 -0.24613134269E+03  0.24789847713E+03  0.10000000000E+01 0.  0.
<mgrwt>
<rscale>  0 0.12500597E+03</rscale>
<asrwt>0</asrwt>
<pdfrwt beam="2">  1        4 0.40401991E-01 0.12500597E+03</pdfrwt>
<pdfrwt beam="1">  1       -4 0.22886113E-02 0.12500597E+03</pdfrwt>
<totfact> 0.78501817E+03</totfact>
</mgrwt>
</event>
<event>
 5    1  0.3271306E-002  0.1250011E+03  0.7818608E-02  0.1235068E+00
         -4   -1    0    0    0  501 -0.00000000000E+00  0.00000000000E+00  0.47251318088E+02  0.47268382256E+02  0.12700000000E+01 0. -1.
          4   -1    0    0  501    0  0.00000000000E+00 -0.00000000000E+00 -0.82634193133E+02  0.82643951834E+02  0.12700000000E+01 0. -1.
         25    2    1    2    0    0  0.00000000000E+00  0.00000000000E+00 -0.35382875045E+02  0.12991233409E+03  0.12500106680E+03 0.  0.
    9000005    1    3    3    0    0 -0.16573590650E+02 -0.51464978273E+02  0.14876475462E+02  0.56085982365E+02  0.10000000000E+01 0.  0.
    9000005    1    3    3    0    0  0.16573590650E+02  0.51464978273E+02 -0.50259350507E+02  0.73826351725E+02  0.10000000000E+01 0.  0.
<mgrwt>
<rscale>  0 0.12500107E+03</rscale>
<asrwt>0</asrwt>
<pdfrwt beam="2">  1        4 0.12715016E-01 0.12500107E+03</pdfrwt>
<pdfrwt beam="1">  1       -4 0.72714968E-02 0.12500107E+03</pdfrwt>
<totfact> 0.10346134E+04</totfact>
</mgrwt>
</event>
<event>
 5    1  0.3271306E-002  0.1250428E+03  0.7818608E-02  0.1235002E+00
         -4   -1    0    0    0  501 -0.00000000000E+00  0.00000000000E+00  0.29885759826E+02  0.29912732078E+02  0.12700000000E+01 0.  1.
          4   -1    0    0  501    0  0.00000000000E+00 -0.00000000000E+00 -0.13070653115E+03  0.13071270093E+03  0.12700000000E+01 0.  1.
         25    2    1    2    0    0  0.00000000000E+00  0.00000000000E+00 -0.10082077132E+03  0.16062543301E+03  0.12504279987E+03 0.  0.
    9000005    1    3    3    0    0  0.14634358786E+02  0.60701413816E+02 -0.46535482168E+02  0.77880531566E+02  0.10000000000E+01 0.  0.
    9000005    1    3    3    0    0 -0.14634358786E+02 -0.60701413816E+02 -0.54285289155E+02  0.82744901444E+02  0.10000000000E+01 0.  0.
<mgrwt>
<rscale>  0 0.12504280E+03</rscale>
<asrwt>0</asrwt>
<pdfrwt beam="2">  1        4 0.20111246E-01 0.12504280E+03</pdfrwt>
<pdfrwt beam="1">  1       -4 0.46003587E-02 0.12504280E+03</pdfrwt>
<totfact> 0.97128877E+03</totfact>
</mgrwt>
</event>
<event>
 5    1  0.3271306E-002  0.1249996E+03  0.7818608E-02  0.1235070E+00
         -4   -1    0    0    0  501 -0.00000000000E+00  0.00000000000E+00  0.10196660095E+02  0.10275445348E+02  0.12700000000E+01 0.  1.
          4   -1    0    0  501    0  0.00000000000E+00 -0.00000000000E+00 -0.38153465737E+03  0.38153677106E+03  0.12700000000E+01 0.  1.
         25    2    1    2    0    0  0.00000000000E+00  0.00000000000E+00 -0.37133799727E+03  0.39181221641E+03  0.12499961884E+03 0.  0.
    9000005    1    3    3    0    0  0.35437226991E+02  0.49825361028E+02 -0.14517891424E+03  0.15753184059E+03  0.10000000000E+01 0.  0.
    9000005    1    3    3    0    0 -0.35437226991E+02 -0.49825361028E+02 -0.22615908303E+03  0.23428037583E+03  0.10000000000E+01 0.  0.
<mgrwt>
<rscale>  0 0.12499962E+03</rscale>
<asrwt>0</asrwt>
<pdfrwt beam="2">  1        4 0.58703852E-01 0.12499962E+03</pdfrwt>
<pdfrwt beam="1">  1       -4 0.15749402E-02 0.12499962E+03</pdfrwt>
<totfact> 0.65357545E+03</totfact>
</mgrwt>
</event>
<event>
 5    1  0.3271306E-002  0.1249988E+03  0.7818608E-02  0.1235071E+00
         -4   -1    0    0    0  501 -0.00000000000E+00  0.00000000000E+00  0.91514988032E+02  0.91523799826E+02  0.12700000000E+01 0. -1.
          4   -1    0    0  501    0  0.00000000000E+00 -0.00000000000E+00 -0.42663113185E+02  0.42682011745E+02  0.12700000000E+01 0. -1.
         25    2    1    2    0    0  0.00000000000E+00  0.00000000000E+00  0.48851874847E+02  0.13420581157E+03  0.12499877673E+03 0.  0.
    9000005    1    3    3    0    0  0.25945038717E+02  0.10252444350E+02 -0.35611709155E+02  0.45248773222E+02  0.10000000000E+01 0.  0.
    9000005    1    3    3    0    0 -0.25945038717E+02 -0.10252444350E+02  0.84463584003E+02  0.88957038349E+02  0.10000000000E+01 0.  0.
<mgrwt>
<rscale>  0 0.12499878E+03</rscale>
<asrwt>0</asrwt>
<pdfrwt beam="2">  1        4 0.65656875E-02 0.12499878E+03</pdfrwt>
<pdfrwt beam="1">  1       -4 0.14081360E-01 0.12499878E+03</pdfrwt>
<totfact> 0.10255120E+04</totfact>
</mgrwt>
</event>
<event>
 5    1  0.3271306E-002  0.1250014E+03  0.7818608E-02  0.1235067E+00
          4   -1    0    0  501    0  0.00000000000E+00  0.00000000000E+00  0.37887978495E+02  0.37909257635E+02  0.12700000000E+01 0. -1.
         -4   -1    0    0    0  501 -0.00000000000E+00 -0.00000000000E+00 -0.10304821735E+03  0.10305604300E+03  0.12700000000E+01 0. -1.
         25    2    1    2    0    0  0.00000000000E+00  0.00000000000E+00 -0.65160238857E+02  0.14096530064E+03  0.12500143702E+03 0.  0.
    9000005    1    3    3    0    0  0.91113652156E+01 -0.35049462156E+02  0.24854046450E+02  0.43934102909E+02  0.10000000000E+01 0.  0.
    9000005    1    3    3    0    0 -0.91113652156E+01  0.35049462156E+02 -0.90014285306E+02  0.97031197729E+02  0.10000000000E+01 0.  0.
<mgrwt>
<rscale>  0 0.12500144E+03</rscale>
<asrwt>0</asrwt>
<pdfrwt beam="1">  1        4 0.58311586E-02 0.12500144E+03</pdfrwt>
<pdfrwt beam="2">  1       -4 0.15855811E-01 0.12500144E+03</pdfrwt>
<totfact> 0.10113291E+04</totfact>
</mgrwt>
</event>
<event>
 5    1  0.3271306E-002  0.1250004E+03  0.7818608E-02  0.1235069E+00
          4   -1    0    0  501    0  0.00000000000E+00  0.00000000000E+00  0.28719438743E+03  0.28719719545E+03  0.12700000000E+01 0. -1.
         -4   -1    0    0    0  501 -0.00000000000E+00 -0.00000000000E+00 -0.13568982433E+02  0.13628286182E+02  0.12700000000E+01 0. -1.
         25    2    1    2    0    0  0.00000000000E+00  0.00000000000E+00  0.27362540500E+03  0.30082548163E+03  0.12500043254E+03 0.  0.
    9000005    1    3    3    0    0 -0.56859797900E+02 -0.95071872049E+01  0.78761657047E+02  0.97610562168E+02  0.10000000000E+01 0.  0.
    9000005    1    3    3    0    0  0.56859797900E+02  0.95071872049E+01  0.19486374795E+03  0.20321491946E+03  0.10000000000E+01 0.  0.
<mgrwt>
<rscale>  0 0.12500043E+03</rscale>
<asrwt>0</asrwt>
<pdfrwt beam="1">  1        4 0.44188530E-01 0.12500043E+03</pdfrwt>
<pdfrwt beam="2">  1       -4 0.20923136E-02 0.12500043E+03</pdfrwt>
<totfact> 0.75494682E+03</totfact>
</mgrwt>
</event>
<event>
 5    1  0.3271306E-002  0.1250033E+03  0.7818608E-02  0.1235064E+00
         -4   -1    0    0    0  501 -0.00000000000E+00  0.00000000000E+00  0.10018530852E+03  0.10019335778E+03  0.12700000000E+01 0.  1.
          4   -1    0    0  501    0  0.00000000000E+00 -0.00000000000E+00 -0.38972324555E+02  0.38993011954E+02  0.12700000000E+01 0.  1.
         25    2    1    2    0    0  0.00000000000E+00  0.00000000000E+00  0.61212983967E+02  0.13918636974E+03  0.12500326441E+03 0.  0.
    9000005    1    3    3    0    0 -0.53178884457E+02 -0.24830560097E+02  0.54511031669E+02  0.80106198515E+02  0.10000000000E+01 0.  0.
    9000005    1    3    3    0    0  0.53178884457E+02  0.24830560097E+02  0.67019522977E+01  0.59080171221E+02  0.10000000000E+01 0.  0.
<mgrwt>
<rscale>  0 0.12500326E+03</rscale>
<asrwt>0</asrwt>
<pdfrwt beam="2">  1        4 0.59979528E-02 0.12500326E+03</pdfrwt>
<pdfrwt beam="1">  1       -4 0.15415335E-01 0.12500326E+03</pdfrwt>
<totfact> 0.10149730E+04</totfact>
</mgrwt>
</event>
<event>
 5    1  0.3271306E-002  0.1249995E+03  0.7818608E-02  0.1235070E+00
          4   -1    0    0  501    0  0.00000000000E+00  0.00000000000E+00  0.51503490578E+02  0.51519146361E+02  0.12700000000E+01 0. -1.
         -4   -1    0    0    0  501 -0.00000000000E+00 -0.00000000000E+00 -0.75811273010E+02  0.75821909864E+02  0.12700000000E+01 0. -1.
         25    2    1    2    0    0  0.00000000000E+00  0.00000000000E+00 -0.24307782432E+02  0.12734105622E+03  0.12499950525E+03 0.  0.
    9000005    1    3    3    0    0  0.48695729733E+02 -0.38273869375E+02 -0.20619546329E+02  0.65286513630E+02  0.10000000000E+01 0.  0.
    9000005    1    3    3    0    0 -0.48695729733E+02  0.38273869375E+02 -0.36882361035E+01  0.62054542595E+02  0.10000000000E+01 0.  0.
<mgrwt>
<rscale>  0 0.12499951E+03</rscale>
<asrwt>0</asrwt>
<pdfrwt beam="1">  1        4 0.79256365E-02 0.12499951E+03</pdfrwt>
<pdfrwt beam="2">  1       -4 0.11665295E-01 0.12499951E+03</pdfrwt>
<totfact> 0.10401861E+04</totfact>
</mgrwt>
</event>
<event>
 5    1  0.3271306E-002  0.1249975E+03  0.7818608E-02  0.1235073E+00
         -4   -1    0    0    0  501 -0.00000000000E+00  0.00000000000E+00  0.20432929208E+02  0.20472359317E+02  0.12700000000E+01 0.  1.
          4   -1    0    0  501    0  0.00000000000E+00 -0.00000000000E+00 -0.19094070820E+03  0.19094493172E+03  0.12700000000E+01 0.  1.
         25    2    1    2    0    0  0.00000000000E+00  0.00000000000E+00 -0.17050777900E+03  0.21141729104E+03  0.12499747298E+03 0.  0.
    9000005    1    3    3    0    0  0.30654916647E+02 -0.19540175468E+02  0.71625963328E+00  0.36373828501E+02  0.10000000000E+01 0.  0.
    9000005    1    3    3    0    0 -0.30654916647E+02  0.19540175468E+02 -0.17122403863E+03  0.17504346254E+03  0.10000000000E+01 0.  0.
<mgrwt>
<rscale>  0 0.12499747E+03</rscale>
<asrwt>0</asrwt>
<pdfrwt beam="2">  1        4 0.29378850E-01 0.12499747E+03</pdfrwt>
<pdfrwt beam="1">  1       -4 0.31468857E-02 0.12499747E+03</pdfrwt>
<totfact> 0.88249926E+03</totfact>
</mgrwt>
</event>
<event>
 5    1  0.3271306E-002  0.1250008E+03  0.7818608E-02  0.1235068E+00
         -4   -1    0    0    0  501 -0.00000000000E+00  0.00000000000E+00  0.22276873099E+03  0.22277235108E+03  0.12700000000E+01 0. -1.
          4   -1    0    0  501    0  0.00000000000E+00 -0.00000000000E+00 -0.17508452338E+02  0.17554452520E+02  0.12700000000E+01 0. -1.
         25    2    1    2    0    0  0.00000000000E+00  0.00000000000E+00  0.20526027865E+03  0.24032680360E+03  0.12500076215E+03 0.  0.
    9000005    1    3    3    0    0  0.13356532147E+02  0.96748898749E+00  0.21998711642E+03  0.22039660700E+03  0.10000000000E+01 0.  0.
    9000005    1    3    3    0    0 -0.13356532147E+02 -0.96748898749E+00 -0.14726837770E+02  0.19930196603E+02  0.10000000000E+01 0.  0.
<mgrwt>
<rscale>  0 0.12500076E+03</rscale>
<asrwt>0</asrwt>
<pdfrwt beam="2">  1        4 0.26974250E-02 0.12500076E+03</pdfrwt>
<pdfrwt beam="1">  1       -4 0.34275929E-01 0.12500076E+03</pdfrwt>
<totfact> 0.83747296E+03</totfact>
</mgrwt>
</event>
<event>
 5    1  0.3271306E-002  0.1250031E+03  0.7818608E-02  0.1235064E+00
         -4   -1    0    0    0  501 -0.00000000000E+00  0.00000000000E+00  0.12493566001E+02  0.12557949332E+02  0.12700000000E+01 0.  1.
          4   -1    0    0  501    0  0.00000000000E+00 -0.00000000000E+00 -0.31180726773E+03  0.31180985409E+03  0.12700000000E+01 0.  1.
         25    2    1    2    0    0  0.00000000000E+00  0.00000000000E+00 -0.29931370173E+03  0.32436780343E+03  0.12500311938E+03 0.  0.
    9000005    1    3    3    0    0 -0.23704609945E+02 -0.38580836815E+02 -0.26141915284E+03  0.26531370672E+03  0.10000000000E+01 0.  0.
    9000005    1    3    3    0    0  0.23704609945E+02  0.38580836815E+02 -0.37894548886E+02  0.59054096702E+02  0.10000000000E+01 0.  0.
<mgrwt>
<rscale>  0 0.12500312E+03</rscale>
<asrwt>0</asrwt>
<pdfrwt beam="2">  1        4 0.47975495E-01 0.12500312E+03</pdfrwt>
<pdfrwt beam="1">  1       -4 0.19272388E-02 0.12500312E+03</pdfrwt>
<totfact> 0.72634608E+03</totfact>
</mgrwt>
</event>
<event>
 5    1  0.3271306E-002  0.1250002E+03  0.7818608E-02  0.1235069E+00
         -4   -1    0    0    0  501 -0.00000000000E+00  0.00000000000E+00  0.54936517585E+02  0.54951195295E+02  0.12700000000E+01 0. -1.
          4   -1    0    0  501    0  0.00000000000E+00 -0.00000000000E+00 -0.71075164496E+02  0.71086510029E+02  0.12700000000E+01 0. -1.
         25    2    1    2    0    0  0.00000000000E+00  0.00000000000E+00 -0.16138646911E+02  0.12603770532E+03  0.12500018896E+03 0.  0.
    9000005    1    3    3    0    0  0.38163120533E+02 -0.27933572226E+02  0.33117651648E+02  0.57745017766E+02  0.10000000000E+01 0.  0.
    9000005    1    3    3    0    0 -0.38163120533E+02  0.27933572226E+02 -0.49256298559E+02  0.68292687558E+02  0.10000000000E+01 0.  0.
<mgrwt>
<rscale>  0 0.12500019E+03</rscale>
<asrwt>0</asrwt>
<pdfrwt beam="2">  1        4 0.10936643E-01 0.12500019E+03</pdfrwt>
<pdfrwt beam="1">  1       -4 0.84537737E-02 0.12500019E+03</pdfrwt>
<totfact> 0.10430086E+04</totfact>
</mgrwt>
</event>
<event>
 5    1  0.3271306E-002  0.1249987E+03  0.7818608E-02  0.1235071E+00
         -4   -1    0    0    0  501 -0.00000000000E+00  0.00000000000E+00  0.81295296166E+01  0.82281317312E+01  0.12700000000E+01 0. -1.
          4   -1    0    0  501    0  0.00000000000E+00 -0.00000000000E+00 -0.47749530255E+03  0.47749699147E+03  0.12700000000E+01 0. -1.
         25    2    1    2    0    0  0.00000000000E+00  0.00000000000E+00 -0.46936577294E+03  0.48572512320E+03  0.12499866600E+03 0.  0.
    9000005    1    3    3    0    0 -0.62935674973E+01 -0.43578125554E+01  0.63197787783E+01  0.99769296839E+01  0.10000000000E+01 0.  0.
    9000005    1    3    3    0    0  0.62935674973E+01  0.43578125554E+01 -0.47568555172E+03  0.47574819352E+03  0.10000000000E+01 0.  0.
<mgrwt>
<rscale>  0 0.12499867E+03</rscale>
<asrwt>0</asrwt>
<pdfrwt beam="2">  1        4 0.73468508E-01 0.12499867E+03</pdfrwt>
<pdfrwt beam="1">  1       -4 0.12584119E-02 0.12499867E+03</pdfrwt>
<totfact> 0.56990866E+03</totfact>
</mgrwt>
</event>
<event>
 5    1  0.3271306E-002  0.1250018E+03  0.7818608E-02  0.1235067E+00
          4   -1    0    0  501    0  0.00000000000E+00  0.00000000000E+00  0.97164171303E+02  0.97172470819E+02  0.12700000000E+01 0.  1.
         -4   -1    0    0    0  501 -0.00000000000E+00 -0.00000000000E+00 -0.40183660769E+02  0.40203724862E+02  0.12700000000E+01 0.  1.
         25    2    1    2    0    0  0.00000000000E+00  0.00000000000E+00  0.56980510534E+02  0.13737619568E+03  0.12500176222E+03 0.  0.
    9000005    1    3    3    0    0  0.82436365059E+01  0.43501845644E+02  0.76958161838E+02  0.88791479268E+02  0.10000000000E+01 0.  0.
    9000005    1    3    3    0    0 -0.82436365059E+01 -0.43501845644E+02 -0.19977651304E+02  0.48584716412E+02  0.10000000000E+01 0.  0.
<mgrwt>
<rscale>  0 0.12500176E+03</rscale>
<asrwt>0</asrwt>
<pdfrwt beam="1">  1        4 0.14950516E-01 0.12500176E+03</pdfrwt>
<pdfrwt beam="2">  1       -4 0.61842835E-02 0.12500176E+03</pdfrwt>
<totfact> 0.10187821E+04</totfact>
</mgrwt>
</event>
<event>
 5    1  0.3271306E-002  0.1249989E+03  0.7818608E-02  0.1235071E+00
         -4   -1    0    0    0  501 -0.00000000000E+00  0.00000000000E+00  0.74195895925E+02  0.74206764329E+02  0.12700000000E+01 0.  1.
          4   -1    0    0  501    0  0.00000000000E+00 -0.00000000000E+00 -0.52624441866E+02  0.52639764264E+02  0.12700000000E+01 0.  1.
         25    2    1    2    0    0  0.00000000000E+00  0.00000000000E+00  0.21571454059E+02  0.12684652859E+03  0.12499885674E+03 0.  0.
    9000005    1    3    3    0    0  0.22129933723E+02  0.53019633629E+02 -0.14161454678E+02  0.59180759672E+02  0.10000000000E+01 0.  0.
    9000005    1    3    3    0    0 -0.22129933723E+02 -0.53019633629E+02  0.35732908737E+02  0.67665768920E+02  0.10000000000E+01 0.  0.
<mgrwt>
<rscale>  0 0.12499886E+03</rscale>
<asrwt>0</asrwt>
<pdfrwt beam="2">  1        4 0.80980827E-02 0.12499886E+03</pdfrwt>
<pdfrwt beam="1">  1       -4 0.11416768E-01 0.12499886E+03</pdfrwt>
<totfact> 0.10412750E+04</totfact>
</mgrwt>
</event>
<event>
 5    1  0.3271306E-002  0.1249998E+03  0.7818608E-02  0.1235070E+00
          4   -1    0    0  501    0  0.00000000000E+00  0.00000000000E+00  0.10477808887E+03  0.10478578533E+03  0.12700000000E+01 0. -1.
         -4   -1    0    0    0  501 -0.00000000000E+00 -0.00000000000E+00 -0.37261151392E+02  0.37282788295E+02  0.12700000000E+01 0. -1.
         25    2    1    2    0    0  0.00000000000E+00  0.00000000000E+00  0.67516937477E+02  0.14206857362E+03  0.12499977106E+03 0.  0.
    9000005    1    3    3    0    0  0.52695396405E+02 -0.51847442643E+01  0.71480126899E+02  0.88961198940E+02  0.10000000000E+01 0.  0.
    9000005    1    3    3    0    0 -0.52695396405E+02  0.51847442643E+01 -0.39631894220E+01  0.53107374683E+02  0.10000000000E+01 0.  0.
<mgrwt>
<rscale>  0 0.12499977E+03</rscale>
<asrwt>0</asrwt>
<pdfrwt beam="1">  1        4 0.16121962E-01 0.12499977E+03</pdfrwt>
<pdfrwt beam="2">  1       -4 0.57347413E-02 0.12499977E+03</pdfrwt>
<totfact> 0.10090944E+04</totfact>
</mgrwt>
</event>
<event>
 5    1  0.3271306E-002  0.1249927E+03  0.7818608E-02  0.1235081E+00
         -4   -1    0    0    0  501 -0.00000000000E+00  0.00000000000E+00  0.99072390170E+03  0.99072471570E+03  0.12700000000E+01 0. -1.
          4   -1    0    0  501    0  0.00000000000E+00 -0.00000000000E+00 -0.38392494913E+01  0.40438517105E+01  0.12700000000E+01 0. -1.
         25    2    1    2    0    0  0.00000000000E+00  0.00000000000E+00  0.98688465221E+03  0.99476856741E+03  0.12499274356E+03 0.  0.
    9000005    1    3    3    0    0  0.56725509965E+02  0.14976996994E+02  0.66463619514E+03  0.66722137691E+03  0.10000000000E+01 0.  0.
    9000005    1    3    3    0    0 -0.56725509965E+02 -0.14976996994E+02  0.32224845707E+03  0.32754719050E+03  0.10000000000E+01 0.  0.
<mgrwt>
<rscale>  0 0.12499274E+03</rscale>
<asrwt>0</asrwt>
<pdfrwt beam="2">  1        4 0.60645425E-03 0.12499274E+03</pdfrwt>
<pdfrwt beam="1">  1       -4 0.15243505E+00 0.12499274E+03</pdfrwt>
<totfact> 0.30782675E+03</totfact>
</mgrwt>
</event>
<event>
 5    1  0.3271306E-002  0.1249990E+03  0.7818608E-02  0.1235071E+00
          4   -1    0    0  501    0  0.00000000000E+00  0.00000000000E+00  0.67533329641E+03  0.67533449056E+03  0.12700000000E+01 0.  1.
         -4   -1    0    0    0  501 -0.00000000000E+00 -0.00000000000E+00 -0.57131597389E+01  0.58526143049E+01  0.12700000000E+01 0.  1.
         25    2    1    2    0    0  0.00000000000E+00  0.00000000000E+00  0.66962013667E+03  0.68118710486E+03  0.12499897759E+03 0.  0.
    9000005    1    3    3    0    0  0.40538923524E+02 -0.35667617464E+02  0.16337864754E+03  0.17207314063E+03  0.10000000000E+01 0.  0.
    9000005    1    3    3    0    0 -0.40538923524E+02  0.35667617464E+02  0.50624148913E+03  0.50911396423E+03  0.10000000000E+01 0.  0.
<mgrwt>
<rscale>  0 0.12499898E+03</rscale>
<asrwt>0</asrwt>
<pdfrwt beam="1">  1        4 0.10390824E+00 0.12499898E+03</pdfrwt>
<pdfrwt beam="2">  1       -4 0.88976686E-03 0.12499898E+03</pdfrwt>
<totfact> 0.44099575E+03</totfact>
</mgrwt>
</event>
<event>
 5    1  0.3271306E-002  0.1250006E+03  0.7818608E-02  0.1235068E+00
          4   -1    0    0  501    0  0.00000000000E+00  0.00000000000E+00  0.76909886498E+02  0.76920371431E+02  0.12700000000E+01 0. -1.
         -4   -1    0    0    0  501 -0.00000000000E+00 -0.00000000000E+00 -0.50768549721E+02  0.50784432071E+02  0.12700000000E+01 0. -1.
         25    2    1    2    0    0  0.00000000000E+00  0.00000000000E+00  0.26141336777E+02  0.12770480350E+03  0.12500058939E+03 0.  0.
    9000005    1    3    3    0    0 -0.40119595302E+02 -0.33502573713E+02 -0.21923563261E+02  0.56689037729E+02  0.10000000000E+01 0.  0.
    9000005    1    3    3    0    0  0.40119595302E+02  0.33502573713E+02  0.48064900038E+02  0.71015765773E+02  0.10000000000E+01 0.  0.
<mgrwt>
<rscale>  0 0.12500059E+03</rscale>
<asrwt>0</asrwt>
<pdfrwt beam="1">  1        4 0.11834319E-01 0.12500059E+03</pdfrwt>
<pdfrwt beam="2">  1       -4 0.78125743E-02 0.12500059E+03</pdfrwt>
<totfact> 0.10393729E+04</totfact>
</mgrwt>
</event>
<event>
 5    1  0.3271306E-002  0.1250016E+03  0.7818608E-02  0.1235067E+00
         -4   -1    0    0    0  501 -0.00000000000E+00  0.00000000000E+00  0.11748580750E+03  0.11749267153E+03  0.12700000000E+01 0.  1.
          4   -1    0    0  501    0  0.00000000000E+00 -0.00000000000E+00 -0.33229567621E+02  0.33253827814E+02  0.12700000000E+01 0.  1.
         25    2    1    2    0    0  0.00000000000E+00  0.00000000000E+00  0.84256239876E+02  0.15074649934E+03  0.12500157242E+03 0.  0.
    9000005    1    3    3    0    0  0.44038579290E+02 -0.44329842400E+02  0.43218083075E+02  0.75982459145E+02  0.10000000000E+01 0.  0.
    9000005    1    3    3    0    0 -0.44038579290E+02  0.44329842400E+02  0.41038156801E+02  0.74764040198E+02  0.10000000000E+01 0.  0.
<mgrwt>
<rscale>  0 0.12500157E+03</rscale>
<asrwt>0</asrwt>
<pdfrwt beam="2">  1        4 0.51146354E-02 0.12500157E+03</pdfrwt>
<pdfrwt beam="1">  1       -4 0.18077134E-01 0.12500157E+03</pdfrwt>
<totfact> 0.99151594E+03</totfact>
</mgrwt>
</event>
<event>
 5    1  0.3271306E-002  0.1250098E+03  0.7818608E-02  0.1235054E+00
          4   -1    0    0  501    0  0.00000000000E+00  0.00000000000E+00  0.64380447113E+03  0.64380572377E+03  0.12700000000E+01 0. -1.
         -4   -1    0    0    0  501 -0.00000000000E+00 -0.00000000000E+00 -0.60006814424E+01  0.61336023488E+01  0.12700000000E+01 0. -1.
         25    2    1    2    0    0  0.00000000000E+00  0.00000000000E+00  0.63780378969E+03  0.64993932611E+03  0.12500981355E+03 0.  0.
    9000005    1    3    3    0    0  0.93502631071E+00  0.54763852973E+02  0.16241747058E+03  0.17140708450E+03  0.10000000000E+01 0.  0.
    9000005    1    3    3    0    0 -0.93502631071E+00 -0.54763852973E+02  0.47538631911E+03  0.47853224161E+03  0.10000000000E+01 0.  0.
<mgrwt>
<rscale>  0 0.12500981E+03</rscale>
<asrwt>0</asrwt>
<pdfrwt beam="1">  1        4 0.99057090E-01 0.12500981E+03</pdfrwt>
<pdfrwt beam="2">  1       -4 0.93350349E-03 0.12500981E+03</pdfrwt>
<totfact> 0.45849759E+03</totfact>
</mgrwt>
</event>
<event>
 5    1  0.3271306E-002  0.1249993E+03  0.7818608E-02  0.1235070E+00
         -4   -1    0    0    0  501 -0.00000000000E+00  0.00000000000E+00  0.38982434616E+01  0.40999026922E+01  0.12700000000E+01 0.  1.
          4   -1    0    0  501    0  0.00000000000E+00 -0.00000000000E+00 -0.97657590332E+03  0.97657672912E+03  0.12700000000E+01 0.  1.
         25    2    1    2    0    0  0.00000000000E+00  0.00000000000E+00 -0.97267765986E+03  0.98067663181E+03  0.12499930472E+03 0.  0.
    9000005    1    3    3    0    0 -0.82293946741E+00  0.40875727924E+02 -0.11554623002E+03  0.12257011722E+03  0.10000000000E+01 0.  0.
    9000005    1    3    3    0    0  0.82293946741E+00 -0.40875727924E+02 -0.85713142984E+03  0.85810651459E+03  0.10000000000E+01 0.  0.
<mgrwt>
<rscale>  0 0.12499930E+03</rscale>
<asrwt>0</asrwt>
<pdfrwt beam="2">  1        4 0.15025783E+00 0.12499930E+03</pdfrwt>
<pdfrwt beam="1">  1       -4 0.61530631E-03 0.12499930E+03</pdfrwt>
<totfact> 0.31251763E+03</totfact>
</mgrwt>
</event>
<event>
 5    1  0.3271306E-002  0.1250004E+03  0.7818608E-02  0.1235069E+00
         -4   -1    0    0    0  501 -0.00000000000E+00  0.00000000000E+00  0.75559671600E+02  0.75570343868E+02  0.12700000000E+01 0. -1.
          4   -1    0    0  501    0  0.00000000000E+00 -0.00000000000E+00 -0.51675765872E+02  0.51691369478E+02  0.12700000000E+01 0. -1.
         25    2    1    2    0    0  0.00000000000E+00  0.00000000000E+00  0.23883905728E+02  0.12726171335E+03  0.12500041092E+03 0.  0.
    9000005    1    3    3    0    0 -0.38047168738E+02 -0.24527308594E+02  0.55803806699E+02  0.71862652038E+02  0.10000000000E+01 0.  0.
    9000005    1    3    3    0    0  0.38047168738E+02  0.24527308594E+02 -0.31919900971E+02  0.55399061308E+02  0.10000000000E+01 0.  0.
<mgrwt>
<rscale>  0 0.12500041E+03</rscale>
<asrwt>0</asrwt>
<pdfrwt beam="2">  1        4 0.79521390E-02 0.12500041E+03</pdfrwt>
<pdfrwt beam="1">  1       -4 0.11626586E-01 0.12500041E+03</pdfrwt>
<totfact> 0.10403368E+04</totfact>
</mgrwt>
</event>
<event>
 5    1  0.3271306E-002  0.1249940E+03  0.7818608E-02  0.1235079E+00
         -4   -1    0    0    0  501 -0.00000000000E+00  0.00000000000E+00  0.84384519994E+03  0.84384615563E+03  0.12700000000E+01 0.  1.
          4   -1    0    0  501    0  0.00000000000E+00 -0.00000000000E+00 -0.45405747132E+01  0.47148402651E+01  0.12700000000E+01 0.  1.
         25    2    1    2    0    0  0.00000000000E+00  0.00000000000E+00  0.83930462523E+03  0.84856099589E+03  0.12499403913E+03 0.  0.
    9000005    1    3    3    0    0  0.27449281718E+02 -0.53002363336E+02  0.54522952460E+03  0.54848787415E+03  0.10000000000E+01 0.  0.
    9000005    1    3    3    0    0 -0.27449281718E+02  0.53002363336E+02  0.29407510063E+03  0.30007312175E+03  0.10000000000E+01 0.  0.
<mgrwt>
<rscale>  0 0.12499404E+03</rscale>
<asrwt>0</asrwt>
<pdfrwt beam="2">  1        4 0.71202792E-03 0.12499404E+03</pdfrwt>
<pdfrwt beam="1">  1       -4 0.12983593E+00 0.12499404E+03</pdfrwt>
<totfact> 0.36190961E+03</totfact>
</mgrwt>
</event>
<event>
 5    1  0.3271306E-002  0.1250010E+03  0.7818608E-02  0.1235068E+00
          4   -1    0    0  501    0  0.00000000000E+00  0.00000000000E+00  0.13462488757E+03  0.13463087779E+03  0.12700000000E+01 0.  1.
         -4   -1    0    0    0  501 -0.00000000000E+00 -0.00000000000E+00 -0.28995719084E+02  0.29023518484E+02  0.12700000000E+01 0.  1.
         25    2    1    2    0    0  0.00000000000E+00  0.00000000000E+00  0.10562916849E+03  0.16365439627E+03  0.12500096073E+03 0.  0.
    9000005    1    3    3    0    0  0.58226597075E+02  0.21539772226E+02  0.62165389601E+02  0.87862586228E+02  0.10000000000E+01 0.  0.
    9000005    1    3    3    0    0 -0.58226597075E+02 -0.21539772226E+02  0.43463778886E+02  0.75791810043E+02  0.10000000000E+01 0.  0.
<mgrwt>
<rscale>  0 0.12500096E+03</rscale>
<asrwt>0</asrwt>
<pdfrwt beam="1">  1        4 0.20714120E-01 0.12500096E+03</pdfrwt>
<pdfrwt beam="2">  1       -4 0.44634790E-02 0.12500096E+03</pdfrwt>
<totfact> 0.96640750E+03</totfact>
</mgrwt>
</event>
<event>
 5    1  0.3271306E-002  0.1249994E+03  0.7818608E-02  0.1235070E+00
          4   -1    0    0  501    0  0.00000000000E+00  0.00000000000E+00  0.75543115185E+03  0.75543221939E+03  0.12700000000E+01 0. -1.
         -4   -1    0    0    0  501 -0.00000000000E+00 -0.00000000000E+00 -0.50917676210E+01  0.52477611899E+01  0.12700000000E+01 0. -1.
         25    2    1    2    0    0  0.00000000000E+00  0.00000000000E+00  0.75033938423E+03  0.76067998058E+03  0.12499936529E+03 0.  0.
    9000005    1    3    3    0    0  0.11967530128E+02 -0.58942300453E+02  0.47840657274E+03  0.48217348061E+03  0.10000000000E+01 0.  0.
    9000005    1    3    3    0    0 -0.11967530128E+02  0.58942300453E+02  0.27193281149E+03  0.27850649997E+03  0.10000000000E+01 0.  0.
<mgrwt>
<rscale>  0 0.12499937E+03</rscale>
<asrwt>0</asrwt>
<pdfrwt beam="1">  1        4 0.11623216E+00 0.12499937E+03</pdfrwt>
<pdfrwt beam="2">  1       -4 0.79543120E-03 0.12499937E+03</pdfrwt>
<totfact> 0.40069037E+03</totfact>
</mgrwt>
</event>
<event>
 5    1  0.3271306E-002  0.1250008E+03  0.7818608E-02  0.1235068E+00
         -4   -1    0    0    0  501 -0.00000000000E+00  0.00000000000E+00  0.12869711571E+03  0.12870338182E+03  0.12700000000E+01 0. -1.
          4   -1    0    0  501    0  0.00000000000E+00 -0.00000000000E+00 -0.30332362072E+02  0.30358937545E+02  0.12700000000E+01 0. -1.
         25    2    1    2    0    0  0.00000000000E+00  0.00000000000E+00  0.98364753640E+02  0.15906231937E+03  0.12500078673E+03 0.  0.
    9000005    1    3    3    0    0 -0.23348833874E+02  0.52146387882E+02  0.16968370509E+02  0.59609893559E+02  0.10000000000E+01 0.  0.
    9000005    1    3    3    0    0  0.23348833874E+02 -0.52146387882E+02  0.81396383132E+02  0.99452425809E+02  0.10000000000E+01 0.  0.
<mgrwt>
<rscale>  0 0.12500079E+03</rscale>
<asrwt>0</asrwt>
<pdfrwt beam="2">  1        4 0.46690435E-02 0.12500079E+03</pdfrwt>
<pdfrwt beam="1">  1       -4 0.19802083E-01 0.12500079E+03</pdfrwt>
<totfact> 0.97522142E+03</totfact>
</mgrwt>
</event>
<event>
 5    1  0.3271306E-002  0.1250174E+03  0.7818608E-02  0.1235042E+00
         -4   -1    0    0    0  501 -0.00000000000E+00  0.00000000000E+00  0.41657539526E+03  0.41657733116E+03  0.12700000000E+01 0. -1.
          4   -1    0    0  501    0  0.00000000000E+00 -0.00000000000E+00 -0.93347139513E+01  0.94207104060E+01  0.12700000000E+01 0. -1.
         25    2    1    2    0    0  0.00000000000E+00  0.00000000000E+00  0.40724068131E+03  0.42599804157E+03  0.12501743440E+03 0.  0.
    9000005    1    3    3    0    0  0.60426273139E+02  0.92622664875E+01  0.24794621355E+03  0.25537315615E+03  0.10000000000E+01 0.  0.
    9000005    1    3    3    0    0 -0.60426273139E+02 -0.92622664875E+01  0.15929446776E+03  0.17062488542E+03  0.10000000000E+01 0.  0.
<mgrwt>
<rscale>  0 0.12501743E+03</rscale>
<asrwt>0</asrwt>
<pdfrwt beam="2">  1        4 0.14428740E-02 0.12501743E+03</pdfrwt>
<pdfrwt beam="1">  1       -4 0.64095280E-01 0.12501743E+03</pdfrwt>
<totfact> 0.62076559E+03</totfact>
</mgrwt>
</event>
<event>
 5    1  0.3271306E-002  0.1249984E+03  0.7818608E-02  0.1235072E+00
          4   -1    0    0  501    0  0.00000000000E+00  0.00000000000E+00  0.58586284702E+02  0.58600048252E+02  0.12700000000E+01 0. -1.
         -4   -1    0    0    0  501 -0.00000000000E+00 -0.00000000000E+00 -0.66645841578E+02  0.66657941010E+02  0.12700000000E+01 0. -1.
         25    2    1    2    0    0  0.00000000000E+00  0.00000000000E+00 -0.80595568762E+01  0.12525798926E+03  0.12499842966E+03 0.  0.
    9000005    1    3    3    0    0  0.32091352170E+02  0.49711760957E+02  0.16112652056E+02  0.61332957028E+02  0.10000000000E+01 0.  0.
    9000005    1    3    3    0    0 -0.32091352170E+02 -0.49711760957E+02 -0.24172208932E+02  0.63925032234E+02  0.10000000000E+01 0.  0.
<mgrwt>
<rscale>  0 0.12499843E+03</rscale>
<asrwt>0</asrwt>
<pdfrwt beam="1">  1        4 0.90152640E-02 0.12499843E+03</pdfrwt>
<pdfrwt beam="2">  1       -4 0.10255196E-01 0.12499843E+03</pdfrwt>
<totfact> 0.10447632E+04</totfact>
</mgrwt>
</event>
<event>
 5    1  0.3271306E-002  0.1249971E+03  0.7818608E-02  0.1235074E+00
          4   -1    0    0  501    0  0.00000000000E+00  0.00000000000E+00  0.10258167207E+02  0.10336483660E+02  0.12700000000E+01 0. -1.
         -4   -1    0    0    0  501 -0.00000000000E+00 -0.00000000000E+00 -0.37924915120E+03  0.37925127763E+03  0.12700000000E+01 0. -1.
         25    2    1    2    0    0  0.00000000000E+00  0.00000000000E+00 -0.36899098399E+03  0.38958776129E+03  0.12499710989E+03 0.  0.
    9000005    1    3    3    0    0  0.28054078301E+02 -0.35607396126E+02 -0.50432481310E+02  0.67818530943E+02  0.10000000000E+01 0.  0.
    9000005    1    3    3    0    0 -0.28054078301E+02  0.35607396126E+02 -0.31855850268E+03  0.32176923035E+03  0.10000000000E+01 0.  0.
<mgrwt>
<rscale>  0 0.12499711E+03</rscale>
<asrwt>0</asrwt>
<pdfrwt beam="1">  1        4 0.15843678E-02 0.12499711E+03</pdfrwt>
<pdfrwt beam="2">  1       -4 0.58352201E-01 0.12499711E+03</pdfrwt>
<totfact> 0.65582418E+03</totfact>
</mgrwt>
</event>
<event>
 5    1  0.3271306E-002  0.1250153E+03  0.7818608E-02  0.1235045E+00
          4   -1    0    0  501    0  0.00000000000E+00  0.00000000000E+00  0.61784251845E+02  0.61797303146E+02  0.12700000000E+01 0.  1.
         -4   -1    0    0    0  501 -0.00000000000E+00 -0.00000000000E+00 -0.63213407180E+02  0.63226163471E+02  0.12700000000E+01 0.  1.
         25    2    1    2    0    0  0.00000000000E+00  0.00000000000E+00 -0.14291553347E+01  0.12502346662E+03  0.12501529794E+03 0.  0.
    9000005    1    3    3    0    0  0.31539719334E+02 -0.43336263615E+02 -0.32863537135E+02  0.62879231172E+02  0.10000000000E+01 0.  0.
    9000005    1    3    3    0    0 -0.31539719334E+02  0.43336263615E+02  0.31434381800E+02  0.62144235444E+02  0.10000000000E+01 0.  0.
<mgrwt>
<rscale>  0 0.12501530E+03</rscale>
<asrwt>0</asrwt>
<pdfrwt beam="1">  1        4 0.95072548E-02 0.12501530E+03</pdfrwt>
<pdfrwt beam="2">  1       -4 0.97271247E-02 0.12501530E+03</pdfrwt>
<totfact> 0.10448740E+04</totfact>
</mgrwt>
</event>
<event>
 5    1  0.3271306E-002  0.1249949E+03  0.7818608E-02  0.1235077E+00
          4   -1    0    0  501    0  0.00000000000E+00  0.00000000000E+00  0.86403856425E+02  0.86413189416E+02  0.12700000000E+01 0.  1.
         -4   -1    0    0    0  501 -0.00000000000E+00 -0.00000000000E+00 -0.45184847273E+02  0.45202691547E+02  0.12700000000E+01 0.  1.
         25    2    1    2    0    0  0.00000000000E+00  0.00000000000E+00  0.41219009152E+02  0.13161588096E+03  0.12499493352E+03 0.  0.
    9000005    1    3    3    0    0 -0.17703034452E+02 -0.34963603289E+02  0.71860931971E+02  0.81858686329E+02  0.10000000000E+01 0.  0.
    9000005    1    3    3    0    0  0.17703034452E+02  0.34963603289E+02 -0.30641922819E+02  0.49757194634E+02  0.10000000000E+01 0.  0.
<mgrwt>
<rscale>  0 0.12499493E+03</rscale>
<asrwt>0</asrwt>
<pdfrwt beam="1">  1        4 0.13294991E-01 0.12499493E+03</pdfrwt>
<pdfrwt beam="2">  1       -4 0.69536056E-02 0.12499493E+03</pdfrwt>
<totfact> 0.10311082E+04</totfact>
</mgrwt>
</event>
<event>
 5    1  0.3271306E-002  0.1250093E+03  0.7818608E-02  0.1235055E+00
         -4   -1    0    0    0  501 -0.00000000000E+00  0.00000000000E+00  0.37902742643E+02  0.37924013499E+02  0.12700000000E+01 0. -1.
          4   -1    0    0  501    0  0.00000000000E+00 -0.00000000000E+00 -0.10302105792E+03  0.10302888564E+03  0.12700000000E+01 0. -1.
         25    2    1    2    0    0  0.00000000000E+00  0.00000000000E+00 -0.65118315281E+02  0.14095289914E+03  0.12500929881E+03 0.  0.
    9000005    1    3    3    0    0  0.10426740646E+02 -0.11237050138E+02  0.35755610360E+02  0.38915959304E+02  0.10000000000E+01 0.  0.
    9000005    1    3    3    0    0 -0.10426740646E+02  0.11237050138E+02 -0.10087392564E+03  0.10203693983E+03  0.10000000000E+01 0.  0.
<mgrwt>
<rscale>  0 0.12500930E+03</rscale>
<asrwt>0</asrwt>
<pdfrwt beam="2">  1        4 0.15851632E-01 0.12500930E+03</pdfrwt>
<pdfrwt beam="1">  1       -4 0.58334296E-02 0.12500930E+03</pdfrwt>
<totfact> 0.10111756E+04</totfact>
</mgrwt>
</event>
<event>
 5    1  0.3271306E-002  0.1250000E+03  0.7818608E-02  0.1235069E+00
         -4   -1    0    0    0  501 -0.00000000000E+00  0.00000000000E+00  0.43869006701E+02  0.43887385989E+02  0.12700000000E+01 0.  1.
          4   -1    0    0  501    0  0.00000000000E+00 -0.00000000000E+00 -0.89001936923E+02  0.89010997500E+02  0.12700000000E+01 0.  1.
         25    2    1    2    0    0  0.00000000000E+00  0.00000000000E+00 -0.45132930222E+02  0.13289838349E+03  0.12499999577E+03 0.  0.
    9000005    1    3    3    0    0 -0.54794555118E+02 -0.26067973008E+02 -0.66801852007E+01  0.61054134680E+02  0.10000000000E+01 0.  0.
    9000005    1    3    3    0    0  0.54794555118E+02  0.26067973008E+02 -0.38452745021E+02  0.71844248809E+02  0.10000000000E+01 0.  0.
<mgrwt>
<rscale>  0 0.12500000E+03</rscale>
<asrwt>0</asrwt>
<pdfrwt beam="2">  1        4 0.13694716E-01 0.12500000E+03</pdfrwt>
<pdfrwt beam="1">  1       -4 0.67511887E-02 0.12500000E+03</pdfrwt>
<totfact> 0.10282561E+04</totfact>
</mgrwt>
</event>
<event>
 5    1  0.3271306E-002  0.1249994E+03  0.7818608E-02  0.1235070E+00
         -4   -1    0    0    0  501 -0.00000000000E+00  0.00000000000E+00  0.10484972927E+03  0.10485742048E+03  0.12700000000E+01 0.  1.
          4   -1    0    0  501    0  0.00000000000E+00 -0.00000000000E+00 -0.37235464513E+02  0.37257116333E+02  0.12700000000E+01 0.  1.
         25    2    1    2    0    0  0.00000000000E+00  0.00000000000E+00  0.67614264760E+02  0.14211453681E+03  0.12499941109E+03 0.  0.
    9000005    1    3    3    0    0  0.21589547878E+02  0.53732344830E+02  0.60517284861E+02  0.83765238765E+02  0.10000000000E+01 0.  0.
    9000005    1    3    3    0    0 -0.21589547878E+02 -0.53732344830E+02  0.70969798995E+01  0.58349298043E+02  0.10000000000E+01 0.  0.
<mgrwt>
<rscale>  0 0.12499941E+03</rscale>
<asrwt>0</asrwt>
<pdfrwt beam="2">  1        4 0.57307902E-02 0.12499941E+03</pdfrwt>
<pdfrwt beam="1">  1       -4 0.16132985E-01 0.12499941E+03</pdfrwt>
<totfact> 0.10090081E+04</totfact>
</mgrwt>
</event>
<event>
 5    1  0.3271306E-002  0.1250028E+03  0.7818608E-02  0.1235065E+00
          4   -1    0    0  501    0  0.00000000000E+00  0.00000000000E+00  0.42525990797E+02  0.42544950267E+02  0.12700000000E+01 0. -1.
         -4   -1    0    0    0  501 -0.00000000000E+00 -0.00000000000E+00 -0.91815845416E+02  0.91824628338E+02  0.12700000000E+01 0. -1.
         25    2    1    2    0    0  0.00000000000E+00  0.00000000000E+00 -0.49289854619E+02  0.13436957861E+03  0.12500277551E+03 0.  0.
    9000005    1    3    3    0    0 -0.44200713900E+02  0.14508561406E+02  0.20209815728E+02  0.50731037001E+02  0.10000000000E+01 0.  0.
    9000005    1    3    3    0    0  0.44200713900E+02 -0.14508561406E+02 -0.69499670348E+02  0.83638541605E+02  0.10000000000E+01 0.  0.
<mgrwt>
<rscale>  0 0.12500278E+03</rscale>
<asrwt>0</asrwt>
<pdfrwt beam="1">  1        4 0.65445942E-02 0.12500278E+03</pdfrwt>
<pdfrwt beam="2">  1       -4 0.14127649E-01 0.12500278E+03</pdfrwt>
<totfact> 0.10250734E+04</totfact>
</mgrwt>
</event>
<event>
 5    1  0.3271306E-002  0.1249987E+03  0.7818608E-02  0.1235071E+00
          4   -1    0    0  501    0  0.00000000000E+00  0.00000000000E+00  0.84118643625E+02  0.84128230133E+02  0.12700000000E+01 0. -1.
         -4   -1    0    0    0  501 -0.00000000000E+00 -0.00000000000E+00 -0.46415519550E+02  0.46432890876E+02  0.12700000000E+01 0. -1.
         25    2    1    2    0    0  0.00000000000E+00  0.00000000000E+00  0.37703124074E+02  0.13056112101E+03  0.12499872301E+03 0.  0.
    9000005    1    3    3    0    0  0.42944599258E+02 -0.40593471500E+02  0.40080915174E+02  0.71411121648E+02  0.10000000000E+01 0.  0.
    9000005    1    3    3    0    0 -0.42944599258E+02  0.40593471500E+02 -0.23777910996E+01  0.59149999361E+02  0.10000000000E+01 0.  0.
<mgrwt>
<rscale>  0 0.12499872E+03</rscale>
<asrwt>0</asrwt>
<pdfrwt beam="1">  1        4 0.12943403E-01 0.12499872E+03</pdfrwt>
<pdfrwt beam="2">  1       -4 0.71429230E-02 0.12499872E+03</pdfrwt>
<totfact> 0.10332805E+04</totfact>
</mgrwt>
</event>
<event>
 5    1  0.3271306E-002  0.1249995E+03  0.7818608E-02  0.1235070E+00
          4   -1    0    0  501    0  0.00000000000E+00  0.00000000000E+00  0.26603988166E+03  0.26604291295E+03  0.12700000000E+01 0.  1.
         -4   -1    0    0    0  501 -0.00000000000E+00 -0.00000000000E+00 -0.14652256150E+02  0.14707192468E+02  0.12700000000E+01 0.  1.
         25    2    1    2    0    0  0.00000000000E+00  0.00000000000E+00  0.25138762551E+03  0.28075010542E+03  0.12499953374E+03 0.  0.
    9000005    1    3    3    0    0 -0.45872705589E+02 -0.42012471671E+02  0.13914513268E+03  0.15241955532E+03  0.10000000000E+01 0.  0.
    9000005    1    3    3    0    0  0.45872705589E+02  0.42012471671E+02  0.11224249282E+03  0.12833055010E+03  0.10000000000E+01 0.  0.
<mgrwt>
<rscale>  0 0.12499953E+03</rscale>
<asrwt>0</asrwt>
<pdfrwt beam="1">  1        4 0.40933664E-01 0.12499953E+03</pdfrwt>
<pdfrwt beam="2">  1       -4 0.22586527E-02 0.12499953E+03</pdfrwt>
<totfact> 0.78079566E+03</totfact>
</mgrwt>
</event>
<event>
 5    1  0.3271306E-002  0.1250083E+03  0.7818608E-02  0.1235056E+00
          4   -1    0    0  501    0  0.00000000000E+00  0.00000000000E+00  0.45920475302E+02  0.45938033827E+02  0.12700000000E+01 0.  1.
         -4   -1    0    0    0  501 -0.00000000000E+00 -0.00000000000E+00 -0.85038319292E+02  0.85047802135E+02  0.12700000000E+01 0.  1.
         25    2    1    2    0    0  0.00000000000E+00  0.00000000000E+00 -0.39117843990E+02  0.13098583596E+03  0.12500833374E+03 0.  0.
    9000005    1    3    3    0    0  0.15492394575E+02 -0.29996062758E+02  0.35548601286E+02  0.49035508808E+02  0.10000000000E+01 0.  0.
    9000005    1    3    3    0    0 -0.15492394575E+02  0.29996062758E+02 -0.74666445276E+02  0.81950327155E+02  0.10000000000E+01 0.  0.
<mgrwt>
<rscale>  0 0.12500833E+03</rscale>
<asrwt>0</asrwt>
<pdfrwt beam="1">  1        4 0.70667686E-02 0.12500833E+03</pdfrwt>
<pdfrwt beam="2">  1       -4 0.13084899E-01 0.12500833E+03</pdfrwt>
<totfact> 0.10321452E+04</totfact>
</mgrwt>
</event>
<event>
 5    1  0.3271306E-002  0.1249997E+03  0.7818608E-02  0.1235070E+00
          4   -1    0    0  501    0  0.00000000000E+00  0.00000000000E+00  0.15119732823E+03  0.15120266189E+03  0.12700000000E+01 0. -1.
         -4   -1    0    0    0  501 -0.00000000000E+00 -0.00000000000E+00 -0.25813913419E+02  0.25845135442E+02  0.12700000000E+01 0. -1.
         25    2    1    2    0    0  0.00000000000E+00  0.00000000000E+00  0.12538341481E+03  0.17704779734E+03  0.12499968733E+03 0.  0.
    9000005    1    3    3    0    0 -0.36159824906E+02 -0.47767147558E+02  0.37513594666E+02  0.70693020220E+02  0.10000000000E+01 0.  0.
    9000005    1    3    3    0    0  0.36159824906E+02  0.47767147558E+02  0.87869820145E+02  0.10635477712E+03  0.10000000000E+01 0.  0.
<mgrwt>
<rscale>  0 0.12499969E+03</rscale>
<asrwt>0</asrwt>
<pdfrwt beam="1">  1        4 0.23263940E-01 0.12499969E+03</pdfrwt>
<pdfrwt beam="2">  1       -4 0.39741832E-02 0.12499969E+03</pdfrwt>
<totfact> 0.94151784E+03</totfact>
</mgrwt>
</event>
<event>
 5    1  0.3271306E-002  0.1249953E+03  0.7818608E-02  0.1235077E+00
         -4   -1    0    0    0  501 -0.00000000000E+00  0.00000000000E+00  0.13823260458E+02  0.13881477937E+02  0.12700000000E+01 0. -1.
          4   -1    0    0  501    0  0.00000000000E+00 -0.00000000000E+00 -0.28191053406E+03  0.28191339471E+03  0.12700000000E+01 0. -1.
         25    2    1    2    0    0  0.00000000000E+00  0.00000000000E+00 -0.26808727360E+03  0.29579487264E+03  0.12499528157E+03 0.  0.
    9000005    1    3    3    0    0 -0.45147129691E+02 -0.36990848919E+02 -0.18687264779E+03  0.19577786575E+03  0.10000000000E+01 0.  0.
    9000005    1    3    3    0    0  0.45147129691E+02  0.36990848919E+02 -0.81214625812E+02  0.10001700690E+03  0.10000000000E+01 0.  0.
<mgrwt>
<rscale>  0 0.12499528E+03</rscale>
<asrwt>0</asrwt>
<pdfrwt beam="2">  1        4 0.43375545E-01 0.12499528E+03</pdfrwt>
<pdfrwt beam="1">  1       -4 0.21313540E-02 0.12499528E+03</pdfrwt>
<totfact> 0.76137347E+03</totfact>
</mgrwt>
</event>
<event>
 5    1  0.3271306E-002  0.1250029E+03  0.7818608E-02  0.1235065E+00
         -4   -1    0    0    0  501 -0.00000000000E+00  0.00000000000E+00  0.83076318530E+01  0.84041446326E+01  0.12700000000E+01 0.  1.
          4   -1    0    0  501    0  0.00000000000E+00 -0.00000000000E+00 -0.46740900307E+03  0.46741072843E+03  0.12700000000E+01 0.  1.
         25    2    1    2    0    0  0.00000000000E+00  0.00000000000E+00 -0.45910137122E+03  0.47581487306E+03  0.12500289746E+03 0.  0.
    9000005    1    3    3    0    0 -0.15333544019E+02  0.54731454665E+02 -0.32842864208E+03  0.33331219996E+03  0.10000000000E+01 0.  0.
    9000005    1    3    3    0    0  0.15333544019E+02 -0.54731454665E+02 -0.13067272914E+03  0.14250267310E+03  0.10000000000E+01 0.  0.
<mgrwt>
<rscale>  0 0.12500290E+03</rscale>
<asrwt>0</asrwt>
<pdfrwt beam="2">  1        4 0.71916614E-01 0.12500290E+03</pdfrwt>
<pdfrwt beam="1">  1       -4 0.12856544E-02 0.12500290E+03</pdfrwt>
<totfact> 0.57787232E+03</totfact>
</mgrwt>
</event>
<event>
 5    1  0.3271306E-002  0.1249996E+03  0.7818608E-02  0.1235070E+00
         -4   -1    0    0    0  501 -0.00000000000E+00  0.00000000000E+00  0.15071876549E+03  0.15072411608E+03  0.12700000000E+01 0. -1.
          4   -1    0    0  501    0  0.00000000000E+00 -0.00000000000E+00 -0.25895931073E+02  0.25927054328E+02  0.12700000000E+01 0. -1.
         25    2    1    2    0    0  0.00000000000E+00  0.00000000000E+00  0.12482283441E+03  0.17665117041E+03  0.12499958407E+03 0.  0.
    9000005    1    3    3    0    0  0.76073658358E+01  0.23253884618E+02 -0.18852801165E+02  0.30903774471E+02  0.10000000000E+01 0.  0.
    9000005    1    3    3    0    0 -0.76073658358E+01 -0.23253884618E+02  0.14367563558E+03  0.14574739594E+03  0.10000000000E+01 0.  0.
<mgrwt>
<rscale>  0 0.12499958E+03</rscale>
<asrwt>0</asrwt>
<pdfrwt beam="2">  1        4 0.39867951E-02 0.12499958E+03</pdfrwt>
<pdfrwt beam="1">  1       -4 0.23190308E-01 0.12499958E+03</pdfrwt>
<totfact> 0.94224179E+03</totfact>
</mgrwt>
</event>
<event>
 5    1  0.3271306E-002  0.1249988E+03  0.7818608E-02  0.1235071E+00
          4   -1    0    0  501    0  0.00000000000E+00  0.00000000000E+00  0.13057654231E+02  0.13119269569E+02  0.12700000000E+01 0. -1.
         -4   -1    0    0    0  501 -0.00000000000E+00 -0.00000000000E+00 -0.29838098614E+03  0.29838368888E+03  0.12700000000E+01 0. -1.
         25    2    1    2    0    0  0.00000000000E+00  0.00000000000E+00 -0.28532333191E+03  0.31150295845E+03  0.12499875756E+03 0.  0.
    9000005    1    3    3    0    0  0.60098128335E+02 -0.11049935952E+02 -0.11004664141E+03  0.12587751745E+03  0.10000000000E+01 0.  0.
    9000005    1    3    3    0    0 -0.60098128335E+02  0.11049935952E+02 -0.17527669050E+03  0.18562544100E+03  0.10000000000E+01 0.  0.
<mgrwt>
<rscale>  0 0.12499876E+03</rscale>
<asrwt>0</asrwt>
<pdfrwt beam="1">  1        4 0.20138176E-02 0.12499876E+03</pdfrwt>
<pdfrwt beam="2">  1       -4 0.45909710E-01 0.12499876E+03</pdfrwt>
<totfact> 0.74180264E+03</totfact>
</mgrwt>
</event>
<event>
 5    1  0.3271306E-002  0.1250006E+03  0.7818608E-02  0.1235068E+00
          4   -1    0    0  501    0  0.00000000000E+00  0.00000000000E+00  0.22304916353E+02  0.22341042803E+02  0.12700000000E+01 0. -1.
         -4   -1    0    0    0  501 -0.00000000000E+00 -0.00000000000E+00 -0.17495112579E+03  0.17495573530E+03  0.12700000000E+01 0. -1.
         25    2    1    2    0    0  0.00000000000E+00  0.00000000000E+00 -0.15264620944E+03  0.19729677811E+03  0.12500061358E+03 0.  0.
    9000005    1    3    3    0    0  0.48054852445E+02  0.38553780924E+02 -0.92848947090E+02  0.11143423999E+03  0.10000000000E+01 0.  0.
    9000005    1    3    3    0    0 -0.48054852445E+02 -0.38553780924E+02 -0.59797262349E+02  0.85862538115E+02  0.10000000000E+01 0.  0.
<mgrwt>
<rscale>  0 0.12500061E+03</rscale>
<asrwt>0</asrwt>
<pdfrwt beam="1">  1        4 0.34346592E-02 0.12500061E+03</pdfrwt>
<pdfrwt beam="2">  1       -4 0.26918690E-01 0.12500061E+03</pdfrwt>
<totfact> 0.90591727E+03</totfact>
</mgrwt>
</event>
<event>
 5    1  0.3271306E-002  0.1250020E+03  0.7818608E-02  0.1235066E+00
          4   -1    0    0  501    0  0.00000000000E+00  0.00000000000E+00  0.22109391321E+01  0.25497356423E+01  0.12700000000E+01 0.  1.
         -4   -1    0    0    0  501 -0.00000000000E+00 -0.00000000000E+00 -0.16407616981E+04  0.16407621896E+04  0.12700000000E+01 0.  1.
         25    2    1    2    0    0  0.00000000000E+00  0.00000000000E+00 -0.16385507590E+04  0.16433119252E+04  0.12500197583E+03 0.  0.
    9000005    1    3    3    0    0 -0.47212963443E+02 -0.67335150224E+01 -0.28835911652E+03  0.29227792291E+03  0.10000000000E+01 0.  0.
    9000005    1    3    3    0    0  0.47212963443E+02  0.67335150224E+01 -0.13501916424E+04  0.13510340023E+04  0.10000000000E+01 0.  0.
<mgrwt>
<rscale>  0 0.12500198E+03</rscale>
<asrwt>0</asrwt>
<pdfrwt beam="1">  1        4 0.36624487E-03 0.12500198E+03</pdfrwt>
<pdfrwt beam="2">  1       -4 0.25245007E+00 0.12500198E+03</pdfrwt>
<totfact> 0.15275413E+03</totfact>
</mgrwt>
</event>
<event>
 5    1  0.3271306E-002  0.1250000E+03  0.7818608E-02  0.1235069E+00
         -4   -1    0    0    0  501 -0.00000000000E+00  0.00000000000E+00  0.59460890401E+02  0.59474451551E+02  0.12700000000E+01 0. -1.
          4   -1    0    0  501    0  0.00000000000E+00 -0.00000000000E+00 -0.65667256727E+02  0.65679536433E+02  0.12700000000E+01 0. -1.
         25    2    1    2    0    0  0.00000000000E+00  0.00000000000E+00 -0.62063663266E+01  0.12515398798E+03  0.12500000690E+03 0.  0.
    9000005    1    3    3    0    0 -0.55469927096E+01  0.10280221594E+02  0.58362980244E+02  0.59528896740E+02  0.10000000000E+01 0.  0.
    9000005    1    3    3    0    0  0.55469927096E+01 -0.10280221594E+02 -0.64569346571E+02  0.65625091243E+02  0.10000000000E+01 0.  0.
<mgrwt>
<rscale>  0 0.12500001E+03</rscale>
<asrwt>0</asrwt>
<pdfrwt beam="2">  1        4 0.10104643E-01 0.12500001E+03</pdfrwt>
<pdfrwt beam="1">  1       -4 0.91498170E-02 0.12500001E+03</pdfrwt>
<totfact> 0.10449517E+04</totfact>
</mgrwt>
</event>
<event>
 5    1  0.3271306E-002  0.1250034E+03  0.7818608E-02  0.1235064E+00
          4   -1    0    0  501    0  0.00000000000E+00  0.00000000000E+00  0.18386851059E+04  0.18386855445E+04  0.12700000000E+01 0.  1.
         -4   -1    0    0    0  501 -0.00000000000E+00 -0.00000000000E+00 -0.19343277700E+01  0.23139844256E+01  0.12700000000E+01 0.  1.
         25    2    1    2    0    0  0.00000000000E+00  0.00000000000E+00  0.18367507782E+04  0.18409995290E+04  0.12500337815E+03 0.  0.
    9000005    1    3    3    0    0 -0.21120641791E+01  0.62417062529E+02  0.95166962344E+03  0.95371716074E+03  0.10000000000E+01 0.  0.
    9000005    1    3    3    0    0  0.21120641791E+01 -0.62417062529E+02  0.88508115473E+03  0.88728236822E+03  0.10000000000E+01 0.  0.
<mgrwt>
<rscale>  0 0.12500338E+03</rscale>
<asrwt>0</asrwt>
<pdfrwt beam="1">  1        4 0.28290373E+00 0.12500338E+03</pdfrwt>
<pdfrwt beam="2">  1       -4 0.32682714E-03 0.12500338E+03</pdfrwt>
<totfact> 0.12081474E+03</totfact>
</mgrwt>
</event>
<event>
 5    1  0.3271306E-002  0.1249933E+03  0.7818608E-02  0.1235080E+00
         -4   -1    0    0    0  501 -0.00000000000E+00  0.00000000000E+00  0.40990919442E+03  0.40991116180E+03  0.12700000000E+01 0.  1.
          4   -1    0    0  501    0  0.00000000000E+00 -0.00000000000E+00 -0.94842157685E+01  0.95688687285E+01  0.12700000000E+01 0.  1.
         25    2    1    2    0    0  0.00000000000E+00  0.00000000000E+00  0.40042497865E+03  0.41948003053E+03  0.12499332977E+03 0.  0.
    9000005    1    3    3    0    0 -0.44124095794E+02 -0.42819361421E+02  0.23764370302E+03  0.24547090078E+03  0.10000000000E+01 0.  0.
    9000005    1    3    3    0    0  0.44124095794E+02  0.42819361421E+02  0.16278127563E+03  0.17400912975E+03  0.10000000000E+01 0.  0.
<mgrwt>
<rscale>  0 0.12499333E+03</rscale>
<asrwt>0</asrwt>
<pdfrwt beam="2">  1        4 0.14657731E-02 0.12499333E+03</pdfrwt>
<pdfrwt beam="1">  1       -4 0.63069622E-01 0.12499333E+03</pdfrwt>
<totfact> 0.62710499E+03</totfact>
</mgrwt>
</event>
<event>
 5    1  0.3271306E-002  0.1249932E+03  0.7818608E-02  0.1235080E+00
          4   -1    0    0  501    0  0.00000000000E+00  0.00000000000E+00  0.25604896659E+02  0.25636373240E+02  0.12700000000E+01 0.  1.
         -4   -1    0    0    0  501 -0.00000000000E+00 -0.00000000000E+00 -0.15241425414E+03  0.15241954522E+03  0.12700000000E+01 0.  1.
         25    2    1    2    0    0  0.00000000000E+00  0.00000000000E+00 -0.12680935748E+03  0.17805591846E+03  0.12499318763E+03 0.  0.
    9000005    1    3    3    0    0 -0.22936677966E+01 -0.57346939081E+02 -0.28195795105E+02  0.63952601163E+02  0.10000000000E+01 0.  0.
    9000005    1    3    3    0    0  0.22936677966E+01  0.57346939081E+02 -0.98613562378E+02  0.11410331730E+03  0.10000000000E+01 0.  0.
<mgrwt>
<rscale>  0 0.12499319E+03</rscale>
<asrwt>0</asrwt>
<pdfrwt beam="1">  1        4 0.39420432E-02 0.12499319E+03</pdfrwt>
<pdfrwt beam="2">  1       -4 0.23451174E-01 0.12499319E+03</pdfrwt>
<totfact> 0.93982477E+03</totfact>
</mgrwt>
</event>
<event>
 5    1  0.3271306E-002  0.1249532E+03  0.7818608E-02  0.1235142E+00
         -4   -1    0    0    0  501 -0.00000000000E+00  0.00000000000E+00  0.32752092429E+03  0.32752338657E+03  0.12700000000E+01 0.  1.
          4   -1    0    0  501    0  0.00000000000E+00 -0.00000000000E+00 -0.11881445046E+02  0.11949127013E+02  0.12700000000E+01 0.  1.
         25    2    1    2    0    0  0.00000000000E+00  0.00000000000E+00  0.31563947924E+03  0.33947251358E+03  0.12495321772E+03 0.  0.
    9000005    1    3    3    0    0 -0.14573862581E+02 -0.55921121694E+02  0.22226897258E+03  0.22966076177E+03  0.10000000000E+01 0.  0.
    9000005    1    3    3    0    0  0.14573862581E+02  0.55921121694E+02  0.93370506659E+02  0.10981175181E+03  0.10000000000E+01 0.  0.
<mgrwt>
<rscale>  0 0.12495322E+03</rscale>
<asrwt>0</asrwt>
<pdfrwt beam="2">  1        4 0.18333104E-02 0.12495322E+03</pdfrwt>
<pdfrwt beam="1">  1       -4 0.50393229E-01 0.12495322E+03</pdfrwt>
<totfact> 0.70971942E+03</totfact>
</mgrwt>
</event>
<event>
 5    1  0.3271306E-002  0.1250007E+03  0.7818608E-02  0.1235068E+00
          4   -1    0    0  501    0  0.00000000000E+00  0.00000000000E+00  0.27891956562E+02  0.27920854945E+02  0.12700000000E+01 0. -1.
         -4   -1    0    0    0  501 -0.00000000000E+00 -0.00000000000E+00 -0.13994653278E+03  0.13995229522E+03  0.12700000000E+01 0. -1.
         25    2    1    2    0    0  0.00000000000E+00  0.00000000000E+00 -0.11205457622E+03  0.16787315016E+03  0.12500066598E+03 0.  0.
    9000005    1    3    3    0    0 -0.24220046829E+02  0.14467587501E+01 -0.13336915761E+03  0.13556192674E+03  0.10000000000E+01 0.  0.
    9000005    1    3    3    0    0  0.24220046829E+02 -0.14467587501E+01  0.21314581394E+02  0.32311223425E+02  0.10000000000E+01 0.  0.
<mgrwt>
<rscale>  0 0.12500067E+03</rscale>
<asrwt>0</asrwt>
<pdfrwt beam="1">  1        4 0.42937365E-02 0.12500067E+03</pdfrwt>
<pdfrwt beam="2">  1       -4 0.21532902E-01 0.12500067E+03</pdfrwt>
<totfact> 0.95844580E+03</totfact>
</mgrwt>
</event>
<event>
 5    1  0.3271306E-002  0.1249987E+03  0.7818608E-02  0.1235071E+00
          4   -1    0    0  501    0  0.00000000000E+00  0.00000000000E+00  0.30921459354E+02  0.30947528958E+02  0.12700000000E+01 0.  1.
         -4   -1    0    0    0  501 -0.00000000000E+00 -0.00000000000E+00 -0.12624293482E+03  0.12624932274E+03  0.12700000000E+01 0.  1.
         25    2    1    2    0    0  0.00000000000E+00  0.00000000000E+00 -0.95321475466E+02  0.15719685170E+03  0.12499866599E+03 0.  0.
    9000005    1    3    3    0    0 -0.26586582523E+02  0.53900322623E+02 -0.69189953229E+02  0.91653372971E+02  0.10000000000E+01 0.  0.
    9000005    1    3    3    0    0  0.26586582523E+02 -0.53900322623E+02 -0.26131522237E+02  0.65543478726E+02  0.10000000000E+01 0.  0.
<mgrwt>
<rscale>  0 0.12499867E+03</rscale>
<asrwt>0</asrwt>
<pdfrwt beam="1">  1        4 0.47596444E-02 0.12499867E+03</pdfrwt>
<pdfrwt beam="2">  1       -4 0.19424486E-01 0.12499867E+03</pdfrwt>
<totfact> 0.97888884E+03</totfact>
</mgrwt>
</event>
<event>
 5    1  0.3271306E-002  0.1250211E+03  0.7818608E-02  0.1235036E+00
          4   -1    0    0  501    0  0.00000000000E+00  0.00000000000E+00  0.54534776595E+03  0.54534924473E+03  0.12700000000E+01 0.  1.
         -4   -1    0    0    0  501 -0.00000000000E+00 -0.00000000000E+00 -0.71075001510E+01  0.72200732958E+01  0.12700000000E+01 0.  1.
         25    2    1    2    0    0  0.00000000000E+00  0.00000000000E+00  0.53824026580E+03  0.55256931802E+03  0.12502106821E+03 0.  0.
    9000005    1    3    3    0    0 -0.17413152713E+02  0.59991000290E+02  0.27842157007E+03  0.28534489427E+03  0.10000000000E+01 0.  0.
    9000005    1    3    3    0    0  0.17413152713E+02 -0.59991000290E+02  0.25981869573E+03  0.26722442376E+03  0.10000000000E+01 0.  0.
<mgrwt>
<rscale>  0 0.12502107E+03</rscale>
<asrwt>0</asrwt>
<pdfrwt beam="1">  1        4 0.83908423E-01 0.12502107E+03</pdfrwt>
<pdfrwt beam="2">  1       -4 0.11022349E-02 0.12502107E+03</pdfrwt>
<totfact> 0.51981270E+03</totfact>
</mgrwt>
</event>
<event>
 5    1  0.3271306E-002  0.1249999E+03  0.7818608E-02  0.1235069E+00
          4   -1    0    0  501    0  0.00000000000E+00  0.00000000000E+00  0.53911698347E+02  0.53926654993E+02  0.12700000000E+01 0.  1.
         -4   -1    0    0    0  501 -0.00000000000E+00 -0.00000000000E+00 -0.72425760221E+02  0.72436894215E+02  0.12700000000E+01 0.  1.
         25    2    1    2    0    0  0.00000000000E+00  0.00000000000E+00 -0.18514061873E+02  0.12636354921E+03  0.12499990433E+03 0.  0.
    9000005    1    3    3    0    0 -0.37303270611E+02 -0.11172588225E+02 -0.58666433390E+02  0.70420956630E+02  0.10000000000E+01 0.  0.
    9000005    1    3    3    0    0  0.37303270611E+02  0.11172588225E+02  0.40152371517E+02  0.55942592578E+02  0.10000000000E+01 0.  0.
<mgrwt>
<rscale>  0 0.12499990E+03</rscale>
<asrwt>0</asrwt>
<pdfrwt beam="1">  1        4 0.82961144E-02 0.12499990E+03</pdfrwt>
<pdfrwt beam="2">  1       -4 0.11144432E-01 0.12499990E+03</pdfrwt>
<totfact> 0.10423028E+04</totfact>
</mgrwt>
</event>
<event>
 5    1  0.3271306E-002  0.1249882E+03  0.7818608E-02  0.1235088E+00
          4   -1    0    0  501    0  0.00000000000E+00  0.00000000000E+00  0.32633124507E+03  0.32633371633E+03  0.12700000000E+01 0.  1.
         -4   -1    0    0    0  501 -0.00000000000E+00 -0.00000000000E+00 -0.11931725491E+02  0.11999123851E+02  0.12700000000E+01 0.  1.
         25    2    1    2    0    0  0.00000000000E+00  0.00000000000E+00  0.31439951958E+03  0.33833284018E+03  0.12498821076E+03 0.  0.
    9000005    1    3    3    0    0  0.26940584133E+02  0.25496947680E+02  0.29331827824E+03  0.29565605315E+03  0.10000000000E+01 0.  0.
    9000005    1    3    3    0    0 -0.26940584133E+02 -0.25496947680E+02  0.21081241341E+02  0.42676787026E+02  0.10000000000E+01 0.  0.
<mgrwt>
<rscale>  0 0.12498821E+03</rscale>
<asrwt>0</asrwt>
<pdfrwt beam="1">  1        4 0.50210176E-01 0.12498821E+03</pdfrwt>
<pdfrwt beam="2">  1       -4 0.18410249E-02 0.12498821E+03</pdfrwt>
<totfact> 0.71045997E+03</totfact>
</mgrwt>
</event>
<event>
 5    1  0.3271306E-002  0.1249988E+03  0.7818608E-02  0.1235071E+00
          4   -1    0    0  501    0  0.00000000000E+00  0.00000000000E+00  0.21366124546E+02  0.21403835593E+02  0.12700000000E+01 0. -1.
         -4   -1    0    0    0  501 -0.00000000000E+00 -0.00000000000E+00 -0.18261983880E+03  0.18262425475E+03  0.12700000000E+01 0. -1.
         25    2    1    2    0    0  0.00000000000E+00  0.00000000000E+00 -0.16125371425E+03  0.20402809035E+03  0.12499880515E+03 0.  0.
    9000005    1    3    3    0    0  0.23345389018E+02  0.39464025396E+02 -0.11323716009E+02  0.47240269189E+02  0.10000000000E+01 0.  0.
    9000005    1    3    3    0    0 -0.23345389018E+02 -0.39464025396E+02 -0.14992999825E+03  0.15678782116E+03  0.10000000000E+01 0.  0.
<mgrwt>
<rscale>  0 0.12499881E+03</rscale>
<asrwt>0</asrwt>
<pdfrwt beam="1">  1        4 0.32903367E-02 0.12499881E+03</pdfrwt>
<pdfrwt beam="2">  1       -4 0.28098599E-01 0.12499881E+03</pdfrwt>
<totfact> 0.89462946E+03</totfact>
</mgrwt>
</event>
<event>
 5    1  0.3271306E-002  0.1250102E+03  0.7818608E-02  0.1235053E+00
          4   -1    0    0  501    0  0.00000000000E+00  0.00000000000E+00  0.52233191699E+01  0.53754965492E+01  0.12700000000E+01 0.  1.
         -4   -1    0    0    0  501 -0.00000000000E+00 -0.00000000000E+00 -0.73707858636E+03  0.73707968047E+03  0.12700000000E+01 0.  1.
         25    2    1    2    0    0  0.00000000000E+00  0.00000000000E+00 -0.73185526719E+03  0.74245517702E+03  0.12501023069E+03 0.  0.
    9000005    1    3    3    0    0  0.21881825998E+02 -0.20638624639E+02 -0.40565857003E+02  0.50510948223E+02  0.10000000000E+01 0.  0.
    9000005    1    3    3    0    0 -0.21881825998E+02  0.20638624639E+02 -0.69128941018E+03  0.69194422880E+03  0.10000000000E+01 0.  0.
<mgrwt>
<rscale>  0 0.12501023E+03</rscale>
<asrwt>0</asrwt>
<pdfrwt beam="1">  1        4 0.81537826E-03 0.12501023E+03</pdfrwt>
<pdfrwt beam="2">  1       -4 0.11340841E+00 0.12501023E+03</pdfrwt>
<totfact> 0.40928499E+03</totfact>
</mgrwt>
</event>
<event>
 5    1  0.3271306E-002  0.1250000E+03  0.7818608E-02  0.1235069E+00
         -4   -1    0    0    0  501 -0.00000000000E+00  0.00000000000E+00  0.21241373016E+03  0.21241752672E+03  0.12700000000E+01 0.  1.
          4   -1    0    0  501    0  0.00000000000E+00 -0.00000000000E+00 -0.18363932514E+02  0.18407795017E+02  0.12700000000E+01 0.  1.
         25    2    1    2    0    0  0.00000000000E+00  0.00000000000E+00  0.19404979764E+03  0.23082532174E+03  0.12500002076E+03 0.  0.
    9000005    1    3    3    0    0 -0.39430783469E+02 -0.42502040045E+02  0.53953471755E+02  0.79203454517E+02  0.10000000000E+01 0.  0.
    9000005    1    3    3    0    0  0.39430783469E+02  0.42502040045E+02  0.14009632589E+03  0.15162186722E+03  0.10000000000E+01 0.  0.
<mgrwt>
<rscale>  0 0.12500002E+03</rscale>
<asrwt>0</asrwt>
<pdfrwt beam="2">  1        4 0.28288864E-02 0.12500002E+03</pdfrwt>
<pdfrwt beam="1">  1       -4 0.32682703E-01 0.12500002E+03</pdfrwt>
<totfact> 0.85182987E+03</totfact>
</mgrwt>
</event>
<event>
 5    1  0.3271306E-002  0.1249782E+03  0.7818608E-02  0.1235103E+00
          4   -1    0    0  501    0  0.00000000000E+00  0.00000000000E+00  0.49045881021E+03  0.49046045448E+03  0.12700000000E+01 0.  1.
         -4   -1    0    0    0  501 -0.00000000000E+00 -0.00000000000E+00 -0.79093868812E+01  0.80106991478E+01  0.12700000000E+01 0.  1.
         25    2    1    2    0    0  0.00000000000E+00  0.00000000000E+00  0.48254942333E+03  0.49847115363E+03  0.12497817829E+03 0.  0.
    9000005    1    3    3    0    0 -0.95594765225E+01 -0.59867983838E+02  0.30154241601E+03  0.30757826278E+03  0.10000000000E+01 0.  0.
    9000005    1    3    3    0    0  0.95594765225E+01  0.59867983838E+02  0.18100700732E+03  0.19089289086E+03  0.10000000000E+01 0.  0.
<mgrwt>
<rscale>  0 0.12497818E+03</rscale>
<asrwt>0</asrwt>
<pdfrwt beam="1">  1        4 0.75463162E-01 0.12497818E+03</pdfrwt>
<pdfrwt beam="2">  1       -4 0.12247478E-02 0.12497818E+03</pdfrwt>
<totfact> 0.56010032E+03</totfact>
</mgrwt>
</event>
<event>
 5    1  0.3271306E-002  0.1250007E+03  0.7818608E-02  0.1235068E+00
          4   -1    0    0  501    0  0.00000000000E+00  0.00000000000E+00  0.15013578847E+03  0.15014115985E+03  0.12700000000E+01 0.  1.
         -4   -1    0    0    0  501 -0.00000000000E+00 -0.00000000000E+00 -0.25997058871E+02  0.26028061202E+02  0.12700000000E+01 0.  1.
         25    2    1    2    0    0  0.00000000000E+00  0.00000000000E+00  0.12413872960E+03  0.17616922105E+03  0.12500068103E+03 0.  0.
    9000005    1    3    3    0    0  0.23963478944E+02  0.45964560342E+02  0.12877261833E+02  0.53421091367E+02  0.10000000000E+01 0.  0.
    9000005    1    3    3    0    0 -0.23963478944E+02 -0.45964560342E+02  0.11126146777E+03  0.12274812968E+03  0.10000000000E+01 0.  0.
<mgrwt>
<rscale>  0 0.12500068E+03</rscale>
<asrwt>0</asrwt>
<pdfrwt beam="1">  1        4 0.23100612E-01 0.12500068E+03</pdfrwt>
<pdfrwt beam="2">  1       -4 0.40023455E-02 0.12500068E+03</pdfrwt>
<totfact> 0.94309695E+03</totfact>
</mgrwt>
</event>
<event>
 5    1  0.3271306E-002  0.1249996E+03  0.7818608E-02  0.1235070E+00
          4   -1    0    0  501    0  0.00000000000E+00  0.00000000000E+00  0.29735782726E+02  0.29762890893E+02  0.12700000000E+01 0. -1.
         -4   -1    0    0    0  501 -0.00000000000E+00 -0.00000000000E+00 -0.13127432861E+03  0.13128047170E+03  0.12700000000E+01 0. -1.
         25    2    1    2    0    0  0.00000000000E+00  0.00000000000E+00 -0.10153854588E+03  0.16104336260E+03  0.12499955335E+03 0.  0.
    9000005    1    3    3    0    0 -0.84379700064E+00  0.27745732057E+02 -0.12290182257E+03  0.12600156995E+03  0.10000000000E+01 0.  0.
    9000005    1    3    3    0    0  0.84379700064E+00 -0.27745732057E+02  0.21363276688E+02  0.35041792642E+02  0.10000000000E+01 0.  0.
<mgrwt>
<rscale>  0 0.12499955E+03</rscale>
<asrwt>0</asrwt>
<pdfrwt beam="1">  1        4 0.45772937E-02 0.12499955E+03</pdfrwt>
<pdfrwt beam="2">  1       -4 0.20198608E-01 0.12499955E+03</pdfrwt>
<totfact> 0.97142985E+03</totfact>
</mgrwt>
</event>
<event>
 5    1  0.3271306E-002  0.1249998E+03  0.7818608E-02  0.1235070E+00
          4   -1    0    0  501    0  0.00000000000E+00  0.00000000000E+00  0.24159451238E+03  0.24159785039E+03  0.12700000000E+01 0. -1.
         -4   -1    0    0    0  501 -0.00000000000E+00 -0.00000000000E+00 -0.16140163553E+02  0.16190051869E+02  0.12700000000E+01 0. -1.
         25    2    1    2    0    0  0.00000000000E+00  0.00000000000E+00  0.22545434883E+03  0.25778790226E+03  0.12499975658E+03 0.  0.
    9000005    1    3    3    0    0 -0.12073758705E+02  0.61308007373E+02  0.11455713826E+03  0.13049438817E+03  0.10000000000E+01 0.  0.
    9000005    1    3    3    0    0  0.12073758705E+02 -0.61308007373E+02  0.11089721057E+03  0.12729351409E+03  0.10000000000E+01 0.  0.
<mgrwt>
<rscale>  0 0.12499976E+03</rscale>
<asrwt>0</asrwt>
<pdfrwt beam="1">  1        4 0.37172479E-01 0.12499976E+03</pdfrwt>
<pdfrwt beam="2">  1       -4 0.24871966E-02 0.12499976E+03</pdfrwt>
<totfact> 0.81217944E+03</totfact>
</mgrwt>
</event>
<event>
 5    1  0.3271306E-002  0.1250003E+03  0.7818608E-02  0.1235069E+00
          4   -1    0    0  501    0  0.00000000000E+00  0.00000000000E+00  0.15661351715E+03  0.15661866637E+03  0.12700000000E+01 0.  1.
         -4   -1    0    0    0  501 -0.00000000000E+00 -0.00000000000E+00 -0.24920353327E+02  0.24952693440E+02  0.12700000000E+01 0.  1.
         25    2    1    2    0    0  0.00000000000E+00  0.00000000000E+00  0.13169316382E+03  0.18157135981E+03  0.12500027722E+03 0.  0.
    9000005    1    3    3    0    0  0.56226242988E+02 -0.23715775207E+02  0.85412562125E+02  0.10497682679E+03  0.10000000000E+01 0.  0.
    9000005    1    3    3    0    0 -0.56226242988E+02  0.23715775207E+02  0.46280601698E+02  0.76594533015E+02  0.10000000000E+01 0.  0.
<mgrwt>
<rscale>  0 0.12500028E+03</rscale>
<asrwt>0</asrwt>
<pdfrwt beam="1">  1        4 0.24097271E-01 0.12500028E+03</pdfrwt>
<pdfrwt beam="2">  1       -4 0.38367843E-02 0.12500028E+03</pdfrwt>
<totfact> 0.93334335E+03</totfact>
</mgrwt>
</event>
<event>
 5    1  0.3271306E-002  0.1249985E+03  0.7818608E-02  0.1235072E+00
         -4   -1    0    0    0  501 -0.00000000000E+00  0.00000000000E+00  0.16492728285E+03  0.16493217251E+03  0.12700000000E+01 0. -1.
          4   -1    0    0  501    0  0.00000000000E+00 -0.00000000000E+00 -0.23661849593E+02  0.23695907372E+02  0.12700000000E+01 0. -1.
         25    2    1    2    0    0  0.00000000000E+00  0.00000000000E+00  0.14126543326E+03  0.18862807988E+03  0.12499851953E+03 0.  0.
    9000005    1    3    3    0    0 -0.41350584970E+02 -0.29840570109E+02  0.16122496367E+02  0.53490797255E+02  0.10000000000E+01 0.  0.
    9000005    1    3    3    0    0  0.41350584970E+02  0.29840570109E+02  0.12514293689E+03  0.13513728263E+03  0.10000000000E+01 0.  0.
<mgrwt>
<rscale>  0 0.12499852E+03</rscale>
<asrwt>0</asrwt>
<pdfrwt beam="2">  1        4 0.36432806E-02 0.12499852E+03</pdfrwt>
<pdfrwt beam="1">  1       -4 0.25376424E-01 0.12499852E+03</pdfrwt>
<totfact> 0.92089628E+03</totfact>
</mgrwt>
</event>
<event>
 5    1  0.3271306E-002  0.1250095E+03  0.7818608E-02  0.1235054E+00
         -4   -1    0    0    0  501 -0.00000000000E+00  0.00000000000E+00  0.27673444176E+03  0.27673735591E+03  0.12700000000E+01 0.  1.
          4   -1    0    0  501    0  0.00000000000E+00 -0.00000000000E+00 -0.14086116244E+02  0.14143251777E+02  0.12700000000E+01 0.  1.
         25    2    1    2    0    0  0.00000000000E+00  0.00000000000E+00  0.26264832552E+03  0.29088060769E+03  0.12500953977E+03 0.  0.
    9000005    1    3    3    0    0  0.47748322638E+02 -0.17136598818E+02  0.21625580416E+03  0.22212865228E+03  0.10000000000E+01 0.  0.
    9000005    1    3    3    0    0 -0.47748322638E+02  0.17136598818E+02  0.46392521360E+02  0.68751955405E+02  0.10000000000E+01 0.  0.
<mgrwt>
<rscale>  0 0.12500954E+03</rscale>
<asrwt>0</asrwt>
<pdfrwt beam="2">  1        4 0.21717140E-02 0.12500954E+03</pdfrwt>
<pdfrwt beam="1">  1       -4 0.42579148E-01 0.12500954E+03</pdfrwt>
<totfact> 0.76740921E+03</totfact>
</mgrwt>
</event>
<event>
 5    1  0.3271306E-002  0.1250003E+03  0.7818608E-02  0.1235069E+00
         -4   -1    0    0    0  501 -0.00000000000E+00  0.00000000000E+00  0.19203608109E+03  0.19204028051E+03  0.12700000000E+01 0.  1.
          4   -1    0    0  501    0  0.00000000000E+00 -0.00000000000E+00 -0.20317079568E+02  0.20356734074E+02  0.12700000000E+01 0.  1.
         25    2    1    2    0    0  0.00000000000E+00  0.00000000000E+00  0.17171900152E+03  0.21239701459E+03  0.12500030529E+03 0.  0.
    9000005    1    3    3    0    0 -0.38562385011E+02 -0.16867024290E+02  0.16434791288E+03  0.16965491597E+03  0.10000000000E+01 0.  0.
    9000005    1    3    3    0    0  0.38562385011E+02  0.16867024290E+02  0.73710886411E+01  0.42742098614E+02  0.10000000000E+01 0.  0.
<mgrwt>
<rscale>  0 0.12500031E+03</rscale>
<asrwt>0</asrwt>
<pdfrwt beam="2">  1        4 0.31290780E-02 0.12500031E+03</pdfrwt>
<pdfrwt beam="1">  1       -4 0.29547385E-01 0.12500031E+03</pdfrwt>
<totfact> 0.88085306E+03</totfact>
</mgrwt>
</event>
<event>
 5    1  0.3271306E-002  0.1249941E+03  0.7818608E-02  0.1235079E+00
          4   -1    0    0  501    0  0.00000000000E+00  0.00000000000E+00  0.46791751094E+01  0.48484615812E+01  0.12700000000E+01 0.  1.
         -4   -1    0    0    0  501 -0.00000000000E+00 -0.00000000000E+00 -0.81973541392E+03  0.81973639771E+03  0.12700000000E+01 0.  1.
         25    2    1    2    0    0  0.00000000000E+00  0.00000000000E+00 -0.81505623881E+03  0.82458485929E+03  0.12499407087E+03 0.  0.
    9000005    1    3    3    0    0 -0.26790959404E+02 -0.37804995327E+02 -0.68412278497E+03  0.68569086190E+03  0.10000000000E+01 0.  0.
    9000005    1    3    3    0    0  0.26790959404E+02  0.37804995327E+02 -0.13093345384E+03  0.13889399739E+03  0.10000000000E+01 0.  0.
<mgrwt>
<rscale>  0 0.12499407E+03</rscale>
<asrwt>0</asrwt>
<pdfrwt beam="1">  1        4 0.73297146E-03 0.12499407E+03</pdfrwt>
<pdfrwt beam="2">  1       -4 0.12612613E+00 0.12499407E+03</pdfrwt>
<totfact> 0.37195321E+03</totfact>
</mgrwt>
</event>
<event>
 5    1  0.3271306E-002  0.1249914E+03  0.7818608E-02  0.1235083E+00
         -4   -1    0    0    0  501 -0.00000000000E+00  0.00000000000E+00  0.12530836082E+03  0.12531479638E+03  0.12700000000E+01 0.  1.
          4   -1    0    0  501    0  0.00000000000E+00 -0.00000000000E+00 -0.31148652522E+02  0.31174532136E+02  0.12700000000E+01 0.  1.
         25    2    1    2    0    0  0.00000000000E+00  0.00000000000E+00  0.94159708299E+02  0.15648932852E+03  0.12499143680E+03 0.  0.
    9000005    1    3    3    0    0 -0.28695895704E+02  0.52973669152E+02  0.26315860146E+02  0.65750958540E+02  0.10000000000E+01 0.  0.
    9000005    1    3    3    0    0  0.28695895704E+02 -0.52973669152E+02  0.67843848153E+02  0.90738369976E+02  0.10000000000E+01 0.  0.
<mgrwt>
<rscale>  0 0.12499144E+03</rscale>
<asrwt>0</asrwt>
<pdfrwt beam="2">  1        4 0.47945862E-02 0.12499144E+03</pdfrwt>
<pdfrwt beam="1">  1       -4 0.19280695E-01 0.12499144E+03</pdfrwt>
<totfact> 0.98042793E+03</totfact>
</mgrwt>
</event>
<event>
 5    1  0.3271306E-002  0.1250022E+03  0.7818608E-02  0.1235066E+00
          4   -1    0    0  501    0  0.00000000000E+00  0.00000000000E+00  0.94961481167E+02  0.94969973178E+02  0.12700000000E+01 0.  1.
         -4   -1    0    0    0  501 -0.00000000000E+00 -0.00000000000E+00 -0.41116443878E+02  0.41136053009E+02  0.12700000000E+01 0.  1.
         25    2    1    2    0    0  0.00000000000E+00  0.00000000000E+00  0.53845037289E+02  0.13610602619E+03  0.12500224928E+03 0.  0.
    9000005    1    3    3    0    0  0.42602404014E+02  0.10835135435E+02 -0.21441890445E+02  0.48919522213E+02  0.10000000000E+01 0.  0.
    9000005    1    3    3    0    0 -0.42602404014E+02 -0.10835135435E+02  0.75286927734E+02  0.87186503974E+02  0.10000000000E+01 0.  0.
<mgrwt>
<rscale>  0 0.12500225E+03</rscale>
<asrwt>0</asrwt>
<pdfrwt beam="1">  1        4 0.14611620E-01 0.12500225E+03</pdfrwt>
<pdfrwt beam="2">  1       -4 0.63277685E-02 0.12500225E+03</pdfrwt>
<totfact> 0.10214293E+04</totfact>
</mgrwt>
</event>
<event>
 4    1  0.3271306E-002  0.1250882E+03  0.7818608E-02  0.1234931E+00
         -4   -1    0    0    0  501 -0.00000000000E+00  0.00000000000E+00  0.13661032444E+03  0.13661622760E+03  0.12700000000E+01 0.  1.
          4   -1    0    0  501    0  0.00000000000E+00 -0.00000000000E+00 -0.28613882612E+02  0.28642052617E+02  0.12700000000E+01 0.  1.
    9000005    1    1    2    0    0  0.17655215019E+02  0.34753629940E+02 -0.10605693406E+02  0.40410421230E+02  0.10000000000E+01 0.  0.
    9000005    1    1    2    0    0 -0.17655215019E+02 -0.34753629940E+02  0.11860213523E+03  0.12484785899E+03  0.10000000000E+01 0.  0.
<mgrwt>
<rscale>  0 0.12508824E+03</rscale>
<asrwt>0</asrwt>
<pdfrwt beam="2">  1        4 0.44047569E-02 0.12508824E+03</pdfrwt>
<pdfrwt beam="1">  1       -4 0.21019594E-01 0.12508824E+03</pdfrwt>
<totfact> 0.96147784E+03</totfact>
</mgrwt>
</event>
<event>
 5    1  0.3271306E-002  0.1250005E+03  0.7818608E-02  0.1235068E+00
          4   -1    0    0  501    0  0.00000000000E+00  0.00000000000E+00  0.18962448175E+02  0.19004929381E+02  0.12700000000E+01 0.  1.
         -4   -1    0    0    0  501 -0.00000000000E+00 -0.00000000000E+00 -0.20572600344E+03  0.20572992343E+03  0.12700000000E+01 0.  1.
         25    2    1    2    0    0  0.00000000000E+00  0.00000000000E+00 -0.18676355527E+03  0.22473485281E+03  0.12500051396E+03 0.  0.
    9000005    1    3    3    0    0 -0.25136407364E+02 -0.27093075898E+02 -0.27824643564E+01  0.37075812124E+02  0.10000000000E+01 0.  0.
    9000005    1    3    3    0    0  0.25136407364E+02  0.27093075898E+02 -0.18398109091E+03  0.18765904068E+03  0.10000000000E+01 0.  0.
<mgrwt>
<rscale>  0 0.12500051E+03</rscale>
<asrwt>0</asrwt>
<pdfrwt beam="1">  1        4 0.29208692E-02 0.12500051E+03</pdfrwt>
<pdfrwt beam="2">  1       -4 0.31653722E-01 0.12500051E+03</pdfrwt>
<totfact> 0.86123634E+03</totfact>
</mgrwt>
</event>
<event>
 5    1  0.3271306E-002  0.1250019E+03  0.7818608E-02  0.1235066E+00
         -4   -1    0    0    0  501 -0.00000000000E+00  0.00000000000E+00  0.59823772843E+03  0.59823907647E+03  0.12700000000E+01 0. -1.
          4   -1    0    0  501    0  0.00000000000E+00 -0.00000000000E+00 -0.64666760088E+01  0.65902047467E+01  0.12700000000E+01 0. -1.
         25    2    1    2    0    0  0.00000000000E+00  0.00000000000E+00  0.59177105242E+03  0.60482928122E+03  0.12500192372E+03 0.  0.
    9000005    1    3    3    0    0  0.60895013882E+02  0.13551110130E+02  0.27808453625E+03  0.28499797298E+03  0.10000000000E+01 0.  0.
    9000005    1    3    3    0    0 -0.60895013882E+02 -0.13551110130E+02  0.31368651618E+03  0.31983130824E+03  0.10000000000E+01 0.  0.
<mgrwt>
<rscale>  0 0.12500192E+03</rscale>
<asrwt>0</asrwt>
<pdfrwt beam="2">  1        4 0.10044793E-02 0.12500192E+03</pdfrwt>
<pdfrwt beam="1">  1       -4 0.92046169E-01 0.12500192E+03</pdfrwt>
<totfact> 0.48562140E+03</totfact>
</mgrwt>
</event>
<event>
 5    1  0.3271306E-002  0.1250030E+03  0.7818608E-02  0.1235065E+00
         -4   -1    0    0    0  501 -0.00000000000E+00  0.00000000000E+00  0.70915091844E+02  0.70926462983E+02  0.12700000000E+01 0. -1.
          4   -1    0    0  501    0  0.00000000000E+00 -0.00000000000E+00 -0.55063052495E+02  0.55077696485E+02  0.12700000000E+01 0. -1.
         25    2    1    2    0    0  0.00000000000E+00  0.00000000000E+00  0.15852039349E+02  0.12600415947E+03  0.12500304417E+03 0.  0.
    9000005    1    3    3    0    0 -0.46555232993E+02 -0.83986662004E+01 -0.33236210791E+02  0.57823637214E+02  0.10000000000E+01 0.  0.
    9000005    1    3    3    0    0  0.46555232993E+02  0.83986662004E+01  0.49088250140E+02  0.68180522253E+02  0.10000000000E+01 0.  0.
<mgrwt>
<rscale>  0 0.12500304E+03</rscale>
<asrwt>0</asrwt>
<pdfrwt beam="2">  1        4 0.84732400E-02 0.12500304E+03</pdfrwt>
<pdfrwt beam="1">  1       -4 0.10912015E-01 0.12500304E+03</pdfrwt>
<totfact> 0.10430149E+04</totfact>
</mgrwt>
</event>
<event>
 5    1  0.3271306E-002  0.1249944E+03  0.7818608E-02  0.1235078E+00
         -4   -1    0    0    0  501 -0.00000000000E+00  0.00000000000E+00  0.56974976348E+02  0.56989129050E+02  0.12700000000E+01 0. -1.
          4   -1    0    0  501    0  0.00000000000E+00 -0.00000000000E+00 -0.68526068430E+02  0.68537835934E+02  0.12700000000E+01 0. -1.
         25    2    1    2    0    0  0.00000000000E+00  0.00000000000E+00 -0.11551092082E+02  0.12552696498E+03  0.12499436471E+03 0.  0.
    9000005    1    3    3    0    0  0.61520694445E+02 -0.60779642955E+01  0.33825382855E+01  0.61920748221E+02  0.10000000000E+01 0.  0.
    9000005    1    3    3    0    0 -0.61520694445E+02  0.60779642955E+01 -0.14933630368E+02  0.63606216763E+02  0.10000000000E+01 0.  0.
<mgrwt>
<rscale>  0 0.12499436E+03</rscale>
<asrwt>0</asrwt>
<pdfrwt beam="2">  1        4 0.10544466E-01 0.12499436E+03</pdfrwt>
<pdfrwt beam="1">  1       -4 0.87673749E-02 0.12499436E+03</pdfrwt>
<totfact> 0.10442686E+04</totfact>
</mgrwt>
</event>
<event>
 5    1  0.3271306E-002  0.1250067E+03  0.7818608E-02  0.1235059E+00
          4   -1    0    0  501    0  0.00000000000E+00  0.00000000000E+00  0.33708721215E+03  0.33708960455E+03  0.12700000000E+01 0. -1.
         -4   -1    0    0    0  501 -0.00000000000E+00 -0.00000000000E+00 -0.11552248272E+02  0.11621847536E+02  0.12700000000E+01 0. -1.
         25    2    1    2    0    0  0.00000000000E+00  0.00000000000E+00  0.32553496388E+03  0.34871145209E+03  0.12500665626E+03 0.  0.
    9000005    1    3    3    0    0  0.84908270690E+01  0.23639634848E+02  0.31349309033E+01  0.25332869396E+02  0.10000000000E+01 0.  0.
    9000005    1    3    3    0    0 -0.84908270690E+01 -0.23639634848E+02  0.32240003298E+03  0.32337858269E+03  0.10000000000E+01 0.  0.
<mgrwt>
<rscale>  0 0.12500666E+03</rscale>
<asrwt>0</asrwt>
<pdfrwt beam="1">  1        4 0.51865106E-01 0.12500666E+03</pdfrwt>
<pdfrwt beam="2">  1       -4 0.17828069E-02 0.12500666E+03</pdfrwt>
<totfact> 0.69856253E+03</totfact>
</mgrwt>
</event>
<event>
 5    1  0.3271306E-002  0.1249991E+03  0.7818608E-02  0.1235071E+00
          4   -1    0    0  501    0  0.00000000000E+00  0.00000000000E+00  0.16040023228E+02  0.16090222035E+02  0.12700000000E+01 0.  1.
         -4   -1    0    0    0  501 -0.00000000000E+00 -0.00000000000E+00 -0.24309566648E+03  0.24309898388E+03  0.12700000000E+01 0.  1.
         25    2    1    2    0    0  0.00000000000E+00  0.00000000000E+00 -0.22705564326E+03  0.25918920591E+03  0.12499911731E+03 0.  0.
    9000005    1    3    3    0    0  0.35623137118E+02  0.48285456057E+02 -0.14972272155E+03  0.16130215905E+03  0.10000000000E+01 0.  0.
    9000005    1    3    3    0    0 -0.35623137118E+02 -0.48285456057E+02 -0.77332921702E+02  0.97887046864E+02  0.10000000000E+01 0.  0.
<mgrwt>
<rscale>  0 0.12499912E+03</rscale>
<asrwt>0</asrwt>
<pdfrwt beam="1">  1        4 0.24718127E-02 0.12499912E+03</pdfrwt>
<pdfrwt beam="2">  1       -4 0.37403447E-01 0.12499912E+03</pdfrwt>
<totfact> 0.81021572E+03</totfact>
</mgrwt>
</event>
<event>
 5    1  0.3271306E-002  0.1250071E+03  0.7818608E-02  0.1235058E+00
         -4   -1    0    0    0  501 -0.00000000000E+00  0.00000000000E+00  0.19075864320E+04  0.19075868547E+04  0.12700000000E+01 0. -1.
          4   -1    0    0  501    0  0.00000000000E+00 -0.00000000000E+00 -0.18506239343E+01  0.22444841158E+01  0.12700000000E+01 0. -1.
         25    2    1    2    0    0  0.00000000000E+00  0.00000000000E+00  0.19057358080E+04  0.19098313388E+04  0.12500709102E+03 0.  0.
    9000005    1    3    3    0    0 -0.16209111340E+02  0.13287163185E+02  0.18523660678E+04  0.18524849077E+04  0.10000000000E+01 0.  0.
    9000005    1    3    3    0    0  0.16209111340E+02 -0.13287163185E+02  0.53369740220E+02  0.57346431162E+02  0.10000000000E+01 0.  0.
<mgrwt>
<rscale>  0 0.12500709E+03</rscale>
<asrwt>0</asrwt>
<pdfrwt beam="2">  1        4 0.31504117E-03 0.12500709E+03</pdfrwt>
<pdfrwt beam="1">  1       -4 0.29350485E+00 0.12500709E+03</pdfrwt>
<totfact> 0.11082704E+03</totfact>
</mgrwt>
</event>
<event>
 5    1  0.3271306E-002  0.1250017E+03  0.7818608E-02  0.1235067E+00
         -4   -1    0    0    0  501 -0.00000000000E+00  0.00000000000E+00  0.60860847231E+01  0.62171800084E+01  0.12700000000E+01 0.  1.
          4   -1    0    0  501    0  0.00000000000E+00 -0.00000000000E+00 -0.63487924509E+03  0.63488051533E+03  0.12700000000E+01 0.  1.
         25    2    1    2    0    0  0.00000000000E+00  0.00000000000E+00 -0.62879316037E+03  0.64109769534E+03  0.12500166577E+03 0.  0.
    9000005    1    3    3    0    0  0.43032168228E+02 -0.97318918678E+00 -0.54675839375E+03  0.54845096019E+03  0.10000000000E+01 0.  0.
    9000005    1    3    3    0    0 -0.43032168228E+02  0.97318918678E+00 -0.82034766625E+02  0.92646735154E+02  0.10000000000E+01 0.  0.
<mgrwt>
<rscale>  0 0.12500167E+03</rscale>
<asrwt>0</asrwt>
<pdfrwt beam="2">  1        4 0.97683860E-01 0.12500167E+03</pdfrwt>
<pdfrwt beam="1">  1       -4 0.94650319E-03 0.12500167E+03</pdfrwt>
<totfact> 0.46370342E+03</totfact>
</mgrwt>
</event>
<event>
 5    1  0.3271306E-002  0.1249978E+03  0.7818608E-02  0.1235073E+00
         -4   -1    0    0    0  501 -0.00000000000E+00  0.00000000000E+00  0.40312007157E+02  0.40332007402E+02  0.12700000000E+01 0.  1.
          4   -1    0    0  501    0  0.00000000000E+00 -0.00000000000E+00 -0.96848832490E+02  0.96857159027E+02  0.12700000000E+01 0.  1.
         25    2    1    2    0    0  0.00000000000E+00  0.00000000000E+00 -0.56536825333E+02  0.13718916643E+03  0.12499781905E+03 0.  0.
    9000005    1    3    3    0    0  0.54990071832E+02 -0.10138270042E+02 -0.58889788623E+02  0.81213913362E+02  0.10000000000E+01 0.  0.
    9000005    1    3    3    0    0 -0.54990071832E+02  0.10138270042E+02  0.23529632899E+01  0.55975253066E+02  0.10000000000E+01 0.  0.
<mgrwt>
<rscale>  0 0.12499782E+03</rscale>
<asrwt>0</asrwt>
<pdfrwt beam="2">  1        4 0.14901999E-01 0.12499782E+03</pdfrwt>
<pdfrwt beam="1">  1       -4 0.62040262E-02 0.12499782E+03</pdfrwt>
<totfact> 0.10192633E+04</totfact>
</mgrwt>
</event>
<event>
 5    1  0.3271306E-002  0.1249960E+03  0.7818608E-02  0.1235075E+00
          4   -1    0    0  501    0  0.00000000000E+00  0.00000000000E+00  0.87855925816E+02  0.87865104570E+02  0.12700000000E+01 0. -1.
         -4   -1    0    0    0  501 -0.00000000000E+00 -0.00000000000E+00 -0.44438600916E+02  0.44456744723E+02  0.12700000000E+01 0. -1.
         25    2    1    2    0    0  0.00000000000E+00  0.00000000000E+00  0.43417324900E+02  0.13232184929E+03  0.12499603073E+03 0.  0.
    9000005    1    3    3    0    0 -0.56987066435E+02  0.72781240597E+01  0.47736334272E+02  0.74701100664E+02  0.10000000000E+01 0.  0.
    9000005    1    3    3    0    0  0.56987066435E+02 -0.72781240597E+01 -0.43190093714E+01  0.57620748629E+02  0.10000000000E+01 0.  0.
<mgrwt>
<rscale>  0 0.12499603E+03</rscale>
<asrwt>0</asrwt>
<pdfrwt beam="1">  1        4 0.13518398E-01 0.12499603E+03</pdfrwt>
<pdfrwt beam="2">  1       -4 0.68388096E-02 0.12499603E+03</pdfrwt>
<totfact> 0.10295755E+04</totfact>
</mgrwt>
</event>
<event>
 5    1  0.3271306E-002  0.1250053E+03  0.7818608E-02  0.1235061E+00
         -4   -1    0    0    0  501 -0.00000000000E+00  0.00000000000E+00  0.13015740958E+02  0.13077553773E+02  0.12700000000E+01 0.  1.
          4   -1    0    0  501    0  0.00000000000E+00 -0.00000000000E+00 -0.29936876811E+03  0.29937146193E+03  0.12700000000E+01 0.  1.
         25    2    1    2    0    0  0.00000000000E+00  0.00000000000E+00 -0.28635302715E+03  0.31244901570E+03  0.12500532491E+03 0.  0.
    9000005    1    3    3    0    0  0.45696256737E+02 -0.34526077869E+02 -0.20568289195E+03  0.21351030414E+03  0.10000000000E+01 0.  0.
    9000005    1    3    3    0    0 -0.45696256737E+02  0.34526077869E+02 -0.80670135201E+02  0.98938711565E+02  0.10000000000E+01 0.  0.
<mgrwt>
<rscale>  0 0.12500532E+03</rscale>
<asrwt>0</asrwt>
<pdfrwt beam="2">  1        4 0.46061690E-01 0.12500532E+03</pdfrwt>
<pdfrwt beam="1">  1       -4 0.20073840E-02 0.12500532E+03</pdfrwt>
<totfact> 0.74054564E+03</totfact>
</mgrwt>
</event>
<event>
 5    1  0.3271306E-002  0.1249983E+03  0.7818608E-02  0.1235072E+00
          4   -1    0    0  501    0  0.00000000000E+00  0.00000000000E+00  0.62945769801E+02  0.62958580320E+02  0.12700000000E+01 0. -1.
         -4   -1    0    0    0  501 -0.00000000000E+00 -0.00000000000E+00 -0.62030102114E+02  0.62043101698E+02  0.12700000000E+01 0. -1.
         25    2    1    2    0    0  0.00000000000E+00  0.00000000000E+00  0.91566768679E+00  0.12500168202E+03  0.12499832823E+03 0.  0.
    9000005    1    3    3    0    0  0.52115699828E+02  0.33301970515E+02 -0.84910433697E+01  0.62435288309E+02  0.10000000000E+01 0.  0.
    9000005    1    3    3    0    0 -0.52115699828E+02 -0.33301970515E+02  0.94067110565E+01  0.62566393708E+02  0.10000000000E+01 0.  0.
<mgrwt>
<rscale>  0 0.12499833E+03</rscale>
<asrwt>0</asrwt>
<pdfrwt beam="1">  1        4 0.96859499E-02 0.12499833E+03</pdfrwt>
<pdfrwt beam="2">  1       -4 0.95450781E-02 0.12499833E+03</pdfrwt>
<totfact> 0.10453221E+04</totfact>
</mgrwt>
</event>
<event>
 5    1  0.3271306E-002  0.1249913E+03  0.7818608E-02  0.1235083E+00
          4   -1    0    0  501    0  0.00000000000E+00  0.00000000000E+00  0.10141889616E+02  0.10221097054E+02  0.12700000000E+01 0.  1.
         -4   -1    0    0    0  501 -0.00000000000E+00 -0.00000000000E+00 -0.38352796173E+03  0.38353006444E+03  0.12700000000E+01 0.  1.
         25    2    1    2    0    0  0.00000000000E+00  0.00000000000E+00 -0.37338607211E+03  0.39375116149E+03  0.12499127301E+03 0.  0.
    9000005    1    3    3    0    0 -0.60717455922E+02 -0.13324857403E+02 -0.16663438500E+03  0.17785437735E+03  0.10000000000E+01 0.  0.
    9000005    1    3    3    0    0  0.60717455922E+02  0.13324857403E+02 -0.20675168711E+03  0.21589678414E+03  0.10000000000E+01 0.  0.
<mgrwt>
<rscale>  0 0.12499127E+03</rscale>
<asrwt>0</asrwt>
<pdfrwt beam="1">  1        4 0.15665456E-02 0.12499127E+03</pdfrwt>
<pdfrwt beam="2">  1       -4 0.59010545E-01 0.12499127E+03</pdfrwt>
<totfact> 0.65177680E+03</totfact>
</mgrwt>
</event>
<event>
 5    1  0.3271306E-002  0.1250038E+03  0.7818608E-02  0.1235063E+00
         -4   -1    0    0    0  501 -0.00000000000E+00  0.00000000000E+00  0.32095430917E+03  0.32095682183E+03  0.12700000000E+01 0. -1.
          4   -1    0    0  501    0  0.00000000000E+00 -0.00000000000E+00 -0.12135775600E+02  0.12202046936E+02  0.12700000000E+01 0. -1.
         25    2    1    2    0    0  0.00000000000E+00  0.00000000000E+00  0.30881853357E+03  0.33315886876E+03  0.12500378057E+03 0.  0.
    9000005    1    3    3    0    0  0.26243639836E+02 -0.42739611927E+02  0.25377774364E+03  0.25868812541E+03  0.10000000000E+01 0.  0.
    9000005    1    3    3    0    0 -0.26243639836E+02  0.42739611927E+02  0.55040789933E+02  0.74470743355E+02  0.10000000000E+01 0.  0.
<mgrwt>
<rscale>  0 0.12500378E+03</rscale>
<asrwt>0</asrwt>
<pdfrwt beam="2">  1        4 0.18723337E-02 0.12500378E+03</pdfrwt>
<pdfrwt beam="1">  1       -4 0.49382871E-01 0.12500378E+03</pdfrwt>
<totfact> 0.71611915E+03</totfact>
</mgrwt>
</event>
<event>
 4    1  0.3271306E-002  0.1310101E+03  0.7818608E-02  0.1225965E+00
          4   -1    0    0  501    0  0.00000000000E+00  0.00000000000E+00  0.35900351059E+02  0.35922807604E+02  0.12700000000E+01 0. -1.
         -4   -1    0    0    0  501 -0.00000000000E+00 -0.00000000000E+00 -0.11945965114E+03  0.11946640177E+03  0.12700000000E+01 0. -1.
    9000005    1    1    2    0    0 -0.15502464601E+02  0.44181840853E+02  0.12541917846E+02  0.48483617574E+02  0.10000000000E+01 0.  0.
    9000005    1    1    2    0    0  0.15502464601E+02 -0.44181840853E+02 -0.96101217928E+02  0.10690559180E+03  0.10000000000E+01 0.  0.
<mgrwt>
<rscale>  0 0.13101011E+03</rscale>
<asrwt>0</asrwt>
<pdfrwt beam="1">  1        4 0.55253777E-02 0.13101011E+03</pdfrwt>
<pdfrwt beam="2">  1       -4 0.18380654E-01 0.13101011E+03</pdfrwt>
<totfact> 0.86057808E+03</totfact>
</mgrwt>
</event>
<event>
 5    1  0.3271306E-002  0.1250006E+03  0.7818608E-02  0.1235068E+00
         -4   -1    0    0    0  501 -0.00000000000E+00  0.00000000000E+00  0.32453007381E+03  0.32453255878E+03  0.12700000000E+01 0.  1.
          4   -1    0    0  501    0  0.00000000000E+00 -0.00000000000E+00 -0.12000711183E+02  0.12067724263E+02  0.12700000000E+01 0.  1.
         25    2    1    2    0    0  0.00000000000E+00  0.00000000000E+00  0.31252936263E+03  0.33660028304E+03  0.12500059216E+03 0.  0.
    9000005    1    3    3    0    0 -0.23654278908E+02  0.38521672429E+02  0.27245606334E+03  0.27618245891E+03  0.10000000000E+01 0.  0.
    9000005    1    3    3    0    0  0.23654278908E+02 -0.38521672429E+02  0.40073299288E+02  0.60417824135E+02  0.10000000000E+01 0.  0.
<mgrwt>
<rscale>  0 0.12500059E+03</rscale>
<asrwt>0</asrwt>
<pdfrwt beam="2">  1        4 0.18516093E-02 0.12500059E+03</pdfrwt>
<pdfrwt beam="1">  1       -4 0.49933050E-01 0.12500059E+03</pdfrwt>
<totfact> 0.71223353E+03</totfact>
</mgrwt>
</event>
<event>
 5    1  0.3271306E-002  0.1249993E+03  0.7818608E-02  0.1235070E+00
         -4   -1    0    0    0  501 -0.00000000000E+00  0.00000000000E+00  0.73390656856E+02  0.73401644489E+02  0.12700000000E+01 0.  1.
          4   -1    0    0  501    0  0.00000000000E+00 -0.00000000000E+00 -0.53202334041E+02  0.53217490052E+02  0.12700000000E+01 0.  1.
         25    2    1    2    0    0  0.00000000000E+00  0.00000000000E+00  0.20188322815E+02  0.12661913454E+03  0.12499934741E+03 0.  0.
    9000005    1    3    3    0    0  0.50297435367E+02  0.19709585031E+02 -0.21728042374E+02  0.58235792877E+02  0.10000000000E+01 0.  0.
    9000005    1    3    3    0    0 -0.50297435367E+02 -0.19709585031E+02  0.41916365188E+02  0.68383341665E+02  0.10000000000E+01 0.  0.
<mgrwt>
<rscale>  0 0.12499935E+03</rscale>
<asrwt>0</asrwt>
<pdfrwt beam="2">  1        4 0.81869855E-02 0.12499935E+03</pdfrwt>
<pdfrwt beam="1">  1       -4 0.11292881E-01 0.12499935E+03</pdfrwt>
<totfact> 0.10417585E+04</totfact>
</mgrwt>
</event>
<event>
 5    1  0.3271306E-002  0.1249953E+03  0.7818608E-02  0.1235077E+00
          4   -1    0    0  501    0  0.00000000000E+00  0.00000000000E+00  0.27765701547E+02  0.27794731198E+02  0.12700000000E+01 0. -1.
         -4   -1    0    0    0  501 -0.00000000000E+00 -0.00000000000E+00 -0.14057020327E+03  0.14057594015E+03  0.12700000000E+01 0. -1.
         25    2    1    2    0    0  0.00000000000E+00  0.00000000000E+00 -0.11280450173E+03  0.16837067134E+03  0.12499530935E+03 0.  0.
    9000005    1    3    3    0    0 -0.62588912024E+01 -0.58507043774E+02 -0.28060160482E+02  0.65196782869E+02  0.10000000000E+01 0.  0.
    9000005    1    3    3    0    0  0.62588912024E+01  0.58507043774E+02 -0.84744341244E+02  0.10317388848E+03  0.10000000000E+01 0.  0.
<mgrwt>
<rscale>  0 0.12499531E+03</rscale>
<asrwt>0</asrwt>
<pdfrwt beam="1">  1        4 0.42743208E-02 0.12499531E+03</pdfrwt>
<pdfrwt beam="2">  1       -4 0.21628859E-01 0.12499531E+03</pdfrwt>
<totfact> 0.95762908E+03</totfact>
</mgrwt>
</event>
<event>
 5    1  0.3271306E-002  0.1249993E+03  0.7818608E-02  0.1235070E+00
          4   -1    0    0  501    0  0.00000000000E+00  0.00000000000E+00  0.15076617618E+02  0.15130013179E+02  0.12700000000E+01 0.  1.
         -4   -1    0    0    0  501 -0.00000000000E+00 -0.00000000000E+00 -0.25857729719E+03  0.25858041597E+03  0.12700000000E+01 0.  1.
         25    2    1    2    0    0  0.00000000000E+00  0.00000000000E+00 -0.24350067958E+03  0.27371042915E+03  0.12499927229E+03 0.  0.
    9000005    1    3    3    0    0  0.18481519229E+02 -0.27608193977E+01  0.88263649388E+01  0.20690417946E+02  0.10000000000E+01 0.  0.
    9000005    1    3    3    0    0 -0.18481519229E+02  0.27608193977E+01 -0.25232704452E+03  0.25302001121E+03  0.10000000000E+01 0.  0.
<mgrwt>
<rscale>  0 0.12499927E+03</rscale>
<asrwt>0</asrwt>
<pdfrwt beam="1">  1        4 0.23238271E-02 0.12499927E+03</pdfrwt>
<pdfrwt beam="2">  1       -4 0.39785467E-01 0.12499927E+03</pdfrwt>
<totfact> 0.79020796E+03</totfact>
</mgrwt>
</event>
<event>
 5    1  0.3271306E-002  0.1250005E+03  0.7818608E-02  0.1235068E+00
         -4   -1    0    0    0  501 -0.00000000000E+00  0.00000000000E+00  0.64264280780E+02  0.64276828516E+02  0.12700000000E+01 0. -1.
          4   -1    0    0  501    0  0.00000000000E+00 -0.00000000000E+00 -0.60759539580E+02  0.60772810943E+02  0.12700000000E+01 0. -1.
         25    2    1    2    0    0  0.00000000000E+00  0.00000000000E+00  0.35047411998E+01  0.12504963946E+03  0.12500051647E+03 0.  0.
    9000005    1    3    3    0    0 -0.34468514045E+02 -0.16883793726E+02 -0.47583754917E+02  0.61142086021E+02  0.10000000000E+01 0.  0.
    9000005    1    3    3    0    0  0.34468514045E+02  0.16883793726E+02  0.51088496117E+02  0.63907553439E+02  0.10000000000E+01 0.  0.
<mgrwt>
<rscale>  0 0.12500052E+03</rscale>
<asrwt>0</asrwt>
<pdfrwt beam="2">  1        4 0.93496076E-02 0.12500052E+03</pdfrwt>
<pdfrwt beam="1">  1       -4 0.98887984E-02 0.12500052E+03</pdfrwt>
<totfact> 0.10451663E+04</totfact>
</mgrwt>
</event>
<event>
 5    1  0.3271306E-002  0.1249966E+03  0.7818608E-02  0.1235075E+00
         -4   -1    0    0    0  501 -0.00000000000E+00  0.00000000000E+00  0.11374891808E+03  0.11375600759E+03  0.12700000000E+01 0.  1.
          4   -1    0    0  501    0  0.00000000000E+00 -0.00000000000E+00 -0.34319238878E+02  0.34342729320E+02  0.12700000000E+01 0.  1.
         25    2    1    2    0    0  0.00000000000E+00  0.00000000000E+00  0.79429679200E+02  0.14809873691E+03  0.12499664771E+03 0.  0.
    9000005    1    3    3    0    0  0.12221845194E+02  0.26441730570E+02  0.10521846263E+03  0.10918087513E+03  0.10000000000E+01 0.  0.
    9000005    1    3    3    0    0 -0.12221845194E+02 -0.26441730570E+02 -0.25788783428E+02  0.38917861788E+02  0.10000000000E+01 0.  0.
<mgrwt>
<rscale>  0 0.12499665E+03</rscale>
<asrwt>0</asrwt>
<pdfrwt beam="2">  1        4 0.52822352E-02 0.12499665E+03</pdfrwt>
<pdfrwt beam="1">  1       -4 0.17502186E-01 0.12499665E+03</pdfrwt>
<totfact> 0.99691567E+03</totfact>
</mgrwt>
</event>
<event>
 5    1  0.3271306E-002  0.1250030E+03  0.7818608E-02  0.1235065E+00
          4   -1    0    0  501    0  0.00000000000E+00  0.00000000000E+00  0.14326835689E+03  0.14327398573E+03  0.12700000000E+01 0. -1.
         -4   -1    0    0    0  501 -0.00000000000E+00 -0.00000000000E+00 -0.27245621932E+02  0.27275205122E+02  0.12700000000E+01 0. -1.
         25    2    1    2    0    0  0.00000000000E+00  0.00000000000E+00  0.11602273496E+03  0.17054919085E+03  0.12500300585E+03 0.  0.
    9000005    1    3    3    0    0  0.38996639170E+02  0.25043656908E+01 -0.85273193367E+01  0.40009060088E+02  0.10000000000E+01 0.  0.
    9000005    1    3    3    0    0 -0.38996639170E+02 -0.25043656908E+01  0.12455005430E+03  0.13054013077E+03  0.10000000000E+01 0.  0.
<mgrwt>
<rscale>  0 0.12500301E+03</rscale>
<asrwt>0</asrwt>
<pdfrwt beam="1">  1        4 0.22043994E-01 0.12500301E+03</pdfrwt>
<pdfrwt beam="2">  1       -4 0.41943428E-02 0.12500301E+03</pdfrwt>
<totfact> 0.95339941E+03</totfact>
</mgrwt>
</event>
<event>
 5    1  0.3271306E-002  0.1249991E+03  0.7818608E-02  0.1235071E+00
          4   -1    0    0  501    0  0.00000000000E+00  0.00000000000E+00  0.52234720421E+03  0.52234874810E+03  0.12700000000E+01 0. -1.
         -4   -1    0    0    0  501 -0.00000000000E+00 -0.00000000000E+00 -0.74226737605E+01  0.75305368835E+01  0.12700000000E+01 0. -1.
         25    2    1    2    0    0  0.00000000000E+00  0.00000000000E+00  0.51492453045E+03  0.52987928498E+03  0.12499913840E+03 0.  0.
    9000005    1    3    3    0    0 -0.23276770972E+02 -0.26284118984E+02  0.47660721886E+03  0.47789967990E+03  0.10000000000E+01 0.  0.
    9000005    1    3    3    0    0  0.23276770972E+02  0.26284118984E+02  0.38317311585E+02  0.51979605084E+02  0.10000000000E+01 0.  0.
<mgrwt>
<rscale>  0 0.12499914E+03</rscale>
<asrwt>0</asrwt>
<pdfrwt beam="1">  1        4 0.80369567E-01 0.12499914E+03</pdfrwt>
<pdfrwt beam="2">  1       -4 0.11503651E-02 0.12499914E+03</pdfrwt>
<totfact> 0.53619400E+03</totfact>
</mgrwt>
</event>
<event>
 5    1  0.3271306E-002  0.1249980E+03  0.7818608E-02  0.1235072E+00
          4   -1    0    0  501    0  0.00000000000E+00  0.00000000000E+00  0.44682338683E+03  0.44682519167E+03  0.12700000000E+01 0. -1.
         -4   -1    0    0    0  501 -0.00000000000E+00 -0.00000000000E+00 -0.86940279330E+01  0.87862973829E+01  0.12700000000E+01 0. -1.
         25    2    1    2    0    0  0.00000000000E+00  0.00000000000E+00  0.43812935889E+03  0.45561148906E+03  0.12499797533E+03 0.  0.
    9000005    1    3    3    0    0  0.38711453702E+02 -0.48446980484E+02  0.24716554774E+03  0.25482836294E+03  0.10000000000E+01 0.  0.
    9000005    1    3    3    0    0 -0.38711453702E+02  0.48446980484E+02  0.19096381115E+03  0.20078312612E+03  0.10000000000E+01 0.  0.
<mgrwt>
<rscale>  0 0.12499798E+03</rscale>
<asrwt>0</asrwt>
<pdfrwt beam="1">  1        4 0.68749302E-01 0.12499798E+03</pdfrwt>
<pdfrwt beam="2">  1       -4 0.13447791E-02 0.12499798E+03</pdfrwt>
<totfact> 0.59483383E+03</totfact>
</mgrwt>
</event>
<event>
 5    1  0.3271306E-002  0.1250018E+03  0.7818608E-02  0.1235066E+00
         -4   -1    0    0    0  501 -0.00000000000E+00  0.00000000000E+00  0.19578997615E+04  0.19579001734E+04  0.12700000000E+01 0. -1.
          4   -1    0    0  501    0  0.00000000000E+00 -0.00000000000E+00 -0.17926274039E+01  0.21969098773E+01  0.12700000000E+01 0. -1.
         25    2    1    2    0    0  0.00000000000E+00  0.00000000000E+00  0.19561071341E+04  0.19600970833E+04  0.12500182316E+03 0.  0.
    9000005    1    3    3    0    0  0.47808660986E+01 -0.62301040982E+02  0.96170092800E+03  0.96372918981E+03  0.10000000000E+01 0.  0.
    9000005    1    3    3    0    0 -0.47808660986E+01  0.62301040982E+02  0.99440620611E+03  0.99636789347E+03  0.10000000000E+01 0.  0.
<mgrwt>
<rscale>  0 0.12500182E+03</rscale>
<asrwt>0</asrwt>
<pdfrwt beam="2">  1        4 0.30691973E-03 0.12500182E+03</pdfrwt>
<pdfrwt beam="1">  1       -4 0.30124592E+00 0.12500182E+03</pdfrwt>
<totfact> 0.10390781E+03</totfact>
</mgrwt>
</event>
<event>
 5    1  0.3271306E-002  0.1250004E+03  0.7818608E-02  0.1235069E+00
          4   -1    0    0  501    0  0.00000000000E+00  0.00000000000E+00  0.90557702630E+01  0.91443903600E+01  0.12700000000E+01 0. -1.
         -4   -1    0    0    0  501 -0.00000000000E+00 -0.00000000000E+00 -0.42916778755E+03  0.42916966664E+03  0.12700000000E+01 0. -1.
         25    2    1    2    0    0  0.00000000000E+00  0.00000000000E+00 -0.42011201728E+03  0.43831405700E+03  0.12500042201E+03 0.  0.
    9000005    1    3    3    0    0  0.27897842598E+02 -0.15712259829E+02 -0.39823822591E+03  0.39952452904E+03  0.10000000000E+01 0.  0.
    9000005    1    3    3    0    0 -0.27897842598E+02  0.15712259829E+02 -0.21873791377E+02  0.38789527965E+02  0.10000000000E+01 0.  0.
<mgrwt>
<rscale>  0 0.12500042E+03</rscale>
<asrwt>0</asrwt>
<pdfrwt beam="1">  1        4 0.14001572E-02 0.12500042E+03</pdfrwt>
<pdfrwt beam="2">  1       -4 0.66032759E-01 0.12500042E+03</pdfrwt>
<totfact> 0.60988976E+03</totfact>
</mgrwt>
</event>
<event>
 4    1  0.3271306E-002  0.1251156E+03  0.7818608E-02  0.1234889E+00
         -4   -1    0    0    0  501 -0.00000000000E+00  0.00000000000E+00  0.40734045671E+02  0.40753838797E+02  0.12700000000E+01 0. -1.
          4   -1    0    0  501    0  0.00000000000E+00 -0.00000000000E+00 -0.96026553465E+02  0.96034951296E+02  0.12700000000E+01 0. -1.
    9000005    1    1    2    0    0 -0.18612071265E+02  0.21015770756E+02 -0.88757734699E+02  0.93096763028E+02  0.10000000000E+01 0.  0.
    9000005    1    1    2    0    0  0.18612071265E+02 -0.21015770756E+02  0.33465226905E+02  0.43692027065E+02  0.10000000000E+01 0.  0.
<mgrwt>
<rscale>  0 0.12511559E+03</rscale>
<asrwt>0</asrwt>
<pdfrwt beam="2">  1        4 0.14775484E-01 0.12511559E+03</pdfrwt>
<pdfrwt beam="1">  1       -4 0.62689448E-02 0.12511559E+03</pdfrwt>
<totfact> 0.10173963E+04</totfact>
</mgrwt>
</event>
<event>
 5    1  0.3271306E-002  0.1249975E+03  0.7818608E-02  0.1235073E+00
         -4   -1    0    0    0  501 -0.00000000000E+00  0.00000000000E+00  0.62207799871E+01  0.63490947108E+01  0.12700000000E+01 0. -1.
          4   -1    0    0  501    0  0.00000000000E+00 -0.00000000000E+00 -0.62137223417E+03  0.62137353202E+03  0.12700000000E+01 0. -1.
         25    2    1    2    0    0  0.00000000000E+00  0.00000000000E+00 -0.61515145418E+03  0.62772262673E+03  0.12499753809E+03 0.  0.
    9000005    1    3    3    0    0  0.44443726877E+02 -0.21694687062E+02 -0.49940837356E+03  0.50185219725E+03  0.10000000000E+01 0.  0.
    9000005    1    3    3    0    0 -0.44443726877E+02  0.21694687062E+02 -0.11574308062E+03  0.12587042948E+03  0.10000000000E+01 0.  0.
<mgrwt>
<rscale>  0 0.12499754E+03</rscale>
<asrwt>0</asrwt>
<pdfrwt beam="2">  1        4 0.95605649E-01 0.12499754E+03</pdfrwt>
<pdfrwt beam="1">  1       -4 0.96701377E-03 0.12499754E+03</pdfrwt>
<totfact> 0.47165731E+03</totfact>
</mgrwt>
</event>
<event>
 5    1  0.3271306E-002  0.1250008E+03  0.7818608E-02  0.1235068E+00
          4   -1    0    0  501    0  0.00000000000E+00  0.00000000000E+00  0.36661594634E+02  0.36683585173E+02  0.12700000000E+01 0.  1.
         -4   -1    0    0    0  501 -0.00000000000E+00 -0.00000000000E+00 -0.10649250489E+03  0.10650007746E+03  0.12700000000E+01 0.  1.
         25    2    1    2    0    0  0.00000000000E+00  0.00000000000E+00 -0.69830910260E+02  0.14318366263E+03  0.12500082086E+03 0.  0.
    9000005    1    3    3    0    0 -0.97620179592E+01  0.40762763499E+02  0.18177673519E+02  0.45698224224E+02  0.10000000000E+01 0.  0.
    9000005    1    3    3    0    0  0.97620179592E+01 -0.40762763499E+02 -0.88008583778E+02  0.97485438407E+02  0.10000000000E+01 0.  0.
<mgrwt>
<rscale>  0 0.12500082E+03</rscale>
<asrwt>0</asrwt>
<pdfrwt beam="1">  1        4 0.56425195E-02 0.12500082E+03</pdfrwt>
<pdfrwt beam="2">  1       -4 0.16385736E-01 0.12500082E+03</pdfrwt>
<totfact> 0.10067837E+04</totfact>
</mgrwt>
</event>
<event>
 5    1  0.3271306E-002  0.1249996E+03  0.7818608E-02  0.1235070E+00
          4   -1    0    0  501    0  0.00000000000E+00  0.00000000000E+00  0.13315845405E+02  0.13376271485E+02  0.12700000000E+01 0.  1.
         -4   -1    0    0    0  501 -0.00000000000E+00 -0.00000000000E+00 -0.29262578464E+03  0.29262854053E+03  0.12700000000E+01 0.  1.
         25    2    1    2    0    0  0.00000000000E+00  0.00000000000E+00 -0.27930993923E+03  0.30600481202E+03  0.12499961130E+03 0.  0.
    9000005    1    3    3    0    0 -0.41067223160E+02  0.45296922629E+02 -0.10802893412E+03  0.12413532384E+03  0.10000000000E+01 0.  0.
    9000005    1    3    3    0    0  0.41067223160E+02 -0.45296922629E+02 -0.17128100512E+03  0.18186948818E+03  0.10000000000E+01 0.  0.
<mgrwt>
<rscale>  0 0.12499961E+03</rscale>
<asrwt>0</asrwt>
<pdfrwt beam="1">  1        4 0.20534520E-02 0.12499961E+03</pdfrwt>
<pdfrwt beam="2">  1       -4 0.45024207E-01 0.12499961E+03</pdfrwt>
<totfact> 0.74852375E+03</totfact>
</mgrwt>
</event>
<event>
 5    1  0.3271306E-002  0.1250003E+03  0.7818608E-02  0.1235069E+00
          4   -1    0    0  501    0  0.00000000000E+00  0.00000000000E+00  0.79568045240E+02  0.79578179944E+02  0.12700000000E+01 0. -1.
         -4   -1    0    0    0  501 -0.00000000000E+00 -0.00000000000E+00 -0.49071950378E+02  0.49088381659E+02  0.12700000000E+01 0. -1.
         25    2    1    2    0    0  0.00000000000E+00  0.00000000000E+00  0.30496094862E+02  0.12866656160E+03  0.12500028909E+03 0.  0.
    9000005    1    3    3    0    0 -0.22679343173E+02 -0.19766238837E+02  0.71628764686E+02  0.77696439655E+02  0.10000000000E+01 0.  0.
    9000005    1    3    3    0    0  0.22679343173E+02  0.19766238837E+02 -0.41132669825E+02  0.50970121948E+02  0.10000000000E+01 0.  0.
<mgrwt>
<rscale>  0 0.12500029E+03</rscale>
<asrwt>0</asrwt>
<pdfrwt beam="1">  1        4 0.12243281E-01 0.12500029E+03</pdfrwt>
<pdfrwt beam="2">  1       -4 0.75515743E-02 0.12500029E+03</pdfrwt>
<totfact> 0.10373050E+04</totfact>
</mgrwt>
</event>
<event>
 5    1  0.3271306E-002  0.1250090E+03  0.7818608E-02  0.1235055E+00
          4   -1    0    0  501    0  0.00000000000E+00  0.00000000000E+00  0.63599726101E+02  0.63612404924E+02  0.12700000000E+01 0. -1.
         -4   -1    0    0    0  501 -0.00000000000E+00 -0.00000000000E+00 -0.61402734156E+02  0.61415866532E+02  0.12700000000E+01 0. -1.
         25    2    1    2    0    0  0.00000000000E+00  0.00000000000E+00  0.21969919449E+01  0.12502827146E+03  0.12500896724E+03 0.  0.
    9000005    1    3    3    0    0 -0.18886958266E+02 -0.59057471167E+02  0.89296718382E+01  0.62651744847E+02  0.10000000000E+01 0.  0.
    9000005    1    3    3    0    0  0.18886958266E+02  0.59057471167E+02 -0.67326798933E+01  0.62376526609E+02  0.10000000000E+01 0.  0.
<mgrwt>
<rscale>  0 0.12500897E+03</rscale>
<asrwt>0</asrwt>
<pdfrwt beam="1">  1        4 0.97865587E-02 0.12500897E+03</pdfrwt>
<pdfrwt beam="2">  1       -4 0.94485600E-02 0.12500897E+03</pdfrwt>
<totfact> 0.10450130E+04</totfact>
</mgrwt>
</event>
<event>
 5    1  0.3271306E-002  0.1249974E+03  0.7818608E-02  0.1235073E+00
          4   -1    0    0  501    0  0.00000000000E+00  0.00000000000E+00  0.23732421749E+03  0.23732761556E+03  0.12700000000E+01 0. -1.
         -4   -1    0    0    0  501 -0.00000000000E+00 -0.00000000000E+00 -0.16430846827E+02  0.16479855201E+02  0.12700000000E+01 0. -1.
         25    2    1    2    0    0  0.00000000000E+00  0.00000000000E+00  0.22089337066E+03  0.25380747076E+03  0.12499740401E+03 0.  0.
    9000005    1    3    3    0    0  0.37140825017E+02  0.11772672742E+02  0.11241525550E+02  0.40563636463E+02  0.10000000000E+01 0.  0.
    9000005    1    3    3    0    0 -0.37140825017E+02 -0.11772672742E+02  0.20965184511E+03  0.21324383429E+03  0.10000000000E+01 0.  0.
<mgrwt>
<rscale>  0 0.12499740E+03</rscale>
<asrwt>0</asrwt>
<pdfrwt beam="1">  1        4 0.36515448E-01 0.12499740E+03</pdfrwt>
<pdfrwt beam="2">  1       -4 0.25318540E-02 0.12499740E+03</pdfrwt>
<totfact> 0.81787754E+03</totfact>
</mgrwt>
</event>
<event>
 5    1  0.3271306E-002  0.1249939E+03  0.7818608E-02  0.1235079E+00
         -4   -1    0    0    0  501 -0.00000000000E+00  0.00000000000E+00  0.21580087839E+03  0.21580461537E+03  0.12700000000E+01 0. -1.
          4   -1    0    0  501    0  0.00000000000E+00 -0.00000000000E+00 -0.18073224384E+02  0.18117790694E+02  0.12700000000E+01 0. -1.
         25    2    1    2    0    0  0.00000000000E+00  0.00000000000E+00  0.19772765400E+03  0.23392240606E+03  0.12499386744E+03 0.  0.
    9000005    1    3    3    0    0 -0.48588007512E+02  0.37115946502E+02  0.74716862685E+02  0.96550492118E+02  0.10000000000E+01 0.  0.
    9000005    1    3    3    0    0  0.48588007512E+02 -0.37115946502E+02  0.12301079132E+03  0.13737191394E+03  0.10000000000E+01 0.  0.
<mgrwt>
<rscale>  0 0.12499387E+03</rscale>
<asrwt>0</asrwt>
<pdfrwt beam="2">  1        4 0.27842117E-02 0.12499387E+03</pdfrwt>
<pdfrwt beam="1">  1       -4 0.33203851E-01 0.12499387E+03</pdfrwt>
<totfact> 0.84722512E+03</totfact>
</mgrwt>
</event>
<event>
 5    1  0.3271306E-002  0.1249728E+03  0.7818608E-02  0.1235112E+00
          4   -1    0    0  501    0  0.00000000000E+00  0.00000000000E+00  0.86249301417E+03  0.86249394919E+03  0.12700000000E+01 0. -1.
         -4   -1    0    0    0  501 -0.00000000000E+00 -0.00000000000E+00 -0.44370258550E+01  0.46152029682E+01  0.12700000000E+01 0. -1.
         25    2    1    2    0    0  0.00000000000E+00  0.00000000000E+00  0.85805598832E+03  0.86710915216E+03  0.12497280775E+03 0.  0.
    9000005    1    3    3    0    0 -0.31459787928E+02 -0.17824485988E+01  0.80335712887E+03  0.80397547965E+03  0.10000000000E+01 0.  0.
    9000005    1    3    3    0    0  0.31459787928E+02  0.17824485988E+01  0.54698859448E+02  0.63133672508E+02  0.10000000000E+01 0.  0.
<mgrwt>
<rscale>  0 0.12497281E+03</rscale>
<asrwt>0</asrwt>
<pdfrwt beam="1">  1        4 0.13270492E+00 0.12497281E+03</pdfrwt>
<pdfrwt beam="2">  1       -4 0.69639770E-03 0.12497281E+03</pdfrwt>
<totfact> 0.35458321E+03</totfact>
</mgrwt>
</event>
<event>
 5    1  0.3271306E-002  0.1249991E+03  0.7818608E-02  0.1235071E+00
          4   -1    0    0  501    0  0.00000000000E+00  0.00000000000E+00  0.65721562656E+03  0.65721685363E+03  0.12700000000E+01 0.  1.
         -4   -1    0    0    0  501 -0.00000000000E+00 -0.00000000000E+00 -0.58744641431E+01  0.60101771162E+01  0.12700000000E+01 0.  1.
         25    2    1    2    0    0  0.00000000000E+00  0.00000000000E+00  0.65134116242E+03  0.66322703075E+03  0.12499913781E+03 0.  0.
    9000005    1    3    3    0    0 -0.88384444176E+01 -0.52067594206E+02  0.50292447759E+03  0.50569079745E+03  0.10000000000E+01 0.  0.
    9000005    1    3    3    0    0  0.88384444176E+01  0.52067594206E+02  0.14841668483E+03  0.15753623330E+03  0.10000000000E+01 0.  0.
<mgrwt>
<rscale>  0 0.12499914E+03</rscale>
<asrwt>0</asrwt>
<pdfrwt beam="1">  1        4 0.10112058E+00 0.12499914E+03</pdfrwt>
<pdfrwt beam="2">  1       -4 0.91429806E-03 0.12499914E+03</pdfrwt>
<totfact> 0.45101046E+03</totfact>
</mgrwt>
</event>
<event>
 5    1  0.3271306E-002  0.1250073E+03  0.7818608E-02  0.1235058E+00
         -4   -1    0    0    0  501 -0.00000000000E+00  0.00000000000E+00  0.90386032373E+02  0.90394954218E+02  0.12700000000E+01 0. -1.
          4   -1    0    0  501    0  0.00000000000E+00 -0.00000000000E+00 -0.43202045409E+02  0.43220708318E+02  0.12700000000E+01 0. -1.
         25    2    1    2    0    0  0.00000000000E+00  0.00000000000E+00  0.47183986963E+02  0.13361566254E+03  0.12500726639E+03 0.  0.
    9000005    1    3    3    0    0 -0.24698106356E+02  0.27362401980E+02  0.77535248847E+02  0.85856929328E+02  0.10000000000E+01 0.  0.
    9000005    1    3    3    0    0  0.24698106356E+02 -0.27362401980E+02 -0.30351261884E+02  0.47758733208E+02  0.10000000000E+01 0.  0.
<mgrwt>
<rscale>  0 0.12500727E+03</rscale>
<asrwt>0</asrwt>
<pdfrwt beam="2">  1        4 0.66485905E-02 0.12500727E+03</pdfrwt>
<pdfrwt beam="1">  1       -4 0.13907665E-01 0.12500727E+03</pdfrwt>
<totfact> 0.10265650E+04</totfact>
</mgrwt>
</event>
<event>
 5    1  0.3271306E-002  0.1249976E+03  0.7818608E-02  0.1235073E+00
          4   -1    0    0  501    0  0.00000000000E+00  0.00000000000E+00  0.37430983092E+03  0.37431198541E+03  0.12700000000E+01 0. -1.
         -4   -1    0    0    0  501 -0.00000000000E+00 -0.00000000000E+00 -0.10394637328E+02  0.10471933211E+02  0.12700000000E+01 0. -1.
         25    2    1    2    0    0  0.00000000000E+00  0.00000000000E+00  0.36391519359E+03  0.38478391862E+03  0.12499758359E+03 0.  0.
    9000005    1    3    3    0    0  0.62883450059E+01  0.16697998476E+02 -0.24015935356E+01  0.18031474913E+02  0.10000000000E+01 0.  0.
    9000005    1    3    3    0    0 -0.62883450059E+01 -0.16697998476E+02  0.36631678712E+03  0.36675244371E+03  0.10000000000E+01 0.  0.
<mgrwt>
<rscale>  0 0.12499758E+03</rscale>
<asrwt>0</asrwt>
<pdfrwt beam="1">  1        4 0.57592234E-01 0.12499758E+03</pdfrwt>
<pdfrwt beam="2">  1       -4 0.16052867E-02 0.12499758E+03</pdfrwt>
<totfact> 0.66063617E+03</totfact>
</mgrwt>
</event>
<event>
 5    1  0.3271306E-002  0.1250012E+03  0.7818608E-02  0.1235067E+00
          4   -1    0    0  501    0  0.00000000000E+00  0.00000000000E+00  0.44562621008E+01  0.46336995923E+01  0.12700000000E+01 0. -1.
         -4   -1    0    0    0  501 -0.00000000000E+00 -0.00000000000E+00 -0.85930293697E+03  0.85930387546E+03  0.12700000000E+01 0. -1.
         25    2    1    2    0    0  0.00000000000E+00  0.00000000000E+00 -0.85484667487E+03  0.86393757505E+03  0.12500118422E+03 0.  0.
    9000005    1    3    3    0    0  0.26709730776E+02  0.51578443871E+02 -0.58677327890E+03  0.58964194765E+03  0.10000000000E+01 0.  0.
    9000005    1    3    3    0    0 -0.26709730776E+02 -0.51578443871E+02 -0.26807339596E+03  0.27429562740E+03  0.10000000000E+01 0.  0.
<mgrwt>
<rscale>  0 0.12500118E+03</rscale>
<asrwt>0</asrwt>
<pdfrwt beam="1">  1        4 0.69930070E-03 0.12500118E+03</pdfrwt>
<pdfrwt beam="2">  1       -4 0.13221404E+00 0.12500118E+03</pdfrwt>
<totfact> 0.35562790E+03</totfact>
</mgrwt>
</event>
<event>
 5    1  0.3271306E-002  0.1249992E+03  0.7818608E-02  0.1235071E+00
          4   -1    0    0  501    0  0.00000000000E+00  0.00000000000E+00  0.25557189702E+03  0.25557505247E+03  0.12700000000E+01 0.  1.
         -4   -1    0    0    0  501 -0.00000000000E+00 -0.00000000000E+00 -0.15254503555E+02  0.15307278618E+02  0.12700000000E+01 0.  1.
         25    2    1    2    0    0  0.00000000000E+00  0.00000000000E+00  0.24031739346E+03  0.27088233109E+03  0.12499915078E+03 0.  0.
    9000005    1    3    3    0    0  0.35013073986E+02  0.37464611933E+02  0.19755945984E+03  0.20410843361E+03  0.10000000000E+01 0.  0.
    9000005    1    3    3    0    0 -0.35013073986E+02 -0.37464611933E+02  0.42757933623E+02  0.66773897482E+02  0.10000000000E+01 0.  0.
<mgrwt>
<rscale>  0 0.12499915E+03</rscale>
<asrwt>0</asrwt>
<pdfrwt beam="1">  1        4 0.39323053E-01 0.12499915E+03</pdfrwt>
<pdfrwt beam="2">  1       -4 0.23511492E-02 0.12499915E+03</pdfrwt>
<totfact> 0.79404228E+03</totfact>
</mgrwt>
</event>
<event>
 5    1  0.3271306E-002  0.1250001E+03  0.7818608E-02  0.1235069E+00
         -4   -1    0    0    0  501 -0.00000000000E+00  0.00000000000E+00  0.28411231492E+02  0.28439602228E+02  0.12700000000E+01 0. -1.
          4   -1    0    0  501    0  0.00000000000E+00 -0.00000000000E+00 -0.13738998650E+03  0.13739585616E+03  0.12700000000E+01 0. -1.
         25    2    1    2    0    0  0.00000000000E+00  0.00000000000E+00 -0.10897875500E+03  0.16583545839E+03  0.12500012086E+03 0.  0.
    9000005    1    3    3    0    0 -0.61160896285E+02  0.82525957360E+01 -0.67521760379E+02  0.91481958306E+02  0.10000000000E+01 0.  0.
    9000005    1    3    3    0    0  0.61160896285E+02 -0.82525957360E+01 -0.41456994626E+02  0.74353500080E+02  0.10000000000E+01 0.  0.
<mgrwt>
<rscale>  0 0.12500012E+03</rscale>
<asrwt>0</asrwt>
<pdfrwt beam="2">  1        4 0.21139555E-01 0.12500012E+03</pdfrwt>
<pdfrwt beam="1">  1       -4 0.43735926E-02 0.12500012E+03</pdfrwt>
<totfact> 0.96229142E+03</totfact>
</mgrwt>
</event>
<event>
 5    1  0.3271306E-002  0.1250011E+03  0.7818608E-02  0.1235068E+00
         -4   -1    0    0    0  501 -0.00000000000E+00  0.00000000000E+00  0.88494168789E+01  0.89400827231E+01  0.12700000000E+01 0. -1.
          4   -1    0    0  501    0  0.00000000000E+00 -0.00000000000E+00 -0.43907937267E+03  0.43908120935E+03  0.12700000000E+01 0. -1.
         25    2    1    2    0    0  0.00000000000E+00  0.00000000000E+00 -0.43022995579E+03  0.44802129207E+03  0.12500105316E+03 0.  0.
    9000005    1    3    3    0    0 -0.39843744690E+01 -0.40312300985E+02 -0.38566729372E+03  0.38779017303E+03  0.10000000000E+01 0.  0.
    9000005    1    3    3    0    0  0.39843744690E+01  0.40312300985E+02 -0.44562662067E+02  0.60231119043E+02  0.10000000000E+01 0.  0.
<mgrwt>
<rscale>  0 0.12500105E+03</rscale>
<asrwt>0</asrwt>
<pdfrwt beam="2">  1        4 0.67557771E-01 0.12500105E+03</pdfrwt>
<pdfrwt beam="1">  1       -4 0.13685647E-02 0.12500105E+03</pdfrwt>
<totfact> 0.60134206E+03</totfact>
</mgrwt>
</event>
<event>
 5    1  0.3271306E-002  0.1250000E+03  0.7818608E-02  0.1235069E+00
         -4   -1    0    0    0  501 -0.00000000000E+00  0.00000000000E+00  0.38104048636E+02  0.38125207179E+02  0.12700000000E+01 0. -1.
          4   -1    0    0  501    0  0.00000000000E+00 -0.00000000000E+00 -0.10246187474E+03  0.10246974517E+03  0.12700000000E+01 0. -1.
         25    2    1    2    0    0  0.00000000000E+00  0.00000000000E+00 -0.64357826103E+02  0.14059495235E+03  0.12500004338E+03 0.  0.
    9000005    1    3    3    0    0  0.59275993171E+02  0.84224134191E+01 -0.12037483737E+02  0.61077667186E+02  0.10000000000E+01 0.  0.
    9000005    1    3    3    0    0 -0.59275993171E+02 -0.84224134191E+01 -0.52320342366E+02  0.79517285162E+02  0.10000000000E+01 0.  0.
<mgrwt>
<rscale>  0 0.12500004E+03</rscale>
<asrwt>0</asrwt>
<pdfrwt beam="2">  1        4 0.15765598E-01 0.12500004E+03</pdfrwt>
<pdfrwt beam="1">  1       -4 0.58643944E-02 0.12500004E+03</pdfrwt>
<totfact> 0.10121260E+04</totfact>
</mgrwt>
</event>
<event>
 5    1  0.3271306E-002  0.1249982E+03  0.7818608E-02  0.1235072E+00
          4   -1    0    0  501    0  0.00000000000E+00  0.00000000000E+00  0.21713425653E+03  0.21713797056E+03  0.12700000000E+01 0.  1.
         -4   -1    0    0    0  501 -0.00000000000E+00 -0.00000000000E+00 -0.17963206954E+02  0.18008045537E+02  0.12700000000E+01 0.  1.
         25    2    1    2    0    0  0.00000000000E+00  0.00000000000E+00  0.19917104958E+03  0.23514601610E+03  0.12499816757E+03 0.  0.
    9000005    1    3    3    0    0  0.28950671000E+02  0.18474281263E+02  0.13717028146E+01  0.34384909309E+02  0.10000000000E+01 0.  0.
    9000005    1    3    3    0    0 -0.28950671000E+02 -0.18474281263E+02  0.19779934676E+03  0.20076110679E+03  0.10000000000E+01 0.  0.
<mgrwt>
<rscale>  0 0.12499817E+03</rscale>
<asrwt>0</asrwt>
<pdfrwt beam="1">  1        4 0.33409006E-01 0.12499817E+03</pdfrwt>
<pdfrwt beam="2">  1       -4 0.27673051E-02 0.12499817E+03</pdfrwt>
<totfact> 0.84529087E+03</totfact>
</mgrwt>
</event>
<event>
 5    1  0.3271306E-002  0.1249993E+03  0.7818608E-02  0.1235070E+00
          4   -1    0    0  501    0  0.00000000000E+00  0.00000000000E+00  0.18629509644E+03  0.18629942528E+03  0.12700000000E+01 0. -1.
         -4   -1    0    0    0  501 -0.00000000000E+00 -0.00000000000E+00 -0.20944027088E+02  0.20982496769E+02  0.12700000000E+01 0. -1.
         25    2    1    2    0    0  0.00000000000E+00  0.00000000000E+00  0.16535106935E+03  0.20728192204E+03  0.12499927628E+03 0.  0.
    9000005    1    3    3    0    0 -0.12571714714E+02 -0.55294038785E+02  0.39125125755E+02  0.68900320764E+02  0.10000000000E+01 0.  0.
    9000005    1    3    3    0    0  0.12571714714E+02  0.55294038785E+02  0.12622594360E+03  0.13838160128E+03  0.10000000000E+01 0.  0.
<mgrwt>
<rscale>  0 0.12499928E+03</rscale>
<asrwt>0</asrwt>
<pdfrwt beam="1">  1        4 0.28664077E-01 0.12499928E+03</pdfrwt>
<pdfrwt beam="2">  1       -4 0.32254501E-02 0.12499928E+03</pdfrwt>
<totfact> 0.88923149E+03</totfact>
</mgrwt>
</event>
<event>
 5    1  0.3271306E-002  0.1249948E+03  0.7818608E-02  0.1235077E+00
         -4   -1    0    0    0  501 -0.00000000000E+00  0.00000000000E+00  0.16827580049E+03  0.16828059285E+03  0.12700000000E+01 0. -1.
          4   -1    0    0  501    0  0.00000000000E+00 -0.00000000000E+00 -0.23188955300E+02  0.23223706593E+02  0.12700000000E+01 0. -1.
         25    2    1    2    0    0  0.00000000000E+00  0.00000000000E+00  0.14508684519E+03  0.19150429944E+03  0.12499481612E+03 0.  0.
    9000005    1    3    3    0    0 -0.47950181532E+02 -0.18530256186E+02  0.12697788785E+03  0.13699260676E+03  0.10000000000E+01 0.  0.
    9000005    1    3    3    0    0  0.47950181532E+02  0.18530256186E+02  0.18108957335E+02  0.54511692682E+02  0.10000000000E+01 0.  0.
<mgrwt>
<rscale>  0 0.12499482E+03</rscale>
<asrwt>0</asrwt>
<pdfrwt beam="2">  1        4 0.35705733E-02 0.12499482E+03</pdfrwt>
<pdfrwt beam="1">  1       -4 0.25891627E-01 0.12499482E+03</pdfrwt>
<totfact> 0.91596861E+03</totfact>
</mgrwt>
</event>
<event>
 5    1  0.3271306E-002  0.1250012E+03  0.7818608E-02  0.1235067E+00
          4   -1    0    0  501    0  0.00000000000E+00  0.00000000000E+00  0.60378419062E+02  0.60391774178E+02  0.12700000000E+01 0. -1.
         -4   -1    0    0    0  501 -0.00000000000E+00 -0.00000000000E+00 -0.64670626440E+02  0.64683095351E+02  0.12700000000E+01 0. -1.
         25    2    1    2    0    0  0.00000000000E+00  0.00000000000E+00 -0.42922073784E+01  0.12507486953E+03  0.12500119977E+03 0.  0.
    9000005    1    3    3    0    0 -0.22687213397E+02 -0.16939113135E+02 -0.57889634105E+02  0.64450391328E+02  0.10000000000E+01 0.  0.
    9000005    1    3    3    0    0  0.22687213397E+02  0.16939113135E+02  0.53597426726E+02  0.60624478202E+02  0.10000000000E+01 0.  0.
<mgrwt>
<rscale>  0 0.12500120E+03</rscale>
<asrwt>0</asrwt>
<pdfrwt beam="1">  1        4 0.92909740E-02 0.12500120E+03</pdfrwt>
<pdfrwt beam="2">  1       -4 0.99513136E-02 0.12500120E+03</pdfrwt>
<totfact> 0.10450953E+04</totfact>
</mgrwt>
</event>
<event>
 5    1  0.3271306E-002  0.1249978E+03  0.7818608E-02  0.1235073E+00
          4   -1    0    0  501    0  0.00000000000E+00  0.00000000000E+00  0.74691303082E+02  0.74702099408E+02  0.12700000000E+01 0.  1.
         -4   -1    0    0    0  501 -0.00000000000E+00 -0.00000000000E+00 -0.52274482967E+02  0.52289907912E+02  0.12700000000E+01 0.  1.
         25    2    1    2    0    0  0.00000000000E+00  0.00000000000E+00  0.22416820115E+02  0.12699200732E+03  0.12499782438E+03 0.  0.
    9000005    1    3    3    0    0 -0.13950407505E+02 -0.47528316979E+02 -0.27498750713E+02  0.56663357430E+02  0.10000000000E+01 0.  0.
    9000005    1    3    3    0    0  0.13950407505E+02  0.47528316979E+02  0.49915570827E+02  0.70328649891E+02  0.10000000000E+01 0.  0.
<mgrwt>
<rscale>  0 0.12499782E+03</rscale>
<asrwt>0</asrwt>
<pdfrwt beam="1">  1        4 0.11492987E-01 0.12499782E+03</pdfrwt>
<pdfrwt beam="2">  1       -4 0.80442452E-02 0.12499782E+03</pdfrwt>
<totfact> 0.10409831E+04</totfact>
</mgrwt>
</event>
<event>
 5    1  0.3271306E-002  0.1249892E+03  0.7818608E-02  0.1235086E+00
          4   -1    0    0  501    0  0.00000000000E+00  0.00000000000E+00  0.12829742447E+02  0.12892447063E+02  0.12700000000E+01 0.  1.
         -4   -1    0    0    0  501 -0.00000000000E+00 -0.00000000000E+00 -0.30360946706E+03  0.30361212326E+03  0.12700000000E+01 0.  1.
         25    2    1    2    0    0  0.00000000000E+00  0.00000000000E+00 -0.29077972462E+03  0.31650457032E+03  0.12498917868E+03 0.  0.
    9000005    1    3    3    0    0  0.46038516371E+01 -0.61350773034E+02 -0.17306695406E+03  0.18367983936E+03  0.10000000000E+01 0.  0.
    9000005    1    3    3    0    0 -0.46038516371E+01  0.61350773034E+02 -0.11771277056E+03  0.13282473096E+03  0.10000000000E+01 0.  0.
<mgrwt>
<rscale>  0 0.12498918E+03</rscale>
<asrwt>0</asrwt>
<pdfrwt beam="1">  1        4 0.19788345E-02 0.12498918E+03</pdfrwt>
<pdfrwt beam="2">  1       -4 0.46714171E-01 0.12498918E+03</pdfrwt>
<totfact> 0.73591455E+03</totfact>
</mgrwt>
</event>
<event>
 5    1  0.3271306E-002  0.1250527E+03  0.7818608E-02  0.1234987E+00
         -4   -1    0    0    0  501 -0.00000000000E+00  0.00000000000E+00  0.13328880165E+04  0.13328886215E+04  0.12700000000E+01 0. -1.
          4   -1    0    0  501    0  0.00000000000E+00 -0.00000000000E+00 -0.27950336661E+01  0.30700347220E+01  0.12700000000E+01 0. -1.
         25    2    1    2    0    0  0.00000000000E+00  0.00000000000E+00  0.13300929828E+04  0.13359586562E+04  0.12505274189E+03 0.  0.
    9000005    1    3    3    0    0 -0.11967434447E+02  0.58557396604E+02  0.46911635159E+03  0.47290944113E+03  0.10000000000E+01 0.  0.
    9000005    1    3    3    0    0  0.11967434447E+02 -0.58557396604E+02  0.86097663120E+03  0.86304921509E+03  0.10000000000E+01 0.  0.
<mgrwt>
<rscale>  0 0.12505274E+03</rscale>
<asrwt>0</asrwt>
<pdfrwt beam="2">  1        4 0.45120638E-03 0.12505274E+03</pdfrwt>
<pdfrwt beam="1">  1       -4 0.20508056E+00 0.12505274E+03</pdfrwt>
<totfact> 0.21370839E+03</totfact>
</mgrwt>
</event>
<event>
 5    1  0.3271306E-002  0.1249943E+03  0.7818608E-02  0.1235078E+00
          4   -1    0    0  501    0  0.00000000000E+00  0.00000000000E+00  0.15534710072E+03  0.15535229191E+03  0.12700000000E+01 0. -1.
         -4   -1    0    0    0  501 -0.00000000000E+00 -0.00000000000E+00 -0.25121372599E+02  0.25153454261E+02  0.12700000000E+01 0. -1.
         25    2    1    2    0    0  0.00000000000E+00  0.00000000000E+00  0.13022572812E+03  0.18050574617E+03  0.12499433642E+03 0.  0.
    9000005    1    3    3    0    0  0.88608533121E+01  0.45727726197E+02  0.49546363135E+01  0.46851767156E+02  0.10000000000E+01 0.  0.
    9000005    1    3    3    0    0 -0.88608533121E+01 -0.45727726197E+02  0.12527109181E+03  0.13365397902E+03  0.10000000000E+01 0.  0.
<mgrwt>
<rscale>  0 0.12499434E+03</rscale>
<asrwt>0</asrwt>
<pdfrwt beam="1">  1        4 0.23902421E-01 0.12499434E+03</pdfrwt>
<pdfrwt beam="2">  1       -4 0.38676937E-02 0.12499434E+03</pdfrwt>
<totfact> 0.93537923E+03</totfact>
</mgrwt>
</event>
<event>
 5    1  0.3271306E-002  0.1249756E+03  0.7818608E-02  0.1235107E+00
          4   -1    0    0  501    0  0.00000000000E+00  0.00000000000E+00  0.55733509047E+03  0.55733653744E+03  0.12700000000E+01 0. -1.
         -4   -1    0    0    0  501 -0.00000000000E+00 -0.00000000000E+00 -0.69470443111E+01  0.70621756322E+01  0.12700000000E+01 0. -1.
         25    2    1    2    0    0  0.00000000000E+00  0.00000000000E+00  0.55038804616E+03  0.56439871307E+03  0.12497562149E+03 0.  0.
    9000005    1    3    3    0    0  0.57604192152E+02 -0.13727968971E+02  0.36517908212E+03  0.36995062117E+03  0.10000000000E+01 0.  0.
    9000005    1    3    3    0    0 -0.57604192152E+02  0.13727968971E+02  0.18520896404E+03  0.19444809191E+03  0.10000000000E+01 0.  0.
<mgrwt>
<rscale>  0 0.12497562E+03</rscale>
<asrwt>0</asrwt>
<pdfrwt beam="1">  1        4 0.85752843E-01 0.12497562E+03</pdfrwt>
<pdfrwt beam="2">  1       -4 0.10777434E-02 0.12497562E+03</pdfrwt>
<totfact> 0.51222240E+03</totfact>
</mgrwt>
</event>
<event>
 5    1  0.3271306E-002  0.1249882E+03  0.7818608E-02  0.1235088E+00
         -4   -1    0    0    0  501 -0.00000000000E+00  0.00000000000E+00  0.11601596517E+03  0.11602291616E+03  0.12700000000E+01 0.  1.
          4   -1    0    0  501    0  0.00000000000E+00 -0.00000000000E+00 -0.33643659642E+02  0.33667621451E+02  0.12700000000E+01 0.  1.
         25    2    1    2    0    0  0.00000000000E+00  0.00000000000E+00  0.82372305525E+02  0.14969053761E+03  0.12498824077E+03 0.  0.
    9000005    1    3    3    0    0  0.46079223256E+02  0.11956146259E+02  0.89661177856E+02  0.10152029878E+03  0.10000000000E+01 0.  0.
    9000005    1    3    3    0    0 -0.46079223256E+02 -0.11956146259E+02 -0.72888723309E+01  0.48170238831E+02  0.10000000000E+01 0.  0.
<mgrwt>
<rscale>  0 0.12498824E+03</rscale>
<asrwt>0</asrwt>
<pdfrwt beam="2">  1        4 0.51783257E-02 0.12498824E+03</pdfrwt>
<pdfrwt beam="1">  1       -4 0.17850987E-01 0.12498824E+03</pdfrwt>
<totfact> 0.99391723E+03</totfact>
</mgrwt>
</event>
<event>
 5    1  0.3271306E-002  0.1249914E+03  0.7818608E-02  0.1235083E+00
          4   -1    0    0  501    0  0.00000000000E+00  0.00000000000E+00  0.77203930228E+02  0.77214375233E+02  0.12700000000E+01 0.  1.
         -4   -1    0    0    0  501 -0.00000000000E+00 -0.00000000000E+00 -0.50567687280E+02  0.50583632697E+02  0.12700000000E+01 0.  1.
         25    2    1    2    0    0  0.00000000000E+00  0.00000000000E+00  0.26636242948E+02  0.12779800793E+03  0.12499136527E+03 0.  0.
    9000005    1    3    3    0    0 -0.47681205372E+02  0.17004790465E+02 -0.24138485787E+02  0.56092127260E+02  0.10000000000E+01 0.  0.
    9000005    1    3    3    0    0  0.47681205372E+02 -0.17004790465E+02  0.50774728735E+02  0.71705880670E+02  0.10000000000E+01 0.  0.
<mgrwt>
<rscale>  0 0.12499137E+03</rscale>
<asrwt>0</asrwt>
<pdfrwt beam="1">  1        4 0.11879558E-01 0.12499137E+03</pdfrwt>
<pdfrwt beam="2">  1       -4 0.77816743E-02 0.12499137E+03</pdfrwt>
<totfact> 0.10393878E+04</totfact>
</mgrwt>
</event>
<event>
 5    1  0.3271306E-002  0.1249978E+03  0.7818608E-02  0.1235073E+00
          4   -1    0    0  501    0  0.00000000000E+00  0.00000000000E+00  0.93827634560E+01  0.94683235090E+01  0.12700000000E+01 0. -1.
         -4   -1    0    0    0  501 -0.00000000000E+00 -0.00000000000E+00 -0.41433090527E+03  0.41433285165E+03  0.12700000000E+01 0. -1.
         25    2    1    2    0    0  0.00000000000E+00  0.00000000000E+00 -0.40494814181E+03  0.42380117516E+03  0.12499775403E+03 0.  0.
    9000005    1    3    3    0    0  0.43765049915E+02  0.40271700166E+02 -0.13744062548E+03  0.14976019151E+03  0.10000000000E+01 0.  0.
    9000005    1    3    3    0    0 -0.43765049915E+02 -0.40271700166E+02 -0.26750751634E+03  0.27404098366E+03  0.10000000000E+01 0.  0.
<mgrwt>
<rscale>  0 0.12499775E+03</rscale>
<asrwt>0</asrwt>
<pdfrwt beam="1">  1        4 0.14502337E-02 0.12499775E+03</pdfrwt>
<pdfrwt beam="2">  1       -4 0.63749933E-01 0.12499775E+03</pdfrwt>
<totfact> 0.62305017E+03</totfact>
</mgrwt>
</event>
<event>
 5    1  0.3271306E-002  0.1249902E+03  0.7818608E-02  0.1235085E+00
         -4   -1    0    0    0  501 -0.00000000000E+00  0.00000000000E+00  0.14464326522E+02  0.14519973889E+02  0.12700000000E+01 0. -1.
          4   -1    0    0  501    0  0.00000000000E+00 -0.00000000000E+00 -0.26944305332E+03  0.26944604633E+03  0.12700000000E+01 0. -1.
         25    2    1    2    0    0  0.00000000000E+00  0.00000000000E+00 -0.25497872680E+03  0.28396602022E+03  0.12499019769E+03 0.  0.
    9000005    1    3    3    0    0 -0.27234494054E+02  0.49562046084E+02 -0.18787778309E+03  0.19620697097E+03  0.10000000000E+01 0.  0.
    9000005    1    3    3    0    0  0.27234494054E+02 -0.49562046084E+02 -0.67100943708E+02  0.87759049248E+02  0.10000000000E+01 0.  0.
<mgrwt>
<rscale>  0 0.12499020E+03</rscale>
<asrwt>0</asrwt>
<pdfrwt beam="2">  1        4 0.41457285E-01 0.12499020E+03</pdfrwt>
<pdfrwt beam="1">  1       -4 0.22297920E-02 0.12499020E+03</pdfrwt>
<totfact> 0.77672082E+03</totfact>
</mgrwt>
</event>
<event>
 5    1  0.3271306E-002  0.1250032E+03  0.7818608E-02  0.1235064E+00
         -4   -1    0    0    0  501 -0.00000000000E+00  0.00000000000E+00  0.81188874082E+03  0.81188973412E+03  0.12700000000E+01 0.  1.
          4   -1    0    0  501    0  0.00000000000E+00 -0.00000000000E+00 -0.47267404848E+01  0.48943820458E+01  0.12700000000E+01 0.  1.
         25    2    1    2    0    0  0.00000000000E+00  0.00000000000E+00  0.80716200034E+03  0.81678411617E+03  0.12500319051E+03 0.  0.
    9000005    1    3    3    0    0 -0.30384369063E+02 -0.10552594934E+02  0.75368242399E+03  0.75436911613E+03  0.10000000000E+01 0.  0.
    9000005    1    3    3    0    0  0.30384369063E+02  0.10552594934E+02  0.53479576349E+02  0.62415000037E+02  0.10000000000E+01 0.  0.
<mgrwt>
<rscale>  0 0.12500319E+03</rscale>
<asrwt>0</asrwt>
<pdfrwt beam="2">  1        4 0.74016343E-03 0.12500319E+03</pdfrwt>
<pdfrwt beam="1">  1       -4 0.12491882E+00 0.12500319E+03</pdfrwt>
<totfact> 0.37523752E+03</totfact>
</mgrwt>
</event>
<event>
 5    1  0.3271306E-002  0.1249998E+03  0.7818608E-02  0.1235070E+00
         -4   -1    0    0    0  501 -0.00000000000E+00  0.00000000000E+00  0.43613775843E+02  0.43632262642E+02  0.12700000000E+01 0. -1.
          4   -1    0    0  501    0  0.00000000000E+00 -0.00000000000E+00 -0.89522378597E+02  0.89531386506E+02  0.12700000000E+01 0. -1.
         25    2    1    2    0    0  0.00000000000E+00  0.00000000000E+00 -0.45908602754E+02  0.13316364915E+03  0.12499983059E+03 0.  0.
    9000005    1    3    3    0    0 -0.46092467897E+02  0.26079380336E+02 -0.58296128049E+02  0.78766034692E+02  0.10000000000E+01 0.  0.
    9000005    1    3    3    0    0  0.46092467897E+02 -0.26079380336E+02  0.12387525295E+02  0.54397614456E+02  0.10000000000E+01 0.  0.
<mgrwt>
<rscale>  0 0.12499983E+03</rscale>
<asrwt>0</asrwt>
<pdfrwt beam="2">  1        4 0.13774789E-01 0.12499983E+03</pdfrwt>
<pdfrwt beam="1">  1       -4 0.67119267E-02 0.12499983E+03</pdfrwt>
<totfact> 0.10276962E+04</totfact>
</mgrwt>
</event>
<event>
 5    1  0.3271306E-002  0.1250058E+03  0.7818608E-02  0.1235060E+00
          4   -1    0    0  501    0  0.00000000000E+00  0.00000000000E+00  0.36916174730E+01  0.39039645961E+01  0.12700000000E+01 0. -1.
         -4   -1    0    0    0  501 -0.00000000000E+00 -0.00000000000E+00 -0.10284406032E+04  0.10284413873E+04  0.12700000000E+01 0. -1.
         25    2    1    2    0    0  0.00000000000E+00  0.00000000000E+00 -0.10247489857E+04  0.10323453519E+04  0.12500576759E+03 0.  0.
    9000005    1    3    3    0    0 -0.18296645826E+02 -0.35647595142E+01 -0.10049878807E+04  0.10051612384E+04  0.10000000000E+01 0.  0.
    9000005    1    3    3    0    0  0.18296645826E+02  0.35647595142E+01 -0.19761105009E+02  0.27184113560E+02  0.10000000000E+01 0.  0.
<mgrwt>
<rscale>  0 0.12500577E+03</rscale>
<asrwt>0</asrwt>
<pdfrwt beam="1">  1        4 0.58433668E-03 0.12500577E+03</pdfrwt>
<pdfrwt beam="2">  1       -4 0.15823780E+00 0.12500577E+03</pdfrwt>
<totfact> 0.29548807E+03</totfact>
</mgrwt>
</event>
<event>
 5    1  0.3271306E-002  0.1249977E+03  0.7818608E-02  0.1235073E+00
          4   -1    0    0  501    0  0.00000000000E+00  0.00000000000E+00  0.65827500243E+02  0.65839750062E+02  0.12700000000E+01 0. -1.
         -4   -1    0    0    0  501 -0.00000000000E+00 -0.00000000000E+00 -0.59313936857E+02  0.59327531597E+02  0.12700000000E+01 0. -1.
         25    2    1    2    0    0  0.00000000000E+00  0.00000000000E+00  0.65135633863E+01  0.12516728166E+03  0.12499768754E+03 0.  0.
    9000005    1    3    3    0    0 -0.14000554252E+02  0.53989127824E+02  0.31477709603E+02  0.64052225913E+02  0.10000000000E+01 0.  0.
    9000005    1    3    3    0    0  0.14000554252E+02 -0.53989127824E+02 -0.24964146217E+02  0.61115055746E+02  0.10000000000E+01 0.  0.
<mgrwt>
<rscale>  0 0.12499769E+03</rscale>
<asrwt>0</asrwt>
<pdfrwt beam="1">  1        4 0.10129296E-01 0.12499769E+03</pdfrwt>
<pdfrwt beam="2">  1       -4 0.91272091E-02 0.12499769E+03</pdfrwt>
<totfact> 0.10449776E+04</totfact>
</mgrwt>
</event>
<event>
 5    1  0.3271306E-002  0.1249975E+03  0.7818608E-02  0.1235073E+00
          4   -1    0    0  501    0  0.00000000000E+00  0.00000000000E+00  0.34681444987E+01  0.36933624604E+01  0.12700000000E+01 0. -1.
         -4   -1    0    0    0  501 -0.00000000000E+00 -0.00000000000E+00 -0.10906327410E+04  0.10906334804E+04  0.12700000000E+01 0. -1.
         25    2    1    2    0    0  0.00000000000E+00  0.00000000000E+00 -0.10871645965E+04  0.10943268429E+04  0.12499751674E+03 0.  0.
    9000005    1    3    3    0    0  0.94210142848E+01 -0.12929396295E+02 -0.10724447267E+04  0.10725645046E+04  0.10000000000E+01 0.  0.
    9000005    1    3    3    0    0 -0.94210142848E+01  0.12929396295E+02 -0.14719869777E+02  0.21762338223E+02  0.10000000000E+01 0.  0.
<mgrwt>
<rscale>  0 0.12499752E+03</rscale>
<asrwt>0</asrwt>
<pdfrwt beam="1">  1        4 0.55094290E-03 0.12499752E+03</pdfrwt>
<pdfrwt beam="2">  1       -4 0.16780677E+00 0.12499752E+03</pdfrwt>
<totfact> 0.27651566E+03</totfact>
</mgrwt>
</event>
<event>
 5    1  0.3271306E-002  0.1249997E+03  0.7818608E-02  0.1235070E+00
         -4   -1    0    0    0  501 -0.00000000000E+00  0.00000000000E+00  0.11746276724E+03  0.11746963262E+03  0.12700000000E+01 0.  1.
          4   -1    0    0  501    0  0.00000000000E+00 -0.00000000000E+00 -0.33235116241E+02  0.33259372387E+02  0.12700000000E+01 0.  1.
         25    2    1    2    0    0  0.00000000000E+00  0.00000000000E+00  0.84227651000E+02  0.15072900501E+03  0.12499974303E+03 0.  0.
    9000005    1    3    3    0    0  0.31924455368E+02 -0.51441436493E+02  0.23439279206E+02  0.64929130972E+02  0.10000000000E+01 0.  0.
    9000005    1    3    3    0    0 -0.31924455368E+02  0.51441436493E+02  0.60788371795E+02  0.85799874036E+02  0.10000000000E+01 0.  0.
<mgrwt>
<rscale>  0 0.12499974E+03</rscale>
<asrwt>0</asrwt>
<pdfrwt beam="2">  1        4 0.51154887E-02 0.12499974E+03</pdfrwt>
<pdfrwt beam="1">  1       -4 0.18073589E-01 0.12499974E+03</pdfrwt>
<totfact> 0.99159153E+03</totfact>
</mgrwt>
</event>
<event>
 5    1  0.3271306E-002  0.1249991E+03  0.7818608E-02  0.1235071E+00
         -4   -1    0    0    0  501 -0.00000000000E+00  0.00000000000E+00  0.16164433450E+02  0.16214247092E+02  0.12700000000E+01 0. -1.
          4   -1    0    0  501    0  0.00000000000E+00 -0.00000000000E+00 -0.24123038752E+03  0.24123373056E+03  0.12700000000E+01 0. -1.
         25    2    1    2    0    0  0.00000000000E+00  0.00000000000E+00 -0.22506595407E+03  0.25744797766E+03  0.12499911007E+03 0.  0.
    9000005    1    3    3    0    0  0.62147775110E+02  0.33973001691E+00 -0.12599667365E+03  0.14049421033E+03  0.10000000000E+01 0.  0.
    9000005    1    3    3    0    0 -0.62147775110E+02 -0.33973001691E+00 -0.99069280422E+02  0.11695376732E+03  0.10000000000E+01 0.  0.
<mgrwt>
<rscale>  0 0.12499911E+03</rscale>
<asrwt>0</asrwt>
<pdfrwt beam="2">  1        4 0.37116454E-01 0.12499911E+03</pdfrwt>
<pdfrwt beam="1">  1       -4 0.24909251E-02 0.12499911E+03</pdfrwt>
<totfact> 0.81267151E+03</totfact>
</mgrwt>
</event>
<event>
 5    1  0.3271306E-002  0.1250132E+03  0.7818608E-02  0.1235049E+00
         -4   -1    0    0    0  501 -0.00000000000E+00  0.00000000000E+00  0.26824114201E+02  0.26854161738E+02  0.12700000000E+01 0. -1.
          4   -1    0    0  501    0  0.00000000000E+00 -0.00000000000E+00 -0.14554103047E+03  0.14554657142E+03  0.12700000000E+01 0. -1.
         25    2    1    2    0    0  0.00000000000E+00  0.00000000000E+00 -0.11871691627E+03  0.17240073315E+03  0.12501322563E+03 0.  0.
    9000005    1    3    3    0    0 -0.24520163554E+02  0.18061168861E+02  0.15906288185E+02  0.34372288913E+02  0.10000000000E+01 0.  0.
    9000005    1    3    3    0    0  0.24520163554E+02 -0.18061168861E+02 -0.13462320446E+03  0.13802844424E+03  0.10000000000E+01 0.  0.
<mgrwt>
<rscale>  0 0.12501323E+03</rscale>
<asrwt>0</asrwt>
<pdfrwt beam="2">  1        4 0.22393665E-01 0.12501323E+03</pdfrwt>
<pdfrwt beam="1">  1       -4 0.41295245E-02 0.12501323E+03</pdfrwt>
<totfact> 0.94974869E+03</totfact>
</mgrwt>
</event>
<event>
 5    1  0.3271306E-002  0.1249958E+03  0.7818608E-02  0.1235076E+00
          4   -1    0    0  501    0  0.00000000000E+00  0.00000000000E+00  0.27580101335E+02  0.27609326136E+02  0.12700000000E+01 0.  1.
         -4   -1    0    0    0  501 -0.00000000000E+00 -0.00000000000E+00 -0.14151626958E+03  0.14152196811E+03  0.12700000000E+01 0.  1.
         25    2    1    2    0    0  0.00000000000E+00  0.00000000000E+00 -0.11393616825E+03  0.16913129424E+03  0.12499577696E+03 0.  0.
    9000005    1    3    3    0    0 -0.19775186421E+02 -0.53258735878E+02 -0.21750262829E+02  0.60840980256E+02  0.10000000000E+01 0.  0.
    9000005    1    3    3    0    0  0.19775186421E+02  0.53258735878E+02 -0.92185905417E+02  0.10829031398E+03  0.10000000000E+01 0.  0.
<mgrwt>
<rscale>  0 0.12499578E+03</rscale>
<asrwt>0</asrwt>
<pdfrwt beam="1">  1        4 0.42457790E-02 0.12499578E+03</pdfrwt>
<pdfrwt beam="2">  1       -4 0.21774420E-01 0.12499578E+03</pdfrwt>
<totfact> 0.95619728E+03</totfact>
</mgrwt>
</event>
<event>
 5    1  0.3271306E-002  0.1249996E+03  0.7818608E-02  0.1235070E+00
          4   -1    0    0  501    0  0.00000000000E+00  0.00000000000E+00  0.30988708317E+02  0.31014721394E+02  0.12700000000E+01 0. -1.
         -4   -1    0    0    0  501 -0.00000000000E+00 -0.00000000000E+00 -0.12597098388E+03  0.12597738559E+03  0.12700000000E+01 0. -1.
         25    2    1    2    0    0  0.00000000000E+00  0.00000000000E+00 -0.94982275561E+02  0.15699210698E+03  0.12499955593E+03 0.  0.
    9000005    1    3    3    0    0 -0.15661070874E+02 -0.39694715621E+02 -0.10482981310E+03  0.11318670110E+03  0.10000000000E+01 0.  0.
    9000005    1    3    3    0    0  0.15661070874E+02  0.39694715621E+02  0.98475375437E+01  0.43805405886E+02  0.10000000000E+01 0.  0.
<mgrwt>
<rscale>  0 0.12499956E+03</rscale>
<asrwt>0</asrwt>
<pdfrwt beam="1">  1        4 0.47699871E-02 0.12499956E+03</pdfrwt>
<pdfrwt beam="2">  1       -4 0.19382645E-01 0.12499956E+03</pdfrwt>
<totfact> 0.97926815E+03</totfact>
</mgrwt>
</event>
<event>
 5    1  0.3271306E-002  0.1250053E+03  0.7818608E-02  0.1235061E+00
         -4   -1    0    0    0  501 -0.00000000000E+00  0.00000000000E+00  0.27709630855E+03  0.27709921889E+03  0.12700000000E+01 0.  1.
          4   -1    0    0  501    0  0.00000000000E+00 -0.00000000000E+00 -0.14066682380E+02  0.14123896529E+02  0.12700000000E+01 0.  1.
         25    2    1    2    0    0  0.00000000000E+00  0.00000000000E+00  0.26302962617E+03  0.29122311542E+03  0.12500527474E+03 0.  0.
    9000005    1    3    3    0    0  0.60251480248E+02 -0.15147600617E+02  0.14729644139E+03  0.15986535686E+03  0.10000000000E+01 0.  0.
    9000005    1    3    3    0    0 -0.60251480248E+02  0.15147600617E+02  0.11573318478E+03  0.13135775856E+03  0.10000000000E+01 0.  0.
<mgrwt>
<rscale>  0 0.12500527E+03</rscale>
<asrwt>0</asrwt>
<pdfrwt beam="2">  1        4 0.21687302E-02 0.12500527E+03</pdfrwt>
<pdfrwt beam="1">  1       -4 0.42634822E-01 0.12500527E+03</pdfrwt>
<totfact> 0.76704167E+03</totfact>
</mgrwt>
</event>
<event>
 5    1  0.3271306E-002  0.1249980E+03  0.7818608E-02  0.1235072E+00
         -4   -1    0    0    0  501 -0.00000000000E+00  0.00000000000E+00  0.17408320991E+03  0.17408784240E+03  0.12700000000E+01 0. -1.
          4   -1    0    0  501    0  0.00000000000E+00 -0.00000000000E+00 -0.22415351986E+02  0.22451300734E+02  0.12700000000E+01 0. -1.
         25    2    1    2    0    0  0.00000000000E+00  0.00000000000E+00  0.15166785792E+03  0.19653914313E+03  0.12499798261E+03 0.  0.
    9000005    1    3    3    0    0 -0.61934317293E+01  0.51561329607E+02  0.13048699122E+03  0.14044495073E+03  0.10000000000E+01 0.  0.
    9000005    1    3    3    0    0  0.61934317293E+01 -0.51561329607E+02  0.21180866701E+02  0.56094192405E+02  0.10000000000E+01 0.  0.
<mgrwt>
<rscale>  0 0.12499798E+03</rscale>
<asrwt>0</asrwt>
<pdfrwt beam="2">  1        4 0.34516372E-02 0.12499798E+03</pdfrwt>
<pdfrwt beam="1">  1       -4 0.26785155E-01 0.12499798E+03</pdfrwt>
<totfact> 0.90725905E+03</totfact>
</mgrwt>
</event>
<event>
 5    1  0.3271306E-002  0.1250014E+03  0.7818608E-02  0.1235067E+00
          4   -1    0    0  501    0  0.00000000000E+00  0.00000000000E+00  0.86718387763E+02  0.86727686906E+02  0.12700000000E+01 0. -1.
         -4   -1    0    0    0  501 -0.00000000000E+00 -0.00000000000E+00 -0.45025591589E+02  0.45043498954E+02  0.12700000000E+01 0. -1.
         25    2    1    2    0    0  0.00000000000E+00  0.00000000000E+00  0.41692796173E+02  0.13177118586E+03  0.12500142467E+03 0.  0.
    9000005    1    3    3    0    0 -0.65134626106E+01 -0.59906459145E+02  0.33928480789E+01  0.60363237658E+02  0.10000000000E+01 0.  0.
    9000005    1    3    3    0    0  0.65134626106E+01  0.59906459145E+02  0.38299948094E+02  0.71407948202E+02  0.10000000000E+01 0.  0.
<mgrwt>
<rscale>  0 0.12500142E+03</rscale>
<asrwt>0</asrwt>
<pdfrwt beam="1">  1        4 0.13343383E-01 0.12500142E+03</pdfrwt>
<pdfrwt beam="2">  1       -4 0.69291069E-02 0.12500142E+03</pdfrwt>
<totfact> 0.10306253E+04</totfact>
</mgrwt>
</event>
<event>
 5    1  0.3271306E-002  0.1250032E+03  0.7818608E-02  0.1235064E+00
          4   -1    0    0  501    0  0.00000000000E+00  0.00000000000E+00  0.64145749644E+01  0.65390880078E+01  0.12700000000E+01 0. -1.
         -4   -1    0    0    0  501 -0.00000000000E+00 -0.00000000000E+00 -0.60301727750E+03  0.60301861485E+03  0.12700000000E+01 0. -1.
         25    2    1    2    0    0  0.00000000000E+00  0.00000000000E+00 -0.59660270253E+03  0.60955770286E+03  0.12500323375E+03 0.  0.
    9000005    1    3    3    0    0  0.71315786072E+01 -0.52998836113E+02 -0.45599001268E+03  0.45911613750E+03  0.10000000000E+01 0.  0.
    9000005    1    3    3    0    0 -0.71315786072E+01  0.52998836113E+02 -0.14061268985E+03  0.15044156537E+03  0.10000000000E+01 0.  0.
<mgrwt>
<rscale>  0 0.12500323E+03</rscale>
<asrwt>0</asrwt>
<pdfrwt beam="1">  1        4 0.99653896E-03 0.12500323E+03</pdfrwt>
<pdfrwt beam="2">  1       -4 0.92781525E-01 0.12500323E+03</pdfrwt>
<totfact> 0.48266401E+03</totfact>
</mgrwt>
</event>
<event>
 5    1  0.3271306E-002  0.1249941E+03  0.7818608E-02  0.1235078E+00
          4   -1    0    0  501    0  0.00000000000E+00  0.00000000000E+00  0.14449008242E+02  0.14504714378E+02  0.12700000000E+01 0.  1.
         -4   -1    0    0    0  501 -0.00000000000E+00 -0.00000000000E+00 -0.26974457511E+03  0.26974756477E+03  0.12700000000E+01 0.  1.
         25    2    1    2    0    0  0.00000000000E+00  0.00000000000E+00 -0.25529556687E+03  0.28425227915E+03  0.12499412682E+03 0.  0.
    9000005    1    3    3    0    0 -0.46014030540E+02 -0.15856961344E+02 -0.38516332116E+02  0.62074488071E+02  0.10000000000E+01 0.  0.
    9000005    1    3    3    0    0  0.46014030540E+02  0.15856961344E+02 -0.21677923475E+03  0.22217779108E+03  0.10000000000E+01 0.  0.
<mgrwt>
<rscale>  0 0.12499413E+03</rscale>
<asrwt>0</asrwt>
<pdfrwt beam="1">  1        4 0.22274396E-02 0.12499413E+03</pdfrwt>
<pdfrwt beam="2">  1       -4 0.41503677E-01 0.12499413E+03</pdfrwt>
<totfact> 0.77627774E+03</totfact>
</mgrwt>
</event>
<event>
 5    1  0.3271306E-002  0.1250012E+03  0.7818608E-02  0.1235067E+00
          4   -1    0    0  501    0  0.00000000000E+00  0.00000000000E+00  0.23353701756E+04  0.23353705209E+04  0.12700000000E+01 0. -1.
         -4   -1    0    0    0  501 -0.00000000000E+00 -0.00000000000E+00 -0.14312183657E+01  0.19134487216E+01  0.12700000000E+01 0. -1.
         25    2    1    2    0    0  0.00000000000E+00  0.00000000000E+00  0.23339389572E+04  0.23372839697E+04  0.12500119459E+03 0.  0.
    9000005    1    3    3    0    0 -0.21142446474E+02  0.56525196749E+02  0.86360840383E+03  0.86571506633E+03  0.10000000000E+01 0.  0.
    9000005    1    3    3    0    0  0.21142446474E+02 -0.56525196749E+02  0.14703305534E+04  0.14715689033E+04  0.10000000000E+01 0.  0.
<mgrwt>
<rscale>  0 0.12500119E+03</rscale>
<asrwt>0</asrwt>
<pdfrwt beam="1">  1        4 0.35932578E+00 0.12500119E+03</pdfrwt>
<pdfrwt beam="2">  1       -4 0.25730797E-03 0.12500119E+03</pdfrwt>
<totfact> 0.60764299E+02</totfact>
</mgrwt>
</event>
<event>
 5    1  0.3271306E-002  0.1250003E+03  0.7818608E-02  0.1235069E+00
         -4   -1    0    0    0  501 -0.00000000000E+00  0.00000000000E+00  0.36349789658E+02  0.36371968715E+02  0.12700000000E+01 0.  1.
          4   -1    0    0  501    0  0.00000000000E+00 -0.00000000000E+00 -0.10740455320E+03  0.10741206147E+03  0.12700000000E+01 0.  1.
         25    2    1    2    0    0  0.00000000000E+00  0.00000000000E+00 -0.71054763546E+02  0.14378403018E+03  0.12500027165E+03 0.  0.
    9000005    1    3    3    0    0 -0.34697231086E+01 -0.41579410364E+02 -0.89041270997E+02  0.98337349392E+02  0.10000000000E+01 0.  0.
    9000005    1    3    3    0    0  0.34697231086E+01  0.41579410364E+02  0.17986507451E+02  0.45446680792E+02  0.10000000000E+01 0.  0.
<mgrwt>
<rscale>  0 0.12500027E+03</rscale>
<asrwt>0</asrwt>
<pdfrwt beam="2">  1        4 0.16526061E-01 0.12500027E+03</pdfrwt>
<pdfrwt beam="1">  1       -4 0.55945590E-02 0.12500027E+03</pdfrwt>
<totfact> 0.10055691E+04</totfact>
</mgrwt>
</event>
<event>
 5    1  0.3271306E-002  0.1249980E+03  0.7818608E-02  0.1235072E+00
          4   -1    0    0  501    0  0.00000000000E+00  0.00000000000E+00  0.11947130402E+03  0.11947805399E+03  0.12700000000E+01 0. -1.
         -4   -1    0    0    0  501 -0.00000000000E+00 -0.00000000000E+00 -0.32675068644E+02  0.32699740226E+02  0.12700000000E+01 0. -1.
         25    2    1    2    0    0  0.00000000000E+00  0.00000000000E+00  0.86796235381E+02  0.15217779422E+03  0.12499797829E+03 0.  0.
    9000005    1    3    3    0    0  0.14709174259E+02  0.47470941741E+02 -0.27246790066E+01  0.49782265847E+02  0.10000000000E+01 0.  0.
    9000005    1    3    3    0    0 -0.14709174259E+02 -0.47470941741E+02  0.89520914387E+02  0.10239552837E+03  0.10000000000E+01 0.  0.
<mgrwt>
<rscale>  0 0.12499798E+03</rscale>
<asrwt>0</asrwt>
<pdfrwt beam="1">  1        4 0.18382617E-01 0.12499798E+03</pdfrwt>
<pdfrwt beam="2">  1       -4 0.50293507E-02 0.12499798E+03</pdfrwt>
<totfact> 0.98875844E+03</totfact>
</mgrwt>
</event>
<event>
 5    1  0.3271306E-002  0.1249945E+03  0.7818608E-02  0.1235078E+00
          4   -1    0    0  501    0  0.00000000000E+00  0.00000000000E+00  0.10023549852E+03  0.10024354375E+03  0.12700000000E+01 0. -1.
         -4   -1    0    0    0  501 -0.00000000000E+00 -0.00000000000E+00 -0.38947328380E+02  0.38968029049E+02  0.12700000000E+01 0. -1.
         25    2    1    2    0    0  0.00000000000E+00  0.00000000000E+00  0.61288170144E+02  0.13921157280E+03  0.12499448869E+03 0.  0.
    9000005    1    3    3    0    0  0.35837235808E+02  0.49218956813E+02  0.46319474912E+02  0.76506907768E+02  0.10000000000E+01 0.  0.
    9000005    1    3    3    0    0 -0.35837235808E+02 -0.49218956813E+02  0.14968695232E+02  0.62704665035E+02  0.10000000000E+01 0.  0.
<mgrwt>
<rscale>  0 0.12499449E+03</rscale>
<asrwt>0</asrwt>
<pdfrwt beam="1">  1        4 0.15423057E-01 0.12499449E+03</pdfrwt>
<pdfrwt beam="2">  1       -4 0.59941079E-02 0.12499449E+03</pdfrwt>
<totfact> 0.10151213E+04</totfact>
</mgrwt>
</event>
<event>
 4    1  0.3271306E-002  0.1247262E+03  0.7818608E-02  0.1235498E+00
          4   -1    0    0  501    0  0.00000000000E+00  0.00000000000E+00  0.84233561168E+03  0.84233656908E+03  0.12700000000E+01 0. -1.
         -4   -1    0    0    0  501 -0.00000000000E+00 -0.00000000000E+00 -0.45288014797E+01  0.47035032521E+01  0.12700000000E+01 0. -1.
    9000005    1    1    2    0    0 -0.34849202424E+02  0.39497842382E+02  0.19227566911E+03  0.19936268306E+03  0.10000000000E+01 0.  0.
    9000005    1    1    2    0    0  0.34849202424E+02 -0.39497842382E+02  0.64553114109E+03  0.64767738927E+03  0.10000000000E+01 0.  0.
<mgrwt>
<rscale>  0 0.12472623E+03</rscale>
<asrwt>0</asrwt>
<pdfrwt beam="1">  1        4 0.12960368E+00 0.12472623E+03</pdfrwt>
<pdfrwt beam="2">  1       -4 0.71025051E-03 0.12472623E+03</pdfrwt>
<totfact> 0.36466297E+03</totfact>
</mgrwt>
</event>
<event>
 5    1  0.3271306E-002  0.1249997E+03  0.7818608E-02  0.1235070E+00
         -4   -1    0    0    0  501 -0.00000000000E+00  0.00000000000E+00  0.32571062412E+01  0.34959463764E+01  0.12700000000E+01 0. -1.
          4   -1    0    0  501    0  0.00000000000E+00 -0.00000000000E+00 -0.11566395903E+04  0.11566402876E+04  0.12700000000E+01 0. -1.
         25    2    1    2    0    0  0.00000000000E+00  0.00000000000E+00 -0.11533824841E+04  0.11601362340E+04  0.12499970680E+03 0.  0.
    9000005    1    3    3    0    0  0.32735626991E+02 -0.15276896656E+02 -0.10342490538E+03  0.10955690712E+03  0.10000000000E+01 0.  0.
    9000005    1    3    3    0    0 -0.32735626991E+02  0.15276896656E+02 -0.10499575787E+04  0.10505793268E+04  0.10000000000E+01 0.  0.
<mgrwt>
<rscale>  0 0.12499971E+03</rscale>
<asrwt>0</asrwt>
<pdfrwt beam="2">  1        4 0.17796266E+00 0.12499971E+03</pdfrwt>
<pdfrwt beam="1">  1       -4 0.51952014E-03 0.12499971E+03</pdfrwt>
<totfact> 0.25780879E+03</totfact>
</mgrwt>
</event>
<event>
 5    1  0.3271306E-002  0.1250064E+03  0.7818608E-02  0.1235059E+00
         -4   -1    0    0    0  501 -0.00000000000E+00  0.00000000000E+00  0.91355959032E+03  0.91356047308E+03  0.12700000000E+01 0. -1.
          4   -1    0    0  501    0  0.00000000000E+00 -0.00000000000E+00 -0.41810986688E+01  0.43697237989E+01  0.12700000000E+01 0. -1.
         25    2    1    2    0    0  0.00000000000E+00  0.00000000000E+00  0.90937849165E+03  0.91793019688E+03  0.12500642086E+03 0.  0.
    9000005    1    3    3    0    0  0.53025881857E+02  0.21393496973E+02  0.63990710344E+03  0.64245741251E+03  0.10000000000E+01 0.  0.
    9000005    1    3    3    0    0 -0.53025881857E+02 -0.21393496973E+02  0.26947138821E+03  0.27547278436E+03  0.10000000000E+01 0.  0.
<mgrwt>
<rscale>  0 0.12500642E+03</rscale>
<asrwt>0</asrwt>
<pdfrwt beam="2">  1        4 0.65782392E-03 0.12500642E+03</pdfrwt>
<pdfrwt beam="1">  1       -4 0.14056211E+00 0.12500642E+03</pdfrwt>
<totfact> 0.33477927E+03</totfact>
</mgrwt>
</event>
<event>
 5    1  0.3271306E-002  0.1249966E+03  0.7818608E-02  0.1235075E+00
          4   -1    0    0  501    0  0.00000000000E+00  0.00000000000E+00  0.16042988113E+02  0.16093177672E+02  0.12700000000E+01 0.  1.
         -4   -1    0    0    0  501 -0.00000000000E+00 -0.00000000000E+00 -0.24304115089E+03  0.24304446903E+03  0.12700000000E+01 0.  1.
         25    2    1    2    0    0  0.00000000000E+00  0.00000000000E+00 -0.22699816278E+03  0.25913764670E+03  0.12499661609E+03 0.  0.
    9000005    1    3    3    0    0 -0.16608144925E+02  0.31971495536E+02 -0.21935262328E+03  0.22229390532E+03  0.10000000000E+01 0.  0.
    9000005    1    3    3    0    0  0.16608144925E+02 -0.31971495536E+02 -0.76455395011E+01  0.36843741381E+02  0.10000000000E+01 0.  0.
<mgrwt>
<rscale>  0 0.12499662E+03</rscale>
<asrwt>0</asrwt>
<pdfrwt beam="1">  1        4 0.24722682E-02 0.12499662E+03</pdfrwt>
<pdfrwt beam="2">  1       -4 0.37395060E-01 0.12499662E+03</pdfrwt>
<totfact> 0.81033337E+03</totfact>
</mgrwt>
</event>
<event>
 5    1  0.3271306E-002  0.1249996E+03  0.7818608E-02  0.1235070E+00
         -4   -1    0    0    0  501 -0.00000000000E+00  0.00000000000E+00  0.19929115508E+03  0.19929520163E+03  0.12700000000E+01 0.  1.
          4   -1    0    0  501    0  0.00000000000E+00 -0.00000000000E+00 -0.19575756671E+02  0.19616909778E+02  0.12700000000E+01 0.  1.
         25    2    1    2    0    0  0.00000000000E+00  0.00000000000E+00  0.17971539840E+03  0.21891211140E+03  0.12499955238E+03 0.  0.
    9000005    1    3    3    0    0 -0.49232472150E+02 -0.37991999637E+02  0.10065255825E+03  0.11831807061E+03  0.10000000000E+01 0.  0.
    9000005    1    3    3    0    0  0.49232472150E+02  0.37991999637E+02  0.79062840154E+02  0.10059404080E+03  0.10000000000E+01 0.  0.
<mgrwt>
<rscale>  0 0.12499955E+03</rscale>
<asrwt>0</asrwt>
<pdfrwt beam="2">  1        4 0.30151317E-02 0.12499955E+03</pdfrwt>
<pdfrwt beam="1">  1       -4 0.30663655E-01 0.12499955E+03</pdfrwt>
<totfact> 0.87041656E+03</totfact>
</mgrwt>
</event>
<event>
 5    1  0.3271306E-002  0.1249988E+03  0.7818608E-02  0.1235071E+00
         -4   -1    0    0    0  501 -0.00000000000E+00  0.00000000000E+00  0.16439937690E+02  0.16488919045E+02  0.12700000000E+01 0.  1.
          4   -1    0    0  501    0  0.00000000000E+00 -0.00000000000E+00 -0.23719849216E+03  0.23720189203E+03  0.12700000000E+01 0.  1.
         25    2    1    2    0    0  0.00000000000E+00  0.00000000000E+00 -0.22075855447E+03  0.25369081107E+03  0.12499875300E+03 0.  0.
    9000005    1    3    3    0    0 -0.48987977128E+02 -0.19342081987E+01 -0.18902543091E+03  0.19528229975E+03  0.10000000000E+01 0.  0.
    9000005    1    3    3    0    0  0.48987977128E+02  0.19342081987E+01 -0.31733123559E+02  0.58408511326E+02  0.10000000000E+01 0.  0.
<mgrwt>
<rscale>  0 0.12499875E+03</rscale>
<asrwt>0</asrwt>
<pdfrwt beam="2">  1        4 0.36496103E-01 0.12499875E+03</pdfrwt>
<pdfrwt beam="1">  1       -4 0.25332507E-02 0.12499875E+03</pdfrwt>
<totfact> 0.81801973E+03</totfact>
</mgrwt>
</event>
<event>
 5    1  0.3271306E-002  0.1249890E+03  0.7818608E-02  0.1235087E+00
          4   -1    0    0  501    0  0.00000000000E+00  0.00000000000E+00  0.71392796539E+02  0.71404091603E+02  0.12700000000E+01 0. -1.
         -4   -1    0    0    0  501 -0.00000000000E+00 -0.00000000000E+00 -0.54682235923E+02  0.54696981869E+02  0.12700000000E+01 0. -1.
         25    2    1    2    0    0  0.00000000000E+00  0.00000000000E+00  0.16710560615E+02  0.12610107347E+03  0.12498895109E+03 0.  0.
    9000005    1    3    3    0    0 -0.57884209911E+02 -0.21304683283E+02  0.18448705559E+02  0.64388089144E+02  0.10000000000E+01 0.  0.
    9000005    1    3    3    0    0  0.57884209911E+02  0.21304683283E+02 -0.17381449437E+01  0.61712984328E+02  0.10000000000E+01 0.  0.
<mgrwt>
<rscale>  0 0.12498895E+03</rscale>
<asrwt>0</asrwt>
<pdfrwt beam="1">  1        4 0.10985510E-01 0.12498895E+03</pdfrwt>
<pdfrwt beam="2">  1       -4 0.84146549E-02 0.12498895E+03</pdfrwt>
<totfact> 0.10431344E+04</totfact>
</mgrwt>
</event>
<event>
 5    1  0.3271306E-002  0.1249917E+03  0.7818608E-02  0.1235082E+00
          4   -1    0    0  501    0  0.00000000000E+00  0.00000000000E+00  0.64412706622E+02  0.64425225451E+02  0.12700000000E+01 0.  1.
         -4   -1    0    0    0  501 -0.00000000000E+00 -0.00000000000E+00 -0.60610944732E+02  0.60624248625E+02  0.12700000000E+01 0.  1.
         25    2    1    2    0    0  0.00000000000E+00  0.00000000000E+00  0.38017618898E+01  0.12504947408E+03  0.12499167001E+03 0.  0.
    9000005    1    3    3    0    0 -0.49499948250E+02 -0.17609765050E+02 -0.31943459857E+02  0.61495799283E+02  0.10000000000E+01 0.  0.
    9000005    1    3    3    0    0  0.49499948250E+02  0.17609765050E+02  0.35745221746E+02  0.63553674792E+02  0.10000000000E+01 0.  0.
<mgrwt>
<rscale>  0 0.12499167E+03</rscale>
<asrwt>0</asrwt>
<pdfrwt beam="1">  1        4 0.99116335E-02 0.12499167E+03</pdfrwt>
<pdfrwt beam="2">  1       -4 0.93267471E-02 0.12499167E+03</pdfrwt>
<totfact> 0.10453756E+04</totfact>
</mgrwt>
</event>
<event>
 5    1  0.3271306E-002  0.1249980E+03  0.7818608E-02  0.1235072E+00
          4   -1    0    0  501    0  0.00000000000E+00  0.00000000000E+00  0.11045390362E+03  0.11046120461E+03  0.12700000000E+01 0. -1.
         -4   -1    0    0    0  501 -0.00000000000E+00 -0.00000000000E+00 -0.35344439485E+02  0.35367249010E+02  0.12700000000E+01 0. -1.
         25    2    1    2    0    0  0.00000000000E+00  0.00000000000E+00  0.75109464133E+02  0.14582845362E+03  0.12499802512E+03 0.  0.
    9000005    1    3    3    0    0  0.45669899115E+02 -0.24553349296E+02  0.78245766652E+02  0.93872289020E+02  0.10000000000E+01 0.  0.
    9000005    1    3    3    0    0 -0.45669899115E+02  0.24553349296E+02 -0.31363025187E+01  0.51956164604E+02  0.10000000000E+01 0.  0.
<mgrwt>
<rscale>  0 0.12499803E+03</rscale>
<asrwt>0</asrwt>
<pdfrwt beam="1">  1        4 0.16995224E-01 0.12499803E+03</pdfrwt>
<pdfrwt beam="2">  1       -4 0.54399223E-02 0.12499803E+03</pdfrwt>
<totfact> 0.10014629E+04</totfact>
</mgrwt>
</event>
<event>
 5    1  0.3271306E-002  0.1250440E+03  0.7818608E-02  0.1235001E+00
          4   -1    0    0  501    0  0.00000000000E+00  0.00000000000E+00  0.28582984826E+03  0.28583266968E+03  0.12700000000E+01 0. -1.
         -4   -1    0    0    0  501 -0.00000000000E+00 -0.00000000000E+00 -0.13643588120E+02  0.13702568985E+02  0.12700000000E+01 0. -1.
         25    2    1    2    0    0  0.00000000000E+00  0.00000000000E+00  0.27218626014E+03  0.29953523867E+03  0.12504398824E+03 0.  0.
    9000005    1    3    3    0    0  0.21879090282E+02  0.22413974023E+02  0.64974719261E+01  0.32004655357E+02  0.10000000000E+01 0.  0.
    9000005    1    3    3    0    0 -0.21879090282E+02 -0.22413974023E+02  0.26568878822E+03  0.26753058331E+03  0.10000000000E+01 0.  0.
<mgrwt>
<rscale>  0 0.12504399E+03</rscale>
<asrwt>0</asrwt>
<pdfrwt beam="1">  1        4 0.43978578E-01 0.12504399E+03</pdfrwt>
<pdfrwt beam="2">  1       -4 0.21037675E-02 0.12504399E+03</pdfrwt>
<totfact> 0.75583338E+03</totfact>
</mgrwt>
</event>
<event>
 5    1  0.3271306E-002  0.1250032E+03  0.7818608E-02  0.1235064E+00
          4   -1    0    0  501    0  0.00000000000E+00  0.00000000000E+00  0.25366015800E+02  0.25397788439E+02  0.12700000000E+01 0.  1.
         -4   -1    0    0    0  501 -0.00000000000E+00 -0.00000000000E+00 -0.15387241036E+03  0.15387765130E+03  0.12700000000E+01 0.  1.
         25    2    1    2    0    0  0.00000000000E+00  0.00000000000E+00 -0.12850639456E+03  0.17927543974E+03  0.12500315937E+03 0.  0.
    9000005    1    3    3    0    0  0.46689571440E+02  0.41371896957E+02 -0.58906710230E+02  0.85805305484E+02  0.10000000000E+01 0.  0.
    9000005    1    3    3    0    0 -0.46689571440E+02 -0.41371896957E+02 -0.69599684332E+02  0.93470134258E+02  0.10000000000E+01 0.  0.
<mgrwt>
<rscale>  0 0.12500316E+03</rscale>
<asrwt>0</asrwt>
<pdfrwt beam="1">  1        4 0.39053113E-02 0.12500316E+03</pdfrwt>
<pdfrwt beam="2">  1       -4 0.23675525E-01 0.12500316E+03</pdfrwt>
<totfact> 0.93740948E+03</totfact>
</mgrwt>
</event>
<event>
 5    1  0.3271306E-002  0.1249958E+03  0.7818608E-02  0.1235076E+00
         -4   -1    0    0    0  501 -0.00000000000E+00  0.00000000000E+00  0.12524541878E+03  0.12525185758E+03  0.12700000000E+01 0.  1.
          4   -1    0    0  501    0  0.00000000000E+00 -0.00000000000E+00 -0.31166513834E+02  0.31192378629E+02  0.12700000000E+01 0.  1.
         25    2    1    2    0    0  0.00000000000E+00  0.00000000000E+00  0.94078904951E+02  0.15644423621E+03  0.12499583467E+03 0.  0.
    9000005    1    3    3    0    0  0.43137587792E+02 -0.29901848297E+02  0.89483450046E+02  0.10374613171E+03  0.10000000000E+01 0.  0.
    9000005    1    3    3    0    0 -0.43137587792E+02  0.29901848297E+02  0.45954549047E+01  0.52698104499E+02  0.10000000000E+01 0.  0.
<mgrwt>
<rscale>  0 0.12499583E+03</rscale>
<asrwt>0</asrwt>
<pdfrwt beam="2">  1        4 0.47973332E-02 0.12499583E+03</pdfrwt>
<pdfrwt beam="1">  1       -4 0.19271011E-01 0.12499583E+03</pdfrwt>
<totfact> 0.98041904E+03</totfact>
</mgrwt>
</event>
<event>
 5    1  0.3271306E-002  0.1250020E+03  0.7818608E-02  0.1235066E+00
         -4   -1    0    0    0  501 -0.00000000000E+00  0.00000000000E+00  0.32550736172E+02  0.32575501920E+02  0.12700000000E+01 0. -1.
          4   -1    0    0  501    0  0.00000000000E+00 -0.00000000000E+00 -0.11993508903E+03  0.11994181289E+03  0.12700000000E+01 0. -1.
         25    2    1    2    0    0  0.00000000000E+00  0.00000000000E+00 -0.87384352857E+02  0.15251731481E+03  0.12500202476E+03 0.  0.
    9000005    1    3    3    0    0  0.42192788112E+02  0.33224869058E+02 -0.82683576518E+02  0.98598666920E+02  0.10000000000E+01 0.  0.
    9000005    1    3    3    0    0 -0.42192788112E+02 -0.33224869058E+02 -0.47007763393E+01  0.53918647895E+02  0.10000000000E+01 0.  0.
<mgrwt>
<rscale>  0 0.12500202E+03</rscale>
<asrwt>0</asrwt>
<pdfrwt beam="2">  1        4 0.18453974E-01 0.12500202E+03</pdfrwt>
<pdfrwt beam="1">  1       -4 0.50102279E-02 0.12500202E+03</pdfrwt>
<totfact> 0.98799755E+03</totfact>
</mgrwt>
</event>
<event>
 5    1  0.3271306E-002  0.1250001E+03  0.7818608E-02  0.1235069E+00
         -4   -1    0    0    0  501 -0.00000000000E+00  0.00000000000E+00  0.10695508871E+03  0.10696262852E+03  0.12700000000E+01 0. -1.
          4   -1    0    0  501    0  0.00000000000E+00 -0.00000000000E+00 -0.36502521073E+02  0.36524607385E+02  0.12700000000E+01 0. -1.
         25    2    1    2    0    0  0.00000000000E+00  0.00000000000E+00  0.70452567635E+02  0.14348723591E+03  0.12500009033E+03 0.  0.
    9000005    1    3    3    0    0 -0.46428077346E+02  0.30685843537E+02  0.67857027658E+02  0.87765389318E+02  0.10000000000E+01 0.  0.
    9000005    1    3    3    0    0  0.46428077346E+02 -0.30685843537E+02  0.25955399774E+01  0.55721846590E+02  0.10000000000E+01 0.  0.
<mgrwt>
<rscale>  0 0.12500009E+03</rscale>
<asrwt>0</asrwt>
<pdfrwt beam="2">  1        4 0.56180515E-02 0.12500009E+03</pdfrwt>
<pdfrwt beam="1">  1       -4 0.16456908E-01 0.12500009E+03</pdfrwt>
<totfact> 0.10061795E+04</totfact>
</mgrwt>
</event>
<event>
 5    1  0.3271306E-002  0.1250015E+03  0.7818608E-02  0.1235067E+00
         -4   -1    0    0    0  501 -0.00000000000E+00  0.00000000000E+00  0.12620990351E+03  0.12621629310E+03  0.12700000000E+01 0.  1.
          4   -1    0    0  501    0  0.00000000000E+00 -0.00000000000E+00 -0.30930939909E+02  0.30957001529E+02  0.12700000000E+01 0.  1.
         25    2    1    2    0    0  0.00000000000E+00  0.00000000000E+00  0.95278963599E+02  0.15717329463E+03  0.12500145455E+03 0.  0.
    9000005    1    3    3    0    0 -0.26977843446E+02 -0.43299857174E+02  0.93021008560E+02  0.10609707678E+03  0.10000000000E+01 0.  0.
    9000005    1    3    3    0    0  0.26977843446E+02  0.43299857174E+02  0.22579550390E+01  0.51076217844E+02  0.10000000000E+01 0.  0.
<mgrwt>
<rscale>  0 0.12500145E+03</rscale>
<asrwt>0</asrwt>
<pdfrwt beam="2">  1        4 0.47611024E-02 0.12500145E+03</pdfrwt>
<pdfrwt beam="1">  1       -4 0.19419404E-01 0.12500145E+03</pdfrwt>
<totfact> 0.97887334E+03</totfact>
</mgrwt>
</event>
<event>
 5    1  0.3271306E-002  0.1250001E+03  0.7818608E-02  0.1235069E+00
         -4   -1    0    0    0  501 -0.00000000000E+00  0.00000000000E+00  0.10441468685E+02  0.10518420428E+02  0.12700000000E+01 0. -1.
          4   -1    0    0  501    0  0.00000000000E+00 -0.00000000000E+00 -0.37265815565E+03  0.37266031969E+03  0.12700000000E+01 0. -1.
         25    2    1    2    0    0  0.00000000000E+00  0.00000000000E+00 -0.36221668696E+03  0.38317874012E+03  0.12500007425E+03 0.  0.
    9000005    1    3    3    0    0  0.45524070651E+02  0.38817240194E+02 -0.23645910197E+03  0.24391212772E+03  0.10000000000E+01 0.  0.
    9000005    1    3    3    0    0 -0.45524070651E+02 -0.38817240194E+02 -0.12575758499E+03  0.13926661239E+03  0.10000000000E+01 0.  0.
<mgrwt>
<rscale>  0 0.12500007E+03</rscale>
<asrwt>0</asrwt>
<pdfrwt beam="2">  1        4 0.57338100E-01 0.12500007E+03</pdfrwt>
<pdfrwt beam="1">  1       -4 0.16124659E-02 0.12500007E+03</pdfrwt>
<totfact> 0.66222255E+03</totfact>
</mgrwt>
</event>
<event>
 5    1  0.3271306E-002  0.1249959E+03  0.7818608E-02  0.1235076E+00
          4   -1    0    0  501    0  0.00000000000E+00  0.00000000000E+00  0.23220317587E+04  0.23220321060E+04  0.12700000000E+01 0. -1.
         -4   -1    0    0    0  501 -0.00000000000E+00 -0.00000000000E+00 -0.14420379894E+01  0.19215549857E+01  0.12700000000E+01 0. -1.
         25    2    1    2    0    0  0.00000000000E+00  0.00000000000E+00  0.23205897207E+04  0.23239536609E+04  0.12499586616E+03 0.  0.
    9000005    1    3    3    0    0 -0.12637814037E+02 -0.59262967805E+02  0.87638822235E+03  0.87848114947E+03  0.10000000000E+01 0.  0.
    9000005    1    3    3    0    0  0.12637814037E+02  0.59262967805E+02  0.14442014983E+04  0.14454725115E+04  0.10000000000E+01 0.  0.
<mgrwt>
<rscale>  0 0.12499587E+03</rscale>
<asrwt>0</asrwt>
<pdfrwt beam="1">  1        4 0.35726980E+00 0.12499587E+03</pdfrwt>
<pdfrwt beam="2">  1       -4 0.25876664E-03 0.12499587E+03</pdfrwt>
<totfact> 0.62043684E+02</totfact>
</mgrwt>
</event>
<event>
 5    1  0.3271306E-002  0.1250034E+03  0.7818608E-02  0.1235064E+00
          4   -1    0    0  501    0  0.00000000000E+00  0.00000000000E+00  0.15530632249E+03  0.15531151505E+03  0.12700000000E+01 0.  1.
         -4   -1    0    0    0  501 -0.00000000000E+00 -0.00000000000E+00 -0.25131607243E+02  0.25163675857E+02  0.12700000000E+01 0.  1.
         25    2    1    2    0    0  0.00000000000E+00  0.00000000000E+00  0.13017471525E+03  0.18047519090E+03  0.12500335212E+03 0.  0.
    9000005    1    3    3    0    0  0.24826762242E+02 -0.45280932944E+02  0.14273295386E+02  0.53585986721E+02  0.10000000000E+01 0.  0.
    9000005    1    3    3    0    0 -0.24826762242E+02  0.45280932944E+02  0.11590141986E+03  0.12688920418E+03  0.10000000000E+01 0.  0.
<mgrwt>
<rscale>  0 0.12500335E+03</rscale>
<asrwt>0</asrwt>
<pdfrwt beam="1">  1        4 0.23896146E-01 0.12500335E+03</pdfrwt>
<pdfrwt beam="2">  1       -4 0.38692674E-02 0.12500335E+03</pdfrwt>
<totfact> 0.93524508E+03</totfact>
</mgrwt>
</event>
<event>
 5    1  0.3271306E-002  0.1250048E+03  0.7818608E-02  0.1235062E+00
          4   -1    0    0  501    0  0.00000000000E+00  0.00000000000E+00  0.10955543521E+02  0.11028909005E+02  0.12700000000E+01 0. -1.
         -4   -1    0    0    0  501 -0.00000000000E+00 -0.00000000000E+00 -0.35531729541E+03  0.35531956506E+03  0.12700000000E+01 0. -1.
         25    2    1    2    0    0  0.00000000000E+00  0.00000000000E+00 -0.34436175189E+03  0.36634847407E+03  0.12500475307E+03 0.  0.
    9000005    1    3    3    0    0  0.29771894686E+02  0.54924936766E+02 -0.16760988479E+03  0.17887757789E+03  0.10000000000E+01 0.  0.
    9000005    1    3    3    0    0 -0.29771894686E+02 -0.54924936766E+02 -0.17675186710E+03  0.18747089618E+03  0.10000000000E+01 0.  0.
<mgrwt>
<rscale>  0 0.12500475E+03</rscale>
<asrwt>0</asrwt>
<pdfrwt beam="1">  1        4 0.16912866E-02 0.12500475E+03</pdfrwt>
<pdfrwt beam="2">  1       -4 0.54670009E-01 0.12500475E+03</pdfrwt>
<totfact> 0.67955554E+03</totfact>
</mgrwt>
</event>
<event>
 5    1  0.3271306E-002  0.1249959E+03  0.7818608E-02  0.1235076E+00
          4   -1    0    0  501    0  0.00000000000E+00  0.00000000000E+00  0.60499597447E+02  0.60512925820E+02  0.12700000000E+01 0.  1.
         -4   -1    0    0    0  501 -0.00000000000E+00 -0.00000000000E+00 -0.64535597294E+02  0.64548092288E+02  0.12700000000E+01 0.  1.
         25    2    1    2    0    0  0.00000000000E+00  0.00000000000E+00 -0.40359998464E+01  0.12506101811E+03  0.12499587575E+03 0.  0.
    9000005    1    3    3    0    0  0.42430948387E+02  0.42412803522E+02  0.15477134732E+02  0.61965901778E+02  0.10000000000E+01 0.  0.
    9000005    1    3    3    0    0 -0.42430948387E+02 -0.42412803522E+02 -0.19513134578E+02  0.63095116330E+02  0.10000000000E+01 0.  0.
<mgrwt>
<rscale>  0 0.12499588E+03</rscale>
<asrwt>0</asrwt>
<pdfrwt beam="1">  1        4 0.93096168E-02 0.12499588E+03</pdfrwt>
<pdfrwt beam="2">  1       -4 0.99305399E-02 0.12499588E+03</pdfrwt>
<totfact> 0.10452512E+04</totfact>
</mgrwt>
</event>
<event>
 5    1  0.3271306E-002  0.1250010E+03  0.7818608E-02  0.1235068E+00
         -4   -1    0    0    0  501 -0.00000000000E+00  0.00000000000E+00  0.65027591063E+02  0.65039991540E+02  0.12700000000E+01 0. -1.
          4   -1    0    0  501    0  0.00000000000E+00 -0.00000000000E+00 -0.60046777341E+02  0.60060206202E+02  0.12700000000E+01 0. -1.
         25    2    1    2    0    0  0.00000000000E+00  0.00000000000E+00  0.49808137222E+01  0.12510019774E+03  0.12500100387E+03 0.  0.
    9000005    1    3    3    0    0 -0.12988022228E+02 -0.55194594023E+02  0.28782546841E+02  0.63596909779E+02  0.10000000000E+01 0.  0.
    9000005    1    3    3    0    0  0.12988022228E+02  0.55194594023E+02 -0.23801733119E+02  0.61503287963E+02  0.10000000000E+01 0.  0.
<mgrwt>
<rscale>  0 0.12500100E+03</rscale>
<asrwt>0</asrwt>
<pdfrwt beam="2">  1        4 0.92399526E-02 0.12500100E+03</pdfrwt>
<pdfrwt beam="1">  1       -4 0.10006232E-01 0.12500100E+03</pdfrwt>
<totfact> 0.10450450E+04</totfact>
</mgrwt>
</event>
<event>
 5    1  0.3271306E-002  0.1250012E+03  0.7818608E-02  0.1235067E+00
         -4   -1    0    0    0  501 -0.00000000000E+00  0.00000000000E+00  0.14487050334E+02  0.14542610749E+02  0.12700000000E+01 0. -1.
          4   -1    0    0  501    0  0.00000000000E+00 -0.00000000000E+00 -0.26906941251E+03  0.26907240968E+03  0.12700000000E+01 0. -1.
         25    2    1    2    0    0  0.00000000000E+00  0.00000000000E+00 -0.25458236218E+03  0.28361502043E+03  0.12500120271E+03 0.  0.
    9000005    1    3    3    0    0 -0.20668331520E+01  0.44291940763E+00 -0.26899940723E+03  0.26900957059E+03  0.10000000000E+01 0.  0.
    9000005    1    3    3    0    0  0.20668331520E+01 -0.44291940763E+00  0.14417045054E+02  0.14605449838E+02  0.10000000000E+01 0.  0.
<mgrwt>
<rscale>  0 0.12500120E+03</rscale>
<asrwt>0</asrwt>
<pdfrwt beam="2">  1        4 0.41399795E-01 0.12500120E+03</pdfrwt>
<pdfrwt beam="1">  1       -4 0.22332816E-02 0.12500120E+03</pdfrwt>
<totfact> 0.77699134E+03</totfact>
</mgrwt>
</event>
<event>
 5    1  0.3271306E-002  0.1249998E+03  0.7818608E-02  0.1235070E+00
          4   -1    0    0  501    0  0.00000000000E+00  0.00000000000E+00  0.11747295150E+04  0.11747302015E+04  0.12700000000E+01 0. -1.
         -4   -1    0    0    0  501 -0.00000000000E+00 -0.00000000000E+00 -0.32032474842E+01  0.34458227530E+01  0.12700000000E+01 0. -1.
         25    2    1    2    0    0  0.00000000000E+00  0.00000000000E+00  0.11715262675E+04  0.11781760243E+04  0.12499979456E+03 0.  0.
    9000005    1    3    3    0    0  0.52936523351E+02 -0.27823925390E+02  0.75667048002E+03  0.75903073829E+03  0.10000000000E+01 0.  0.
    9000005    1    3    3    0    0 -0.52936523351E+02  0.27823925390E+02  0.41485578751E+03  0.41914528598E+03  0.10000000000E+01 0.  0.
<mgrwt>
<rscale>  0 0.12499979E+03</rscale>
<asrwt>0</asrwt>
<pdfrwt beam="1">  1        4 0.18074645E+00 0.12499979E+03</pdfrwt>
<pdfrwt beam="2">  1       -4 0.51151940E-03 0.12499979E+03</pdfrwt>
<totfact> 0.25291335E+03</totfact>
</mgrwt>
</event>
<event>
 5    1  0.3271306E-002  0.1250013E+03  0.7818608E-02  0.1235067E+00
         -4   -1    0    0    0  501 -0.00000000000E+00  0.00000000000E+00  0.14352379764E+03  0.14352941646E+03  0.12700000000E+01 0. -1.
          4   -1    0    0  501    0  0.00000000000E+00 -0.00000000000E+00 -0.27196355043E+02  0.27225991766E+02  0.12700000000E+01 0. -1.
         25    2    1    2    0    0  0.00000000000E+00  0.00000000000E+00  0.11632744260E+03  0.17075540823E+03  0.12500134214E+03 0.  0.
    9000005    1    3    3    0    0 -0.18615538639E+02  0.89594078409E+01  0.13873074721E+03  0.14026414185E+03  0.10000000000E+01 0.  0.
    9000005    1    3    3    0    0  0.18615538639E+02 -0.89594078409E+01 -0.22403304612E+02  0.30491266376E+02  0.10000000000E+01 0.  0.
<mgrwt>
<rscale>  0 0.12500134E+03</rscale>
<asrwt>0</asrwt>
<pdfrwt beam="2">  1        4 0.41867667E-02 0.12500134E+03</pdfrwt>
<pdfrwt beam="1">  1       -4 0.22083296E-01 0.12500134E+03</pdfrwt>
<totfact> 0.95305155E+03</totfact>
</mgrwt>
</event>
<event>
 5    1  0.3271306E-002  0.1249964E+03  0.7818608E-02  0.1235075E+00
         -4   -1    0    0    0  501 -0.00000000000E+00  0.00000000000E+00  0.25872953698E+03  0.25873265392E+03  0.12700000000E+01 0.  1.
          4   -1    0    0  501    0  0.00000000000E+00 -0.00000000000E+00 -0.15067010316E+02  0.15120439804E+02  0.12700000000E+01 0.  1.
         25    2    1    2    0    0  0.00000000000E+00  0.00000000000E+00  0.24366252666E+03  0.27385309372E+03  0.12499636012E+03 0.  0.
    9000005    1    3    3    0    0 -0.10030289278E+02 -0.10312645813E+02  0.25506296155E+03  0.25547029518E+03  0.10000000000E+01 0.  0.
    9000005    1    3    3    0    0  0.10030289278E+02  0.10312645813E+02 -0.11400434886E+02  0.18382798543E+02  0.10000000000E+01 0.  0.
<mgrwt>
<rscale>  0 0.12499636E+03</rscale>
<asrwt>0</asrwt>
<pdfrwt beam="2">  1        4 0.23223516E-02 0.12499636E+03</pdfrwt>
<pdfrwt beam="1">  1       -4 0.39808889E-01 0.12499636E+03</pdfrwt>
<totfact> 0.79006661E+03</totfact>
</mgrwt>
</event>
<event>
 5    1  0.3271306E-002  0.1250009E+03  0.7818608E-02  0.1235068E+00
          4   -1    0    0  501    0  0.00000000000E+00  0.00000000000E+00  0.13370148361E+02  0.13430330122E+02  0.12700000000E+01 0.  1.
         -4   -1    0    0    0  501 -0.00000000000E+00 -0.00000000000E+00 -0.29144850913E+03  0.29145127616E+03  0.12700000000E+01 0.  1.
         25    2    1    2    0    0  0.00000000000E+00  0.00000000000E+00 -0.27807836077E+03  0.30488160629E+03  0.12500087648E+03 0.  0.
    9000005    1    3    3    0    0  0.62312055836E+02  0.45922317022E+01 -0.14194960061E+03  0.15509535779E+03  0.10000000000E+01 0.  0.
    9000005    1    3    3    0    0 -0.62312055836E+02 -0.45922317022E+01 -0.13612876016E+03  0.14978624850E+03  0.10000000000E+01 0.  0.
<mgrwt>
<rscale>  0 0.12500088E+03</rscale>
<asrwt>0</asrwt>
<pdfrwt beam="1">  1        4 0.20617883E-02 0.12500088E+03</pdfrwt>
<pdfrwt beam="2">  1       -4 0.44843070E-01 0.12500088E+03</pdfrwt>
<totfact> 0.74989094E+03</totfact>
</mgrwt>
</event>
<event>
 5    1  0.3271306E-002  0.1249988E+03  0.7818608E-02  0.1235071E+00
         -4   -1    0    0    0  501 -0.00000000000E+00  0.00000000000E+00  0.34117295128E+02  0.34140924517E+02  0.12700000000E+01 0. -1.
          4   -1    0    0  501    0  0.00000000000E+00 -0.00000000000E+00 -0.11442571061E+03  0.11443275819E+03  0.12700000000E+01 0. -1.
         25    2    1    2    0    0  0.00000000000E+00  0.00000000000E+00 -0.80308415477E+02  0.14857368271E+03  0.12499879038E+03 0.  0.
    9000005    1    3    3    0    0 -0.53351864257E+02  0.27108686210E+02 -0.61544802216E+02  0.85849082509E+02  0.10000000000E+01 0.  0.
    9000005    1    3    3    0    0  0.53351864257E+02 -0.27108686210E+02 -0.18763613261E+02  0.62724600201E+02  0.10000000000E+01 0.  0.
<mgrwt>
<rscale>  0 0.12499879E+03</rscale>
<asrwt>0</asrwt>
<pdfrwt beam="2">  1        4 0.17606315E-01 0.12499879E+03</pdfrwt>
<pdfrwt beam="1">  1       -4 0.52511744E-02 0.12499879E+03</pdfrwt>
<totfact> 0.99591487E+03</totfact>
</mgrwt>
</event>
<event>
 5    1  0.3271306E-002  0.1249796E+03  0.7818608E-02  0.1235101E+00
         -4   -1    0    0    0  501 -0.00000000000E+00  0.00000000000E+00  0.94508745659E+02  0.94517278346E+02  0.12700000000E+01 0. -1.
          4   -1    0    0  501    0  0.00000000000E+00 -0.00000000000E+00 -0.41298489388E+02  0.41318012122E+02  0.12700000000E+01 0. -1.
         25    2    1    2    0    0  0.00000000000E+00  0.00000000000E+00  0.53210256271E+02  0.13583529047E+03  0.12497957739E+03 0.  0.
    9000005    1    3    3    0    0 -0.56978193738E+02 -0.25158328014E+02  0.31986748787E+02  0.70025767601E+02  0.10000000000E+01 0.  0.
    9000005    1    3    3    0    0  0.56978193738E+02  0.25158328014E+02  0.21223507484E+02  0.65809522868E+02  0.10000000000E+01 0.  0.
<mgrwt>
<rscale>  0 0.12497958E+03</rscale>
<asrwt>0</asrwt>
<pdfrwt beam="2">  1        4 0.63557719E-02 0.12497958E+03</pdfrwt>
<pdfrwt beam="1">  1       -4 0.14541965E-01 0.12497958E+03</pdfrwt>
<totfact> 0.10225203E+04</totfact>
</mgrwt>
</event>
<event>
 4    1  0.3271306E-002  0.1248076E+03  0.7818608E-02  0.1235370E+00
         -4   -1    0    0    0  501 -0.00000000000E+00  0.00000000000E+00  0.40509287488E+01  0.42453414148E+01  0.12700000000E+01 0. -1.
          4   -1    0    0  501    0  0.00000000000E+00 -0.00000000000E+00 -0.93859737099E+03  0.93859823020E+03  0.12700000000E+01 0. -1.
    9000005    1    1    2    0    0 -0.24160237723E+02 -0.61462457141E+01 -0.89937702359E+03  0.89972302626E+03  0.10000000000E+01 0.  0.
    9000005    1    1    2    0    0  0.24160237723E+02  0.61462457141E+01 -0.35169418658E+02  0.43120545358E+02  0.10000000000E+01 0.  0.
<mgrwt>
<rscale>  0 0.12480764E+03</rscale>
<asrwt>0</asrwt>
<pdfrwt beam="2">  1        4 0.14441445E+00 0.12480764E+03</pdfrwt>
<pdfrwt beam="1">  1       -4 0.63824147E-03 0.12480764E+03</pdfrwt>
<totfact> 0.32708544E+03</totfact>
</mgrwt>
</event>
<event>
 5    1  0.3271306E-002  0.1249973E+03  0.7818608E-02  0.1235074E+00
          4   -1    0    0  501    0  0.00000000000E+00  0.00000000000E+00  0.54674319663E+01  0.56129949498E+01  0.12700000000E+01 0. -1.
         -4   -1    0    0    0  501 -0.00000000000E+00 -0.00000000000E+00 -0.70489510095E+03  0.70489624502E+03  0.12700000000E+01 0. -1.
         25    2    1    2    0    0  0.00000000000E+00  0.00000000000E+00 -0.69942766899E+03  0.71050923997E+03  0.12499726374E+03 0.  0.
    9000005    1    3    3    0    0 -0.15191518221E+02 -0.56984220421E+02 -0.46718510401E+03  0.47089373006E+03  0.10000000000E+01 0.  0.
    9000005    1    3    3    0    0  0.15191518221E+02  0.56984220421E+02 -0.23224256498E+03  0.23961550991E+03  0.10000000000E+01 0.  0.
<mgrwt>
<rscale>  0 0.12499726E+03</rscale>
<asrwt>0</asrwt>
<pdfrwt beam="1">  1        4 0.85242910E-03 0.12499726E+03</pdfrwt>
<pdfrwt beam="2">  1       -4 0.10845661E+00 0.12499726E+03</pdfrwt>
<totfact> 0.42540275E+03</totfact>
</mgrwt>
</event>
<event>
 5    1  0.3271306E-002  0.1250025E+03  0.7818608E-02  0.1235065E+00
          4   -1    0    0  501    0  0.00000000000E+00  0.00000000000E+00  0.10270803798E+03  0.10271588955E+03  0.12700000000E+01 0. -1.
         -4   -1    0    0    0  501 -0.00000000000E+00 -0.00000000000E+00 -0.38014187748E+02  0.38035396280E+02  0.12700000000E+01 0. -1.
         25    2    1    2    0    0  0.00000000000E+00  0.00000000000E+00  0.64693850234E+02  0.14075128583E+03  0.12500252079E+03 0.  0.
    9000005    1    3    3    0    0  0.85636968971E+01 -0.47866338623E+01 -0.37147207416E+02  0.38433888524E+02  0.10000000000E+01 0.  0.
    9000005    1    3    3    0    0 -0.85636968971E+01  0.47866338623E+01  0.10184105765E+03  0.10231739731E+03  0.10000000000E+01 0.  0.
<mgrwt>
<rscale>  0 0.12500252E+03</rscale>
<asrwt>0</asrwt>
<pdfrwt beam="1">  1        4 0.15803472E-01 0.12500252E+03</pdfrwt>
<pdfrwt beam="2">  1       -4 0.58505721E-02 0.12500252E+03</pdfrwt>
<totfact> 0.10117464E+04</totfact>
</mgrwt>
</event>
<event>
 5    1  0.3271306E-002  0.1249998E+03  0.7818608E-02  0.1235070E+00
          4   -1    0    0  501    0  0.00000000000E+00  0.00000000000E+00  0.74408995485E+03  0.74409103865E+03  0.12700000000E+01 0. -1.
         -4   -1    0    0    0  501 -0.00000000000E+00 -0.00000000000E+00 -0.51717747621E+01  0.53254252591E+01  0.12700000000E+01 0. -1.
         25    2    1    2    0    0  0.00000000000E+00  0.00000000000E+00  0.73891818009E+03  0.74941646391E+03  0.12499983809E+03 0.  0.
    9000005    1    3    3    0    0 -0.19036316543E+02  0.67489996232E+01  0.14906374918E+02  0.25122307948E+02  0.10000000000E+01 0.  0.
    9000005    1    3    3    0    0  0.19036316543E+02 -0.67489996232E+01  0.72401180517E+03  0.72429415596E+03  0.10000000000E+01 0.  0.
<mgrwt>
<rscale>  0 0.12499984E+03</rscale>
<asrwt>0</asrwt>
<pdfrwt beam="1">  1        4 0.11448738E+00 0.12499984E+03</pdfrwt>
<pdfrwt beam="2">  1       -4 0.80755958E-03 0.12499984E+03</pdfrwt>
<totfact> 0.40602173E+03</totfact>
</mgrwt>
</event>
<event>
 5    1  0.3271306E-002  0.1250002E+03  0.7818608E-02  0.1235069E+00
          4   -1    0    0  501    0  0.00000000000E+00  0.00000000000E+00  0.11174119570E+02  0.11246059228E+02  0.12700000000E+01 0.  1.
         -4   -1    0    0    0  501 -0.00000000000E+00 -0.00000000000E+00 -0.34838639572E+03  0.34838871053E+03  0.12700000000E+01 0.  1.
         25    2    1    2    0    0  0.00000000000E+00  0.00000000000E+00 -0.33721227615E+03  0.35963476976E+03  0.12500019372E+03 0.  0.
    9000005    1    3    3    0    0 -0.51534540571E+01  0.65441749988E+01 -0.34679615463E+03  0.34689761772E+03  0.10000000000E+01 0.  0.
    9000005    1    3    3    0    0  0.51534540571E+01 -0.65441749988E+01  0.95838784815E+01  0.12737152032E+02  0.10000000000E+01 0.  0.
<mgrwt>
<rscale>  0 0.12500019E+03</rscale>
<asrwt>0</asrwt>
<pdfrwt beam="1">  1        4 0.17248075E-02 0.12500019E+03</pdfrwt>
<pdfrwt beam="2">  1       -4 0.53603611E-01 0.12500019E+03</pdfrwt>
<totfact> 0.68677168E+03</totfact>
</mgrwt>
</event>
<event>
 5    1  0.3271306E-002  0.1250011E+03  0.7818608E-02  0.1235068E+00
          4   -1    0    0  501    0  0.00000000000E+00  0.00000000000E+00  0.15091132183E+02  0.15144476569E+02  0.12700000000E+01 0.  1.
         -4   -1    0    0    0  501 -0.00000000000E+00 -0.00000000000E+00 -0.25833690981E+03  0.25834003149E+03  0.12700000000E+01 0.  1.
         25    2    1    2    0    0  0.00000000000E+00  0.00000000000E+00 -0.24324577763E+03  0.27348450806E+03  0.12500107126E+03 0.  0.
    9000005    1    3    3    0    0 -0.44785187146E+02 -0.33723537101E+02 -0.61215557560E+02  0.83014061638E+02  0.10000000000E+01 0.  0.
    9000005    1    3    3    0    0  0.44785187146E+02  0.33723537101E+02 -0.18203022007E+03  0.19047044642E+03  0.10000000000E+01 0.  0.
<mgrwt>
<rscale>  0 0.12500107E+03</rscale>
<asrwt>0</asrwt>
<pdfrwt beam="1">  1        4 0.23260564E-02 0.12500107E+03</pdfrwt>
<pdfrwt beam="2">  1       -4 0.39748480E-01 0.12500107E+03</pdfrwt>
<totfact> 0.79048138E+03</totfact>
</mgrwt>
</event>
<event>
 5    1  0.3271306E-002  0.1249984E+03  0.7818608E-02  0.1235072E+00
         -4   -1    0    0    0  501 -0.00000000000E+00  0.00000000000E+00  0.49794981544E+02  0.49811174318E+02  0.12700000000E+01 0.  1.
          4   -1    0    0  501    0  0.00000000000E+00 -0.00000000000E+00 -0.78410544711E+02  0.78420829005E+02  0.12700000000E+01 0.  1.
         25    2    1    2    0    0  0.00000000000E+00  0.00000000000E+00 -0.28615563167E+02  0.12823200332E+03  0.12499838487E+03 0.  0.
    9000005    1    3    3    0    0  0.62036398962E+02  0.51861307881E+01 -0.19902138135E+02  0.65364408137E+02  0.10000000000E+01 0.  0.
    9000005    1    3    3    0    0 -0.62036398962E+02 -0.51861307881E+01 -0.87134250312E+01  0.62867595186E+02  0.10000000000E+01 0.  0.
<mgrwt>
<rscale>  0 0.12499838E+03</rscale>
<asrwt>0</asrwt>
<pdfrwt beam="2">  1        4 0.12065198E-01 0.12499838E+03</pdfrwt>
<pdfrwt beam="1">  1       -4 0.76628030E-02 0.12499838E+03</pdfrwt>
<totfact> 0.10382859E+04</totfact>
</mgrwt>
</event>
<event>
 5    1  0.3271306E-002  0.1250075E+03  0.7818608E-02  0.1235058E+00
         -4   -1    0    0    0  501 -0.00000000000E+00  0.00000000000E+00  0.24428026472E+03  0.24428356603E+03  0.12700000000E+01 0.  1.
          4   -1    0    0  501    0  0.00000000000E+00 -0.00000000000E+00 -0.15964134229E+02  0.16014570918E+02  0.12700000000E+01 0.  1.
         25    2    1    2    0    0  0.00000000000E+00  0.00000000000E+00  0.22831613049E+03  0.26029813695E+03  0.12500745840E+03 0.  0.
    9000005    1    3    3    0    0 -0.27244654574E+02 -0.11750501103E+02 -0.37329838108E+00  0.29689810217E+02  0.10000000000E+01 0.  0.
    9000005    1    3    3    0    0  0.27244654574E+02  0.11750501103E+02  0.22868942887E+03  0.23060832673E+03  0.10000000000E+01 0.  0.
<mgrwt>
<rscale>  0 0.12500746E+03</rscale>
<asrwt>0</asrwt>
<pdfrwt beam="2">  1        4 0.24601544E-02 0.12500746E+03</pdfrwt>
<pdfrwt beam="1">  1       -4 0.37585713E-01 0.12500746E+03</pdfrwt>
<totfact> 0.80850815E+03</totfact>
</mgrwt>
</event>
<event>
 5    1  0.3271306E-002  0.1250010E+03  0.7818608E-02  0.1235068E+00
          4   -1    0    0  501    0  0.00000000000E+00  0.00000000000E+00  0.11526048740E+03  0.11526748395E+03  0.12700000000E+01 0. -1.
         -4   -1    0    0    0  501 -0.00000000000E+00 -0.00000000000E+00 -0.33871244994E+02  0.33895045913E+02  0.12700000000E+01 0. -1.
         25    2    1    2    0    0  0.00000000000E+00  0.00000000000E+00  0.81389242408E+02  0.14916252986E+03  0.12500100614E+03 0.  0.
    9000005    1    3    3    0    0 -0.13057252550E+01  0.60742685346E+02  0.23240970431E+02  0.65057831566E+02  0.10000000000E+01 0.  0.
    9000005    1    3    3    0    0  0.13057252550E+01 -0.60742685346E+02  0.58148271977E+02  0.84104698296E+02  0.10000000000E+01 0.  0.
<mgrwt>
<rscale>  0 0.12500101E+03</rscale>
<asrwt>0</asrwt>
<pdfrwt beam="1">  1        4 0.17734752E-01 0.12500101E+03</pdfrwt>
<pdfrwt beam="2">  1       -4 0.52133297E-02 0.12500101E+03</pdfrwt>
<totfact> 0.99468644E+03</totfact>
</mgrwt>
</event>
<event>
 5    1  0.3271306E-002  0.1250006E+03  0.7818608E-02  0.1235068E+00
         -4   -1    0    0    0  501 -0.00000000000E+00  0.00000000000E+00  0.93779388499E+01  0.94635425224E+01  0.12700000000E+01 0. -1.
          4   -1    0    0  501    0  0.00000000000E+00 -0.00000000000E+00 -0.41456105350E+03  0.41456299881E+03  0.12700000000E+01 0. -1.
         25    2    1    2    0    0  0.00000000000E+00  0.00000000000E+00 -0.40518311465E+03  0.42402654133E+03  0.12500060541E+03 0.  0.
    9000005    1    3    3    0    0  0.82053707048E+01  0.83857935631E+01 -0.41080823887E+03  0.41097695649E+03  0.10000000000E+01 0.  0.
    9000005    1    3    3    0    0 -0.82053707048E+01 -0.83857935631E+01  0.56251242169E+01  0.13049584842E+02  0.10000000000E+01 0.  0.
<mgrwt>
<rscale>  0 0.12500061E+03</rscale>
<asrwt>0</asrwt>
<pdfrwt beam="2">  1        4 0.63785344E-01 0.12500061E+03</pdfrwt>
<pdfrwt beam="1">  1       -4 0.14494947E-02 0.12500061E+03</pdfrwt>
<totfact> 0.62280381E+03</totfact>
</mgrwt>
</event>
<event>
 5    1  0.3271306E-002  0.1250048E+03  0.7818608E-02  0.1235062E+00
         -4   -1    0    0    0  501 -0.00000000000E+00  0.00000000000E+00  0.12182070094E+03  0.12182732073E+03  0.12700000000E+01 0. -1.
          4   -1    0    0  501    0  0.00000000000E+00 -0.00000000000E+00 -0.32047941275E+02  0.32073095267E+02  0.12700000000E+01 0. -1.
         25    2    1    2    0    0  0.00000000000E+00  0.00000000000E+00  0.89772759664E+02  0.15390041600E+03  0.12500475858E+03 0.  0.
    9000005    1    3    3    0    0 -0.18463209261E+02 -0.59347335425E+02  0.52917361542E+02  0.81634817761E+02  0.10000000000E+01 0.  0.
    9000005    1    3    3    0    0  0.18463209261E+02  0.59347335425E+02  0.36855398123E+02  0.72265598241E+02  0.10000000000E+01 0.  0.
<mgrwt>
<rscale>  0 0.12500476E+03</rscale>
<asrwt>0</asrwt>
<pdfrwt beam="2">  1        4 0.49328966E-02 0.12500476E+03</pdfrwt>
<pdfrwt beam="1">  1       -4 0.18744090E-01 0.12500476E+03</pdfrwt>
<totfact> 0.98521249E+03</totfact>
</mgrwt>
</event>
<event>
 5    1  0.3271306E-002  0.1249997E+03  0.7818608E-02  0.1235070E+00
          4   -1    0    0  501    0  0.00000000000E+00  0.00000000000E+00  0.98760547902E+03  0.98760629559E+03  0.12700000000E+01 0.  1.
         -4   -1    0    0    0  501 -0.00000000000E+00 -0.00000000000E+00 -0.38524698024E+01  0.40564052533E+01  0.12700000000E+01 0.  1.
         25    2    1    2    0    0  0.00000000000E+00  0.00000000000E+00  0.98375300922E+03  0.99166270084E+03  0.12499971640E+03 0.  0.
    9000005    1    3    3    0    0  0.76199864914E+01 -0.62018474711E+02  0.48444761456E+03  0.48846171463E+03  0.10000000000E+01 0.  0.
    9000005    1    3    3    0    0 -0.76199864914E+01  0.62018474711E+02  0.49930539465E+03  0.50320098622E+03  0.10000000000E+01 0.  0.
<mgrwt>
<rscale>  0 0.12499972E+03</rscale>
<asrwt>0</asrwt>
<pdfrwt beam="1">  1        4 0.15195524E+00 0.12499972E+03</pdfrwt>
<pdfrwt beam="2">  1       -4 0.60843707E-03 0.12499972E+03</pdfrwt>
<totfact> 0.30881520E+03</totfact>
</mgrwt>
</event>
<event>
 5    1  0.3271306E-002  0.1249994E+03  0.7818608E-02  0.1235070E+00
          4   -1    0    0  501    0  0.00000000000E+00  0.00000000000E+00  0.91944925355E+01  0.92817882428E+01  0.12700000000E+01 0.  1.
         -4   -1    0    0    0  501 -0.00000000000E+00 -0.00000000000E+00 -0.42274743500E+03  0.42274934263E+03  0.12700000000E+01 0.  1.
         25    2    1    2    0    0  0.00000000000E+00  0.00000000000E+00 -0.41355294246E+03  0.43203113088E+03  0.12499944731E+03 0.  0.
    9000005    1    3    3    0    0 -0.54550228645E+02  0.18518313912E+02 -0.29048374418E+03  0.29614263629E+03  0.10000000000E+01 0.  0.
    9000005    1    3    3    0    0  0.54550228645E+02 -0.18518313912E+02 -0.12306919828E+03  0.13588849459E+03  0.10000000000E+01 0.  0.
<mgrwt>
<rscale>  0 0.12499945E+03</rscale>
<asrwt>0</asrwt>
<pdfrwt beam="1">  1        4 0.14213994E-02 0.12499945E+03</pdfrwt>
<pdfrwt beam="2">  1       -4 0.65044914E-01 0.12499945E+03</pdfrwt>
<totfact> 0.61553069E+03</totfact>
</mgrwt>
</event>
<event>
 5    1  0.3271306E-002  0.1249986E+03  0.7818608E-02  0.1235071E+00
         -4   -1    0    0    0  501 -0.00000000000E+00  0.00000000000E+00  0.92702154743E+02  0.92710853701E+02  0.12700000000E+01 0. -1.
          4   -1    0    0  501    0  0.00000000000E+00 -0.00000000000E+00 -0.42116466714E+02  0.42135610455E+02  0.12700000000E+01 0. -1.
         25    2    1    2    0    0  0.00000000000E+00  0.00000000000E+00  0.50585688030E+02  0.13484646416E+03  0.12499862824E+03 0.  0.
    9000005    1    3    3    0    0  0.30954469999E+02 -0.53932189902E+02  0.31969454934E+02  0.69927865471E+02  0.10000000000E+01 0.  0.
    9000005    1    3    3    0    0 -0.30954469999E+02  0.53932189902E+02  0.18616233096E+02  0.64918598685E+02  0.10000000000E+01 0.  0.
<mgrwt>
<rscale>  0 0.12499863E+03</rscale>
<asrwt>0</asrwt>
<pdfrwt beam="2">  1        4 0.64815982E-02 0.12499863E+03</pdfrwt>
<pdfrwt beam="1">  1       -4 0.14264012E-01 0.12499863E+03</pdfrwt>
<totfact> 0.10241625E+04</totfact>
</mgrwt>
</event>
<event>
 5    1  0.3271306E-002  0.1250005E+03  0.7818608E-02  0.1235068E+00
          4   -1    0    0  501    0  0.00000000000E+00  0.00000000000E+00  0.27979562688E+03  0.27979850914E+03  0.12700000000E+01 0.  1.
         -4   -1    0    0    0  501 -0.00000000000E+00 -0.00000000000E+00 -0.13929359294E+02  0.13987135173E+02  0.12700000000E+01 0.  1.
         25    2    1    2    0    0  0.00000000000E+00  0.00000000000E+00  0.26586626758E+03  0.29378564432E+03  0.12500053027E+03 0.  0.
    9000005    1    3    3    0    0  0.46100095776E+02  0.26104921227E+02  0.21083323077E+03  0.21738982713E+03  0.10000000000E+01 0.  0.
    9000005    1    3    3    0    0 -0.46100095776E+02 -0.26104921227E+02  0.55033036814E+02  0.76395817187E+02  0.10000000000E+01 0.  0.
<mgrwt>
<rscale>  0 0.12500053E+03</rscale>
<asrwt>0</asrwt>
<pdfrwt beam="1">  1        4 0.43050144E-01 0.12500053E+03</pdfrwt>
<pdfrwt beam="2">  1       -4 0.21476445E-02 0.12500053E+03</pdfrwt>
<totfact> 0.76384128E+03</totfact>
</mgrwt>
</event>
<event>
 5    1  0.3271306E-002  0.1249996E+03  0.7818608E-02  0.1235070E+00
         -4   -1    0    0    0  501 -0.00000000000E+00  0.00000000000E+00  0.43685590748E+02  0.43704047170E+02  0.12700000000E+01 0.  1.
          4   -1    0    0  501    0  0.00000000000E+00 -0.00000000000E+00 -0.89374896510E+02  0.89383919282E+02  0.12700000000E+01 0.  1.
         25    2    1    2    0    0  0.00000000000E+00  0.00000000000E+00 -0.45689305762E+02  0.13308796645E+03  0.12499957661E+03 0.  0.
    9000005    1    3    3    0    0  0.36352614900E+02 -0.46875691074E+02 -0.43773140981E+02  0.73728765723E+02  0.10000000000E+01 0.  0.
    9000005    1    3    3    0    0 -0.36352614900E+02  0.46875691074E+02 -0.19161647816E+01  0.59359200729E+02  0.10000000000E+01 0.  0.
<mgrwt>
<rscale>  0 0.12499958E+03</rscale>
<asrwt>0</asrwt>
<pdfrwt beam="2">  1        4 0.13752098E-01 0.12499958E+03</pdfrwt>
<pdfrwt beam="1">  1       -4 0.67229739E-02 0.12499958E+03</pdfrwt>
<totfact> 0.10278629E+04</totfact>
</mgrwt>
</event>
<event>
 5    1  0.3271306E-002  0.1249936E+03  0.7818608E-02  0.1235079E+00
         -4   -1    0    0    0  501 -0.00000000000E+00  0.00000000000E+00  0.21215569979E+02  0.21253548164E+02  0.12700000000E+01 0.  1.
          4   -1    0    0  501    0  0.00000000000E+00 -0.00000000000E+00 -0.18389807612E+03  0.18390246138E+03  0.12700000000E+01 0.  1.
         25    2    1    2    0    0  0.00000000000E+00  0.00000000000E+00 -0.16268250614E+03  0.20515600954E+03  0.12499356162E+03 0.  0.
    9000005    1    3    3    0    0 -0.61194685973E+02  0.10239358098E+02 -0.69145194566E+02  0.92906899513E+02  0.10000000000E+01 0.  0.
    9000005    1    3    3    0    0  0.61194685973E+02 -0.10239358098E+02 -0.93537311578E+02  0.11224911003E+03  0.10000000000E+01 0.  0.
<mgrwt>
<rscale>  0 0.12499356E+03</rscale>
<asrwt>0</asrwt>
<pdfrwt beam="2">  1        4 0.28295269E-01 0.12499356E+03</pdfrwt>
<pdfrwt beam="1">  1       -4 0.32671927E-02 0.12499356E+03</pdfrwt>
<totfact> 0.89285987E+03</totfact>
</mgrwt>
</event>
<event>
 5    1  0.3271306E-002  0.1250019E+03  0.7818608E-02  0.1235066E+00
         -4   -1    0    0    0  501 -0.00000000000E+00  0.00000000000E+00  0.60667832259E+02  0.60681123680E+02  0.12700000000E+01 0. -1.
          4   -1    0    0  501    0  0.00000000000E+00 -0.00000000000E+00 -0.64362888546E+02  0.64375417063E+02  0.12700000000E+01 0. -1.
         25    2    1    2    0    0  0.00000000000E+00  0.00000000000E+00 -0.36950562867E+01  0.12505654074E+03  0.12500193975E+03 0.  0.
    9000005    1    3    3    0    0  0.14487405979E+02 -0.56327253178E+02 -0.24720735351E+02  0.63204106978E+02  0.10000000000E+01 0.  0.
    9000005    1    3    3    0    0 -0.14487405979E+02  0.56327253178E+02  0.21025679065E+02  0.61852433765E+02  0.10000000000E+01 0.  0.
<mgrwt>
<rscale>  0 0.12500194E+03</rscale>
<asrwt>0</asrwt>
<pdfrwt beam="2">  1        4 0.99039690E-02 0.12500194E+03</pdfrwt>
<pdfrwt beam="1">  1       -4 0.93354988E-02 0.12500194E+03</pdfrwt>
<totfact> 0.10451176E+04</totfact>
</mgrwt>
</event>
<event>
 5    1  0.3271306E-002  0.1250043E+03  0.7818608E-02  0.1235063E+00
         -4   -1    0    0    0  501 -0.00000000000E+00  0.00000000000E+00  0.12996670178E+02  0.13058573265E+02  0.12700000000E+01 0. -1.
          4   -1    0    0  501    0  0.00000000000E+00 -0.00000000000E+00 -0.29980087125E+03  0.29980356119E+03  0.12700000000E+01 0. -1.
         25    2    1    2    0    0  0.00000000000E+00  0.00000000000E+00 -0.28680420107E+03  0.31286213445E+03  0.12500426162E+03 0.  0.
    9000005    1    3    3    0    0 -0.56632133749E+02 -0.74344332578E+01 -0.79934871444E+02  0.98249951876E+02  0.10000000000E+01 0.  0.
    9000005    1    3    3    0    0  0.56632133749E+02  0.74344332578E+01 -0.20686932962E+03  0.21461218257E+03  0.10000000000E+01 0.  0.
<mgrwt>
<rscale>  0 0.12500426E+03</rscale>
<asrwt>0</asrwt>
<pdfrwt beam="2">  1        4 0.46128174E-01 0.12500426E+03</pdfrwt>
<pdfrwt beam="1">  1       -4 0.20044566E-02 0.12500426E+03</pdfrwt>
<totfact> 0.74006208E+03</totfact>
</mgrwt>
</event>
<event>
 5    1  0.3271306E-002  0.1249982E+03  0.7818608E-02  0.1235072E+00
          4   -1    0    0  501    0  0.00000000000E+00  0.00000000000E+00  0.17635841563E+02  0.17681510333E+02  0.12700000000E+01 0. -1.
         -4   -1    0    0    0  501 -0.00000000000E+00 -0.00000000000E+00 -0.22115450950E+03  0.22115815601E+03  0.12700000000E+01 0. -1.
         25    2    1    2    0    0  0.00000000000E+00  0.00000000000E+00 -0.20351866794E+03  0.23883966635E+03  0.12499815208E+03 0.  0.
    9000005    1    3    3    0    0  0.55658479125E+02  0.27411148872E+02 -0.11604490474E+03  0.13159277069E+03  0.10000000000E+01 0.  0.
    9000005    1    3    3    0    0 -0.55658479125E+02 -0.27411148872E+02 -0.87473763194E+02  0.10724689566E+03  0.10000000000E+01 0.  0.
<mgrwt>
<rscale>  0 0.12499815E+03</rscale>
<asrwt>0</asrwt>
<pdfrwt beam="1">  1        4 0.27170000E-02 0.12499815E+03</pdfrwt>
<pdfrwt beam="2">  1       -4 0.34027562E-01 0.12499815E+03</pdfrwt>
<totfact> 0.83973943E+03</totfact>
</mgrwt>
</event>
<event>
 5    1  0.3271306E-002  0.1250024E+03  0.7818608E-02  0.1235065E+00
         -4   -1    0    0    0  501 -0.00000000000E+00  0.00000000000E+00  0.36572407168E+02  0.36594451302E+02  0.12700000000E+01 0. -1.
          4   -1    0    0  501    0  0.00000000000E+00 -0.00000000000E+00 -0.10675483745E+03  0.10676239141E+03  0.12700000000E+01 0. -1.
         25    2    1    2    0    0  0.00000000000E+00  0.00000000000E+00 -0.70182430283E+02  0.14335684271E+03  0.12500244330E+03 0.  0.
    9000005    1    3    3    0    0 -0.24822733318E+02  0.46605289248E+02  0.32408148393E+01  0.52912417788E+02  0.10000000000E+01 0.  0.
    9000005    1    3    3    0    0  0.24822733318E+02 -0.46605289248E+02 -0.73423245122E+02  0.90444424923E+02  0.10000000000E+01 0.  0.
<mgrwt>
<rscale>  0 0.12500244E+03</rscale>
<asrwt>0</asrwt>
<pdfrwt beam="2">  1        4 0.16426098E-01 0.12500244E+03</pdfrwt>
<pdfrwt beam="1">  1       -4 0.56288010E-02 0.12500244E+03</pdfrwt>
<totfact> 0.10063927E+04</totfact>
</mgrwt>
</event>
<event>
 5    1  0.3271306E-002  0.1250004E+03  0.7818608E-02  0.1235069E+00
         -4   -1    0    0    0  501 -0.00000000000E+00  0.00000000000E+00  0.78795307376E+01  0.79812220020E+01  0.12700000000E+01 0.  1.
          4   -1    0    0  501    0  0.00000000000E+00 -0.00000000000E+00 -0.49246905775E+03  0.49247069531E+03  0.12700000000E+01 0.  1.
         25    2    1    2    0    0  0.00000000000E+00  0.00000000000E+00 -0.48458952701E+03  0.50045191731E+03  0.12500044741E+03 0.  0.
    9000005    1    3    3    0    0 -0.56129700119E+02  0.19040711179E+02 -0.16300869955E+03  0.17345295629E+03  0.10000000000E+01 0.  0.
    9000005    1    3    3    0    0  0.56129700119E+02 -0.19040711179E+02 -0.32158082746E+03  0.32699896102E+03  0.10000000000E+01 0.  0.
<mgrwt>
<rscale>  0 0.12500045E+03</rscale>
<asrwt>0</asrwt>
<pdfrwt beam="2">  1        4 0.75772395E-01 0.12500045E+03</pdfrwt>
<pdfrwt beam="1">  1       -4 0.12201843E-02 0.12500045E+03</pdfrwt>
<totfact> 0.55828781E+03</totfact>
</mgrwt>
</event>
<event>
 5    1  0.3271306E-002  0.1250028E+03  0.7818608E-02  0.1235065E+00
          4   -1    0    0  501    0  0.00000000000E+00  0.00000000000E+00  0.40686949586E+03  0.40687147794E+03  0.12700000000E+01 0. -1.
         -4   -1    0    0    0  501 -0.00000000000E+00 -0.00000000000E+00 -0.95571648175E+01  0.96411772802E+01  0.12700000000E+01 0. -1.
         25    2    1    2    0    0  0.00000000000E+00  0.00000000000E+00  0.39731233105E+03  0.41651265522E+03  0.12500281421E+03 0.  0.
    9000005    1    3    3    0    0 -0.13975611184E+02  0.36538002720E+02  0.36270472003E+02  0.53356260083E+02  0.10000000000E+01 0.  0.
    9000005    1    3    3    0    0  0.13975611184E+02 -0.36538002720E+02  0.36104185904E+03  0.36315639514E+03  0.10000000000E+01 0.  0.
<mgrwt>
<rscale>  0 0.12500281E+03</rscale>
<asrwt>0</asrwt>
<pdfrwt beam="1">  1        4 0.62601922E-01 0.12500281E+03</pdfrwt>
<pdfrwt beam="2">  1       -4 0.14769480E-02 0.12500281E+03</pdfrwt>
<totfact> 0.62973948E+03</totfact>
</mgrwt>
</event>
<event>
 4    1  0.3271306E-002  0.1251359E+03  0.7818608E-02  0.1234857E+00
         -4   -1    0    0    0  501 -0.00000000000E+00  0.00000000000E+00  0.14840641614E+01  0.19532911803E+01  0.12700000000E+01 0.  1.
          4   -1    0    0  501    0  0.00000000000E+00 -0.00000000000E+00 -0.22772971218E+04  0.22772974759E+04  0.12700000000E+01 0.  1.
    9000005    1    1    2    0    0 -0.55345109118E+02  0.22272501581E+02 -0.14808956280E+04  0.14820971649E+04  0.10000000000E+01 0.  0.
    9000005    1    1    2    0    0  0.55345109118E+02 -0.22272501581E+02 -0.79491742964E+03  0.79715360212E+03  0.10000000000E+01 0.  0.
<mgrwt>
<rscale>  0 0.12513587E+03</rscale>
<asrwt>0</asrwt>
<pdfrwt beam="2">  1        4 0.35038711E+00 0.12513587E+03</pdfrwt>
<pdfrwt beam="1">  1       -4 0.26444101E-03 0.12513587E+03</pdfrwt>
<totfact> 0.66227748E+02</totfact>
</mgrwt>
</event>
<event>
 5    1  0.3271306E-002  0.1249981E+03  0.7818608E-02  0.1235072E+00
          4   -1    0    0  501    0  0.00000000000E+00  0.00000000000E+00  0.45748287774E+03  0.45748464053E+03  0.12700000000E+01 0.  1.
         -4   -1    0    0    0  501 -0.00000000000E+00 -0.00000000000E+00 -0.84892933770E+01  0.85837638621E+01  0.12700000000E+01 0.  1.
         25    2    1    2    0    0  0.00000000000E+00  0.00000000000E+00  0.44899358436E+03  0.46606840439E+03  0.12499807510E+03 0.  0.
    9000005    1    3    3    0    0 -0.22435816126E+02  0.63411918301E+01  0.83163865464E+01  0.24773753133E+02  0.10000000000E+01 0.  0.
    9000005    1    3    3    0    0  0.22435816126E+02 -0.63411918301E+01  0.44067719781E+03  0.44129465126E+03  0.10000000000E+01 0.  0.
<mgrwt>
<rscale>  0 0.12499808E+03</rscale>
<asrwt>0</asrwt>
<pdfrwt beam="1">  1        4 0.70389387E-01 0.12499808E+03</pdfrwt>
<pdfrwt beam="2">  1       -4 0.13134476E-02 0.12499808E+03</pdfrwt>
<totfact> 0.58599112E+03</totfact>
</mgrwt>
</event>
<event>
 5    1  0.3271306E-002  0.1250009E+03  0.7818608E-02  0.1235068E+00
         -4   -1    0    0    0  501 -0.00000000000E+00  0.00000000000E+00  0.30640026723E+02  0.30666335575E+02  0.12700000000E+01 0. -1.
          4   -1    0    0  501    0  0.00000000000E+00 -0.00000000000E+00 -0.12740601976E+03  0.12741234937E+03  0.12700000000E+01 0. -1.
         25    2    1    2    0    0  0.00000000000E+00  0.00000000000E+00 -0.96765993040E+02  0.15807868495E+03  0.12500085290E+03 0.  0.
    9000005    1    3    3    0    0 -0.35436586084E+02 -0.51378429483E+02 -0.52343634130E+02  0.81463799834E+02  0.10000000000E+01 0.  0.
    9000005    1    3    3    0    0  0.35436586084E+02  0.51378429483E+02 -0.44422358910E+02  0.76614885111E+02  0.10000000000E+01 0.  0.
<mgrwt>
<rscale>  0 0.12500085E+03</rscale>
<asrwt>0</asrwt>
<pdfrwt beam="2">  1        4 0.19603436E-01 0.12500085E+03</pdfrwt>
<pdfrwt beam="1">  1       -4 0.47163610E-02 0.12500085E+03</pdfrwt>
<totfact> 0.97712610E+03</totfact>
</mgrwt>
</event>
<event>
 5    1  0.3271306E-002  0.1249995E+03  0.7818608E-02  0.1235070E+00
          4   -1    0    0  501    0  0.00000000000E+00  0.00000000000E+00  0.52264298790E+02  0.52279726740E+02  0.12700000000E+01 0. -1.
         -4   -1    0    0    0  501 -0.00000000000E+00 -0.00000000000E+00 -0.74707896537E+02  0.74718690466E+02  0.12700000000E+01 0. -1.
         25    2    1    2    0    0  0.00000000000E+00  0.00000000000E+00 -0.22443597747E+02  0.12699841721E+03  0.12499953157E+03 0.  0.
    9000005    1    3    3    0    0  0.55193519111E+02 -0.25702804885E+02 -0.25527516746E+02  0.66027364343E+02  0.10000000000E+01 0.  0.
    9000005    1    3    3    0    0 -0.55193519111E+02  0.25702804885E+02  0.30839189984E+01  0.60971052863E+02  0.10000000000E+01 0.  0.
<mgrwt>
<rscale>  0 0.12499953E+03</rscale>
<asrwt>0</asrwt>
<pdfrwt beam="1">  1        4 0.80426785E-02 0.12499953E+03</pdfrwt>
<pdfrwt beam="2">  1       -4 0.11495540E-01 0.12499953E+03</pdfrwt>
<totfact> 0.10409290E+04</totfact>
</mgrwt>
</event>
<event>
 5    1  0.3271306E-002  0.1250010E+03  0.7818608E-02  0.1235068E+00
         -4   -1    0    0    0  501 -0.00000000000E+00  0.00000000000E+00  0.52292654426E+02  0.52308074013E+02  0.12700000000E+01 0.  1.
          4   -1    0    0  501    0  0.00000000000E+00 -0.00000000000E+00 -0.74669156141E+02  0.74679955670E+02  0.12700000000E+01 0.  1.
         25    2    1    2    0    0  0.00000000000E+00  0.00000000000E+00 -0.22376501715E+02  0.12698802968E+03  0.12500100741E+03 0.  0.
    9000005    1    3    3    0    0  0.40901234525E+02  0.53858298077E+01 -0.58874749231E+02  0.71896830566E+02  0.10000000000E+01 0.  0.
    9000005    1    3    3    0    0 -0.40901234525E+02 -0.53858298077E+01  0.36498247516E+02  0.55091199117E+02  0.10000000000E+01 0.  0.
<mgrwt>
<rscale>  0 0.12500101E+03</rscale>
<asrwt>0</asrwt>
<pdfrwt beam="2">  1        4 0.11489579E-01 0.12500101E+03</pdfrwt>
<pdfrwt beam="1">  1       -4 0.80470406E-02 0.12500101E+03</pdfrwt>
<totfact> 0.10409169E+04</totfact>
</mgrwt>
</event>
<event>
 5    1  0.3271306E-002  0.1250049E+03  0.7818608E-02  0.1235062E+00
         -4   -1    0    0    0  501 -0.00000000000E+00  0.00000000000E+00  0.17759270114E+03  0.17759724209E+03  0.12700000000E+01 0.  1.
          4   -1    0    0  501    0  0.00000000000E+00 -0.00000000000E+00 -0.21974115805E+02  0.22010785206E+02  0.12700000000E+01 0.  1.
         25    2    1    2    0    0  0.00000000000E+00  0.00000000000E+00  0.15561858533E+03  0.19960802729E+03  0.12500488174E+03 0.  0.
    9000005    1    3    3    0    0 -0.19066849892E+02 -0.49885430206E+02  0.12963662545E+03  0.14020968430E+03  0.10000000000E+01 0.  0.
    9000005    1    3    3    0    0  0.19066849892E+02  0.49885430206E+02  0.25981959877E+02  0.59398342996E+02  0.10000000000E+01 0.  0.
<mgrwt>
<rscale>  0 0.12500488E+03</rscale>
<asrwt>0</asrwt>
<pdfrwt beam="2">  1        4 0.33838032E-02 0.12500488E+03</pdfrwt>
<pdfrwt beam="1">  1       -4 0.27325124E-01 0.12500488E+03</pdfrwt>
<totfact> 0.90191804E+03</totfact>
</mgrwt>
</event>
<event>
 5    1  0.3271306E-002  0.1250036E+03  0.7818608E-02  0.1235064E+00
         -4   -1    0    0    0  501 -0.00000000000E+00  0.00000000000E+00  0.29301423856E+02  0.29328933496E+02  0.12700000000E+01 0.  1.
          4   -1    0    0  501    0  0.00000000000E+00 -0.00000000000E+00 -0.13322721931E+03  0.13323327236E+03  0.12700000000E+01 0.  1.
         25    2    1    2    0    0  0.00000000000E+00  0.00000000000E+00 -0.10392579545E+03  0.16256220586E+03  0.12500359920E+03 0.  0.
    9000005    1    3    3    0    0 -0.61436380993E+02 -0.92506655466E+01 -0.43193587763E+02  0.75674895086E+02  0.10000000000E+01 0.  0.
    9000005    1    3    3    0    0  0.61436380993E+02  0.92506655466E+01 -0.60732207690E+02  0.86887310773E+02  0.10000000000E+01 0.  0.
<mgrwt>
<rscale>  0 0.12500360E+03</rscale>
<asrwt>0</asrwt>
<pdfrwt beam="2">  1        4 0.20499077E-01 0.12500360E+03</pdfrwt>
<pdfrwt beam="1">  1       -4 0.45104932E-02 0.12500360E+03</pdfrwt>
<totfact> 0.96843242E+03</totfact>
</mgrwt>
</event>
<event>
 5    1  0.3271306E-002  0.1249920E+03  0.7818608E-02  0.1235082E+00
          4   -1    0    0  501    0  0.00000000000E+00  0.00000000000E+00  0.41252885657E+03  0.41253081146E+03  0.12700000000E+01 0.  1.
         -4   -1    0    0    0  501 -0.00000000000E+00 -0.00000000000E+00 -0.94232469309E+01  0.95084427075E+01  0.12700000000E+01 0.  1.
         25    2    1    2    0    0  0.00000000000E+00  0.00000000000E+00  0.40310560964E+03  0.42203925417E+03  0.12499199788E+03 0.  0.
    9000005    1    3    3    0    0  0.13214012547E+01  0.62233288378E+02  0.18305213065E+03  0.19334893539E+03  0.10000000000E+01 0.  0.
    9000005    1    3    3    0    0 -0.13214012547E+01 -0.62233288378E+02  0.22005347899E+03  0.22869031877E+03  0.10000000000E+01 0.  0.
<mgrwt>
<rscale>  0 0.12499200E+03</rscale>
<asrwt>0</asrwt>
<pdfrwt beam="1">  1        4 0.63472688E-01 0.12499200E+03</pdfrwt>
<pdfrwt beam="2">  1       -4 0.14564341E-02 0.12499200E+03</pdfrwt>
<totfact> 0.62475293E+03</totfact>
</mgrwt>
</event>
<event>
 5    1  0.3271306E-002  0.1249989E+03  0.7818608E-02  0.1235071E+00
          4   -1    0    0  501    0  0.00000000000E+00  0.00000000000E+00  0.28478622559E+01  0.31182077270E+01  0.12700000000E+01 0.  1.
         -4   -1    0    0    0  501 -0.00000000000E+00 -0.00000000000E+00 -0.13091948574E+04  0.13091954734E+04  0.12700000000E+01 0.  1.
         25    2    1    2    0    0  0.00000000000E+00  0.00000000000E+00 -0.13063469952E+04  0.13123136812E+04  0.12499890369E+03 0.  0.
    9000005    1    3    3    0    0  0.22175724116E+02  0.54642587909E+02 -0.43607665169E+03  0.44004706714E+03  0.10000000000E+01 0.  0.
    9000005    1    3    3    0    0 -0.22175724116E+02 -0.54642587909E+02 -0.87027034349E+03  0.87226661401E+03  0.10000000000E+01 0.  0.
<mgrwt>
<rscale>  0 0.12499890E+03</rscale>
<asrwt>0</asrwt>
<pdfrwt beam="1">  1        4 0.45897689E-03 0.12499890E+03</pdfrwt>
<pdfrwt beam="2">  1       -4 0.20143498E+00 0.12499890E+03</pdfrwt>
<totfact> 0.21940340E+03</totfact>
</mgrwt>
</event>
<event>
 5    1  0.3271306E-002  0.1249985E+03  0.7818608E-02  0.1235072E+00
          4   -1    0    0  501    0  0.00000000000E+00  0.00000000000E+00  0.14986759823E+03  0.14987297922E+03  0.12700000000E+01 0. -1.
         -4   -1    0    0    0  501 -0.00000000000E+00 -0.00000000000E+00 -0.26042714692E+02  0.26073662737E+02  0.12700000000E+01 0. -1.
         25    2    1    2    0    0  0.00000000000E+00  0.00000000000E+00  0.12382488354E+03  0.17594664195E+03  0.12499847612E+03 0.  0.
    9000005    1    3    3    0    0 -0.33017020379E+01 -0.59499064948E+02  0.35424494808E+02  0.69332061836E+02  0.10000000000E+01 0.  0.
    9000005    1    3    3    0    0  0.33017020379E+01  0.59499064948E+02  0.88400388730E+02  0.10661458012E+03  0.10000000000E+01 0.  0.
<mgrwt>
<rscale>  0 0.12499848E+03</rscale>
<asrwt>0</asrwt>
<pdfrwt beam="1">  1        4 0.23059348E-01 0.12499848E+03</pdfrwt>
<pdfrwt beam="2">  1       -4 0.40093661E-02 0.12499848E+03</pdfrwt>
<totfact> 0.94354976E+03</totfact>
</mgrwt>
</event>
<event>
 5    1  0.3271306E-002  0.1250026E+03  0.7818608E-02  0.1235065E+00
          4   -1    0    0  501    0  0.00000000000E+00  0.00000000000E+00  0.81903906923E+01  0.82882687995E+01  0.12700000000E+01 0. -1.
         -4   -1    0    0    0  501 -0.00000000000E+00 -0.00000000000E+00 -0.47401916227E+03  0.47402086357E+03  0.12700000000E+01 0. -1.
         25    2    1    2    0    0  0.00000000000E+00  0.00000000000E+00 -0.46582877158E+03  0.48230913237E+03  0.12500261892E+03 0.  0.
    9000005    1    3    3    0    0 -0.51323950600E+02 -0.29722550693E+02 -0.15692896059E+03  0.16776554055E+03  0.10000000000E+01 0.  0.
    9000005    1    3    3    0    0  0.51323950600E+02  0.29722550693E+02 -0.30889981099E+03  0.31454359182E+03  0.10000000000E+01 0.  0.
<mgrwt>
<rscale>  0 0.12500262E+03</rscale>
<asrwt>0</asrwt>
<pdfrwt beam="1">  1        4 0.12677204E-02 0.12500262E+03</pdfrwt>
<pdfrwt beam="2">  1       -4 0.72933663E-01 0.12500262E+03</pdfrwt>
<totfact> 0.57260279E+03</totfact>
</mgrwt>
</event>
<event>
 5    1  0.3271306E-002  0.1249856E+03  0.7818608E-02  0.1235092E+00
         -4   -1    0    0    0  501 -0.00000000000E+00  0.00000000000E+00  0.20930657971E+02  0.20969152178E+02  0.12700000000E+01 0.  1.
          4   -1    0    0  501    0  0.00000000000E+00 -0.00000000000E+00 -0.18637306668E+03  0.18637739370E+03  0.12700000000E+01 0.  1.
         25    2    1    2    0    0  0.00000000000E+00  0.00000000000E+00 -0.16544240871E+03  0.20734654588E+03  0.12498559713E+03 0.  0.
    9000005    1    3    3    0    0  0.30941505100E+02 -0.48421895436E+02 -0.42007482322E+02  0.71187676367E+02  0.10000000000E+01 0.  0.
    9000005    1    3    3    0    0 -0.30941505100E+02  0.48421895436E+02 -0.12343492639E+03  0.13615886951E+03  0.10000000000E+01 0.  0.
<mgrwt>
<rscale>  0 0.12498560E+03</rscale>
<asrwt>0</asrwt>
<pdfrwt beam="2">  1        4 0.28676072E-01 0.12498560E+03</pdfrwt>
<pdfrwt beam="1">  1       -4 0.32233953E-02 0.12498560E+03</pdfrwt>
<totfact> 0.88939709E+03</totfact>
</mgrwt>
</event>
<event>
 5    1  0.3271306E-002  0.1250014E+03  0.7818608E-02  0.1235067E+00
         -4   -1    0    0    0  501 -0.00000000000E+00  0.00000000000E+00  0.27660041289E+02  0.27689181716E+02  0.12700000000E+01 0.  1.
          4   -1    0    0  501    0  0.00000000000E+00 -0.00000000000E+00 -0.14112030185E+03  0.14112601637E+03  0.12700000000E+01 0.  1.
         25    2    1    2    0    0  0.00000000000E+00  0.00000000000E+00 -0.11346026056E+03  0.16881519808E+03  0.12500136150E+03 0.  0.
    9000005    1    3    3    0    0  0.49481590069E+02 -0.25293894928E+02 -0.18125324495E+02  0.58461408334E+02  0.10000000000E+01 0.  0.
    9000005    1    3    3    0    0 -0.49481590069E+02  0.25293894928E+02 -0.95334936069E+02  0.11035378975E+03  0.10000000000E+01 0.  0.
<mgrwt>
<rscale>  0 0.12500136E+03</rscale>
<asrwt>0</asrwt>
<pdfrwt beam="2">  1        4 0.21713496E-01 0.12500136E+03</pdfrwt>
<pdfrwt beam="1">  1       -4 0.42580722E-02 0.12500136E+03</pdfrwt>
<totfact> 0.95666769E+03</totfact>
</mgrwt>
</event>
<event>
 5    1  0.3271306E-002  0.1250002E+03  0.7818608E-02  0.1235069E+00
         -4   -1    0    0    0  501 -0.00000000000E+00  0.00000000000E+00  0.44836289623E+02  0.44854272563E+02  0.12700000000E+01 0. -1.
          4   -1    0    0  501    0  0.00000000000E+00 -0.00000000000E+00 -0.87082738855E+02  0.87091999096E+02  0.12700000000E+01 0. -1.
         25    2    1    2    0    0  0.00000000000E+00  0.00000000000E+00 -0.42246449232E+02  0.13194627166E+03  0.12500022453E+03 0.  0.
    9000005    1    3    3    0    0  0.47285062115E+02 -0.62555021312E+01 -0.63743297093E+02  0.79619195741E+02  0.10000000000E+01 0.  0.
    9000005    1    3    3    0    0 -0.47285062115E+02  0.62555021312E+01  0.21496847861E+02  0.52327075918E+02  0.10000000000E+01 0.  0.
<mgrwt>
<rscale>  0 0.12500022E+03</rscale>
<asrwt>0</asrwt>
<pdfrwt beam="2">  1        4 0.13399440E-01 0.12500022E+03</pdfrwt>
<pdfrwt beam="1">  1       -4 0.68999863E-02 0.12500022E+03</pdfrwt>
<totfact> 0.10302793E+04</totfact>
</mgrwt>
</event>
<event>
 5    1  0.3271306E-002  0.1250064E+03  0.7818608E-02  0.1235059E+00
         -4   -1    0    0    0  501 -0.00000000000E+00  0.00000000000E+00  0.84927740869E+02  0.84937236057E+02  0.12700000000E+01 0. -1.
          4   -1    0    0  501    0  0.00000000000E+00 -0.00000000000E+00 -0.45978863570E+02  0.45996399807E+02  0.12700000000E+01 0. -1.
         25    2    1    2    0    0  0.00000000000E+00  0.00000000000E+00  0.38948877298E+02  0.13093363586E+03  0.12500640767E+03 0.  0.
    9000005    1    3    3    0    0  0.16244780341E+02  0.46834852864E+02  0.59334810422E+02  0.77324097530E+02  0.10000000000E+01 0.  0.
    9000005    1    3    3    0    0 -0.16244780341E+02 -0.46834852864E+02 -0.20385933123E+02  0.53609538334E+02  0.10000000000E+01 0.  0.
<mgrwt>
<rscale>  0 0.12500641E+03</rscale>
<asrwt>0</asrwt>
<pdfrwt beam="2">  1        4 0.70757506E-02 0.12500641E+03</pdfrwt>
<pdfrwt beam="1">  1       -4 0.13067886E-01 0.12500641E+03</pdfrwt>
<totfact> 0.10323020E+04</totfact>
</mgrwt>
</event>
<event>
 5    1  0.3271306E-002  0.1249992E+03  0.7818608E-02  0.1235071E+00
         -4   -1    0    0    0  501 -0.00000000000E+00  0.00000000000E+00  0.49978377870E+02  0.49994511244E+02  0.12700000000E+01 0.  1.
          4   -1    0    0  501    0  0.00000000000E+00 -0.00000000000E+00 -0.78123852811E+02  0.78134174840E+02  0.12700000000E+01 0.  1.
         25    2    1    2    0    0  0.00000000000E+00  0.00000000000E+00 -0.28145474941E+02  0.12812868608E+03  0.12499916975E+03 0.  0.
    9000005    1    3    3    0    0  0.53928871700E+02 -0.11562337478E+02 -0.44188353744E+02  0.70679710366E+02  0.10000000000E+01 0.  0.
    9000005    1    3    3    0    0 -0.53928871700E+02  0.11562337478E+02  0.16042878804E+02  0.57448975718E+02  0.10000000000E+01 0.  0.
<mgrwt>
<rscale>  0 0.12499917E+03</rscale>
<asrwt>0</asrwt>
<pdfrwt beam="2">  1        4 0.12021089E-01 0.12499917E+03</pdfrwt>
<pdfrwt beam="1">  1       -4 0.76910162E-02 0.12499917E+03</pdfrwt>
<totfact> 0.10384904E+04</totfact>
</mgrwt>
</event>
<event>
 5    1  0.3271306E-002  0.1250013E+03  0.7818608E-02  0.1235067E+00
         -4   -1    0    0    0  501 -0.00000000000E+00  0.00000000000E+00  0.94552841360E+01  0.95401938184E+01  0.12700000000E+01 0. -1.
          4   -1    0    0  501    0  0.00000000000E+00 -0.00000000000E+00 -0.41120455473E+03  0.41120651592E+03  0.12700000000E+01 0. -1.
         25    2    1    2    0    0  0.00000000000E+00  0.00000000000E+00 -0.40174927059E+03  0.42074670973E+03  0.12500126931E+03 0.  0.
    9000005    1    3    3    0    0 -0.12504344258E+02 -0.24234198611E+02 -0.39013726568E+03  0.39109045127E+03  0.10000000000E+01 0.  0.
    9000005    1    3    3    0    0  0.12504344258E+02  0.24234198611E+02 -0.11612004918E+02  0.29656258460E+02  0.10000000000E+01 0.  0.
<mgrwt>
<rscale>  0 0.12500127E+03</rscale>
<asrwt>0</asrwt>
<pdfrwt beam="2">  1        4 0.63268908E-01 0.12500127E+03</pdfrwt>
<pdfrwt beam="1">  1       -4 0.14613418E-02 0.12500127E+03</pdfrwt>
<totfact> 0.62582050E+03</totfact>
</mgrwt>
</event>
<event>
 5    1  0.3271306E-002  0.1249986E+03  0.7818608E-02  0.1235071E+00
          4   -1    0    0  501    0  0.00000000000E+00  0.00000000000E+00  0.36876764521E+01  0.39002381486E+01  0.12700000000E+01 0.  1.
         -4   -1    0    0    0  501 -0.00000000000E+00 -0.00000000000E+00 -0.10293621097E+04  0.10293628932E+04  0.12700000000E+01 0.  1.
         25    2    1    2    0    0  0.00000000000E+00  0.00000000000E+00 -0.10256744333E+04  0.10332631313E+04  0.12499862189E+03 0.  0.
    9000005    1    3    3    0    0 -0.29809763282E+02  0.51355760404E+02 -0.35188443083E+03  0.35686088154E+03  0.10000000000E+01 0.  0.
    9000005    1    3    3    0    0  0.29809763282E+02 -0.51355760404E+02 -0.67379000244E+03  0.67640224977E+03  0.10000000000E+01 0.  0.
<mgrwt>
<rscale>  0 0.12499862E+03</rscale>
<asrwt>0</asrwt>
<pdfrwt beam="1">  1        4 0.58374682E-03 0.12499862E+03</pdfrwt>
<pdfrwt beam="2">  1       -4 0.15837959E+00 0.12499862E+03</pdfrwt>
<totfact> 0.29524098E+03</totfact>
</mgrwt>
</event>
<event>
 5    1  0.3271306E-002  0.1250049E+03  0.7818608E-02  0.1235062E+00
         -4   -1    0    0    0  501 -0.00000000000E+00  0.00000000000E+00  0.47028785557E+01  0.48713413666E+01  0.12700000000E+01 0.  1.
          4   -1    0    0  501    0  0.00000000000E+00 -0.00000000000E+00 -0.81588841906E+03  0.81588940749E+03  0.12700000000E+01 0.  1.
         25    2    1    2    0    0  0.00000000000E+00  0.00000000000E+00 -0.81118554050E+03  0.82076074886E+03  0.12500490287E+03 0.  0.
    9000005    1    3    3    0    0 -0.87838538581E+01 -0.14306921307E+02 -0.10347765300E+02  0.19746400497E+02  0.10000000000E+01 0.  0.
    9000005    1    3    3    0    0  0.87838538581E+01  0.14306921307E+02 -0.80083777520E+03  0.80101434836E+03  0.10000000000E+01 0.  0.
<mgrwt>
<rscale>  0 0.12500490E+03</rscale>
<asrwt>0</asrwt>
<pdfrwt beam="2">  1        4 0.12553422E+00 0.12500490E+03</pdfrwt>
<pdfrwt beam="1">  1       -4 0.73655514E-03 0.12500490E+03</pdfrwt>
<totfact> 0.37350579E+03</totfact>
</mgrwt>
</event>
<event>
 5    1  0.3271306E-002  0.1249964E+03  0.7818608E-02  0.1235075E+00
         -4   -1    0    0    0  501 -0.00000000000E+00  0.00000000000E+00  0.62141341041E+02  0.62154317359E+02  0.12700000000E+01 0.  1.
          4   -1    0    0  501    0  0.00000000000E+00 -0.00000000000E+00 -0.62831178990E+02  0.62844012868E+02  0.12700000000E+01 0.  1.
         25    2    1    2    0    0  0.00000000000E+00  0.00000000000E+00 -0.68983794889E+00  0.12499833023E+03  0.12499642668E+03 0.  0.
    9000005    1    3    3    0    0  0.55135637007E+02 -0.27043223177E+02  0.11220389350E+02  0.62435338752E+02  0.10000000000E+01 0.  0.
    9000005    1    3    3    0    0 -0.55135637007E+02  0.27043223177E+02 -0.11910227299E+02  0.62562991475E+02  0.10000000000E+01 0.  0.
<mgrwt>
<rscale>  0 0.12499643E+03</rscale>
<asrwt>0</asrwt>
<pdfrwt beam="2">  1        4 0.96683206E-02 0.12499643E+03</pdfrwt>
<pdfrwt beam="1">  1       -4 0.95621918E-02 0.12499643E+03</pdfrwt>
<totfact> 0.10453743E+04</totfact>
</mgrwt>
</event>
<event>
 5    1  0.3271306E-002  0.1250050E+03  0.7818608E-02  0.1235062E+00
         -4   -1    0    0    0  501 -0.00000000000E+00  0.00000000000E+00  0.46307434878E+03  0.46307609029E+03  0.12700000000E+01 0. -1.
          4   -1    0    0  501    0  0.00000000000E+00 -0.00000000000E+00 -0.83865775882E+01  0.84821921484E+01  0.12700000000E+01 0. -1.
         25    2    1    2    0    0  0.00000000000E+00  0.00000000000E+00  0.45468777119E+03  0.47155828244E+03  0.12500497776E+03 0.  0.
    9000005    1    3    3    0    0  0.35538783736E+02 -0.48357770857E+02  0.16156244182E+03  0.17235110025E+03  0.10000000000E+01 0.  0.
    9000005    1    3    3    0    0 -0.35538783736E+02  0.48357770857E+02  0.29312532937E+03  0.29920718218E+03  0.10000000000E+01 0.  0.
<mgrwt>
<rscale>  0 0.12500498E+03</rscale>
<asrwt>0</asrwt>
<pdfrwt beam="2">  1        4 0.12977313E-02 0.12500498E+03</pdfrwt>
<pdfrwt beam="1">  1       -4 0.71249712E-01 0.12500498E+03</pdfrwt>
<totfact> 0.58134278E+03</totfact>
</mgrwt>
</event>
<event>
 5    1  0.3271306E-002  0.1250052E+03  0.7818608E-02  0.1235061E+00
         -4   -1    0    0    0  501 -0.00000000000E+00  0.00000000000E+00  0.39517719813E+02  0.39538121847E+02  0.12700000000E+01 0.  1.
          4   -1    0    0  501    0  0.00000000000E+00 -0.00000000000E+00 -0.98806327856E+02  0.98814489446E+02  0.12700000000E+01 0.  1.
         25    2    1    2    0    0  0.00000000000E+00  0.00000000000E+00 -0.59288608044E+02  0.13835261129E+03  0.12500522392E+03 0.  0.
    9000005    1    3    3    0    0 -0.14958652522E+02 -0.56505855698E+02 -0.54116377401E+02  0.79663387553E+02  0.10000000000E+01 0.  0.
    9000005    1    3    3    0    0  0.14958652522E+02  0.56505855698E+02 -0.51722306428E+01  0.58689223740E+02  0.10000000000E+01 0.  0.
<mgrwt>
<rscale>  0 0.12500522E+03</rscale>
<asrwt>0</asrwt>
<pdfrwt beam="2">  1        4 0.15203171E-01 0.12500522E+03</pdfrwt>
<pdfrwt beam="1">  1       -4 0.60818464E-02 0.12500522E+03</pdfrwt>
<totfact> 0.10166647E+04</totfact>
</mgrwt>
</event>
<event>
 5    1  0.3271306E-002  0.1249964E+03  0.7818608E-02  0.1235075E+00
          4   -1    0    0  501    0  0.00000000000E+00  0.00000000000E+00  0.50904015012E+01  0.52464356894E+01  0.12700000000E+01 0.  1.
         -4   -1    0    0    0  501 -0.00000000000E+00 -0.00000000000E+00 -0.75559189114E+03  0.75559295845E+03  0.12700000000E+01 0.  1.
         25    2    1    2    0    0  0.00000000000E+00  0.00000000000E+00 -0.75050148964E+03  0.76083939414E+03  0.12499639083E+03 0.  0.
    9000005    1    3    3    0    0 -0.55171763591E+02  0.89785620617E+01 -0.54530134749E+03  0.54815973735E+03  0.10000000000E+01 0.  0.
    9000005    1    3    3    0    0  0.55171763591E+02 -0.89785620617E+01 -0.20520014215E+03  0.21267965679E+03  0.10000000000E+01 0.  0.
<mgrwt>
<rscale>  0 0.12499639E+03</rscale>
<asrwt>0</asrwt>
<pdfrwt beam="1">  1        4 0.79522402E-03 0.12499639E+03</pdfrwt>
<pdfrwt beam="2">  1       -4 0.11625690E+00 0.12499639E+03</pdfrwt>
<totfact> 0.40064166E+03</totfact>
</mgrwt>
</event>
<event>
 5    1  0.3271306E-002  0.1250018E+03  0.7818608E-02  0.1235067E+00
          4   -1    0    0  501    0  0.00000000000E+00  0.00000000000E+00  0.61905587041E+02  0.61918612766E+02  0.12700000000E+01 0.  1.
         -4   -1    0    0    0  501 -0.00000000000E+00 -0.00000000000E+00 -0.63075859206E+02  0.63088643309E+02  0.12700000000E+01 0.  1.
         25    2    1    2    0    0  0.00000000000E+00  0.00000000000E+00 -0.11702721657E+01  0.12500725608E+03  0.12500177813E+03 0.  0.
    9000005    1    3    3    0    0  0.50001715806E+02  0.36079829167E+02  0.95856329754E+01  0.62408413021E+02  0.10000000000E+01 0.  0.
    9000005    1    3    3    0    0 -0.50001715806E+02 -0.36079829167E+02 -0.10755905141E+02  0.62598843054E+02  0.10000000000E+01 0.  0.
<mgrwt>
<rscale>  0 0.12500178E+03</rscale>
<asrwt>0</asrwt>
<pdfrwt beam="1">  1        4 0.95259218E-02 0.12500178E+03</pdfrwt>
<pdfrwt beam="2">  1       -4 0.97059637E-02 0.12500178E+03</pdfrwt>
<totfact> 0.10452285E+04</totfact>
</mgrwt>
</event>
<event>
 5    1  0.3271306E-002  0.1249990E+03  0.7818608E-02  0.1235071E+00
         -4   -1    0    0    0  501 -0.00000000000E+00  0.00000000000E+00  0.42567373324E+02  0.42586314371E+02  0.12700000000E+01 0.  1.
          4   -1    0    0  501    0  0.00000000000E+00 -0.00000000000E+00 -0.91721131686E+02  0.91729923677E+02  0.12700000000E+01 0.  1.
         25    2    1    2    0    0  0.00000000000E+00  0.00000000000E+00 -0.49153758362E+02  0.13431623805E+03  0.12499903937E+03 0.  0.
    9000005    1    3    3    0    0  0.34514841639E+02  0.43581606634E+02 -0.55244718475E+02  0.78381181731E+02  0.10000000000E+01 0.  0.
    9000005    1    3    3    0    0 -0.34514841639E+02 -0.43581606634E+02  0.60909601127E+01  0.55935056318E+02  0.10000000000E+01 0.  0.
<mgrwt>
<rscale>  0 0.12499904E+03</rscale>
<asrwt>0</asrwt>
<pdfrwt beam="2">  1        4 0.14113077E-01 0.12499904E+03</pdfrwt>
<pdfrwt beam="1">  1       -4 0.65509600E-02 0.12499904E+03</pdfrwt>
<totfact> 0.10252725E+04</totfact>
</mgrwt>
</event>
<event>
 5    1  0.3271306E-002  0.1250081E+03  0.7818608E-02  0.1235057E+00
          4   -1    0    0  501    0  0.00000000000E+00  0.00000000000E+00  0.15321579677E+02  0.15374124489E+02  0.12700000000E+01 0. -1.
         -4   -1    0    0    0  501 -0.00000000000E+00 -0.00000000000E+00 -0.25449339931E+03  0.25449656814E+03  0.12700000000E+01 0. -1.
         25    2    1    2    0    0  0.00000000000E+00  0.00000000000E+00 -0.23917181964E+03  0.26987069263E+03  0.12500812546E+03 0.  0.
    9000005    1    3    3    0    0 -0.35673847950E+02 -0.41540747700E+02 -0.54551834785E+02  0.77299157987E+02  0.10000000000E+01 0.  0.
    9000005    1    3    3    0    0  0.35673847950E+02  0.41540747700E+02 -0.18461998485E+03  0.19257153464E+03  0.10000000000E+01 0.  0.
<mgrwt>
<rscale>  0 0.12500813E+03</rscale>
<asrwt>0</asrwt>
<pdfrwt beam="1">  1        4 0.23614520E-02 0.12500813E+03</pdfrwt>
<pdfrwt beam="2">  1       -4 0.39157113E-01 0.12500813E+03</pdfrwt>
<totfact> 0.79526126E+03</totfact>
</mgrwt>
</event>
<event>
 4    1  0.3271306E-002  0.1255339E+03  0.7818608E-02  0.1234237E+00
          4   -1    0    0  501    0  0.00000000000E+00  0.00000000000E+00  0.56244153008E+03  0.56244296391E+03  0.12700000000E+01 0. -1.
         -4   -1    0    0    0  501 -0.00000000000E+00 -0.00000000000E+00 -0.69455994632E+01  0.70607543438E+01  0.12700000000E+01 0. -1.
    9000005    1    1    2    0    0 -0.24301858940E+02  0.55059165919E+02  0.19702651504E+03  0.20601587251E+03  0.10000000000E+01 0.  0.
    9000005    1    1    2    0    0  0.24301858940E+02 -0.55059165919E+02  0.35846941558E+03  0.36348784574E+03  0.10000000000E+01 0.  0.
<mgrwt>
<rscale>  0 0.12553388E+03</rscale>
<asrwt>0</asrwt>
<pdfrwt beam="1">  1        4 0.86538443E-01 0.12553388E+03</pdfrwt>
<pdfrwt beam="2">  1       -4 0.10775220E-02 0.12553388E+03</pdfrwt>
<totfact> 0.50259834E+03</totfact>
</mgrwt>
</event>
<event>
 5    1  0.3271306E-002  0.1250042E+03  0.7818608E-02  0.1235063E+00
         -4   -1    0    0    0  501 -0.00000000000E+00  0.00000000000E+00  0.56014640486E+03  0.56014784458E+03  0.12700000000E+01 0.  1.
          4   -1    0    0  501    0  0.00000000000E+00 -0.00000000000E+00 -0.69148139863E+01  0.70304731324E+01  0.12700000000E+01 0.  1.
         25    2    1    2    0    0  0.00000000000E+00  0.00000000000E+00  0.55323159088E+03  0.56717831771E+03  0.12500420366E+03 0.  0.
    9000005    1    3    3    0    0 -0.19048737329E+02  0.29556814781E+00  0.54667207644E+03  0.54700484542E+03  0.10000000000E+01 0.  0.
    9000005    1    3    3    0    0  0.19048737329E+02 -0.29556814781E+00  0.65595144343E+01  0.20173472283E+02  0.10000000000E+01 0.  0.
<mgrwt>
<rscale>  0 0.12500420E+03</rscale>
<asrwt>0</asrwt>
<pdfrwt beam="2">  1        4 0.10728250E-02 0.12500420E+03</pdfrwt>
<pdfrwt beam="1">  1       -4 0.86185386E-01 0.12500420E+03</pdfrwt>
<totfact> 0.51002482E+03</totfact>
</mgrwt>
</event>
<event>
 5    1  0.3271306E-002  0.1249939E+03  0.7818608E-02  0.1235079E+00
          4   -1    0    0  501    0  0.00000000000E+00  0.00000000000E+00  0.58168403706E+02  0.58182266110E+02  0.12700000000E+01 0. -1.
         -4   -1    0    0    0  501 -0.00000000000E+00 -0.00000000000E+00 -0.67119754731E+02  0.67131768747E+02  0.12700000000E+01 0. -1.
         25    2    1    2    0    0  0.00000000000E+00  0.00000000000E+00 -0.89513510247E+01  0.12531403486E+03  0.12499392244E+03 0.  0.
    9000005    1    3    3    0    0  0.18011853559E+02  0.59821779685E+02 -0.31313580351E+01  0.62560991013E+02  0.10000000000E+01 0.  0.
    9000005    1    3    3    0    0 -0.18011853559E+02 -0.59821779685E+02 -0.58199929895E+01  0.62753043844E+02  0.10000000000E+01 0.  0.
<mgrwt>
<rscale>  0 0.12499392E+03</rscale>
<asrwt>0</asrwt>
<pdfrwt beam="1">  1        4 0.89509757E-02 0.12499392E+03</pdfrwt>
<pdfrwt beam="2">  1       -4 0.10328107E-01 0.12499392E+03</pdfrwt>
<totfact> 0.10447480E+04</totfact>
</mgrwt>
</event>
<event>
 5    1  0.3271306E-002  0.1250019E+03  0.7818608E-02  0.1235066E+00
         -4   -1    0    0    0  501 -0.00000000000E+00  0.00000000000E+00  0.13696446212E+02  0.13755200429E+02  0.12700000000E+01 0. -1.
          4   -1    0    0  501    0  0.00000000000E+00 -0.00000000000E+00 -0.28453965984E+03  0.28454249405E+03  0.12700000000E+01 0. -1.
         25    2    1    2    0    0  0.00000000000E+00  0.00000000000E+00 -0.27084321363E+03  0.29829769448E+03  0.12500187265E+03 0.  0.
    9000005    1    3    3    0    0 -0.61701668296E+02 -0.75934141099E+01 -0.12021415445E+03  0.13534104602E+03  0.10000000000E+01 0.  0.
    9000005    1    3    3    0    0  0.61701668296E+02  0.75934141099E+01 -0.15062905918E+03  0.16295664846E+03  0.10000000000E+01 0.  0.
<mgrwt>
<rscale>  0 0.12500187E+03</rscale>
<asrwt>0</asrwt>
<pdfrwt beam="2">  1        4 0.43780066E-01 0.12500187E+03</pdfrwt>
<pdfrwt beam="1">  1       -4 0.21118834E-02 0.12500187E+03</pdfrwt>
<totfact> 0.75809720E+03</totfact>
</mgrwt>
</event>
<event>
 5    1  0.3271306E-002  0.1250069E+03  0.7818608E-02  0.1235058E+00
         -4   -1    0    0    0  501 -0.00000000000E+00  0.00000000000E+00  0.54692710344E+02  0.54707453466E+02  0.12700000000E+01 0.  1.
          4   -1    0    0  501    0  0.00000000000E+00 -0.00000000000E+00 -0.71399684882E+02  0.71410978856E+02  0.12700000000E+01 0.  1.
         25    2    1    2    0    0  0.00000000000E+00  0.00000000000E+00 -0.16706974538E+02  0.12611843232E+03  0.12500694370E+03 0.  0.
    9000005    1    3    3    0    0 -0.53297465201E+02 -0.29228785282E+02 -0.22999529834E+02  0.64999385062E+02  0.10000000000E+01 0.  0.
    9000005    1    3    3    0    0  0.53297465201E+02  0.29228785282E+02  0.62925552957E+01  0.61119047260E+02  0.10000000000E+01 0.  0.
<mgrwt>
<rscale>  0 0.12500694E+03</rscale>
<asrwt>0</asrwt>
<pdfrwt beam="2">  1        4 0.10986570E-01 0.12500694E+03</pdfrwt>
<pdfrwt beam="1">  1       -4 0.84162660E-02 0.12500694E+03</pdfrwt>
<totfact> 0.10426729E+04</totfact>
</mgrwt>
</event>
<event>
 5    1  0.3271306E-002  0.1250002E+03  0.7818608E-02  0.1235069E+00
         -4   -1    0    0    0  501 -0.00000000000E+00  0.00000000000E+00  0.17926931338E+02  0.17971860427E+02  0.12700000000E+01 0.  1.
          4   -1    0    0  501    0  0.00000000000E+00 -0.00000000000E+00 -0.21757968852E+03  0.21758339495E+03  0.12700000000E+01 0.  1.
         25    2    1    2    0    0  0.00000000000E+00  0.00000000000E+00 -0.19965275719E+03  0.23555525538E+03  0.12500021953E+03 0.  0.
    9000005    1    3    3    0    0 -0.13348094757E+02 -0.61049851452E+02 -0.99992005848E+02  0.11791801062E+03  0.10000000000E+01 0.  0.
    9000005    1    3    3    0    0  0.13348094757E+02  0.61049851452E+02 -0.99660751338E+02  0.11763724475E+03  0.10000000000E+01 0.  0.
<mgrwt>
<rscale>  0 0.12500022E+03</rscale>
<asrwt>0</asrwt>
<pdfrwt beam="2">  1        4 0.33477538E-01 0.12500022E+03</pdfrwt>
<pdfrwt beam="1">  1       -4 0.27617308E-02 0.12500022E+03</pdfrwt>
<totfact> 0.84463405E+03</totfact>
</mgrwt>
</event>
<event>
 5    1  0.3271306E-002  0.1250016E+03  0.7818608E-02  0.1235067E+00
          4   -1    0    0  501    0  0.00000000000E+00  0.00000000000E+00  0.47579292568E+01  0.49245091951E+01  0.12700000000E+01 0. -1.
         -4   -1    0    0    0  501 -0.00000000000E+00 -0.00000000000E+00 -0.80672726176E+03  0.80672826142E+03  0.12700000000E+01 0. -1.
         25    2    1    2    0    0  0.00000000000E+00  0.00000000000E+00 -0.80196933250E+03  0.81165277061E+03  0.12500163905E+03 0.  0.
    9000005    1    3    3    0    0 -0.50336207477E+02  0.35659197278E+02 -0.46592912127E+03  0.46999601933E+03  0.10000000000E+01 0.  0.
    9000005    1    3    3    0    0  0.50336207477E+02 -0.35659197278E+02 -0.33604021123E+03  0.34165675128E+03  0.10000000000E+01 0.  0.
<mgrwt>
<rscale>  0 0.12500164E+03</rscale>
<asrwt>0</asrwt>
<pdfrwt beam="1">  1        4 0.74488049E-03 0.12500164E+03</pdfrwt>
<pdfrwt beam="2">  1       -4 0.12412467E+00 0.12500164E+03</pdfrwt>
<totfact> 0.37748459E+03</totfact>
</mgrwt>
</event>
<event>
 5    1  0.3271306E-002  0.1250018E+03  0.7818608E-02  0.1235067E+00
         -4   -1    0    0    0  501 -0.00000000000E+00  0.00000000000E+00  0.11208347812E+03  0.11209067297E+03  0.12700000000E+01 0. -1.
          4   -1    0    0  501    0  0.00000000000E+00 -0.00000000000E+00 -0.34832348546E+02  0.34855493185E+02  0.12700000000E+01 0. -1.
         25    2    1    2    0    0  0.00000000000E+00  0.00000000000E+00  0.77251129571E+02  0.14694616615E+03  0.12500175490E+03 0.  0.
    9000005    1    3    3    0    0 -0.15076545827E+02 -0.13695266040E+01 -0.32649995941E+02  0.36002778673E+02  0.10000000000E+01 0.  0.
    9000005    1    3    3    0    0  0.15076545827E+02  0.13695266040E+01  0.10990112551E+03  0.11094338748E+03  0.10000000000E+01 0.  0.
<mgrwt>
<rscale>  0 0.12500175E+03</rscale>
<asrwt>0</asrwt>
<pdfrwt beam="2">  1        4 0.53611567E-02 0.12500175E+03</pdfrwt>
<pdfrwt beam="1">  1       -4 0.17245946E-01 0.12500175E+03</pdfrwt>
<totfact> 0.99912007E+03</totfact>
</mgrwt>
</event>
<event>
 5    1  0.3271306E-002  0.1249948E+03  0.7818608E-02  0.1235077E+00
         -4   -1    0    0    0  501 -0.00000000000E+00  0.00000000000E+00  0.28518711031E+03  0.28518993809E+03  0.12700000000E+01 0. -1.
          4   -1    0    0  501    0  0.00000000000E+00 -0.00000000000E+00 -0.13663659343E+02  0.13722553940E+02  0.12700000000E+01 0. -1.
         25    2    1    2    0    0  0.00000000000E+00  0.00000000000E+00  0.27152345096E+03  0.29891249203E+03  0.12499477375E+03 0.  0.
    9000005    1    3    3    0    0 -0.21695286023E+02  0.58312289853E+02  0.14968837772E+03  0.16210681358E+03  0.10000000000E+01 0.  0.
    9000005    1    3    3    0    0  0.21695286023E+02 -0.58312289853E+02  0.12183507325E+03  0.13680567845E+03  0.10000000000E+01 0.  0.
<mgrwt>
<rscale>  0 0.12499477E+03</rscale>
<asrwt>0</asrwt>
<pdfrwt beam="2">  1        4 0.21068495E-02 0.12499477E+03</pdfrwt>
<pdfrwt beam="1">  1       -4 0.43879684E-01 0.12499477E+03</pdfrwt>
<totfact> 0.75744246E+03</totfact>
</mgrwt>
</event>
<event>
 5    1  0.3271306E-002  0.1250023E+03  0.7818608E-02  0.1235066E+00
         -4   -1    0    0    0  501 -0.00000000000E+00  0.00000000000E+00  0.34595364661E+02  0.34618667739E+02  0.12700000000E+01 0.  1.
          4   -1    0    0  501    0  0.00000000000E+00 -0.00000000000E+00 -0.11285180063E+03  0.11285894650E+03  0.12700000000E+01 0.  1.
         25    2    1    2    0    0  0.00000000000E+00  0.00000000000E+00 -0.78256435965E+02  0.14747761424E+03  0.12500230770E+03 0.  0.
    9000005    1    3    3    0    0 -0.10005478609E+02 -0.56945372054E+02 -0.67109840917E+02  0.88586769602E+02  0.10000000000E+01 0.  0.
    9000005    1    3    3    0    0  0.10005478609E+02  0.56945372054E+02 -0.11146595048E+02  0.58890844635E+02  0.10000000000E+01 0.  0.
<mgrwt>
<rscale>  0 0.12500231E+03</rscale>
<asrwt>0</asrwt>
<pdfrwt beam="2">  1        4 0.17364158E-01 0.12500231E+03</pdfrwt>
<pdfrwt beam="1">  1       -4 0.53247061E-02 0.12500231E+03</pdfrwt>
<totfact> 0.99803710E+03</totfact>
</mgrwt>
</event>
<event>
 5    1  0.3271306E-002  0.1249995E+03  0.7818608E-02  0.1235070E+00
          4   -1    0    0  501    0  0.00000000000E+00  0.00000000000E+00  0.47545668089E+02  0.47562626652E+02  0.12700000000E+01 0. -1.
         -4   -1    0    0    0  501 -0.00000000000E+00 -0.00000000000E+00 -0.82120670948E+02  0.82130490665E+02  0.12700000000E+01 0. -1.
         25    2    1    2    0    0  0.00000000000E+00  0.00000000000E+00 -0.34575002859E+02  0.12969311732E+03  0.12499949543E+03 0.  0.
    9000005    1    3    3    0    0  0.87668550471E+01  0.55796751551E+02 -0.45032644376E+02  0.72243160857E+02  0.10000000000E+01 0.  0.
    9000005    1    3    3    0    0 -0.87668550471E+01 -0.55796751551E+02  0.10457641518E+02  0.57449956460E+02  0.10000000000E+01 0.  0.
<mgrwt>
<rscale>  0 0.12499950E+03</rscale>
<asrwt>0</asrwt>
<pdfrwt beam="1">  1        4 0.73167780E-02 0.12499950E+03</pdfrwt>
<pdfrwt beam="2">  1       -4 0.12636009E-01 0.12499950E+03</pdfrwt>
<totfact> 0.10351195E+04</totfact>
</mgrwt>
</event>
<event>
 5    1  0.3271306E-002  0.1250063E+03  0.7818608E-02  0.1235059E+00
         -4   -1    0    0    0  501 -0.00000000000E+00  0.00000000000E+00  0.26714792085E+02  0.26744962444E+02  0.12700000000E+01 0.  1.
          4   -1    0    0  501    0  0.00000000000E+00 -0.00000000000E+00 -0.14611973069E+03  0.14612524969E+03  0.12700000000E+01 0.  1.
         25    2    1    2    0    0  0.00000000000E+00  0.00000000000E+00 -0.11940493860E+03  0.17287021213E+03  0.12500628336E+03 0.  0.
    9000005    1    3    3    0    0 -0.66421801269E-01 -0.56582835614E+02 -0.96395293106E+02  0.11177957877E+03  0.10000000000E+01 0.  0.
    9000005    1    3    3    0    0  0.66421801269E-01  0.56582835614E+02 -0.23009645496E+02  0.61090633356E+02  0.10000000000E+01 0.  0.
<mgrwt>
<rscale>  0 0.12500628E+03</rscale>
<asrwt>0</asrwt>
<pdfrwt beam="2">  1        4 0.22482704E-01 0.12500628E+03</pdfrwt>
<pdfrwt beam="1">  1       -4 0.41127134E-02 0.12500628E+03</pdfrwt>
<totfact> 0.94902979E+03</totfact>
</mgrwt>
</event>
<event>
 5    1  0.3271306E-002  0.1250007E+03  0.7818608E-02  0.1235068E+00
         -4   -1    0    0    0  501 -0.00000000000E+00  0.00000000000E+00  0.17738926270E+02  0.17784330328E+02  0.12700000000E+01 0. -1.
          4   -1    0    0  501    0  0.00000000000E+00 -0.00000000000E+00 -0.21988173456E+03  0.21988540219E+03  0.12700000000E+01 0. -1.
         25    2    1    2    0    0  0.00000000000E+00  0.00000000000E+00 -0.20214280829E+03  0.23766973252E+03  0.12500074723E+03 0.  0.
    9000005    1    3    3    0    0 -0.22108954730E+02 -0.40422610847E+02 -0.18134568919E+03  0.18710973341E+03  0.10000000000E+01 0.  0.
    9000005    1    3    3    0    0  0.22108954730E+02  0.40422610847E+02 -0.20797119101E+02  0.50559999108E+02  0.10000000000E+01 0.  0.
<mgrwt>
<rscale>  0 0.12500075E+03</rscale>
<asrwt>0</asrwt>
<pdfrwt beam="2">  1        4 0.33831732E-01 0.12500075E+03</pdfrwt>
<pdfrwt beam="1">  1       -4 0.27328405E-02 0.12500075E+03</pdfrwt>
<totfact> 0.84144247E+03</totfact>
</mgrwt>
</event>
<event>
 5    1  0.3271306E-002  0.1249959E+03  0.7818608E-02  0.1235076E+00
          4   -1    0    0  501    0  0.00000000000E+00  0.00000000000E+00  0.15505854975E+02  0.15557777428E+02  0.12700000000E+01 0.  1.
         -4   -1    0    0    0  501 -0.00000000000E+00 -0.00000000000E+00 -0.25142989516E+03  0.25143310259E+03  0.12700000000E+01 0.  1.
         25    2    1    2    0    0  0.00000000000E+00  0.00000000000E+00 -0.23592404018E+03  0.26699088002E+03  0.12499590905E+03 0.  0.
    9000005    1    3    3    0    0  0.23678483606E+02 -0.49420679322E+02 -0.18211025069E+03  0.19017943511E+03  0.10000000000E+01 0.  0.
    9000005    1    3    3    0    0 -0.23678483606E+02  0.49420679322E+02 -0.53813789495E+02  0.76811444918E+02  0.10000000000E+01 0.  0.
<mgrwt>
<rscale>  0 0.12499591E+03</rscale>
<asrwt>0</asrwt>
<pdfrwt beam="1">  1        4 0.23897571E-02 0.12499591E+03</pdfrwt>
<pdfrwt beam="2">  1       -4 0.38685760E-01 0.12499591E+03</pdfrwt>
<totfact> 0.79942169E+03</totfact>
</mgrwt>
</event>
<event>
 5    1  0.3271306E-002  0.1250004E+03  0.7818608E-02  0.1235069E+00
          4   -1    0    0  501    0  0.00000000000E+00  0.00000000000E+00  0.13163637612E+04  0.13163643738E+04  0.12700000000E+01 0. -1.
         -4   -1    0    0    0  501 -0.00000000000E+00 -0.00000000000E+00 -0.28309514401E+01  0.31027707063E+01  0.12700000000E+01 0. -1.
         25    2    1    2    0    0  0.00000000000E+00  0.00000000000E+00  0.13135328098E+04  0.13194671445E+04  0.12500041283E+03 0.  0.
    9000005    1    3    3    0    0  0.31165451281E+02 -0.51959902822E+02  0.49524037777E+03  0.49893401230E+03  0.10000000000E+01 0.  0.
    9000005    1    3    3    0    0 -0.31165451281E+02  0.51959902822E+02  0.81829243200E+03  0.82053313225E+03  0.10000000000E+01 0.  0.
<mgrwt>
<rscale>  0 0.12500041E+03</rscale>
<asrwt>0</asrwt>
<pdfrwt beam="1">  1        4 0.20253868E+00 0.12500041E+03</pdfrwt>
<pdfrwt beam="2">  1       -4 0.45648678E-03 0.12500041E+03</pdfrwt>
<totfact> 0.21773443E+03</totfact>
</mgrwt>
</event>
<event>
 5    1  0.3271306E-002  0.1250004E+03  0.7818608E-02  0.1235069E+00
         -4   -1    0    0    0  501 -0.00000000000E+00  0.00000000000E+00  0.51481777506E+01  0.53025120605E+01  0.12700000000E+01 0.  1.
          4   -1    0    0  501    0  0.00000000000E+00 -0.00000000000E+00 -0.74740842827E+03  0.74740950726E+03  0.12700000000E+01 0.  1.
         25    2    1    2    0    0  0.00000000000E+00  0.00000000000E+00 -0.74226025052E+03  0.75271201932E+03  0.12500041814E+03 0.  0.
    9000005    1    3    3    0    0 -0.12836483334E+02 -0.34531463419E+02 -0.67164958607E+02  0.76611545702E+02  0.10000000000E+01 0.  0.
    9000005    1    3    3    0    0  0.12836483334E+02  0.34531463419E+02 -0.67509529191E+03  0.67610047362E+03  0.10000000000E+01 0.  0.
<mgrwt>
<rscale>  0 0.12500042E+03</rscale>
<asrwt>0</asrwt>
<pdfrwt beam="2">  1        4 0.11499778E+00 0.12500042E+03</pdfrwt>
<pdfrwt beam="1">  1       -4 0.80398281E-03 0.12500042E+03</pdfrwt>
<totfact> 0.40444410E+03</totfact>
</mgrwt>
</event>
<event>
 5    1  0.3271306E-002  0.1249992E+03  0.7818608E-02  0.1235071E+00
          4   -1    0    0  501    0  0.00000000000E+00  0.00000000000E+00  0.14470278162E+03  0.14470835466E+03  0.12700000000E+01 0. -1.
         -4   -1    0    0    0  501 -0.00000000000E+00 -0.00000000000E+00 -0.26973591989E+02  0.27003473199E+02  0.12700000000E+01 0. -1.
         25    2    1    2    0    0  0.00000000000E+00  0.00000000000E+00  0.11772918963E+03  0.17171182786E+03  0.12499915894E+03 0.  0.
    9000005    1    3    3    0    0 -0.52597431012E+02  0.40169746231E+01  0.10489026762E+03  0.11741206954E+03  0.10000000000E+01 0.  0.
    9000005    1    3    3    0    0  0.52597431012E+02 -0.40169746231E+01  0.12838922011E+02  0.54299758311E+02  0.10000000000E+01 0.  0.
<mgrwt>
<rscale>  0 0.12499916E+03</rscale>
<asrwt>0</asrwt>
<pdfrwt beam="1">  1        4 0.22264694E-01 0.12499916E+03</pdfrwt>
<pdfrwt beam="2">  1       -4 0.41525106E-02 0.12499916E+03</pdfrwt>
<totfact> 0.95132330E+03</totfact>
</mgrwt>
</event>
<event>
 5    1  0.3271306E-002  0.1250059E+03  0.7818608E-02  0.1235060E+00
          4   -1    0    0  501    0  0.00000000000E+00  0.00000000000E+00  0.86614465853E+02  0.86623776153E+02  0.12700000000E+01 0. -1.
         -4   -1    0    0    0  501 -0.00000000000E+00 -0.00000000000E+00 -0.45082854039E+02  0.45100738667E+02  0.12700000000E+01 0. -1.
         25    2    1    2    0    0  0.00000000000E+00  0.00000000000E+00  0.41531611814E+02  0.13172451482E+03  0.12500589196E+03 0.  0.
    9000005    1    3    3    0    0 -0.45577823380E+02 -0.40947201114E+02  0.33740458598E+02  0.69953054326E+02  0.10000000000E+01 0.  0.
    9000005    1    3    3    0    0  0.45577823380E+02  0.40947201114E+02  0.77911532160E+01  0.61771460494E+02  0.10000000000E+01 0.  0.
<mgrwt>
<rscale>  0 0.12500589E+03</rscale>
<asrwt>0</asrwt>
<pdfrwt beam="1">  1        4 0.13327394E-01 0.12500589E+03</pdfrwt>
<pdfrwt beam="2">  1       -4 0.69379157E-02 0.12500589E+03</pdfrwt>
<totfact> 0.10306212E+04</totfact>
</mgrwt>
</event>
<event>
 5    1  0.3271306E-002  0.1249912E+03  0.7818608E-02  0.1235083E+00
         -4   -1    0    0    0  501 -0.00000000000E+00  0.00000000000E+00  0.41428011995E+02  0.41447473721E+02  0.12700000000E+01 0.  1.
          4   -1    0    0  501    0  0.00000000000E+00 -0.00000000000E+00 -0.94230947571E+02  0.94239505411E+02  0.12700000000E+01 0.  1.
         25    2    1    2    0    0  0.00000000000E+00  0.00000000000E+00 -0.52802935576E+02  0.13568697913E+03  0.12499122489E+03 0.  0.
    9000005    1    3    3    0    0  0.17827627723E+02  0.57878327283E+02 -0.96901273652E+01  0.61340228624E+02  0.10000000000E+01 0.  0.
    9000005    1    3    3    0    0 -0.17827627723E+02 -0.57878327283E+02 -0.43112808211E+02  0.74346750508E+02  0.10000000000E+01 0.  0.
<mgrwt>
<rscale>  0 0.12499122E+03</rscale>
<asrwt>0</asrwt>
<pdfrwt beam="2">  1        4 0.14499224E-01 0.12499122E+03</pdfrwt>
<pdfrwt beam="1">  1       -4 0.63756957E-02 0.12499122E+03</pdfrwt>
<totfact> 0.10225635E+04</totfact>
</mgrwt>
</event>
<event>
 5    1  0.3271306E-002  0.1249995E+03  0.7818608E-02  0.1235070E+00
          4   -1    0    0  501    0  0.00000000000E+00  0.00000000000E+00  0.45168811633E+03  0.45168990174E+03  0.12700000000E+01 0.  1.
         -4   -1    0    0    0  501 -0.00000000000E+00 -0.00000000000E+00 -0.85996045912E+01  0.86928763436E+01  0.12700000000E+01 0.  1.
         25    2    1    2    0    0  0.00000000000E+00  0.00000000000E+00  0.44308851174E+03  0.46038277808E+03  0.12499949248E+03 0.  0.
    9000005    1    3    3    0    0 -0.14711411766E+02 -0.29578500004E+02  0.26170811199E+02  0.42157142425E+02  0.10000000000E+01 0.  0.
    9000005    1    3    3    0    0  0.14711411766E+02  0.29578500004E+02  0.41691770054E+03  0.41822563566E+03  0.10000000000E+01 0.  0.
<mgrwt>
<rscale>  0 0.12499949E+03</rscale>
<asrwt>0</asrwt>
<pdfrwt beam="1">  1        4 0.69497802E-01 0.12499949E+03</pdfrwt>
<pdfrwt beam="2">  1       -4 0.13303280E-02 0.12499949E+03</pdfrwt>
<totfact> 0.59075425E+03</totfact>
</mgrwt>
</event>
<event>
 5    1  0.3271306E-002  0.1249980E+03  0.7818608E-02  0.1235072E+00
         -4   -1    0    0    0  501 -0.00000000000E+00  0.00000000000E+00  0.16011281260E+03  0.16011784928E+03  0.12700000000E+01 0.  1.
          4   -1    0    0  501    0  0.00000000000E+00 -0.00000000000E+00 -0.24374132489E+02  0.24407196369E+02  0.12700000000E+01 0.  1.
         25    2    1    2    0    0  0.00000000000E+00  0.00000000000E+00  0.13573868011E+03  0.18452504565E+03  0.12499801276E+03 0.  0.
    9000005    1    3    3    0    0  0.53478584214E+02 -0.25467800594E+02  0.38472168300E+02  0.70637635651E+02  0.10000000000E+01 0.  0.
    9000005    1    3    3    0    0 -0.53478584214E+02  0.25467800594E+02  0.97266511809E+02  0.11388741000E+03  0.10000000000E+01 0.  0.
<mgrwt>
<rscale>  0 0.12499801E+03</rscale>
<asrwt>0</asrwt>
<pdfrwt beam="2">  1        4 0.37527973E-02 0.12499801E+03</pdfrwt>
<pdfrwt beam="1">  1       -4 0.24635672E-01 0.12499801E+03</pdfrwt>
<totfact> 0.92812896E+03</totfact>
</mgrwt>
</event>
<event>
 5    1  0.3271306E-002  0.1249749E+03  0.7818608E-02  0.1235108E+00
         -4   -1    0    0    0  501 -0.00000000000E+00  0.00000000000E+00  0.78353018754E+02  0.78363310597E+02  0.12700000000E+01 0.  1.
          4   -1    0    0  501    0  0.00000000000E+00 -0.00000000000E+00 -0.49812841987E+02  0.49829028957E+02  0.12700000000E+01 0.  1.
         25    2    1    2    0    0  0.00000000000E+00  0.00000000000E+00  0.28540176766E+02  0.12819233955E+03  0.12497493441E+03 0.  0.
    9000005    1    3    3    0    0 -0.15736767036E+02 -0.42041705909E+02 -0.30305943869E+02  0.54171958671E+02  0.10000000000E+01 0.  0.
    9000005    1    3    3    0    0  0.15736767036E+02  0.42041705909E+02  0.58846120635E+02  0.74020380884E+02  0.10000000000E+01 0.  0.
<mgrwt>
<rscale>  0 0.12497493E+03</rscale>
<asrwt>0</asrwt>
<pdfrwt beam="2">  1        4 0.76655510E-02 0.12497493E+03</pdfrwt>
<pdfrwt beam="1">  1       -4 0.12056347E-01 0.12497493E+03</pdfrwt>
<totfact> 0.10389214E+04</totfact>
</mgrwt>
</event>
<event>
 5    1  0.3271306E-002  0.1250009E+03  0.7818608E-02  0.1235068E+00
          4   -1    0    0  501    0  0.00000000000E+00  0.00000000000E+00  0.22453915713E+02  0.22489802819E+02  0.12700000000E+01 0.  1.
         -4   -1    0    0    0  501 -0.00000000000E+00 -0.00000000000E+00 -0.17379276183E+03  0.17379740207E+03  0.12700000000E+01 0.  1.
         25    2    1    2    0    0  0.00000000000E+00  0.00000000000E+00 -0.15133884612E+03  0.19628720489E+03  0.12500088183E+03 0.  0.
    9000005    1    3    3    0    0  0.23280100120E+02 -0.54374835740E+02 -0.44001010077E+02  0.73727028362E+02  0.10000000000E+01 0.  0.
    9000005    1    3    3    0    0 -0.23280100120E+02  0.54374835740E+02 -0.10733783604E+03  0.12256017652E+03  0.10000000000E+01 0.  0.
<mgrwt>
<rscale>  0 0.12500088E+03</rscale>
<asrwt>0</asrwt>
<pdfrwt beam="1">  1        4 0.34575662E-02 0.12500088E+03</pdfrwt>
<pdfrwt beam="2">  1       -4 0.26740465E-01 0.12500088E+03</pdfrwt>
<totfact> 0.90762932E+03</totfact>
</mgrwt>
</event>
<event>
 5    1  0.3271306E-002  0.1250000E+03  0.7818608E-02  0.1235069E+00
         -4   -1    0    0    0  501 -0.00000000000E+00  0.00000000000E+00  0.15667444411E+02  0.15718833111E+02  0.12700000000E+01 0. -1.
          4   -1    0    0  501    0  0.00000000000E+00 -0.00000000000E+00 -0.24886159444E+03  0.24886483498E+03  0.12700000000E+01 0. -1.
         25    2    1    2    0    0  0.00000000000E+00  0.00000000000E+00 -0.23319415003E+03  0.26458366809E+03  0.12500002324E+03 0.  0.
    9000005    1    3    3    0    0  0.24202979634E+02  0.48864310408E+02 -0.51986768627E+02  0.75346726319E+02  0.10000000000E+01 0.  0.
    9000005    1    3    3    0    0 -0.24202979634E+02 -0.48864310408E+02 -0.18120738140E+03  0.18923694177E+03  0.10000000000E+01 0.  0.
<mgrwt>
<rscale>  0 0.12500002E+03</rscale>
<asrwt>0</asrwt>
<pdfrwt beam="2">  1        4 0.38290599E-01 0.12500002E+03</pdfrwt>
<pdfrwt beam="1">  1       -4 0.24145785E-02 0.12500002E+03</pdfrwt>
<totfact> 0.80267040E+03</totfact>
</mgrwt>
</event>
<event>
 4    1  0.3271306E-002  0.1250711E+03  0.7818608E-02  0.1234958E+00
          4   -1    0    0  501    0  0.00000000000E+00  0.00000000000E+00  0.81324124863E+02  0.81334040750E+02  0.12700000000E+01 0. -1.
         -4   -1    0    0    0  501 -0.00000000000E+00 -0.00000000000E+00 -0.48066512729E+02  0.48083287595E+02  0.12700000000E+01 0. -1.
    9000005    1    1    2    0    0 -0.28975803105E+02  0.12102855341E+02  0.72578254659E+02  0.79086530600E+02  0.10000000000E+01 0.  0.
    9000005    1    1    2    0    0  0.28975803105E+02 -0.12102855341E+02 -0.39320642525E+02  0.50330797744E+02  0.10000000000E+01 0.  0.
<mgrwt>
<rscale>  0 0.12507108E+03</rscale>
<asrwt>0</asrwt>
<pdfrwt beam="1">  1        4 0.12513457E-01 0.12507108E+03</pdfrwt>
<pdfrwt beam="2">  1       -4 0.73969014E-02 0.12507108E+03</pdfrwt>
<totfact> 0.10340386E+04</totfact>
</mgrwt>
</event>
<event>
 5    1  0.3271306E-002  0.1249977E+03  0.7818608E-02  0.1235073E+00
          4   -1    0    0  501    0  0.00000000000E+00  0.00000000000E+00  0.35502297014E+02  0.35525005183E+02  0.12700000000E+01 0. -1.
         -4   -1    0    0    0  501 -0.00000000000E+00 -0.00000000000E+00 -0.10996254794E+03  0.10996988156E+03  0.12700000000E+01 0. -1.
         25    2    1    2    0    0  0.00000000000E+00  0.00000000000E+00 -0.74460250930E+02  0.14549488674E+03  0.12499773238E+03 0.  0.
    9000005    1    3    3    0    0 -0.43042420143E+02  0.30826817376E+02 -0.75872965477E+02  0.92523777980E+02  0.10000000000E+01 0.  0.
    9000005    1    3    3    0    0  0.43042420143E+02 -0.30826817376E+02  0.14127145470E+01  0.52971108764E+02  0.10000000000E+01 0.  0.
<mgrwt>
<rscale>  0 0.12499773E+03</rscale>
<asrwt>0</asrwt>
<pdfrwt beam="1">  1        4 0.54642028E-02 0.12499773E+03</pdfrwt>
<pdfrwt beam="2">  1       -4 0.16919626E-01 0.12499773E+03</pdfrwt>
<totfact> 0.10021455E+04</totfact>
</mgrwt>
</event>
<event>
 5    1  0.3271306E-002  0.1250028E+03  0.7818608E-02  0.1235065E+00
          4   -1    0    0  501    0  0.00000000000E+00  0.00000000000E+00  0.33621798582E+01  0.35940441565E+01  0.12700000000E+01 0.  1.
         -4   -1    0    0    0  501 -0.00000000000E+00 -0.00000000000E+00 -0.11229126341E+04  0.11229133522E+04  0.12700000000E+01 0.  1.
         25    2    1    2    0    0  0.00000000000E+00  0.00000000000E+00 -0.11195504542E+04  0.11265073964E+04  0.12500277847E+03 0.  0.
    9000005    1    3    3    0    0 -0.43334400676E+02  0.11875724864E+02 -0.16835330115E+03  0.17424906637E+03  0.10000000000E+01 0.  0.
    9000005    1    3    3    0    0  0.43334400676E+02 -0.11875724864E+02 -0.95119715305E+03  0.95225833002E+03  0.10000000000E+01 0.  0.
<mgrwt>
<rscale>  0 0.12500278E+03</rscale>
<asrwt>0</asrwt>
<pdfrwt beam="1">  1        4 0.53515029E-03 0.12500278E+03</pdfrwt>
<pdfrwt beam="2">  1       -4 0.17277339E+00 0.12500278E+03</pdfrwt>
<totfact> 0.26718688E+03</totfact>
</mgrwt>
</event>
<event>
 5    1  0.3271306E-002  0.1249994E+03  0.7818608E-02  0.1235070E+00
         -4   -1    0    0    0  501 -0.00000000000E+00  0.00000000000E+00  0.55981711377E+03  0.55981855433E+03  0.12700000000E+01 0.  1.
          4   -1    0    0  501    0  0.00000000000E+00 -0.00000000000E+00 -0.69184136022E+01  0.70340135607E+01  0.12700000000E+01 0.  1.
         25    2    1    2    0    0  0.00000000000E+00  0.00000000000E+00  0.55289870017E+03  0.56685256789E+03  0.12499944430E+03 0.  0.
    9000005    1    3    3    0    0 -0.25962043065E+02 -0.49518750683E+02  0.14987278089E+03  0.15996557380E+03  0.10000000000E+01 0.  0.
    9000005    1    3    3    0    0  0.25962043065E+02  0.49518750683E+02  0.40302591927E+03  0.40688699408E+03  0.10000000000E+01 0.  0.
<mgrwt>
<rscale>  0 0.12499944E+03</rscale>
<asrwt>0</asrwt>
<pdfrwt beam="2">  1        4 0.10733750E-02 0.12499944E+03</pdfrwt>
<pdfrwt beam="1">  1       -4 0.86134670E-01 0.12499944E+03</pdfrwt>
<totfact> 0.51029770E+03</totfact>
</mgrwt>
</event>
<event>
 5    1  0.3271306E-002  0.1250016E+03  0.7818608E-02  0.1235067E+00
         -4   -1    0    0    0  501 -0.00000000000E+00  0.00000000000E+00  0.10035984382E+03  0.10036787908E+03  0.12700000000E+01 0. -1.
          4   -1    0    0  501    0  0.00000000000E+00 -0.00000000000E+00 -0.38903487763E+02  0.38924211747E+02  0.12700000000E+01 0. -1.
         25    2    1    2    0    0  0.00000000000E+00  0.00000000000E+00  0.61456356060E+02  0.13929209083E+03  0.12500161146E+03 0.  0.
    9000005    1    3    3    0    0 -0.42255653033E+02  0.28751195019E+02 -0.93437478914E+01  0.51966114469E+02  0.10000000000E+01 0.  0.
    9000005    1    3    3    0    0  0.42255653033E+02 -0.28751195019E+02  0.70800103951E+02  0.87325976363E+02  0.10000000000E+01 0.  0.
<mgrwt>
<rscale>  0 0.12500161E+03</rscale>
<asrwt>0</asrwt>
<pdfrwt beam="2">  1        4 0.59873642E-02 0.12500161E+03</pdfrwt>
<pdfrwt beam="1">  1       -4 0.15442188E-01 0.12500161E+03</pdfrwt>
<totfact> 0.10147910E+04</totfact>
</mgrwt>
</event>
<event>
 5    1  0.3271306E-002  0.1250012E+03  0.7818608E-02  0.1235067E+00
         -4   -1    0    0    0  501 -0.00000000000E+00  0.00000000000E+00  0.12481441271E+03  0.12482087374E+03  0.12700000000E+01 0. -1.
          4   -1    0    0  501    0  0.00000000000E+00 -0.00000000000E+00 -0.31276899554E+02  0.31302673140E+02  0.12700000000E+01 0. -1.
         25    2    1    2    0    0  0.00000000000E+00  0.00000000000E+00  0.93537513158E+02  0.15612354688E+03  0.12500118208E+03 0.  0.
    9000005    1    3    3    0    0  0.61390252453E+02 -0.48482276169E+01  0.33488695110E+02  0.70105357195E+02  0.10000000000E+01 0.  0.
    9000005    1    3    3    0    0 -0.61390252453E+02  0.48482276169E+01  0.60048818048E+02  0.86018189682E+02  0.10000000000E+01 0.  0.
<mgrwt>
<rscale>  0 0.12500118E+03</rscale>
<asrwt>0</asrwt>
<pdfrwt beam="2">  1        4 0.48143102E-02 0.12500118E+03</pdfrwt>
<pdfrwt beam="1">  1       -4 0.19204697E-01 0.12500118E+03</pdfrwt>
<totfact> 0.98092775E+03</totfact>
</mgrwt>
</event>
<event>
 5    1  0.3271306E-002  0.1250059E+03  0.7818608E-02  0.1235060E+00
          4   -1    0    0  501    0  0.00000000000E+00  0.00000000000E+00  0.87995430093E+01  0.88907174723E+01  0.12700000000E+01 0.  1.
         -4   -1    0    0    0  501 -0.00000000000E+00 -0.00000000000E+00 -0.44157657668E+03  0.44157840298E+03  0.12700000000E+01 0.  1.
         25    2    1    2    0    0  0.00000000000E+00  0.00000000000E+00 -0.43277703367E+03  0.45046912045E+03  0.12500587027E+03 0.  0.
    9000005    1    3    3    0    0  0.49882605790E+02  0.37417662542E+02 -0.23136012582E+03  0.23961816218E+03  0.10000000000E+01 0.  0.
    9000005    1    3    3    0    0 -0.49882605790E+02 -0.37417662542E+02 -0.20141690786E+03  0.21085095826E+03  0.10000000000E+01 0.  0.
<mgrwt>
<rscale>  0 0.12500587E+03</rscale>
<asrwt>0</asrwt>
<pdfrwt beam="1">  1        4 0.13609301E-02 0.12500587E+03</pdfrwt>
<pdfrwt beam="2">  1       -4 0.67941995E-01 0.12500587E+03</pdfrwt>
<totfact> 0.59915436E+03</totfact>
</mgrwt>
</event>
<event>
 5    1  0.3271306E-002  0.1250010E+03  0.7818608E-02  0.1235068E+00
          4   -1    0    0  501    0  0.00000000000E+00  0.00000000000E+00  0.57159010988E+02  0.57173118134E+02  0.12700000000E+01 0. -1.
         -4   -1    0    0    0  501 -0.00000000000E+00 -0.00000000000E+00 -0.68312659090E+02  0.68324463349E+02  0.12700000000E+01 0. -1.
         25    2    1    2    0    0  0.00000000000E+00  0.00000000000E+00 -0.11153648102E+02  0.12549758148E+03  0.12500095636E+03 0.  0.
    9000005    1    3    3    0    0 -0.49943061329E+02 -0.22971001407E+02  0.24262183160E+02  0.60096836957E+02  0.10000000000E+01 0.  0.
    9000005    1    3    3    0    0  0.49943061329E+02  0.22971001407E+02 -0.35415831262E+02  0.65400744526E+02  0.10000000000E+01 0.  0.
<mgrwt>
<rscale>  0 0.12500096E+03</rscale>
<asrwt>0</asrwt>
<pdfrwt beam="1">  1        4 0.87956872E-02 0.12500096E+03</pdfrwt>
<pdfrwt beam="2">  1       -4 0.10511633E-01 0.12500096E+03</pdfrwt>
<totfact> 0.10441782E+04</totfact>
</mgrwt>
</event>
<event>
 5    1  0.3271306E-002  0.1249418E+03  0.7818608E-02  0.1235160E+00
          4   -1    0    0  501    0  0.00000000000E+00  0.00000000000E+00  0.90730433038E+02  0.90739321021E+02  0.12700000000E+01 0. -1.
         -4   -1    0    0    0  501 -0.00000000000E+00 -0.00000000000E+00 -0.42992901153E+02  0.43011654810E+02  0.12700000000E+01 0. -1.
         25    2    1    2    0    0  0.00000000000E+00  0.00000000000E+00  0.47737531885E+02  0.13375097583E+03  0.12494179279E+03 0.  0.
    9000005    1    3    3    0    0  0.40776669937E+02 -0.45985150144E+02  0.11936483286E+02  0.62616694884E+02  0.10000000000E+01 0.  0.
    9000005    1    3    3    0    0 -0.40776669937E+02  0.45985150144E+02  0.35801048599E+02  0.71134280947E+02  0.10000000000E+01 0.  0.
<mgrwt>
<rscale>  0 0.12494179E+03</rscale>
<asrwt>0</asrwt>
<pdfrwt beam="1">  1        4 0.13960654E-01 0.12494179E+03</pdfrwt>
<pdfrwt beam="2">  1       -4 0.66164188E-02 0.12494179E+03</pdfrwt>
<totfact> 0.10277952E+04</totfact>
</mgrwt>
</event>
<event>
 5    1  0.3271306E-002  0.1250087E+03  0.7818608E-02  0.1235056E+00
         -4   -1    0    0    0  501 -0.00000000000E+00  0.00000000000E+00  0.44037571538E+03  0.44037754665E+03  0.12700000000E+01 0. -1.
          4   -1    0    0  501    0  0.00000000000E+00 -0.00000000000E+00 -0.88241970017E+01  0.89151193332E+01  0.12700000000E+01 0. -1.
         25    2    1    2    0    0  0.00000000000E+00  0.00000000000E+00  0.43155151838E+03  0.44929266599E+03  0.12500874647E+03 0.  0.
    9000005    1    3    3    0    0  0.42685026699E+02 -0.44273237224E+02  0.25574385383E+03  0.26303621388E+03  0.10000000000E+01 0.  0.
    9000005    1    3    3    0    0 -0.42685026699E+02  0.44273237224E+02  0.17580766454E+03  0.18625645211E+03  0.10000000000E+01 0.  0.
<mgrwt>
<rscale>  0 0.12500875E+03</rscale>
<asrwt>0</asrwt>
<pdfrwt beam="2">  1        4 0.13647039E-02 0.12500875E+03</pdfrwt>
<pdfrwt beam="1">  1       -4 0.67757235E-01 0.12500875E+03</pdfrwt>
<totfact> 0.60013560E+03</totfact>
</mgrwt>
</event>
<event>
 5    1  0.3271306E-002  0.1250053E+03  0.7818608E-02  0.1235061E+00
          4   -1    0    0  501    0  0.00000000000E+00  0.00000000000E+00  0.12946124988E+02  0.13008268609E+02  0.12700000000E+01 0.  1.
         -4   -1    0    0    0  501 -0.00000000000E+00 -0.00000000000E+00 -0.30097079275E+03  0.30097347223E+03  0.12700000000E+01 0.  1.
         25    2    1    2    0    0  0.00000000000E+00  0.00000000000E+00 -0.28802466776E+03  0.31398174084E+03  0.12500529726E+03 0.  0.
    9000005    1    3    3    0    0  0.74318128841E+01  0.49270436848E+02 -0.23875461313E+03  0.24390074432E+03  0.10000000000E+01 0.  0.
    9000005    1    3    3    0    0 -0.74318128841E+01 -0.49270436848E+02 -0.49270054631E+02  0.70080996520E+02  0.10000000000E+01 0.  0.
<mgrwt>
<rscale>  0 0.12500530E+03</rscale>
<asrwt>0</asrwt>
<pdfrwt beam="1">  1        4 0.19966982E-02 0.12500530E+03</pdfrwt>
<pdfrwt beam="2">  1       -4 0.46308180E-01 0.12500530E+03</pdfrwt>
<totfact> 0.73869006E+03</totfact>
</mgrwt>
</event>
<event>
 5    1  0.3271306E-002  0.1250002E+03  0.7818608E-02  0.1235069E+00
         -4   -1    0    0    0  501 -0.00000000000E+00  0.00000000000E+00  0.37280722161E+02  0.37302347712E+02  0.12700000000E+01 0. -1.
          4   -1    0    0  501    0  0.00000000000E+00 -0.00000000000E+00 -0.10472377049E+03  0.10473147094E+03  0.12700000000E+01 0. -1.
         25    2    1    2    0    0  0.00000000000E+00  0.00000000000E+00 -0.67443048332E+02  0.14203381866E+03  0.12500016350E+03 0.  0.
    9000005    1    3    3    0    0  0.29624503205E+02 -0.18412313809E+02  0.25196363110E+02  0.43040460080E+02  0.10000000000E+01 0.  0.
    9000005    1    3    3    0    0 -0.29624503205E+02  0.18412313809E+02 -0.92639411442E+02  0.98993358577E+02  0.10000000000E+01 0.  0.
<mgrwt>
<rscale>  0 0.12500016E+03</rscale>
<asrwt>0</asrwt>
<pdfrwt beam="2">  1        4 0.16113605E-01 0.12500016E+03</pdfrwt>
<pdfrwt beam="1">  1       -4 0.57377516E-02 0.12500016E+03</pdfrwt>
<totfact> 0.10091569E+04</totfact>
</mgrwt>
</event>
<event>
 5    1  0.3271306E-002  0.1250025E+03  0.7818608E-02  0.1235065E+00
          4   -1    0    0  501    0  0.00000000000E+00  0.00000000000E+00  0.34499928813E+01  0.36763230110E+01  0.12700000000E+01 0.  1.
         -4   -1    0    0    0  501 -0.00000000000E+00 -0.00000000000E+00 -0.10961056339E+04  0.10961063696E+04  0.12700000000E+01 0.  1.
         25    2    1    2    0    0  0.00000000000E+00  0.00000000000E+00 -0.10926556410E+04  0.10997826926E+04  0.12500248480E+03 0.  0.
    9000005    1    3    3    0    0  0.13947334236E+02  0.59321238913E+02 -0.42445993842E+03  0.42881321906E+03  0.10000000000E+01 0.  0.
    9000005    1    3    3    0    0 -0.13947334236E+02 -0.59321238913E+02 -0.66819570260E+03  0.67096947359E+03  0.10000000000E+01 0.  0.
<mgrwt>
<rscale>  0 0.12500248E+03</rscale>
<asrwt>0</asrwt>
<pdfrwt beam="1">  1        4 0.54823561E-03 0.12500248E+03</pdfrwt>
<pdfrwt beam="2">  1       -4 0.16864883E+00 0.12500248E+03</pdfrwt>
<totfact> 0.27488310E+03</totfact>
</mgrwt>
</event>
<event>
 5    1  0.3271306E-002  0.1250002E+03  0.7818608E-02  0.1235069E+00
          4   -1    0    0  501    0  0.00000000000E+00  0.00000000000E+00  0.26898754208E+02  0.26928718461E+02  0.12700000000E+01 0. -1.
         -4   -1    0    0    0  501 -0.00000000000E+00 -0.00000000000E+00 -0.14510739624E+03  0.14511295374E+03  0.12700000000E+01 0. -1.
         25    2    1    2    0    0  0.00000000000E+00  0.00000000000E+00 -0.11820864203E+03  0.17204167220E+03  0.12500021569E+03 0.  0.
    9000005    1    3    3    0    0  0.22736745292E+02  0.67576228046E+00 -0.13921396514E+03  0.14106361803E+03  0.10000000000E+01 0.  0.
    9000005    1    3    3    0    0 -0.22736745292E+02 -0.67576228046E+00  0.21005323112E+02  0.30978054170E+02  0.10000000000E+01 0.  0.
<mgrwt>
<rscale>  0 0.12500022E+03</rscale>
<asrwt>0</asrwt>
<pdfrwt beam="1">  1        4 0.41410024E-02 0.12500022E+03</pdfrwt>
<pdfrwt beam="2">  1       -4 0.22326947E-01 0.12500022E+03</pdfrwt>
<totfact> 0.95069001E+03</totfact>
</mgrwt>
</event>
<event>
 5    1  0.3271306E-002  0.1250027E+03  0.7818608E-02  0.1235065E+00
         -4   -1    0    0    0  501 -0.00000000000E+00  0.00000000000E+00  0.51109956148E+02  0.51125732440E+02  0.12700000000E+01 0. -1.
          4   -1    0    0  501    0  0.00000000000E+00 -0.00000000000E+00 -0.76398757905E+02  0.76409312976E+02  0.12700000000E+01 0. -1.
         25    2    1    2    0    0  0.00000000000E+00  0.00000000000E+00 -0.25288801757E+02  0.12753504542E+03  0.12500265723E+03 0.  0.
    9000005    1    3    3    0    0  0.21829921780E+01  0.91535042399E+01 -0.75676771059E+02  0.76266150897E+02  0.10000000000E+01 0.  0.
    9000005    1    3    3    0    0 -0.21829921780E+01 -0.91535042399E+01  0.50387969302E+02  0.51268894518E+02  0.10000000000E+01 0.  0.
<mgrwt>
<rscale>  0 0.12500266E+03</rscale>
<asrwt>0</asrwt>
<pdfrwt beam="2">  1        4 0.11755680E-01 0.12500266E+03</pdfrwt>
<pdfrwt beam="1">  1       -4 0.78650957E-02 0.12500266E+03</pdfrwt>
<totfact> 0.10396918E+04</totfact>
</mgrwt>
</event>
<event>
 5    1  0.3271306E-002  0.1250084E+03  0.7818608E-02  0.1235056E+00
         -4   -1    0    0    0  501 -0.00000000000E+00  0.00000000000E+00  0.29581545976E+03  0.29581818594E+03  0.12700000000E+01 0. -1.
          4   -1    0    0  501    0  0.00000000000E+00 -0.00000000000E+00 -0.13173474552E+02  0.13234550683E+02  0.12700000000E+01 0. -1.
         25    2    1    2    0    0  0.00000000000E+00  0.00000000000E+00  0.28264198521E+03  0.30905273662E+03  0.12500840857E+03 0.  0.
    9000005    1    3    3    0    0  0.53987815172E+02  0.11748962165E+01  0.21909734339E+03  0.22565617751E+03  0.10000000000E+01 0.  0.
    9000005    1    3    3    0    0 -0.53987815172E+02 -0.11748962165E+01  0.63544641821E+02  0.83396559115E+02  0.10000000000E+01 0.  0.
<mgrwt>
<rscale>  0 0.12500841E+03</rscale>
<asrwt>0</asrwt>
<pdfrwt beam="2">  1        4 0.20315965E-02 0.12500841E+03</pdfrwt>
<pdfrwt beam="1">  1       -4 0.45514973E-01 0.12500841E+03</pdfrwt>
<totfact> 0.74463243E+03</totfact>
</mgrwt>
</event>
<event>
 4    1  0.3271306E-002  0.1249239E+03  0.7818608E-02  0.1235188E+00
          4   -1    0    0  501    0  0.00000000000E+00  0.00000000000E+00  0.45932095461E+02  0.45949649546E+02  0.12700000000E+01 0.  1.
         -4   -1    0    0    0  501 -0.00000000000E+00 -0.00000000000E+00 -0.84901972219E+02  0.84911470290E+02  0.12700000000E+01 0.  1.
    9000005    1    1    2    0    0 -0.59606514164E+02  0.15941251818E+02 -0.93593422956E+01  0.62415201101E+02  0.10000000000E+01 0.  0.
    9000005    1    1    2    0    0  0.59606514164E+02 -0.15941251818E+02 -0.29610534463E+02  0.68445918735E+02  0.10000000000E+01 0.  0.
<mgrwt>
<rscale>  0 0.12492390E+03</rscale>
<asrwt>0</asrwt>
<pdfrwt beam="1">  1        4 0.70685571E-02 0.12492390E+03</pdfrwt>
<pdfrwt beam="2">  1       -4 0.13063923E-01 0.12492390E+03</pdfrwt>
<totfact> 0.10343816E+04</totfact>
</mgrwt>
</event>
<event>
 5    1  0.3271306E-002  0.1249989E+03  0.7818608E-02  0.1235071E+00
         -4   -1    0    0    0  501 -0.00000000000E+00  0.00000000000E+00  0.24722186030E+03  0.24722512233E+03  0.12700000000E+01 0. -1.
          4   -1    0    0  501    0  0.00000000000E+00 -0.00000000000E+00 -0.15771425600E+02  0.15822476591E+02  0.12700000000E+01 0. -1.
         25    2    1    2    0    0  0.00000000000E+00  0.00000000000E+00  0.23145043470E+03  0.26304759892E+03  0.12499894229E+03 0.  0.
    9000005    1    3    3    0    0 -0.28679716749E+02 -0.16966972219E+02  0.22697566973E+03  0.22941089545E+03  0.10000000000E+01 0.  0.
    9000005    1    3    3    0    0  0.28679716749E+02  0.16966972219E+02  0.44747649686E+01  0.33636703474E+02  0.10000000000E+01 0.  0.
<mgrwt>
<rscale>  0 0.12499894E+03</rscale>
<asrwt>0</asrwt>
<pdfrwt beam="2">  1        4 0.24305512E-02 0.12499894E+03</pdfrwt>
<pdfrwt beam="1">  1       -4 0.38038308E-01 0.12499894E+03</pdfrwt>
<totfact> 0.80482162E+03</totfact>
</mgrwt>
</event>
<event>
 5    1  0.3271306E-002  0.1250056E+03  0.7818608E-02  0.1235061E+00
         -4   -1    0    0    0  501 -0.00000000000E+00  0.00000000000E+00  0.15653532647E+02  0.15704966868E+02  0.12700000000E+01 0. -1.
          4   -1    0    0  501    0  0.00000000000E+00 -0.00000000000E+00 -0.24910417233E+03  0.24910740971E+03  0.12700000000E+01 0. -1.
         25    2    1    2    0    0  0.00000000000E+00  0.00000000000E+00 -0.23345063969E+03  0.26481237658E+03  0.12500557436E+03 0.  0.
    9000005    1    3    3    0    0 -0.30652502267E+02  0.30641181547E+02 -0.21210389376E+03  0.21648907512E+03  0.10000000000E+01 0.  0.
    9000005    1    3    3    0    0  0.30652502267E+02 -0.30641181547E+02 -0.21346745930E+02  0.48323301456E+02  0.10000000000E+01 0.  0.
<mgrwt>
<rscale>  0 0.12500557E+03</rscale>
<asrwt>0</asrwt>
<pdfrwt beam="2">  1        4 0.38327921E-01 0.12500557E+03</pdfrwt>
<pdfrwt beam="1">  1       -4 0.24124415E-02 0.12500557E+03</pdfrwt>
<totfact> 0.80225470E+03</totfact>
</mgrwt>
</event>
<event>
 4    1  0.3271306E-002  0.1249341E+03  0.7818608E-02  0.1235172E+00
          4   -1    0    0  501    0  0.00000000000E+00  0.00000000000E+00  0.49840856834E+02  0.49857034708E+02  0.12700000000E+01 0.  1.
         -4   -1    0    0    0  501 -0.00000000000E+00 -0.00000000000E+00 -0.78257807031E+02  0.78268111395E+02  0.12700000000E+01 0.  1.
    9000005    1    1    2    0    0 -0.57658060948E+02  0.21582389033E+02 -0.25007434901E+02  0.66457680587E+02  0.10000000000E+01 0.  0.
    9000005    1    1    2    0    0  0.57658060948E+02 -0.21582389033E+02 -0.34095152963E+01  0.61667465516E+02  0.10000000000E+01 0.  0.
<mgrwt>
<rscale>  0 0.12493410E+03</rscale>
<asrwt>0</asrwt>
<pdfrwt beam="1">  1        4 0.76698612E-02 0.12493410E+03</pdfrwt>
<pdfrwt beam="2">  1       -4 0.12041700E-01 0.12493410E+03</pdfrwt>
<totfact> 0.10400250E+04</totfact>
</mgrwt>
</event>
<event>
 5    1  0.3271306E-002  0.1250005E+03  0.7818608E-02  0.1235068E+00
          4   -1    0    0  501    0  0.00000000000E+00  0.00000000000E+00  0.28206542015E+02  0.28235118424E+02  0.12700000000E+01 0.  1.
         -4   -1    0    0    0  501 -0.00000000000E+00 -0.00000000000E+00 -0.13838695974E+03  0.13839278712E+03  0.12700000000E+01 0.  1.
         25    2    1    2    0    0  0.00000000000E+00  0.00000000000E+00 -0.11018041773E+03  0.16662790554E+03  0.12500053782E+03 0.  0.
    9000005    1    3    3    0    0  0.34400277547E+02  0.47468407388E+02 -0.26232463483E+02  0.64232164338E+02  0.10000000000E+01 0.  0.
    9000005    1    3    3    0    0 -0.34400277547E+02 -0.47468407388E+02 -0.83947954246E+02  0.10239574121E+03  0.10000000000E+01 0.  0.
<mgrwt>
<rscale>  0 0.12500054E+03</rscale>
<asrwt>0</asrwt>
<pdfrwt beam="1">  1        4 0.43421145E-02 0.12500054E+03</pdfrwt>
<pdfrwt beam="2">  1       -4 0.21292948E-01 0.12500054E+03</pdfrwt>
<totfact> 0.96078818E+03</totfact>
</mgrwt>
</event>
<event>
 5    1  0.3271306E-002  0.1250029E+03  0.7818608E-02  0.1235065E+00
          4   -1    0    0  501    0  0.00000000000E+00  0.00000000000E+00  0.39499831464E+02  0.39520242733E+02  0.12700000000E+01 0.  1.
         -4   -1    0    0    0  501 -0.00000000000E+00 -0.00000000000E+00 -0.98847393500E+02  0.98855551699E+02  0.12700000000E+01 0.  1.
         25    2    1    2    0    0  0.00000000000E+00  0.00000000000E+00 -0.59347562036E+02  0.13837579443E+03  0.12500290943E+03 0.  0.
    9000005    1    3    3    0    0 -0.27558397157E+02  0.55951545672E+02 -0.25330927526E+02  0.67325304354E+02  0.10000000000E+01 0.  0.
    9000005    1    3    3    0    0  0.27558397157E+02 -0.55951545672E+02 -0.34016634509E+02  0.71050490078E+02  0.10000000000E+01 0.  0.
<mgrwt>
<rscale>  0 0.12500291E+03</rscale>
<asrwt>0</asrwt>
<pdfrwt beam="1">  1        4 0.60790948E-02 0.12500291E+03</pdfrwt>
<pdfrwt beam="2">  1       -4 0.15209489E-01 0.12500291E+03</pdfrwt>
<totfact> 0.10166693E+04</totfact>
</mgrwt>
</event>
<event>
 5    1  0.3271306E-002  0.1249916E+03  0.7818608E-02  0.1235082E+00
         -4   -1    0    0    0  501 -0.00000000000E+00  0.00000000000E+00  0.52176639461E+02  0.52192093323E+02  0.12700000000E+01 0. -1.
          4   -1    0    0  501    0  0.00000000000E+00 -0.00000000000E+00 -0.74823878164E+02  0.74834655364E+02  0.12700000000E+01 0. -1.
         25    2    1    2    0    0  0.00000000000E+00  0.00000000000E+00 -0.22647238703E+02  0.12702674869E+03  0.12499158956E+03 0.  0.
    9000005    1    3    3    0    0  0.48564392119E+02 -0.33391274333E+02 -0.32428233933E+02  0.67276056213E+02  0.10000000000E+01 0.  0.
    9000005    1    3    3    0    0 -0.48564392119E+02  0.33391274333E+02  0.97809952305E+01  0.59750692474E+02  0.10000000000E+01 0.  0.
<mgrwt>
<rscale>  0 0.12499159E+03</rscale>
<asrwt>0</asrwt>
<pdfrwt beam="2">  1        4 0.11513384E-01 0.12499159E+03</pdfrwt>
<pdfrwt beam="1">  1       -4 0.80291930E-02 0.12499159E+03</pdfrwt>
<totfact> 0.10410541E+04</totfact>
</mgrwt>
</event>
<event>
 5    1  0.3271306E-002  0.1249974E+03  0.7818608E-02  0.1235073E+00
         -4   -1    0    0    0  501 -0.00000000000E+00  0.00000000000E+00  0.71242926882E+02  0.71254245703E+02  0.12700000000E+01 0. -1.
          4   -1    0    0  501    0  0.00000000000E+00 -0.00000000000E+00 -0.54804700001E+02  0.54819413004E+02  0.12700000000E+01 0. -1.
         25    2    1    2    0    0  0.00000000000E+00  0.00000000000E+00  0.16438226882E+02  0.12607365871E+03  0.12499740844E+03 0.  0.
    9000005    1    3    3    0    0  0.49396343332E+02  0.20204284341E+02 -0.24570432614E+02  0.58761535030E+02  0.10000000000E+01 0.  0.
    9000005    1    3    3    0    0 -0.49396343332E+02 -0.20204284341E+02  0.41008659496E+02  0.67312123677E+02  0.10000000000E+01 0.  0.
<mgrwt>
<rscale>  0 0.12499741E+03</rscale>
<asrwt>0</asrwt>
<pdfrwt beam="2">  1        4 0.84334947E-02 0.12499741E+03</pdfrwt>
<pdfrwt beam="1">  1       -4 0.10962453E-01 0.12499741E+03</pdfrwt>
<totfact> 0.10429953E+04</totfact>
</mgrwt>
</event>
<event>
 5    1  0.3271306E-002  0.1249997E+03  0.7818608E-02  0.1235070E+00
          4   -1    0    0  501    0  0.00000000000E+00  0.00000000000E+00  0.24817251758E+03  0.24817576711E+03  0.12700000000E+01 0. -1.
         -4   -1    0    0    0  501 -0.00000000000E+00 -0.00000000000E+00 -0.15710999895E+02  0.15762246594E+02  0.12700000000E+01 0. -1.
         25    2    1    2    0    0  0.00000000000E+00  0.00000000000E+00  0.23246151769E+03  0.26393801371E+03  0.12499967150E+03 0.  0.
    9000005    1    3    3    0    0  0.53741514201E+02  0.16758567910E+02  0.58938006483E+02  0.81508825014E+02  0.10000000000E+01 0.  0.
    9000005    1    3    3    0    0 -0.53741514201E+02 -0.16758567910E+02  0.17352351120E+03  0.18242918869E+03  0.10000000000E+01 0.  0.
<mgrwt>
<rscale>  0 0.12499967E+03</rscale>
<asrwt>0</asrwt>
<pdfrwt beam="1">  1        4 0.38184579E-01 0.12499967E+03</pdfrwt>
<pdfrwt beam="2">  1       -4 0.24212690E-02 0.12499967E+03</pdfrwt>
<totfact> 0.80357160E+03</totfact>
</mgrwt>
</event>
<event>
 5    1  0.3271306E-002  0.1249995E+03  0.7818608E-02  0.1235070E+00
         -4   -1    0    0    0  501 -0.00000000000E+00  0.00000000000E+00  0.30039697766E+03  0.30039966226E+03  0.12700000000E+01 0. -1.
          4   -1    0    0  501    0  0.00000000000E+00 -0.00000000000E+00 -0.12969772085E+02  0.13031802943E+02  0.12700000000E+01 0. -1.
         25    2    1    2    0    0  0.00000000000E+00  0.00000000000E+00  0.28742720557E+03  0.31343146520E+03  0.12499953950E+03 0.  0.
    9000005    1    3    3    0    0 -0.51954283192E+01 -0.14786582892E+02 -0.79740186502E+01  0.17613077030E+02  0.10000000000E+01 0.  0.
    9000005    1    3    3    0    0  0.51954283192E+01  0.14786582892E+02  0.29540122422E+03  0.29581838817E+03  0.10000000000E+01 0.  0.
<mgrwt>
<rscale>  0 0.12499954E+03</rscale>
<asrwt>0</asrwt>
<pdfrwt beam="2">  1        4 0.20003277E-02 0.12499954E+03</pdfrwt>
<pdfrwt beam="1">  1       -4 0.46219896E-01 0.12499954E+03</pdfrwt>
<totfact> 0.73944991E+03</totfact>
</mgrwt>
</event>
<event>
 5    1  0.3271306E-002  0.1250009E+03  0.7818608E-02  0.1235068E+00
         -4   -1    0    0    0  501 -0.00000000000E+00  0.00000000000E+00  0.39473500052E+01  0.41466217652E+01  0.12700000000E+01 0. -1.
          4   -1    0    0  501    0  0.00000000000E+00 -0.00000000000E+00 -0.96503862421E+03  0.96503945988E+03  0.12700000000E+01 0. -1.
         25    2    1    2    0    0  0.00000000000E+00  0.00000000000E+00 -0.96109127421E+03  0.96918608164E+03  0.12500089397E+03 0.  0.
    9000005    1    3    3    0    0 -0.15777904728E+02 -0.15246474938E+02 -0.26859895027E+02  0.34696559433E+02  0.10000000000E+01 0.  0.
    9000005    1    3    3    0    0  0.15777904728E+02  0.15246474938E+02 -0.93423137918E+03  0.93448952221E+03  0.10000000000E+01 0.  0.
<mgrwt>
<rscale>  0 0.12500089E+03</rscale>
<asrwt>0</asrwt>
<pdfrwt beam="2">  1        4 0.14848269E+00 0.12500089E+03</pdfrwt>
<pdfrwt beam="1">  1       -4 0.62267826E-03 0.12500089E+03</pdfrwt>
<totfact> 0.31643858E+03</totfact>
</mgrwt>
</event>
<event>
 5    1  0.3271306E-002  0.1249992E+03  0.7818608E-02  0.1235070E+00
         -4   -1    0    0    0  501 -0.00000000000E+00  0.00000000000E+00  0.56498349420E+02  0.56512621485E+02  0.12700000000E+01 0. -1.
          4   -1    0    0  501    0  0.00000000000E+00 -0.00000000000E+00 -0.69109513731E+02  0.69121181906E+02  0.12700000000E+01 0. -1.
         25    2    1    2    0    0  0.00000000000E+00  0.00000000000E+00 -0.12611164311E+02  0.12563380339E+03  0.12499924435E+03 0.  0.
    9000005    1    3    3    0    0 -0.10003862859E+02  0.52953909952E+02  0.25493756948E+02  0.59624873121E+02  0.10000000000E+01 0.  0.
    9000005    1    3    3    0    0  0.10003862859E+02 -0.52953909952E+02 -0.38104921259E+02  0.66008930271E+02  0.10000000000E+01 0.  0.
<mgrwt>
<rscale>  0 0.12499924E+03</rscale>
<asrwt>0</asrwt>
<pdfrwt beam="2">  1        4 0.10634228E-01 0.12499924E+03</pdfrwt>
<pdfrwt beam="1">  1       -4 0.86940492E-02 0.12499924E+03</pdfrwt>
<totfact> 0.10439180E+04</totfact>
</mgrwt>
</event>
<event>
 5    1  0.3271306E-002  0.1250008E+03  0.7818608E-02  0.1235068E+00
         -4   -1    0    0    0  501 -0.00000000000E+00  0.00000000000E+00  0.21564395131E+03  0.21564769101E+03  0.12700000000E+01 0. -1.
          4   -1    0    0  501    0  0.00000000000E+00 -0.00000000000E+00 -0.18088410535E+02  0.18132939521E+02  0.12700000000E+01 0. -1.
         25    2    1    2    0    0  0.00000000000E+00  0.00000000000E+00  0.19755554078E+03  0.23378063053E+03  0.12500076608E+03 0.  0.
    9000005    1    3    3    0    0  0.20751519123E+02  0.24405260839E+02  0.19912857877E+03  0.20169143062E+03  0.10000000000E+01 0.  0.
    9000005    1    3    3    0    0 -0.20751519123E+02 -0.24405260839E+02 -0.15730379905E+01  0.32089199913E+02  0.10000000000E+01 0.  0.
<mgrwt>
<rscale>  0 0.12500077E+03</rscale>
<asrwt>0</asrwt>
<pdfrwt beam="2">  1        4 0.27865455E-02 0.12500077E+03</pdfrwt>
<pdfrwt beam="1">  1       -4 0.33179704E-01 0.12500077E+03</pdfrwt>
<totfact> 0.84730991E+03</totfact>
</mgrwt>
</event>
<event>
 5    1  0.3271306E-002  0.1250005E+03  0.7818608E-02  0.1235069E+00
          4   -1    0    0  501    0  0.00000000000E+00  0.00000000000E+00  0.31849704317E+01  0.34288389654E+01  0.12700000000E+01 0. -1.
         -4   -1    0    0    0  501 -0.00000000000E+00 -0.00000000000E+00 -0.11810054424E+04  0.11810061252E+04  0.12700000000E+01 0. -1.
         25    2    1    2    0    0  0.00000000000E+00  0.00000000000E+00 -0.11778204719E+04  0.11844349642E+04  0.12500048107E+03 0.  0.
    9000005    1    3    3    0    0 -0.31998649262E+02  0.53659496152E+02 -0.60239397860E+03  0.60562592459E+03  0.10000000000E+01 0.  0.
    9000005    1    3    3    0    0  0.31998649262E+02 -0.53659496152E+02 -0.57542649335E+03  0.57880903960E+03  0.10000000000E+01 0.  0.
<mgrwt>
<rscale>  0 0.12500048E+03</rscale>
<asrwt>0</asrwt>
<pdfrwt beam="1">  1        4 0.50880804E-03 0.12500048E+03</pdfrwt>
<pdfrwt beam="2">  1       -4 0.18171162E+00 0.12500048E+03</pdfrwt>
<totfact> 0.25123630E+03</totfact>
</mgrwt>
</event>
<event>
 5    1  0.3271306E-002  0.1249999E+03  0.7818608E-02  0.1235069E+00
          4   -1    0    0  501    0  0.00000000000E+00  0.00000000000E+00  0.11926796184E+03  0.11927472331E+03  0.12700000000E+01 0. -1.
         -4   -1    0    0    0  501 -0.00000000000E+00 -0.00000000000E+00 -0.32731822423E+02  0.32756451260E+02  0.12700000000E+01 0. -1.
         25    2    1    2    0    0  0.00000000000E+00  0.00000000000E+00  0.86536139412E+02  0.15203117457E+03  0.12499989846E+03 0.  0.
    9000005    1    3    3    0    0  0.25023593529E+02 -0.40521873061E+02 -0.59418661141E+01  0.48005293483E+02  0.10000000000E+01 0.  0.
    9000005    1    3    3    0    0 -0.25023593529E+02  0.40521873061E+02  0.92478005526E+02  0.10402588109E+03  0.10000000000E+01 0.  0.
<mgrwt>
<rscale>  0 0.12499990E+03</rscale>
<asrwt>0</asrwt>
<pdfrwt beam="1">  1        4 0.18351332E-01 0.12499990E+03</pdfrwt>
<pdfrwt beam="2">  1       -4 0.50380796E-02 0.12499990E+03</pdfrwt>
<totfact> 0.98900570E+03</totfact>
</mgrwt>
</event>
<event>
 5    1  0.3271306E-002  0.1249954E+03  0.7818608E-02  0.1235076E+00
          4   -1    0    0  501    0  0.00000000000E+00  0.00000000000E+00  0.62900597753E+01  0.64169893234E+01  0.12700000000E+01 0.  1.
         -4   -1    0    0    0  501 -0.00000000000E+00 -0.00000000000E+00 -0.61464340725E+03  0.61464471931E+03  0.12700000000E+01 0.  1.
         25    2    1    2    0    0  0.00000000000E+00  0.00000000000E+00 -0.60835334748E+03  0.62106170864E+03  0.12499540210E+03 0.  0.
    9000005    1    3    3    0    0 -0.11357185800E+02 -0.38863752057E+02 -0.54067657697E+03  0.54219142171E+03  0.10000000000E+01 0.  0.
    9000005    1    3    3    0    0  0.11357185800E+02  0.38863752057E+02 -0.67676770505E+02  0.78870286923E+02  0.10000000000E+01 0.  0.
<mgrwt>
<rscale>  0 0.12499540E+03</rscale>
<asrwt>0</asrwt>
<pdfrwt beam="1">  1        4 0.97756673E-03 0.12499540E+03</pdfrwt>
<pdfrwt beam="2">  1       -4 0.94570342E-01 0.12499540E+03</pdfrwt>
<totfact> 0.47569374E+03</totfact>
</mgrwt>
</event>
<event>
 5    1  0.3271306E-002  0.1250038E+03  0.7818608E-02  0.1235063E+00
          4   -1    0    0  501    0  0.00000000000E+00  0.00000000000E+00  0.59177316213E+01  0.60524744974E+01  0.12700000000E+01 0.  1.
         -4   -1    0    0    0  501 -0.00000000000E+00 -0.00000000000E+00 -0.65256644358E+03  0.65256767939E+03  0.12700000000E+01 0.  1.
         25    2    1    2    0    0  0.00000000000E+00  0.00000000000E+00 -0.64664871196E+03  0.65862015389E+03  0.12500380167E+03 0.  0.
    9000005    1    3    3    0    0  0.27184733476E+02 -0.12407006860E+02 -0.34137534264E+02  0.45379673854E+02  0.10000000000E+01 0.  0.
    9000005    1    3    3    0    0 -0.27184733476E+02  0.12407006860E+02 -0.61251117770E+03  0.61324048004E+03  0.10000000000E+01 0.  0.
<mgrwt>
<rscale>  0 0.12500380E+03</rscale>
<asrwt>0</asrwt>
<pdfrwt beam="1">  1        4 0.92088067E-03 0.12500380E+03</pdfrwt>
<pdfrwt beam="2">  1       -4 0.10040524E+00 0.12500380E+03</pdfrwt>
<totfact> 0.45358983E+03</totfact>
</mgrwt>
</event>
<event>
 4    1  0.3271306E-002  0.1251718E+03  0.7818608E-02  0.1234801E+00
          4   -1    0    0  501    0  0.00000000000E+00  0.00000000000E+00  0.79619255741E+02  0.79629383928E+02  0.12700000000E+01 0.  1.
         -4   -1    0    0    0  501 -0.00000000000E+00 -0.00000000000E+00 -0.49175117837E+02  0.49191514657E+02  0.12700000000E+01 0.  1.
    9000005    1    1    2    0    0 -0.70343645276E+01 -0.27774320612E+02 -0.42033422231E+02  0.50879305756E+02  0.10000000000E+01 0.  0.
    9000005    1    1    2    0    0  0.70343645276E+01  0.27774320612E+02  0.72477560135E+02  0.77941592830E+02  0.10000000000E+01 0.  0.
<mgrwt>
<rscale>  0 0.12517180E+03</rscale>
<asrwt>0</asrwt>
<pdfrwt beam="1">  1        4 0.12251157E-01 0.12517180E+03</pdfrwt>
<pdfrwt beam="2">  1       -4 0.75674432E-02 0.12517180E+03</pdfrwt>
<totfact> 0.10329684E+04</totfact>
</mgrwt>
</event>
<event>
 5    1  0.3271306E-002  0.1250042E+03  0.7818608E-02  0.1235063E+00
         -4   -1    0    0    0  501 -0.00000000000E+00  0.00000000000E+00  0.12806281038E+03  0.12806910753E+03  0.12700000000E+01 0.  1.
          4   -1    0    0  501    0  0.00000000000E+00 -0.00000000000E+00 -0.30484380337E+02  0.30510823400E+02  0.12700000000E+01 0.  1.
         25    2    1    2    0    0  0.00000000000E+00  0.00000000000E+00  0.97578430045E+02  0.15857993093E+03  0.12500417786E+03 0.  0.
    9000005    1    3    3    0    0 -0.21382733391E+02  0.45121339931E+02  0.96464748095E+02  0.10862598322E+03  0.10000000000E+01 0.  0.
    9000005    1    3    3    0    0  0.21382733391E+02 -0.45121339931E+02  0.11136819496E+01  0.49953947711E+02  0.10000000000E+01 0.  0.
<mgrwt>
<rscale>  0 0.12500418E+03</rscale>
<asrwt>0</asrwt>
<pdfrwt beam="2">  1        4 0.46924232E-02 0.12500418E+03</pdfrwt>
<pdfrwt beam="1">  1       -4 0.19704489E-01 0.12500418E+03</pdfrwt>
<totfact> 0.97608095E+03</totfact>
</mgrwt>
</event>
<event>
 5    1  0.3271306E-002  0.1249956E+03  0.7818608E-02  0.1235076E+00
         -4   -1    0    0    0  501 -0.00000000000E+00  0.00000000000E+00  0.27687566977E+02  0.27716678464E+02  0.12700000000E+01 0.  1.
          4   -1    0    0  501    0  0.00000000000E+00 -0.00000000000E+00 -0.14096721242E+03  0.14097293313E+03  0.12700000000E+01 0.  1.
         25    2    1    2    0    0  0.00000000000E+00  0.00000000000E+00 -0.11327964544E+03  0.16868961160E+03  0.12499562788E+03 0.  0.
    9000005    1    3    3    0    0  0.49143096473E+02 -0.28308720755E+02 -0.92052681518E+02  0.10812550012E+03  0.10000000000E+01 0.  0.
    9000005    1    3    3    0    0 -0.49143096473E+02  0.28308720755E+02 -0.21226963921E+02  0.60564111477E+02  0.10000000000E+01 0.  0.
<mgrwt>
<rscale>  0 0.12499563E+03</rscale>
<asrwt>0</asrwt>
<pdfrwt beam="2">  1        4 0.21689942E-01 0.12499563E+03</pdfrwt>
<pdfrwt beam="1">  1       -4 0.42623052E-02 0.12499563E+03</pdfrwt>
<totfact> 0.95702561E+03</totfact>
</mgrwt>
</event>
<event>
 5    1  0.3271306E-002  0.1249988E+03  0.7818608E-02  0.1235071E+00
         -4   -1    0    0    0  501 -0.00000000000E+00  0.00000000000E+00  0.15322503983E+03  0.15323030291E+03  0.12700000000E+01 0. -1.
          4   -1    0    0  501    0  0.00000000000E+00 -0.00000000000E+00 -0.25471518998E+02  0.25503160197E+02  0.12700000000E+01 0. -1.
         25    2    1    2    0    0  0.00000000000E+00  0.00000000000E+00  0.12775352083E+03  0.17873346311E+03  0.12499875499E+03 0.  0.
    9000005    1    3    3    0    0 -0.38641962021E+02  0.25400920693E+02  0.12397883685E+03  0.13232596113E+03  0.10000000000E+01 0.  0.
    9000005    1    3    3    0    0  0.38641962021E+02 -0.25400920693E+02  0.37746839770E+01  0.46407501980E+02  0.10000000000E+01 0.  0.
<mgrwt>
<rscale>  0 0.12499875E+03</rscale>
<asrwt>0</asrwt>
<pdfrwt beam="2">  1        4 0.39215340E-02 0.12499875E+03</pdfrwt>
<pdfrwt beam="1">  1       -4 0.23575922E-01 0.12499875E+03</pdfrwt>
<totfact> 0.93848102E+03</totfact>
</mgrwt>
</event>
<event>
 5    1  0.3271306E-002  0.1250000E+03  0.7818608E-02  0.1235069E+00
          4   -1    0    0  501    0  0.00000000000E+00  0.00000000000E+00  0.81371936955E+01  0.82357040524E+01  0.12700000000E+01 0.  1.
         -4   -1    0    0    0  501 -0.00000000000E+00 -0.00000000000E+00 -0.47706120994E+03  0.47706290039E+03  0.12700000000E+01 0.  1.
         25    2    1    2    0    0  0.00000000000E+00  0.00000000000E+00 -0.46892401624E+03  0.48529860444E+03  0.12500000985E+03 0.  0.
    9000005    1    3    3    0    0 -0.33752194291E+02  0.30957325669E+02 -0.39952900507E+03  0.40214673009E+03  0.10000000000E+01 0.  0.
    9000005    1    3    3    0    0  0.33752194291E+02 -0.30957325669E+02 -0.69395011172E+02  0.83151874348E+02  0.10000000000E+01 0.  0.
<mgrwt>
<rscale>  0 0.12500001E+03</rscale>
<asrwt>0</asrwt>
<pdfrwt beam="1">  1        4 0.12595841E-02 0.12500001E+03</pdfrwt>
<pdfrwt beam="2">  1       -4 0.73401719E-01 0.12500001E+03</pdfrwt>
<totfact> 0.57023329E+03</totfact>
</mgrwt>
</event>
<event>
 5    1  0.3271306E-002  0.1250016E+03  0.7818608E-02  0.1235067E+00
         -4   -1    0    0    0  501 -0.00000000000E+00  0.00000000000E+00  0.52906941912E+03  0.52907094340E+03  0.12700000000E+01 0.  1.
          4   -1    0    0  501    0  0.00000000000E+00 -0.00000000000E+00 -0.73272758748E+01  0.74365228263E+01  0.12700000000E+01 0.  1.
         25    2    1    2    0    0  0.00000000000E+00  0.00000000000E+00  0.52174214324E+03  0.53650746622E+03  0.12500158909E+03 0.  0.
    9000005    1    3    3    0    0 -0.17307935390E+02  0.41010945111E+02  0.72614552489E+02  0.85178257082E+02  0.10000000000E+01 0.  0.
    9000005    1    3    3    0    0  0.17307935390E+02 -0.41010945111E+02  0.44912759075E+03  0.45132920914E+03  0.10000000000E+01 0.  0.
<mgrwt>
<rscale>  0 0.12500159E+03</rscale>
<asrwt>0</asrwt>
<pdfrwt beam="2">  1        4 0.11357938E-02 0.12500159E+03</pdfrwt>
<pdfrwt beam="1">  1       -4 0.81403833E-01 0.12500159E+03</pdfrwt>
<totfact> 0.53137207E+03</totfact>
</mgrwt>
</event>
<event>
 5    1  0.3271306E-002  0.1250021E+03  0.7818608E-02  0.1235066E+00
         -4   -1    0    0    0  501 -0.00000000000E+00  0.00000000000E+00  0.49396209386E+01  0.51002700926E+01  0.12700000000E+01 0.  1.
          4   -1    0    0  501    0  0.00000000000E+00 -0.00000000000E+00 -0.77801144734E+03  0.77801248389E+03  0.12700000000E+01 0.  1.
         25    2    1    2    0    0  0.00000000000E+00  0.00000000000E+00 -0.77307182640E+03  0.78311275399E+03  0.12500214669E+03 0.  0.
    9000005    1    3    3    0    0 -0.27779539598E+02 -0.14539953220E+01 -0.35955461061E+02  0.45471002879E+02  0.10000000000E+01 0.  0.
    9000005    1    3    3    0    0  0.27779539598E+02  0.14539953220E+01 -0.73711636534E+03  0.73764175111E+03  0.10000000000E+01 0.  0.
<mgrwt>
<rscale>  0 0.12500215E+03</rscale>
<asrwt>0</asrwt>
<pdfrwt beam="2">  1        4 0.11970641E+00 0.12500215E+03</pdfrwt>
<pdfrwt beam="1">  1       -4 0.77237966E-03 0.12500215E+03</pdfrwt>
<totfact> 0.39028023E+03</totfact>
</mgrwt>
</event>
<event>
 4    1  0.3271306E-002  0.1250870E+03  0.7818608E-02  0.1234933E+00
          4   -1    0    0  501    0  0.00000000000E+00  0.00000000000E+00  0.18084794622E+02  0.18129332490E+02  0.12700000000E+01 0. -1.
         -4   -1    0    0    0  501 -0.00000000000E+00 -0.00000000000E+00 -0.21598458999E+03  0.21598832379E+03  0.12700000000E+01 0. -1.
    9000005    1    1    2    0    0  0.22595601489E+01 -0.62484829688E+02 -0.96876310277E+02  0.11530602346E+03  0.10000000000E+01 0.  0.
    9000005    1    1    2    0    0 -0.22595601489E+01  0.62484829688E+02 -0.10102348509E+03  0.11881163282E+03  0.10000000000E+01 0.  0.
<mgrwt>
<rscale>  0 0.12508696E+03</rscale>
<asrwt>0</asrwt>
<pdfrwt beam="1">  1        4 0.27859894E-02 0.12508696E+03</pdfrwt>
<pdfrwt beam="2">  1       -4 0.33232110E-01 0.12508696E+03</pdfrwt>
<totfact> 0.84517274E+03</totfact>
</mgrwt>
</event>
<event>
 5    1  0.3271306E-002  0.1249996E+03  0.7818608E-02  0.1235070E+00
          4   -1    0    0  501    0  0.00000000000E+00  0.00000000000E+00  0.21806319075E+02  0.21843270167E+02  0.12700000000E+01 0. -1.
         -4   -1    0    0    0  501 -0.00000000000E+00 -0.00000000000E+00 -0.17894172242E+03  0.17894622913E+03  0.12700000000E+01 0. -1.
         25    2    1    2    0    0  0.00000000000E+00  0.00000000000E+00 -0.15713540334E+03  0.20078949930E+03  0.12499955219E+03 0.  0.
    9000005    1    3    3    0    0  0.80788533549E+01  0.47739923097E+02 -0.15105714908E+02  0.50730175948E+02  0.10000000000E+01 0.  0.
    9000005    1    3    3    0    0 -0.80788533549E+01 -0.47739923097E+02 -0.14202968843E+03  0.15005932335E+03  0.10000000000E+01 0.  0.
<mgrwt>
<rscale>  0 0.12499955E+03</rscale>
<asrwt>0</asrwt>
<pdfrwt beam="1">  1        4 0.33580075E-02 0.12499955E+03</pdfrwt>
<pdfrwt beam="2">  1       -4 0.27532684E-01 0.12499955E+03</pdfrwt>
<totfact> 0.90003424E+03</totfact>
</mgrwt>
</event>
<event>
 5    1  0.3271306E-002  0.1249998E+03  0.7818608E-02  0.1235070E+00
          4   -1    0    0  501    0  0.00000000000E+00  0.00000000000E+00  0.65903073922E+02  0.65915309696E+02  0.12700000000E+01 0. -1.
         -4   -1    0    0    0  501 -0.00000000000E+00 -0.00000000000E+00 -0.59247963430E+02  0.59261573305E+02  0.12700000000E+01 0. -1.
         25    2    1    2    0    0  0.00000000000E+00  0.00000000000E+00  0.66551104921E+01  0.12517688300E+03  0.12499984617E+03 0.  0.
    9000005    1    3    3    0    0  0.36954332168E+02 -0.34022623385E+02 -0.33901418100E+02  0.60609138891E+02  0.10000000000E+01 0.  0.
    9000005    1    3    3    0    0 -0.36954332168E+02  0.34022623385E+02  0.40556528592E+02  0.64567744110E+02  0.10000000000E+01 0.  0.
<mgrwt>
<rscale>  0 0.12499985E+03</rscale>
<asrwt>0</asrwt>
<pdfrwt beam="1">  1        4 0.10140923E-01 0.12499985E+03</pdfrwt>
<pdfrwt beam="2">  1       -4 0.91170594E-02 0.12499985E+03</pdfrwt>
<totfact> 0.10449058E+04</totfact>
</mgrwt>
</event>
<event>
 5    1  0.3271306E-002  0.1249970E+03  0.7818608E-02  0.1235074E+00
          4   -1    0    0  501    0  0.00000000000E+00  0.00000000000E+00  0.78817573784E+01  0.79834202803E+01  0.12700000000E+01 0. -1.
         -4   -1    0    0    0  501 -0.00000000000E+00 -0.00000000000E+00 -0.49230423204E+03  0.49230587015E+03  0.12700000000E+01 0. -1.
         25    2    1    2    0    0  0.00000000000E+00  0.00000000000E+00 -0.48442247466E+03  0.50028929043E+03  0.12499696061E+03 0.  0.
    9000005    1    3    3    0    0 -0.18397611986E+02  0.47603891019E+02 -0.38654563049E+03  0.38990143244E+03  0.10000000000E+01 0.  0.
    9000005    1    3    3    0    0  0.18397611986E+02 -0.47603891019E+02 -0.97876844167E+02  0.11038785799E+03  0.10000000000E+01 0.  0.
<mgrwt>
<rscale>  0 0.12499696E+03</rscale>
<asrwt>0</asrwt>
<pdfrwt beam="1">  1        4 0.12205247E-02 0.12499696E+03</pdfrwt>
<pdfrwt beam="2">  1       -4 0.75747035E-01 0.12499696E+03</pdfrwt>
<totfact> 0.55845670E+03</totfact>
</mgrwt>
</event>
<event>
 5    1  0.3271306E-002  0.1249996E+03  0.7818608E-02  0.1235070E+00
          4   -1    0    0  501    0  0.00000000000E+00  0.00000000000E+00  0.25711836493E+03  0.25712150140E+03  0.12700000000E+01 0.  1.
         -4   -1    0    0    0  501 -0.00000000000E+00 -0.00000000000E+00 -0.15162541274E+02  0.15215635310E+02  0.12700000000E+01 0.  1.
         25    2    1    2    0    0  0.00000000000E+00  0.00000000000E+00  0.24195582365E+03  0.27233713671E+03  0.12499958173E+03 0.  0.
    9000005    1    3    3    0    0  0.50201134851E+02 -0.36737230325E+02  0.10800669090E+03  0.12464438740E+03  0.10000000000E+01 0.  0.
    9000005    1    3    3    0    0 -0.50201134851E+02  0.36737230325E+02  0.13394913275E+03  0.14769274931E+03  0.10000000000E+01 0.  0.
<mgrwt>
<rscale>  0 0.12499958E+03</rscale>
<asrwt>0</asrwt>
<pdfrwt beam="1">  1        4 0.39560992E-01 0.12499958E+03</pdfrwt>
<pdfrwt beam="2">  1       -4 0.23370244E-02 0.12499958E+03</pdfrwt>
<totfact> 0.79205980E+03</totfact>
</mgrwt>
</event>
<event>
 5    1  0.3271306E-002  0.1249992E+03  0.7818608E-02  0.1235070E+00
          4   -1    0    0  501    0  0.00000000000E+00  0.00000000000E+00  0.86076059878E+03  0.86076153568E+03  0.12700000000E+01 0. -1.
         -4   -1    0    0    0  501 -0.00000000000E+00 -0.00000000000E+00 -0.44482703831E+01  0.46260144186E+01  0.12700000000E+01 0. -1.
         25    2    1    2    0    0  0.00000000000E+00  0.00000000000E+00  0.85631232839E+03  0.86538755010E+03  0.12499923243E+03 0.  0.
    9000005    1    3    3    0    0 -0.14684028457E+02 -0.55273765772E+02  0.60253035200E+03  0.60523932039E+03  0.10000000000E+01 0.  0.
    9000005    1    3    3    0    0  0.14684028457E+02  0.55273765772E+02  0.25378197640E+03  0.26014822970E+03  0.10000000000E+01 0.  0.
<mgrwt>
<rscale>  0 0.12499923E+03</rscale>
<asrwt>0</asrwt>
<pdfrwt beam="1">  1        4 0.13243851E+00 0.12499923E+03</pdfrwt>
<pdfrwt beam="2">  1       -4 0.69809368E-03 0.12499923E+03</pdfrwt>
<totfact> 0.35506374E+03</totfact>
</mgrwt>
</event>
<event>
 5    1  0.3271306E-002  0.1249992E+03  0.7818608E-02  0.1235070E+00
         -4   -1    0    0    0  501 -0.00000000000E+00  0.00000000000E+00  0.26927520851E+02  0.26957453128E+02  0.12700000000E+01 0. -1.
          4   -1    0    0  501    0  0.00000000000E+00 -0.00000000000E+00 -0.14495030187E+03  0.14495586540E+03  0.12700000000E+01 0. -1.
         25    2    1    2    0    0  0.00000000000E+00  0.00000000000E+00 -0.11802278102E+03  0.17191331853E+03  0.12499924898E+03 0.  0.
    9000005    1    3    3    0    0  0.47067081420E+02  0.54440760668E+01 -0.29725022091E+01  0.47484564724E+02  0.10000000000E+01 0.  0.
    9000005    1    3    3    0    0 -0.47067081420E+02 -0.54440760668E+01 -0.11505027882E+03  0.12442875380E+03  0.10000000000E+01 0.  0.
<mgrwt>
<rscale>  0 0.12499925E+03</rscale>
<asrwt>0</asrwt>
<pdfrwt beam="2">  1        4 0.22302777E-01 0.12499925E+03</pdfrwt>
<pdfrwt beam="1">  1       -4 0.41454260E-02 0.12499925E+03</pdfrwt>
<totfact> 0.95094821E+03</totfact>
</mgrwt>
</event>
<event>
 5    1  0.3271306E-002  0.1250079E+03  0.7818608E-02  0.1235057E+00
         -4   -1    0    0    0  501 -0.00000000000E+00  0.00000000000E+00  0.19345185912E+01  0.23141439410E+01  0.12700000000E+01 0.  1.
          4   -1    0    0  501    0  0.00000000000E+00 -0.00000000000E+00 -0.18386672094E+04  0.18386676480E+04  0.12700000000E+01 0.  1.
         25    2    1    2    0    0  0.00000000000E+00  0.00000000000E+00 -0.18367326908E+04  0.18409817919E+04  0.12500792292E+03 0.  0.
    9000005    1    3    3    0    0 -0.54438755324E+02  0.11316349273E+01 -0.13700980549E+04  0.13711799805E+04  0.10000000000E+01 0.  0.
    9000005    1    3    3    0    0  0.54438755324E+02 -0.11316349273E+01 -0.46663463588E+03  0.46980181149E+03  0.10000000000E+01 0.  0.
<mgrwt>
<rscale>  0 0.12500792E+03</rscale>
<asrwt>0</asrwt>
<pdfrwt beam="2">  1        4 0.28289984E+00 0.12500792E+03</pdfrwt>
<pdfrwt beam="1">  1       -4 0.32685540E-03 0.12500792E+03</pdfrwt>
<totfact> 0.12080643E+03</totfact>
</mgrwt>
</event>
<event>
 5    1  0.3271306E-002  0.1249943E+03  0.7818608E-02  0.1235078E+00
         -4   -1    0    0    0  501 -0.00000000000E+00  0.00000000000E+00  0.28450222011E+02  0.28478553905E+02  0.12700000000E+01 0.  1.
          4   -1    0    0  501    0  0.00000000000E+00 -0.00000000000E+00 -0.13718904319E+03  0.13719492145E+03  0.12700000000E+01 0.  1.
         25    2    1    2    0    0  0.00000000000E+00  0.00000000000E+00 -0.10873882118E+03  0.16567347535E+03  0.12499427669E+03 0.  0.
    9000005    1    3    3    0    0 -0.40412291166E+02  0.13684629241E+02 -0.11488408122E+03  0.12255518949E+03  0.10000000000E+01 0.  0.
    9000005    1    3    3    0    0  0.40412291166E+02 -0.13684629241E+02  0.61452600373E+01  0.43118285861E+02  0.10000000000E+01 0.  0.
<mgrwt>
<rscale>  0 0.12499428E+03</rscale>
<asrwt>0</asrwt>
<pdfrwt beam="2">  1        4 0.21108638E-01 0.12499428E+03</pdfrwt>
<pdfrwt beam="1">  1       -4 0.43795888E-02 0.12499428E+03</pdfrwt>
<totfact> 0.96272375E+03</totfact>
</mgrwt>
</event>
<event>
 4    1  0.3271306E-002  0.1248240E+03  0.7818608E-02  0.1235345E+00
         -4   -1    0    0    0  501 -0.00000000000E+00  0.00000000000E+00  0.13842843520E+02  0.13900978985E+02  0.12700000000E+01 0. -1.
          4   -1    0    0  501    0  0.00000000000E+00 -0.00000000000E+00 -0.28074226362E+03  0.28074513617E+03  0.12700000000E+01 0. -1.
    9000005    1    1    2    0    0  0.29926243785E+01 -0.27046377346E+02 -0.26601181403E+03  0.26740184654E+03  0.10000000000E+01 0.  0.
    9000005    1    1    2    0    0 -0.29926243785E+01  0.27046377346E+02 -0.88760607594E+00  0.27244268622E+02  0.10000000000E+01 0.  0.
<mgrwt>
<rscale>  0 0.12482401E+03</rscale>
<asrwt>0</asrwt>
<pdfrwt beam="2">  1        4 0.43195806E-01 0.12482401E+03</pdfrwt>
<pdfrwt beam="1">  1       -4 0.21343614E-02 0.12482401E+03</pdfrwt>
<totfact> 0.76574240E+03</totfact>
</mgrwt>
</event>
<event>
 5    1  0.3271306E-002  0.1249970E+03  0.7818608E-02  0.1235074E+00
         -4   -1    0    0    0  501 -0.00000000000E+00  0.00000000000E+00  0.18277859456E+03  0.18278300668E+03  0.12700000000E+01 0. -1.
          4   -1    0    0  501    0  0.00000000000E+00 -0.00000000000E+00 -0.21346919210E+02  0.21384664126E+02  0.12700000000E+01 0. -1.
         25    2    1    2    0    0  0.00000000000E+00  0.00000000000E+00  0.16143167535E+03  0.20416767080E+03  0.12499700794E+03 0.  0.
    9000005    1    3    3    0    0  0.43429062140E+02  0.28224834852E+02  0.13782201102E+03  0.14723665122E+03  0.10000000000E+01 0.  0.
    9000005    1    3    3    0    0 -0.43429062140E+02 -0.28224834852E+02  0.23609664329E+02  0.56931019581E+02  0.10000000000E+01 0.  0.
<mgrwt>
<rscale>  0 0.12499701E+03</rscale>
<asrwt>0</asrwt>
<pdfrwt beam="2">  1        4 0.32873842E-02 0.12499701E+03</pdfrwt>
<pdfrwt beam="1">  1       -4 0.28123027E-01 0.12499701E+03</pdfrwt>
<totfact> 0.89443309E+03</totfact>
</mgrwt>
</event>
<event>
 5    1  0.3271306E-002  0.1249988E+03  0.7818608E-02  0.1235071E+00
         -4   -1    0    0    0  501 -0.00000000000E+00  0.00000000000E+00  0.13681949123E+03  0.13682538537E+03  0.12700000000E+01 0.  1.
          4   -1    0    0  501    0  0.00000000000E+00 -0.00000000000E+00 -0.28529224930E+02  0.28557478444E+02  0.12700000000E+01 0.  1.
         25    2    1    2    0    0  0.00000000000E+00  0.00000000000E+00  0.10829026630E+03  0.16538286381E+03  0.12499883946E+03 0.  0.
    9000005    1    3    3    0    0 -0.12437571537E+02  0.55194801564E+02  0.89250737867E+02  0.10567806544E+03  0.10000000000E+01 0.  0.
    9000005    1    3    3    0    0  0.12437571537E+02 -0.55194801564E+02  0.19039528434E+02  0.59704798370E+02  0.10000000000E+01 0.  0.
<mgrwt>
<rscale>  0 0.12499884E+03</rscale>
<asrwt>0</asrwt>
<pdfrwt beam="2">  1        4 0.43917383E-02 0.12499884E+03</pdfrwt>
<pdfrwt beam="1">  1       -4 0.21051779E-01 0.12499884E+03</pdfrwt>
<totfact> 0.96317444E+03</totfact>
</mgrwt>
</event>
<event>
 5    1  0.3271306E-002  0.1250005E+03  0.7818608E-02  0.1235069E+00
          4   -1    0    0  501    0  0.00000000000E+00  0.00000000000E+00  0.17520032304E+02  0.17566002161E+02  0.12700000000E+01 0.  1.
         -4   -1    0    0    0  501 -0.00000000000E+00 -0.00000000000E+00 -0.22262089334E+03  0.22262451583E+03  0.12700000000E+01 0.  1.
         25    2    1    2    0    0  0.00000000000E+00  0.00000000000E+00 -0.20510086103E+03  0.24019051800E+03  0.12500048695E+03 0.  0.
    9000005    1    3    3    0    0 -0.27732479941E+02  0.79241265401E+01 -0.20907592795E+03  0.21105834708E+03  0.10000000000E+01 0.  0.
    9000005    1    3    3    0    0  0.27732479941E+02 -0.79241265401E+01  0.39750669165E+01  0.29132170913E+02  0.10000000000E+01 0.  0.
<mgrwt>
<rscale>  0 0.12500049E+03</rscale>
<asrwt>0</asrwt>
<pdfrwt beam="1">  1        4 0.26992045E-02 0.12500049E+03</pdfrwt>
<pdfrwt beam="2">  1       -4 0.34253181E-01 0.12500049E+03</pdfrwt>
<totfact> 0.83768093E+03</totfact>
</mgrwt>
</event>
<event>
 4    1  0.3271306E-002  0.1258738E+03  0.7818608E-02  0.1233710E+00
          4   -1    0    0  501    0  0.00000000000E+00  0.00000000000E+00  0.25826529575E+01  0.28780195098E+01  0.12700000000E+01 0. -1.
         -4   -1    0    0    0  501 -0.00000000000E+00 -0.00000000000E+00 -0.14504613042E+04  0.14504618602E+04  0.12700000000E+01 0. -1.
    9000005    1    1    2    0    0 -0.17426047434E+02  0.45833139404E+02 -0.11793426425E+04  0.11803619836E+04  0.10000000000E+01 0.  0.
    9000005    1    1    2    0    0  0.17426047434E+02 -0.45833139404E+02 -0.26853600875E+03  0.27297789616E+03  0.10000000000E+01 0.  0.
<mgrwt>
<rscale>  0 0.12587381E+03</rscale>
<asrwt>0</asrwt>
<pdfrwt beam="1">  1        4 0.42009566E-03 0.12587381E+03</pdfrwt>
<pdfrwt beam="2">  1       -4 0.22317004E+00 0.12587381E+03</pdfrwt>
<totfact> 0.18508862E+03</totfact>
</mgrwt>
</event>
<event>
 5    1  0.3271306E-002  0.1249948E+03  0.7818608E-02  0.1235077E+00
         -4   -1    0    0    0  501 -0.00000000000E+00  0.00000000000E+00  0.73621783443E+02  0.73632736587E+02  0.12700000000E+01 0.  1.
          4   -1    0    0  501    0  0.00000000000E+00 -0.00000000000E+00 -0.53031434336E+02  0.53046639175E+02  0.12700000000E+01 0.  1.
         25    2    1    2    0    0  0.00000000000E+00  0.00000000000E+00  0.20590349107E+02  0.12667937576E+03  0.12499480696E+03 0.  0.
    9000005    1    3    3    0    0 -0.48803095934E+02  0.38868658785E+02  0.13865525583E+02  0.63920009450E+02  0.10000000000E+01 0.  0.
    9000005    1    3    3    0    0  0.48803095934E+02 -0.38868658785E+02  0.67248235236E+01  0.62759366312E+02  0.10000000000E+01 0.  0.
<mgrwt>
<rscale>  0 0.12499481E+03</rscale>
<asrwt>0</asrwt>
<pdfrwt beam="2">  1        4 0.81606944E-02 0.12499481E+03</pdfrwt>
<pdfrwt beam="1">  1       -4 0.11328440E-01 0.12499481E+03</pdfrwt>
<totfact> 0.10417340E+04</totfact>
</mgrwt>
</event>
<event>
 5    1  0.3271306E-002  0.1249998E+03  0.7818608E-02  0.1235070E+00
         -4   -1    0    0    0  501 -0.00000000000E+00  0.00000000000E+00  0.50130080611E+02  0.50146165178E+02  0.12700000000E+01 0.  1.
          4   -1    0    0  501    0  0.00000000000E+00 -0.00000000000E+00 -0.77888274883E+02  0.77898628128E+02  0.12700000000E+01 0.  1.
         25    2    1    2    0    0  0.00000000000E+00  0.00000000000E+00 -0.27758194272E+02  0.12804479331E+03  0.12499980697E+03 0.  0.
    9000005    1    3    3    0    0  0.52157164462E+02 -0.14640549773E+02 -0.45791196114E+02  0.70940461966E+02  0.10000000000E+01 0.  0.
    9000005    1    3    3    0    0 -0.52157164462E+02  0.14640549773E+02  0.18033001842E+02  0.57104331340E+02  0.10000000000E+01 0.  0.
<mgrwt>
<rscale>  0 0.12499981E+03</rscale>
<asrwt>0</asrwt>
<pdfrwt beam="2">  1        4 0.11984845E-01 0.12499981E+03</pdfrwt>
<pdfrwt beam="1">  1       -4 0.77143538E-02 0.12499981E+03</pdfrwt>
<totfact> 0.10386566E+04</totfact>
</mgrwt>
</event>
<event>
 5    1  0.3271306E-002  0.1250010E+03  0.7818608E-02  0.1235068E+00
          4   -1    0    0  501    0  0.00000000000E+00  0.00000000000E+00  0.77006604884E+02  0.77017076651E+02  0.12700000000E+01 0. -1.
         -4   -1    0    0    0  501 -0.00000000000E+00 -0.00000000000E+00 -0.50705135483E+02  0.50721037690E+02  0.12700000000E+01 0. -1.
         25    2    1    2    0    0  0.00000000000E+00  0.00000000000E+00  0.26301469401E+02  0.12773811434E+03  0.12500103425E+03 0.  0.
    9000005    1    3    3    0    0 -0.30875408061E+01  0.29538314379E+02 -0.43037493995E+02  0.52299816577E+02  0.10000000000E+01 0.  0.
    9000005    1    3    3    0    0  0.30875408061E+01 -0.29538314379E+02  0.69338963396E+02  0.75438297764E+02  0.10000000000E+01 0.  0.
<mgrwt>
<rscale>  0 0.12500103E+03</rscale>
<asrwt>0</asrwt>
<pdfrwt beam="1">  1        4 0.11849199E-01 0.12500103E+03</pdfrwt>
<pdfrwt beam="2">  1       -4 0.78028188E-02 0.12500103E+03</pdfrwt>
<totfact> 0.10392905E+04</totfact>
</mgrwt>
</event>
<event>
 5    1  0.3271306E-002  0.1250028E+03  0.7818608E-02  0.1235065E+00
         -4   -1    0    0    0  501 -0.00000000000E+00  0.00000000000E+00  0.11086944768E+03  0.11087672131E+03  0.12700000000E+01 0. -1.
          4   -1    0    0  501    0  0.00000000000E+00 -0.00000000000E+00 -0.35214591255E+02  0.35237484832E+02  0.12700000000E+01 0. -1.
         25    2    1    2    0    0  0.00000000000E+00  0.00000000000E+00  0.75654856421E+02  0.14611420614E+03  0.12500281571E+03 0.  0.
    9000005    1    3    3    0    0 -0.14911850998E+02 -0.60533992921E+01  0.10841137437E+03  0.10960398276E+03  0.10000000000E+01 0.  0.
    9000005    1    3    3    0    0  0.14911850998E+02  0.60533992921E+01 -0.32756517950E+02  0.36510223382E+02  0.10000000000E+01 0.  0.
<mgrwt>
<rscale>  0 0.12500282E+03</rscale>
<asrwt>0</asrwt>
<pdfrwt beam="2">  1        4 0.54199501E-02 0.12500282E+03</pdfrwt>
<pdfrwt beam="1">  1       -4 0.17059158E-01 0.12500282E+03</pdfrwt>
<totfact> 0.10007765E+04</totfact>
</mgrwt>
</event>
<event>
 5    1  0.3271306E-002  0.1250022E+03  0.7818608E-02  0.1235066E+00
          4   -1    0    0  501    0  0.00000000000E+00  0.00000000000E+00  0.46931676650E+02  0.46948856995E+02  0.12700000000E+01 0. -1.
         -4   -1    0    0    0  501 -0.00000000000E+00 -0.00000000000E+00 -0.83198383260E+02  0.83208075792E+02  0.12700000000E+01 0. -1.
         25    2    1    2    0    0  0.00000000000E+00  0.00000000000E+00 -0.36266706610E+02  0.13015693279E+03  0.12500221256E+03 0.  0.
    9000005    1    3    3    0    0  0.33433439399E+02  0.44896577196E+02 -0.47061960870E+02  0.73139084455E+02  0.10000000000E+01 0.  0.
    9000005    1    3    3    0    0 -0.33433439399E+02 -0.44896577196E+02  0.10795254260E+02  0.57017848333E+02  0.10000000000E+01 0.  0.
<mgrwt>
<rscale>  0 0.12500221E+03</rscale>
<asrwt>0</asrwt>
<pdfrwt beam="1">  1        4 0.72223251E-02 0.12500221E+03</pdfrwt>
<pdfrwt beam="2">  1       -4 0.12801818E-01 0.12500221E+03</pdfrwt>
<totfact> 0.10340635E+04</totfact>
</mgrwt>
</event>
<event>
 5    1  0.3271306E-002  0.1250034E+03  0.7818608E-02  0.1235064E+00
          4   -1    0    0  501    0  0.00000000000E+00  0.00000000000E+00  0.18405767838E+02  0.18449530880E+02  0.12700000000E+01 0. -1.
         -4   -1    0    0    0  501 -0.00000000000E+00 -0.00000000000E+00 -0.21194351395E+03  0.21194731894E+03  0.12700000000E+01 0. -1.
         25    2    1    2    0    0  0.00000000000E+00  0.00000000000E+00 -0.19353774611E+03  0.23039684982E+03  0.12500339690E+03 0.  0.
    9000005    1    3    3    0    0  0.25808572289E+01  0.18190595398E+02  0.13324527231E+02  0.22717869858E+02  0.10000000000E+01 0.  0.
    9000005    1    3    3    0    0 -0.25808572289E+01 -0.18190595398E+02 -0.20686227334E+03  0.20767897996E+03  0.10000000000E+01 0.  0.
<mgrwt>
<rscale>  0 0.12500340E+03</rscale>
<asrwt>0</asrwt>
<pdfrwt beam="1">  1        4 0.28353158E-02 0.12500340E+03</pdfrwt>
<pdfrwt beam="2">  1       -4 0.32610352E-01 0.12500340E+03</pdfrwt>
<totfact> 0.85242238E+03</totfact>
</mgrwt>
</event>
<event>
 5    1  0.3271306E-002  0.1249979E+03  0.7818608E-02  0.1235073E+00
          4   -1    0    0  501    0  0.00000000000E+00  0.00000000000E+00  0.12111801376E+03  0.12112467196E+03  0.12700000000E+01 0. -1.
         -4   -1    0    0    0  501 -0.00000000000E+00 -0.00000000000E+00 -0.32230469935E+02  0.32255481584E+02  0.12700000000E+01 0. -1.
         25    2    1    2    0    0  0.00000000000E+00  0.00000000000E+00  0.88887543825E+02  0.15338015354E+03  0.12499790420E+03 0.  0.
    9000005    1    3    3    0    0 -0.41868406190E+02 -0.44290099690E+02  0.61381787674E+02  0.86506070455E+02  0.10000000000E+01 0.  0.
    9000005    1    3    3    0    0  0.41868406190E+02  0.44290099690E+02  0.27505756151E+02  0.66874083088E+02  0.10000000000E+01 0.  0.
<mgrwt>
<rscale>  0 0.12499790E+03</rscale>
<asrwt>0</asrwt>
<pdfrwt beam="1">  1        4 0.18635977E-01 0.12499790E+03</pdfrwt>
<pdfrwt beam="2">  1       -4 0.49609700E-02 0.12499790E+03</pdfrwt>
<totfact> 0.98638783E+03</totfact>
</mgrwt>
</event>
<event>
 5    1  0.3271306E-002  0.1250005E+03  0.7818608E-02  0.1235068E+00
         -4   -1    0    0    0  501 -0.00000000000E+00  0.00000000000E+00  0.16269338304E+03  0.16269833984E+03  0.12700000000E+01 0.  1.
          4   -1    0    0  501    0  0.00000000000E+00 -0.00000000000E+00 -0.23987960386E+02  0.24021555809E+02  0.12700000000E+01 0.  1.
         25    2    1    2    0    0  0.00000000000E+00  0.00000000000E+00  0.13870542266E+03  0.18671989565E+03  0.12500050062E+03 0.  0.
    9000005    1    3    3    0    0  0.12533252881E+02 -0.33682836584E+02 -0.70139556738E+01  0.36630745042E+02  0.10000000000E+01 0.  0.
    9000005    1    3    3    0    0 -0.12533252881E+02  0.33682836584E+02  0.14571937833E+03  0.15008915060E+03  0.10000000000E+01 0.  0.
<mgrwt>
<rscale>  0 0.12500050E+03</rscale>
<asrwt>0</asrwt>
<pdfrwt beam="2">  1        4 0.36934210E-02 0.12500050E+03</pdfrwt>
<pdfrwt beam="1">  1       -4 0.25032717E-01 0.12500050E+03</pdfrwt>
<totfact> 0.92420158E+03</totfact>
</mgrwt>
</event>
<event>
 5    1  0.3271306E-002  0.1249982E+03  0.7818608E-02  0.1235072E+00
          4   -1    0    0  501    0  0.00000000000E+00  0.00000000000E+00  0.57240147920E+02  0.57254235074E+02  0.12700000000E+01 0. -1.
         -4   -1    0    0    0  501 -0.00000000000E+00 -0.00000000000E+00 -0.68212796308E+02  0.68224617846E+02  0.12700000000E+01 0. -1.
         25    2    1    2    0    0  0.00000000000E+00  0.00000000000E+00 -0.10972648388E+02  0.12547885292E+03  0.12499817406E+03 0.  0.
    9000005    1    3    3    0    0 -0.47192704685E+02  0.67272436835E+01 -0.46048746644E+02  0.66286456011E+02  0.10000000000E+01 0.  0.
    9000005    1    3    3    0    0  0.47192704685E+02 -0.67272436835E+01  0.35076098255E+02  0.59192396909E+02  0.10000000000E+01 0.  0.
<mgrwt>
<rscale>  0 0.12499817E+03</rscale>
<asrwt>0</asrwt>
<pdfrwt beam="1">  1        4 0.88081696E-02 0.12499817E+03</pdfrwt>
<pdfrwt beam="2">  1       -4 0.10496269E-01 0.12499817E+03</pdfrwt>
<totfact> 0.10442852E+04</totfact>
</mgrwt>
</event>
<event>
 5    1  0.3271306E-002  0.1250052E+03  0.7818608E-02  0.1235061E+00
         -4   -1    0    0    0  501 -0.00000000000E+00  0.00000000000E+00  0.45352326179E+02  0.45370104582E+02  0.12700000000E+01 0. -1.
          4   -1    0    0  501    0  0.00000000000E+00 -0.00000000000E+00 -0.86099043813E+02  0.86108409842E+02  0.12700000000E+01 0. -1.
         25    2    1    2    0    0  0.00000000000E+00  0.00000000000E+00 -0.40746717635E+02  0.13147851442E+03  0.12500521892E+03 0.  0.
    9000005    1    3    3    0    0 -0.26642602534E+02  0.22119754879E+02  0.34344336882E+02  0.48781608230E+02  0.10000000000E+01 0.  0.
    9000005    1    3    3    0    0  0.26642602534E+02 -0.22119754879E+02 -0.75091054516E+02  0.82696906194E+02  0.10000000000E+01 0.  0.
<mgrwt>
<rscale>  0 0.12500522E+03</rscale>
<asrwt>0</asrwt>
<pdfrwt beam="2">  1        4 0.13248095E-01 0.12500522E+03</pdfrwt>
<pdfrwt beam="1">  1       -4 0.69793690E-02 0.12500522E+03</pdfrwt>
<totfact> 0.10311628E+04</totfact>
</mgrwt>
</event>
<event>
 5    1  0.3271306E-002  0.1249902E+03  0.7818608E-02  0.1235085E+00
         -4   -1    0    0    0  501 -0.00000000000E+00  0.00000000000E+00  0.30127766812E+03  0.30128034487E+03  0.12700000000E+01 0. -1.
          4   -1    0    0  501    0  0.00000000000E+00 -0.00000000000E+00 -0.12929739107E+02  0.12991961106E+02  0.12700000000E+01 0. -1.
         25    2    1    2    0    0  0.00000000000E+00  0.00000000000E+00  0.28834792901E+03  0.31427230598E+03  0.12499021618E+03 0.  0.
    9000005    1    3    3    0    0  0.48563086354E+02 -0.31431282244E+02  0.20358667115E+03  0.21164789517E+03  0.10000000000E+01 0.  0.
    9000005    1    3    3    0    0 -0.48563086354E+02  0.31431282244E+02  0.84761257858E+02  0.10262441081E+03  0.10000000000E+01 0.  0.
<mgrwt>
<rscale>  0 0.12499022E+03</rscale>
<asrwt>0</asrwt>
<pdfrwt beam="2">  1        4 0.19941829E-02 0.12499022E+03</pdfrwt>
<pdfrwt beam="1">  1       -4 0.46355402E-01 0.12499022E+03</pdfrwt>
<totfact> 0.73858598E+03</totfact>
</mgrwt>
</event>
<event>
 5    1  0.3271306E-002  0.1249966E+03  0.7818608E-02  0.1235075E+00
          4   -1    0    0  501    0  0.00000000000E+00  0.00000000000E+00  0.14629362187E+02  0.14684384155E+02  0.12700000000E+01 0. -1.
         -4   -1    0    0    0  501 -0.00000000000E+00 -0.00000000000E+00 -0.26644205393E+03  0.26644508065E+03  0.12700000000E+01 0. -1.
         25    2    1    2    0    0  0.00000000000E+00  0.00000000000E+00 -0.25181269174E+03  0.28112946481E+03  0.12499657699E+03 0.  0.
    9000005    1    3    3    0    0  0.24250107522E+02 -0.30338190186E+02 -0.15802463868E+02  0.41942715255E+02  0.10000000000E+01 0.  0.
    9000005    1    3    3    0    0 -0.24250107522E+02  0.30338190186E+02 -0.23601022788E+03  0.23918674955E+03  0.10000000000E+01 0.  0.
<mgrwt>
<rscale>  0 0.12499658E+03</rscale>
<asrwt>0</asrwt>
<pdfrwt beam="1">  1        4 0.22551366E-02 0.12499658E+03</pdfrwt>
<pdfrwt beam="2">  1       -4 0.40995547E-01 0.12499658E+03</pdfrwt>
<totfact> 0.78034523E+03</totfact>
</mgrwt>
</event>
<event>
 5    1  0.3271306E-002  0.1249920E+03  0.7818608E-02  0.1235082E+00
         -4   -1    0    0    0  501 -0.00000000000E+00  0.00000000000E+00  0.30989652452E+02  0.31015664737E+02  0.12700000000E+01 0. -1.
          4   -1    0    0  501    0  0.00000000000E+00 -0.00000000000E+00 -0.12595188795E+03  0.12595829063E+03  0.12700000000E+01 0. -1.
         25    2    1    2    0    0  0.00000000000E+00  0.00000000000E+00 -0.94962235499E+02  0.15697395537E+03  0.12499198571E+03 0.  0.
    9000005    1    3    3    0    0 -0.31552976675E+02 -0.42600813080E+02 -0.59360482814E+01  0.53354065275E+02  0.10000000000E+01 0.  0.
    9000005    1    3    3    0    0  0.31552976675E+02  0.42600813080E+02 -0.89026187217E+02  0.10361989009E+03  0.10000000000E+01 0.  0.
<mgrwt>
<rscale>  0 0.12499199E+03</rscale>
<asrwt>0</asrwt>
<pdfrwt beam="2">  1        4 0.19379707E-01 0.12499199E+03</pdfrwt>
<pdfrwt beam="1">  1       -4 0.47701324E-02 0.12499199E+03</pdfrwt>
<totfact> 0.97947024E+03</totfact>
</mgrwt>
</event>
<event>
 5    1  0.3271306E-002  0.1249988E+03  0.7818608E-02  0.1235071E+00
         -4   -1    0    0    0  501 -0.00000000000E+00  0.00000000000E+00  0.40477468097E+02  0.40497386626E+02  0.12700000000E+01 0. -1.
          4   -1    0    0  501    0  0.00000000000E+00 -0.00000000000E+00 -0.96454671633E+02  0.96463032192E+02  0.12700000000E+01 0. -1.
         25    2    1    2    0    0  0.00000000000E+00  0.00000000000E+00 -0.55977203536E+02  0.13696041882E+03  0.12499883602E+03 0.  0.
    9000005    1    3    3    0    0 -0.12915597539E+01  0.34521391601E+02 -0.85046601828E+02  0.91800430757E+02  0.10000000000E+01 0.  0.
    9000005    1    3    3    0    0  0.12915597539E+01 -0.34521391601E+02  0.29069398292E+02  0.45159988061E+02  0.10000000000E+01 0.  0.
<mgrwt>
<rscale>  0 0.12499884E+03</rscale>
<asrwt>0</asrwt>
<pdfrwt beam="2">  1        4 0.14841356E-01 0.12499884E+03</pdfrwt>
<pdfrwt beam="1">  1       -4 0.62294781E-02 0.12499884E+03</pdfrwt>
<totfact> 0.10197181E+04</totfact>
</mgrwt>
</event>
<event>
 5    1  0.3271306E-002  0.1249580E+03  0.7818608E-02  0.1235135E+00
          4   -1    0    0  501    0  0.00000000000E+00  0.00000000000E+00  0.14095170172E+03  0.14095742306E+03  0.12700000000E+01 0. -1.
         -4   -1    0    0    0  501 -0.00000000000E+00 -0.00000000000E+00 -0.27673948725E+02  0.27703074523E+02  0.12700000000E+01 0. -1.
         25    2    1    2    0    0  0.00000000000E+00  0.00000000000E+00  0.11327775299E+03  0.16866049759E+03  0.12495804945E+03 0.  0.
    9000005    1    3    3    0    0 -0.40382145413E+02  0.15860035319E+02  0.11730756555E+03  0.12507726942E+03  0.10000000000E+01 0.  0.
    9000005    1    3    3    0    0  0.40382145413E+02 -0.15860035319E+02 -0.40298125616E+01  0.43583228170E+02  0.10000000000E+01 0.  0.
<mgrwt>
<rscale>  0 0.12495805E+03</rscale>
<asrwt>0</asrwt>
<pdfrwt beam="1">  1        4 0.21687558E-01 0.12495805E+03</pdfrwt>
<pdfrwt beam="2">  1       -4 0.42602111E-02 0.12495805E+03</pdfrwt>
<totfact> 0.95788814E+03</totfact>
</mgrwt>
</event>
<event>
 5    1  0.3271306E-002  0.1250054E+03  0.7818608E-02  0.1235061E+00
         -4   -1    0    0    0  501 -0.00000000000E+00  0.00000000000E+00  0.25612457019E+03  0.25612771883E+03  0.12700000000E+01 0. -1.
          4   -1    0    0  501    0  0.00000000000E+00 -0.00000000000E+00 -0.15223002790E+02  0.15275886683E+02  0.12700000000E+01 0. -1.
         25    2    1    2    0    0  0.00000000000E+00  0.00000000000E+00  0.24090156740E+03  0.27140360551E+03  0.12500540753E+03 0.  0.
    9000005    1    3    3    0    0  0.28667390426E+02 -0.46255791143E+02  0.18716402225E+03  0.19491738946E+03  0.10000000000E+01 0.  0.
    9000005    1    3    3    0    0 -0.28667390426E+02  0.46255791143E+02  0.53737545147E+02  0.76486216056E+02  0.10000000000E+01 0.  0.
<mgrwt>
<rscale>  0 0.12500541E+03</rscale>
<asrwt>0</asrwt>
<pdfrwt beam="2">  1        4 0.23463107E-02 0.12500541E+03</pdfrwt>
<pdfrwt beam="1">  1       -4 0.39408089E-01 0.12500541E+03</pdfrwt>
<totfact> 0.79322351E+03</totfact>
</mgrwt>
</event>
<event>
 5    1  0.3271306E-002  0.1249992E+03  0.7818608E-02  0.1235070E+00
          4   -1    0    0  501    0  0.00000000000E+00  0.00000000000E+00  0.29545158688E+02  0.29572441595E+02  0.12700000000E+01 0.  1.
         -4   -1    0    0    0  501 -0.00000000000E+00 -0.00000000000E+00 -0.13211991014E+03  0.13212601392E+03  0.12700000000E+01 0.  1.
         25    2    1    2    0    0  0.00000000000E+00  0.00000000000E+00 -0.10257475145E+03  0.16169845552E+03  0.12499924353E+03 0.  0.
    9000005    1    3    3    0    0  0.51303158772E+02  0.35289984264E+02 -0.44466111606E+02  0.76522102498E+02  0.10000000000E+01 0.  0.
    9000005    1    3    3    0    0 -0.51303158772E+02 -0.35289984264E+02 -0.58108639846E+02  0.85176353022E+02  0.10000000000E+01 0.  0.
<mgrwt>
<rscale>  0 0.12499924E+03</rscale>
<asrwt>0</asrwt>
<pdfrwt beam="1">  1        4 0.45479773E-02 0.12499924E+03</pdfrwt>
<pdfrwt beam="2">  1       -4 0.20328708E-01 0.12499924E+03</pdfrwt>
<totfact> 0.97017982E+03</totfact>
</mgrwt>
</event>
<event>
 5    1  0.3271306E-002  0.1249998E+03  0.7818608E-02  0.1235070E+00
          4   -1    0    0  501    0  0.00000000000E+00  0.00000000000E+00  0.27938752480E+02  0.27967602509E+02  0.12700000000E+01 0. -1.
         -4   -1    0    0    0  501 -0.00000000000E+00 -0.00000000000E+00 -0.13971040749E+03  0.13971617966E+03  0.12700000000E+01 0. -1.
         25    2    1    2    0    0  0.00000000000E+00  0.00000000000E+00 -0.11177165501E+03  0.16768378217E+03  0.12499979176E+03 0.  0.
    9000005    1    3    3    0    0  0.65910483694E+01 -0.92260429167E+01  0.26553907997E+02  0.28890687365E+02  0.10000000000E+01 0.  0.
    9000005    1    3    3    0    0 -0.65910483694E+01  0.92260429167E+01 -0.13832556300E+03  0.13879309481E+03  0.10000000000E+01 0.  0.
<mgrwt>
<rscale>  0 0.12499979E+03</rscale>
<asrwt>0</asrwt>
<pdfrwt beam="1">  1        4 0.43009329E-02 0.12499979E+03</pdfrwt>
<pdfrwt beam="2">  1       -4 0.21496572E-01 0.12499979E+03</pdfrwt>
<totfact> 0.95881976E+03</totfact>
</mgrwt>
</event>
<event>
 5    1  0.3271306E-002  0.1250591E+03  0.7818608E-02  0.1234977E+00
          4   -1    0    0  501    0  0.00000000000E+00  0.00000000000E+00  0.62162032512E+02  0.62175004512E+02  0.12700000000E+01 0. -1.
         -4   -1    0    0    0  501 -0.00000000000E+00 -0.00000000000E+00 -0.62873324702E+02  0.62886149979E+02  0.12700000000E+01 0. -1.
         25    2    1    2    0    0  0.00000000000E+00  0.00000000000E+00 -0.71129219026E+00  0.12506115449E+03  0.12505913172E+03 0.  0.
    9000005    1    3    3    0    0 -0.17463988814E+02 -0.13833612206E+02 -0.58773941769E+02  0.62862834513E+02  0.10000000000E+01 0.  0.
    9000005    1    3    3    0    0  0.17463988814E+02  0.13833612206E+02  0.58062649578E+02  0.62198319978E+02  0.10000000000E+01 0.  0.
<mgrwt>
<rscale>  0 0.12505913E+03</rscale>
<asrwt>0</asrwt>
<pdfrwt beam="1">  1        4 0.95653740E-02 0.12505913E+03</pdfrwt>
<pdfrwt beam="2">  1       -4 0.96748036E-02 0.12505913E+03</pdfrwt>
<totfact> 0.10437579E+04</totfact>
</mgrwt>
</event>
<event>
 5    1  0.3271306E-002  0.1249747E+03  0.7818608E-02  0.1235109E+00
          4   -1    0    0  501    0  0.00000000000E+00  0.00000000000E+00  0.90847264036E+01  0.91730667624E+01  0.12700000000E+01 0. -1.
         -4   -1    0    0    0  501 -0.00000000000E+00 -0.00000000000E+00 -0.42763701546E+03  0.42763890129E+03  0.12700000000E+01 0. -1.
         25    2    1    2    0    0  0.00000000000E+00  0.00000000000E+00 -0.41855228906E+03  0.43681196805E+03  0.12497470446E+03 0.  0.
    9000005    1    3    3    0    0  0.39967544155E+02  0.18773435122E+02 -0.54780944813E+02  0.70369015672E+02  0.10000000000E+01 0.  0.
    9000005    1    3    3    0    0 -0.39967544155E+02 -0.18773435122E+02 -0.36377134425E+03  0.36644295238E+03  0.10000000000E+01 0.  0.
<mgrwt>
<rscale>  0 0.12497470E+03</rscale>
<asrwt>0</asrwt>
<pdfrwt beam="1">  1        4 0.14045910E-02 0.12497470E+03</pdfrwt>
<pdfrwt beam="2">  1       -4 0.65797235E-01 0.12497470E+03</pdfrwt>
<totfact> 0.61157445E+03</totfact>
</mgrwt>
</event>
<event>
 4    1  0.3271306E-002  0.1250763E+03  0.7818608E-02  0.1234950E+00
         -4   -1    0    0    0  501 -0.00000000000E+00  0.00000000000E+00  0.25881895913E+02  0.25913036025E+02  0.12700000000E+01 0.  1.
          4   -1    0    0  501    0  0.00000000000E+00 -0.00000000000E+00 -0.15098554962E+03  0.15099089077E+03  0.12700000000E+01 0.  1.
    9000005    1    1    2    0    0 -0.40559987414E+02  0.27565510385E+02 -0.76814650624E+01  0.49648513043E+02  0.10000000000E+01 0.  0.
    9000005    1    1    2    0    0  0.40559987414E+02 -0.27565510385E+02 -0.11742218865E+03  0.12725541375E+03  0.10000000000E+01 0.  0.
<mgrwt>
<rscale>  0 0.12507628E+03</rscale>
<asrwt>0</asrwt>
<pdfrwt beam="2">  1        4 0.23231352E-01 0.12507628E+03</pdfrwt>
<pdfrwt beam="1">  1       -4 0.39846365E-02 0.12507628E+03</pdfrwt>
<totfact> 0.94016355E+03</totfact>
</mgrwt>
</event>
<event>
 5    1  0.3271306E-002  0.1249985E+03  0.7818608E-02  0.1235072E+00
          4   -1    0    0  501    0  0.00000000000E+00  0.00000000000E+00  0.68538555718E+02  0.68550321078E+02  0.12700000000E+01 0.  1.
         -4   -1    0    0    0  501 -0.00000000000E+00 -0.00000000000E+00 -0.56968369957E+02  0.56982524300E+02  0.12700000000E+01 0.  1.
         25    2    1    2    0    0  0.00000000000E+00  0.00000000000E+00  0.11570185760E+02  0.12553284538E+03  0.12499850427E+03 0.  0.
    9000005    1    3    3    0    0 -0.45515587570E+02  0.42376615412E+02 -0.38202697102E+00  0.62198007928E+02  0.10000000000E+01 0.  0.
    9000005    1    3    3    0    0  0.45515587570E+02 -0.42376615412E+02  0.11952212731E+02  0.63334837450E+02  0.10000000000E+01 0.  0.
<mgrwt>
<rscale>  0 0.12499850E+03</rscale>
<asrwt>0</asrwt>
<pdfrwt beam="1">  1        4 0.10546387E-01 0.12499850E+03</pdfrwt>
<pdfrwt beam="2">  1       -4 0.87663585E-02 0.12499850E+03</pdfrwt>
<totfact> 0.10441581E+04</totfact>
</mgrwt>
</event>
<event>
 5    1  0.3271306E-002  0.1250000E+03  0.7818608E-02  0.1235069E+00
         -4   -1    0    0    0  501 -0.00000000000E+00  0.00000000000E+00  0.73490854473E+02  0.73501827128E+02  0.12700000000E+01 0. -1.
          4   -1    0    0  501    0  0.00000000000E+00 -0.00000000000E+00 -0.53130349581E+02  0.53145526121E+02  0.12700000000E+01 0. -1.
         25    2    1    2    0    0  0.00000000000E+00  0.00000000000E+00  0.20360504892E+02  0.12664735325E+03  0.12500000770E+03 0.  0.
    9000005    1    3    3    0    0  0.21406175800E+02  0.26030707049E+02 -0.43138643714E+02  0.54751846118E+02  0.10000000000E+01 0.  0.
    9000005    1    3    3    0    0 -0.21406175800E+02 -0.26030707049E+02  0.63499148606E+02  0.71895507130E+02  0.10000000000E+01 0.  0.
<mgrwt>
<rscale>  0 0.12500001E+03</rscale>
<asrwt>0</asrwt>
<pdfrwt beam="2">  1        4 0.81759114E-02 0.12500001E+03</pdfrwt>
<pdfrwt beam="1">  1       -4 0.11308297E-01 0.12500001E+03</pdfrwt>
<totfact> 0.10416815E+04</totfact>
</mgrwt>
</event>
<event>
 5    1  0.3271306E-002  0.1250242E+03  0.7818608E-02  0.1235032E+00
         -4   -1    0    0    0  501 -0.00000000000E+00  0.00000000000E+00  0.59708722321E+01  0.61044422523E+01  0.12700000000E+01 0.  1.
          4   -1    0    0  501    0  0.00000000000E+00 -0.00000000000E+00 -0.64709709307E+03  0.64709833933E+03  0.12700000000E+01 0.  1.
         25    2    1    2    0    0  0.00000000000E+00  0.00000000000E+00 -0.64112622084E+03  0.65320278158E+03  0.12502416893E+03 0.  0.
    9000005    1    3    3    0    0  0.47983720765E+02  0.34339042331E+02 -0.21283553478E+03  0.22086550693E+03  0.10000000000E+01 0.  0.
    9000005    1    3    3    0    0 -0.47983720765E+02 -0.34339042331E+02 -0.42829068606E+03  0.43233727465E+03  0.10000000000E+01 0.  0.
<mgrwt>
<rscale>  0 0.12502417E+03</rscale>
<asrwt>0</asrwt>
<pdfrwt beam="2">  1        4 0.99563715E-01 0.12502417E+03</pdfrwt>
<pdfrwt beam="1">  1       -4 0.92896672E-03 0.12502417E+03</pdfrwt>
<totfact> 0.45648394E+03</totfact>
</mgrwt>
</event>
<event>
 5    1  0.3271306E-002  0.1249959E+03  0.7818608E-02  0.1235076E+00
          4   -1    0    0  501    0  0.00000000000E+00  0.00000000000E+00  0.25994956976E+03  0.25995267208E+03  0.12700000000E+01 0. -1.
         -4   -1    0    0    0  501 -0.00000000000E+00 -0.00000000000E+00 -0.14995945328E+02  0.15049627114E+02  0.12700000000E+01 0. -1.
         25    2    1    2    0    0  0.00000000000E+00  0.00000000000E+00  0.24495362444E+03  0.27500229919E+03  0.12499594568E+03 0.  0.
    9000005    1    3    3    0    0  0.42429479659E+02  0.36766235214E+02  0.18284832588E+03  0.19127604940E+03  0.10000000000E+01 0.  0.
    9000005    1    3    3    0    0 -0.42429479659E+02 -0.36766235214E+02  0.62105298558E+02  0.83726249796E+02  0.10000000000E+01 0.  0.
<mgrwt>
<rscale>  0 0.12499595E+03</rscale>
<asrwt>0</asrwt>
<pdfrwt beam="1">  1        4 0.39996609E-01 0.12499595E+03</pdfrwt>
<pdfrwt beam="2">  1       -4 0.23114366E-02 0.12499595E+03</pdfrwt>
<totfact> 0.78852573E+03</totfact>
</mgrwt>
</event>
<event>
 5    1  0.3271306E-002  0.1250034E+03  0.7818608E-02  0.1235064E+00
          4   -1    0    0  501    0  0.00000000000E+00  0.00000000000E+00  0.72490923343E+02  0.72502047331E+02  0.12700000000E+01 0. -1.
         -4   -1    0    0    0  501 -0.00000000000E+00 -0.00000000000E+00 -0.53866275900E+02  0.53881245154E+02  0.12700000000E+01 0. -1.
         25    2    1    2    0    0  0.00000000000E+00  0.00000000000E+00  0.18624647443E+02  0.12638329248E+03  0.12500343646E+03 0.  0.
    9000005    1    3    3    0    0  0.17712493706E+02 -0.49112555935E+02 -0.25413416681E+02  0.58074239824E+02  0.10000000000E+01 0.  0.
    9000005    1    3    3    0    0 -0.17712493706E+02  0.49112555935E+02  0.44038064123E+02  0.68309052661E+02  0.10000000000E+01 0.  0.
<mgrwt>
<rscale>  0 0.12500344E+03</rscale>
<asrwt>0</asrwt>
<pdfrwt beam="1">  1        4 0.11154457E-01 0.12500344E+03</pdfrwt>
<pdfrwt beam="2">  1       -4 0.82891266E-02 0.12500344E+03</pdfrwt>
<totfact> 0.10421766E+04</totfact>
</mgrwt>
</event>
<event>
 5    1  0.3271306E-002  0.1250272E+03  0.7818608E-02  0.1235027E+00
          4   -1    0    0  501    0  0.00000000000E+00  0.00000000000E+00  0.85966274111E+02  0.85975654604E+02  0.12700000000E+01 0. -1.
         -4   -1    0    0    0  501 -0.00000000000E+00 -0.00000000000E+00 -0.45438352544E+02  0.45456097302E+02  0.12700000000E+01 0. -1.
         25    2    1    2    0    0  0.00000000000E+00  0.00000000000E+00  0.40527921567E+02  0.13143175191E+03  0.12502716898E+03 0.  0.
    9000005    1    3    3    0    0  0.18342847662E+02 -0.56598359685E+02  0.12225287384E+00  0.59505036132E+02  0.10000000000E+01 0.  0.
    9000005    1    3    3    0    0 -0.18342847662E+02  0.56598359685E+02  0.40405668694E+02  0.71926715773E+02  0.10000000000E+01 0.  0.
<mgrwt>
<rscale>  0 0.12502717E+03</rscale>
<asrwt>0</asrwt>
<pdfrwt beam="1">  1        4 0.13227667E-01 0.12502717E+03</pdfrwt>
<pdfrwt beam="2">  1       -4 0.69926023E-02 0.12502717E+03</pdfrwt>
<totfact> 0.10307523E+04</totfact>
</mgrwt>
</event>
<event>
 5    1  0.3271306E-002  0.1250007E+03  0.7818608E-02  0.1235068E+00
         -4   -1    0    0    0  501 -0.00000000000E+00  0.00000000000E+00  0.14975277619E+02  0.15029033228E+02  0.12700000000E+01 0. -1.
          4   -1    0    0  501    0  0.00000000000E+00 -0.00000000000E+00 -0.26032689011E+03  0.26032998793E+03  0.12700000000E+01 0. -1.
         25    2    1    2    0    0  0.00000000000E+00  0.00000000000E+00 -0.24535161249E+03  0.27535902116E+03  0.12500070712E+03 0.  0.
    9000005    1    3    3    0    0 -0.15928187837E+02  0.59484550236E+02 -0.14611068368E+03  0.15856055869E+03  0.10000000000E+01 0.  0.
    9000005    1    3    3    0    0  0.15928187837E+02 -0.59484550236E+02 -0.99240928809E+02  0.11679846247E+03  0.10000000000E+01 0.  0.
<mgrwt>
<rscale>  0 0.12500071E+03</rscale>
<asrwt>0</asrwt>
<pdfrwt beam="2">  1        4 0.40054661E-01 0.12500071E+03</pdfrwt>
<pdfrwt beam="1">  1       -4 0.23082624E-02 0.12500071E+03</pdfrwt>
<totfact> 0.78796279E+03</totfact>
</mgrwt>
</event>
<event>
 5    1  0.3271306E-002  0.1249969E+03  0.7818608E-02  0.1235074E+00
          4   -1    0    0  501    0  0.00000000000E+00  0.00000000000E+00  0.10513035622E+04  0.10513043293E+04  0.12700000000E+01 0. -1.
         -4   -1    0    0    0  501 -0.00000000000E+00 -0.00000000000E+00 -0.36061261086E+01  0.38232244913E+01  0.12700000000E+01 0. -1.
         25    2    1    2    0    0  0.00000000000E+00  0.00000000000E+00  0.10476974361E+04  0.10551275538E+04  0.12499694863E+03 0.  0.
    9000005    1    3    3    0    0 -0.48514359148E+02 -0.33852770750E+02  0.69381028450E+03  0.69632848858E+03  0.10000000000E+01 0.  0.
    9000005    1    3    3    0    0  0.48514359148E+02  0.33852770750E+02  0.35388715159E+03  0.35879906520E+03  0.10000000000E+01 0.  0.
<mgrwt>
<rscale>  0 0.12499695E+03</rscale>
<asrwt>0</asrwt>
<pdfrwt beam="1">  1        4 0.16175559E+00 0.12499695E+03</pdfrwt>
<pdfrwt beam="2">  1       -4 0.57154813E-03 0.12499695E+03</pdfrwt>
<totfact> 0.28837158E+03</totfact>
</mgrwt>
</event>
<event>
 5    1  0.3271306E-002  0.1249988E+03  0.7818608E-02  0.1235071E+00
         -4   -1    0    0    0  501 -0.00000000000E+00  0.00000000000E+00  0.38081780138E+03  0.38081991905E+03  0.12700000000E+01 0.  1.
          4   -1    0    0  501    0  0.00000000000E+00 -0.00000000000E+00 -0.10215864024E+02  0.10294502307E+02  0.12700000000E+01 0.  1.
         25    2    1    2    0    0  0.00000000000E+00  0.00000000000E+00  0.37060193736E+03  0.39111442136E+03  0.12499877849E+03 0.  0.
    9000005    1    3    3    0    0  0.51978354341E+02 -0.24351170166E+02  0.10799353136E+03  0.12230425840E+03  0.10000000000E+01 0.  0.
    9000005    1    3    3    0    0 -0.51978354341E+02  0.24351170166E+02  0.26260840600E+03  0.26881016296E+03  0.10000000000E+01 0.  0.
<mgrwt>
<rscale>  0 0.12499878E+03</rscale>
<asrwt>0</asrwt>
<pdfrwt beam="2">  1        4 0.15778837E-02 0.12499878E+03</pdfrwt>
<pdfrwt beam="1">  1       -4 0.58593553E-01 0.12499878E+03</pdfrwt>
<totfact> 0.65428034E+03</totfact>
</mgrwt>
</event>
<event>
 5    1  0.3271306E-002  0.1250033E+03  0.7818608E-02  0.1235064E+00
          4   -1    0    0  501    0  0.00000000000E+00  0.00000000000E+00  0.49372975523E+01  0.50980199215E+01  0.12700000000E+01 0. -1.
         -4   -1    0    0    0  501 -0.00000000000E+00 -0.00000000000E+00 -0.77838080444E+03  0.77838184050E+03  0.12700000000E+01 0. -1.
         25    2    1    2    0    0  0.00000000000E+00  0.00000000000E+00 -0.77344350688E+03  0.78347986042E+03  0.12500333332E+03 0.  0.
    9000005    1    3    3    0    0 -0.49180698305E+02  0.17527189137E+02 -0.17146441942E+03  0.17924003619E+03  0.10000000000E+01 0.  0.
    9000005    1    3    3    0    0  0.49180698305E+02 -0.17527189137E+02 -0.60197908746E+03  0.60423982423E+03  0.10000000000E+01 0.  0.
<mgrwt>
<rscale>  0 0.12500333E+03</rscale>
<asrwt>0</asrwt>
<pdfrwt beam="1">  1        4 0.77202781E-03 0.12500333E+03</pdfrwt>
<pdfrwt beam="2">  1       -4 0.11976324E+00 0.12500333E+03</pdfrwt>
<totfact> 0.39010140E+03</totfact>
</mgrwt>
</event>
<event>
 4    1  0.3271306E-002  0.1253130E+03  0.7818608E-02  0.1234581E+00
         -4   -1    0    0    0  501 -0.00000000000E+00  0.00000000000E+00  0.99793422241E+02  0.99801503107E+02  0.12700000000E+01 0.  1.
          4   -1    0    0  501    0  0.00000000000E+00 -0.00000000000E+00 -0.39319705968E+02  0.39340210694E+02  0.12700000000E+01 0.  1.
    9000005    1    1    2    0    0 -0.47293804736E+02 -0.19716886356E+02  0.70261626573E+02  0.86966405828E+02  0.10000000000E+01 0.  0.
    9000005    1    1    2    0    0  0.47293804736E+02  0.19716886356E+02 -0.97879103004E+01  0.52175307973E+02  0.10000000000E+01 0.  0.
<mgrwt>
<rscale>  0 0.12531299E+03</rscale>
<asrwt>0</asrwt>
<pdfrwt beam="2">  1        4 0.60513844E-02 0.12531299E+03</pdfrwt>
<pdfrwt beam="1">  1       -4 0.15355033E-01 0.12531299E+03</pdfrwt>
<totfact> 0.10080146E+04</totfact>
</mgrwt>
</event>
<event>
 5    1  0.3271306E-002  0.1249976E+03  0.7818608E-02  0.1235073E+00
          4   -1    0    0  501    0  0.00000000000E+00  0.00000000000E+00  0.25268474810E+03  0.25268793960E+03  0.12700000000E+01 0.  1.
         -4   -1    0    0    0  501 -0.00000000000E+00 -0.00000000000E+00 -0.15429000967E+02  0.15481181184E+02  0.12700000000E+01 0.  1.
         25    2    1    2    0    0  0.00000000000E+00  0.00000000000E+00  0.23725574713E+03  0.26816912079E+03  0.12499755117E+03 0.  0.
    9000005    1    3    3    0    0 -0.23327907423E+01 -0.27748624721E+02  0.23864865716E+03  0.24026986838E+03  0.10000000000E+01 0.  0.
    9000005    1    3    3    0    0  0.23327907423E+01  0.27748624721E+02 -0.13929100310E+01  0.27899252407E+02  0.10000000000E+01 0.  0.
<mgrwt>
<rscale>  0 0.12499755E+03</rscale>
<asrwt>0</asrwt>
<pdfrwt beam="1">  1        4 0.38878833E-01 0.12499755E+03</pdfrwt>
<pdfrwt beam="2">  1       -4 0.23779520E-02 0.12499755E+03</pdfrwt>
<totfact> 0.79777483E+03</totfact>
</mgrwt>
</event>
<event>
 5    1  0.3271306E-002  0.1249998E+03  0.7818608E-02  0.1235070E+00
         -4   -1    0    0    0  501 -0.00000000000E+00  0.00000000000E+00  0.18905375069E+01  0.22775056674E+01  0.12700000000E+01 0. -1.
          4   -1    0    0  501    0  0.00000000000E+00 -0.00000000000E+00 -0.18739881921E+04  0.18739886225E+04  0.12700000000E+01 0. -1.
         25    2    1    2    0    0  0.00000000000E+00  0.00000000000E+00 -0.18720976546E+04  0.18762661282E+04  0.12499982058E+03 0.  0.
    9000005    1    3    3    0    0  0.21187527098E+02 -0.58574298139E+02 -0.10116664436E+04  0.10135826817E+04  0.10000000000E+01 0.  0.
    9000005    1    3    3    0    0 -0.21187527098E+02  0.58574298139E+02 -0.86043121108E+03  0.86268344641E+03  0.10000000000E+01 0.  0.
<mgrwt>
<rscale>  0 0.12499982E+03</rscale>
<asrwt>0</asrwt>
<pdfrwt beam="2">  1        4 0.28833433E+00 0.12499982E+03</pdfrwt>
<pdfrwt beam="1">  1       -4 0.32065331E-03 0.12499982E+03</pdfrwt>
<totfact> 0.11564140E+03</totfact>
</mgrwt>
</event>
<event>
 5    1  0.3271306E-002  0.1249964E+03  0.7818608E-02  0.1235075E+00
         -4   -1    0    0    0  501 -0.00000000000E+00  0.00000000000E+00  0.18383567617E+03  0.18384006292E+03  0.12700000000E+01 0. -1.
          4   -1    0    0  501    0  0.00000000000E+00 -0.00000000000E+00 -0.21223757246E+02  0.21261720806E+02  0.12700000000E+01 0. -1.
         25    2    1    2    0    0  0.00000000000E+00  0.00000000000E+00  0.16261191892E+03  0.20510178372E+03  0.12499642199E+03 0.  0.
    9000005    1    3    3    0    0  0.56304848318E+02  0.10490617062E+02  0.12231887127E+03  0.13506737304E+03  0.10000000000E+01 0.  0.
    9000005    1    3    3    0    0 -0.56304848318E+02 -0.10490617062E+02  0.40293047650E+02  0.70034410680E+02  0.10000000000E+01 0.  0.
<mgrwt>
<rscale>  0 0.12499642E+03</rscale>
<asrwt>0</asrwt>
<pdfrwt beam="2">  1        4 0.32684511E-02 0.12499642E+03</pdfrwt>
<pdfrwt beam="1">  1       -4 0.28285670E-01 0.12499642E+03</pdfrwt>
<totfact> 0.89289269E+03</totfact>
</mgrwt>
</event>
<event>
 5    1  0.3271306E-002  0.1250035E+03  0.7818608E-02  0.1235064E+00
          4   -1    0    0  501    0  0.00000000000E+00  0.00000000000E+00  0.85240828924E+01  0.86181720311E+01  0.12700000000E+01 0. -1.
         -4   -1    0    0    0  501 -0.00000000000E+00 -0.00000000000E+00 -0.45567537986E+03  0.45567714965E+03  0.12700000000E+01 0. -1.
         25    2    1    2    0    0  0.00000000000E+00  0.00000000000E+00 -0.44715129697E+03  0.46429532168E+03  0.12500345336E+03 0.  0.
    9000005    1    3    3    0    0 -0.50087367790E+02 -0.29573788307E+02 -0.30844567347E+03  0.31388387478E+03  0.10000000000E+01 0.  0.
    9000005    1    3    3    0    0  0.50087367790E+02  0.29573788307E+02 -0.13870562349E+03  0.15041144689E+03  0.10000000000E+01 0.  0.
<mgrwt>
<rscale>  0 0.12500345E+03</rscale>
<asrwt>0</asrwt>
<pdfrwt beam="1">  1        4 0.13187715E-02 0.12500345E+03</pdfrwt>
<pdfrwt beam="2">  1       -4 0.70111259E-01 0.12500345E+03</pdfrwt>
<totfact> 0.58740635E+03</totfact>
</mgrwt>
</event>
<event>
 5    1  0.3271306E-002  0.1250022E+03  0.7818608E-02  0.1235066E+00
         -4   -1    0    0    0  501 -0.00000000000E+00  0.00000000000E+00  0.48487817316E+02  0.48504446477E+02  0.12700000000E+01 0. -1.
          4   -1    0    0  501    0  0.00000000000E+00 -0.00000000000E+00 -0.80528849503E+02  0.80538863304E+02  0.12700000000E+01 0. -1.
         25    2    1    2    0    0  0.00000000000E+00  0.00000000000E+00 -0.32041032187E+02  0.12904330978E+03  0.12500219220E+03 0.  0.
    9000005    1    3    3    0    0  0.95347445432E+01 -0.27599063898E+02  0.41017540132E+02  0.50359291894E+02  0.10000000000E+01 0.  0.
    9000005    1    3    3    0    0 -0.95347445432E+01  0.27599063898E+02 -0.73058572319E+02  0.78684017887E+02  0.10000000000E+01 0.  0.
<mgrwt>
<rscale>  0 0.12500219E+03</rscale>
<asrwt>0</asrwt>
<pdfrwt beam="2">  1        4 0.12391103E-01 0.12500219E+03</pdfrwt>
<pdfrwt beam="1">  1       -4 0.74617137E-02 0.12500219E+03</pdfrwt>
<totfact> 0.10364503E+04</totfact>
</mgrwt>
</event>
<event>
 5    1  0.3271306E-002  0.1250019E+03  0.7818608E-02  0.1235066E+00
          4   -1    0    0  501    0  0.00000000000E+00  0.00000000000E+00  0.16215426687E+02  0.16265084157E+02  0.12700000000E+01 0. -1.
         -4   -1    0    0    0  501 -0.00000000000E+00 -0.00000000000E+00 -0.24048467564E+03  0.24048802906E+03  0.12700000000E+01 0. -1.
         25    2    1    2    0    0  0.00000000000E+00  0.00000000000E+00 -0.22426924896E+03  0.25675311321E+03  0.12500186045E+03 0.  0.
    9000005    1    3    3    0    0 -0.34175912821E+02 -0.21389853980E+02 -0.14061021238E+02  0.42711019523E+02  0.10000000000E+01 0.  0.
    9000005    1    3    3    0    0  0.34175912821E+02  0.21389853980E+02 -0.21020822772E+03  0.21404209369E+03  0.10000000000E+01 0.  0.
<mgrwt>
<rscale>  0 0.12500186E+03</rscale>
<asrwt>0</asrwt>
<pdfrwt beam="1">  1        4 0.24987590E-02 0.12500186E+03</pdfrwt>
<pdfrwt beam="2">  1       -4 0.37001718E-01 0.12500186E+03</pdfrwt>
<totfact> 0.81360516E+03</totfact>
</mgrwt>
</event>
<event>
 5    1  0.3271306E-002  0.1250075E+03  0.7818608E-02  0.1235057E+00
         -4   -1    0    0    0  501 -0.00000000000E+00  0.00000000000E+00  0.25388389115E+02  0.25420133789E+02  0.12700000000E+01 0. -1.
          4   -1    0    0  501    0  0.00000000000E+00 -0.00000000000E+00 -0.15374776598E+03  0.15375301117E+03  0.12700000000E+01 0. -1.
         25    2    1    2    0    0  0.00000000000E+00  0.00000000000E+00 -0.12835937686E+03  0.17917314496E+03  0.12500754475E+03 0.  0.
    9000005    1    3    3    0    0 -0.40701512109E+02  0.32675271528E+02 -0.11344504459E+03  0.12488020099E+03  0.10000000000E+01 0.  0.
    9000005    1    3    3    0    0  0.40701512109E+02 -0.32675271528E+02 -0.14914332271E+02  0.54292943966E+02  0.10000000000E+01 0.  0.
<mgrwt>
<rscale>  0 0.12500754E+03</rscale>
<asrwt>0</asrwt>
<pdfrwt beam="2">  1        4 0.23656347E-01 0.12500754E+03</pdfrwt>
<pdfrwt beam="1">  1       -4 0.39087515E-02 0.12500754E+03</pdfrwt>
<totfact> 0.93750190E+03</totfact>
</mgrwt>
</event>
<event>
 5    1  0.3271306E-002  0.1249989E+03  0.7818608E-02  0.1235071E+00
          4   -1    0    0  501    0  0.00000000000E+00  0.00000000000E+00  0.90255496414E+01  0.91144635788E+01  0.12700000000E+01 0. -1.
         -4   -1    0    0    0  501 -0.00000000000E+00 -0.00000000000E+00 -0.43058022734E+03  0.43058210027E+03  0.12700000000E+01 0. -1.
         25    2    1    2    0    0  0.00000000000E+00  0.00000000000E+00 -0.42155467769E+03  0.43969656385E+03  0.12499888789E+03 0.  0.
    9000005    1    3    3    0    0 -0.15304312548E+02 -0.50419251215E+02 -0.32896346740E+03  0.33315804922E+03  0.10000000000E+01 0.  0.
    9000005    1    3    3    0    0  0.15304312548E+02  0.50419251215E+02 -0.92591210296E+02  0.10653851463E+03  0.10000000000E+01 0.  0.
<mgrwt>
<rscale>  0 0.12499889E+03</rscale>
<asrwt>0</asrwt>
<pdfrwt beam="1">  1        4 0.13955300E-02 0.12499889E+03</pdfrwt>
<pdfrwt beam="2">  1       -4 0.66250080E-01 0.12499889E+03</pdfrwt>
<totfact> 0.60868284E+03</totfact>
</mgrwt>
</event>
<event>
 5    1  0.3271306E-002  0.1250008E+03  0.7818608E-02  0.1235068E+00
          4   -1    0    0  501    0  0.00000000000E+00  0.00000000000E+00  0.16409576804E+03  0.16410068248E+03  0.12700000000E+01 0. -1.
         -4   -1    0    0    0  501 -0.00000000000E+00 -0.00000000000E+00 -0.23782787715E+02  0.23816672553E+02  0.12700000000E+01 0. -1.
         25    2    1    2    0    0  0.00000000000E+00  0.00000000000E+00  0.14031298033E+03  0.18791735503E+03  0.12500079949E+03 0.  0.
    9000005    1    3    3    0    0 -0.54473560895E+02 -0.15736090493E+01  0.24176854649E+02  0.59626884731E+02  0.10000000000E+01 0.  0.
    9000005    1    3    3    0    0  0.54473560895E+02  0.15736090493E+01  0.11613612568E+03  0.12829047030E+03  0.10000000000E+01 0.  0.
<mgrwt>
<rscale>  0 0.12500080E+03</rscale>
<asrwt>0</asrwt>
<pdfrwt beam="1">  1        4 0.25248487E-01 0.12500080E+03</pdfrwt>
<pdfrwt beam="2">  1       -4 0.36618750E-02 0.12500080E+03</pdfrwt>
<totfact> 0.92209304E+03</totfact>
</mgrwt>
</event>
<event>
 5    1  0.3271306E-002  0.1249983E+03  0.7818608E-02  0.1235072E+00
          4   -1    0    0  501    0  0.00000000000E+00  0.00000000000E+00  0.30176353642E+02  0.30203066386E+02  0.12700000000E+01 0. -1.
         -4   -1    0    0    0  501 -0.00000000000E+00 -0.00000000000E+00 -0.12935679519E+03  0.12936302934E+03  0.12700000000E+01 0. -1.
         25    2    1    2    0    0  0.00000000000E+00  0.00000000000E+00 -0.99180441545E+02  0.15956609573E+03  0.12499831567E+03 0.  0.
    9000005    1    3    3    0    0 -0.38080473424E+02 -0.84661806986E+01 -0.11191058900E+03  0.11851910649E+03  0.10000000000E+01 0.  0.
    9000005    1    3    3    0    0  0.38080473424E+02  0.84661806986E+01  0.12730147455E+02  0.41046989245E+02  0.10000000000E+01 0.  0.
<mgrwt>
<rscale>  0 0.12499832E+03</rscale>
<asrwt>0</asrwt>
<pdfrwt beam="1">  1        4 0.46450504E-02 0.12499832E+03</pdfrwt>
<pdfrwt beam="2">  1       -4 0.19903579E-01 0.12499832E+03</pdfrwt>
<totfact> 0.97430192E+03</totfact>
</mgrwt>
</event>
<event>
 5    1  0.3271306E-002  0.1250298E+03  0.7818608E-02  0.1235023E+00
         -4   -1    0    0    0  501 -0.00000000000E+00  0.00000000000E+00  0.19284564953E+01  0.23090787025E+01  0.12700000000E+01 0. -1.
          4   -1    0    0  501    0  0.00000000000E+00 -0.00000000000E+00 -0.18441408478E+04  0.18441412851E+04  0.12700000000E+01 0. -1.
         25    2    1    2    0    0  0.00000000000E+00  0.00000000000E+00 -0.18422123913E+04  0.18464503638E+04  0.12502980174E+03 0.  0.
    9000005    1    3    3    0    0  0.16912679435E+02 -0.57021655105E+02 -0.12050242348E+04  0.12064915724E+04  0.10000000000E+01 0.  0.
    9000005    1    3    3    0    0 -0.16912679435E+02  0.57021655105E+02 -0.63718815647E+03  0.63995879134E+03  0.10000000000E+01 0.  0.
<mgrwt>
<rscale>  0 0.12502980E+03</rscale>
<asrwt>0</asrwt>
<pdfrwt beam="2">  1        4 0.28374200E+00 0.12502980E+03</pdfrwt>
<pdfrwt beam="1">  1       -4 0.32599936E-03 0.12502980E+03</pdfrwt>
<totfact> 0.11993607E+03</totfact>
</mgrwt>
</event>
<event>
 5    1  0.3271306E-002  0.1249972E+03  0.7818608E-02  0.1235074E+00
          4   -1    0    0  501    0  0.00000000000E+00  0.00000000000E+00  0.32100773986E+02  0.32125886610E+02  0.12700000000E+01 0. -1.
         -4   -1    0    0    0  501 -0.00000000000E+00 -0.00000000000E+00 -0.12160555498E+03  0.12161218649E+03  0.12700000000E+01 0. -1.
         25    2    1    2    0    0  0.00000000000E+00  0.00000000000E+00 -0.89504780995E+02  0.15373807310E+03  0.12499715716E+03 0.  0.
    9000005    1    3    3    0    0  0.42816920577E+02 -0.28540857326E+02 -0.11425981007E+01  0.51479848048E+02  0.10000000000E+01 0.  0.
    9000005    1    3    3    0    0 -0.42816920577E+02  0.28540857326E+02 -0.88362182895E+02  0.10225822505E+03  0.10000000000E+01 0.  0.
<mgrwt>
<rscale>  0 0.12499716E+03</rscale>
<asrwt>0</asrwt>
<pdfrwt beam="1">  1        4 0.49410225E-02 0.12499716E+03</pdfrwt>
<pdfrwt beam="2">  1       -4 0.18710989E-01 0.12499716E+03</pdfrwt>
<totfact> 0.98570024E+03</totfact>
</mgrwt>
</event>
<event>
 5    1  0.3271306E-002  0.1249948E+03  0.7818608E-02  0.1235077E+00
          4   -1    0    0  501    0  0.00000000000E+00  0.00000000000E+00  0.24737455518E+01  0.27807044171E+01  0.12700000000E+01 0.  1.
         -4   -1    0    0    0  501 -0.00000000000E+00 -0.00000000000E+00 -0.14864046750E+04  0.14864052175E+04  0.12700000000E+01 0.  1.
         25    2    1    2    0    0  0.00000000000E+00  0.00000000000E+00 -0.14839309294E+04  0.14891859219E+04  0.12499482715E+03 0.  0.
    9000005    1    3    3    0    0  0.61933468069E+02  0.81929296800E+01 -0.75901594669E+03  0.76158327574E+03  0.10000000000E+01 0.  0.
    9000005    1    3    3    0    0 -0.61933468069E+02 -0.81929296800E+01 -0.72491498273E+03  0.72760264620E+03  0.10000000000E+01 0.  0.
<mgrwt>
<rscale>  0 0.12499483E+03</rscale>
<asrwt>0</asrwt>
<pdfrwt beam="1">  1        4 0.40423138E-03 0.12499483E+03</pdfrwt>
<pdfrwt beam="2">  1       -4 0.22870062E+00 0.12499483E+03</pdfrwt>
<totfact> 0.18146198E+03</totfact>
</mgrwt>
</event>
<event>
 5    1  0.3271306E-002  0.1249991E+03  0.7818608E-02  0.1235071E+00
         -4   -1    0    0    0  501 -0.00000000000E+00  0.00000000000E+00  0.44376533126E+03  0.44376714854E+03  0.12700000000E+01 0. -1.
          4   -1    0    0  501    0  0.00000000000E+00 -0.00000000000E+00 -0.87547376171E+01  0.88463738754E+01  0.12700000000E+01 0. -1.
         25    2    1    2    0    0  0.00000000000E+00  0.00000000000E+00  0.43501059364E+03  0.45261352242E+03  0.12499913638E+03 0.  0.
    9000005    1    3    3    0    0  0.10364078895E+02 -0.20573451327E+02  0.42784739101E+03  0.42846828474E+03  0.10000000000E+01 0.  0.
    9000005    1    3    3    0    0 -0.10364078895E+02  0.20573451327E+02  0.71632026310E+01  0.24145237683E+02  0.10000000000E+01 0.  0.
<mgrwt>
<rscale>  0 0.12499914E+03</rscale>
<asrwt>0</asrwt>
<pdfrwt beam="2">  1        4 0.13540714E-02 0.12499914E+03</pdfrwt>
<pdfrwt beam="1">  1       -4 0.68278781E-01 0.12499914E+03</pdfrwt>
<totfact> 0.59739185E+03</totfact>
</mgrwt>
</event>
<event>
 5    1  0.3271306E-002  0.1250172E+03  0.7818608E-02  0.1235042E+00
         -4   -1    0    0    0  501 -0.00000000000E+00  0.00000000000E+00  0.49891180607E+02  0.49907342169E+02  0.12700000000E+01 0. -1.
          4   -1    0    0  501    0  0.00000000000E+00 -0.00000000000E+00 -0.78282904414E+02  0.78293205475E+02  0.12700000000E+01 0. -1.
         25    2    1    2    0    0  0.00000000000E+00  0.00000000000E+00 -0.28391723807E+02  0.12820054764E+03  0.12501716056E+03 0.  0.
    9000005    1    3    3    0    0 -0.73330337129E+01  0.59683177183E+02  0.32812266947E+01  0.60229739089E+02  0.10000000000E+01 0.  0.
    9000005    1    3    3    0    0  0.73330337129E+01 -0.59683177183E+02 -0.31672950502E+02  0.67970808555E+02  0.10000000000E+01 0.  0.
<mgrwt>
<rscale>  0 0.12501716E+03</rscale>
<asrwt>0</asrwt>
<pdfrwt beam="2">  1        4 0.12045559E-01 0.12501716E+03</pdfrwt>
<pdfrwt beam="1">  1       -4 0.76776018E-02 0.12501716E+03</pdfrwt>
<totfact> 0.10379137E+04</totfact>
</mgrwt>
</event>
<event>
 5    1  0.3271306E-002  0.1250010E+03  0.7818608E-02  0.1235068E+00
          4   -1    0    0  501    0  0.00000000000E+00  0.00000000000E+00  0.44105656047E+02  0.44123936761E+02  0.12700000000E+01 0.  1.
         -4   -1    0    0    0  501 -0.00000000000E+00 -0.00000000000E+00 -0.88525954366E+02  0.88535063655E+02  0.12700000000E+01 0.  1.
         25    2    1    2    0    0  0.00000000000E+00  0.00000000000E+00 -0.44420298319E+02  0.13265900042E+03  0.12500098995E+03 0.  0.
    9000005    1    3    3    0    0 -0.57115115969E+02  0.18775030026E+02 -0.40303795542E+02  0.72388080233E+02  0.10000000000E+01 0.  0.
    9000005    1    3    3    0    0  0.57115115969E+02 -0.18775030026E+02 -0.41165027770E+01  0.60270920184E+02  0.10000000000E+01 0.  0.
<mgrwt>
<rscale>  0 0.12500099E+03</rscale>
<asrwt>0</asrwt>
<pdfrwt beam="1">  1        4 0.67875925E-02 0.12500099E+03</pdfrwt>
<pdfrwt beam="2">  1       -4 0.13621485E-01 0.12500099E+03</pdfrwt>
<totfact> 0.10287423E+04</totfact>
</mgrwt>
</event>
<event>
 5    1  0.3271306E-002  0.1250016E+03  0.7818608E-02  0.1235067E+00
          4   -1    0    0  501    0  0.00000000000E+00  0.00000000000E+00  0.30294240320E+03  0.30294506525E+03  0.12700000000E+01 0.  1.
         -4   -1    0    0    0  501 -0.00000000000E+00 -0.00000000000E+00 -0.12860703271E+02  0.12923257663E+02  0.12700000000E+01 0.  1.
         25    2    1    2    0    0  0.00000000000E+00  0.00000000000E+00  0.29008169993E+03  0.31586832291E+03  0.12500161912E+03 0.  0.
    9000005    1    3    3    0    0 -0.47835386082E+02  0.25358292315E+01  0.24645470871E+03  0.25106887110E+03  0.10000000000E+01 0.  0.
    9000005    1    3    3    0    0  0.47835386082E+02 -0.25358292315E+01  0.43626991221E+02  0.64799451808E+02  0.10000000000E+01 0.  0.
<mgrwt>
<rscale>  0 0.12500162E+03</rscale>
<asrwt>0</asrwt>
<pdfrwt beam="1">  1        4 0.46611540E-01 0.12500162E+03</pdfrwt>
<pdfrwt beam="2">  1       -4 0.19835864E-02 0.12500162E+03</pdfrwt>
<totfact> 0.73647597E+03</totfact>
</mgrwt>
</event>
<event>
 5    1  0.3271306E-002  0.1250013E+03  0.7818608E-02  0.1235067E+00
          4   -1    0    0  501    0  0.00000000000E+00  0.00000000000E+00  0.77544965363E+02  0.77555364438E+02  0.12700000000E+01 0.  1.
         -4   -1    0    0    0  501 -0.00000000000E+00 -0.00000000000E+00 -0.50353251395E+02  0.50369264697E+02  0.12700000000E+01 0.  1.
         25    2    1    2    0    0  0.00000000000E+00  0.00000000000E+00  0.27191713967E+02  0.12792462913E+03  0.12500128572E+03 0.  0.
    9000005    1    3    3    0    0 -0.12123573439E+02  0.56408917358E+02 -0.10973591422E+02  0.58739822089E+02  0.10000000000E+01 0.  0.
    9000005    1    3    3    0    0  0.12123573439E+02 -0.56408917358E+02  0.38165305390E+02  0.69184807045E+02  0.10000000000E+01 0.  0.
<mgrwt>
<rscale>  0 0.12500129E+03</rscale>
<asrwt>0</asrwt>
<pdfrwt beam="1">  1        4 0.11932026E-01 0.12500129E+03</pdfrwt>
<pdfrwt beam="2">  1       -4 0.77486858E-02 0.12500129E+03</pdfrwt>
<totfact> 0.10388814E+04</totfact>
</mgrwt>
</event>
<event>
 5    1  0.3271306E-002  0.1250022E+03  0.7818608E-02  0.1235066E+00
          4   -1    0    0  501    0  0.00000000000E+00  0.00000000000E+00  0.18331392123E+03  0.18331832046E+03  0.12700000000E+01 0.  1.
         -4   -1    0    0    0  501 -0.00000000000E+00 -0.00000000000E+00 -0.21286226385E+02  0.21324078731E+02  0.12700000000E+01 0.  1.
         25    2    1    2    0    0  0.00000000000E+00  0.00000000000E+00  0.16202769484E+03  0.20464239919E+03  0.12500215058E+03 0.  0.
    9000005    1    3    3    0    0  0.27452354896E+02 -0.39669817798E+02  0.15979971334E+02  0.50829968693E+02  0.10000000000E+01 0.  0.
    9000005    1    3    3    0    0 -0.27452354896E+02  0.39669817798E+02  0.14604772351E+03  0.15381243049E+03  0.10000000000E+01 0.  0.
<mgrwt>
<rscale>  0 0.12500215E+03</rscale>
<asrwt>0</asrwt>
<pdfrwt beam="1">  1        4 0.28205392E-01 0.12500215E+03</pdfrwt>
<pdfrwt beam="2">  1       -4 0.32780541E-02 0.12500215E+03</pdfrwt>
<totfact> 0.89354092E+03</totfact>
</mgrwt>
</event>
<event>
 5    1  0.3271306E-002  0.1250006E+03  0.7818608E-02  0.1235068E+00
         -4   -1    0    0    0  501 -0.00000000000E+00  0.00000000000E+00  0.17418916518E+03  0.17419379485E+03  0.12700000000E+01 0. -1.
          4   -1    0    0  501    0  0.00000000000E+00 -0.00000000000E+00 -0.22402652397E+02  0.22438621491E+02  0.12700000000E+01 0. -1.
         25    2    1    2    0    0  0.00000000000E+00  0.00000000000E+00  0.15178651278E+03  0.19663241634E+03  0.12500064678E+03 0.  0.
    9000005    1    3    3    0    0  0.30915257062E+02  0.25728851479E+02  0.65660882717E+00  0.40238763062E+02  0.10000000000E+01 0.  0.
    9000005    1    3    3    0    0 -0.30915257062E+02 -0.25728851479E+02  0.15112990395E+03  0.15639365328E+03  0.10000000000E+01 0.  0.
<mgrwt>
<rscale>  0 0.12500065E+03</rscale>
<asrwt>0</asrwt>
<pdfrwt beam="2">  1        4 0.34496848E-02 0.12500065E+03</pdfrwt>
<pdfrwt beam="1">  1       -4 0.26801457E-01 0.12500065E+03</pdfrwt>
<totfact> 0.90704616E+03</totfact>
</mgrwt>
</event>
<event>
 5    1  0.3271306E-002  0.1250013E+03  0.7818608E-02  0.1235067E+00
         -4   -1    0    0    0  501 -0.00000000000E+00  0.00000000000E+00  0.56036884088E+01  0.57458005346E+01  0.12700000000E+01 0.  1.
          4   -1    0    0  501    0  0.00000000000E+00 -0.00000000000E+00 -0.68822842195E+03  0.68822959372E+03  0.12700000000E+01 0.  1.
         25    2    1    2    0    0  0.00000000000E+00  0.00000000000E+00 -0.68262473354E+03  0.69397539426E+03  0.12500128398E+03 0.  0.
    9000005    1    3    3    0    0  0.36419494386E+02 -0.45200964413E+02 -0.21280131610E+03  0.22057857305E+03  0.10000000000E+01 0.  0.
    9000005    1    3    3    0    0 -0.36419494386E+02  0.45200964413E+02 -0.46982341744E+03  0.47339682121E+03  0.10000000000E+01 0.  0.
<mgrwt>
<rscale>  0 0.12500128E+03</rscale>
<asrwt>0</asrwt>
<pdfrwt beam="2">  1        4 0.10589225E+00 0.12500128E+03</pdfrwt>
<pdfrwt beam="1">  1       -4 0.87312829E-03 0.12500128E+03</pdfrwt>
<totfact> 0.43405435E+03</totfact>
</mgrwt>
</event>
<event>
 5    1  0.3271306E-002  0.1249989E+03  0.7818608E-02  0.1235071E+00
         -4   -1    0    0    0  501 -0.00000000000E+00  0.00000000000E+00  0.41328879065E+01  0.43236168248E+01  0.12700000000E+01 0. -1.
          4   -1    0    0  501    0  0.00000000000E+00 -0.00000000000E+00 -0.92363724414E+03  0.92363811726E+03  0.12700000000E+01 0. -1.
         25    2    1    2    0    0  0.00000000000E+00  0.00000000000E+00 -0.91950435623E+03  0.92796173409E+03  0.12499887520E+03 0.  0.
    9000005    1    3    3    0    0 -0.16111434135E+02 -0.42856272124E+02 -0.77549697564E+03  0.77684798873E+03  0.10000000000E+01 0.  0.
    9000005    1    3    3    0    0  0.16111434135E+02  0.42856272124E+02 -0.14400738059E+03  0.15111374535E+03  0.10000000000E+01 0.  0.
<mgrwt>
<rscale>  0 0.12499888E+03</rscale>
<asrwt>0</asrwt>
<pdfrwt beam="2">  1        4 0.14211262E+00 0.12499888E+03</pdfrwt>
<pdfrwt beam="1">  1       -4 0.65056826E-03 0.12499888E+03</pdfrwt>
<totfact> 0.33112412E+03</totfact>
</mgrwt>
</event>
<event>
 5    1  0.3271306E-002  0.1249965E+03  0.7818608E-02  0.1235075E+00
         -4   -1    0    0    0  501 -0.00000000000E+00  0.00000000000E+00  0.27977574524E+02  0.28006384562E+02  0.12700000000E+01 0.  1.
          4   -1    0    0  501    0  0.00000000000E+00 -0.00000000000E+00 -0.13950933986E+03  0.13951512035E+03  0.12700000000E+01 0.  1.
         25    2    1    2    0    0  0.00000000000E+00  0.00000000000E+00 -0.11153176533E+03  0.16752150492E+03  0.12499647967E+03 0.  0.
    9000005    1    3    3    0    0 -0.35479672415E+02  0.27573931088E+02  0.24353585691E+01  0.45011774034E+02  0.10000000000E+01 0.  0.
    9000005    1    3    3    0    0  0.35479672415E+02 -0.27573931088E+02 -0.11396712390E+03  0.12250973088E+03  0.10000000000E+01 0.  0.
<mgrwt>
<rscale>  0 0.12499648E+03</rscale>
<asrwt>0</asrwt>
<pdfrwt beam="2">  1        4 0.21465636E-01 0.12499648E+03</pdfrwt>
<pdfrwt beam="1">  1       -4 0.43069031E-02 0.12499648E+03</pdfrwt>
<totfact> 0.95919563E+03</totfact>
</mgrwt>
</event>
<event>
 5    1  0.3271306E-002  0.1250002E+03  0.7818608E-02  0.1235069E+00
         -4   -1    0    0    0  501 -0.00000000000E+00  0.00000000000E+00  0.27376844722E+02  0.27406286266E+02  0.12700000000E+01 0.  1.
          4   -1    0    0  501    0  0.00000000000E+00 -0.00000000000E+00 -0.14257593050E+03  0.14258158667E+03  0.12700000000E+01 0.  1.
         25    2    1    2    0    0  0.00000000000E+00  0.00000000000E+00 -0.11519908577E+03  0.16998787293E+03  0.12500019033E+03 0.  0.
    9000005    1    3    3    0    0 -0.31978440122E+00  0.59007074308E+02 -0.85579312160E+02  0.10395554699E+03  0.10000000000E+01 0.  0.
    9000005    1    3    3    0    0  0.31978440122E+00 -0.59007074308E+02 -0.29619773613E+02  0.66032325942E+02  0.10000000000E+01 0.  0.
<mgrwt>
<rscale>  0 0.12500019E+03</rscale>
<asrwt>0</asrwt>
<pdfrwt beam="2">  1        4 0.21937458E-01 0.12500019E+03</pdfrwt>
<pdfrwt beam="1">  1       -4 0.42145222E-02 0.12500019E+03</pdfrwt>
<totfact> 0.95450489E+03</totfact>
</mgrwt>
</event>
<event>
 5    1  0.3271306E-002  0.1250014E+03  0.7818608E-02  0.1235067E+00
          4   -1    0    0  501    0  0.00000000000E+00  0.00000000000E+00  0.74298327504E+02  0.74309180926E+02  0.12700000000E+01 0.  1.
         -4   -1    0    0    0  501 -0.00000000000E+00 -0.00000000000E+00 -0.52554054495E+02  0.52569397408E+02  0.12700000000E+01 0.  1.
         25    2    1    2    0    0  0.00000000000E+00  0.00000000000E+00  0.21744273009E+02  0.12687857833E+03  0.12500144092E+03 0.  0.
    9000005    1    3    3    0    0  0.17469647559E+02  0.51107830431E+01  0.71553099519E+02  0.73838707599E+02  0.10000000000E+01 0.  0.
    9000005    1    3    3    0    0 -0.17469647559E+02 -0.51107830431E+01 -0.49808826510E+02  0.53039870734E+02  0.10000000000E+01 0.  0.
<mgrwt>
<rscale>  0 0.12500144E+03</rscale>
<asrwt>0</asrwt>
<pdfrwt beam="1">  1        4 0.11432527E-01 0.12500144E+03</pdfrwt>
<pdfrwt beam="2">  1       -4 0.80872543E-02 0.12500144E+03</pdfrwt>
<totfact> 0.10411446E+04</totfact>
</mgrwt>
</event>
<event>
 5    1  0.3271306E-002  0.1250013E+03  0.7818608E-02  0.1235067E+00
         -4   -1    0    0    0  501 -0.00000000000E+00  0.00000000000E+00  0.25404356037E+03  0.25404673481E+03  0.12700000000E+01 0. -1.
          4   -1    0    0  501    0  0.00000000000E+00 -0.00000000000E+00 -0.15347111706E+02  0.15399569400E+02  0.12700000000E+01 0. -1.
         25    2    1    2    0    0  0.00000000000E+00  0.00000000000E+00  0.23869644867E+03  0.26944630421E+03  0.12500126498E+03 0.  0.
    9000005    1    3    3    0    0  0.60353561521E+02 -0.15595755194E+02  0.12887884381E+03  0.14316611453E+03  0.10000000000E+01 0.  0.
    9000005    1    3    3    0    0 -0.60353561521E+02  0.15595755194E+02  0.10981760486E+03  0.12628018968E+03  0.10000000000E+01 0.  0.
<mgrwt>
<rscale>  0 0.12500126E+03</rscale>
<asrwt>0</asrwt>
<pdfrwt beam="2">  1        4 0.23653736E-02 0.12500126E+03</pdfrwt>
<pdfrwt beam="1">  1       -4 0.39087903E-01 0.12500126E+03</pdfrwt>
<totfact> 0.79596175E+03</totfact>
</mgrwt>
</event>
<event>
 5    1  0.3271306E-002  0.1250019E+03  0.7818608E-02  0.1235066E+00
          4   -1    0    0  501    0  0.00000000000E+00  0.00000000000E+00  0.40187040985E+01  0.42146034963E+01  0.12700000000E+01 0. -1.
         -4   -1    0    0    0  501 -0.00000000000E+00 -0.00000000000E+00 -0.94872184745E+03  0.94872269748E+03  0.12700000000E+01 0. -1.
         25    2    1    2    0    0  0.00000000000E+00  0.00000000000E+00 -0.94470314335E+03  0.95293730098E+03  0.12500188218E+03 0.  0.
    9000005    1    3    3    0    0  0.31067802830E+02  0.42241700522E+00 -0.88570355312E+03  0.88624893276E+03  0.10000000000E+01 0.  0.
    9000005    1    3    3    0    0 -0.31067802830E+02 -0.42241700522E+00 -0.58999590224E+02  0.66688368217E+02  0.10000000000E+01 0.  0.
<mgrwt>
<rscale>  0 0.12500188E+03</rscale>
<asrwt>0</asrwt>
<pdfrwt beam="1">  1        4 0.63339750E-03 0.12500188E+03</pdfrwt>
<pdfrwt beam="2">  1       -4 0.14597217E+00 0.12500188E+03</pdfrwt>
<totfact> 0.32210628E+03</totfact>
</mgrwt>
</event>
<event>
 5    1  0.3271306E-002  0.1250014E+03  0.7818608E-02  0.1235067E+00
          4   -1    0    0  501    0  0.00000000000E+00  0.00000000000E+00  0.12984332924E+02  0.13046294550E+02  0.12700000000E+01 0.  1.
         -4   -1    0    0    0  501 -0.00000000000E+00 -0.00000000000E+00 -0.30007056852E+03  0.30007325604E+03  0.12700000000E+01 0.  1.
         25    2    1    2    0    0  0.00000000000E+00  0.00000000000E+00 -0.28708623559E+03  0.31311955059E+03  0.12500138517E+03 0.  0.
    9000005    1    3    3    0    0  0.64904807324E+01  0.70298846753E+01 -0.29823723615E+03  0.29839235018E+03  0.10000000000E+01 0.  0.
    9000005    1    3    3    0    0 -0.64904807324E+01 -0.70298846753E+01  0.11151000554E+02  0.14727200414E+02  0.10000000000E+01 0.  0.
<mgrwt>
<rscale>  0 0.12500139E+03</rscale>
<asrwt>0</asrwt>
<pdfrwt beam="1">  1        4 0.20025629E-02 0.12500139E+03</pdfrwt>
<pdfrwt beam="2">  1       -4 0.46169671E-01 0.12500139E+03</pdfrwt>
<totfact> 0.73979736E+03</totfact>
</mgrwt>
</event>
<event>
 5    1  0.3271306E-002  0.1250000E+03  0.7818608E-02  0.1235069E+00
         -4   -1    0    0    0  501 -0.00000000000E+00  0.00000000000E+00  0.13244790103E+03  0.13245398970E+03  0.12700000000E+01 0.  1.
          4   -1    0    0  501    0  0.00000000000E+00 -0.00000000000E+00 -0.29472276191E+02  0.29499626504E+02  0.12700000000E+01 0.  1.
         25    2    1    2    0    0  0.00000000000E+00  0.00000000000E+00  0.10297562484E+03  0.16195361620E+03  0.12499997796E+03 0.  0.
    9000005    1    3    3    0    0 -0.33705087410E+02  0.28129651151E+02  0.10910964916E+03  0.11761473433E+03  0.10000000000E+01 0.  0.
    9000005    1    3    3    0    0  0.33705087410E+02 -0.28129651151E+02 -0.61340243243E+01  0.44338881872E+02  0.10000000000E+01 0.  0.
<mgrwt>
<rscale>  0 0.12499998E+03</rscale>
<asrwt>0</asrwt>
<pdfrwt beam="2">  1        4 0.45367685E-02 0.12499998E+03</pdfrwt>
<pdfrwt beam="1">  1       -4 0.20379173E-01 0.12499998E+03</pdfrwt>
<totfact> 0.96967508E+03</totfact>
</mgrwt>
</event>
<event>
 5    1  0.3271306E-002  0.1249969E+03  0.7818608E-02  0.1235074E+00
          4   -1    0    0  501    0  0.00000000000E+00  0.00000000000E+00  0.19603839022E+02  0.19644933301E+02  0.12700000000E+01 0. -1.
         -4   -1    0    0    0  501 -0.00000000000E+00 -0.00000000000E+00 -0.19899786628E+03  0.19900191879E+03  0.12700000000E+01 0. -1.
         25    2    1    2    0    0  0.00000000000E+00  0.00000000000E+00 -0.17939402726E+03  0.21864685210E+03  0.12499691562E+03 0.  0.
    9000005    1    3    3    0    0 -0.57338760927E+02  0.17327387127E+02 -0.12084514812E+03  0.13487965626E+03  0.10000000000E+01 0.  0.
    9000005    1    3    3    0    0  0.57338760927E+02 -0.17327387127E+02 -0.58548879136E+02  0.83767195831E+02  0.10000000000E+01 0.  0.
<mgrwt>
<rscale>  0 0.12499692E+03</rscale>
<asrwt>0</asrwt>
<pdfrwt beam="1">  1        4 0.30194482E-02 0.12499692E+03</pdfrwt>
<pdfrwt beam="2">  1       -4 0.30618528E-01 0.12499692E+03</pdfrwt>
<totfact> 0.87088922E+03</totfact>
</mgrwt>
</event>
<event>
 5    1  0.3271306E-002  0.1250004E+03  0.7818608E-02  0.1235069E+00
          4   -1    0    0  501    0  0.00000000000E+00  0.00000000000E+00  0.26286412213E+03  0.26286719005E+03  0.12700000000E+01 0.  1.
         -4   -1    0    0    0  501 -0.00000000000E+00 -0.00000000000E+00 -0.14830129811E+02  0.14884409636E+02  0.12700000000E+01 0.  1.
         25    2    1    2    0    0  0.00000000000E+00  0.00000000000E+00  0.24803399232E+03  0.27775159969E+03  0.12500035912E+03 0.  0.
    9000005    1    3    3    0    0  0.50739697602E+01 -0.33491464950E+02  0.24070616705E+03  0.24307999146E+03  0.10000000000E+01 0.  0.
    9000005    1    3    3    0    0 -0.50739697602E+01  0.33491464950E+02  0.73278252729E+01  0.34671608224E+02  0.10000000000E+01 0.  0.
<mgrwt>
<rscale>  0 0.12500036E+03</rscale>
<asrwt>0</asrwt>
<pdfrwt beam="1">  1        4 0.40445047E-01 0.12500036E+03</pdfrwt>
<pdfrwt beam="2">  1       -4 0.22859697E-02 0.12500036E+03</pdfrwt>
<totfact> 0.78476546E+03</totfact>
</mgrwt>
</event>
<event>
 5    1  0.3271306E-002  0.1249989E+03  0.7818608E-02  0.1235071E+00
          4   -1    0    0  501    0  0.00000000000E+00  0.00000000000E+00  0.10012877065E+03  0.10013682446E+03  0.12700000000E+01 0.  1.
         -4   -1    0    0    0  501 -0.00000000000E+00 -0.00000000000E+00 -0.38991595224E+02  0.39012272403E+02  0.12700000000E+01 0.  1.
         25    2    1    2    0    0  0.00000000000E+00  0.00000000000E+00  0.61137175430E+02  0.13914909686E+03  0.12499886775E+03 0.  0.
    9000005    1    3    3    0    0  0.46703131720E+02  0.27978759839E+02  0.64720260238E+02  0.84579581459E+02  0.10000000000E+01 0.  0.
    9000005    1    3    3    0    0 -0.46703131720E+02 -0.27978759839E+02 -0.35830848080E+01  0.54569515403E+02  0.10000000000E+01 0.  0.
<mgrwt>
<rscale>  0 0.12499887E+03</rscale>
<asrwt>0</asrwt>
<pdfrwt beam="1">  1        4 0.15406636E-01 0.12499887E+03</pdfrwt>
<pdfrwt beam="2">  1       -4 0.60009170E-02 0.12499887E+03</pdfrwt>
<totfact> 0.10151511E+04</totfact>
</mgrwt>
</event>
<event>
 5    1  0.3271306E-002  0.1250070E+03  0.7818608E-02  0.1235058E+00
          4   -1    0    0  501    0  0.00000000000E+00  0.00000000000E+00  0.22717106442E+03  0.22717461436E+03  0.12700000000E+01 0. -1.
         -4   -1    0    0    0  501 -0.00000000000E+00 -0.00000000000E+00 -0.17169971250E+02  0.17216875812E+02  0.12700000000E+01 0. -1.
         25    2    1    2    0    0  0.00000000000E+00  0.00000000000E+00  0.21000109317E+03  0.24439149017E+03  0.12500696515E+03 0.  0.
    9000005    1    3    3    0    0  0.38951342717E+02  0.48378944796E+02  0.91461968669E+02  0.11056229516E+03  0.10000000000E+01 0.  0.
    9000005    1    3    3    0    0 -0.38951342717E+02 -0.48378944796E+02  0.11853912450E+03  0.13382919501E+03  0.10000000000E+01 0.  0.
<mgrwt>
<rscale>  0 0.12500697E+03</rscale>
<asrwt>0</asrwt>
<pdfrwt beam="1">  1        4 0.34953271E-01 0.12500697E+03</pdfrwt>
<pdfrwt beam="2">  1       -4 0.26454155E-02 0.12500697E+03</pdfrwt>
<totfact> 0.83134748E+03</totfact>
</mgrwt>
</event>
<event>
 5    1  0.3271306E-002  0.1249989E+03  0.7818608E-02  0.1235071E+00
          4   -1    0    0  501    0  0.00000000000E+00  0.00000000000E+00  0.17044882675E+02  0.17092130511E+02  0.12700000000E+01 0.  1.
         -4   -1    0    0    0  501 -0.00000000000E+00 -0.00000000000E+00 -0.22880419548E+03  0.22880772008E+03  0.12700000000E+01 0.  1.
         25    2    1    2    0    0  0.00000000000E+00  0.00000000000E+00 -0.21175931281E+03  0.24589985059E+03  0.12499891984E+03 0.  0.
    9000005    1    3    3    0    0  0.34571970847E+02  0.20988132941E+02 -0.12163766707E+02  0.42245474469E+02  0.10000000000E+01 0.  0.
    9000005    1    3    3    0    0 -0.34571970847E+02 -0.20988132941E+02 -0.19959554610E+03  0.20365437613E+03  0.10000000000E+01 0.  0.
<mgrwt>
<rscale>  0 0.12499892E+03</rscale>
<asrwt>0</asrwt>
<pdfrwt beam="1">  1        4 0.26261954E-02 0.12499892E+03</pdfrwt>
<pdfrwt beam="2">  1       -4 0.35204549E-01 0.12499892E+03</pdfrwt>
<totfact> 0.82928459E+03</totfact>
</mgrwt>
</event>
<event>
 5    1  0.3271306E-002  0.1249976E+03  0.7818608E-02  0.1235073E+00
         -4   -1    0    0    0  501 -0.00000000000E+00  0.00000000000E+00  0.60008957227E+02  0.60022394549E+02  0.12700000000E+01 0. -1.
          4   -1    0    0  501    0  0.00000000000E+00 -0.00000000000E+00 -0.65064979909E+02  0.65077373261E+02  0.12700000000E+01 0. -1.
         25    2    1    2    0    0  0.00000000000E+00  0.00000000000E+00 -0.50560226822E+01  0.12509976781E+03  0.12499755414E+03 0.  0.
    9000005    1    3    3    0    0  0.99562033865E+01  0.60236416830E+02 -0.15863517406E+02  0.63088850702E+02  0.10000000000E+01 0.  0.
    9000005    1    3    3    0    0 -0.99562033865E+01 -0.60236416830E+02  0.10807494724E+02  0.62010917108E+02  0.10000000000E+01 0.  0.
<mgrwt>
<rscale>  0 0.12499755E+03</rscale>
<asrwt>0</asrwt>
<pdfrwt beam="2">  1        4 0.10011984E-01 0.12499755E+03</pdfrwt>
<pdfrwt beam="1">  1       -4 0.92341342E-02 0.12499755E+03</pdfrwt>
<totfact> 0.10451274E+04</totfact>
</mgrwt>
</event>
<event>
 5    1  0.3271306E-002  0.1249978E+03  0.7818608E-02  0.1235073E+00
         -4   -1    0    0    0  501 -0.00000000000E+00  0.00000000000E+00  0.67405486360E+01  0.68591468795E+01  0.12700000000E+01 0. -1.
          4   -1    0    0  501    0  0.00000000000E+00 -0.00000000000E+00 -0.57432148346E+03  0.57432288764E+03  0.12700000000E+01 0. -1.
         25    2    1    2    0    0  0.00000000000E+00  0.00000000000E+00 -0.56758093483E+03  0.58118203452E+03  0.12499775866E+03 0.  0.
    9000005    1    3    3    0    0 -0.31799690678E+02  0.43545764890E+02 -0.13693153940E+03  0.14716895206E+03  0.10000000000E+01 0.  0.
    9000005    1    3    3    0    0  0.31799690678E+02 -0.43545764890E+02 -0.43064939543E+03  0.43401308246E+03  0.10000000000E+01 0.  0.
<mgrwt>
<rscale>  0 0.12499776E+03</rscale>
<asrwt>0</asrwt>
<pdfrwt beam="2">  1        4 0.88366344E-01 0.12499776E+03</pdfrwt>
<pdfrwt beam="1">  1       -4 0.10462389E-02 0.12499776E+03</pdfrwt>
<totfact> 0.50079893E+03</totfact>
</mgrwt>
</event>
<event>
 5    1  0.3271306E-002  0.1249996E+03  0.7818608E-02  0.1235070E+00
         -4   -1    0    0    0  501 -0.00000000000E+00  0.00000000000E+00  0.32407919682E+02  0.32432794485E+02  0.12700000000E+01 0.  1.
          4   -1    0    0  501    0  0.00000000000E+00 -0.00000000000E+00 -0.12045861914E+03  0.12046531378E+03  0.12700000000E+01 0.  1.
         25    2    1    2    0    0  0.00000000000E+00  0.00000000000E+00 -0.88050699454E+02  0.15289810827E+03  0.12499962335E+03 0.  0.
    9000005    1    3    3    0    0  0.19637588774E+02  0.14391105338E+02  0.26374307058E+02  0.35907420940E+02  0.10000000000E+01 0.  0.
    9000005    1    3    3    0    0 -0.19637588774E+02 -0.14391105338E+02 -0.11442500651E+03  0.11699068733E+03  0.10000000000E+01 0.  0.
<mgrwt>
<rscale>  0 0.12499962E+03</rscale>
<asrwt>0</asrwt>
<pdfrwt beam="2">  1        4 0.18534524E-01 0.12499962E+03</pdfrwt>
<pdfrwt beam="1">  1       -4 0.49882622E-02 0.12499962E+03</pdfrwt>
<totfact> 0.98729946E+03</totfact>
</mgrwt>
</event>
<event>
 5    1  0.3271306E-002  0.1250038E+03  0.7818608E-02  0.1235063E+00
         -4   -1    0    0    0  501 -0.00000000000E+00  0.00000000000E+00  0.24609190202E+04  0.24609193479E+04  0.12700000000E+01 0. -1.
          4   -1    0    0  501    0  0.00000000000E+00 -0.00000000000E+00 -0.13330163560E+01  0.18411498053E+01  0.12700000000E+01 0. -1.
         25    2    1    2    0    0  0.00000000000E+00  0.00000000000E+00  0.24595860038E+04  0.24627604977E+04  0.12500383500E+03 0.  0.
    9000005    1    3    3    0    0 -0.31588212659E+02  0.53670030683E+02  0.11270382757E+04  0.11287579733E+04  0.10000000000E+01 0.  0.
    9000005    1    3    3    0    0  0.31588212659E+02 -0.53670030683E+02  0.13325477281E+04  0.13340025244E+04  0.10000000000E+01 0.  0.
<mgrwt>
<rscale>  0 0.12500384E+03</rscale>
<asrwt>0</asrwt>
<pdfrwt beam="2">  1        4 0.24419091E-03 0.12500384E+03</pdfrwt>
<pdfrwt beam="1">  1       -4 0.37864347E+00 0.12500384E+03</pdfrwt>
<totfact> 0.49680753E+02</totfact>
</mgrwt>
</event>
<event>
 5    1  0.3271306E-002  0.1250020E+03  0.7818608E-02  0.1235066E+00
         -4   -1    0    0    0  501 -0.00000000000E+00  0.00000000000E+00  0.50353516659E+02  0.50369529876E+02  0.12700000000E+01 0.  1.
          4   -1    0    0  501    0  0.00000000000E+00 -0.00000000000E+00 -0.77545385325E+02  0.77555784344E+02  0.12700000000E+01 0.  1.
         25    2    1    2    0    0  0.00000000000E+00  0.00000000000E+00 -0.27191868666E+02  0.12792531422E+03  0.12500195317E+03 0.  0.
    9000005    1    3    3    0    0 -0.48997906605E+02  0.38587703930E+02 -0.17633622554E+02  0.64820910135E+02  0.10000000000E+01 0.  0.
    9000005    1    3    3    0    0  0.48997906605E+02 -0.38587703930E+02 -0.95582461119E+01  0.63104404086E+02  0.10000000000E+01 0.  0.
<mgrwt>
<rscale>  0 0.12500195E+03</rscale>
<asrwt>0</asrwt>
<pdfrwt beam="2">  1        4 0.11932091E-01 0.12500195E+03</pdfrwt>
<pdfrwt beam="1">  1       -4 0.77487266E-02 0.12500195E+03</pdfrwt>
<totfact> 0.10388643E+04</totfact>
</mgrwt>
</event>
<event>
 5    1  0.3271306E-002  0.1249937E+03  0.7818608E-02  0.1235079E+00
         -4   -1    0    0    0  501 -0.00000000000E+00  0.00000000000E+00  0.38058931010E+02  0.38080114622E+02  0.12700000000E+01 0.  1.
          4   -1    0    0  501    0  0.00000000000E+00 -0.00000000000E+00 -0.10257283949E+03  0.10258070140E+03  0.12700000000E+01 0.  1.
         25    2    1    2    0    0  0.00000000000E+00  0.00000000000E+00 -0.64513908477E+02  0.14066081603E+03  0.12499368295E+03 0.  0.
    9000005    1    3    3    0    0  0.12062111714E+02  0.55909898405E+02 -0.60579947719E+02  0.83320713777E+02  0.10000000000E+01 0.  0.
    9000005    1    3    3    0    0 -0.12062111714E+02 -0.55909898405E+02 -0.39339607579E+01  0.57340102249E+02  0.10000000000E+01 0.  0.
<mgrwt>
<rscale>  0 0.12499368E+03</rscale>
<asrwt>0</asrwt>
<pdfrwt beam="2">  1        4 0.15782671E-01 0.12499368E+03</pdfrwt>
<pdfrwt beam="1">  1       -4 0.58574545E-02 0.12499368E+03</pdfrwt>
<totfact> 0.10121349E+04</totfact>
</mgrwt>
</event>
<event>
 5    1  0.3271306E-002  0.1250076E+03  0.7818608E-02  0.1235057E+00
         -4   -1    0    0    0  501 -0.00000000000E+00  0.00000000000E+00  0.10441708927E+03  0.10442481234E+03  0.12700000000E+01 0.  1.
          4   -1    0    0  501    0  0.00000000000E+00 -0.00000000000E+00 -0.37394708602E+02  0.37416268272E+02  0.12700000000E+01 0.  1.
         25    2    1    2    0    0  0.00000000000E+00  0.00000000000E+00  0.67022380666E+02  0.14184108061E+03  0.12500757032E+03 0.  0.
    9000005    1    3    3    0    0 -0.62221776723E+02 -0.36831032704E+01  0.28360232771E+02  0.68486623155E+02  0.10000000000E+01 0.  0.
    9000005    1    3    3    0    0  0.62221776723E+02  0.36831032704E+01  0.38662147896E+02  0.73354457453E+02  0.10000000000E+01 0.  0.
<mgrwt>
<rscale>  0 0.12500757E+03</rscale>
<asrwt>0</asrwt>
<pdfrwt beam="2">  1        4 0.57552847E-02 0.12500757E+03</pdfrwt>
<pdfrwt beam="1">  1       -4 0.16066420E-01 0.12500757E+03</pdfrwt>
<totfact> 0.10093849E+04</totfact>
</mgrwt>
</event>
<event>
 5    1  0.3271306E-002  0.1249997E+03  0.7818608E-02  0.1235070E+00
          4   -1    0    0  501    0  0.00000000000E+00  0.00000000000E+00  0.22118386010E+02  0.22154816625E+02  0.12700000000E+01 0.  1.
         -4   -1    0    0    0  501 -0.00000000000E+00 -0.00000000000E+00 -0.17642167391E+03  0.17642624500E+03  0.12700000000E+01 0.  1.
         25    2    1    2    0    0  0.00000000000E+00  0.00000000000E+00 -0.15430328790E+03  0.19858106163E+03  0.12499973352E+03 0.  0.
    9000005    1    3    3    0    0  0.20547190842E+02 -0.58757151614E+02 -0.68357422209E+02  0.92457163532E+02  0.10000000000E+01 0.  0.
    9000005    1    3    3    0    0 -0.20547190842E+02  0.58757151614E+02 -0.85945865693E+02  0.10612389810E+03  0.10000000000E+01 0.  0.
<mgrwt>
<rscale>  0 0.12499973E+03</rscale>
<asrwt>0</asrwt>
<pdfrwt beam="1">  1        4 0.34059827E-02 0.12499973E+03</pdfrwt>
<pdfrwt beam="2">  1       -4 0.27144949E-01 0.12499973E+03</pdfrwt>
<totfact> 0.90375843E+03</totfact>
</mgrwt>
</event>
<event>
 5    1  0.3271306E-002  0.1250006E+03  0.7818608E-02  0.1235068E+00
          4   -1    0    0  501    0  0.00000000000E+00  0.00000000000E+00  0.13367583574E+03  0.13368186848E+03  0.12700000000E+01 0. -1.
         -4   -1    0    0    0  501 -0.00000000000E+00 -0.00000000000E+00 -0.29201582975E+02  0.29229186582E+02  0.12700000000E+01 0. -1.
         25    2    1    2    0    0  0.00000000000E+00  0.00000000000E+00  0.10447425276E+03  0.16291105506E+03  0.12500056948E+03 0.  0.
    9000005    1    3    3    0    0 -0.29527821163E+02  0.55071957007E+02  0.51340868185E+02  0.80880760488E+02  0.10000000000E+01 0.  0.
    9000005    1    3    3    0    0  0.29527821163E+02 -0.55071957007E+02  0.53133384580E+02  0.82030294576E+02  0.10000000000E+01 0.  0.
<mgrwt>
<rscale>  0 0.12500057E+03</rscale>
<asrwt>0</asrwt>
<pdfrwt beam="1">  1        4 0.20568100E-01 0.12500057E+03</pdfrwt>
<pdfrwt beam="2">  1       -4 0.44951387E-02 0.12500057E+03</pdfrwt>
<totfact> 0.96783236E+03</totfact>
</mgrwt>
</event>
<event>
 5    1  0.3271306E-002  0.1250017E+03  0.7818608E-02  0.1235067E+00
          4   -1    0    0  501    0  0.00000000000E+00  0.00000000000E+00  0.11068561524E+02  0.11141182801E+02  0.12700000000E+01 0. -1.
         -4   -1    0    0    0  501 -0.00000000000E+00 -0.00000000000E+00 -0.35169556209E+03  0.35169785511E+03  0.12700000000E+01 0. -1.
         25    2    1    2    0    0  0.00000000000E+00  0.00000000000E+00 -0.34062700056E+03  0.36283903791E+03  0.12500165568E+03 0.  0.
    9000005    1    3    3    0    0  0.27416942741E+01  0.62079209732E+01 -0.35063703671E+03  0.35070412984E+03  0.10000000000E+01 0.  0.
    9000005    1    3    3    0    0 -0.27416942741E+01 -0.62079209732E+01  0.10010036150E+02  0.12134908077E+02  0.10000000000E+01 0.  0.
<mgrwt>
<rscale>  0 0.12500166E+03</rscale>
<asrwt>0</asrwt>
<pdfrwt beam="1">  1        4 0.17086185E-02 0.12500166E+03</pdfrwt>
<pdfrwt beam="2">  1       -4 0.54112764E-01 0.12500166E+03</pdfrwt>
<totfact> 0.68332323E+03</totfact>
</mgrwt>
</event>
<event>
 5    1  0.3271306E-002  0.1249999E+03  0.7818608E-02  0.1235069E+00
          4   -1    0    0  501    0  0.00000000000E+00  0.00000000000E+00  0.75682909812E+01  0.76741076599E+01  0.12700000000E+01 0. -1.
         -4   -1    0    0    0  501 -0.00000000000E+00 -0.00000000000E+00 -0.51244309629E+03  0.51244467003E+03  0.12700000000E+01 0. -1.
         25    2    1    2    0    0  0.00000000000E+00  0.00000000000E+00 -0.50487480531E+03  0.52011877769E+03  0.12499989545E+03 0.  0.
    9000005    1    3    3    0    0  0.11500139496E+02 -0.53940516733E+02 -0.37470226128E+03  0.37874083112E+03  0.10000000000E+01 0.  0.
    9000005    1    3    3    0    0 -0.11500139496E+02  0.53940516733E+02 -0.13017254403E+03  0.14137794656E+03  0.10000000000E+01 0.  0.
<mgrwt>
<rscale>  0 0.12499990E+03</rscale>
<asrwt>0</asrwt>
<pdfrwt beam="1">  1        4 0.11726137E-02 0.12499990E+03</pdfrwt>
<pdfrwt beam="2">  1       -4 0.78845633E-01 0.12499990E+03</pdfrwt>
<totfact> 0.54336637E+03</totfact>
</mgrwt>
</event>
<event>
 5    1  0.3271306E-002  0.1250016E+03  0.7818608E-02  0.1235067E+00
          4   -1    0    0  501    0  0.00000000000E+00  0.00000000000E+00  0.48329303182E+02  0.48345986866E+02  0.12700000000E+01 0.  1.
         -4   -1    0    0    0  501 -0.00000000000E+00 -0.00000000000E+00 -0.80792167582E+02  0.80802148750E+02  0.12700000000E+01 0.  1.
         25    2    1    2    0    0  0.00000000000E+00  0.00000000000E+00 -0.32462864401E+02  0.12914813562E+03  0.12500161346E+03 0.  0.
    9000005    1    3    3    0    0 -0.10997294929E+02 -0.22137051704E+02 -0.75531902179E+02  0.79479920739E+02  0.10000000000E+01 0.  0.
    9000005    1    3    3    0    0  0.10997294929E+02  0.22137051704E+02  0.43069037778E+02  0.49668214877E+02  0.10000000000E+01 0.  0.
<mgrwt>
<rscale>  0 0.12500161E+03</rscale>
<asrwt>0</asrwt>
<pdfrwt beam="1">  1        4 0.74373286E-02 0.12500161E+03</pdfrwt>
<pdfrwt beam="2">  1       -4 0.12431615E-01 0.12500161E+03</pdfrwt>
<totfact> 0.10362387E+04</totfact>
</mgrwt>
</event>
<event>
 5    1  0.3271306E-002  0.1249936E+03  0.7818608E-02  0.1235079E+00
         -4   -1    0    0    0  501 -0.00000000000E+00  0.00000000000E+00  0.65014156070E+01  0.66242965585E+01  0.12700000000E+01 0.  1.
          4   -1    0    0  501    0  0.00000000000E+00 -0.00000000000E+00 -0.59502154643E+03  0.59502290175E+03  0.12700000000E+01 0.  1.
         25    2    1    2    0    0  0.00000000000E+00  0.00000000000E+00 -0.58852013082E+03  0.60164719831E+03  0.12499362727E+03 0.  0.
    9000005    1    3    3    0    0  0.13518635198E+02  0.45168815572E+02 -0.96858289747E+02  0.10772884335E+03  0.10000000000E+01 0.  0.
    9000005    1    3    3    0    0 -0.13518635198E+02 -0.45168815572E+02 -0.49166184107E+03  0.49391835496E+03  0.10000000000E+01 0.  0.
<mgrwt>
<rscale>  0 0.12499363E+03</rscale>
<asrwt>0</asrwt>
<pdfrwt beam="2">  1        4 0.91551291E-01 0.12499363E+03</pdfrwt>
<pdfrwt beam="1">  1       -4 0.10097749E-02 0.12499363E+03</pdfrwt>
<totfact> 0.48770630E+03</totfact>
</mgrwt>
</event>
<event>
 5    1  0.3271306E-002  0.1250015E+03  0.7818608E-02  0.1235067E+00
          4   -1    0    0  501    0  0.00000000000E+00  0.00000000000E+00  0.15492020297E+04  0.15492025502E+04  0.12700000000E+01 0. -1.
         -4   -1    0    0    0  501 -0.00000000000E+00 -0.00000000000E+00 -0.23610518954E+01  0.26809449925E+01  0.12700000000E+01 0. -1.
         25    2    1    2    0    0  0.00000000000E+00  0.00000000000E+00  0.15468409778E+04  0.15518834952E+04  0.12500148886E+03 0.  0.
    9000005    1    3    3    0    0 -0.21336221282E+02 -0.17572886037E+02  0.14692435226E+04  0.14695038514E+04  0.10000000000E+01 0.  0.
    9000005    1    3    3    0    0  0.21336221282E+02  0.17572886037E+02  0.77597455231E+02  0.82379643848E+02  0.10000000000E+01 0.  0.
<mgrwt>
<rscale>  0 0.12500149E+03</rscale>
<asrwt>0</asrwt>
<pdfrwt beam="1">  1        4 0.23836376E+00 0.12500149E+03</pdfrwt>
<pdfrwt beam="2">  1       -4 0.38788540E-03 0.12500149E+03</pdfrwt>
<totfact> 0.16932193E+03</totfact>
</mgrwt>
</event>
<event>
 5    1  0.3271306E-002  0.1249981E+03  0.7818608E-02  0.1235072E+00
         -4   -1    0    0    0  501 -0.00000000000E+00  0.00000000000E+00  0.15680701314E+03  0.15681215600E+03  0.12700000000E+01 0. -1.
          4   -1    0    0  501    0  0.00000000000E+00 -0.00000000000E+00 -0.24888699432E+02  0.24921080623E+02  0.12700000000E+01 0. -1.
         25    2    1    2    0    0  0.00000000000E+00  0.00000000000E+00  0.13191831371E+03  0.18173323663E+03  0.12499811120E+03 0.  0.
    9000005    1    3    3    0    0  0.24425261214E+02 -0.46725195339E+02  0.17187889103E+02  0.55464049588E+02  0.10000000000E+01 0.  0.
    9000005    1    3    3    0    0 -0.24425261214E+02  0.46725195339E+02  0.11473042461E+03  0.12626918704E+03  0.10000000000E+01 0.  0.
<mgrwt>
<rscale>  0 0.12499811E+03</rscale>
<asrwt>0</asrwt>
<pdfrwt beam="2">  1        4 0.38319171E-02 0.12499811E+03</pdfrwt>
<pdfrwt beam="1">  1       -4 0.24127042E-01 0.12499811E+03</pdfrwt>
<totfact> 0.93309893E+03</totfact>
</mgrwt>
</event>
<event>
 5    1  0.3271306E-002  0.1250006E+03  0.7818608E-02  0.1235068E+00
          4   -1    0    0  501    0  0.00000000000E+00  0.00000000000E+00  0.29879987280E+03  0.29880257175E+03  0.12700000000E+01 0.  1.
         -4   -1    0    0    0  501 -0.00000000000E+00 -0.00000000000E+00 -0.13039639277E+02  0.13101339339E+02  0.12700000000E+01 0.  1.
         25    2    1    2    0    0  0.00000000000E+00  0.00000000000E+00  0.28576023352E+03  0.31190391109E+03  0.12500055476E+03 0.  0.
    9000005    1    3    3    0    0  0.91678984912E+01  0.57544503120E+02  0.19922263513E+03  0.20757186358E+03  0.10000000000E+01 0.  0.
    9000005    1    3    3    0    0 -0.91678984912E+01 -0.57544503120E+02  0.86537598391E+02  0.10433204751E+03  0.10000000000E+01 0.  0.
<mgrwt>
<rscale>  0 0.12500055E+03</rscale>
<asrwt>0</asrwt>
<pdfrwt beam="1">  1        4 0.45974164E-01 0.12500055E+03</pdfrwt>
<pdfrwt beam="2">  1       -4 0.20110521E-02 0.12500055E+03</pdfrwt>
<totfact> 0.74128577E+03</totfact>
</mgrwt>
</event>
<event>
 5    1  0.3271306E-002  0.1250026E+03  0.7818608E-02  0.1235065E+00
         -4   -1    0    0    0  501 -0.00000000000E+00  0.00000000000E+00  0.98692608714E+02  0.98700779707E+02  0.12700000000E+01 0. -1.
          4   -1    0    0  501    0  0.00000000000E+00 -0.00000000000E+00 -0.39561609805E+02  0.39581989217E+02  0.12700000000E+01 0. -1.
         25    2    1    2    0    0  0.00000000000E+00  0.00000000000E+00  0.59130998909E+02  0.13828276892E+03  0.12500259657E+03 0.  0.
    9000005    1    3    3    0    0  0.14272098501E+02  0.11041291396E+02 -0.36622458657E+02  0.40838797600E+02  0.10000000000E+01 0.  0.
    9000005    1    3    3    0    0 -0.14272098501E+02 -0.11041291396E+02  0.95753457567E+02  0.97443971324E+02  0.10000000000E+01 0.  0.
<mgrwt>
<rscale>  0 0.12500260E+03</rscale>
<asrwt>0</asrwt>
<pdfrwt beam="2">  1        4 0.60885978E-02 0.12500260E+03</pdfrwt>
<pdfrwt beam="1">  1       -4 0.15185674E-01 0.12500260E+03</pdfrwt>
<totfact> 0.10168706E+04</totfact>
</mgrwt>
</event>
<event>
 5    1  0.3271306E-002  0.1250021E+03  0.7818608E-02  0.1235066E+00
          4   -1    0    0  501    0  0.00000000000E+00  0.00000000000E+00  0.19558401302E+03  0.19558813627E+03  0.12700000000E+01 0.  1.
         -4   -1    0    0    0  501 -0.00000000000E+00 -0.00000000000E+00 -0.19948390924E+02  0.19988776862E+02  0.12700000000E+01 0.  1.
         25    2    1    2    0    0  0.00000000000E+00  0.00000000000E+00  0.17563562210E+03  0.21557691313E+03  0.12500213488E+03 0.  0.
    9000005    1    3    3    0    0 -0.38362084288E+02 -0.44360110589E+02  0.12504308788E+03  0.13811677215E+03  0.10000000000E+01 0.  0.
    9000005    1    3    3    0    0  0.38362084288E+02  0.44360110589E+02  0.50592534218E+02  0.77460140983E+02  0.10000000000E+01 0.  0.
<mgrwt>
<rscale>  0 0.12500213E+03</rscale>
<asrwt>0</asrwt>
<pdfrwt beam="1">  1        4 0.30093273E-01 0.12500213E+03</pdfrwt>
<pdfrwt beam="2">  1       -4 0.30724069E-02 0.12500213E+03</pdfrwt>
<totfact> 0.87568941E+03</totfact>
</mgrwt>
</event>
<event>
 5    1  0.3271306E-002  0.1249967E+03  0.7818608E-02  0.1235074E+00
         -4   -1    0    0    0  501 -0.00000000000E+00  0.00000000000E+00  0.92441982836E+03  0.92442070074E+03  0.12700000000E+01 0. -1.
          4   -1    0    0  501    0  0.00000000000E+00 -0.00000000000E+00 -0.41290777662E+01  0.43199749073E+01  0.12700000000E+01 0. -1.
         25    2    1    2    0    0  0.00000000000E+00  0.00000000000E+00  0.92029075059E+03  0.92874067565E+03  0.12499670788E+03 0.  0.
    9000005    1    3    3    0    0  0.52455704859E+02 -0.50586787217E+01  0.70967502071E+03  0.71162969741E+03  0.10000000000E+01 0.  0.
    9000005    1    3    3    0    0 -0.52455704859E+02  0.50586787217E+01  0.21061572988E+03  0.21711097825E+03  0.10000000000E+01 0.  0.
<mgrwt>
<rscale>  0 0.12499671E+03</rscale>
<asrwt>0</asrwt>
<pdfrwt beam="2">  1        4 0.64999393E-03 0.12499671E+03</pdfrwt>
<pdfrwt beam="1">  1       -4 0.14223325E+00 0.12499671E+03</pdfrwt>
<totfact> 0.33085347E+03</totfact>
</mgrwt>
</event>
<event>
 5    1  0.3271306E-002  0.1250313E+03  0.7818608E-02  0.1235020E+00
         -4   -1    0    0    0  501 -0.00000000000E+00  0.00000000000E+00  0.86218694467E+02  0.86228047500E+02  0.12700000000E+01 0. -1.
          4   -1    0    0  501    0  0.00000000000E+00 -0.00000000000E+00 -0.45308283158E+02  0.45326078836E+02  0.12700000000E+01 0. -1.
         25    2    1    2    0    0  0.00000000000E+00  0.00000000000E+00  0.40910411310E+02  0.13155412634E+03  0.12503130169E+03 0.  0.
    9000005    1    3    3    0    0  0.51606605037E+01  0.31387376585E+02  0.77071379387E+02  0.83383435683E+02  0.10000000000E+01 0.  0.
    9000005    1    3    3    0    0 -0.51606605037E+01 -0.31387376585E+02 -0.36160968077E+02  0.48170690653E+02  0.10000000000E+01 0.  0.
<mgrwt>
<rscale>  0 0.12503130E+03</rscale>
<asrwt>0</asrwt>
<pdfrwt beam="2">  1        4 0.69725935E-02 0.12503130E+03</pdfrwt>
<pdfrwt beam="1">  1       -4 0.13266503E-01 0.12503130E+03</pdfrwt>
<totfact> 0.10303946E+04</totfact>
</mgrwt>
</event>
<event>
 5    1  0.3271306E-002  0.1249977E+03  0.7818608E-02  0.1235073E+00
         -4   -1    0    0    0  501 -0.00000000000E+00  0.00000000000E+00  0.28722546682E+01  0.31405010554E+01  0.12700000000E+01 0.  1.
          4   -1    0    0  501    0  0.00000000000E+00 -0.00000000000E+00 -0.12990039563E+04  0.12990045771E+04  0.12700000000E+01 0.  1.
         25    2    1    2    0    0  0.00000000000E+00  0.00000000000E+00 -0.12961317016E+04  0.13021450782E+04  0.12499766656E+03 0.  0.
    9000005    1    3    3    0    0 -0.49629157334E+00  0.53738874265E+02 -0.98027843231E+03  0.98175094488E+03  0.10000000000E+01 0.  0.
    9000005    1    3    3    0    0  0.49629157334E+00 -0.53738874265E+02 -0.31585326932E+03  0.32039413330E+03  0.10000000000E+01 0.  0.
<mgrwt>
<rscale>  0 0.12499767E+03</rscale>
<asrwt>0</asrwt>
<pdfrwt beam="2">  1        4 0.19986700E+00 0.12499767E+03</pdfrwt>
<pdfrwt beam="1">  1       -4 0.46256846E-03 0.12499767E+03</pdfrwt>
<totfact> 0.22179141E+03</totfact>
</mgrwt>
</event>
<event>
 5    1  0.3271306E-002  0.1250010E+03  0.7818608E-02  0.1235068E+00
         -4   -1    0    0    0  501 -0.00000000000E+00  0.00000000000E+00  0.13116730330E+03  0.13117345141E+03  0.12700000000E+01 0.  1.
          4   -1    0    0  501    0  0.00000000000E+00 -0.00000000000E+00 -0.29760777772E+02  0.29787863193E+02  0.12700000000E+01 0.  1.
         25    2    1    2    0    0  0.00000000000E+00  0.00000000000E+00  0.10140652552E+03  0.16096131460E+03  0.12500104551E+03 0.  0.
    9000005    1    3    3    0    0 -0.41409517142E+02 -0.43706488211E+02  0.29144330111E+02  0.66898409542E+02  0.10000000000E+01 0.  0.
    9000005    1    3    3    0    0  0.41409517142E+02  0.43706488211E+02  0.72262195413E+02  0.94062905056E+02  0.10000000000E+01 0.  0.
<mgrwt>
<rscale>  0 0.12500105E+03</rscale>
<asrwt>0</asrwt>
<pdfrwt beam="2">  1        4 0.45811376E-02 0.12500105E+03</pdfrwt>
<pdfrwt beam="1">  1       -4 0.20182142E-01 0.12500105E+03</pdfrwt>
<totfact> 0.97155488E+03</totfact>
</mgrwt>
</event>
<event>
 5    1  0.3271306E-002  0.1250024E+03  0.7818608E-02  0.1235066E+00
         -4   -1    0    0    0  501 -0.00000000000E+00  0.00000000000E+00  0.48528613419E+02  0.48545228605E+02  0.12700000000E+01 0. -1.
          4   -1    0    0  501    0  0.00000000000E+00 -0.00000000000E+00 -0.80461411629E+02  0.80471433821E+02  0.12700000000E+01 0. -1.
         25    2    1    2    0    0  0.00000000000E+00  0.00000000000E+00 -0.31932798210E+02  0.12901666243E+03  0.12500238231E+03 0.  0.
    9000005    1    3    3    0    0  0.18425930360E+02 -0.50279797747E+02 -0.49216255227E+02  0.72737973231E+02  0.10000000000E+01 0.  0.
    9000005    1    3    3    0    0 -0.18425930360E+02  0.50279797747E+02  0.17283457017E+02  0.56278689196E+02  0.10000000000E+01 0.  0.
<mgrwt>
<rscale>  0 0.12500238E+03</rscale>
<asrwt>0</asrwt>
<pdfrwt beam="2">  1        4 0.12380728E-01 0.12500238E+03</pdfrwt>
<pdfrwt beam="1">  1       -4 0.74679895E-02 0.12500238E+03</pdfrwt>
<totfact> 0.10365031E+04</totfact>
</mgrwt>
</event>
<event>
 5    1  0.3271306E-002  0.1250014E+03  0.7818608E-02  0.1235067E+00
         -4   -1    0    0    0  501 -0.00000000000E+00  0.00000000000E+00  0.42693985017E+03  0.42694173907E+03  0.12700000000E+01 0. -1.
          4   -1    0    0  501    0  0.00000000000E+00 -0.00000000000E+00 -0.91036260198E+01  0.91917847401E+01  0.12700000000E+01 0. -1.
         25    2    1    2    0    0  0.00000000000E+00  0.00000000000E+00  0.41783622415E+03  0.43613352381E+03  0.12500136152E+03 0.  0.
    9000005    1    3    3    0    0  0.40466367541E+01 -0.44084054645E+02  0.36281384902E+03  0.36550604398E+03  0.10000000000E+01 0.  0.
    9000005    1    3    3    0    0 -0.40466367541E+01  0.44084054645E+02  0.55022375125E+02  0.70627479832E+02  0.10000000000E+01 0.  0.
<mgrwt>
<rscale>  0 0.12500136E+03</rscale>
<asrwt>0</asrwt>
<pdfrwt beam="2">  1        4 0.14074851E-02 0.12500136E+03</pdfrwt>
<pdfrwt beam="1">  1       -4 0.65689959E-01 0.12500136E+03</pdfrwt>
<totfact> 0.61182108E+03</totfact>
</mgrwt>
</event>
<event>
 5    1  0.3271306E-002  0.1250011E+03  0.7818608E-02  0.1235067E+00
         -4   -1    0    0    0  501 -0.00000000000E+00  0.00000000000E+00  0.25811210013E+03  0.25811522453E+03  0.12700000000E+01 0. -1.
          4   -1    0    0  501    0  0.00000000000E+00 -0.00000000000E+00 -0.15104340282E+02  0.15157638185E+02  0.12700000000E+01 0. -1.
         25    2    1    2    0    0  0.00000000000E+00  0.00000000000E+00  0.24300775985E+03  0.27327286272E+03  0.12500114459E+03 0.  0.
    9000005    1    3    3    0    0  0.40004795661E+02 -0.14060560936E+02  0.22185895995E+03  0.22587713731E+03  0.10000000000E+01 0.  0.
    9000005    1    3    3    0    0 -0.40004795661E+02  0.14060560936E+02  0.21148799904E+02  0.47395725409E+02  0.10000000000E+01 0.  0.
<mgrwt>
<rscale>  0 0.12500114E+03</rscale>
<asrwt>0</asrwt>
<pdfrwt beam="2">  1        4 0.23280851E-02 0.12500114E+03</pdfrwt>
<pdfrwt beam="1">  1       -4 0.39713890E-01 0.12500114E+03</pdfrwt>
<totfact> 0.79076603E+03</totfact>
</mgrwt>
</event>
<event>
 5    1  0.3271306E-002  0.1249982E+03  0.7818608E-02  0.1235072E+00
         -4   -1    0    0    0  501 -0.00000000000E+00  0.00000000000E+00  0.40621356787E+02  0.40641204795E+02  0.12700000000E+01 0. -1.
          4   -1    0    0  501    0  0.00000000000E+00 -0.00000000000E+00 -0.96112162159E+02  0.96120552510E+02  0.12700000000E+01 0. -1.
         25    2    1    2    0    0  0.00000000000E+00  0.00000000000E+00 -0.55490805372E+02  0.13676175731E+03  0.12499819511E+03 0.  0.
    9000005    1    3    3    0    0 -0.22584904049E+02 -0.26220615766E+02  0.29185524903E+02  0.45281270365E+02  0.10000000000E+01 0.  0.
    9000005    1    3    3    0    0  0.22584904049E+02  0.26220615766E+02 -0.84676330275E+02  0.91480486940E+02  0.10000000000E+01 0.  0.
<mgrwt>
<rscale>  0 0.12499820E+03</rscale>
<asrwt>0</asrwt>
<pdfrwt beam="2">  1        4 0.14788659E-01 0.12499820E+03</pdfrwt>
<pdfrwt beam="1">  1       -4 0.62516117E-02 0.12499820E+03</pdfrwt>
<totfact> 0.10201485E+04</totfact>
</mgrwt>
</event>
<event>
 5    1  0.3271306E-002  0.1250012E+03  0.7818608E-02  0.1235067E+00
          4   -1    0    0  501    0  0.00000000000E+00  0.00000000000E+00  0.24623045955E+03  0.24623373471E+03  0.12700000000E+01 0.  1.
         -4   -1    0    0    0  501 -0.00000000000E+00 -0.00000000000E+00 -0.15835694493E+02  0.15886538958E+02  0.12700000000E+01 0.  1.
         25    2    1    2    0    0  0.00000000000E+00  0.00000000000E+00  0.23039476506E+03  0.26212027367E+03  0.12500116041E+03 0.  0.
    9000005    1    3    3    0    0 -0.29741405687E+02  0.12870486989E+01 -0.22222729718E-01  0.29786040361E+02  0.10000000000E+01 0.  0.
    9000005    1    3    3    0    0  0.29741405687E+02 -0.12870486989E+01  0.23041698779E+03  0.23233423331E+03  0.10000000000E+01 0.  0.
<mgrwt>
<rscale>  0 0.12500116E+03</rscale>
<asrwt>0</asrwt>
<pdfrwt beam="1">  1        4 0.37885771E-01 0.12500116E+03</pdfrwt>
<pdfrwt beam="2">  1       -4 0.24404238E-02 0.12500116E+03</pdfrwt>
<totfact> 0.80607346E+03</totfact>
</mgrwt>
</event>
<event>
 5    1  0.3271306E-002  0.1249943E+03  0.7818608E-02  0.1235078E+00
         -4   -1    0    0    0  501 -0.00000000000E+00  0.00000000000E+00  0.71315286029E+02  0.71326593368E+02  0.12700000000E+01 0. -1.
          4   -1    0    0  501    0  0.00000000000E+00 -0.00000000000E+00 -0.54746392050E+02  0.54761120720E+02  0.12700000000E+01 0. -1.
         25    2    1    2    0    0  0.00000000000E+00  0.00000000000E+00  0.16568893979E+02  0.12608771409E+03  0.12499433346E+03 0.  0.
    9000005    1    3    3    0    0  0.47090998010E+01 -0.60857487181E+02  0.21783827811E+02  0.64817779359E+02  0.10000000000E+01 0.  0.
    9000005    1    3    3    0    0 -0.47090998010E+01  0.60857487181E+02 -0.52149338320E+01  0.61269934729E+02  0.10000000000E+01 0.  0.
<mgrwt>
<rscale>  0 0.12499433E+03</rscale>
<asrwt>0</asrwt>
<pdfrwt beam="2">  1        4 0.84245246E-02 0.12499433E+03</pdfrwt>
<pdfrwt beam="1">  1       -4 0.10973585E-01 0.12499433E+03</pdfrwt>
<totfact> 0.10430369E+04</totfact>
</mgrwt>
</event>
<event>
 5    1  0.3271306E-002  0.1249996E+03  0.7818608E-02  0.1235070E+00
          4   -1    0    0  501    0  0.00000000000E+00  0.00000000000E+00  0.79797112096E+02  0.79807217712E+02  0.12700000000E+01 0. -1.
         -4   -1    0    0    0  501 -0.00000000000E+00 -0.00000000000E+00 -0.48930497412E+02  0.48946976179E+02  0.12700000000E+01 0. -1.
         25    2    1    2    0    0  0.00000000000E+00  0.00000000000E+00  0.30866614684E+02  0.12875419389E+03  0.12499957817E+03 0.  0.
    9000005    1    3    3    0    0 -0.21652190148E+02 -0.47907797026E+02  0.50230410872E+02  0.72719107052E+02  0.10000000000E+01 0.  0.
    9000005    1    3    3    0    0  0.21652190148E+02  0.47907797026E+02 -0.19363796188E+02  0.56035086838E+02  0.10000000000E+01 0.  0.
<mgrwt>
<rscale>  0 0.12499958E+03</rscale>
<asrwt>0</asrwt>
<pdfrwt beam="1">  1        4 0.12278524E-01 0.12499958E+03</pdfrwt>
<pdfrwt beam="2">  1       -4 0.75298139E-02 0.12499958E+03</pdfrwt>
<totfact> 0.10371331E+04</totfact>
</mgrwt>
</event>
<event>
 5    1  0.3271306E-002  0.1249804E+03  0.7818608E-02  0.1235100E+00
         -4   -1    0    0    0  501 -0.00000000000E+00  0.00000000000E+00  0.41782233140E+02  0.41801529950E+02  0.12700000000E+01 0.  1.
          4   -1    0    0  501    0  0.00000000000E+00 -0.00000000000E+00 -0.93416222604E+02  0.93424855074E+02  0.12700000000E+01 0.  1.
         25    2    1    2    0    0  0.00000000000E+00  0.00000000000E+00 -0.51633989465E+02  0.13522638502E+03  0.12498042382E+03 0.  0.
    9000005    1    3    3    0    0 -0.44740266553E+02 -0.34191910552E+01 -0.72863173682E+02  0.85577008581E+02  0.10000000000E+01 0.  0.
    9000005    1    3    3    0    0  0.44740266553E+02  0.34191910552E+01  0.21229184217E+02  0.49649376443E+02  0.10000000000E+01 0.  0.
<mgrwt>
<rscale>  0 0.12498042E+03</rscale>
<asrwt>0</asrwt>
<pdfrwt beam="2">  1        4 0.14373875E-01 0.12498042E+03</pdfrwt>
<pdfrwt beam="1">  1       -4 0.64301843E-02 0.12498042E+03</pdfrwt>
<totfact> 0.10237821E+04</totfact>
</mgrwt>
</event>
<event>
 5    1  0.3271306E-002  0.1249939E+03  0.7818608E-02  0.1235079E+00
          4   -1    0    0  501    0  0.00000000000E+00  0.00000000000E+00  0.36805682735E+03  0.36805901845E+03  0.12700000000E+01 0. -1.
         -4   -1    0    0    0  501 -0.00000000000E+00 -0.00000000000E+00 -0.10571905285E+02  0.10647914414E+02  0.12700000000E+01 0. -1.
         25    2    1    2    0    0  0.00000000000E+00  0.00000000000E+00  0.35748492207E+03  0.37870693286E+03  0.12499388582E+03 0.  0.
    9000005    1    3    3    0    0 -0.30872070605E+02  0.53863198324E+02  0.20028157285E+03  0.20968556770E+03  0.10000000000E+01 0.  0.
    9000005    1    3    3    0    0  0.30872070605E+02 -0.53863198324E+02  0.15720334922E+03  0.16902136517E+03  0.10000000000E+01 0.  0.
<mgrwt>
<rscale>  0 0.12499389E+03</rscale>
<asrwt>0</asrwt>
<pdfrwt beam="1">  1        4 0.56630133E-01 0.12499389E+03</pdfrwt>
<pdfrwt beam="2">  1       -4 0.16324626E-02 0.12499389E+03</pdfrwt>
<totfact> 0.66686775E+03</totfact>
</mgrwt>
</event>
<event>
 5    1  0.3271306E-002  0.1250030E+03  0.7818608E-02  0.1235065E+00
          4   -1    0    0  501    0  0.00000000000E+00  0.00000000000E+00  0.54242154204E+01  0.55709077291E+01  0.12700000000E+01 0.  1.
         -4   -1    0    0    0  501 -0.00000000000E+00 -0.00000000000E+00 -0.71042895661E+03  0.71043009177E+03  0.12700000000E+01 0.  1.
         25    2    1    2    0    0  0.00000000000E+00  0.00000000000E+00 -0.70500474119E+03  0.71600099950E+03  0.12500298469E+03 0.  0.
    9000005    1    3    3    0    0  0.11279010895E+02  0.60310055569E+02 -0.42049720977E+03  0.42495108226E+03  0.10000000000E+01 0.  0.
    9000005    1    3    3    0    0 -0.11279010895E+02 -0.60310055569E+02 -0.28450753142E+03  0.29104991724E+03  0.10000000000E+01 0.  0.
<mgrwt>
<rscale>  0 0.12500298E+03</rscale>
<asrwt>0</asrwt>
<pdfrwt beam="1">  1        4 0.84586659E-03 0.12500298E+03</pdfrwt>
<pdfrwt beam="2">  1       -4 0.10930806E+00 0.12500298E+03</pdfrwt>
<totfact> 0.42252639E+03</totfact>
</mgrwt>
</event>
<event>
 5    1  0.3271306E-002  0.1249981E+03  0.7818608E-02  0.1235072E+00
         -4   -1    0    0    0  501 -0.00000000000E+00  0.00000000000E+00  0.99935884673E+01  0.10073962004E+02  0.12700000000E+01 0.  1.
          4   -1    0    0  501    0  0.00000000000E+00 -0.00000000000E+00 -0.38921693105E+03  0.38921900303E+03  0.12700000000E+01 0.  1.
         25    2    1    2    0    0  0.00000000000E+00  0.00000000000E+00 -0.37922334259E+03  0.39929296503E+03  0.12499811343E+03 0.  0.
    9000005    1    3    3    0    0 -0.41690528061E+02 -0.45048421246E+02 -0.15213072527E+03  0.16404943755E+03  0.10000000000E+01 0.  0.
    9000005    1    3    3    0    0  0.41690528061E+02  0.45048421246E+02 -0.22709261731E+03  0.23524352749E+03  0.10000000000E+01 0.  0.
<mgrwt>
<rscale>  0 0.12499811E+03</rscale>
<asrwt>0</asrwt>
<pdfrwt beam="2">  1        4 0.59885858E-01 0.12499811E+03</pdfrwt>
<pdfrwt beam="1">  1       -4 0.15438174E-02 0.12499811E+03</pdfrwt>
<totfact> 0.64624310E+03</totfact>
</mgrwt>
</event>
<event>
 5    1  0.3271306E-002  0.1249973E+03  0.7818608E-02  0.1235073E+00
          4   -1    0    0  501    0  0.00000000000E+00  0.00000000000E+00  0.33820225310E+01  0.36126135138E+01  0.12700000000E+01 0. -1.
         -4   -1    0    0    0  501 -0.00000000000E+00 -0.00000000000E+00 -0.11166489749E+04  0.11166496971E+04  0.12700000000E+01 0. -1.
         25    2    1    2    0    0  0.00000000000E+00  0.00000000000E+00 -0.11132669524E+04  0.11202623106E+04  0.12499734940E+03 0.  0.
    9000005    1    3    3    0    0  0.57866750590E+02  0.22677776229E+02 -0.49838412965E+03  0.50224554060E+03  0.10000000000E+01 0.  0.
    9000005    1    3    3    0    0 -0.57866750590E+02 -0.22677776229E+02 -0.61488282271E+03  0.61801677001E+03  0.10000000000E+01 0.  0.
<mgrwt>
<rscale>  0 0.12499735E+03</rscale>
<asrwt>0</asrwt>
<pdfrwt beam="1">  1        4 0.53810537E-03 0.12499735E+03</pdfrwt>
<pdfrwt beam="2">  1       -4 0.17180966E+00 0.12499735E+03</pdfrwt>
<totfact> 0.26899423E+03</totfact>
</mgrwt>
</event>
<event>
 5    1  0.3271306E-002  0.1249973E+03  0.7818608E-02  0.1235073E+00
         -4   -1    0    0    0  501 -0.00000000000E+00  0.00000000000E+00  0.92858720943E+02  0.92867405235E+02  0.12700000000E+01 0. -1.
          4   -1    0    0  501    0  0.00000000000E+00 -0.00000000000E+00 -0.42044560112E+02  0.42063736580E+02  0.12700000000E+01 0. -1.
         25    2    1    2    0    0  0.00000000000E+00  0.00000000000E+00  0.50814160830E+02  0.13493114181E+03  0.12499733633E+03 0.  0.
    9000005    1    3    3    0    0 -0.52424424103E+01  0.57340601735E+02 -0.80555531948E+00  0.57594068524E+02  0.10000000000E+01 0.  0.
    9000005    1    3    3    0    0  0.52424424103E+01 -0.57340601735E+02  0.51619716150E+02  0.77337073291E+02  0.10000000000E+01 0.  0.
<mgrwt>
<rscale>  0 0.12499734E+03</rscale>
<asrwt>0</asrwt>
<pdfrwt beam="2">  1        4 0.64705371E-02 0.12499734E+03</pdfrwt>
<pdfrwt beam="1">  1       -4 0.14288100E-01 0.12499734E+03</pdfrwt>
<totfact> 0.10240138E+04</totfact>
</mgrwt>
</event>
<event>
 5    1  0.3271306E-002  0.1250004E+03  0.7818608E-02  0.1235069E+00
          4   -1    0    0  501    0  0.00000000000E+00  0.00000000000E+00  0.94886861928E+02  0.94895360617E+02  0.12700000000E+01 0.  1.
         -4   -1    0    0    0  501 -0.00000000000E+00 -0.00000000000E+00 -0.41147576142E+02  0.41167170444E+02  0.12700000000E+01 0.  1.
         25    2    1    2    0    0  0.00000000000E+00  0.00000000000E+00  0.53739285786E+02  0.13606253106E+03  0.12500040609E+03 0.  0.
    9000005    1    3    3    0    0  0.25643140823E+02 -0.29693245219E+02 -0.26076697916E+02  0.47119567667E+02  0.10000000000E+01 0.  0.
    9000005    1    3    3    0    0 -0.25643140823E+02  0.29693245219E+02  0.79815983702E+02  0.88942963394E+02  0.10000000000E+01 0.  0.
<mgrwt>
<rscale>  0 0.12500041E+03</rscale>
<asrwt>0</asrwt>
<pdfrwt beam="1">  1        4 0.14600140E-01 0.12500041E+03</pdfrwt>
<pdfrwt beam="2">  1       -4 0.63325574E-02 0.12500041E+03</pdfrwt>
<totfact> 0.10215630E+04</totfact>
</mgrwt>
</event>
<event>
 5    1  0.3271306E-002  0.1249940E+03  0.7818608E-02  0.1235079E+00
          4   -1    0    0  501    0  0.00000000000E+00  0.00000000000E+00  0.58946781973E+02  0.58960461370E+02  0.12700000000E+01 0. -1.
         -4   -1    0    0    0  501 -0.00000000000E+00 -0.00000000000E+00 -0.66233616808E+02  0.66245791531E+02  0.12700000000E+01 0. -1.
         25    2    1    2    0    0  0.00000000000E+00  0.00000000000E+00 -0.72868348356E+01  0.12520625290E+03  0.12499403107E+03 0.  0.
    9000005    1    3    3    0    0  0.46523026046E+02 -0.24377877728E+02 -0.37556535209E+02  0.64576824108E+02  0.10000000000E+01 0.  0.
    9000005    1    3    3    0    0 -0.46523026046E+02  0.24377877728E+02  0.30269700373E+02  0.60629428792E+02  0.10000000000E+01 0.  0.
<mgrwt>
<rscale>  0 0.12499403E+03</rscale>
<asrwt>0</asrwt>
<pdfrwt beam="1">  1        4 0.90707245E-02 0.12499403E+03</pdfrwt>
<pdfrwt beam="2">  1       -4 0.10191776E-01 0.12499403E+03</pdfrwt>
<totfact> 0.10449794E+04</totfact>
</mgrwt>
</event>
<event>
 5    1  0.3271306E-002  0.1249919E+03  0.7818608E-02  0.1235082E+00
         -4   -1    0    0    0  501 -0.00000000000E+00  0.00000000000E+00  0.26032283582E+03  0.26032593369E+03  0.12700000000E+01 0. -1.
          4   -1    0    0  501    0  0.00000000000E+00 -0.00000000000E+00 -0.14973400064E+02  0.15027162390E+02  0.12700000000E+01 0. -1.
         25    2    1    2    0    0  0.00000000000E+00  0.00000000000E+00  0.24534943576E+03  0.27535309608E+03  0.12499192731E+03 0.  0.
    9000005    1    3    3    0    0 -0.51767889022E+02 -0.27169745612E+02  0.74077641329E+02  0.94374818438E+02  0.10000000000E+01 0.  0.
    9000005    1    3    3    0    0  0.51767889022E+02  0.27169745612E+02  0.17127179443E+03  0.18097827764E+03  0.10000000000E+01 0.  0.
<mgrwt>
<rscale>  0 0.12499193E+03</rscale>
<asrwt>0</asrwt>
<pdfrwt beam="2">  1        4 0.23079739E-02 0.12499193E+03</pdfrwt>
<pdfrwt beam="1">  1       -4 0.40054041E-01 0.12499193E+03</pdfrwt>
<totfact> 0.78812457E+03</totfact>
</mgrwt>
</event>
<event>
 5    1  0.3271306E-002  0.1250015E+03  0.7818608E-02  0.1235067E+00
         -4   -1    0    0    0  501 -0.00000000000E+00  0.00000000000E+00  0.43282031175E+02  0.43300659609E+02  0.12700000000E+01 0. -1.
          4   -1    0    0  501    0  0.00000000000E+00 -0.00000000000E+00 -0.90210772066E+02  0.90219711243E+02  0.12700000000E+01 0. -1.
         25    2    1    2    0    0  0.00000000000E+00  0.00000000000E+00 -0.46928740892E+02  0.13352037085E+03  0.12500153083E+03 0.  0.
    9000005    1    3    3    0    0  0.50534779425E+02 -0.36723720300E+02 -0.25299013416E+02  0.67405012010E+02  0.10000000000E+01 0.  0.
    9000005    1    3    3    0    0 -0.50534779425E+02  0.36723720300E+02 -0.21629727476E+02  0.66115358843E+02  0.10000000000E+01 0.  0.
<mgrwt>
<rscale>  0 0.12500153E+03</rscale>
<asrwt>0</asrwt>
<pdfrwt beam="2">  1        4 0.13880701E-01 0.12500153E+03</pdfrwt>
<pdfrwt beam="1">  1       -4 0.66608946E-02 0.12500153E+03</pdfrwt>
<totfact> 0.10268998E+04</totfact>
</mgrwt>
</event>
<event>
 5    1  0.3271306E-002  0.1250051E+03  0.7818608E-02  0.1235061E+00
          4   -1    0    0  501    0  0.00000000000E+00  0.00000000000E+00  0.76013507445E+01  0.77067135110E+01  0.12700000000E+01 0.  1.
         -4   -1    0    0    0  501 -0.00000000000E+00 -0.00000000000E+00 -0.51028720273E+03  0.51028878311E+03  0.12700000000E+01 0.  1.
         25    2    1    2    0    0  0.00000000000E+00  0.00000000000E+00 -0.50268585198E+03  0.51799549662E+03  0.12500507484E+03 0.  0.
    9000005    1    3    3    0    0 -0.56644760599E+02  0.18290754587E+02 -0.33022610258E+03  0.33554948880E+03  0.10000000000E+01 0.  0.
    9000005    1    3    3    0    0  0.56644760599E+02 -0.18290754587E+02 -0.17245974940E+03  0.18244600782E+03  0.10000000000E+01 0.  0.
<mgrwt>
<rscale>  0 0.12500507E+03</rscale>
<asrwt>0</asrwt>
<pdfrwt beam="1">  1        4 0.11776654E-02 0.12500507E+03</pdfrwt>
<pdfrwt beam="2">  1       -4 0.78513923E-01 0.12500507E+03</pdfrwt>
<totfact> 0.54488613E+03</totfact>
</mgrwt>
</event>
<event>
 5    1  0.3271306E-002  0.1250006E+03  0.7818608E-02  0.1235068E+00
         -4   -1    0    0    0  501 -0.00000000000E+00  0.00000000000E+00  0.29216692483E+03  0.29216968506E+03  0.12700000000E+01 0. -1.
          4   -1    0    0  501    0  0.00000000000E+00 -0.00000000000E+00 -0.13337056278E+02  0.13397386692E+02  0.12700000000E+01 0. -1.
         25    2    1    2    0    0  0.00000000000E+00  0.00000000000E+00  0.27882986855E+03  0.30556707175E+03  0.12500055895E+03 0.  0.
    9000005    1    3    3    0    0  0.38277213988E+02  0.46073672472E+02  0.95866924063E+02  0.11304598858E+03  0.10000000000E+01 0.  0.
    9000005    1    3    3    0    0 -0.38277213988E+02 -0.46073672472E+02  0.18296294449E+03  0.19252108316E+03  0.10000000000E+01 0.  0.
<mgrwt>
<rscale>  0 0.12500056E+03</rscale>
<asrwt>0</asrwt>
<pdfrwt beam="2">  1        4 0.20567079E-02 0.12500056E+03</pdfrwt>
<pdfrwt beam="1">  1       -4 0.44953611E-01 0.12500056E+03</pdfrwt>
<totfact> 0.74904849E+03</totfact>
</mgrwt>
</event>
<event>
 5    1  0.3271306E-002  0.1250013E+03  0.7818608E-02  0.1235067E+00
         -4   -1    0    0    0  501 -0.00000000000E+00  0.00000000000E+00  0.10433291625E+02  0.10510303237E+02  0.12700000000E+01 0.  1.
          4   -1    0    0  501    0  0.00000000000E+00 -0.00000000000E+00 -0.37295567472E+03  0.37295783703E+03  0.12700000000E+01 0.  1.
         25    2    1    2    0    0  0.00000000000E+00  0.00000000000E+00 -0.36252238309E+03  0.38346814027E+03  0.12500134543E+03 0.  0.
    9000005    1    3    3    0    0  0.18885448100E+02 -0.34246492478E+02 -0.31732592831E+02  0.50373007105E+02  0.10000000000E+01 0.  0.
    9000005    1    3    3    0    0 -0.18885448100E+02  0.34246492478E+02 -0.33078979026E+03  0.33309513316E+03  0.10000000000E+01 0.  0.
<mgrwt>
<rscale>  0 0.12500135E+03</rscale>
<asrwt>0</asrwt>
<pdfrwt beam="2">  1        4 0.57383876E-01 0.12500135E+03</pdfrwt>
<pdfrwt beam="1">  1       -4 0.16112124E-02 0.12500135E+03</pdfrwt>
<totfact> 0.66191094E+03</totfact>
</mgrwt>
</event>
<event>
 5    1  0.3271306E-002  0.1249967E+03  0.7818608E-02  0.1235074E+00
         -4   -1    0    0    0  501 -0.00000000000E+00  0.00000000000E+00  0.46508755275E+03  0.46508928672E+03  0.12700000000E+01 0. -1.
          4   -1    0    0  501    0  0.00000000000E+00 -0.00000000000E+00 -0.83487433430E+01  0.84447862854E+01  0.12700000000E+01 0. -1.
         25    2    1    2    0    0  0.00000000000E+00  0.00000000000E+00  0.45673880941E+03  0.47353407301E+03  0.12499671308E+03 0.  0.
    9000005    1    3    3    0    0 -0.50449278413E+02 -0.35188381706E+02  0.27016060569E+03  0.27707599096E+03  0.10000000000E+01 0.  0.
    9000005    1    3    3    0    0  0.50449278413E+02  0.35188381706E+02  0.18657820372E+03  0.19645808205E+03  0.10000000000E+01 0.  0.
<mgrwt>
<rscale>  0 0.12499671E+03</rscale>
<asrwt>0</asrwt>
<pdfrwt beam="2">  1        4 0.12919434E-02 0.12499671E+03</pdfrwt>
<pdfrwt beam="1">  1       -4 0.71559453E-01 0.12499671E+03</pdfrwt>
<totfact> 0.57982097E+03</totfact>
</mgrwt>
</event>
<event>
 5    1  0.3271306E-002  0.1250017E+03  0.7818608E-02  0.1235067E+00
         -4   -1    0    0    0  501 -0.00000000000E+00  0.00000000000E+00  0.72429350803E+02  0.72440484246E+02  0.12700000000E+01 0. -1.
          4   -1    0    0  501    0  0.00000000000E+00 -0.00000000000E+00 -0.53910567048E+02  0.53925524008E+02  0.12700000000E+01 0. -1.
         25    2    1    2    0    0  0.00000000000E+00  0.00000000000E+00  0.18518783754E+02  0.12636600825E+03  0.12500169075E+03 0.  0.
    9000005    1    3    3    0    0 -0.30945207708E+02 -0.51061996811E+02  0.27911304144E+02  0.65916419027E+02  0.10000000000E+01 0.  0.
    9000005    1    3    3    0    0  0.30945207708E+02  0.51061996811E+02 -0.93925203891E+01  0.60449589226E+02  0.10000000000E+01 0.  0.
<mgrwt>
<rscale>  0 0.12500169E+03</rscale>
<asrwt>0</asrwt>
<pdfrwt beam="2">  1        4 0.82959404E-02 0.12500169E+03</pdfrwt>
<pdfrwt beam="1">  1       -4 0.11144984E-01 0.12500169E+03</pdfrwt>
<totfact> 0.10422554E+04</totfact>
</mgrwt>
</event>
<event>
 5    1  0.3271306E-002  0.1249953E+03  0.7818608E-02  0.1235077E+00
         -4   -1    0    0    0  501 -0.00000000000E+00  0.00000000000E+00  0.17847582125E+02  0.17892710463E+02  0.12700000000E+01 0.  1.
          4   -1    0    0  501    0  0.00000000000E+00 -0.00000000000E+00 -0.21852750479E+03  0.21853119514E+03  0.12700000000E+01 0.  1.
         25    2    1    2    0    0  0.00000000000E+00  0.00000000000E+00 -0.20067992266E+03  0.23642390560E+03  0.12499532703E+03 0.  0.
    9000005    1    3    3    0    0  0.50790559937E+02  0.32282164127E+02 -0.68512841541E+02  0.91196647721E+02  0.10000000000E+01 0.  0.
    9000005    1    3    3    0    0 -0.50790559937E+02 -0.32282164127E+02 -0.13216708112E+03  0.14522725788E+03  0.10000000000E+01 0.  0.
<mgrwt>
<rscale>  0 0.12499533E+03</rscale>
<asrwt>0</asrwt>
<pdfrwt beam="2">  1        4 0.33623369E-01 0.12499533E+03</pdfrwt>
<pdfrwt beam="1">  1       -4 0.27495373E-02 0.12499533E+03</pdfrwt>
<totfact> 0.84341652E+03</totfact>
</mgrwt>
</event>
<event>
 5    1  0.3271306E-002  0.1250475E+03  0.7818608E-02  0.1234995E+00
         -4   -1    0    0    0  501 -0.00000000000E+00  0.00000000000E+00  0.56594261285E+02  0.56608509170E+02  0.12700000000E+01 0.  1.
          4   -1    0    0  501    0  0.00000000000E+00 -0.00000000000E+00 -0.69045652381E+02  0.69057331346E+02  0.12700000000E+01 0.  1.
         25    2    1    2    0    0  0.00000000000E+00  0.00000000000E+00 -0.12451391095E+02  0.12566584052E+03  0.12504745632E+03 0.  0.
    9000005    1    3    3    0    0  0.21284432889E+02 -0.58777436193E+02 -0.68632572326E+01  0.62896091999E+02  0.10000000000E+01 0.  0.
    9000005    1    3    3    0    0 -0.21284432889E+02  0.58777436193E+02 -0.55881338629E+01  0.62769748517E+02  0.10000000000E+01 0.  0.
<mgrwt>
<rscale>  0 0.12504746E+03</rscale>
<asrwt>0</asrwt>
<pdfrwt beam="2">  1        4 0.10624402E-01 0.12504746E+03</pdfrwt>
<pdfrwt beam="1">  1       -4 0.87088038E-02 0.12504746E+03</pdfrwt>
<totfact> 0.10427129E+04</totfact>
</mgrwt>
</event>
<event>
 5    1  0.3271306E-002  0.1249954E+03  0.7818608E-02  0.1235077E+00
          4   -1    0    0  501    0  0.00000000000E+00  0.00000000000E+00  0.17757756581E+03  0.17758210715E+03  0.12700000000E+01 0. -1.
         -4   -1    0    0    0  501 -0.00000000000E+00 -0.00000000000E+00 -0.21972642458E+02  0.22009314314E+02  0.12700000000E+01 0. -1.
         25    2    1    2    0    0  0.00000000000E+00  0.00000000000E+00  0.15560492335E+03  0.19959142146E+03  0.12499537331E+03 0.  0.
    9000005    1    3    3    0    0  0.57671099056E+02 -0.23279244640E+02  0.68078815277E+02  0.92214987864E+02  0.10000000000E+01 0.  0.
    9000005    1    3    3    0    0 -0.57671099056E+02  0.23279244640E+02  0.87526108075E+02  0.10737643360E+03  0.10000000000E+01 0.  0.
<mgrwt>
<rscale>  0 0.12499537E+03</rscale>
<asrwt>0</asrwt>
<pdfrwt beam="1">  1        4 0.27322795E-01 0.12499537E+03</pdfrwt>
<pdfrwt beam="2">  1       -4 0.33835768E-02 0.12499537E+03</pdfrwt>
<totfact> 0.90213802E+03</totfact>
</mgrwt>
</event>
<event>
 5    1  0.3271306E-002  0.1249971E+03  0.7818608E-02  0.1235074E+00
         -4   -1    0    0    0  501 -0.00000000000E+00  0.00000000000E+00  0.71134567918E+02  0.71145903978E+02  0.12700000000E+01 0.  1.
          4   -1    0    0  501    0  0.00000000000E+00 -0.00000000000E+00 -0.54887919751E+02  0.54902610454E+02  0.12700000000E+01 0.  1.
         25    2    1    2    0    0  0.00000000000E+00  0.00000000000E+00  0.16246648167E+02  0.12604851443E+03  0.12499709762E+03 0.  0.
    9000005    1    3    3    0    0  0.61909636612E+02  0.79780692318E+01  0.11083301265E+02  0.63405774666E+02  0.10000000000E+01 0.  0.
    9000005    1    3    3    0    0 -0.61909636612E+02 -0.79780692318E+01  0.51633469023E+01  0.62642739766E+02  0.10000000000E+01 0.  0.
<mgrwt>
<rscale>  0 0.12499710E+03</rscale>
<asrwt>0</asrwt>
<pdfrwt beam="2">  1        4 0.84462974E-02 0.12499710E+03</pdfrwt>
<pdfrwt beam="1">  1       -4 0.10945782E-01 0.12499710E+03</pdfrwt>
<totfact> 0.10430577E+04</totfact>
</mgrwt>
</event>
<event>
 5    1  0.3271306E-002  0.1250009E+03  0.7818608E-02  0.1235068E+00
          4   -1    0    0  501    0  0.00000000000E+00  0.00000000000E+00  0.59312046601E+02  0.59325641775E+02  0.12700000000E+01 0.  1.
         -4   -1    0    0    0  501 -0.00000000000E+00 -0.00000000000E+00 -0.65833004930E+02  0.65845253725E+02  0.12700000000E+01 0.  1.
         25    2    1    2    0    0  0.00000000000E+00  0.00000000000E+00 -0.65209583290E+01  0.12517089550E+03  0.12500092073E+03 0.  0.
    9000005    1    3    3    0    0 -0.21855902500E+02  0.47157566652E+02  0.31482390699E+02  0.60775467837E+02  0.10000000000E+01 0.  0.
    9000005    1    3    3    0    0  0.21855902500E+02 -0.47157566652E+02 -0.38003349028E+02  0.64395427663E+02  0.10000000000E+01 0.  0.
<mgrwt>
<rscale>  0 0.12500092E+03</rscale>
<asrwt>0</asrwt>
<pdfrwt beam="1">  1        4 0.91269182E-02 0.12500092E+03</pdfrwt>
<pdfrwt beam="2">  1       -4 0.10130143E-01 0.12500092E+03</pdfrwt>
<totfact> 0.10448935E+04</totfact>
</mgrwt>
</event>
<event>
 5    1  0.3271306E-002  0.1250019E+03  0.7818608E-02  0.1235066E+00
          4   -1    0    0  501    0  0.00000000000E+00  0.00000000000E+00  0.73034434796E+01  0.74130416604E+01  0.12700000000E+01 0.  1.
         -4   -1    0    0    0  501 -0.00000000000E+00 -0.00000000000E+00 -0.53077321701E+03  0.53077473639E+03  0.12700000000E+01 0.  1.
         25    2    1    2    0    0  0.00000000000E+00  0.00000000000E+00 -0.52346977353E+03  0.53818777806E+03  0.12500192258E+03 0.  0.
    9000005    1    3    3    0    0  0.14880793478E+02  0.36125202405E+00 -0.52305043863E+03  0.52326315547E+03  0.10000000000E+01 0.  0.
    9000005    1    3    3    0    0 -0.14880793478E+02 -0.36125202405E+00 -0.41933489710E+00  0.14924622586E+02  0.10000000000E+01 0.  0.
<mgrwt>
<rscale>  0 0.12500192E+03</rscale>
<asrwt>0</asrwt>
<pdfrwt beam="1">  1        4 0.11321546E-02 0.12500192E+03</pdfrwt>
<pdfrwt beam="2">  1       -4 0.81665935E-01 0.12500192E+03</pdfrwt>
<totfact> 0.53016377E+03</totfact>
</mgrwt>
</event>
<event>
 5    1  0.3271306E-002  0.1250035E+03  0.7818608E-02  0.1235064E+00
         -4   -1    0    0    0  501 -0.00000000000E+00  0.00000000000E+00  0.22540359679E+02  0.22576109374E+02  0.12700000000E+01 0.  1.
          4   -1    0    0  501    0  0.00000000000E+00 -0.00000000000E+00 -0.17313465227E+03  0.17313931014E+03  0.12700000000E+01 0.  1.
         25    2    1    2    0    0  0.00000000000E+00  0.00000000000E+00 -0.15059429259E+03  0.19571541952E+03  0.12500353785E+03 0.  0.
    9000005    1    3    3    0    0  0.37989758320E+02 -0.36481158682E+02 -0.22634106885E+02  0.57335848040E+02  0.10000000000E+01 0.  0.
    9000005    1    3    3    0    0 -0.37989758320E+02  0.36481158682E+02 -0.12796018571E+03  0.13837957148E+03  0.10000000000E+01 0.  0.
<mgrwt>
<rscale>  0 0.12500354E+03</rscale>
<asrwt>0</asrwt>
<pdfrwt beam="2">  1        4 0.26639208E-01 0.12500354E+03</pdfrwt>
<pdfrwt beam="1">  1       -4 0.34708560E-02 0.12500354E+03</pdfrwt>
<totfact> 0.90855055E+03</totfact>
</mgrwt>
</event>
<event>
 5    1  0.3271306E-002  0.1249996E+03  0.7818608E-02  0.1235070E+00
         -4   -1    0    0    0  501 -0.00000000000E+00  0.00000000000E+00  0.29175513074E+03  0.29175789486E+03  0.12700000000E+01 0.  1.
          4   -1    0    0  501    0  0.00000000000E+00 -0.00000000000E+00 -0.13355759702E+02  0.13416006009E+02  0.12700000000E+01 0.  1.
         25    2    1    2    0    0  0.00000000000E+00  0.00000000000E+00  0.27839937104E+03  0.30517390087E+03  0.12499959991E+03 0.  0.
    9000005    1    3    3    0    0 -0.70809933648E+01 -0.33827648343E+01 -0.12159993841E+02  0.14506860969E+02  0.10000000000E+01 0.  0.
    9000005    1    3    3    0    0  0.70809933648E+01  0.33827648343E+01  0.29055936488E+03  0.29066703990E+03  0.10000000000E+01 0.  0.
<mgrwt>
<rscale>  0 0.12499960E+03</rscale>
<asrwt>0</asrwt>
<pdfrwt beam="2">  1        4 0.20595793E-02 0.12499960E+03</pdfrwt>
<pdfrwt beam="1">  1       -4 0.44890250E-01 0.12499960E+03</pdfrwt>
<totfact> 0.74955049E+03</totfact>
</mgrwt>
</event>
