<event>
 5    1  0.1451195E-002  0.1249971E+03  0.7818608E-02  0.1235074E+00
         -4   -1    0    0    0  501 -0.00000000000E+00  0.00000000000E+00  0.25077629380E+03  0.25077950960E+03  0.12700000000E+01 0. -1.
          4   -1    0    0  501    0  0.00000000000E+00 -0.00000000000E+00 -0.15546697809E+02  0.15598484310E+02  0.12700000000E+01 0. -1.
         25    2    1    2    0    0  0.00000000000E+00  0.00000000000E+00  0.23522959599E+03  0.26637799391E+03  0.12499709119E+03 0.  0.
    9000005    1    3    3    0    0 -0.73305930890E+01 -0.26396139575E+02 -0.20782223332E+01  0.27492049534E+02  0.10000000000E+01 0.  0.
    9000005    1    3    3    0    0  0.73305930890E+01  0.26396139575E+02  0.23730781833E+03  0.23888594437E+03  0.10000000000E+01 0.  0.
<mgrwt>
<rscale>  0 0.12499709E+03</rscale>
<asrwt>0</asrwt>
<pdfrwt beam="2">  1        4 0.38935497E-02 0.12499709E+03</pdfrwt>
<pdfrwt beam="1">  1       -4 0.62700949E-01 0.12499709E+03</pdfrwt>
<totfact> 0.13969545E+03</totfact>
</mgrwt>
</event>
<event>
 5    1  0.1451195E-002  0.1249967E+03  0.7818608E-02  0.1235075E+00
         -4   -1    0    0    0  501 -0.00000000000E+00  0.00000000000E+00  0.15693909819E+03  0.15694423672E+03  0.12700000000E+01 0. -1.
          4   -1    0    0  501    0  0.00000000000E+00 -0.00000000000E+00 -0.24867146474E+02  0.24899555694E+02  0.12700000000E+01 0. -1.
         25    2    1    2    0    0  0.00000000000E+00  0.00000000000E+00  0.13207195171E+03  0.18184379241E+03  0.12499665760E+03 0.  0.
    9000005    1    3    3    0    0  0.50421649691E+02  0.13752218408E+02  0.11587338696E+03  0.12711848046E+03  0.10000000000E+01 0.  0.
    9000005    1    3    3    0    0 -0.50421649691E+02 -0.13752218408E+02  0.16198564755E+02  0.54725311957E+02  0.10000000000E+01 0.  0.
<mgrwt>
<rscale>  0 0.12499666E+03</rscale>
<asrwt>0</asrwt>
<pdfrwt beam="2">  1        4 0.62214801E-02 0.12499666E+03</pdfrwt>
<pdfrwt beam="1">  1       -4 0.39239468E-01 0.12499666E+03</pdfrwt>
<totfact> 0.17077027E+03</totfact>
</mgrwt>
</event>
<event>
 5    1  0.1451195E-002  0.1249684E+03  0.7818608E-02  0.1235119E+00
         -4   -1    0    0    0  501 -0.00000000000E+00  0.00000000000E+00  0.39587729425E+02  0.39608095397E+02  0.12700000000E+01 0. -1.
          4   -1    0    0  501    0  0.00000000000E+00 -0.00000000000E+00 -0.98573570743E+02  0.98581751603E+02  0.12700000000E+01 0. -1.
         25    2    1    2    0    0  0.00000000000E+00  0.00000000000E+00 -0.58985841318E+02  0.13818984700E+03  0.12496841336E+03 0.  0.
    9000005    1    3    3    0    0 -0.59653963156E+02  0.35948857519E+01 -0.93516764776E+01  0.60497705549E+02  0.10000000000E+01 0.  0.
    9000005    1    3    3    0    0  0.59653963156E+02 -0.35948857519E+01 -0.49634164841E+02  0.77692141451E+02  0.10000000000E+01 0.  0.
<mgrwt>
<rscale>  0 0.12496841E+03</rscale>
<asrwt>0</asrwt>
<pdfrwt beam="2">  1        4 0.24646961E-01 0.12496841E+03</pdfrwt>
<pdfrwt beam="1">  1       -4 0.99005009E-02 0.12496841E+03</pdfrwt>
<totfact> 0.19147435E+03</totfact>
</mgrwt>
</event>
<event>
 5    1  0.1451195E-002  0.1250057E+03  0.7818608E-02  0.1235060E+00
         -4   -1    0    0    0  501 -0.00000000000E+00  0.00000000000E+00  0.33246888874E+02  0.33271136437E+02  0.12700000000E+01 0.  1.
          4   -1    0    0  501    0  0.00000000000E+00 -0.00000000000E+00 -0.11743239305E+03  0.11743926021E+03  0.12700000000E+01 0.  1.
         25    2    1    2    0    0  0.00000000000E+00  0.00000000000E+00 -0.84185504177E+02  0.15071039664E+03  0.12500569804E+03 0.  0.
    9000005    1    3    3    0    0 -0.45786398203E+02  0.40031265456E+02 -0.24758951706E+02  0.65672689636E+02  0.10000000000E+01 0.  0.
    9000005    1    3    3    0    0  0.45786398203E+02 -0.40031265456E+02 -0.59426552471E+02  0.85037707007E+02  0.10000000000E+01 0.  0.
<mgrwt>
<rscale>  0 0.12500570E+03</rscale>
<asrwt>0</asrwt>
<pdfrwt beam="2">  1        4 0.29361987E-01 0.12500570E+03</pdfrwt>
<pdfrwt beam="1">  1       -4 0.83156118E-02 0.12500570E+03</pdfrwt>
<totfact> 0.18501453E+03</totfact>
</mgrwt>
</event>
<event>
 5    1  0.1451195E-002  0.1250013E+03  0.7818608E-02  0.1235067E+00
          4   -1    0    0  501    0  0.00000000000E+00  0.00000000000E+00  0.53976832986E+02  0.53991771588E+02  0.12700000000E+01 0.  1.
         -4   -1    0    0    0  501 -0.00000000000E+00 -0.00000000000E+00 -0.72340023539E+02  0.72351170727E+02  0.12700000000E+01 0.  1.
         25    2    1    2    0    0  0.00000000000E+00  0.00000000000E+00 -0.18363190552E+02  0.12634294232E+03  0.12500132922E+03 0.  0.
    9000005    1    3    3    0    0  0.89195342653E+01 -0.60675432823E+02 -0.21321621087E+02  0.64935951256E+02  0.10000000000E+01 0.  0.
    9000005    1    3    3    0    0 -0.89195342653E+01  0.60675432823E+02  0.29584305350E+01  0.61406991059E+02  0.10000000000E+01 0.  0.
<mgrwt>
<rscale>  0 0.12500133E+03</rscale>
<asrwt>0</asrwt>
<pdfrwt beam="1">  1        4 0.13497469E-01 0.12500133E+03</pdfrwt>
<pdfrwt beam="2">  1       -4 0.18088267E-01 0.12500133E+03</pdfrwt>
<totfact> 0.19761785E+03</totfact>
</mgrwt>
</event>
<event>
 5    1  0.1451195E-002  0.1250023E+03  0.7818608E-02  0.1235066E+00
         -4   -1    0    0    0  501 -0.00000000000E+00  0.00000000000E+00  0.85966709998E+02  0.85976090443E+02  0.12700000000E+01 0. -1.
          4   -1    0    0  501    0  0.00000000000E+00 -0.00000000000E+00 -0.45420025643E+02  0.45437777558E+02  0.12700000000E+01 0. -1.
         25    2    1    2    0    0  0.00000000000E+00  0.00000000000E+00  0.40546684356E+02  0.13141386800E+03  0.12500228434E+03 0.  0.
    9000005    1    3    3    0    0  0.58016852202E+02 -0.27874912816E+01 -0.39672550748E+01  0.58227694097E+02  0.10000000000E+01 0.  0.
    9000005    1    3    3    0    0 -0.58016852202E+02  0.27874912816E+01  0.44513939430E+02  0.73186173904E+02  0.10000000000E+01 0.  0.
<mgrwt>
<rscale>  0 0.12500228E+03</rscale>
<asrwt>0</asrwt>
<pdfrwt beam="2">  1        4 0.11358398E-01 0.12500228E+03</pdfrwt>
<pdfrwt beam="1">  1       -4 0.21495069E-01 0.12500228E+03</pdfrwt>
<totfact> 0.19487633E+03</totfact>
</mgrwt>
</event>
<event>
 5    1  0.1451195E-002  0.1250019E+03  0.7818608E-02  0.1235066E+00
         -4   -1    0    0    0  501 -0.00000000000E+00  0.00000000000E+00  0.17884863541E+02  0.17929898045E+02  0.12700000000E+01 0. -1.
          4   -1    0    0  501    0  0.00000000000E+00 -0.00000000000E+00 -0.21809621025E+03  0.21809990789E+03  0.12700000000E+01 0. -1.
         25    2    1    2    0    0  0.00000000000E+00  0.00000000000E+00 -0.20021134670E+03  0.23602980594E+03  0.12500194375E+03 0.  0.
    9000005    1    3    3    0    0  0.32878024419E+02 -0.41065984880E+02 -0.36408572652E+02  0.63984089948E+02  0.10000000000E+01 0.  0.
    9000005    1    3    3    0    0 -0.32878024419E+02  0.41065984880E+02 -0.16380277405E+03  0.17204571599E+03  0.10000000000E+01 0.  0.
<mgrwt>
<rscale>  0 0.12500194E+03</rscale>
<asrwt>0</asrwt>
<pdfrwt beam="2">  1        4 0.54530136E-01 0.12500194E+03</pdfrwt>
<pdfrwt beam="1">  1       -4 0.44773081E-02 0.12500194E+03</pdfrwt>
<totfact> 0.14973551E+03</totfact>
</mgrwt>
</event>
<event>
 5    1  0.1451195E-002  0.1250007E+03  0.7818608E-02  0.1235068E+00
          4   -1    0    0  501    0  0.00000000000E+00  0.00000000000E+00  0.19120221934E+02  0.19162353373E+02  0.12700000000E+01 0. -1.
         -4   -1    0    0    0  501 -0.00000000000E+00 -0.00000000000E+00 -0.20403259428E+03  0.20403654680E+03  0.12700000000E+01 0. -1.
         25    2    1    2    0    0  0.00000000000E+00  0.00000000000E+00 -0.18491237235E+03  0.22319890017E+03  0.12500065436E+03 0.  0.
    9000005    1    3    3    0    0 -0.18961408880E+02  0.12522826732E+02 -0.19640304333E+03  0.19771573444E+03  0.10000000000E+01 0.  0.
    9000005    1    3    3    0    0  0.18961408880E+02 -0.12522826732E+02  0.11490670982E+02  0.25483165731E+02  0.10000000000E+01 0.  0.
<mgrwt>
<rscale>  0 0.12500065E+03</rscale>
<asrwt>0</asrwt>
<pdfrwt beam="1">  1        4 0.47858166E-02 0.12500065E+03</pdfrwt>
<pdfrwt beam="2">  1       -4 0.51013902E-01 0.12500065E+03</pdfrwt>
<totfact> 0.15433181E+03</totfact>
</mgrwt>
</event>
<event>
 5    1  0.1451195E-002  0.1249990E+03  0.7818608E-02  0.1235071E+00
         -4   -1    0    0    0  501 -0.00000000000E+00  0.00000000000E+00  0.15907245493E+03  0.15907752456E+03  0.12700000000E+01 0.  1.
          4   -1    0    0  501    0  0.00000000000E+00 -0.00000000000E+00 -0.24534149336E+02  0.24566997855E+02  0.12700000000E+01 0.  1.
         25    2    1    2    0    0  0.00000000000E+00  0.00000000000E+00  0.13453830560E+03  0.18364452241E+03  0.12499901975E+03 0.  0.
    9000005    1    3    3    0    0 -0.28947280997E+02  0.11570791422E+02  0.14684001931E+03  0.15011602034E+03  0.10000000000E+01 0.  0.
    9000005    1    3    3    0    0  0.28947280997E+02 -0.11570791422E+02 -0.12301713709E+02  0.33528502075E+02  0.10000000000E+01 0.  0.
<mgrwt>
<rscale>  0 0.12499902E+03</rscale>
<asrwt>0</asrwt>
<pdfrwt beam="2">  1        4 0.61382771E-02 0.12499902E+03</pdfrwt>
<pdfrwt beam="1">  1       -4 0.39772853E-01 0.12499902E+03</pdfrwt>
<totfact> 0.16998973E+03</totfact>
</mgrwt>
</event>
<event>
 5    1  0.1451195E-002  0.1250023E+03  0.7818608E-02  0.1235066E+00
         -4   -1    0    0    0  501 -0.00000000000E+00  0.00000000000E+00  0.88060822197E+01  0.88971896721E+01  0.12700000000E+01 0. -1.
          4   -1    0    0  501    0  0.00000000000E+00 -0.00000000000E+00 -0.44122681257E+03  0.44122864032E+03  0.12700000000E+01 0. -1.
         25    2    1    2    0    0  0.00000000000E+00  0.00000000000E+00 -0.43242073035E+03  0.45012582999E+03  0.12500229910E+03 0.  0.
    9000005    1    3    3    0    0 -0.42066948600E+01  0.59232911908E+02 -0.28632794861E+03  0.29242251673E+03  0.10000000000E+01 0.  0.
    9000005    1    3    3    0    0  0.42066948600E+01 -0.59232911908E+02 -0.14609278174E+03  0.15770331326E+03  0.10000000000E+01 0.  0.
<mgrwt>
<rscale>  0 0.12500230E+03</rscale>
<asrwt>0</asrwt>
<pdfrwt beam="2">  1        4 0.11031825E+00 0.12500230E+03</pdfrwt>
<pdfrwt beam="1">  1       -4 0.22131389E-02 0.12500230E+03</pdfrwt>
<totfact> 0.95989401E+02</totfact>
</mgrwt>
</event>
<event>
 5    1  0.1451195E-002  0.1250029E+03  0.7818608E-02  0.1235065E+00
         -4   -1    0    0    0  501 -0.00000000000E+00  0.00000000000E+00  0.73303805212E+02  0.73314805862E+02  0.12700000000E+01 0.  1.
          4   -1    0    0  501    0  0.00000000000E+00 -0.00000000000E+00 -0.53268409628E+02  0.53283546844E+02  0.12700000000E+01 0.  1.
         25    2    1    2    0    0  0.00000000000E+00  0.00000000000E+00  0.20035395584E+02  0.12659835271E+03  0.12500290329E+03 0.  0.
    9000005    1    3    3    0    0 -0.44335721041E+02 -0.29587330930E+02 -0.23023309366E+02  0.58070122145E+02  0.10000000000E+01 0.  0.
    9000005    1    3    3    0    0  0.44335721041E+02  0.29587330930E+02  0.43058704950E+02  0.68528230561E+02  0.10000000000E+01 0.  0.
<mgrwt>
<rscale>  0 0.12500290E+03</rscale>
<asrwt>0</asrwt>
<pdfrwt beam="2">  1        4 0.13320370E-01 0.12500290E+03</pdfrwt>
<pdfrwt beam="1">  1       -4 0.18329218E-01 0.12500290E+03</pdfrwt>
<totfact> 0.19747279E+03</totfact>
</mgrwt>
</event>
<event>
 5    1  0.1451195E-002  0.1250013E+03  0.7818608E-02  0.1235067E+00
         -4   -1    0    0    0  501 -0.00000000000E+00  0.00000000000E+00  0.21131729514E+03  0.21132111140E+03  0.12700000000E+01 0. -1.
          4   -1    0    0  501    0  0.00000000000E+00 -0.00000000000E+00 -0.18459827395E+02  0.18503462580E+02  0.12700000000E+01 0. -1.
         25    2    1    2    0    0  0.00000000000E+00  0.00000000000E+00  0.19285746774E+03  0.22982457398E+03  0.12500132776E+03 0.  0.
    9000005    1    3    3    0    0 -0.34976505087E+02  0.41974215885E+02  0.15219984931E+03  0.16171266134E+03  0.10000000000E+01 0.  0.
    9000005    1    3    3    0    0  0.34976505087E+02 -0.41974215885E+02  0.40657618430E+02  0.68111912642E+02  0.10000000000E+01 0.  0.
<mgrwt>
<rscale>  0 0.12500133E+03</rscale>
<asrwt>0</asrwt>
<pdfrwt beam="2">  1        4 0.46208883E-02 0.12500133E+03</pdfrwt>
<pdfrwt beam="1">  1       -4 0.52835255E-01 0.12500133E+03</pdfrwt>
<totfact> 0.15193117E+03</totfact>
</mgrwt>
</event>
<event>
 4    1  0.1451195E-002  0.1248407E+03  0.7818608E-02  0.1235318E+00
          4   -1    0    0  501    0  0.00000000000E+00  0.00000000000E+00  0.16821196142E+03  0.16821675560E+03  0.12700000000E+01 0.  1.
         -4   -1    0    0    0  501 -0.00000000000E+00 -0.00000000000E+00 -0.23140512107E+02  0.23175336040E+02  0.12700000000E+01 0.  1.
    9000005    1    1    2    0    0 -0.27807085061E+02 -0.53973273424E+02  0.94696892164E+02  0.11249377587E+03  0.10000000000E+01 0.  0.
    9000005    1    1    2    0    0  0.27807085061E+02  0.53973273424E+02  0.50374557153E+02  0.78898315775E+02  0.10000000000E+01 0.  0.
<mgrwt>
<rscale>  0 0.12484073E+03</rscale>
<asrwt>0</asrwt>
<pdfrwt beam="1">  1        4 0.42057942E-01 0.12484073E+03</pdfrwt>
<pdfrwt beam="2">  1       -4 0.57900804E-02 0.12484073E+03</pdfrwt>
<totfact> 0.16734226E+03</totfact>
</mgrwt>
</event>
<event>
 5    1  0.1451195E-002  0.1249939E+03  0.7818608E-02  0.1235079E+00
          4   -1    0    0  501    0  0.00000000000E+00  0.00000000000E+00  0.89464618230E+02  0.89473631954E+02  0.12700000000E+01 0. -1.
         -4   -1    0    0    0  501 -0.00000000000E+00 -0.00000000000E+00 -0.43637825754E+02  0.43656302369E+02  0.12700000000E+01 0. -1.
         25    2    1    2    0    0  0.00000000000E+00  0.00000000000E+00  0.45826792476E+02  0.13312993432E+03  0.12499393787E+03 0.  0.
    9000005    1    3    3    0    0  0.20011236588E+02  0.46412501977E+02 -0.16224915987E+02  0.53092540233E+02  0.10000000000E+01 0.  0.
    9000005    1    3    3    0    0 -0.20011236588E+02 -0.46412501977E+02  0.62051708463E+02  0.80037394090E+02  0.10000000000E+01 0.  0.
<mgrwt>
<rscale>  0 0.12499394E+03</rscale>
<asrwt>0</asrwt>
<pdfrwt beam="1">  1        4 0.22369591E-01 0.12499394E+03</pdfrwt>
<pdfrwt beam="2">  1       -4 0.10912893E-01 0.12499394E+03</pdfrwt>
<totfact> 0.19400287E+03</totfact>
</mgrwt>
</event>
<event>
 5    1  0.1451195E-002  0.1250047E+03  0.7818608E-02  0.1235062E+00
         -4   -1    0    0    0  501 -0.00000000000E+00  0.00000000000E+00  0.13331932746E+03  0.13332537634E+03  0.12700000000E+01 0. -1.
          4   -1    0    0  501    0  0.00000000000E+00 -0.00000000000E+00 -0.29281683686E+02  0.29309211854E+02  0.12700000000E+01 0. -1.
         25    2    1    2    0    0  0.00000000000E+00  0.00000000000E+00  0.10403764378E+03  0.16263458819E+03  0.12500471172E+03 0.  0.
    9000005    1    3    3    0    0 -0.17014246356E+02 -0.20265689007E+02 -0.21640048959E+02  0.34197579577E+02  0.10000000000E+01 0.  0.
    9000005    1    3    3    0    0  0.17014246356E+02  0.20265689007E+02  0.12567769274E+03  0.12843700861E+03  0.10000000000E+01 0.  0.
<mgrwt>
<rscale>  0 0.12500471E+03</rscale>
<asrwt>0</asrwt>
<pdfrwt beam="2">  1        4 0.73246182E-02 0.12500471E+03</pdfrwt>
<pdfrwt beam="1">  1       -4 0.33334028E-01 0.12500471E+03</pdfrwt>
<totfact> 0.17932504E+03</totfact>
</mgrwt>
</event>
<event>
 5    1  0.1451195E-002  0.1250009E+03  0.7818608E-02  0.1235068E+00
          4   -1    0    0  501    0  0.00000000000E+00  0.00000000000E+00  0.11175639064E+03  0.11176360655E+03  0.12700000000E+01 0.  1.
         -4   -1    0    0    0  501 -0.00000000000E+00 -0.00000000000E+00 -0.34933871732E+02  0.34956949155E+02  0.12700000000E+01 0.  1.
         25    2    1    2    0    0  0.00000000000E+00  0.00000000000E+00  0.76822518908E+02  0.14672055570E+03  0.12500088822E+03 0.  0.
    9000005    1    3    3    0    0  0.46676488539E+02  0.62877316329E+01 -0.97996257651E+01  0.48117177977E+02  0.10000000000E+01 0.  0.
    9000005    1    3    3    0    0 -0.46676488539E+02 -0.62877316329E+01  0.86622144673E+02  0.98603377727E+02  0.10000000000E+01 0.  0.
<mgrwt>
<rscale>  0 0.12500089E+03</rscale>
<asrwt>0</asrwt>
<pdfrwt beam="1">  1        4 0.27942884E-01 0.12500089E+03</pdfrwt>
<pdfrwt beam="2">  1       -4 0.87372546E-02 0.12500089E+03</pdfrwt>
<totfact> 0.18700829E+03</totfact>
</mgrwt>
</event>
<event>
 5    1  0.1451195E-002  0.1250030E+03  0.7818608E-02  0.1235065E+00
         -4   -1    0    0    0  501 -0.00000000000E+00  0.00000000000E+00  0.21680922831E+02  0.21718087273E+02  0.12700000000E+01 0.  1.
          4   -1    0    0  501    0  0.00000000000E+00 -0.00000000000E+00 -0.17998471838E+03  0.17998919898E+03  0.12700000000E+01 0.  1.
         25    2    1    2    0    0  0.00000000000E+00  0.00000000000E+00 -0.15830379555E+03  0.20170728625E+03  0.12500295054E+03 0.  0.
    9000005    1    3    3    0    0  0.18330013428E+02 -0.53268390613E+02 -0.35496877746E+02  0.66592335598E+02  0.10000000000E+01 0.  0.
    9000005    1    3    3    0    0 -0.18330013428E+02  0.53268390613E+02 -0.12280691780E+03  0.13511495066E+03  0.10000000000E+01 0.  0.
<mgrwt>
<rscale>  0 0.12500295E+03</rscale>
<asrwt>0</asrwt>
<pdfrwt beam="2">  1        4 0.45001381E-01 0.12500295E+03</pdfrwt>
<pdfrwt beam="1">  1       -4 0.54254369E-02 0.12500295E+03</pdfrwt>
<totfact> 0.16252798E+03</totfact>
</mgrwt>
</event>
<event>
 5    1  0.1451195E-002  0.1250009E+03  0.7818608E-02  0.1235068E+00
         -4   -1    0    0    0  501 -0.00000000000E+00  0.00000000000E+00  0.26231903438E+03  0.26232210867E+03  0.12700000000E+01 0.  1.
          4   -1    0    0  501    0  0.00000000000E+00 -0.00000000000E+00 -0.14861198391E+02  0.14915365152E+02  0.12700000000E+01 0.  1.
         25    2    1    2    0    0  0.00000000000E+00  0.00000000000E+00  0.24745783599E+03  0.27723747382E+03  0.12500094520E+03 0.  0.
    9000005    1    3    3    0    0 -0.50998863335E+02  0.35593048294E+02  0.11013636597E+03  0.12648623743E+03  0.10000000000E+01 0.  0.
    9000005    1    3    3    0    0  0.50998863335E+02 -0.35593048294E+02  0.13732147001E+03  0.15075123640E+03  0.10000000000E+01 0.  0.
<mgrwt>
<rscale>  0 0.12500095E+03</rscale>
<asrwt>0</asrwt>
<pdfrwt beam="2">  1        4 0.37224549E-02 0.12500095E+03</pdfrwt>
<pdfrwt beam="1">  1       -4 0.65586912E-01 0.12500095E+03</pdfrwt>
<totfact> 0.13633590E+03</totfact>
</mgrwt>
</event>
<event>
 5    1  0.1451195E-002  0.1249966E+03  0.7818608E-02  0.1235075E+00
         -4   -1    0    0    0  501 -0.00000000000E+00  0.00000000000E+00  0.37361854204E+03  0.37362070052E+03  0.12700000000E+01 0. -1.
          4   -1    0    0  501    0  0.00000000000E+00 -0.00000000000E+00 -0.10413844449E+02  0.10490998818E+02  0.12700000000E+01 0. -1.
         25    2    1    2    0    0  0.00000000000E+00  0.00000000000E+00  0.36320469759E+03  0.38411169934E+03  0.12499658081E+03 0.  0.
    9000005    1    3    3    0    0 -0.11626153670E+02  0.57069201530E+02  0.25120207650E+03  0.25786730008E+03  0.10000000000E+01 0.  0.
    9000005    1    3    3    0    0  0.11626153670E+02 -0.57069201530E+02  0.11200262109E+03  0.12624439926E+03  0.10000000000E+01 0.  0.
<mgrwt>
<rscale>  0 0.12499658E+03</rscale>
<asrwt>0</asrwt>
<pdfrwt beam="2">  1        4 0.26133755E-02 0.12499658E+03</pdfrwt>
<pdfrwt beam="1">  1       -4 0.93414540E-01 0.12499658E+03</pdfrwt>
<totfact> 0.10904811E+03</totfact>
</mgrwt>
</event>
<event>
 5    1  0.1451195E-002  0.1249992E+03  0.7818608E-02  0.1235071E+00
         -4   -1    0    0    0  501 -0.00000000000E+00  0.00000000000E+00  0.58780475127E+02  0.58794193218E+02  0.12700000000E+01 0.  1.
          4   -1    0    0  501    0  0.00000000000E+00 -0.00000000000E+00 -0.66426452563E+02  0.66438591948E+02  0.12700000000E+01 0.  1.
         25    2    1    2    0    0  0.00000000000E+00  0.00000000000E+00 -0.76459774358E+01  0.12523278517E+03  0.12499915804E+03 0.  0.
    9000005    1    3    3    0    0 -0.43249142439E+02  0.41975629921E+02  0.12723191435E+02  0.61606180122E+02  0.10000000000E+01 0.  0.
    9000005    1    3    3    0    0  0.43249142439E+02 -0.41975629921E+02 -0.20369168871E+02  0.63626605044E+02  0.10000000000E+01 0.  0.
<mgrwt>
<rscale>  0 0.12499916E+03</rscale>
<asrwt>0</asrwt>
<pdfrwt beam="2">  1        4 0.16609845E-01 0.12499916E+03</pdfrwt>
<pdfrwt beam="1">  1       -4 0.14698351E-01 0.12499916E+03</pdfrwt>
<totfact> 0.19822827E+03</totfact>
</mgrwt>
</event>
<event>
 5    1  0.1451195E-002  0.1249974E+03  0.7818608E-02  0.1235073E+00
         -4   -1    0    0    0  501 -0.00000000000E+00  0.00000000000E+00  0.91821935706E+01  0.92696051031E+01  0.12700000000E+01 0.  1.
          4   -1    0    0  501    0  0.00000000000E+00 -0.00000000000E+00 -0.42329445051E+03  0.42329635569E+03  0.12700000000E+01 0.  1.
         25    2    1    2    0    0  0.00000000000E+00  0.00000000000E+00 -0.41411225694E+03  0.43256596079E+03  0.12499739630E+03 0.  0.
    9000005    1    3    3    0    0  0.11647215993E+02  0.26556394614E+02 -0.15494268460E+02  0.32893344165E+02  0.10000000000E+01 0.  0.
    9000005    1    3    3    0    0 -0.11647215993E+02 -0.26556394614E+02 -0.39861798848E+03  0.39967261662E+03  0.10000000000E+01 0.  0.
<mgrwt>
<rscale>  0 0.12499740E+03</rscale>
<asrwt>0</asrwt>
<pdfrwt beam="2">  1        4 0.10583471E+00 0.12499740E+03</pdfrwt>
<pdfrwt beam="1">  1       -4 0.23067144E-02 0.12499740E+03</pdfrwt>
<totfact> 0.99239212E+02</totfact>
</mgrwt>
</event>
<event>
 5    1  0.1451195E-002  0.1249972E+03  0.7818608E-02  0.1235074E+00
          4   -1    0    0  501    0  0.00000000000E+00  0.00000000000E+00  0.13001540081E+02  0.13063420091E+02  0.12700000000E+01 0. -1.
         -4   -1    0    0    0  501 -0.00000000000E+00 -0.00000000000E+00 -0.29965521336E+03  0.29965790461E+03  0.12700000000E+01 0. -1.
         25    2    1    2    0    0  0.00000000000E+00  0.00000000000E+00 -0.28665367328E+03  0.31272132470E+03  0.12499719404E+03 0.  0.
    9000005    1    3    3    0    0 -0.52582018570E+02  0.31068757774E+02 -0.17641705347E+03  0.18669256316E+03  0.10000000000E+01 0.  0.
    9000005    1    3    3    0    0  0.52582018570E+02 -0.31068757774E+02 -0.11023661982E+03  0.12602876154E+03  0.10000000000E+01 0.  0.
<mgrwt>
<rscale>  0 0.12499719E+03</rscale>
<asrwt>0</asrwt>
<pdfrwt beam="1">  1        4 0.32584574E-02 0.12499719E+03</pdfrwt>
<pdfrwt beam="2">  1       -4 0.74921852E-01 0.12499719E+03</pdfrwt>
<totfact> 0.12622674E+03</totfact>
</mgrwt>
</event>
<event>
 5    1  0.1451195E-002  0.1250013E+03  0.7818608E-02  0.1235067E+00
         -4   -1    0    0    0  501 -0.00000000000E+00  0.00000000000E+00  0.14607190242E+03  0.14607742323E+03  0.12700000000E+01 0.  1.
          4   -1    0    0  501    0  0.00000000000E+00 -0.00000000000E+00 -0.26721395699E+02  0.26751558611E+02  0.12700000000E+01 0.  1.
         25    2    1    2    0    0  0.00000000000E+00  0.00000000000E+00  0.11935050672E+03  0.17282898184E+03  0.12500125403E+03 0.  0.
    9000005    1    3    3    0    0  0.58846108178E+02 -0.81520473546E+01  0.32865008842E+02  0.67900140869E+02  0.10000000000E+01 0.  0.
    9000005    1    3    3    0    0 -0.58846108178E+02  0.81520473546E+01  0.86485497878E+02  0.10492884097E+03  0.10000000000E+01 0.  0.
<mgrwt>
<rscale>  0 0.12500125E+03</rscale>
<asrwt>0</asrwt>
<pdfrwt beam="2">  1        4 0.66848094E-02 0.12500125E+03</pdfrwt>
<pdfrwt beam="1">  1       -4 0.36522436E-01 0.12500125E+03</pdfrwt>
<totfact> 0.17469689E+03</totfact>
</mgrwt>
</event>
<event>
 5    1  0.1451195E-002  0.1249960E+03  0.7818608E-02  0.1235076E+00
         -4   -1    0    0    0  501 -0.00000000000E+00  0.00000000000E+00  0.66214653222E+03  0.66214775015E+03  0.12700000000E+01 0. -1.
          4   -1    0    0  501    0  0.00000000000E+00 -0.00000000000E+00 -0.58294041570E+01  0.59661422063E+01  0.12700000000E+01 0. -1.
         25    2    1    2    0    0  0.00000000000E+00  0.00000000000E+00  0.65631712806E+03  0.66811389236E+03  0.12499600223E+03 0.  0.
    9000005    1    3    3    0    0  0.34552894504E+02 -0.13455812072E+02  0.59303658333E+02  0.69949162174E+02  0.10000000000E+01 0.  0.
    9000005    1    3    3    0    0 -0.34552894504E+02  0.13455812072E+02  0.59701346973E+03  0.59816473018E+03  0.10000000000E+01 0.  0.
<mgrwt>
<rscale>  0 0.12499600E+03</rscale>
<asrwt>0</asrwt>
<pdfrwt beam="2">  1        4 0.14745958E-02 0.12499600E+03</pdfrwt>
<pdfrwt beam="1">  1       -4 0.16555384E+00 0.12499600E+03</pdfrwt>
<totfact> 0.65481827E+02</totfact>
</mgrwt>
</event>
<event>
 5    1  0.1451195E-002  0.1249979E+03  0.7818608E-02  0.1235073E+00
          4   -1    0    0  501    0  0.00000000000E+00  0.00000000000E+00  0.27219530209E+03  0.27219826483E+03  0.12700000000E+01 0. -1.
         -4   -1    0    0    0  501 -0.00000000000E+00 -0.00000000000E+00 -0.14319287711E+02  0.14375496532E+02  0.12700000000E+01 0. -1.
         25    2    1    2    0    0  0.00000000000E+00  0.00000000000E+00  0.25787601438E+03  0.28657376137E+03  0.12499792763E+03 0.  0.
    9000005    1    3    3    0    0 -0.56031539744E+02 -0.21345746144E+02  0.88575629976E+02  0.10696642721E+03  0.10000000000E+01 0.  0.
    9000005    1    3    3    0    0  0.56031539744E+02  0.21345746144E+02  0.16930038440E+03  0.17960733416E+03  0.10000000000E+01 0.  0.
<mgrwt>
<rscale>  0 0.12499793E+03</rscale>
<asrwt>0</asrwt>
<pdfrwt beam="1">  1        4 0.68056223E-01 0.12499793E+03</pdfrwt>
<pdfrwt beam="2">  1       -4 0.35872183E-02 0.12499793E+03</pdfrwt>
<totfact> 0.13356508E+03</totfact>
</mgrwt>
</event>
<event>
 5    1  0.1451195E-002  0.1250053E+03  0.7818608E-02  0.1235061E+00
         -4   -1    0    0    0  501 -0.00000000000E+00  0.00000000000E+00  0.15930929160E+02  0.15981470643E+02  0.12700000000E+01 0. -1.
          4   -1    0    0  501    0  0.00000000000E+00 -0.00000000000E+00 -0.24477931665E+03  0.24478261123E+03  0.12700000000E+01 0. -1.
         25    2    1    2    0    0  0.00000000000E+00  0.00000000000E+00 -0.22884838749E+03  0.26076408187E+03  0.12500528764E+03 0.  0.
    9000005    1    3    3    0    0 -0.26582009199E+02 -0.55501818504E+02 -0.13713461174E+03  0.15031286308E+03  0.10000000000E+01 0.  0.
    9000005    1    3    3    0    0  0.26582009199E+02  0.55501818504E+02 -0.91713775754E+02  0.11045121880E+03  0.10000000000E+01 0.  0.
<mgrwt>
<rscale>  0 0.12500529E+03</rscale>
<asrwt>0</asrwt>
<pdfrwt beam="2">  1        4 0.61201547E-01 0.12500529E+03</pdfrwt>
<pdfrwt beam="1">  1       -4 0.39894626E-02 0.12500529E+03</pdfrwt>
<totfact> 0.14144931E+03</totfact>
</mgrwt>
</event>
<event>
 5    1  0.1451195E-002  0.1250460E+03  0.7818608E-02  0.1234997E+00
         -4   -1    0    0    0  501 -0.00000000000E+00  0.00000000000E+00  0.13196102357E+02  0.13257074241E+02  0.12700000000E+01 0.  1.
          4   -1    0    0  501    0  0.00000000000E+00 -0.00000000000E+00 -0.29548840187E+03  0.29549113107E+03  0.12700000000E+01 0.  1.
         25    2    1    2    0    0  0.00000000000E+00  0.00000000000E+00 -0.28229229951E+03  0.30874820531E+03  0.12504603919E+03 0.  0.
    9000005    1    3    3    0    0  0.74770745424E+01  0.47635553341E+02 -0.23938545919E+03  0.24419551727E+03  0.10000000000E+01 0.  0.
    9000005    1    3    3    0    0 -0.74770745424E+01 -0.47635553341E+02 -0.42906840324E+02  0.64552688034E+02  0.10000000000E+01 0.  0.
<mgrwt>
<rscale>  0 0.12504604E+03</rscale>
<asrwt>0</asrwt>
<pdfrwt beam="2">  1        4 0.73880041E-01 0.12504604E+03</pdfrwt>
<pdfrwt beam="1">  1       -4 0.33069892E-02 0.12504604E+03</pdfrwt>
<totfact> 0.12715959E+03</totfact>
</mgrwt>
</event>
<event>
 5    1  0.1451195E-002  0.1250000E+03  0.7818608E-02  0.1235069E+00
         -4   -1    0    0    0  501 -0.00000000000E+00  0.00000000000E+00  0.12518458993E+04  0.12518465435E+04  0.12700000000E+01 0.  1.
          4   -1    0    0  501    0  0.00000000000E+00 -0.00000000000E+00 -0.29904989172E+01  0.32489973490E+01  0.12700000000E+01 0.  1.
         25    2    1    2    0    0  0.00000000000E+00  0.00000000000E+00  0.12488554004E+04  0.12550955408E+04  0.12500002246E+03 0.  0.
    9000005    1    3    3    0    0 -0.12460746246E+02  0.30820075471E+01  0.10339849186E+02  0.16513069028E+02  0.10000000000E+01 0.  0.
    9000005    1    3    3    0    0  0.12460746246E+02 -0.30820075471E+01  0.12385155512E+04  0.12385824718E+04  0.10000000000E+01 0.  0.
<mgrwt>
<rscale>  0 0.12500002E+03</rscale>
<asrwt>0</asrwt>
<pdfrwt beam="2">  1        4 0.78001777E-03 0.12500002E+03</pdfrwt>
<pdfrwt beam="1">  1       -4 0.31299378E+00 0.12500002E+03</pdfrwt>
<totfact> 0.22427102E+02</totfact>
</mgrwt>
</event>
<event>
 5    1  0.1451195E-002  0.1249983E+03  0.7818608E-02  0.1235072E+00
         -4   -1    0    0    0  501 -0.00000000000E+00  0.00000000000E+00  0.19598455424E+02  0.19639560968E+02  0.12700000000E+01 0. -1.
          4   -1    0    0  501    0  0.00000000000E+00 -0.00000000000E+00 -0.19905685103E+03  0.19906090235E+03  0.12700000000E+01 0. -1.
         25    2    1    2    0    0  0.00000000000E+00  0.00000000000E+00 -0.17945839561E+03  0.21870046332E+03  0.12499830759E+03 0.  0.
    9000005    1    3    3    0    0  0.54106297382E+02  0.10820741275E+01 -0.35055597395E+02  0.64486876258E+02  0.10000000000E+01 0.  0.
    9000005    1    3    3    0    0 -0.54106297382E+02 -0.10820741275E+01 -0.14440279821E+03  0.15421358706E+03  0.10000000000E+01 0.  0.
<mgrwt>
<rscale>  0 0.12499831E+03</rscale>
<asrwt>0</asrwt>
<pdfrwt beam="2">  1        4 0.49769851E-01 0.12499831E+03</pdfrwt>
<pdfrwt beam="1">  1       -4 0.49052591E-02 0.12499831E+03</pdfrwt>
<totfact> 0.15600264E+03</totfact>
</mgrwt>
</event>
<event>
 5    1  0.1451195E-002  0.1249998E+03  0.7818608E-02  0.1235070E+00
         -4   -1    0    0    0  501 -0.00000000000E+00  0.00000000000E+00  0.16592246202E+03  0.16592732235E+03  0.12700000000E+01 0.  1.
          4   -1    0    0  501    0  0.00000000000E+00 -0.00000000000E+00 -0.23520223140E+02  0.23554485699E+02  0.12700000000E+01 0.  1.
         25    2    1    2    0    0  0.00000000000E+00  0.00000000000E+00  0.14240223888E+03  0.18948180805E+03  0.12499983178E+03 0.  0.
    9000005    1    3    3    0    0  0.30084734254E+02  0.34168224744E+02  0.63075756877E+01  0.45971124941E+02  0.10000000000E+01 0.  0.
    9000005    1    3    3    0    0 -0.30084734254E+02 -0.34168224744E+02  0.13609466319E+03  0.14351068311E+03  0.10000000000E+01 0.  0.
<mgrwt>
<rscale>  0 0.12499983E+03</rscale>
<asrwt>0</asrwt>
<pdfrwt beam="2">  1        4 0.58849462E-02 0.12499983E+03</pdfrwt>
<pdfrwt beam="1">  1       -4 0.41485505E-01 0.12499983E+03</pdfrwt>
<totfact> 0.16752119E+03</totfact>
</mgrwt>
</event>
<event>
 5    1  0.1451195E-002  0.1249993E+03  0.7818608E-02  0.1235070E+00
          4   -1    0    0  501    0  0.00000000000E+00  0.00000000000E+00  0.62178629875E+01  0.63462366905E+01  0.12700000000E+01 0. -1.
         -4   -1    0    0    0  501 -0.00000000000E+00 -0.00000000000E+00 -0.62167513139E+03  0.62167642861E+03  0.12700000000E+01 0. -1.
         25    2    1    2    0    0  0.00000000000E+00  0.00000000000E+00 -0.61545726840E+03  0.62802266530E+03  0.12499927560E+03 0.  0.
    9000005    1    3    3    0    0 -0.62416836642E+02  0.21252715167E+01 -0.31876641396E+03  0.32482826993E+03  0.10000000000E+01 0.  0.
    9000005    1    3    3    0    0  0.62416836642E+02 -0.21252715167E+01 -0.29669085444E+03  0.30319439537E+03  0.10000000000E+01 0.  0.
<mgrwt>
<rscale>  0 0.12499928E+03</rscale>
<asrwt>0</asrwt>
<pdfrwt beam="1">  1        4 0.15706767E-02 0.12499928E+03</pdfrwt>
<pdfrwt beam="2">  1       -4 0.15543478E+00 0.12499928E+03</pdfrwt>
<totfact> 0.70084130E+02</totfact>
</mgrwt>
</event>
<event>
 5    1  0.1451195E-002  0.1250005E+03  0.7818608E-02  0.1235068E+00
         -4   -1    0    0    0  501 -0.00000000000E+00  0.00000000000E+00  0.11684089865E+02  0.11752908405E+02  0.12700000000E+01 0. -1.
          4   -1    0    0  501    0  0.00000000000E+00 -0.00000000000E+00 -0.33327336746E+03  0.33327578723E+03  0.12700000000E+01 0. -1.
         25    2    1    2    0    0  0.00000000000E+00  0.00000000000E+00 -0.32158927759E+03  0.34502869564E+03  0.12500054940E+03 0.  0.
    9000005    1    3    3    0    0  0.59703088585E+02 -0.16481907445E+02 -0.18375133222E+03  0.19391148536E+03  0.10000000000E+01 0.  0.
    9000005    1    3    3    0    0 -0.59703088585E+02  0.16481907445E+02 -0.13783794537E+03  0.15111721028E+03  0.10000000000E+01 0.  0.
<mgrwt>
<rscale>  0 0.12500055E+03</rscale>
<asrwt>0</asrwt>
<pdfrwt beam="2">  1        4 0.83327215E-01 0.12500055E+03</pdfrwt>
<pdfrwt beam="1">  1       -4 0.29299284E-02 0.12500055E+03</pdfrwt>
<totfact> 0.11796637E+03</totfact>
</mgrwt>
</event>
<event>
 5    1  0.1451195E-002  0.1249961E+03  0.7818608E-02  0.1235075E+00
         -4   -1    0    0    0  501 -0.00000000000E+00  0.00000000000E+00  0.88068702144E+02  0.88077858724E+02  0.12700000000E+01 0.  1.
          4   -1    0    0  501    0  0.00000000000E+00 -0.00000000000E+00 -0.44331241393E+02  0.44349429122E+02  0.12700000000E+01 0.  1.
         25    2    1    2    0    0  0.00000000000E+00  0.00000000000E+00  0.43737460752E+02  0.13242728785E+03  0.12499608431E+03 0.  0.
    9000005    1    3    3    0    0  0.30577547648E+02  0.54186971256E+02  0.28027324650E+02  0.68247675426E+02  0.10000000000E+01 0.  0.
    9000005    1    3    3    0    0 -0.30577547648E+02 -0.54186971256E+02  0.15710136102E+02  0.64179612420E+02  0.10000000000E+01 0.  0.
<mgrwt>
<rscale>  0 0.12499608E+03</rscale>
<asrwt>0</asrwt>
<pdfrwt beam="2">  1        4 0.11086229E-01 0.12499608E+03</pdfrwt>
<pdfrwt beam="1">  1       -4 0.22020593E-01 0.12499608E+03</pdfrwt>
<totfact> 0.19436534E+03</totfact>
</mgrwt>
</event>
<event>
 5    1  0.1451195E-002  0.1249992E+03  0.7818608E-02  0.1235070E+00
         -4   -1    0    0    0  501 -0.00000000000E+00  0.00000000000E+00  0.17271442855E+03  0.17271909776E+03  0.12700000000E+01 0. -1.
          4   -1    0    0  501    0  0.00000000000E+00 -0.00000000000E+00 -0.22593726901E+02  0.22629392287E+02  0.12700000000E+01 0. -1.
         25    2    1    2    0    0  0.00000000000E+00  0.00000000000E+00  0.15012070165E+03  0.19534849005E+03  0.12499922999E+03 0.  0.
    9000005    1    3    3    0    0 -0.19347431270E+02 -0.55771965993E+02  0.10710214419E+03  0.12229760659E+03  0.10000000000E+01 0.  0.
    9000005    1    3    3    0    0  0.19347431270E+02  0.55771965993E+02  0.43018557461E+02  0.73050883455E+02  0.10000000000E+01 0.  0.
<mgrwt>
<rscale>  0 0.12499923E+03</rscale>
<asrwt>0</asrwt>
<pdfrwt beam="2">  1        4 0.56534737E-02 0.12499923E+03</pdfrwt>
<pdfrwt beam="1">  1       -4 0.43183648E-01 0.12499923E+03</pdfrwt>
<totfact> 0.16510299E+03</totfact>
</mgrwt>
</event>
<event>
 5    1  0.1451195E-002  0.1250318E+03  0.7818608E-02  0.1235020E+00
          4   -1    0    0  501    0  0.00000000000E+00  0.00000000000E+00  0.19492724809E+03  0.19493138523E+03  0.12700000000E+01 0. -1.
         -4   -1    0    0    0  501 -0.00000000000E+00 -0.00000000000E+00 -0.20025256591E+02  0.20065487822E+02  0.12700000000E+01 0. -1.
         25    2    1    2    0    0  0.00000000000E+00  0.00000000000E+00  0.17490199150E+03  0.21499687305E+03  0.12503179113E+03 0.  0.
    9000005    1    3    3    0    0 -0.66222904951E+01  0.50690021057E+02  0.25597712494E+02  0.57180205063E+02  0.10000000000E+01 0.  0.
    9000005    1    3    3    0    0  0.66222904951E+01 -0.50690021057E+02  0.14930427901E+03  0.15781666799E+03  0.10000000000E+01 0.  0.
<mgrwt>
<rscale>  0 0.12503179E+03</rscale>
<asrwt>0</asrwt>
<pdfrwt beam="1">  1        4 0.48737357E-01 0.12503179E+03</pdfrwt>
<pdfrwt beam="2">  1       -4 0.50118603E-02 0.12503179E+03</pdfrwt>
<totfact> 0.15727103E+03</totfact>
</mgrwt>
</event>
<event>
 5    1  0.1451195E-002  0.1250051E+03  0.7818608E-02  0.1235061E+00
         -4   -1    0    0    0  501 -0.00000000000E+00  0.00000000000E+00  0.21756612187E+03  0.21756982852E+03  0.12700000000E+01 0. -1.
          4   -1    0    0  501    0  0.00000000000E+00 -0.00000000000E+00 -0.17929446218E+02  0.17974369021E+02  0.12700000000E+01 0. -1.
         25    2    1    2    0    0  0.00000000000E+00  0.00000000000E+00  0.19963667565E+03  0.23554419754E+03  0.12500506683E+03 0.  0.
    9000005    1    3    3    0    0 -0.24370548342E+02  0.52175542594E+02  0.54074396717E+02  0.79001590184E+02  0.10000000000E+01 0.  0.
    9000005    1    3    3    0    0  0.24370548342E+02 -0.52175542594E+02  0.14556227893E+03  0.15654260736E+03  0.10000000000E+01 0.  0.
<mgrwt>
<rscale>  0 0.12500507E+03</rscale>
<asrwt>0</asrwt>
<pdfrwt beam="2">  1        4 0.44884402E-02 0.12500507E+03</pdfrwt>
<pdfrwt beam="1">  1       -4 0.54397609E-01 0.12500507E+03</pdfrwt>
<totfact> 0.14989458E+03</totfact>
</mgrwt>
</event>
<event>
 5    1  0.1451195E-002  0.1250197E+03  0.7818608E-02  0.1235038E+00
          4   -1    0    0  501    0  0.00000000000E+00  0.00000000000E+00  0.69943298063E+02  0.69954827167E+02  0.12700000000E+01 0.  1.
         -4   -1    0    0    0  501 -0.00000000000E+00 -0.00000000000E+00 -0.55843081042E+02  0.55857520534E+02  0.12700000000E+01 0.  1.
         25    2    1    2    0    0  0.00000000000E+00  0.00000000000E+00  0.14100217022E+02  0.12581234770E+03  0.12501972130E+03 0.  0.
    9000005    1    3    3    0    0  0.20258225241E+02  0.55881395373E+02 -0.12394834725E+02  0.60726913034E+02  0.10000000000E+01 0.  0.
    9000005    1    3    3    0    0 -0.20258225241E+02 -0.55881395373E+02  0.26495051747E+02  0.65085434667E+02  0.10000000000E+01 0.  0.
<mgrwt>
<rscale>  0 0.12501972E+03</rscale>
<asrwt>0</asrwt>
<pdfrwt beam="1">  1        4 0.17489070E-01 0.12501972E+03</pdfrwt>
<pdfrwt beam="2">  1       -4 0.13964016E-01 0.12501972E+03</pdfrwt>
<totfact> 0.19781936E+03</totfact>
</mgrwt>
</event>
<event>
 5    1  0.1451195E-002  0.1249992E+03  0.7818608E-02  0.1235071E+00
          4   -1    0    0  501    0  0.00000000000E+00  0.00000000000E+00  0.42589239905E+03  0.42589429260E+03  0.12700000000E+01 0.  1.
         -4   -1    0    0    0  501 -0.00000000000E+00 -0.00000000000E+00 -0.91259118051E+01  0.92138572962E+01  0.12700000000E+01 0.  1.
         25    2    1    2    0    0  0.00000000000E+00  0.00000000000E+00  0.41676648724E+03  0.43510814989E+03  0.12499918886E+03 0.  0.
    9000005    1    3    3    0    0  0.39169539117E+02 -0.40544473213E+02  0.11452233235E+03  0.12764980105E+03  0.10000000000E+01 0.  0.
    9000005    1    3    3    0    0 -0.39169539117E+02  0.40544473213E+02  0.30224415489E+03  0.30745834884E+03  0.10000000000E+01 0.  0.
<mgrwt>
<rscale>  0 0.12499919E+03</rscale>
<asrwt>0</asrwt>
<pdfrwt beam="1">  1        4 0.10648433E+00 0.12499919E+03</pdfrwt>
<pdfrwt beam="2">  1       -4 0.22927078E-02 0.12499919E+03</pdfrwt>
<totfact> 0.98755204E+02</totfact>
</mgrwt>
</event>
<event>
 5    1  0.1451195E-002  0.1249993E+03  0.7818608E-02  0.1235070E+00
          4   -1    0    0  501    0  0.00000000000E+00  0.00000000000E+00  0.83223011135E+03  0.83223108037E+03  0.12700000000E+01 0.  1.
         -4   -1    0    0    0  501 -0.00000000000E+00 -0.00000000000E+00 -0.46067617896E+01  0.47786142538E+01  0.12700000000E+01 0.  1.
         25    2    1    2    0    0  0.00000000000E+00  0.00000000000E+00  0.82762334956E+03  0.83700969463E+03  0.12499928064E+03 0.  0.
    9000005    1    3    3    0    0 -0.26021231711E+02 -0.51131288053E+02  0.57969326041E+03  0.58252621339E+03  0.10000000000E+01 0.  0.
    9000005    1    3    3    0    0  0.26021231711E+02  0.51131288053E+02  0.24793008915E+03  0.25448348124E+03  0.10000000000E+01 0.  0.
<mgrwt>
<rscale>  0 0.12499928E+03</rscale>
<asrwt>0</asrwt>
<pdfrwt beam="1">  1        4 0.20807911E+00 0.12499928E+03</pdfrwt>
<pdfrwt beam="2">  1       -4 0.11732932E-02 0.12499928E+03</pdfrwt>
<totfact> 0.49304879E+02</totfact>
</mgrwt>
</event>
<event>
 5    1  0.1451195E-002  0.1249994E+03  0.7818608E-02  0.1235070E+00
          4   -1    0    0  501    0  0.00000000000E+00  0.00000000000E+00  0.11230862696E+03  0.11231580739E+03  0.12700000000E+01 0.  1.
         -4   -1    0    0    0  501 -0.00000000000E+00 -0.00000000000E+00 -0.34761176563E+02  0.34784368559E+02  0.12700000000E+01 0.  1.
         25    2    1    2    0    0  0.00000000000E+00  0.00000000000E+00  0.77547450397E+02  0.14710017595E+03  0.12499941880E+03 0.  0.
    9000005    1    3    3    0    0  0.39745399777E+02 -0.48173888327E+02  0.41350194714E+02  0.74908336805E+02  0.10000000000E+01 0.  0.
    9000005    1    3    3    0    0 -0.39745399777E+02  0.48173888327E+02  0.36197255684E+02  0.72191839144E+02  0.10000000000E+01 0.  0.
<mgrwt>
<rscale>  0 0.12499942E+03</rscale>
<asrwt>0</asrwt>
<pdfrwt beam="1">  1        4 0.28080953E-01 0.12499942E+03</pdfrwt>
<pdfrwt beam="2">  1       -4 0.86940907E-02 0.12499942E+03</pdfrwt>
<totfact> 0.18682543E+03</totfact>
</mgrwt>
</event>
<event>
 5    1  0.1451195E-002  0.1250108E+03  0.7818608E-02  0.1235052E+00
          4   -1    0    0  501    0  0.00000000000E+00  0.00000000000E+00  0.47514438735E+03  0.47514608462E+03  0.12700000000E+01 0. -1.
         -4   -1    0    0    0  501 -0.00000000000E+00 -0.00000000000E+00 -0.81718450184E+01  0.82699426240E+01  0.12700000000E+01 0. -1.
         25    2    1    2    0    0  0.00000000000E+00  0.00000000000E+00  0.46697254233E+03  0.48341602724E+03  0.12501079995E+03 0.  0.
    9000005    1    3    3    0    0 -0.14503702424E+02 -0.15420358934E+02  0.46087671038E+03  0.46136372530E+03  0.10000000000E+01 0.  0.
    9000005    1    3    3    0    0  0.14503702424E+02  0.15420358934E+02  0.60958319466E+01  0.22052301938E+02  0.10000000000E+01 0.  0.
<mgrwt>
<rscale>  0 0.12501080E+03</rscale>
<asrwt>0</asrwt>
<pdfrwt beam="1">  1        4 0.11879857E+00 0.12501080E+03</pdfrwt>
<pdfrwt beam="2">  1       -4 0.20554357E-02 0.12501080E+03</pdfrwt>
<totfact> 0.90281900E+02</totfact>
</mgrwt>
</event>
<event>
 5    1  0.1451195E-002  0.1250138E+03  0.7818608E-02  0.1235048E+00
          4   -1    0    0  501    0  0.00000000000E+00  0.00000000000E+00  0.12942743388E+02  0.13004903168E+02  0.12700000000E+01 0. -1.
         -4   -1    0    0    0  501 -0.00000000000E+00 -0.00000000000E+00 -0.30108991766E+03  0.30109259608E+03  0.12700000000E+01 0. -1.
         25    2    1    2    0    0  0.00000000000E+00  0.00000000000E+00 -0.28814717427E+03  0.31409749925E+03  0.12501377922E+03 0.  0.
    9000005    1    3    3    0    0  0.20081926636E+02 -0.53962186246E+02 -0.82998058123E+02  0.10101920102E+03  0.10000000000E+01 0.  0.
    9000005    1    3    3    0    0 -0.20081926636E+02  0.53962186246E+02 -0.20514911615E+03  0.21307829824E+03  0.10000000000E+01 0.  0.
<mgrwt>
<rscale>  0 0.12501378E+03</rscale>
<asrwt>0</asrwt>
<pdfrwt beam="1">  1        4 0.32437916E-02 0.12501378E+03</pdfrwt>
<pdfrwt beam="2">  1       -4 0.75280561E-01 0.12501378E+03</pdfrwt>
<totfact> 0.12580981E+03</totfact>
</mgrwt>
</event>
<event>
 5    1  0.1451195E-002  0.1250032E+03  0.7818608E-02  0.1235064E+00
          4   -1    0    0  501    0  0.00000000000E+00  0.00000000000E+00  0.13256777801E+02  0.13317471895E+02  0.12700000000E+01 0. -1.
         -4   -1    0    0    0  501 -0.00000000000E+00 -0.00000000000E+00 -0.29394035624E+03  0.29394309981E+03  0.12700000000E+01 0. -1.
         25    2    1    2    0    0  0.00000000000E+00  0.00000000000E+00 -0.28068357844E+03  0.30726057171E+03  0.12500315084E+03 0.  0.
    9000005    1    3    3    0    0  0.12394809697E+02 -0.43155951935E+02 -0.24718463974E+03  0.25123159359E+03  0.10000000000E+01 0.  0.
    9000005    1    3    3    0    0 -0.12394809697E+02  0.43155951935E+02 -0.33498938704E+02  0.56028978120E+02  0.10000000000E+01 0.  0.
<mgrwt>
<rscale>  0 0.12500315E+03</rscale>
<asrwt>0</asrwt>
<pdfrwt beam="1">  1        4 0.33221251E-02 0.12500315E+03</pdfrwt>
<pdfrwt beam="2">  1       -4 0.73492997E-01 0.12500315E+03</pdfrwt>
<totfact> 0.12769058E+03</totfact>
</mgrwt>
</event>
<event>
 5    1  0.1451195E-002  0.1250000E+03  0.7818608E-02  0.1235069E+00
          4   -1    0    0  501    0  0.00000000000E+00  0.00000000000E+00  0.31578039672E+02  0.31603567671E+02  0.12700000000E+01 0.  1.
         -4   -1    0    0    0  501 -0.00000000000E+00 -0.00000000000E+00 -0.12362262157E+03  0.12362914488E+03  0.12700000000E+01 0.  1.
         25    2    1    2    0    0  0.00000000000E+00  0.00000000000E+00 -0.92044581895E+02  0.15523271255E+03  0.12499995996E+03 0.  0.
    9000005    1    3    3    0    0 -0.58733221830E+02 -0.15965285737E+02 -0.63618464691E+02  0.88049933248E+02  0.10000000000E+01 0.  0.
    9000005    1    3    3    0    0  0.58733221830E+02  0.15965285737E+02 -0.28426117203E+02  0.67182779300E+02  0.10000000000E+01 0.  0.
<mgrwt>
<rscale>  0 0.12499996E+03</rscale>
<asrwt>0</asrwt>
<pdfrwt beam="1">  1        4 0.78985166E-02 0.12499996E+03</pdfrwt>
<pdfrwt beam="2">  1       -4 0.30909661E-01 0.12499996E+03</pdfrwt>
<totfact> 0.18284462E+03</totfact>
</mgrwt>
</event>
<event>
 5    1  0.1451195E-002  0.1249992E+03  0.7818608E-02  0.1235071E+00
         -4   -1    0    0    0  501 -0.00000000000E+00  0.00000000000E+00  0.17251380870E+02  0.17298064687E+02  0.12700000000E+01 0. -1.
          4   -1    0    0  501    0  0.00000000000E+00 -0.00000000000E+00 -0.22607378488E+03  0.22607735205E+03  0.12700000000E+01 0. -1.
         25    2    1    2    0    0  0.00000000000E+00  0.00000000000E+00 -0.20882240401E+03  0.24337541674E+03  0.12499918822E+03 0.  0.
    9000005    1    3    3    0    0  0.34862678487E+01 -0.39346031775E+02 -0.19869453321E+03  0.20258524578E+03  0.10000000000E+01 0.  0.
    9000005    1    3    3    0    0 -0.34862678487E+01  0.39346031775E+02 -0.10127870804E+02  0.40790170961E+02  0.10000000000E+01 0.  0.
<mgrwt>
<rscale>  0 0.12499919E+03</rscale>
<asrwt>0</asrwt>
<pdfrwt beam="2">  1        4 0.56524718E-01 0.12499919E+03</pdfrwt>
<pdfrwt beam="1">  1       -4 0.43191273E-02 0.12499919E+03</pdfrwt>
<totfact> 0.14721144E+03</totfact>
</mgrwt>
</event>
<event>
 5    1  0.1451195E-002  0.1249997E+03  0.7818608E-02  0.1235070E+00
         -4   -1    0    0    0  501 -0.00000000000E+00  0.00000000000E+00  0.84581447066E+01  0.85529592468E+01  0.12700000000E+01 0. -1.
          4   -1    0    0  501    0  0.00000000000E+00 -0.00000000000E+00 -0.45916107357E+03  0.45916282992E+03  0.12700000000E+01 0. -1.
         25    2    1    2    0    0  0.00000000000E+00  0.00000000000E+00 -0.45070292886E+03  0.46771578917E+03  0.12499971741E+03 0.  0.
    9000005    1    3    3    0    0 -0.13502856184E+02 -0.49101734210E+02 -0.36087898374E+03  0.36445568775E+03  0.10000000000E+01 0.  0.
    9000005    1    3    3    0    0  0.13502856184E+02  0.49101734210E+02 -0.89823945119E+02  0.10326010141E+03  0.10000000000E+01 0.  0.
<mgrwt>
<rscale>  0 0.12499972E+03</rscale>
<asrwt>0</asrwt>
<pdfrwt beam="2">  1        4 0.11480226E+00 0.12499972E+03</pdfrwt>
<pdfrwt beam="1">  1       -4 0.21266091E-02 0.12499972E+03</pdfrwt>
<totfact> 0.92921771E+02</totfact>
</mgrwt>
</event>
<event>
 5    1  0.1451195E-002  0.1250026E+03  0.7818608E-02  0.1235065E+00
         -4   -1    0    0    0  501 -0.00000000000E+00  0.00000000000E+00  0.18635751164E+02  0.18678975385E+02  0.12700000000E+01 0. -1.
          4   -1    0    0  501    0  0.00000000000E+00 -0.00000000000E+00 -0.20933119882E+03  0.20933505129E+03  0.12700000000E+01 0. -1.
         25    2    1    2    0    0  0.00000000000E+00  0.00000000000E+00 -0.19069544765E+03  0.22801402667E+03  0.12500257039E+03 0.  0.
    9000005    1    3    3    0    0  0.55778617198E+01 -0.74259387263E+01  0.17378817006E+02  0.19730189757E+02  0.10000000000E+01 0.  0.
    9000005    1    3    3    0    0 -0.55778617198E+01  0.74259387263E+01 -0.20807426466E+03  0.20828383692E+03  0.10000000000E+01 0.  0.
<mgrwt>
<rscale>  0 0.12500257E+03</rscale>
<asrwt>0</asrwt>
<pdfrwt beam="2">  1        4 0.52338677E-01 0.12500257E+03</pdfrwt>
<pdfrwt beam="1">  1       -4 0.46648230E-02 0.12500257E+03</pdfrwt>
<totfact> 0.15257632E+03</totfact>
</mgrwt>
</event>
<event>
 5    1  0.1451195E-002  0.1249981E+03  0.7818608E-02  0.1235072E+00
          4   -1    0    0  501    0  0.00000000000E+00  0.00000000000E+00  0.24084057502E+03  0.24084392348E+03  0.12700000000E+01 0. -1.
         -4   -1    0    0    0  501 -0.00000000000E+00 -0.00000000000E+00 -0.16190422683E+02  0.16240156608E+02  0.12700000000E+01 0. -1.
         25    2    1    2    0    0  0.00000000000E+00  0.00000000000E+00  0.22465015234E+03  0.25708408009E+03  0.12499813314E+03 0.  0.
    9000005    1    3    3    0    0  0.58227135103E+01 -0.24194738267E+02 -0.55698528808E+01  0.25520827054E+02  0.10000000000E+01 0.  0.
    9000005    1    3    3    0    0 -0.58227135103E+01  0.24194738267E+02  0.23022000522E+03  0.23156325303E+03  0.10000000000E+01 0.  0.
<mgrwt>
<rscale>  0 0.12499813E+03</rscale>
<asrwt>0</asrwt>
<pdfrwt beam="1">  1        4 0.60216778E-01 0.12499813E+03</pdfrwt>
<pdfrwt beam="2">  1       -4 0.40542410E-02 0.12499813E+03</pdfrwt>
<totfact> 0.14265878E+03</totfact>
</mgrwt>
</event>
<event>
 5    1  0.1451195E-002  0.1250069E+03  0.7818608E-02  0.1235059E+00
         -4   -1    0    0    0  501 -0.00000000000E+00  0.00000000000E+00  0.48476072839E+03  0.48476239199E+03  0.12700000000E+01 0. -1.
          4   -1    0    0  501    0  0.00000000000E+00 -0.00000000000E+00 -0.80072653106E+01  0.81073545472E+01  0.12700000000E+01 0. -1.
         25    2    1    2    0    0  0.00000000000E+00  0.00000000000E+00  0.47675346308E+03  0.49286974654E+03  0.12500688979E+03 0.  0.
    9000005    1    3    3    0    0  0.60385579188E+02 -0.16101386240E+02  0.23872518913E+03  0.24677193669E+03  0.10000000000E+01 0.  0.
    9000005    1    3    3    0    0 -0.60385579188E+02  0.16101386240E+02  0.23802827395E+03  0.24609780985E+03  0.10000000000E+01 0.  0.
<mgrwt>
<rscale>  0 0.12500689E+03</rscale>
<asrwt>0</asrwt>
<pdfrwt beam="2">  1        4 0.20145357E-02 0.12500689E+03</pdfrwt>
<pdfrwt beam="1">  1       -4 0.12120289E+00 0.12500689E+03</pdfrwt>
<totfact> 0.88738114E+02</totfact>
</mgrwt>
</event>
<event>
 5    1  0.1451195E-002  0.1250019E+03  0.7818608E-02  0.1235066E+00
          4   -1    0    0  501    0  0.00000000000E+00  0.00000000000E+00  0.14552968264E+03  0.14553522402E+03  0.12700000000E+01 0. -1.
         -4   -1    0    0    0  501 -0.00000000000E+00 -0.00000000000E+00 -0.26821323440E+02  0.26851374100E+02  0.12700000000E+01 0. -1.
         25    2    1    2    0    0  0.00000000000E+00  0.00000000000E+00  0.11870835920E+03  0.17238659812E+03  0.12500185865E+03 0.  0.
    9000005    1    3    3    0    0 -0.12203786881E+02  0.10223482584E+01 -0.25157059246E+02  0.27997414882E+02  0.10000000000E+01 0.  0.
    9000005    1    3    3    0    0  0.12203786881E+02 -0.10223482584E+01  0.14386541845E+03  0.14438918323E+03  0.10000000000E+01 0.  0.
<mgrwt>
<rscale>  0 0.12500186E+03</rscale>
<asrwt>0</asrwt>
<pdfrwt beam="1">  1        4 0.36386869E-01 0.12500186E+03</pdfrwt>
<pdfrwt beam="2">  1       -4 0.67097800E-02 0.12500186E+03</pdfrwt>
<totfact> 0.17489181E+03</totfact>
</mgrwt>
</event>
<event>
 5    1  0.1451195E-002  0.1250020E+03  0.7818608E-02  0.1235066E+00
         -4   -1    0    0    0  501 -0.00000000000E+00  0.00000000000E+00  0.93122420050E+01  0.93984440819E+01  0.12700000000E+01 0.  1.
          4   -1    0    0  501    0  0.00000000000E+00 -0.00000000000E+00 -0.41746827491E+03  0.41747020667E+03  0.12700000000E+01 0.  1.
         25    2    1    2    0    0  0.00000000000E+00  0.00000000000E+00 -0.40815603290E+03  0.42686865075E+03  0.12500199117E+03 0.  0.
    9000005    1    3    3    0    0  0.51956509306E+02  0.28537227779E+02 -0.27164826836E+03  0.27804250382E+03  0.10000000000E+01 0.  0.
    9000005    1    3    3    0    0 -0.51956509306E+02 -0.28537227779E+02 -0.13650776454E+03  0.14882614693E+03  0.10000000000E+01 0.  0.
<mgrwt>
<rscale>  0 0.12500199E+03</rscale>
<asrwt>0</asrwt>
<pdfrwt beam="2">  1        4 0.10437802E+00 0.12500199E+03</pdfrwt>
<pdfrwt beam="1">  1       -4 0.23390786E-02 0.12500199E+03</pdfrwt>
<totfact> 0.10031807E+03</totfact>
</mgrwt>
</event>
<event>
 5    1  0.1451195E-002  0.1250009E+03  0.7818608E-02  0.1235068E+00
         -4   -1    0    0    0  501 -0.00000000000E+00  0.00000000000E+00  0.43472887514E+02  0.43491434201E+02  0.12700000000E+01 0.  1.
          4   -1    0    0  501    0  0.00000000000E+00 -0.00000000000E+00 -0.89813896273E+02  0.89822874947E+02  0.12700000000E+01 0.  1.
         25    2    1    2    0    0  0.00000000000E+00  0.00000000000E+00 -0.46341008759E+02  0.13331430915E+03  0.12500086372E+03 0.  0.
    9000005    1    3    3    0    0 -0.55968106111E+02  0.27696027923E+02 -0.25740126658E+02  0.67550373683E+02  0.10000000000E+01 0.  0.
    9000005    1    3    3    0    0  0.55968106111E+02 -0.27696027923E+02 -0.20600882102E+02  0.65763935464E+02  0.10000000000E+01 0.  0.
<mgrwt>
<rscale>  0 0.12500086E+03</rscale>
<asrwt>0</asrwt>
<pdfrwt beam="2">  1        4 0.22456914E-01 0.12500086E+03</pdfrwt>
<pdfrwt beam="1">  1       -4 0.10871663E-01 0.12500086E+03</pdfrwt>
<totfact> 0.19387409E+03</totfact>
</mgrwt>
</event>
<event>
 5    1  0.1451195E-002  0.1250019E+03  0.7818608E-02  0.1235066E+00
         -4   -1    0    0    0  501 -0.00000000000E+00  0.00000000000E+00  0.36713360607E+02  0.36735320157E+02  0.12700000000E+01 0. -1.
          4   -1    0    0  501    0  0.00000000000E+00 -0.00000000000E+00 -0.10634423821E+03  0.10635182133E+03  0.12700000000E+01 0. -1.
         25    2    1    2    0    0  0.00000000000E+00  0.00000000000E+00 -0.69630877600E+02  0.14308714149E+03  0.12500188376E+03 0.  0.
    9000005    1    3    3    0    0  0.72531036534E+01  0.94127914814E+01  0.35413816507E+02  0.37367720772E+02  0.10000000000E+01 0.  0.
    9000005    1    3    3    0    0 -0.72531036534E+01 -0.94127914814E+01 -0.10504469411E+03  0.10571942071E+03  0.10000000000E+01 0.  0.
<mgrwt>
<rscale>  0 0.12500188E+03</rscale>
<asrwt>0</asrwt>
<pdfrwt beam="2">  1        4 0.26589752E-01 0.12500188E+03</pdfrwt>
<pdfrwt beam="1">  1       -4 0.91820332E-02 0.12500188E+03</pdfrwt>
<totfact> 0.18882678E+03</totfact>
</mgrwt>
</event>
<event>
 5    1  0.1451195E-002  0.1249960E+03  0.7818608E-02  0.1235075E+00
          4   -1    0    0  501    0  0.00000000000E+00  0.00000000000E+00  0.58614672402E+01  0.59974743191E+01  0.12700000000E+01 0. -1.
         -4   -1    0    0    0  501 -0.00000000000E+00 -0.00000000000E+00 -0.65860734273E+03  0.65860856720E+03  0.12700000000E+01 0. -1.
         25    2    1    2    0    0  0.00000000000E+00  0.00000000000E+00 -0.65274587549E+03  0.66460604152E+03  0.12499604979E+03 0.  0.
    9000005    1    3    3    0    0  0.73405608695E+01  0.28020670426E+02 -0.31963768617E+02  0.43147703406E+02  0.10000000000E+01 0.  0.
    9000005    1    3    3    0    0 -0.73405608695E+01 -0.28020670426E+02 -0.62078210687E+03  0.62145833812E+03  0.10000000000E+01 0.  0.
<mgrwt>
<rscale>  0 0.12499605E+03</rscale>
<asrwt>0</asrwt>
<pdfrwt beam="1">  1        4 0.14825230E-02 0.12499605E+03</pdfrwt>
<pdfrwt beam="2">  1       -4 0.16466874E+00 0.12499605E+03</pdfrwt>
<totfact> 0.65870184E+02</totfact>
</mgrwt>
</event>
<event>
 5    1  0.1451195E-002  0.1249981E+03  0.7818608E-02  0.1235072E+00
         -4   -1    0    0    0  501 -0.00000000000E+00  0.00000000000E+00  0.58861437860E+02  0.58875137086E+02  0.12700000000E+01 0.  1.
          4   -1    0    0  501    0  0.00000000000E+00 -0.00000000000E+00 -0.66333984570E+02  0.66346140875E+02  0.12700000000E+01 0.  1.
         25    2    1    2    0    0  0.00000000000E+00  0.00000000000E+00 -0.74725467105E+01  0.12522127796E+03  0.12499811799E+03 0.  0.
    9000005    1    3    3    0    0  0.56304645428E+02  0.26137627678E+01 -0.30767543435E+02  0.64223722888E+02  0.10000000000E+01 0.  0.
    9000005    1    3    3    0    0 -0.56304645428E+02 -0.26137627678E+01  0.23294996725E+02  0.60997555073E+02  0.10000000000E+01 0.  0.
<mgrwt>
<rscale>  0 0.12499812E+03</rscale>
<asrwt>0</asrwt>
<pdfrwt beam="2">  1        4 0.16586728E-01 0.12499812E+03</pdfrwt>
<pdfrwt beam="1">  1       -4 0.14718591E-01 0.12499812E+03</pdfrwt>
<totfact> 0.19823933E+03</totfact>
</mgrwt>
</event>
<event>
 5    1  0.1451195E-002  0.1249981E+03  0.7818608E-02  0.1235072E+00
          4   -1    0    0  501    0  0.00000000000E+00  0.00000000000E+00  0.75954620451E+02  0.75965237233E+02  0.12700000000E+01 0. -1.
         -4   -1    0    0    0  501 -0.00000000000E+00 -0.00000000000E+00 -0.51405140575E+02  0.51420826301E+02  0.12700000000E+01 0. -1.
         25    2    1    2    0    0  0.00000000000E+00  0.00000000000E+00  0.24549479876E+02  0.12738606353E+03  0.12499812887E+03 0.  0.
    9000005    1    3    3    0    0 -0.52034439144E+02  0.33553620945E+02  0.20904371937E+02  0.65356109903E+02  0.10000000000E+01 0.  0.
    9000005    1    3    3    0    0  0.52034439144E+02 -0.33553620945E+02  0.36451079390E+01  0.62029953631E+02  0.10000000000E+01 0.  0.
<mgrwt>
<rscale>  0 0.12499813E+03</rscale>
<asrwt>0</asrwt>
<pdfrwt beam="1">  1        4 0.18991943E-01 0.12499813E+03</pdfrwt>
<pdfrwt beam="2">  1       -4 0.12854573E-01 0.12499813E+03</pdfrwt>
<totfact> 0.19706868E+03</totfact>
</mgrwt>
</event>
<event>
 5    1  0.1451195E-002  0.1250050E+03  0.7818608E-02  0.1235061E+00
          4   -1    0    0  501    0  0.00000000000E+00  0.00000000000E+00  0.14708837699E+03  0.14709385965E+03  0.12700000000E+01 0. -1.
         -4   -1    0    0    0  501 -0.00000000000E+00 -0.00000000000E+00 -0.26538138148E+02  0.26568509111E+02  0.12700000000E+01 0. -1.
         25    2    1    2    0    0  0.00000000000E+00  0.00000000000E+00  0.12055023884E+03  0.17366236876E+03  0.12500503285E+03 0.  0.
    9000005    1    3    3    0    0 -0.16570754687E+02  0.53935252067E+02  0.97603208895E+02  0.11274301625E+03  0.10000000000E+01 0.  0.
    9000005    1    3    3    0    0  0.16570754687E+02 -0.53935252067E+02  0.22947029946E+02  0.60919352506E+02  0.10000000000E+01 0.  0.
<mgrwt>
<rscale>  0 0.12500503E+03</rscale>
<asrwt>0</asrwt>
<pdfrwt beam="1">  1        4 0.36776576E-01 0.12500503E+03</pdfrwt>
<pdfrwt beam="2">  1       -4 0.66390163E-02 0.12500503E+03</pdfrwt>
<totfact> 0.17431077E+03</totfact>
</mgrwt>
</event>
<event>
 5    1  0.1451195E-002  0.1250004E+03  0.7818608E-02  0.1235069E+00
          4   -1    0    0  501    0  0.00000000000E+00  0.00000000000E+00  0.89091666189E+01  0.89992305139E+01  0.12700000000E+01 0. -1.
         -4   -1    0    0    0  501 -0.00000000000E+00 -0.00000000000E+00 -0.43615950923E+03  0.43616135820E+03  0.12700000000E+01 0. -1.
         25    2    1    2    0    0  0.00000000000E+00  0.00000000000E+00 -0.42725034261E+03  0.44516058872E+03  0.12500037795E+03 0.  0.
    9000005    1    3    3    0    0 -0.10562003980E+02 -0.26688222183E+02 -0.41131457979E+03  0.41231602040E+03  0.10000000000E+01 0.  0.
    9000005    1    3    3    0    0  0.10562003980E+02  0.26688222183E+02 -0.15935762821E+02  0.32844568318E+02  0.10000000000E+01 0.  0.
<mgrwt>
<rscale>  0 0.12500038E+03</rscale>
<asrwt>0</asrwt>
<pdfrwt beam="1">  1        4 0.22387822E-02 0.12500038E+03</pdfrwt>
<pdfrwt beam="2">  1       -4 0.10905129E+00 0.12500038E+03</pdfrwt>
<totfact> 0.96891584E+02</totfact>
</mgrwt>
</event>
<event>
 5    1  0.1451195E-002  0.1250467E+03  0.7818608E-02  0.1234996E+00
          4   -1    0    0  501    0  0.00000000000E+00  0.00000000000E+00  0.59837881339E+02  0.59851357070E+02  0.12700000000E+01 0.  1.
         -4   -1    0    0    0  501 -0.00000000000E+00 -0.00000000000E+00 -0.65302336222E+02  0.65314684537E+02  0.12700000000E+01 0.  1.
         25    2    1    2    0    0  0.00000000000E+00  0.00000000000E+00 -0.54644548833E+01  0.12516604161E+03  0.12504670209E+03 0.  0.
    9000005    1    3    3    0    0 -0.61818155391E+02  0.44403607982E+01 -0.10923452670E+02  0.62940630424E+02  0.10000000000E+01 0.  0.
    9000005    1    3    3    0    0  0.61818155391E+02 -0.44403607982E+01  0.54589977863E+01  0.62225411183E+02  0.10000000000E+01 0.  0.
<mgrwt>
<rscale>  0 0.12504670E+03</rscale>
<asrwt>0</asrwt>
<pdfrwt beam="1">  1        4 0.14962698E-01 0.12504670E+03</pdfrwt>
<pdfrwt beam="2">  1       -4 0.16328812E-01 0.12504670E+03</pdfrwt>
<totfact> 0.19804404E+03</totfact>
</mgrwt>
</event>
<event>
 5    1  0.1451195E-002  0.1249955E+03  0.7818608E-02  0.1235076E+00
          4   -1    0    0  501    0  0.00000000000E+00  0.00000000000E+00  0.15038760895E+02  0.15092290391E+02  0.12700000000E+01 0. -1.
         -4   -1    0    0    0  501 -0.00000000000E+00 -0.00000000000E+00 -0.25921033721E+03  0.25921344837E+03  0.12700000000E+01 0. -1.
         25    2    1    2    0    0  0.00000000000E+00  0.00000000000E+00 -0.24417157631E+03  0.27430573876E+03  0.12499551847E+03 0.  0.
    9000005    1    3    3    0    0 -0.63458295442E+00 -0.59885868153E+02 -0.82936428417E+02  0.10230430616E+03  0.10000000000E+01 0.  0.
    9000005    1    3    3    0    0  0.63458295442E+00  0.59885868153E+02 -0.16123514790E+03  0.17200143260E+03  0.10000000000E+01 0.  0.
<mgrwt>
<rscale>  0 0.12499552E+03</rscale>
<asrwt>0</asrwt>
<pdfrwt beam="1">  1        4 0.37667711E-02 0.12499552E+03</pdfrwt>
<pdfrwt beam="2">  1       -4 0.64809650E-01 0.12499552E+03</pdfrwt>
<totfact> 0.13724437E+03</totfact>
</mgrwt>
</event>
<event>
 5    1  0.1451195E-002  0.1250043E+03  0.7818608E-02  0.1235063E+00
         -4   -1    0    0    0  501 -0.00000000000E+00  0.00000000000E+00  0.64801786631E+01  0.66034548159E+01  0.12700000000E+01 0. -1.
          4   -1    0    0  501    0  0.00000000000E+00 -0.00000000000E+00 -0.59703734634E+03  0.59703869709E+03  0.12700000000E+01 0. -1.
         25    2    1    2    0    0  0.00000000000E+00  0.00000000000E+00 -0.59055716768E+03  0.60364215191E+03  0.12500431699E+03 0.  0.
    9000005    1    3    3    0    0  0.49453510097E+02  0.68838357012E+01 -0.47676584888E+03  0.47937429167E+03  0.10000000000E+01 0.  0.
    9000005    1    3    3    0    0 -0.49453510097E+02 -0.68838357012E+01 -0.11379131880E+03  0.12426786024E+03  0.10000000000E+01 0.  0.
<mgrwt>
<rscale>  0 0.12500432E+03</rscale>
<asrwt>0</asrwt>
<pdfrwt beam="2">  1        4 0.14927473E+00 0.12500432E+03</pdfrwt>
<pdfrwt beam="1">  1       -4 0.16356251E-02 0.12500432E+03</pdfrwt>
<totfact> 0.73039483E+02</totfact>
</mgrwt>
</event>
<event>
 5    1  0.1451195E-002  0.1249992E+03  0.7818608E-02  0.1235071E+00
          4   -1    0    0  501    0  0.00000000000E+00  0.00000000000E+00  0.16114935070E+02  0.16164901247E+02  0.12700000000E+01 0.  1.
         -4   -1    0    0    0  501 -0.00000000000E+00 -0.00000000000E+00 -0.24196944851E+03  0.24197278135E+03  0.12700000000E+01 0.  1.
         25    2    1    2    0    0  0.00000000000E+00  0.00000000000E+00 -0.22585451344E+03  0.25813768260E+03  0.12499920773E+03 0.  0.
    9000005    1    3    3    0    0  0.25774419434E+02  0.39010452291E+02 -0.19855021322E+03  0.20398363477E+03  0.10000000000E+01 0.  0.
    9000005    1    3    3    0    0 -0.25774419434E+02 -0.39010452291E+02 -0.27304300224E+02  0.54154047825E+02  0.10000000000E+01 0.  0.
<mgrwt>
<rscale>  0 0.12499921E+03</rscale>
<asrwt>0</asrwt>
<pdfrwt beam="1">  1        4 0.40353969E-02 0.12499921E+03</pdfrwt>
<pdfrwt beam="2">  1       -4 0.60499013E-01 0.12499921E+03</pdfrwt>
<totfact> 0.14231409E+03</totfact>
</mgrwt>
</event>
<event>
 5    1  0.1451195E-002  0.1250029E+03  0.7818608E-02  0.1235065E+00
          4   -1    0    0  501    0  0.00000000000E+00  0.00000000000E+00  0.31950474789E+03  0.31950727194E+03  0.12700000000E+01 0. -1.
         -4   -1    0    0    0  501 -0.00000000000E+00 -0.00000000000E+00 -0.12190953575E+02  0.12256926575E+02  0.12700000000E+01 0. -1.
         25    2    1    2    0    0  0.00000000000E+00  0.00000000000E+00  0.30731379432E+03  0.33176419852E+03  0.12500286094E+03 0.  0.
    9000005    1    3    3    0    0 -0.49745205387E+02  0.77157981850E+01  0.25193966013E+03  0.25692160545E+03  0.10000000000E+01 0.  0.
    9000005    1    3    3    0    0  0.49745205387E+02 -0.77157981850E+01  0.55374134190E+02  0.74842593073E+02  0.10000000000E+01 0.  0.
<mgrwt>
<rscale>  0 0.12500286E+03</rscale>
<asrwt>0</asrwt>
<pdfrwt beam="1">  1        4 0.79884745E-01 0.12500286E+03</pdfrwt>
<pdfrwt beam="2">  1       -4 0.30563007E-02 0.12500286E+03</pdfrwt>
<totfact> 0.12124499E+03</totfact>
</mgrwt>
</event>
<event>
 5    1  0.1451195E-002  0.1249986E+03  0.7818608E-02  0.1235072E+00
         -4   -1    0    0    0  501 -0.00000000000E+00  0.00000000000E+00  0.35877027905E+02  0.35899499040E+02  0.12700000000E+01 0.  1.
          4   -1    0    0  501    0  0.00000000000E+00 -0.00000000000E+00 -0.10881607568E+03  0.10882348656E+03  0.12700000000E+01 0.  1.
         25    2    1    2    0    0  0.00000000000E+00  0.00000000000E+00 -0.72939047779E+02  0.14472298560E+03  0.12499855147E+03 0.  0.
    9000005    1    3    3    0    0  0.30686477621E+02  0.54402051132E+02 -0.34178257542E+02  0.71206715728E+02  0.10000000000E+01 0.  0.
    9000005    1    3    3    0    0 -0.30686477621E+02 -0.54402051132E+02 -0.38760790237E+02  0.73516269873E+02  0.10000000000E+01 0.  0.
<mgrwt>
<rscale>  0 0.12499855E+03</rscale>
<asrwt>0</asrwt>
<pdfrwt beam="2">  1        4 0.27207753E-01 0.12499855E+03</pdfrwt>
<pdfrwt beam="1">  1       -4 0.89729925E-02 0.12499855E+03</pdfrwt>
<totfact> 0.18801899E+03</totfact>
</mgrwt>
</event>
<event>
 5    1  0.1451195E-002  0.1250017E+03  0.7818608E-02  0.1235067E+00
          4   -1    0    0  501    0  0.00000000000E+00  0.00000000000E+00  0.26640524679E+02  0.26670779051E+02  0.12700000000E+01 0.  1.
         -4   -1    0    0    0  501 -0.00000000000E+00 -0.00000000000E+00 -0.14651591593E+03  0.14652142001E+03  0.12700000000E+01 0.  1.
         25    2    1    2    0    0  0.00000000000E+00  0.00000000000E+00 -0.11987539125E+03  0.17319219906E+03  0.12500171354E+03 0.  0.
    9000005    1    3    3    0    0 -0.50036222073E+02  0.65564015565E+01 -0.88658341456E+01  0.51246589504E+02  0.10000000000E+01 0.  0.
    9000005    1    3    3    0    0  0.50036222073E+02 -0.65564015565E+01 -0.11100955711E+03  0.12194560955E+03  0.10000000000E+01 0.  0.
<mgrwt>
<rscale>  0 0.12500171E+03</rscale>
<asrwt>0</asrwt>
<pdfrwt beam="1">  1        4 0.66646014E-02 0.12500171E+03</pdfrwt>
<pdfrwt beam="2">  1       -4 0.36633447E-01 0.12500171E+03</pdfrwt>
<totfact> 0.17453325E+03</totfact>
</mgrwt>
</event>
<event>
 5    1  0.1451195E-002  0.1250044E+03  0.7818608E-02  0.1235062E+00
         -4   -1    0    0    0  501 -0.00000000000E+00  0.00000000000E+00  0.59012060720E+03  0.59012197379E+03  0.12700000000E+01 0. -1.
          4   -1    0    0  501    0  0.00000000000E+00 -0.00000000000E+00 -0.65575804739E+01  0.66794282444E+01  0.12700000000E+01 0. -1.
         25    2    1    2    0    0  0.00000000000E+00  0.00000000000E+00  0.58356302673E+03  0.59680140203E+03  0.12500442912E+03 0.  0.
    9000005    1    3    3    0    0  0.13252369210E+02  0.51881431002E+02  0.44561427874E+03  0.44882111536E+03  0.10000000000E+01 0.  0.
    9000005    1    3    3    0    0 -0.13252369210E+02 -0.51881431002E+02  0.13794874799E+03  0.14798028667E+03  0.10000000000E+01 0.  0.
<mgrwt>
<rscale>  0 0.12500443E+03</rscale>
<asrwt>0</asrwt>
<pdfrwt beam="2">  1        4 0.16547971E-02 0.12500443E+03</pdfrwt>
<pdfrwt beam="1">  1       -4 0.14754554E+00 0.12500443E+03</pdfrwt>
<totfact> 0.73899415E+02</totfact>
</mgrwt>
</event>
<event>
 5    1  0.1451195E-002  0.1249975E+03  0.7818608E-02  0.1235073E+00
          4   -1    0    0  501    0  0.00000000000E+00  0.00000000000E+00  0.50546042149E+01  0.52117102538E+01  0.12700000000E+01 0. -1.
         -4   -1    0    0    0  501 -0.00000000000E+00 -0.00000000000E+00 -0.76079591139E+03  0.76079697140E+03  0.12700000000E+01 0. -1.
         25    2    1    2    0    0  0.00000000000E+00  0.00000000000E+00 -0.75574130717E+03  0.76600868165E+03  0.12499750795E+03 0.  0.
    9000005    1    3    3    0    0  0.61021260779E+02 -0.77163730315E+01 -0.44554697061E+03  0.44977354268E+03  0.10000000000E+01 0.  0.
    9000005    1    3    3    0    0 -0.61021260779E+02  0.77163730315E+01 -0.31019433657E+03  0.31623513897E+03  0.10000000000E+01 0.  0.
<mgrwt>
<rscale>  0 0.12499751E+03</rscale>
<asrwt>0</asrwt>
<pdfrwt beam="1">  1        4 0.12834244E-02 0.12499751E+03</pdfrwt>
<pdfrwt beam="2">  1       -4 0.19021836E+00 0.12499751E+03</pdfrwt>
<totfact> 0.55565600E+02</totfact>
</mgrwt>
</event>
<event>
 5    1  0.1451195E-002  0.1249997E+03  0.7818608E-02  0.1235070E+00
          4   -1    0    0  501    0  0.00000000000E+00  0.00000000000E+00  0.75692960940E+01  0.76750989152E+01  0.12700000000E+01 0. -1.
         -4   -1    0    0    0  501 -0.00000000000E+00 -0.00000000000E+00 -0.51237444805E+03  0.51237602199E+03  0.12700000000E+01 0. -1.
         25    2    1    2    0    0  0.00000000000E+00  0.00000000000E+00 -0.50480515196E+03  0.52005112091E+03  0.12499970767E+03 0.  0.
    9000005    1    3    3    0    0  0.33214057340E+02 -0.31139407458E+02 -0.43049548962E+03  0.43289745078E+03  0.10000000000E+01 0.  0.
    9000005    1    3    3    0    0 -0.33214057340E+02  0.31139407458E+02 -0.74309662332E+02  0.87153670134E+02  0.10000000000E+01 0.  0.
<mgrwt>
<rscale>  0 0.12499971E+03</rscale>
<asrwt>0</asrwt>
<pdfrwt beam="1">  1        4 0.19057479E-02 0.12499971E+03</pdfrwt>
<pdfrwt beam="2">  1       -4 0.12810692E+00 0.12499971E+03</pdfrwt>
<totfact> 0.84504045E+02</totfact>
</mgrwt>
</event>
<event>
 5    1  0.1451195E-002  0.1250028E+03  0.7818608E-02  0.1235065E+00
         -4   -1    0    0    0  501 -0.00000000000E+00  0.00000000000E+00  0.49589666376E+03  0.49589829001E+03  0.12700000000E+01 0. -1.
          4   -1    0    0  501    0  0.00000000000E+00 -0.00000000000E+00 -0.78246673971E+01  0.79270624998E+01  0.12700000000E+01 0. -1.
         25    2    1    2    0    0  0.00000000000E+00  0.00000000000E+00  0.48807199637E+03  0.50382535251E+03  0.12500284873E+03 0.  0.
    9000005    1    3    3    0    0  0.10240251485E+02 -0.27575490203E+02  0.46626879840E+03  0.46719681374E+03  0.10000000000E+01 0.  0.
    9000005    1    3    3    0    0 -0.10240251485E+02  0.27575490203E+02  0.21803197966E+02  0.36628538764E+02  0.10000000000E+01 0.  0.
<mgrwt>
<rscale>  0 0.12500285E+03</rscale>
<asrwt>0</asrwt>
<pdfrwt beam="2">  1        4 0.19691697E-02 0.12500285E+03</pdfrwt>
<pdfrwt beam="1">  1       -4 0.12398716E+00 0.12500285E+03</pdfrwt>
<totfact> 0.86996107E+02</totfact>
</mgrwt>
</event>
<event>
 5    1  0.1451195E-002  0.1249822E+03  0.7818608E-02  0.1235097E+00
         -4   -1    0    0    0  501 -0.00000000000E+00  0.00000000000E+00  0.89212658687E+02  0.89221697865E+02  0.12700000000E+01 0. -1.
          4   -1    0    0  501    0  0.00000000000E+00 -0.00000000000E+00 -0.43752888551E+02  0.43771316596E+02  0.12700000000E+01 0. -1.
         25    2    1    2    0    0  0.00000000000E+00  0.00000000000E+00  0.45459770136E+02  0.13299301446E+03  0.12498220351E+03 0.  0.
    9000005    1    3    3    0    0 -0.14187160742E+02 -0.28427435132E+02  0.79981227430E+02  0.86066203235E+02  0.10000000000E+01 0.  0.
    9000005    1    3    3    0    0  0.14187160742E+02  0.28427435132E+02 -0.34521457294E+02  0.46926811226E+02  0.10000000000E+01 0.  0.
<mgrwt>
<rscale>  0 0.12498220E+03</rscale>
<asrwt>0</asrwt>
<pdfrwt beam="2">  1        4 0.10941656E-01 0.12498220E+03</pdfrwt>
<pdfrwt beam="1">  1       -4 0.22306598E-01 0.12498220E+03</pdfrwt>
<totfact> 0.19412845E+03</totfact>
</mgrwt>
</event>
<event>
 5    1  0.1451195E-002  0.1250026E+03  0.7818608E-02  0.1235065E+00
         -4   -1    0    0    0  501 -0.00000000000E+00  0.00000000000E+00  0.14347854316E+03  0.14348416375E+03  0.12700000000E+01 0. -1.
          4   -1    0    0  501    0  0.00000000000E+00 -0.00000000000E+00 -0.27205500707E+02  0.27235127478E+02  0.12700000000E+01 0. -1.
         25    2    1    2    0    0  0.00000000000E+00  0.00000000000E+00  0.11627304245E+03  0.17071929123E+03  0.12500262396E+03 0.  0.
    9000005    1    3    3    0    0 -0.33119257825E+02 -0.68082653850E+01 -0.13641117216E+02  0.36473521839E+02  0.10000000000E+01 0.  0.
    9000005    1    3    3    0    0  0.33119257825E+02  0.68082653850E+01  0.12991415967E+03  0.13424576939E+03  0.10000000000E+01 0.  0.
<mgrwt>
<rscale>  0 0.12500262E+03</rscale>
<asrwt>0</asrwt>
<pdfrwt beam="2">  1        4 0.68057813E-02 0.12500262E+03</pdfrwt>
<pdfrwt beam="1">  1       -4 0.35874040E-01 0.12500262E+03</pdfrwt>
<totfact> 0.17563583E+03</totfact>
</mgrwt>
</event>
<event>
 5    1  0.1451195E-002  0.1249999E+03  0.7818608E-02  0.1235069E+00
         -4   -1    0    0    0  501 -0.00000000000E+00  0.00000000000E+00  0.11624838392E+03  0.11625532101E+03  0.12700000000E+01 0.  1.
          4   -1    0    0  501    0  0.00000000000E+00 -0.00000000000E+00 -0.33582599870E+02  0.33606605215E+02  0.12700000000E+01 0.  1.
         25    2    1    2    0    0  0.00000000000E+00  0.00000000000E+00  0.82665784050E+02  0.14986192623E+03  0.12499986032E+03 0.  0.
    9000005    1    3    3    0    0 -0.42644114709E+02  0.32250479176E+01  0.95962603550E+02  0.10506542121E+03  0.10000000000E+01 0.  0.
    9000005    1    3    3    0    0  0.42644114709E+02 -0.32250479176E+01 -0.13296819500E+02  0.44796505022E+02  0.10000000000E+01 0.  0.
<mgrwt>
<rscale>  0 0.12499986E+03</rscale>
<asrwt>0</asrwt>
<pdfrwt beam="2">  1        4 0.83995178E-02 0.12499986E+03</pdfrwt>
<pdfrwt beam="1">  1       -4 0.29065964E-01 0.12499986E+03</pdfrwt>
<totfact> 0.18545632E+03</totfact>
</mgrwt>
</event>
<event>
 5    1  0.1451195E-002  0.1250005E+03  0.7818608E-02  0.1235069E+00
          4   -1    0    0  501    0  0.00000000000E+00  0.00000000000E+00  0.79319348105E+02  0.79329514581E+02  0.12700000000E+01 0. -1.
         -4   -1    0    0    0  501 -0.00000000000E+00 -0.00000000000E+00 -0.49225996446E+02  0.49242376325E+02  0.12700000000E+01 0. -1.
         25    2    1    2    0    0  0.00000000000E+00  0.00000000000E+00  0.30093351658E+02  0.12857189091E+03  0.12500048527E+03 0.  0.
    9000005    1    3    3    0    0  0.22772133247E+02  0.43557550899E+02 -0.24649374889E+02  0.54994744980E+02  0.10000000000E+01 0.  0.
    9000005    1    3    3    0    0 -0.22772133247E+02 -0.43557550899E+02  0.54742726547E+02  0.73577145927E+02  0.10000000000E+01 0.  0.
<mgrwt>
<rscale>  0 0.12500049E+03</rscale>
<asrwt>0</asrwt>
<pdfrwt beam="1">  1        4 0.19833155E-01 0.12500049E+03</pdfrwt>
<pdfrwt beam="2">  1       -4 0.12309817E-01 0.12500049E+03</pdfrwt>
<totfact> 0.19641252E+03</totfact>
</mgrwt>
</event>
<event>
 5    1  0.1451195E-002  0.1249980E+03  0.7818608E-02  0.1235072E+00
         -4   -1    0    0    0  501 -0.00000000000E+00  0.00000000000E+00  0.43958722636E+03  0.43958906092E+03  0.12700000000E+01 0. -1.
          4   -1    0    0  501    0  0.00000000000E+00 -0.00000000000E+00 -0.88386544489E+01  0.89294295712E+01  0.12700000000E+01 0. -1.
         25    2    1    2    0    0  0.00000000000E+00  0.00000000000E+00  0.43074857191E+03  0.44851849049E+03  0.12499801641E+03 0.  0.
    9000005    1    3    3    0    0 -0.50544892862E+02 -0.32585153495E+02  0.15442256577E+03  0.16572238002E+03  0.10000000000E+01 0.  0.
    9000005    1    3    3    0    0  0.50544892862E+02  0.32585153495E+02  0.27632600615E+03  0.28279611047E+03  0.10000000000E+01 0.  0.
<mgrwt>
<rscale>  0 0.12499802E+03</rscale>
<asrwt>0</asrwt>
<pdfrwt beam="2">  1        4 0.22212399E-02 0.12499802E+03</pdfrwt>
<pdfrwt beam="1">  1       -4 0.10990838E+00 0.12499802E+03</pdfrwt>
<totfact> 0.96287893E+02</totfact>
</mgrwt>
</event>
<event>
 5    1  0.1451195E-002  0.1249994E+03  0.7818608E-02  0.1235070E+00
          4   -1    0    0  501    0  0.00000000000E+00  0.00000000000E+00  0.15868077168E+02  0.15918818204E+02  0.12700000000E+01 0.  1.
         -4   -1    0    0    0  501 -0.00000000000E+00 -0.00000000000E+00 -0.24572251393E+03  0.24572579586E+03  0.12700000000E+01 0.  1.
         25    2    1    2    0    0  0.00000000000E+00  0.00000000000E+00 -0.22985443676E+03  0.26164461406E+03  0.12499936788E+03 0.  0.
    9000005    1    3    3    0    0 -0.23099690312E+02 -0.28009697838E+02 -0.84618873041E+01  0.37292658825E+02  0.10000000000E+01 0.  0.
    9000005    1    3    3    0    0  0.23099690312E+02  0.28009697838E+02 -0.22139254945E+03  0.22435195524E+03  0.10000000000E+01 0.  0.
<mgrwt>
<rscale>  0 0.12499937E+03</rscale>
<asrwt>0</asrwt>
<pdfrwt beam="1">  1        4 0.39737729E-02 0.12499937E+03</pdfrwt>
<pdfrwt beam="2">  1       -4 0.61437369E-01 0.12499937E+03</pdfrwt>
<totfact> 0.14118699E+03</totfact>
</mgrwt>
</event>
<event>
 5    1  0.1451195E-002  0.1249943E+03  0.7818608E-02  0.1235078E+00
          4   -1    0    0  501    0  0.00000000000E+00  0.00000000000E+00  0.19827685755E+03  0.19828092480E+03  0.12700000000E+01 0.  1.
         -4   -1    0    0    0  501 -0.00000000000E+00 -0.00000000000E+00 -0.19674457107E+02  0.19715404192E+02  0.12700000000E+01 0.  1.
         25    2    1    2    0    0  0.00000000000E+00  0.00000000000E+00  0.17860240044E+03  0.21799632899E+03  0.12499432791E+03 0.  0.
    9000005    1    3    3    0    0  0.57252503956E+02  0.20780194848E+01  0.13282312721E+03  0.14465528160E+03  0.10000000000E+01 0.  0.
    9000005    1    3    3    0    0 -0.57252503956E+02 -0.20780194848E+01  0.45779273235E+02  0.73341047389E+02  0.10000000000E+01 0.  0.
<mgrwt>
<rscale>  0 0.12499433E+03</rscale>
<asrwt>0</asrwt>
<pdfrwt beam="1">  1        4 0.49574841E-01 0.12499433E+03</pdfrwt>
<pdfrwt beam="2">  1       -4 0.49242411E-02 0.12499433E+03</pdfrwt>
<totfact> 0.15627976E+03</totfact>
</mgrwt>
</event>
<event>
 5    1  0.1451195E-002  0.1250012E+03  0.7818608E-02  0.1235067E+00
          4   -1    0    0  501    0  0.00000000000E+00  0.00000000000E+00  0.42595338373E+02  0.42614266990E+02  0.12700000000E+01 0. -1.
         -4   -1    0    0    0  501 -0.00000000000E+00 -0.00000000000E+00 -0.91664069497E+02  0.91672866961E+02  0.12700000000E+01 0. -1.
         25    2    1    2    0    0  0.00000000000E+00  0.00000000000E+00 -0.49068731124E+02  0.13428713395E+03  0.12500117588E+03 0.  0.
    9000005    1    3    3    0    0  0.20589978149E+02 -0.32737843800E+02  0.28199993722E+02  0.47874348693E+02  0.10000000000E+01 0.  0.
    9000005    1    3    3    0    0 -0.20589978149E+02  0.32737843800E+02 -0.77268724846E+02  0.86412785259E+02  0.10000000000E+01 0.  0.
<mgrwt>
<rscale>  0 0.12500118E+03</rscale>
<asrwt>0</asrwt>
<pdfrwt beam="1">  1        4 0.10652301E-01 0.12500118E+03</pdfrwt>
<pdfrwt beam="2">  1       -4 0.22919483E-01 0.12500118E+03</pdfrwt>
<totfact> 0.19336011E+03</totfact>
</mgrwt>
</event>
<event>
 5    1  0.1451195E-002  0.1249966E+03  0.7818608E-02  0.1235075E+00
          4   -1    0    0  501    0  0.00000000000E+00  0.00000000000E+00  0.48013004358E+03  0.48013172323E+03  0.12700000000E+01 0.  1.
         -4   -1    0    0    0  501 -0.00000000000E+00 -0.00000000000E+00 -0.80840994137E+01  0.81832489472E+01  0.12700000000E+01 0.  1.
         25    2    1    2    0    0  0.00000000000E+00  0.00000000000E+00  0.47204594417E+03  0.48831497218E+03  0.12499655453E+03 0.  0.
    9000005    1    3    3    0    0  0.32692274245E+02  0.21935565015E+02  0.46437563386E+02  0.60888431587E+02  0.10000000000E+01 0.  0.
    9000005    1    3    3    0    0 -0.32692274245E+02 -0.21935565015E+02  0.42560838078E+03  0.42742654059E+03  0.10000000000E+01 0.  0.
<mgrwt>
<rscale>  0 0.12499655E+03</rscale>
<asrwt>0</asrwt>
<pdfrwt beam="1">  1        4 0.12004511E+00 0.12499655E+03</pdfrwt>
<pdfrwt beam="2">  1       -4 0.20336285E-02 0.12499655E+03</pdfrwt>
<totfact> 0.89501840E+02</totfact>
</mgrwt>
</event>
<event>
 5    1  0.1451195E-002  0.1249762E+03  0.7818608E-02  0.1235107E+00
         -4   -1    0    0    0  501 -0.00000000000E+00  0.00000000000E+00  0.32529202828E+03  0.32529450743E+03  0.12700000000E+01 0. -1.
          4   -1    0    0  501    0  0.00000000000E+00 -0.00000000000E+00 -0.11967741737E+02  0.12034938400E+02  0.12700000000E+01 0. -1.
         25    2    1    2    0    0  0.00000000000E+00  0.00000000000E+00  0.31332428654E+03  0.33732944583E+03  0.12497618367E+03 0.  0.
    9000005    1    3    3    0    0  0.53954776025E+02  0.19795417488E+02  0.90503496850E+02  0.10721408187E+03  0.10000000000E+01 0.  0.
    9000005    1    3    3    0    0 -0.53954776025E+02 -0.19795417488E+02  0.22282078969E+03  0.23011536396E+03  0.10000000000E+01 0.  0.
<mgrwt>
<rscale>  0 0.12497618E+03</rscale>
<asrwt>0</asrwt>
<pdfrwt beam="2">  1        4 0.30006448E-02 0.12497618E+03</pdfrwt>
<pdfrwt beam="1">  1       -4 0.81331718E-01 0.12497618E+03</pdfrwt>
<totfact> 0.11992293E+03</totfact>
</mgrwt>
</event>
<event>
 5    1  0.1451195E-002  0.1249989E+03  0.7818608E-02  0.1235071E+00
         -4   -1    0    0    0  501 -0.00000000000E+00  0.00000000000E+00  0.15104547695E+03  0.15105081597E+03  0.12700000000E+01 0.  1.
          4   -1    0    0  501    0  0.00000000000E+00 -0.00000000000E+00 -0.25839564141E+02  0.25870755208E+02  0.12700000000E+01 0.  1.
         25    2    1    2    0    0  0.00000000000E+00  0.00000000000E+00  0.12520591281E+03  0.17692157118E+03  0.12499888699E+03 0.  0.
    9000005    1    3    3    0    0 -0.48162829483E+02 -0.31309901154E+02  0.97422938556E+02  0.11310259507E+03  0.10000000000E+01 0.  0.
    9000005    1    3    3    0    0  0.48162829483E+02  0.31309901154E+02  0.27782974251E+02  0.63818976114E+02  0.10000000000E+01 0.  0.
<mgrwt>
<rscale>  0 0.12499889E+03</rscale>
<asrwt>0</asrwt>
<pdfrwt beam="2">  1        4 0.64644574E-02 0.12499889E+03</pdfrwt>
<pdfrwt beam="1">  1       -4 0.37765935E-01 0.12499889E+03</pdfrwt>
<totfact> 0.17289745E+03</totfact>
</mgrwt>
</event>
<event>
 5    1  0.1451195E-002  0.1250009E+03  0.7818608E-02  0.1235068E+00
          4   -1    0    0  501    0  0.00000000000E+00  0.00000000000E+00  0.11152644467E+04  0.11152651698E+04  0.12700000000E+01 0. -1.
         -4   -1    0    0    0  501 -0.00000000000E+00 -0.00000000000E+00 -0.33867112159E+01  0.36170032983E+01  0.12700000000E+01 0. -1.
         25    2    1    2    0    0  0.00000000000E+00  0.00000000000E+00  0.11118777355E+04  0.11188821731E+04  0.12500087446E+03 0.  0.
    9000005    1    3    3    0    0  0.46894454949E+02 -0.28521862336E+02  0.82338016962E+03  0.82520814965E+03  0.10000000000E+01 0.  0.
    9000005    1    3    3    0    0 -0.46894454949E+02  0.28521862336E+02  0.28849756587E+03  0.29367402345E+03  0.10000000000E+01 0.  0.
<mgrwt>
<rscale>  0 0.12500087E+03</rscale>
<asrwt>0</asrwt>
<pdfrwt beam="1">  1        4 0.27884502E+00 0.12500087E+03</pdfrwt>
<pdfrwt beam="2">  1       -4 0.87555461E-03 0.12500087E+03</pdfrwt>
<totfact> 0.29673857E+02</totfact>
</mgrwt>
</event>
<event>
 5    1  0.1451195E-002  0.1250028E+03  0.7818608E-02  0.1235065E+00
          4   -1    0    0  501    0  0.00000000000E+00  0.00000000000E+00  0.44952159976E+02  0.44970096581E+02  0.12700000000E+01 0. -1.
         -4   -1    0    0    0  501 -0.00000000000E+00 -0.00000000000E+00 -0.86861883355E+02  0.86871167139E+02  0.12700000000E+01 0. -1.
         25    2    1    2    0    0  0.00000000000E+00  0.00000000000E+00 -0.41909723379E+02  0.13184126372E+03  0.12500277559E+03 0.  0.
    9000005    1    3    3    0    0  0.31023221407E+02  0.31374390467E+01  0.36166437138E+02  0.47762903654E+02  0.10000000000E+01 0.  0.
    9000005    1    3    3    0    0 -0.31023221407E+02 -0.31374390467E+01 -0.78076160517E+02  0.84078360065E+02  0.10000000000E+01 0.  0.
<mgrwt>
<rscale>  0 0.12500278E+03</rscale>
<asrwt>0</asrwt>
<pdfrwt beam="1">  1        4 0.11241443E-01 0.12500278E+03</pdfrwt>
<pdfrwt beam="2">  1       -4 0.21718873E-01 0.12500278E+03</pdfrwt>
<totfact> 0.19464638E+03</totfact>
</mgrwt>
</event>
<event>
 5    1  0.1451195E-002  0.1250017E+03  0.7818608E-02  0.1235067E+00
         -4   -1    0    0    0  501 -0.00000000000E+00  0.00000000000E+00  0.47196946981E+03  0.47197117850E+03  0.12700000000E+01 0. -1.
          4   -1    0    0  501    0  0.00000000000E+00 -0.00000000000E+00 -0.82262604584E+01  0.83237167858E+01  0.12700000000E+01 0. -1.
         25    2    1    2    0    0  0.00000000000E+00  0.00000000000E+00  0.46374320935E+03  0.48029489529E+03  0.12500168885E+03 0.  0.
    9000005    1    3    3    0    0  0.24499859465E+02 -0.57413844981E+02  0.24324564197E+03  0.25112951847E+03  0.10000000000E+01 0.  0.
    9000005    1    3    3    0    0 -0.24499859465E+02  0.57413844981E+02  0.22049756738E+03  0.22916537681E+03  0.10000000000E+01 0.  0.
<mgrwt>
<rscale>  0 0.12500169E+03</rscale>
<asrwt>0</asrwt>
<pdfrwt beam="2">  1        4 0.20689607E-02 0.12500169E+03</pdfrwt>
<pdfrwt beam="1">  1       -4 0.11800477E+00 0.12500169E+03</pdfrwt>
<totfact> 0.90816494E+02</totfact>
</mgrwt>
</event>
<event>
 5    1  0.1451195E-002  0.1249922E+03  0.7818608E-02  0.1235081E+00
          4   -1    0    0  501    0  0.00000000000E+00  0.00000000000E+00  0.29106931204E+02  0.29134624489E+02  0.12700000000E+01 0.  1.
         -4   -1    0    0    0  501 -0.00000000000E+00 -0.00000000000E+00 -0.13409225143E+03  0.13409826544E+03  0.12700000000E+01 0.  1.
         25    2    1    2    0    0  0.00000000000E+00  0.00000000000E+00 -0.10498532022E+03  0.16323288993E+03  0.12499223532E+03 0.  0.
    9000005    1    3    3    0    0  0.20061036461E+02 -0.37450447446E+02 -0.11233545887E+03  0.12010510612E+03  0.10000000000E+01 0.  0.
    9000005    1    3    3    0    0 -0.20061036461E+02  0.37450447446E+02  0.73501386416E+01  0.43127783804E+02  0.10000000000E+01 0.  0.
<mgrwt>
<rscale>  0 0.12499224E+03</rscale>
<asrwt>0</asrwt>
<pdfrwt beam="1">  1        4 0.72809466E-02 0.12499224E+03</pdfrwt>
<pdfrwt beam="2">  1       -4 0.33527275E-01 0.12499224E+03</pdfrwt>
<totfact> 0.17909894E+03</totfact>
</mgrwt>
</event>
<event>
 5    1  0.1451195E-002  0.1250005E+03  0.7818608E-02  0.1235068E+00
          4   -1    0    0  501    0  0.00000000000E+00  0.00000000000E+00  0.77110540413E+02  0.77120998067E+02  0.12700000000E+01 0. -1.
         -4   -1    0    0    0  501 -0.00000000000E+00 -0.00000000000E+00 -0.50636377623E+02  0.50652301416E+02  0.12700000000E+01 0. -1.
         25    2    1    2    0    0  0.00000000000E+00  0.00000000000E+00  0.26474162790E+02  0.12777329948E+03  0.12500053906E+03 0.  0.
    9000005    1    3    3    0    0 -0.37256293714E+02  0.44758148696E+02 -0.99364943130E+01  0.59085169164E+02  0.10000000000E+01 0.  0.
    9000005    1    3    3    0    0  0.37256293714E+02 -0.44758148696E+02  0.36410657103E+02  0.68688130318E+02  0.10000000000E+01 0.  0.
<mgrwt>
<rscale>  0 0.12500054E+03</rscale>
<asrwt>0</asrwt>
<pdfrwt beam="1">  1        4 0.19280933E-01 0.12500054E+03</pdfrwt>
<pdfrwt beam="2">  1       -4 0.12662392E-01 0.12500054E+03</pdfrwt>
<totfact> 0.19684630E+03</totfact>
</mgrwt>
</event>
<event>
 5    1  0.1451195E-002  0.1249886E+03  0.7818608E-02  0.1235087E+00
          4   -1    0    0  501    0  0.00000000000E+00  0.00000000000E+00  0.84324005900E+03  0.84324101537E+03  0.12700000000E+01 0.  1.
         -4   -1    0    0    0  501 -0.00000000000E+00 -0.00000000000E+00 -0.45435465977E+01  0.47177023735E+01  0.12700000000E+01 0.  1.
         25    2    1    2    0    0  0.00000000000E+00  0.00000000000E+00  0.83869651240E+03  0.84795871774E+03  0.12498858780E+03 0.  0.
    9000005    1    3    3    0    0  0.30729712675E+02  0.11523987615E+02  0.78009253542E+03  0.78078324864E+03  0.10000000000E+01 0.  0.
    9000005    1    3    3    0    0 -0.30729712675E+02 -0.11523987615E+02  0.58603976975E+02  0.67175469101E+02  0.10000000000E+01 0.  0.
<mgrwt>
<rscale>  0 0.12498859E+03</rscale>
<asrwt>0</asrwt>
<pdfrwt beam="1">  1        4 0.21083193E+00 0.12498859E+03</pdfrwt>
<pdfrwt beam="2">  1       -4 0.11577755E-02 0.12498859E+03</pdfrwt>
<totfact> 0.48411000E+02</totfact>
</mgrwt>
</event>
<event>
 5    1  0.1451195E-002  0.1250032E+03  0.7818608E-02  0.1235064E+00
         -4   -1    0    0    0  501 -0.00000000000E+00  0.00000000000E+00  0.56696274229E+03  0.56696416469E+03  0.12700000000E+01 0.  1.
          4   -1    0    0  501    0  0.00000000000E+00 -0.00000000000E+00 -0.68301690901E+01  0.69472375660E+01  0.12700000000E+01 0.  1.
         25    2    1    2    0    0  0.00000000000E+00  0.00000000000E+00  0.56013257320E+03  0.57391140226E+03  0.12500319229E+03 0.  0.
    9000005    1    3    3    0    0  0.48416157761E+02 -0.33917200012E+02  0.37313797048E+03  0.37779286097E+03  0.10000000000E+01 0.  0.
    9000005    1    3    3    0    0 -0.48416157761E+02  0.33917200012E+02  0.18699460272E+03  0.19611854128E+03  0.10000000000E+01 0.  0.
<mgrwt>
<rscale>  0 0.12500319E+03</rscale>
<asrwt>0</asrwt>
<pdfrwt beam="2">  1        4 0.17223537E-02 0.12500319E+03</pdfrwt>
<pdfrwt beam="1">  1       -4 0.14175549E+00 0.12500319E+03</pdfrwt>
<totfact> 0.76881134E+02</totfact>
</mgrwt>
</event>
<event>
 5    1  0.1451195E-002  0.1250023E+03  0.7818608E-02  0.1235066E+00
          4   -1    0    0  501    0  0.00000000000E+00  0.00000000000E+00  0.70941844051E+01  0.72069655454E+01  0.12700000000E+01 0. -1.
         -4   -1    0    0    0  501 -0.00000000000E+00 -0.00000000000E+00 -0.54619140892E+03  0.54619288541E+03  0.12700000000E+01 0. -1.
         25    2    1    2    0    0  0.00000000000E+00  0.00000000000E+00 -0.53909722451E+03  0.55339985096E+03  0.12500231023E+03 0.  0.
    9000005    1    3    3    0    0 -0.36409575692E+02 -0.19997137865E+02 -0.62851471409E+02  0.75344874963E+02  0.10000000000E+01 0.  0.
    9000005    1    3    3    0    0  0.36409575692E+02  0.19997137865E+02 -0.47624575310E+03  0.47805497599E+03  0.10000000000E+01 0.  0.
<mgrwt>
<rscale>  0 0.12500231E+03</rscale>
<asrwt>0</asrwt>
<pdfrwt beam="1">  1        4 0.17878302E-02 0.12500231E+03</pdfrwt>
<pdfrwt beam="2">  1       -4 0.13656199E+00 0.12500231E+03</pdfrwt>
<totfact> 0.79690932E+02</totfact>
</mgrwt>
</event>
<event>
 5    1  0.1451195E-002  0.1249971E+03  0.7818608E-02  0.1235074E+00
         -4   -1    0    0    0  501 -0.00000000000E+00  0.00000000000E+00  0.85835591522E+01  0.86770033837E+01  0.12700000000E+01 0. -1.
          4   -1    0    0  501    0  0.00000000000E+00 -0.00000000000E+00 -0.45250606752E+03  0.45250784970E+03  0.12700000000E+01 0. -1.
         25    2    1    2    0    0  0.00000000000E+00  0.00000000000E+00 -0.44392250836E+03  0.46118485308E+03  0.12499710109E+03 0.  0.
    9000005    1    3    3    0    0 -0.61553062727E+02 -0.10707895395E+02 -0.22667215800E+03  0.23512699923E+03  0.10000000000E+01 0.  0.
    9000005    1    3    3    0    0  0.61553062727E+02  0.10707895395E+02 -0.21725035037E+03  0.22605785386E+03  0.10000000000E+01 0.  0.
<mgrwt>
<rscale>  0 0.12499710E+03</rscale>
<asrwt>0</asrwt>
<pdfrwt beam="2">  1        4 0.11313834E+00 0.12499710E+03</pdfrwt>
<pdfrwt beam="1">  1       -4 0.21577946E-02 0.12499710E+03</pdfrwt>
<totfact> 0.94049280E+02</totfact>
</mgrwt>
</event>
<event>
 5    1  0.1451195E-002  0.1250001E+03  0.7818608E-02  0.1235069E+00
         -4   -1    0    0    0  501 -0.00000000000E+00  0.00000000000E+00  0.14160933016E+02  0.14217767894E+02  0.12700000000E+01 0. -1.
          4   -1    0    0  501    0  0.00000000000E+00 -0.00000000000E+00 -0.27523665445E+03  0.27523958445E+03  0.12700000000E+01 0. -1.
         25    2    1    2    0    0  0.00000000000E+00  0.00000000000E+00 -0.26107572143E+03  0.28945735235E+03  0.12500010603E+03 0.  0.
    9000005    1    3    3    0    0  0.46142683287E+02 -0.67863398755E+00 -0.22811604838E+03  0.23273920875E+03  0.10000000000E+01 0.  0.
    9000005    1    3    3    0    0 -0.46142683287E+02  0.67863398755E+00 -0.32959673054E+02  0.56718143595E+02  0.10000000000E+01 0.  0.
<mgrwt>
<rscale>  0 0.12500011E+03</rscale>
<asrwt>0</asrwt>
<pdfrwt beam="2">  1        4 0.68816617E-01 0.12500011E+03</pdfrwt>
<pdfrwt beam="1">  1       -4 0.35477048E-02 0.12500011E+03</pdfrwt>
<totfact> 0.13271733E+03</totfact>
</mgrwt>
</event>
<event>
 5    1  0.1451195E-002  0.1250011E+03  0.7818608E-02  0.1235068E+00
         -4   -1    0    0    0  501 -0.00000000000E+00  0.00000000000E+00  0.97718105954E+02  0.97726358426E+02  0.12700000000E+01 0. -1.
          4   -1    0    0  501    0  0.00000000000E+00 -0.00000000000E+00 -0.39955328893E+02  0.39975507588E+02  0.12700000000E+01 0. -1.
         25    2    1    2    0    0  0.00000000000E+00  0.00000000000E+00  0.57762777062E+02  0.13770186601E+03  0.12500106196E+03 0.  0.
    9000005    1    3    3    0    0  0.25687400446E+02  0.48902586397E+02 -0.33113426614E+01  0.55346820037E+02  0.10000000000E+01 0.  0.
    9000005    1    3    3    0    0 -0.25687400446E+02 -0.48902586397E+02  0.61074119723E+02  0.82355045977E+02  0.10000000000E+01 0.  0.
<mgrwt>
<rscale>  0 0.12500106E+03</rscale>
<asrwt>0</asrwt>
<pdfrwt beam="2">  1        4 0.99923862E-02 0.12500106E+03</pdfrwt>
<pdfrwt beam="1">  1       -4 0.24433080E-01 0.12500106E+03</pdfrwt>
<totfact> 0.19158061E+03</totfact>
</mgrwt>
</event>
<event>
 5    1  0.1451195E-002  0.1249950E+03  0.7818608E-02  0.1235077E+00
          4   -1    0    0  501    0  0.00000000000E+00  0.00000000000E+00  0.68241594046E+02  0.68253410595E+02  0.12700000000E+01 0.  1.
         -4   -1    0    0    0  501 -0.00000000000E+00 -0.00000000000E+00 -0.57213117581E+02  0.57227211389E+02  0.12700000000E+01 0.  1.
         25    2    1    2    0    0  0.00000000000E+00  0.00000000000E+00  0.11028476464E+02  0.12548062198E+03  0.12499503670E+03 0.  0.
    9000005    1    3    3    0    0 -0.40542643014E+01  0.62106442048E+02  0.11129948585E+02  0.63233875086E+02  0.10000000000E+01 0.  0.
    9000005    1    3    3    0    0  0.40542643014E+01 -0.62106442048E+02 -0.10147212090E+00  0.62246746899E+02  0.10000000000E+01 0.  0.
<mgrwt>
<rscale>  0 0.12499504E+03</rscale>
<asrwt>0</asrwt>
<pdfrwt beam="1">  1        4 0.17063637E-01 0.12499504E+03</pdfrwt>
<pdfrwt beam="2">  1       -4 0.14306518E-01 0.12499504E+03</pdfrwt>
<totfact> 0.19811313E+03</totfact>
</mgrwt>
</event>
<event>
 5    1  0.1451195E-002  0.1249994E+03  0.7818608E-02  0.1235070E+00
         -4   -1    0    0    0  501 -0.00000000000E+00  0.00000000000E+00  0.25506503573E+03  0.25506819746E+03  0.12700000000E+01 0. -1.
          4   -1    0    0  501    0  0.00000000000E+00 -0.00000000000E+00 -0.15284979761E+02  0.15337649960E+02  0.12700000000E+01 0. -1.
         25    2    1    2    0    0  0.00000000000E+00  0.00000000000E+00  0.23978005597E+03  0.27040584742E+03  0.12499938830E+03 0.  0.
    9000005    1    3    3    0    0  0.87457402079E+00  0.53750332612E+02  0.18882121946E+03  0.19632706399E+03  0.10000000000E+01 0.  0.
    9000005    1    3    3    0    0 -0.87457402079E+00 -0.53750332612E+02  0.50958836511E+02  0.74078783429E+02  0.10000000000E+01 0.  0.
<mgrwt>
<rscale>  0 0.12499939E+03</rscale>
<asrwt>0</asrwt>
<pdfrwt beam="2">  1        4 0.38282239E-02 0.12499939E+03</pdfrwt>
<pdfrwt beam="1">  1       -4 0.63773238E-01 0.12499939E+03</pdfrwt>
<totfact> 0.13843191E+03</totfact>
</mgrwt>
</event>
<event>
 5    1  0.1451195E-002  0.1250013E+03  0.7818608E-02  0.1235067E+00
          4   -1    0    0  501    0  0.00000000000E+00  0.00000000000E+00  0.51511690642E+01  0.53054163577E+01  0.12700000000E+01 0.  1.
         -4   -1    0    0    0  501 -0.00000000000E+00 -0.00000000000E+00 -0.74699770733E+03  0.74699878692E+03  0.12700000000E+01 0.  1.
         25    2    1    2    0    0  0.00000000000E+00  0.00000000000E+00 -0.74184653827E+03  0.75230420328E+03  0.12500131171E+03 0.  0.
    9000005    1    3    3    0    0  0.14251417505E+02 -0.60704405255E+02 -0.34596025827E+03  0.35153609775E+03  0.10000000000E+01 0.  0.
    9000005    1    3    3    0    0 -0.14251417505E+02  0.60704405255E+02 -0.39588628000E+03  0.40076810553E+03  0.10000000000E+01 0.  0.
<mgrwt>
<rscale>  0 0.12500131E+03</rscale>
<asrwt>0</asrwt>
<pdfrwt beam="1">  1        4 0.13072107E-02 0.12500131E+03</pdfrwt>
<pdfrwt beam="2">  1       -4 0.18676848E+00 0.12500131E+03</pdfrwt>
<totfact> 0.56849099E+02</totfact>
</mgrwt>
</event>
<event>
 5    1  0.1451195E-002  0.1249604E+03  0.7818608E-02  0.1235131E+00
          4   -1    0    0  501    0  0.00000000000E+00  0.00000000000E+00  0.98471764285E+01  0.99287352475E+01  0.12700000000E+01 0. -1.
         -4   -1    0    0    0  501 -0.00000000000E+00 -0.00000000000E+00 -0.39471820280E+03  0.39472024590E+03  0.12700000000E+01 0. -1.
         25    2    1    2    0    0  0.00000000000E+00  0.00000000000E+00 -0.38487102637E+03  0.40464898115E+03  0.12496035772E+03 0.  0.
    9000005    1    3    3    0    0  0.17014077430E+02 -0.54837906209E+02 -0.11271362002E+03  0.12649914990E+03  0.10000000000E+01 0.  0.
    9000005    1    3    3    0    0 -0.17014077430E+02  0.54837906209E+02 -0.27215740635E+03  0.27814983124E+03  0.10000000000E+01 0.  0.
<mgrwt>
<rscale>  0 0.12496036E+03</rscale>
<asrwt>0</asrwt>
<pdfrwt beam="1">  1        4 0.24722457E-02 0.12496036E+03</pdfrwt>
<pdfrwt beam="2">  1       -4 0.98689948E-01 0.12496036E+03</pdfrwt>
<totfact> 0.10483524E+03</totfact>
</mgrwt>
</event>
<event>
 5    1  0.1451195E-002  0.1250003E+03  0.7818608E-02  0.1235069E+00
          4   -1    0    0  501    0  0.00000000000E+00  0.00000000000E+00  0.45297552320E+02  0.45315352213E+02  0.12700000000E+01 0. -1.
         -4   -1    0    0    0  501 -0.00000000000E+00 -0.00000000000E+00 -0.86196385835E+02  0.86205741288E+02  0.12700000000E+01 0. -1.
         25    2    1    2    0    0  0.00000000000E+00  0.00000000000E+00 -0.40898833515E+02  0.13152109350E+03  0.12500033381E+03 0.  0.
    9000005    1    3    3    0    0  0.23702428837E+02  0.33429988906E+02 -0.70090038961E+02  0.81197185004E+02  0.10000000000E+01 0.  0.
    9000005    1    3    3    0    0 -0.23702428837E+02 -0.33429988906E+02  0.29191205446E+02  0.50323908497E+02  0.10000000000E+01 0.  0.
<mgrwt>
<rscale>  0 0.12500033E+03</rscale>
<asrwt>0</asrwt>
<pdfrwt beam="1">  1        4 0.11327783E-01 0.12500033E+03</pdfrwt>
<pdfrwt beam="2">  1       -4 0.21552491E-01 0.12500033E+03</pdfrwt>
<totfact> 0.19482802E+03</totfact>
</mgrwt>
</event>
<event>
 5    1  0.1451195E-002  0.1249903E+03  0.7818608E-02  0.1235084E+00
         -4   -1    0    0    0  501 -0.00000000000E+00  0.00000000000E+00  0.54425358334E+03  0.54425506509E+03  0.12700000000E+01 0.  1.
          4   -1    0    0  501    0  0.00000000000E+00 -0.00000000000E+00 -0.71184553805E+01  0.72308579715E+01  0.12700000000E+01 0.  1.
         25    2    1    2    0    0  0.00000000000E+00  0.00000000000E+00  0.53713512795E+03  0.55148592306E+03  0.12499031022E+03 0.  0.
    9000005    1    3    3    0    0 -0.52094397308E+02 -0.15216996342E+02  0.40522287833E+03  0.40884222425E+03  0.10000000000E+01 0.  0.
    9000005    1    3    3    0    0  0.52094397308E+02  0.15216996342E+02  0.13191224963E+03  0.14264369881E+03  0.10000000000E+01 0.  0.
<mgrwt>
<rscale>  0 0.12499031E+03</rscale>
<asrwt>0</asrwt>
<pdfrwt beam="2">  1        4 0.17938497E-02 0.12499031E+03</pdfrwt>
<pdfrwt beam="1">  1       -4 0.13607761E+00 0.12499031E+03</pdfrwt>
<totfact> 0.79977665E+02</totfact>
</mgrwt>
</event>
<event>
 5    1  0.1451195E-002  0.1249990E+03  0.7818608E-02  0.1235071E+00
          4   -1    0    0  501    0  0.00000000000E+00  0.00000000000E+00  0.57656927179E+02  0.57670912527E+02  0.12700000000E+01 0. -1.
         -4   -1    0    0    0  501 -0.00000000000E+00 -0.00000000000E+00 -0.67720650731E+02  0.67732558164E+02  0.12700000000E+01 0. -1.
         25    2    1    2    0    0  0.00000000000E+00  0.00000000000E+00 -0.10063723552E+02  0.12540347069E+03  0.12499900771E+03 0.  0.
    9000005    1    3    3    0    0  0.43068375254E+02  0.39506127238E+02  0.17165937601E+02  0.60920345124E+02  0.10000000000E+01 0.  0.
    9000005    1    3    3    0    0 -0.43068375254E+02 -0.39506127238E+02 -0.27229661153E+02  0.64483125567E+02  0.10000000000E+01 0.  0.
<mgrwt>
<rscale>  0 0.12499901E+03</rscale>
<asrwt>0</asrwt>
<pdfrwt beam="1">  1        4 0.14417468E-01 0.12499901E+03</pdfrwt>
<pdfrwt beam="2">  1       -4 0.16933399E-01 0.12499901E+03</pdfrwt>
<totfact> 0.19813650E+03</totfact>
</mgrwt>
</event>
<event>
 5    1  0.1451195E-002  0.1250010E+03  0.7818608E-02  0.1235068E+00
          4   -1    0    0  501    0  0.00000000000E+00  0.00000000000E+00  0.52784362404E+02  0.52799638393E+02  0.12700000000E+01 0. -1.
         -4   -1    0    0    0  501 -0.00000000000E+00 -0.00000000000E+00 -0.73973665943E+02  0.73984566993E+02  0.12700000000E+01 0. -1.
         25    2    1    2    0    0  0.00000000000E+00  0.00000000000E+00 -0.21189303539E+02  0.12678420539E+03  0.12500099260E+03 0.  0.
    9000005    1    3    3    0    0 -0.17086715604E+02  0.24591326710E+02 -0.66228047027E+02  0.72690050299E+02  0.10000000000E+01 0.  0.
    9000005    1    3    3    0    0  0.17086715604E+02 -0.24591326710E+02  0.45038743489E+02  0.54094155086E+02  0.10000000000E+01 0.  0.
<mgrwt>
<rscale>  0 0.12500099E+03</rscale>
<asrwt>0</asrwt>
<pdfrwt beam="1">  1        4 0.13199363E-01 0.12500099E+03</pdfrwt>
<pdfrwt beam="2">  1       -4 0.18496689E-01 0.12500099E+03</pdfrwt>
<totfact> 0.19738144E+03</totfact>
</mgrwt>
</event>
<event>
 5    1  0.1451195E-002  0.1250004E+03  0.7818608E-02  0.1235069E+00
          4   -1    0    0  501    0  0.00000000000E+00  0.00000000000E+00  0.50334464309E+02  0.50350483586E+02  0.12700000000E+01 0. -1.
         -4   -1    0    0    0  501 -0.00000000000E+00 -0.00000000000E+00 -0.77572818087E+02  0.77583213429E+02  0.12700000000E+01 0. -1.
         25    2    1    2    0    0  0.00000000000E+00  0.00000000000E+00 -0.27238353777E+02  0.12793369701E+03  0.12500041166E+03 0.  0.
    9000005    1    3    3    0    0  0.26684048487E+02  0.62482899816E+01  0.43860968263E+02  0.51728755140E+02  0.10000000000E+01 0.  0.
    9000005    1    3    3    0    0 -0.26684048487E+02 -0.62482899816E+01 -0.71099322041E+02  0.76204941874E+02  0.10000000000E+01 0.  0.
<mgrwt>
<rscale>  0 0.12500041E+03</rscale>
<asrwt>0</asrwt>
<pdfrwt beam="1">  1        4 0.12586918E-01 0.12500041E+03</pdfrwt>
<pdfrwt beam="2">  1       -4 0.19396506E-01 0.12500041E+03</pdfrwt>
<totfact> 0.19675953E+03</totfact>
</mgrwt>
</event>
<event>
 5    1  0.1451195E-002  0.1250001E+03  0.7818608E-02  0.1235069E+00
         -4   -1    0    0    0  501 -0.00000000000E+00  0.00000000000E+00  0.57089709092E+02  0.57103833358E+02  0.12700000000E+01 0.  1.
          4   -1    0    0  501    0  0.00000000000E+00 -0.00000000000E+00 -0.68394612822E+02  0.68406402939E+02  0.12700000000E+01 0.  1.
         25    2    1    2    0    0  0.00000000000E+00  0.00000000000E+00 -0.11304903730E+02  0.12551023630E+03  0.12500007427E+03 0.  0.
    9000005    1    3    3    0    0  0.33294420062E+02  0.27615117496E+02  0.39633078507E+02  0.58676179439E+02  0.10000000000E+01 0.  0.
    9000005    1    3    3    0    0 -0.33294420062E+02 -0.27615117496E+02 -0.50937982237E+02  0.66834056857E+02  0.10000000000E+01 0.  0.
<mgrwt>
<rscale>  0 0.12500007E+03</rscale>
<asrwt>0</asrwt>
<pdfrwt beam="2">  1        4 0.17101892E-01 0.12500007E+03</pdfrwt>
<pdfrwt beam="1">  1       -4 0.14275667E-01 0.12500007E+03</pdfrwt>
<totfact> 0.19807375E+03</totfact>
</mgrwt>
</event>
<event>
 5    1  0.1451195E-002  0.1249954E+03  0.7818608E-02  0.1235076E+00
          4   -1    0    0  501    0  0.00000000000E+00  0.00000000000E+00  0.41993920010E+02  0.42013119591E+02  0.12700000000E+01 0. -1.
         -4   -1    0    0    0  501 -0.00000000000E+00 -0.00000000000E+00 -0.92967756555E+02  0.92976430663E+02  0.12700000000E+01 0. -1.
         25    2    1    2    0    0  0.00000000000E+00  0.00000000000E+00 -0.50973836545E+02  0.13498955025E+03  0.12499538658E+03 0.  0.
    9000005    1    3    3    0    0  0.54781630597E+02  0.25433044807E+02 -0.81707079228E+01  0.60955945460E+02  0.10000000000E+01 0.  0.
    9000005    1    3    3    0    0 -0.54781630597E+02 -0.25433044807E+02 -0.42803128622E+02  0.74033604794E+02  0.10000000000E+01 0.  0.
<mgrwt>
<rscale>  0 0.12499539E+03</rscale>
<asrwt>0</asrwt>
<pdfrwt beam="1">  1        4 0.10501964E-01 0.12499539E+03</pdfrwt>
<pdfrwt beam="2">  1       -4 0.23245423E-01 0.12499539E+03</pdfrwt>
<totfact> 0.19301762E+03</totfact>
</mgrwt>
</event>
<event>
 5    1  0.1451195E-002  0.1250007E+03  0.7818608E-02  0.1235068E+00
          4   -1    0    0  501    0  0.00000000000E+00  0.00000000000E+00  0.11011797449E+02  0.11084790619E+02  0.12700000000E+01 0.  1.
         -4   -1    0    0    0  501 -0.00000000000E+00 -0.00000000000E+00 -0.35349108066E+03  0.35349336204E+03  0.12700000000E+01 0.  1.
         25    2    1    2    0    0  0.00000000000E+00  0.00000000000E+00 -0.34247928321E+03  0.36457815266E+03  0.12500067987E+03 0.  0.
    9000005    1    3    3    0    0  0.31559641086E+02  0.24287627196E+02 -0.31170376363E+03  0.31423897919E+03  0.10000000000E+01 0.  0.
    9000005    1    3    3    0    0 -0.31559641086E+02 -0.24287627196E+02 -0.30775519582E+02  0.50339173472E+02  0.10000000000E+01 0.  0.
<mgrwt>
<rscale>  0 0.12500068E+03</rscale>
<asrwt>0</asrwt>
<pdfrwt beam="1">  1        4 0.27623599E-02 0.12500068E+03</pdfrwt>
<pdfrwt beam="2">  1       -4 0.88382142E-01 0.12500068E+03</pdfrwt>
<totfact> 0.11337014E+03</totfact>
</mgrwt>
</event>
<event>
 5    1  0.1451195E-002  0.1249976E+03  0.7818608E-02  0.1235073E+00
          4   -1    0    0  501    0  0.00000000000E+00  0.00000000000E+00  0.19235182770E+03  0.19235602023E+03  0.12700000000E+01 0.  1.
         -4   -1    0    0    0  501 -0.00000000000E+00 -0.00000000000E+00 -0.20282775384E+02  0.20322496827E+02  0.12700000000E+01 0.  1.
         25    2    1    2    0    0  0.00000000000E+00  0.00000000000E+00  0.17206905231E+03  0.21267851705E+03  0.12499757139E+03 0.  0.
    9000005    1    3    3    0    0 -0.17086347174E+02 -0.16181847933E+02  0.18453285902E+03  0.18603002854E+03  0.10000000000E+01 0.  0.
    9000005    1    3    3    0    0  0.17086347174E+02  0.16181847933E+02 -0.12463806707E+02  0.26648488511E+02  0.10000000000E+01 0.  0.
<mgrwt>
<rscale>  0 0.12499757E+03</rscale>
<asrwt>0</asrwt>
<pdfrwt beam="1">  1        4 0.48093446E-01 0.12499757E+03</pdfrwt>
<pdfrwt beam="2">  1       -4 0.50761831E-02 0.12499757E+03</pdfrwt>
<totfact> 0.15827542E+03</totfact>
</mgrwt>
</event>
<event>
 5    1  0.1451195E-002  0.1250050E+03  0.7818608E-02  0.1235061E+00
         -4   -1    0    0    0  501 -0.00000000000E+00  0.00000000000E+00  0.15944801859E+04  0.15944806916E+04  0.12700000000E+01 0. -1.
          4   -1    0    0  501    0  0.00000000000E+00 -0.00000000000E+00 -0.22849351972E+01  0.26141593019E+01  0.12700000000E+01 0. -1.
         25    2    1    2    0    0  0.00000000000E+00  0.00000000000E+00  0.15921952507E+04  0.15970948509E+04  0.12500498654E+03 0.  0.
    9000005    1    3    3    0    0  0.84888381781E+01  0.33159930855E+02  0.12806711988E+03  0.13256631768E+03  0.10000000000E+01 0.  0.
    9000005    1    3    3    0    0 -0.84888381781E+01 -0.33159930855E+02  0.14641281308E+04  0.14645285333E+04  0.10000000000E+01 0.  0.
<mgrwt>
<rscale>  0 0.12500499E+03</rscale>
<asrwt>0</asrwt>
<pdfrwt beam="2">  1        4 0.61245000E-03 0.12500499E+03</pdfrwt>
<pdfrwt beam="1">  1       -4 0.39866128E+00 0.12500499E+03</pdfrwt>
<totfact> 0.95789069E+01</totfact>
</mgrwt>
</event>
<event>
 5    1  0.1451195E-002  0.1250031E+03  0.7818608E-02  0.1235064E+00
          4   -1    0    0  501    0  0.00000000000E+00  0.00000000000E+00  0.16333164822E+02  0.16382465416E+02  0.12700000000E+01 0.  1.
         -4   -1    0    0    0  501 -0.00000000000E+00 -0.00000000000E+00 -0.23876099211E+03  0.23876436973E+03  0.12700000000E+01 0.  1.
         25    2    1    2    0    0  0.00000000000E+00  0.00000000000E+00 -0.22242782729E+03  0.25514683515E+03  0.12500307650E+03 0.  0.
    9000005    1    3    3    0    0 -0.61598544565E+02  0.13192830807E+01 -0.89872585352E+02  0.10896881571E+03  0.10000000000E+01 0.  0.
    9000005    1    3    3    0    0  0.61598544565E+02 -0.13192830807E+01 -0.13255524194E+03  0.14617801943E+03  0.10000000000E+01 0.  0.
<mgrwt>
<rscale>  0 0.12500308E+03</rscale>
<asrwt>0</asrwt>
<pdfrwt beam="1">  1        4 0.40898767E-02 0.12500308E+03</pdfrwt>
<pdfrwt beam="2">  1       -4 0.59696822E-01 0.12500308E+03</pdfrwt>
<totfact> 0.14327316E+03</totfact>
</mgrwt>
</event>
<event>
 5    1  0.1451195E-002  0.1250013E+03  0.7818608E-02  0.1235067E+00
         -4   -1    0    0    0  501 -0.00000000000E+00  0.00000000000E+00  0.45848538111E+02  0.45866124176E+02  0.12700000000E+01 0. -1.
          4   -1    0    0  501    0  0.00000000000E+00 -0.00000000000E+00 -0.85162166328E+02  0.85171635382E+02  0.12700000000E+01 0. -1.
         25    2    1    2    0    0  0.00000000000E+00  0.00000000000E+00 -0.39313628217E+02  0.13103775956E+03  0.12500133226E+03 0.  0.
    9000005    1    3    3    0    0  0.24958368140E+02 -0.49299160572E+02 -0.50255524045E+02  0.74699029916E+02  0.10000000000E+01 0.  0.
    9000005    1    3    3    0    0 -0.24958368140E+02  0.49299160572E+02  0.10941895828E+02  0.56338729642E+02  0.10000000000E+01 0.  0.
<mgrwt>
<rscale>  0 0.12500133E+03</rscale>
<asrwt>0</asrwt>
<pdfrwt beam="2">  1        4 0.21293923E-01 0.12500133E+03</pdfrwt>
<pdfrwt beam="1">  1       -4 0.11465517E-01 0.12500133E+03</pdfrwt>
<totfact> 0.19508148E+03</totfact>
</mgrwt>
</event>
<event>
 5    1  0.1451195E-002  0.1250009E+03  0.7818608E-02  0.1235068E+00
          4   -1    0    0  501    0  0.00000000000E+00  0.00000000000E+00  0.15627836066E+02  0.15679354582E+02  0.12700000000E+01 0.  1.
         -4   -1    0    0    0  501 -0.00000000000E+00 -0.00000000000E+00 -0.24949392149E+03  0.24949715381E+03  0.12700000000E+01 0.  1.
         25    2    1    2    0    0  0.00000000000E+00  0.00000000000E+00 -0.23386608542E+03  0.26517650839E+03  0.12500093877E+03 0.  0.
    9000005    1    3    3    0    0 -0.18565096768E+02  0.45786657977E+02 -0.19810875317E+03  0.20417923242E+03  0.10000000000E+01 0.  0.
    9000005    1    3    3    0    0  0.18565096768E+02 -0.45786657977E+02 -0.35757332248E+02  0.60997275974E+02  0.10000000000E+01 0.  0.
<mgrwt>
<rscale>  0 0.12500094E+03</rscale>
<asrwt>0</asrwt>
<pdfrwt beam="1">  1        4 0.39138037E-02 0.12500094E+03</pdfrwt>
<pdfrwt beam="2">  1       -4 0.62380312E-01 0.12500094E+03</pdfrwt>
<totfact> 0.14006122E+03</totfact>
</mgrwt>
</event>
<event>
 5    1  0.1451195E-002  0.1249915E+03  0.7818608E-02  0.1235083E+00
         -4   -1    0    0    0  501 -0.00000000000E+00  0.00000000000E+00  0.97875624041E+02  0.97883863233E+02  0.12700000000E+01 0. -1.
          4   -1    0    0  501    0  0.00000000000E+00 -0.00000000000E+00 -0.39884901655E+02  0.39905115963E+02  0.12700000000E+01 0. -1.
         25    2    1    2    0    0  0.00000000000E+00  0.00000000000E+00  0.57990722386E+02  0.13778897920E+03  0.12499151533E+03 0.  0.
    9000005    1    3    3    0    0  0.44246119448E+02  0.16469023915E+02  0.74122874213E+02  0.87887133965E+02  0.10000000000E+01 0.  0.
    9000005    1    3    3    0    0 -0.44246119448E+02 -0.16469023915E+02 -0.16132151827E+02  0.49901845231E+02  0.10000000000E+01 0.  0.
<mgrwt>
<rscale>  0 0.12499152E+03</rscale>
<asrwt>0</asrwt>
<pdfrwt beam="2">  1        4 0.99747822E-02 0.12499152E+03</pdfrwt>
<pdfrwt beam="1">  1       -4 0.24472462E-01 0.12499152E+03</pdfrwt>
<totfact> 0.19157823E+03</totfact>
</mgrwt>
</event>
<event>
 5    1  0.1451195E-002  0.1249663E+03  0.7818608E-02  0.1235122E+00
          4   -1    0    0  501    0  0.00000000000E+00  0.00000000000E+00  0.73389186466E+03  0.73389296353E+03  0.12700000000E+01 0. -1.
         -4   -1    0    0    0  501 -0.00000000000E+00 -0.00000000000E+00 -0.52428643557E+01  0.53944903978E+01  0.12700000000E+01 0. -1.
         25    2    1    2    0    0  0.00000000000E+00  0.00000000000E+00  0.72864900030E+03  0.73928745392E+03  0.12496629100E+03 0.  0.
    9000005    1    3    3    0    0 -0.60790645032E+02 -0.12687336519E+02  0.32390874391E+03  0.32980955931E+03  0.10000000000E+01 0.  0.
    9000005    1    3    3    0    0  0.60790645032E+02  0.12687336519E+02  0.40474025639E+03  0.40947789461E+03  0.10000000000E+01 0.  0.
<mgrwt>
<rscale>  0 0.12496629E+03</rscale>
<asrwt>0</asrwt>
<pdfrwt beam="1">  1        4 0.18349207E+00 0.12496629E+03</pdfrwt>
<pdfrwt beam="2">  1       -4 0.13298066E-02 0.12496629E+03</pdfrwt>
<totfact> 0.58147409E+02</totfact>
</mgrwt>
</event>
<event>
 5    1  0.1451195E-002  0.1250006E+03  0.7818608E-02  0.1235068E+00
         -4   -1    0    0    0  501 -0.00000000000E+00  0.00000000000E+00  0.49318029829E+03  0.49318193349E+03  0.12700000000E+01 0. -1.
          4   -1    0    0  501    0  0.00000000000E+00 -0.00000000000E+00 -0.78680337484E+01  0.79698717095E+01  0.12700000000E+01 0. -1.
         25    2    1    2    0    0  0.00000000000E+00  0.00000000000E+00  0.48531226454E+03  0.50115180520E+03  0.12500055096E+03 0.  0.
    9000005    1    3    3    0    0 -0.48685949365E+02  0.14940794753E+02  0.38786077246E+03  0.39119116532E+03  0.10000000000E+01 0.  0.
    9000005    1    3    3    0    0  0.48685949365E+02 -0.14940794753E+02  0.97451492087E+02  0.10996063988E+03  0.10000000000E+01 0.  0.
<mgrwt>
<rscale>  0 0.12500055E+03</rscale>
<asrwt>0</asrwt>
<pdfrwt beam="2">  1        4 0.19799427E-02 0.12500055E+03</pdfrwt>
<pdfrwt beam="1">  1       -4 0.12330800E+00 0.12500055E+03</pdfrwt>
<totfact> 0.87422978E+02</totfact>
</mgrwt>
</event>
<event>
 5    1  0.1451195E-002  0.1250540E+03  0.7818608E-02  0.1234985E+00
         -4   -1    0    0    0  501 -0.00000000000E+00  0.00000000000E+00  0.79200062936E+02  0.79210244723E+02  0.12700000000E+01 0. -1.
          4   -1    0    0  501    0  0.00000000000E+00 -0.00000000000E+00 -0.49342390773E+02  0.49358732025E+02  0.12700000000E+01 0. -1.
         25    2    1    2    0    0  0.00000000000E+00  0.00000000000E+00  0.29857672164E+02  0.12856897675E+03  0.12505399312E+03 0.  0.
    9000005    1    3    3    0    0 -0.59441627492E+02  0.72799313097E+01  0.33386757949E+02  0.68570985738E+02  0.10000000000E+01 0.  0.
    9000005    1    3    3    0    0  0.59441627492E+02 -0.72799313097E+01 -0.35290857850E+01  0.59997991010E+02  0.10000000000E+01 0.  0.
<mgrwt>
<rscale>  0 0.12505399E+03</rscale>
<asrwt>0</asrwt>
<pdfrwt beam="2">  1        4 0.12338913E-01 0.12505399E+03</pdfrwt>
<pdfrwt beam="1">  1       -4 0.19803331E-01 0.12505399E+03</pdfrwt>
<totfact> 0.19616899E+03</totfact>
</mgrwt>
</event>
<event>
 5    1  0.1451195E-002  0.1249986E+03  0.7818608E-02  0.1235071E+00
         -4   -1    0    0    0  501 -0.00000000000E+00  0.00000000000E+00  0.28517062827E+03  0.28517345622E+03  0.12700000000E+01 0.  1.
          4   -1    0    0  501    0  0.00000000000E+00 -0.00000000000E+00 -0.13665291224E+02  0.13724178818E+02  0.12700000000E+01 0.  1.
         25    2    1    2    0    0  0.00000000000E+00  0.00000000000E+00  0.27150533705E+03  0.29889763503E+03  0.12499859272E+03 0.  0.
    9000005    1    3    3    0    0 -0.12858128814E+02 -0.60644983180E+02  0.15458357713E+03  0.16655397858E+03  0.10000000000E+01 0.  0.
    9000005    1    3    3    0    0  0.12858128814E+02  0.60644983180E+02  0.11692175992E+03  0.13234365646E+03  0.10000000000E+01 0.  0.
<mgrwt>
<rscale>  0 0.12499859E+03</rscale>
<asrwt>0</asrwt>
<pdfrwt beam="2">  1        4 0.34240374E-02 0.12499859E+03</pdfrwt>
<pdfrwt beam="1">  1       -4 0.71300369E-01 0.12499859E+03</pdfrwt>
<totfact> 0.13002428E+03</totfact>
</mgrwt>
</event>
<event>
 5    1  0.1451195E-002  0.1249998E+03  0.7818608E-02  0.1235070E+00
          4   -1    0    0  501    0  0.00000000000E+00  0.00000000000E+00  0.30951398097E+03  0.30951658650E+03  0.12700000000E+01 0. -1.
         -4   -1    0    0    0  501 -0.00000000000E+00 -0.00000000000E+00 -0.12585936170E+02  0.12649849378E+02  0.12700000000E+01 0. -1.
         25    2    1    2    0    0  0.00000000000E+00  0.00000000000E+00  0.29692804480E+03  0.32216643588E+03  0.12499979446E+03 0.  0.
    9000005    1    3    3    0    0 -0.44985244774E+02 -0.41514868843E+02  0.18086888930E+03  0.19094950039E+03  0.10000000000E+01 0.  0.
    9000005    1    3    3    0    0  0.44985244774E+02  0.41514868843E+02  0.11605915551E+03  0.13121693549E+03  0.10000000000E+01 0.  0.
<mgrwt>
<rscale>  0 0.12499979E+03</rscale>
<asrwt>0</asrwt>
<pdfrwt beam="1">  1        4 0.77386809E-01 0.12499979E+03</pdfrwt>
<pdfrwt beam="2">  1       -4 0.31547989E-02 0.12499979E+03</pdfrwt>
<totfact> 0.12371837E+03</totfact>
</mgrwt>
</event>
<event>
 5    1  0.1451195E-002  0.1249989E+03  0.7818608E-02  0.1235071E+00
         -4   -1    0    0    0  501 -0.00000000000E+00  0.00000000000E+00  0.14707618038E+03  0.14708166349E+03  0.12700000000E+01 0.  1.
          4   -1    0    0  501    0  0.00000000000E+00 -0.00000000000E+00 -0.26537718658E+02  0.26568090100E+02  0.12700000000E+01 0.  1.
         25    2    1    2    0    0  0.00000000000E+00  0.00000000000E+00  0.12053846173E+03  0.17364975360E+03  0.12499886467E+03 0.  0.
    9000005    1    3    3    0    0  0.42966048989E+02 -0.39315014914E+02  0.28791198860E+02  0.64974494190E+02  0.10000000000E+01 0.  0.
    9000005    1    3    3    0    0 -0.42966048989E+02  0.39315014914E+02  0.91747262866E+02  0.10867525941E+03  0.10000000000E+01 0.  0.
<mgrwt>
<rscale>  0 0.12499886E+03</rscale>
<asrwt>0</asrwt>
<pdfrwt beam="2">  1        4 0.66389115E-02 0.12499886E+03</pdfrwt>
<pdfrwt beam="1">  1       -4 0.36773527E-01 0.12499886E+03</pdfrwt>
<totfact> 0.17434132E+03</totfact>
</mgrwt>
</event>
<event>
 5    1  0.1451195E-002  0.1249980E+03  0.7818608E-02  0.1235072E+00
         -4   -1    0    0    0  501 -0.00000000000E+00  0.00000000000E+00  0.73635975244E+03  0.73636084763E+03  0.12700000000E+01 0.  1.
          4   -1    0    0  501    0  0.00000000000E+00 -0.00000000000E+00 -0.52275120259E+01  0.53795707989E+01  0.12700000000E+01 0.  1.
         25    2    1    2    0    0  0.00000000000E+00  0.00000000000E+00  0.73113224042E+03  0.74174041842E+03  0.12499798138E+03 0.  0.
    9000005    1    3    3    0    0 -0.22894508415E+02 -0.33567725419E+02  0.83829967392E+02  0.93163373374E+02  0.10000000000E+01 0.  0.
    9000005    1    3    3    0    0  0.22894508415E+02  0.33567725419E+02  0.64730227302E+03  0.64857704505E+03  0.10000000000E+01 0.  0.
<mgrwt>
<rscale>  0 0.12499798E+03</rscale>
<asrwt>0</asrwt>
<pdfrwt beam="2">  1        4 0.13260223E-02 0.12499798E+03</pdfrwt>
<pdfrwt beam="1">  1       -4 0.18410908E+00 0.12499798E+03</pdfrwt>
<totfact> 0.57867539E+02</totfact>
</mgrwt>
</event>
<event>
 5    1  0.1451195E-002  0.1249992E+03  0.7818608E-02  0.1235071E+00
          4   -1    0    0  501    0  0.00000000000E+00  0.00000000000E+00  0.20404621650E+03  0.20405016875E+03  0.12700000000E+01 0. -1.
         -4   -1    0    0    0  501 -0.00000000000E+00 -0.00000000000E+00 -0.19118501889E+02  0.19160637111E+02  0.12700000000E+01 0. -1.
         25    2    1    2    0    0  0.00000000000E+00  0.00000000000E+00  0.18492771461E+03  0.22321080586E+03  0.12499921689E+03 0.  0.
    9000005    1    3    3    0    0  0.46845683651E+01 -0.47043607872E+02  0.16544090512E+03  0.17206608994E+03  0.10000000000E+01 0.  0.
    9000005    1    3    3    0    0 -0.46845683651E+01  0.47043607872E+02  0.19486809494E+02  0.51144715921E+02  0.10000000000E+01 0.  0.
<mgrwt>
<rscale>  0 0.12499922E+03</rscale>
<asrwt>0</asrwt>
<pdfrwt beam="1">  1        4 0.51017314E-01 0.12499922E+03</pdfrwt>
<pdfrwt beam="2">  1       -4 0.47853865E-02 0.12499922E+03</pdfrwt>
<totfact> 0.15433256E+03</totfact>
</mgrwt>
</event>
<event>
 5    1  0.1451195E-002  0.1249989E+03  0.7818608E-02  0.1235071E+00
         -4   -1    0    0    0  501 -0.00000000000E+00  0.00000000000E+00  0.45597667793E+02  0.45615350576E+02  0.12700000000E+01 0. -1.
          4   -1    0    0  501    0  0.00000000000E+00 -0.00000000000E+00 -0.85627287293E+02  0.85636704918E+02  0.12700000000E+01 0. -1.
         25    2    1    2    0    0  0.00000000000E+00  0.00000000000E+00 -0.40029619500E+02  0.13125205549E+03  0.12499892653E+03 0.  0.
    9000005    1    3    3    0    0  0.42954997348E+02 -0.40240108322E+02  0.20303439905E+01  0.58902635014E+02  0.10000000000E+01 0.  0.
    9000005    1    3    3    0    0 -0.42954997348E+02  0.40240108322E+02 -0.42059963491E+02  0.72349420480E+02  0.10000000000E+01 0.  0.
<mgrwt>
<rscale>  0 0.12499893E+03</rscale>
<asrwt>0</asrwt>
<pdfrwt beam="2">  1        4 0.21410209E-01 0.12499893E+03</pdfrwt>
<pdfrwt beam="1">  1       -4 0.11402805E-01 0.12499893E+03</pdfrwt>
<totfact> 0.19497796E+03</totfact>
</mgrwt>
</event>
<event>
 5    1  0.1451195E-002  0.1250094E+03  0.7818608E-02  0.1235055E+00
          4   -1    0    0  501    0  0.00000000000E+00  0.00000000000E+00  0.46901501270E+03  0.46901673215E+03  0.12700000000E+01 0. -1.
         -4   -1    0    0    0  501 -0.00000000000E+00 -0.00000000000E+00 -0.82797305184E+01  0.83765647766E+01  0.12700000000E+01 0. -1.
         25    2    1    2    0    0  0.00000000000E+00  0.00000000000E+00  0.46073528218E+03  0.47739329693E+03  0.12500943846E+03 0.  0.
    9000005    1    3    3    0    0  0.34302097104E+02 -0.38835517260E+02  0.36380974618E+03  0.36748246581E+03  0.10000000000E+01 0.  0.
    9000005    1    3    3    0    0 -0.34302097104E+02  0.38835517260E+02  0.96925536002E+02  0.10991083111E+03  0.10000000000E+01 0.  0.
<mgrwt>
<rscale>  0 0.12500944E+03</rscale>
<asrwt>0</asrwt>
<pdfrwt beam="1">  1        4 0.11726607E+00 0.12500944E+03</pdfrwt>
<pdfrwt beam="2">  1       -4 0.20822519E-02 0.12500944E+03</pdfrwt>
<totfact> 0.91278385E+02</totfact>
</mgrwt>
</event>
<event>
 5    1  0.1451195E-002  0.1250000E+03  0.7818608E-02  0.1235069E+00
          4   -1    0    0  501    0  0.00000000000E+00  0.00000000000E+00  0.91804824268E+01  0.92679100982E+01  0.12700000000E+01 0. -1.
         -4   -1    0    0    0  501 -0.00000000000E+00 -0.00000000000E+00 -0.42339053940E+03  0.42339244414E+03  0.12700000000E+01 0. -1.
         25    2    1    2    0    0  0.00000000000E+00  0.00000000000E+00 -0.41421005697E+03  0.43266035424E+03  0.12500004332E+03 0.  0.
    9000005    1    3    3    0    0  0.41058974633E+02 -0.10450913501E+01 -0.44081930312E+02  0.60259009234E+02  0.10000000000E+01 0.  0.
    9000005    1    3    3    0    0 -0.41058974633E+02  0.10450913501E+01 -0.37012812666E+03  0.37240134500E+03  0.10000000000E+01 0.  0.
<mgrwt>
<rscale>  0 0.12500004E+03</rscale>
<asrwt>0</asrwt>
<pdfrwt beam="1">  1        4 0.23062886E-02 0.12500004E+03</pdfrwt>
<pdfrwt beam="2">  1       -4 0.10585874E+00 0.12500004E+03</pdfrwt>
<totfact> 0.99215353E+02</totfact>
</mgrwt>
</event>
<event>
 5    1  0.1451195E-002  0.1250339E+03  0.7818608E-02  0.1235016E+00
          4   -1    0    0  501    0  0.00000000000E+00  0.00000000000E+00  0.90019354439E+02  0.90028312622E+02  0.12700000000E+01 0.  1.
         -4   -1    0    0    0  501 -0.00000000000E+00 -0.00000000000E+00 -0.43396548506E+02  0.43415127804E+02  0.12700000000E+01 0.  1.
         25    2    1    2    0    0  0.00000000000E+00  0.00000000000E+00  0.46622805933E+02  0.13344344043E+03  0.12503385845E+03 0.  0.
    9000005    1    3    3    0    0  0.43611115162E+02 -0.68272364758E+01 -0.23923988359E+02  0.50218500003E+02  0.10000000000E+01 0.  0.
    9000005    1    3    3    0    0 -0.43611115162E+02  0.68272364758E+01  0.70546794291E+02  0.83224940423E+02  0.10000000000E+01 0.  0.
<mgrwt>
<rscale>  0 0.12503386E+03</rscale>
<asrwt>0</asrwt>
<pdfrwt beam="1">  1        4 0.22508281E-01 0.12503386E+03</pdfrwt>
<pdfrwt beam="2">  1       -4 0.10852579E-01 0.12503386E+03</pdfrwt>
<totfact> 0.19365676E+03</totfact>
</mgrwt>
</event>
<event>
 5    1  0.1451195E-002  0.1249999E+03  0.7818608E-02  0.1235069E+00
         -4   -1    0    0    0  501 -0.00000000000E+00  0.00000000000E+00  0.11721824459E+03  0.11722512429E+03  0.12700000000E+01 0. -1.
          4   -1    0    0  501    0  0.00000000000E+00 -0.00000000000E+00 -0.33304599004E+02  0.33328804581E+02  0.12700000000E+01 0. -1.
         25    2    1    2    0    0  0.00000000000E+00  0.00000000000E+00  0.83913645587E+02  0.15055392887E+03  0.12499994233E+03 0.  0.
    9000005    1    3    3    0    0  0.30396131877E+02 -0.49066898512E+02  0.70806954869E+02  0.91357048006E+02  0.10000000000E+01 0.  0.
    9000005    1    3    3    0    0 -0.30396131877E+02  0.49066898512E+02  0.13106690719E+02  0.59196880866E+02  0.10000000000E+01 0.  0.
<mgrwt>
<rscale>  0 0.12499994E+03</rscale>
<asrwt>0</asrwt>
<pdfrwt beam="2">  1        4 0.83300355E-02 0.12499994E+03</pdfrwt>
<pdfrwt beam="1">  1       -4 0.29308447E-01 0.12499994E+03</pdfrwt>
<totfact> 0.18511602E+03</totfact>
</mgrwt>
</event>
<event>
 5    1  0.1451195E-002  0.1249986E+03  0.7818608E-02  0.1235071E+00
          4   -1    0    0  501    0  0.00000000000E+00  0.00000000000E+00  0.68795327940E+02  0.68807049395E+02  0.12700000000E+01 0. -1.
         -4   -1    0    0    0  501 -0.00000000000E+00 -0.00000000000E+00 -0.56755828895E+02  0.56770036230E+02  0.12700000000E+01 0. -1.
         25    2    1    2    0    0  0.00000000000E+00  0.00000000000E+00  0.12039499045E+02  0.12557708562E+03  0.12499861958E+03 0.  0.
    9000005    1    3    3    0    0  0.53166524946E+02  0.24489680871E+02 -0.15961632106E+02  0.60681113564E+02  0.10000000000E+01 0.  0.
    9000005    1    3    3    0    0 -0.53166524946E+02 -0.24489680871E+02  0.28001131151E+02  0.64895972060E+02  0.10000000000E+01 0.  0.
<mgrwt>
<rscale>  0 0.12499862E+03</rscale>
<asrwt>0</asrwt>
<pdfrwt beam="1">  1        4 0.17202073E-01 0.12499862E+03</pdfrwt>
<pdfrwt beam="2">  1       -4 0.14192198E-01 0.12499862E+03</pdfrwt>
<totfact> 0.19804431E+03</totfact>
</mgrwt>
</event>
<event>
 5    1  0.1451195E-002  0.1250013E+03  0.7818608E-02  0.1235067E+00
          4   -1    0    0  501    0  0.00000000000E+00  0.00000000000E+00  0.61330817400E+01  0.62631934051E+01  0.12700000000E+01 0. -1.
         -4   -1    0    0    0  501 -0.00000000000E+00 -0.00000000000E+00 -0.63011158252E+03  0.63011286237E+03  0.12700000000E+01 0. -1.
         25    2    1    2    0    0  0.00000000000E+00  0.00000000000E+00 -0.62397850078E+03  0.63637605578E+03  0.12500125971E+03 0.  0.
    9000005    1    3    3    0    0 -0.44846973228E+02  0.40199171537E+01 -0.91372871396E+02  0.10186958510E+03  0.10000000000E+01 0.  0.
    9000005    1    3    3    0    0  0.44846973228E+02 -0.40199171537E+01 -0.53260562939E+03  0.53450647068E+03  0.10000000000E+01 0.  0.
<mgrwt>
<rscale>  0 0.12500126E+03</rscale>
<asrwt>0</asrwt>
<pdfrwt beam="1">  1        4 0.15496965E-02 0.12500126E+03</pdfrwt>
<pdfrwt beam="2">  1       -4 0.15754410E+00 0.12500126E+03</pdfrwt>
<totfact> 0.69089817E+02</totfact>
</mgrwt>
</event>
<event>
 5    1  0.1451195E-002  0.1250007E+03  0.7818608E-02  0.1235068E+00
         -4   -1    0    0    0  501 -0.00000000000E+00  0.00000000000E+00  0.20474298789E+02  0.20513649380E+02  0.12700000000E+01 0. -1.
          4   -1    0    0  501    0  0.00000000000E+00 -0.00000000000E+00 -0.19056552971E+03  0.19056976154E+03  0.12700000000E+01 0. -1.
         25    2    1    2    0    0  0.00000000000E+00  0.00000000000E+00 -0.17009123092E+03  0.21108341092E+03  0.12500071812E+03 0.  0.
    9000005    1    3    3    0    0 -0.36958462492E+02 -0.43063400671E+02 -0.40852105745E+02  0.69930529606E+02  0.10000000000E+01 0.  0.
    9000005    1    3    3    0    0  0.36958462492E+02  0.43063400671E+02 -0.12923912518E+03  0.14115288132E+03  0.10000000000E+01 0.  0.
<mgrwt>
<rscale>  0 0.12500072E+03</rscale>
<asrwt>0</asrwt>
<pdfrwt beam="2">  1        4 0.47646825E-01 0.12500072E+03</pdfrwt>
<pdfrwt beam="1">  1       -4 0.51240231E-02 0.12500072E+03</pdfrwt>
<totfact> 0.15887396E+03</totfact>
</mgrwt>
</event>
<event>
 5    1  0.1451195E-002  0.1250009E+03  0.7818608E-02  0.1235068E+00
          4   -1    0    0  501    0  0.00000000000E+00  0.00000000000E+00  0.14968067028E+04  0.14968072416E+04  0.12700000000E+01 0.  1.
         -4   -1    0    0    0  501 -0.00000000000E+00 -0.00000000000E+00 -0.24546816156E+01  0.27637586425E+01  0.12700000000E+01 0.  1.
         25    2    1    2    0    0  0.00000000000E+00  0.00000000000E+00  0.14943520212E+04  0.14995710003E+04  0.12500088596E+03 0.  0.
    9000005    1    3    3    0    0 -0.95769812867E+01 -0.60786311570E+02  0.61652383071E+03  0.61958803094E+03  0.10000000000E+01 0.  0.
    9000005    1    3    3    0    0  0.95769812867E+01  0.60786311570E+02  0.87782819050E+03  0.87998296932E+03  0.10000000000E+01 0.  0.
<mgrwt>
<rscale>  0 0.12500089E+03</rscale>
<asrwt>0</asrwt>
<pdfrwt beam="1">  1        4 0.37424078E+00 0.12500089E+03</pdfrwt>
<pdfrwt beam="2">  1       -4 0.65237167E-03 0.12500089E+03</pdfrwt>
<totfact> 0.12506652E+02</totfact>
</mgrwt>
</event>
<event>
 5    1  0.1451195E-002  0.1249988E+03  0.7818608E-02  0.1235071E+00
          4   -1    0    0  501    0  0.00000000000E+00  0.00000000000E+00  0.16343665150E+03  0.16344158575E+03  0.12700000000E+01 0.  1.
         -4   -1    0    0    0  501 -0.00000000000E+00 -0.00000000000E+00 -0.23878086468E+02  0.23911836261E+02  0.12700000000E+01 0.  1.
         25    2    1    2    0    0  0.00000000000E+00  0.00000000000E+00  0.13955856503E+03  0.18735342201E+03  0.12499884666E+03 0.  0.
    9000005    1    3    3    0    0  0.42059625391E+02 -0.44805593070E+02  0.86778062040E+02  0.10633901123E+03  0.10000000000E+01 0.  0.
    9000005    1    3    3    0    0 -0.42059625391E+02  0.44805593070E+02  0.52780502992E+02  0.81014410783E+02  0.10000000000E+01 0.  0.
<mgrwt>
<rscale>  0 0.12499885E+03</rscale>
<asrwt>0</asrwt>
<pdfrwt beam="1">  1        4 0.40863998E-01 0.12499885E+03</pdfrwt>
<pdfrwt beam="2">  1       -4 0.59743571E-02 0.12499885E+03</pdfrwt>
<totfact> 0.16841726E+03</totfact>
</mgrwt>
</event>
<event>
 5    1  0.1451195E-002  0.1250010E+03  0.7818608E-02  0.1235068E+00
          4   -1    0    0  501    0  0.00000000000E+00  0.00000000000E+00  0.91055355937E+02  0.91064212207E+02  0.12700000000E+01 0.  1.
         -4   -1    0    0    0  501 -0.00000000000E+00 -0.00000000000E+00 -0.42880097789E+02  0.42898900760E+02  0.12700000000E+01 0.  1.
         25    2    1    2    0    0  0.00000000000E+00  0.00000000000E+00  0.48175258148E+02  0.13396311297E+03  0.12500104055E+03 0.  0.
    9000005    1    3    3    0    0 -0.56589328338E+02 -0.21836858559E+02  0.79724228356E+01  0.61186272965E+02  0.10000000000E+01 0.  0.
    9000005    1    3    3    0    0  0.56589328338E+02  0.21836858559E+02  0.40202835312E+02  0.72776840001E+02  0.10000000000E+01 0.  0.
<mgrwt>
<rscale>  0 0.12500104E+03</rscale>
<asrwt>0</asrwt>
<pdfrwt beam="1">  1        4 0.22767296E-01 0.12500104E+03</pdfrwt>
<pdfrwt beam="2">  1       -4 0.10723482E-01 0.12500104E+03</pdfrwt>
<totfact> 0.19353116E+03</totfact>
</mgrwt>
</event>
<event>
 5    1  0.1451195E-002  0.1250013E+03  0.7818608E-02  0.1235067E+00
         -4   -1    0    0    0  501 -0.00000000000E+00  0.00000000000E+00  0.34055356292E+03  0.34055593096E+03  0.12700000000E+01 0.  1.
          4   -1    0    0  501    0  0.00000000000E+00 -0.00000000000E+00 -0.11432969571E+02  0.11503290538E+02  0.12700000000E+01 0.  1.
         25    2    1    2    0    0  0.00000000000E+00  0.00000000000E+00  0.32912059335E+03  0.35205922150E+03  0.12500132192E+03 0.  0.
    9000005    1    3    3    0    0 -0.45406911774E+02 -0.44097464937E+01  0.28484913626E+03  0.28848095939E+03  0.10000000000E+01 0.  0.
    9000005    1    3    3    0    0  0.45406911774E+02  0.44097464937E+01  0.44271457081E+02  0.63578262111E+02  0.10000000000E+01 0.  0.
<mgrwt>
<rscale>  0 0.12500132E+03</rscale>
<asrwt>0</asrwt>
<pdfrwt beam="2">  1        4 0.28673287E-02 0.12500132E+03</pdfrwt>
<pdfrwt beam="1">  1       -4 0.85147471E-01 0.12500132E+03</pdfrwt>
<totfact> 0.11628008E+03</totfact>
</mgrwt>
</event>
<event>
 5    1  0.1451195E-002  0.1249999E+03  0.7818608E-02  0.1235069E+00
          4   -1    0    0  501    0  0.00000000000E+00  0.00000000000E+00  0.13531218387E+03  0.13531814366E+03  0.12700000000E+01 0.  1.
         -4   -1    0    0    0  501 -0.00000000000E+00 -0.00000000000E+00 -0.28847825950E+02  0.28875767731E+02  0.12700000000E+01 0.  1.
         25    2    1    2    0    0  0.00000000000E+00  0.00000000000E+00  0.10646435792E+03  0.16419391139E+03  0.12499992412E+03 0.  0.
    9000005    1    3    3    0    0 -0.64497796773E+01  0.50035694745E+02  0.47894384224E+01  0.50686380093E+02  0.10000000000E+01 0.  0.
    9000005    1    3    3    0    0  0.64497796773E+01 -0.50035694745E+02  0.10167491950E+03  0.11350753130E+03  0.10000000000E+01 0.  0.
<mgrwt>
<rscale>  0 0.12499992E+03</rscale>
<asrwt>0</asrwt>
<pdfrwt beam="1">  1        4 0.33832283E-01 0.12499992E+03</pdfrwt>
<pdfrwt beam="2">  1       -4 0.72161944E-02 0.12499992E+03</pdfrwt>
<totfact> 0.17862182E+03</totfact>
</mgrwt>
</event>
<event>
 5    1  0.1451195E-002  0.1250340E+03  0.7818608E-02  0.1235016E+00
          4   -1    0    0  501    0  0.00000000000E+00  0.00000000000E+00  0.95366407956E+02  0.95374863913E+02  0.12700000000E+01 0.  1.
         -4   -1    0    0    0  501 -0.00000000000E+00 -0.00000000000E+00 -0.40962629523E+02  0.40982312251E+02  0.12700000000E+01 0.  1.
         25    2    1    2    0    0  0.00000000000E+00  0.00000000000E+00  0.54403778433E+02  0.13635717616E+03  0.12503402890E+03 0.  0.
    9000005    1    3    3    0    0  0.43489026381E+02 -0.20504884551E+02  0.70764716575E+02  0.85559282477E+02  0.10000000000E+01 0.  0.
    9000005    1    3    3    0    0 -0.43489026381E+02  0.20504884551E+02 -0.16360938143E+02  0.50797893686E+02  0.10000000000E+01 0.  0.
<mgrwt>
<rscale>  0 0.12503403E+03</rscale>
<asrwt>0</asrwt>
<pdfrwt beam="1">  1        4 0.23845119E-01 0.12503403E+03</pdfrwt>
<pdfrwt beam="2">  1       -4 0.10244175E-01 0.12503403E+03</pdfrwt>
<totfact> 0.19213027E+03</totfact>
</mgrwt>
</event>
<event>
 5    1  0.1451195E-002  0.1249980E+03  0.7818608E-02  0.1235072E+00
          4   -1    0    0  501    0  0.00000000000E+00  0.00000000000E+00  0.12424900431E+03  0.12425549474E+03  0.12700000000E+01 0. -1.
         -4   -1    0    0    0  501 -0.00000000000E+00 -0.00000000000E+00 -0.31417752710E+02  0.31443410842E+02  0.12700000000E+01 0. -1.
         25    2    1    2    0    0  0.00000000000E+00  0.00000000000E+00  0.92831251600E+02  0.15569890558E+03  0.12499803168E+03 0.  0.
    9000005    1    3    3    0    0 -0.53428541441E+02 -0.28217138663E+02  0.66279546867E+02  0.89692777233E+02  0.10000000000E+01 0.  0.
    9000005    1    3    3    0    0  0.53428541441E+02  0.28217138663E+02  0.26551704733E+02  0.66006128345E+02  0.10000000000E+01 0.  0.
<mgrwt>
<rscale>  0 0.12499803E+03</rscale>
<asrwt>0</asrwt>
<pdfrwt beam="1">  1        4 0.31066269E-01 0.12499803E+03</pdfrwt>
<pdfrwt beam="2">  1       -4 0.78584569E-02 0.12499803E+03</pdfrwt>
<totfact> 0.18262904E+03</totfact>
</mgrwt>
</event>
<event>
 5    1  0.1451195E-002  0.1249945E+03  0.7818608E-02  0.1235078E+00
         -4   -1    0    0    0  501 -0.00000000000E+00  0.00000000000E+00  0.58103631584E+01  0.59475389895E+01  0.12700000000E+01 0. -1.
          4   -1    0    0  501    0  0.00000000000E+00 -0.00000000000E+00 -0.66425088485E+03  0.66425209892E+03  0.12700000000E+01 0. -1.
         25    2    1    2    0    0  0.00000000000E+00  0.00000000000E+00 -0.65844052169E+03  0.67019963791E+03  0.12499453609E+03 0.  0.
    9000005    1    3    3    0    0 -0.18806326220E+02  0.42433375846E+02 -0.55356272559E+03  0.55550603998E+03  0.10000000000E+01 0.  0.
    9000005    1    3    3    0    0  0.18806326220E+02 -0.42433375846E+02 -0.10487779610E+03  0.11469359793E+03  0.10000000000E+01 0.  0.
<mgrwt>
<rscale>  0 0.12499454E+03</rscale>
<asrwt>0</asrwt>
<pdfrwt beam="2">  1        4 0.16607976E+00 0.12499454E+03</pdfrwt>
<pdfrwt beam="1">  1       -4 0.14698918E-02 0.12499454E+03</pdfrwt>
<totfact> 0.65254477E+02</totfact>
</mgrwt>
</event>
<event>
 5    1  0.1451195E-002  0.1249973E+03  0.7818608E-02  0.1235074E+00
          4   -1    0    0  501    0  0.00000000000E+00  0.00000000000E+00  0.29146500215E+02  0.29174155939E+02  0.12700000000E+01 0. -1.
         -4   -1    0    0    0  501 -0.00000000000E+00 -0.00000000000E+00 -0.13392116480E+03  0.13392718649E+03  0.12700000000E+01 0. -1.
         25    2    1    2    0    0  0.00000000000E+00  0.00000000000E+00 -0.10477466458E+03  0.16310134243E+03  0.12499727022E+03 0.  0.
    9000005    1    3    3    0    0  0.13788602041E+02  0.26104133497E+02 -0.12425458033E+03  0.12771746970E+03  0.10000000000E+01 0.  0.
    9000005    1    3    3    0    0 -0.13788602041E+02 -0.26104133497E+02  0.19479915750E+02  0.35383872732E+02  0.10000000000E+01 0.  0.
<mgrwt>
<rscale>  0 0.12499727E+03</rscale>
<asrwt>0</asrwt>
<pdfrwt beam="1">  1        4 0.72908351E-02 0.12499727E+03</pdfrwt>
<pdfrwt beam="2">  1       -4 0.33484499E-01 0.12499727E+03</pdfrwt>
<totfact> 0.17913906E+03</totfact>
</mgrwt>
</event>
<event>
 5    1  0.1451195E-002  0.1250138E+03  0.7818608E-02  0.1235048E+00
         -4   -1    0    0    0  501 -0.00000000000E+00  0.00000000000E+00  0.10893029316E+02  0.10966813014E+02  0.12700000000E+01 0.  1.
          4   -1    0    0  501    0  0.00000000000E+00 -0.00000000000E+00 -0.35739468121E+03  0.35739693767E+03  0.12700000000E+01 0.  1.
         25    2    1    2    0    0  0.00000000000E+00  0.00000000000E+00 -0.34650165190E+03  0.36836375069E+03  0.12501383145E+03 0.  0.
    9000005    1    3    3    0    0 -0.58055283023E+02  0.19284765262E+02 -0.21096208829E+03  0.21965500394E+03  0.10000000000E+01 0.  0.
    9000005    1    3    3    0    0  0.58055283023E+02 -0.19284765262E+02 -0.13553956360E+03  0.14870874675E+03  0.10000000000E+01 0.  0.
<mgrwt>
<rscale>  0 0.12501383E+03</rscale>
<asrwt>0</asrwt>
<pdfrwt beam="2">  1        4 0.89358136E-01 0.12501383E+03</pdfrwt>
<pdfrwt beam="1">  1       -4 0.27327635E-02 0.12501383E+03</pdfrwt>
<totfact> 0.11247724E+03</totfact>
</mgrwt>
</event>
<event>
 5    1  0.1451195E-002  0.1249936E+03  0.7818608E-02  0.1235079E+00
          4   -1    0    0  501    0  0.00000000000E+00  0.00000000000E+00  0.62883951877E+02  0.62896774986E+02  0.12700000000E+01 0. -1.
         -4   -1    0    0    0  501 -0.00000000000E+00 -0.00000000000E+00 -0.62086427774E+02  0.62099415567E+02  0.12700000000E+01 0. -1.
         25    2    1    2    0    0  0.00000000000E+00  0.00000000000E+00  0.79752410325E+00  0.12499619055E+03  0.12499364627E+03 0.  0.
    9000005    1    3    3    0    0 -0.23739711409E+02 -0.57759128035E+02  0.26708410630E+01  0.62512592021E+02  0.10000000000E+01 0.  0.
    9000005    1    3    3    0    0  0.23739711409E+02  0.57759128035E+02 -0.18733169598E+01  0.62483598533E+02  0.10000000000E+01 0.  0.
<mgrwt>
<rscale>  0 0.12499365E+03</rscale>
<asrwt>0</asrwt>
<pdfrwt beam="1">  1        4 0.15724214E-01 0.12499365E+03</pdfrwt>
<pdfrwt beam="2">  1       -4 0.15524833E-01 0.12499365E+03</pdfrwt>
<totfact> 0.19838211E+03</totfact>
</mgrwt>
</event>
<event>
 5    1  0.1451195E-002  0.1249982E+03  0.7818608E-02  0.1235072E+00
         -4   -1    0    0    0  501 -0.00000000000E+00  0.00000000000E+00  0.23333475349E+03  0.23333820966E+03  0.12700000000E+01 0. -1.
          4   -1    0    0  501    0  0.00000000000E+00 -0.00000000000E+00 -0.16712827119E+02  0.16761011017E+02  0.12700000000E+01 0. -1.
         25    2    1    2    0    0  0.00000000000E+00  0.00000000000E+00  0.21662192638E+03  0.25009922068E+03  0.12499824478E+03 0.  0.
    9000005    1    3    3    0    0  0.26695895437E+02 -0.32542890981E+01 -0.45516908085E+01  0.27294305632E+02  0.10000000000E+01 0.  0.
    9000005    1    3    3    0    0 -0.26695895437E+02  0.32542890981E+01  0.22117361718E+03  0.22280491505E+03  0.10000000000E+01 0.  0.
<mgrwt>
<rscale>  0 0.12499824E+03</rscale>
<asrwt>0</asrwt>
<pdfrwt beam="2">  1        4 0.41846619E-02 0.12499824E+03</pdfrwt>
<pdfrwt beam="1">  1       -4 0.58340142E-01 0.12499824E+03</pdfrwt>
<totfact> 0.14495272E+03</totfact>
</mgrwt>
</event>
<event>
 5    1  0.1451195E-002  0.1249965E+03  0.7818608E-02  0.1235075E+00
          4   -1    0    0  501    0  0.00000000000E+00  0.00000000000E+00  0.10181603484E+04  0.10181611404E+04  0.12700000000E+01 0. -1.
         -4   -1    0    0    0  501 -0.00000000000E+00 -0.00000000000E+00 -0.37304380767E+01  0.39406938785E+01  0.12700000000E+01 0. -1.
         25    2    1    2    0    0  0.00000000000E+00  0.00000000000E+00  0.10144299103E+04  0.10221018343E+04  0.12499646719E+03 0.  0.
    9000005    1    3    3    0    0  0.40643636741E+01 -0.52694370222E+02  0.77986928581E+03  0.78165869704E+03  0.10000000000E+01 0.  0.
    9000005    1    3    3    0    0 -0.40643636741E+01  0.52694370222E+02  0.23456062447E+03  0.24044313727E+03  0.10000000000E+01 0.  0.
<mgrwt>
<rscale>  0 0.12499647E+03</rscale>
<asrwt>0</asrwt>
<pdfrwt beam="1">  1        4 0.25456641E+00 0.12499647E+03</pdfrwt>
<pdfrwt beam="2">  1       -4 0.95899073E-03 0.12499647E+03</pdfrwt>
<totfact> 0.35645212E+02</totfact>
</mgrwt>
</event>
<event>
 5    1  0.1451195E-002  0.1250200E+03  0.7818608E-02  0.1235038E+00
          4   -1    0    0  501    0  0.00000000000E+00  0.00000000000E+00  0.79141487710E+03  0.79141589610E+03  0.12700000000E+01 0.  1.
         -4   -1    0    0    0  501 -0.00000000000E+00 -0.00000000000E+00 -0.48546506361E+01  0.50180208049E+01  0.12700000000E+01 0.  1.
         25    2    1    2    0    0  0.00000000000E+00  0.00000000000E+00  0.78656022646E+03  0.79643391690E+03  0.12501997495E+03 0.  0.
    9000005    1    3    3    0    0  0.58778390920E+02 -0.14545334328E+02  0.29458278340E+03  0.30074321649E+03  0.10000000000E+01 0.  0.
    9000005    1    3    3    0    0 -0.58778390920E+02  0.14545334328E+02  0.49197744306E+03  0.49569070041E+03  0.10000000000E+01 0.  0.
<mgrwt>
<rscale>  0 0.12501997E+03</rscale>
<asrwt>0</asrwt>
<pdfrwt beam="1">  1        4 0.19787429E+00 0.12501997E+03</pdfrwt>
<pdfrwt beam="2">  1       -4 0.12342112E-02 0.12501997E+03</pdfrwt>
<totfact> 0.52770356E+02</totfact>
</mgrwt>
</event>
<event>
 5    1  0.1451195E-002  0.1250020E+03  0.7818608E-02  0.1235066E+00
          4   -1    0    0  501    0  0.00000000000E+00  0.00000000000E+00  0.91485623222E+02  0.91494437844E+02  0.12700000000E+01 0. -1.
         -4   -1    0    0    0  501 -0.00000000000E+00 -0.00000000000E+00 -0.42679012976E+02  0.42697904499E+02  0.12700000000E+01 0. -1.
         25    2    1    2    0    0  0.00000000000E+00  0.00000000000E+00  0.48806610246E+02  0.13419234234E+03  0.12500199814E+03 0.  0.
    9000005    1    3    3    0    0 -0.61788733744E+02  0.64102509360E+01  0.31718702912E+02  0.69756827975E+02  0.10000000000E+01 0.  0.
    9000005    1    3    3    0    0  0.61788733744E+02 -0.64102509360E+01  0.17087907334E+02  0.64435514368E+02  0.10000000000E+01 0.  0.
<mgrwt>
<rscale>  0 0.12500200E+03</rscale>
<asrwt>0</asrwt>
<pdfrwt beam="1">  1        4 0.22874869E-01 0.12500200E+03</pdfrwt>
<pdfrwt beam="2">  1       -4 0.10673217E-01 0.12500200E+03</pdfrwt>
<totfact> 0.19340623E+03</totfact>
</mgrwt>
</event>
<event>
 5    1  0.1451195E-002  0.1250000E+03  0.7818608E-02  0.1235069E+00
         -4   -1    0    0    0  501 -0.00000000000E+00  0.00000000000E+00  0.34679666488E+03  0.34679899030E+03  0.12700000000E+01 0. -1.
          4   -1    0    0  501    0  0.00000000000E+00 -0.00000000000E+00 -0.11225629330E+02  0.11297240984E+02  0.12700000000E+01 0. -1.
         25    2    1    2    0    0  0.00000000000E+00  0.00000000000E+00  0.33557103555E+03  0.35809623129E+03  0.12499996384E+03 0.  0.
    9000005    1    3    3    0    0 -0.72677690292E+01 -0.43405533130E+02  0.40685648634E+02  0.59943162894E+02  0.10000000000E+01 0.  0.
    9000005    1    3    3    0    0  0.72677690292E+01  0.43405533130E+02  0.29488538692E+03  0.29815306839E+03  0.10000000000E+01 0.  0.
<mgrwt>
<rscale>  0 0.12499996E+03</rscale>
<asrwt>0</asrwt>
<pdfrwt beam="2">  1        4 0.28156493E-02 0.12499996E+03</pdfrwt>
<pdfrwt beam="1">  1       -4 0.86708413E-01 0.12499996E+03</pdfrwt>
<totfact> 0.11486583E+03</totfact>
</mgrwt>
</event>
<event>
 5    1  0.1451195E-002  0.1250014E+03  0.7818608E-02  0.1235067E+00
          4   -1    0    0  501    0  0.00000000000E+00  0.00000000000E+00  0.66934527098E+01  0.68128708470E+01  0.12700000000E+01 0.  1.
         -4   -1    0    0    0  501 -0.00000000000E+00 -0.00000000000E+00 -0.57832583735E+03  0.57832723181E+03  0.12700000000E+01 0.  1.
         25    2    1    2    0    0  0.00000000000E+00  0.00000000000E+00 -0.57163238464E+03  0.58514010265E+03  0.12500142624E+03 0.  0.
    9000005    1    3    3    0    0 -0.78860561093E+01 -0.36745511781E+01 -0.57550002897E+03  0.57556665605E+03  0.10000000000E+01 0.  0.
    9000005    1    3    3    0    0  0.78860561093E+01  0.36745511781E+01  0.38676443272E+01  0.95734466082E+01  0.10000000000E+01 0.  0.
<mgrwt>
<rscale>  0 0.12500143E+03</rscale>
<asrwt>0</asrwt>
<pdfrwt beam="1">  1        4 0.16884667E-02 0.12500143E+03</pdfrwt>
<pdfrwt beam="2">  1       -4 0.14459639E+00 0.12500143E+03</pdfrwt>
<totfact> 0.75402633E+02</totfact>
</mgrwt>
</event>
<event>
 5    1  0.1451195E-002  0.1249882E+03  0.7818608E-02  0.1235088E+00
         -4   -1    0    0    0  501 -0.00000000000E+00  0.00000000000E+00  0.76483911354E+01  0.77531146619E+01  0.12700000000E+01 0.  1.
          4   -1    0    0  501    0  0.00000000000E+00 -0.00000000000E+00 -0.50705414077E+03  0.50705573123E+03  0.12700000000E+01 0.  1.
         25    2    1    2    0    0  0.00000000000E+00  0.00000000000E+00 -0.49940574963E+03  0.51480884589E+03  0.12498817960E+03 0.  0.
    9000005    1    3    3    0    0 -0.12902223752E+02 -0.45951281898E+02 -0.41581725841E+03  0.41854865915E+03  0.10000000000E+01 0.  0.
    9000005    1    3    3    0    0  0.12902223752E+02  0.45951281898E+02 -0.83588491221E+02  0.96260186736E+02  0.10000000000E+01 0.  0.
<mgrwt>
<rscale>  0 0.12498818E+03</rscale>
<asrwt>0</asrwt>
<pdfrwt beam="2">  1        4 0.12677671E+00 0.12498818E+03</pdfrwt>
<pdfrwt beam="1">  1       -4 0.19253887E-02 0.12498818E+03</pdfrwt>
<totfact> 0.85321489E+02</totfact>
</mgrwt>
</event>
<event>
 5    1  0.1451195E-002  0.1249996E+03  0.7818608E-02  0.1235070E+00
          4   -1    0    0  501    0  0.00000000000E+00  0.00000000000E+00  0.13546797126E+02  0.13606197572E+02  0.12700000000E+01 0.  1.
         -4   -1    0    0    0  501 -0.00000000000E+00 -0.00000000000E+00 -0.28765892395E+03  0.28766172743E+03  0.12700000000E+01 0.  1.
         25    2    1    2    0    0  0.00000000000E+00  0.00000000000E+00 -0.27411212682E+03  0.30126792500E+03  0.12499961825E+03 0.  0.
    9000005    1    3    3    0    0  0.39659701910E+02 -0.40647998125E+02 -0.19990854562E+03  0.20782102473E+03  0.10000000000E+01 0.  0.
    9000005    1    3    3    0    0 -0.39659701910E+02  0.40647998125E+02 -0.74203581199E+02  0.93446900270E+02  0.10000000000E+01 0.  0.
<mgrwt>
<rscale>  0 0.12499962E+03</rscale>
<asrwt>0</asrwt>
<pdfrwt beam="1">  1        4 0.33944757E-02 0.12499962E+03</pdfrwt>
<pdfrwt beam="2">  1       -4 0.71922487E-01 0.12499962E+03</pdfrwt>
<totfact> 0.12935710E+03</totfact>
</mgrwt>
</event>
<event>
 5    1  0.1451195E-002  0.1250000E+03  0.7818608E-02  0.1235069E+00
          4   -1    0    0  501    0  0.00000000000E+00  0.00000000000E+00  0.26343210802E+02  0.26373806236E+02  0.12700000000E+01 0. -1.
         -4   -1    0    0    0  501 -0.00000000000E+00 -0.00000000000E+00 -0.14816351535E+03  0.14816895822E+03  0.12700000000E+01 0. -1.
         25    2    1    2    0    0  0.00000000000E+00  0.00000000000E+00 -0.12182030454E+03  0.17454276445E+03  0.12499996010E+03 0.  0.
    9000005    1    3    3    0    0  0.51046073305E+02 -0.32497686331E+02 -0.82696957732E+02  0.10247725618E+03  0.10000000000E+01 0.  0.
    9000005    1    3    3    0    0 -0.51046073305E+02  0.32497686331E+02 -0.39123346811E+02  0.72065508271E+02  0.10000000000E+01 0.  0.
<mgrwt>
<rscale>  0 0.12499996E+03</rscale>
<asrwt>0</asrwt>
<pdfrwt beam="1">  1        4 0.65903079E-02 0.12499996E+03</pdfrwt>
<pdfrwt beam="2">  1       -4 0.37045381E-01 0.12499996E+03</pdfrwt>
<totfact> 0.17394091E+03</totfact>
</mgrwt>
</event>
<event>
 5    1  0.1451195E-002  0.1250014E+03  0.7818608E-02  0.1235067E+00
          4   -1    0    0  501    0  0.00000000000E+00  0.00000000000E+00  0.70164607452E+02  0.70176100197E+02  0.12700000000E+01 0.  1.
         -4   -1    0    0    0  501 -0.00000000000E+00 -0.00000000000E+00 -0.55650592133E+02  0.55665081557E+02  0.12700000000E+01 0.  1.
         25    2    1    2    0    0  0.00000000000E+00  0.00000000000E+00  0.14514015319E+02  0.12584118175E+03  0.12500138553E+03 0.  0.
    9000005    1    3    3    0    0 -0.18361245150E+02  0.26571983006E+02  0.61115316750E+02  0.69132391436E+02  0.10000000000E+01 0.  0.
    9000005    1    3    3    0    0  0.18361245150E+02 -0.26571983006E+02 -0.46601301431E+02  0.56708790318E+02  0.10000000000E+01 0.  0.
<mgrwt>
<rscale>  0 0.12500139E+03</rscale>
<asrwt>0</asrwt>
<pdfrwt beam="1">  1        4 0.17544400E-01 0.12500139E+03</pdfrwt>
<pdfrwt beam="2">  1       -4 0.13915896E-01 0.12500139E+03</pdfrwt>
<totfact> 0.19788863E+03</totfact>
</mgrwt>
</event>
<event>
 5    1  0.1451195E-002  0.1249950E+03  0.7818608E-02  0.1235077E+00
          4   -1    0    0  501    0  0.00000000000E+00  0.00000000000E+00  0.79477002638E+02  0.79487148951E+02  0.12700000000E+01 0.  1.
         -4   -1    0    0    0  501 -0.00000000000E+00 -0.00000000000E+00 -0.49124039310E+02  0.49140453174E+02  0.12700000000E+01 0.  1.
         25    2    1    2    0    0  0.00000000000E+00  0.00000000000E+00  0.30352963328E+02  0.12862760213E+03  0.12499503048E+03 0.  0.
    9000005    1    3    3    0    0  0.14681089681E+02  0.47104491757E+02 -0.24286014661E+02  0.55001618576E+02  0.10000000000E+01 0.  0.
    9000005    1    3    3    0    0 -0.14681089681E+02 -0.47104491757E+02  0.54638977989E+02  0.73625983549E+02  0.10000000000E+01 0.  0.
<mgrwt>
<rscale>  0 0.12499503E+03</rscale>
<asrwt>0</asrwt>
<pdfrwt beam="1">  1        4 0.19872571E-01 0.12499503E+03</pdfrwt>
<pdfrwt beam="2">  1       -4 0.12284330E-01 0.12499503E+03</pdfrwt>
<totfact> 0.19640733E+03</totfact>
</mgrwt>
</event>
<event>
 5    1  0.1451195E-002  0.1250005E+03  0.7818608E-02  0.1235069E+00
          4   -1    0    0  501    0  0.00000000000E+00  0.00000000000E+00  0.39818599875E+02  0.39838847825E+02  0.12700000000E+01 0.  1.
         -4   -1    0    0    0  501 -0.00000000000E+00 -0.00000000000E+00 -0.98052567013E+02  0.98060791338E+02  0.12700000000E+01 0.  1.
         25    2    1    2    0    0  0.00000000000E+00  0.00000000000E+00 -0.58233967138E+02  0.13789963916E+03  0.12500046221E+03 0.  0.
    9000005    1    3    3    0    0 -0.51143834049E+02  0.34062073862E+02 -0.16569538784E+02  0.63651129232E+02  0.10000000000E+01 0.  0.
    9000005    1    3    3    0    0  0.51143834049E+02 -0.34062073862E+02 -0.41664428354E+02  0.74248509931E+02  0.10000000000E+01 0.  0.
<mgrwt>
<rscale>  0 0.12500046E+03</rscale>
<asrwt>0</asrwt>
<pdfrwt beam="1">  1        4 0.99582092E-02 0.12500046E+03</pdfrwt>
<pdfrwt beam="2">  1       -4 0.24516700E-01 0.12500046E+03</pdfrwt>
<totfact> 0.19148108E+03</totfact>
</mgrwt>
</event>
<event>
 5    1  0.1451195E-002  0.1249997E+03  0.7818608E-02  0.1235070E+00
         -4   -1    0    0    0  501 -0.00000000000E+00  0.00000000000E+00  0.18267908180E+03  0.18268349632E+03  0.12700000000E+01 0. -1.
          4   -1    0    0  501    0  0.00000000000E+00 -0.00000000000E+00 -0.21359500683E+02  0.21397223404E+02  0.12700000000E+01 0. -1.
         25    2    1    2    0    0  0.00000000000E+00  0.00000000000E+00  0.16131958111E+03  0.20408071972E+03  0.12499973164E+03 0.  0.
    9000005    1    3    3    0    0 -0.56203098398E+02 -0.11654713392E+02  0.12100349582E+03  0.13393082772E+03  0.10000000000E+01 0.  0.
    9000005    1    3    3    0    0  0.56203098398E+02  0.11654713392E+02  0.40316085293E+02  0.70149891997E+02  0.10000000000E+01 0.  0.
<mgrwt>
<rscale>  0 0.12499973E+03</rscale>
<asrwt>0</asrwt>
<pdfrwt beam="2">  1        4 0.53451424E-02 0.12499973E+03</pdfrwt>
<pdfrwt beam="1">  1       -4 0.45675037E-01 0.12499973E+03</pdfrwt>
<totfact> 0.16160037E+03</totfact>
</mgrwt>
</event>
<event>
 5    1  0.1451195E-002  0.1249994E+03  0.7818608E-02  0.1235070E+00
          4   -1    0    0  501    0  0.00000000000E+00  0.00000000000E+00  0.30345349996E+03  0.30345615752E+03  0.12700000000E+01 0.  1.
         -4   -1    0    0    0  501 -0.00000000000E+00 -0.00000000000E+00 -0.12838479329E+02  0.12901141480E+02  0.12700000000E+01 0.  1.
         25    2    1    2    0    0  0.00000000000E+00  0.00000000000E+00  0.29061502063E+03  0.31635729900E+03  0.12499940166E+03 0.  0.
    9000005    1    3    3    0    0  0.22191490296E+02  0.25765114774E+02  0.12613865318E+02  0.36282405917E+02  0.10000000000E+01 0.  0.
    9000005    1    3    3    0    0 -0.22191490296E+02 -0.25765114774E+02  0.27800115531E+03  0.28007489308E+03  0.10000000000E+01 0.  0.
<mgrwt>
<rscale>  0 0.12499940E+03</rscale>
<asrwt>0</asrwt>
<pdfrwt beam="1">  1        4 0.75871538E-01 0.12499940E+03</pdfrwt>
<pdfrwt beam="2">  1       -4 0.32177849E-02 0.12499940E+03</pdfrwt>
<totfact> 0.12524858E+03</totfact>
</mgrwt>
</event>
<event>
 5    1  0.1451195E-002  0.1249975E+03  0.7818608E-02  0.1235073E+00
         -4   -1    0    0    0  501 -0.00000000000E+00  0.00000000000E+00  0.87489076827E+02  0.87498294063E+02  0.12700000000E+01 0.  1.
          4   -1    0    0  501    0  0.00000000000E+00 -0.00000000000E+00 -0.44626047135E+02  0.44644114762E+02  0.12700000000E+01 0.  1.
         25    2    1    2    0    0  0.00000000000E+00  0.00000000000E+00  0.42863029692E+02  0.13214240883E+03  0.12499750756E+03 0.  0.
    9000005    1    3    3    0    0  0.43037374978E+02 -0.57728916630E+01  0.68939697589E+02  0.81481432406E+02  0.10000000000E+01 0.  0.
    9000005    1    3    3    0    0 -0.43037374978E+02  0.57728916630E+01 -0.26076667897E+02  0.50660976420E+02  0.10000000000E+01 0.  0.
<mgrwt>
<rscale>  0 0.12499751E+03</rscale>
<asrwt>0</asrwt>
<pdfrwt beam="2">  1        4 0.11159922E-01 0.12499751E+03</pdfrwt>
<pdfrwt beam="1">  1       -4 0.21875680E-01 0.12499751E+03</pdfrwt>
<totfact> 0.19451016E+03</totfact>
</mgrwt>
</event>
<event>
 5    1  0.1451195E-002  0.1249964E+03  0.7818608E-02  0.1235075E+00
         -4   -1    0    0    0  501 -0.00000000000E+00  0.00000000000E+00  0.27132810921E+03  0.27133108142E+03  0.12700000000E+01 0.  1.
          4   -1    0    0  501    0  0.00000000000E+00 -0.00000000000E+00 -0.14364881007E+02  0.14420912119E+02  0.12700000000E+01 0.  1.
         25    2    1    2    0    0  0.00000000000E+00  0.00000000000E+00  0.25696322820E+03  0.28575199354E+03  0.12499640461E+03 0.  0.
    9000005    1    3    3    0    0  0.19627914827E+02  0.39363914676E+02  0.27008102858E+02  0.51625676161E+02  0.10000000000E+01 0.  0.
    9000005    1    3    3    0    0 -0.19627914827E+02 -0.39363914676E+02  0.22995512534E+03  0.23412631738E+03  0.10000000000E+01 0.  0.
<mgrwt>
<rscale>  0 0.12499640E+03</rscale>
<asrwt>0</asrwt>
<pdfrwt beam="2">  1        4 0.35985956E-02 0.12499640E+03</pdfrwt>
<pdfrwt beam="1">  1       -4 0.67839403E-01 0.12499640E+03</pdfrwt>
<totfact> 0.13381096E+03</totfact>
</mgrwt>
</event>
<event>
 5    1  0.1451195E-002  0.1250010E+03  0.7818608E-02  0.1235068E+00
         -4   -1    0    0    0  501 -0.00000000000E+00  0.00000000000E+00  0.42763349151E+02  0.42782203433E+02  0.12700000000E+01 0.  1.
          4   -1    0    0  501    0  0.00000000000E+00 -0.00000000000E+00 -0.91303832513E+02  0.91312664683E+02  0.12700000000E+01 0.  1.
         25    2    1    2    0    0  0.00000000000E+00  0.00000000000E+00 -0.48540483362E+02  0.13409486812E+03  0.12500102052E+03 0.  0.
    9000005    1    3    3    0    0 -0.19433334097E+02 -0.17281733577E+02 -0.85228519392E+02  0.89113485553E+02  0.10000000000E+01 0.  0.
    9000005    1    3    3    0    0  0.19433334097E+02  0.17281733577E+02  0.36688036030E+02  0.44981382563E+02  0.10000000000E+01 0.  0.
<mgrwt>
<rscale>  0 0.12500102E+03</rscale>
<asrwt>0</asrwt>
<pdfrwt beam="2">  1        4 0.22829419E-01 0.12500102E+03</pdfrwt>
<pdfrwt beam="1">  1       -4 0.10694298E-01 0.12500102E+03</pdfrwt>
<totfact> 0.19346191E+03</totfact>
</mgrwt>
</event>
<event>
 5    1  0.1451195E-002  0.1250004E+03  0.7818608E-02  0.1235069E+00
         -4   -1    0    0    0  501 -0.00000000000E+00  0.00000000000E+00  0.93310152149E+02  0.93318794432E+02  0.12700000000E+01 0. -1.
          4   -1    0    0  501    0  0.00000000000E+00 -0.00000000000E+00 -0.41843100259E+02  0.41862369012E+02  0.12700000000E+01 0. -1.
         25    2    1    2    0    0  0.00000000000E+00  0.00000000000E+00  0.51467051890E+02  0.13518116344E+03  0.12500035808E+03 0.  0.
    9000005    1    3    3    0    0 -0.61603561410E+02 -0.10322920224E+02  0.27816796582E+02  0.68383738070E+02  0.10000000000E+01 0.  0.
    9000005    1    3    3    0    0  0.61603561410E+02  0.10322920224E+02  0.23650255308E+02  0.66797425373E+02  0.10000000000E+01 0.  0.
<mgrwt>
<rscale>  0 0.12500036E+03</rscale>
<asrwt>0</asrwt>
<pdfrwt beam="2">  1        4 0.10464264E-01 0.12500036E+03</pdfrwt>
<pdfrwt beam="1">  1       -4 0.23331027E-01 0.12500036E+03</pdfrwt>
<totfact> 0.19289491E+03</totfact>
</mgrwt>
</event>
<event>
 5    1  0.1451195E-002  0.1249943E+03  0.7818608E-02  0.1235078E+00
          4   -1    0    0  501    0  0.00000000000E+00  0.00000000000E+00  0.53441122321E+02  0.53456210630E+02  0.12700000000E+01 0.  1.
         -4   -1    0    0    0  501 -0.00000000000E+00 -0.00000000000E+00 -0.73056863887E+02  0.73067901714E+02  0.12700000000E+01 0.  1.
         25    2    1    2    0    0  0.00000000000E+00  0.00000000000E+00 -0.19615741566E+02  0.12652411234E+03  0.12499429462E+03 0.  0.
    9000005    1    3    3    0    0 -0.20894295819E+02  0.45399120089E+02  0.28164477884E+02  0.57374990345E+02  0.10000000000E+01 0.  0.
    9000005    1    3    3    0    0  0.20894295819E+02 -0.45399120089E+02 -0.47780219450E+02  0.69149121999E+02  0.10000000000E+01 0.  0.
<mgrwt>
<rscale>  0 0.12499429E+03</rscale>
<asrwt>0</asrwt>
<pdfrwt beam="1">  1        4 0.13363546E-01 0.12499429E+03</pdfrwt>
<pdfrwt beam="2">  1       -4 0.18267482E-01 0.12499429E+03</pdfrwt>
<totfact> 0.19755260E+03</totfact>
</mgrwt>
</event>
<event>
 5    1  0.1451195E-002  0.1249971E+03  0.7818608E-02  0.1235074E+00
          4   -1    0    0  501    0  0.00000000000E+00  0.00000000000E+00  0.14044551088E+02  0.14101855029E+02  0.12700000000E+01 0. -1.
         -4   -1    0    0    0  501 -0.00000000000E+00 -0.00000000000E+00 -0.27749476763E+03  0.27749767380E+03  0.12700000000E+01 0. -1.
         25    2    1    2    0    0  0.00000000000E+00  0.00000000000E+00 -0.26345021654E+03  0.29159952883E+03  0.12499707443E+03 0.  0.
    9000005    1    3    3    0    0 -0.24660501447E+02  0.36113531065E+02 -0.23586383313E+03  0.23988554612E+03  0.10000000000E+01 0.  0.
    9000005    1    3    3    0    0  0.24660501447E+02 -0.36113531065E+02 -0.27586383411E+02  0.51713982706E+02  0.10000000000E+01 0.  0.
<mgrwt>
<rscale>  0 0.12499707E+03</rscale>
<asrwt>0</asrwt>
<pdfrwt beam="1">  1        4 0.35186649E-02 0.12499707E+03</pdfrwt>
<pdfrwt beam="2">  1       -4 0.69381200E-01 0.12499707E+03</pdfrwt>
<totfact> 0.13210692E+03</totfact>
</mgrwt>
</event>
<event>
 5    1  0.1451195E-002  0.1250013E+03  0.7818608E-02  0.1235067E+00
         -4   -1    0    0    0  501 -0.00000000000E+00  0.00000000000E+00  0.33823368712E+01  0.36129077915E+01  0.12700000000E+01 0.  1.
          4   -1    0    0  501    0  0.00000000000E+00 -0.00000000000E+00 -0.11166230187E+04  0.11166237409E+04  0.12700000000E+01 0.  1.
         25    2    1    2    0    0  0.00000000000E+00  0.00000000000E+00 -0.11132406818E+04  0.11202366487E+04  0.12500133376E+03 0.  0.
    9000005    1    3    3    0    0 -0.14729318880E+02 -0.60222918761E+02 -0.48629416166E+03  0.49023133768E+03  0.10000000000E+01 0.  0.
    9000005    1    3    3    0    0  0.14729318880E+02  0.60222918761E+02 -0.62694652014E+03  0.63000531101E+03  0.10000000000E+01 0.  0.
<mgrwt>
<rscale>  0 0.12500133E+03</rscale>
<asrwt>0</asrwt>
<pdfrwt beam="2">  1        4 0.27918344E+00 0.12500133E+03</pdfrwt>
<pdfrwt beam="1">  1       -4 0.87449969E-03 0.12500133E+03</pdfrwt>
<totfact> 0.29595348E+02</totfact>
</mgrwt>
</event>
<event>
 5    1  0.1451195E-002  0.1249983E+03  0.7818608E-02  0.1235072E+00
          4   -1    0    0  501    0  0.00000000000E+00  0.00000000000E+00  0.43142596949E+03  0.43142783876E+03  0.12700000000E+01 0. -1.
         -4   -1    0    0    0  501 -0.00000000000E+00 -0.00000000000E+00 -0.90076026714E+01  0.90966920298E+01  0.12700000000E+01 0. -1.
         25    2    1    2    0    0  0.00000000000E+00  0.00000000000E+00  0.42241836682E+03  0.44052453079E+03  0.12499834237E+03 0.  0.
    9000005    1    3    3    0    0 -0.35535820807E+02  0.37372285585E+02  0.86824667831E+02  0.10099012444E+03  0.10000000000E+01 0.  0.
    9000005    1    3    3    0    0  0.35535820807E+02 -0.37372285585E+02  0.33559369899E+03  0.33953440635E+03  0.10000000000E+01 0.  0.
<mgrwt>
<rscale>  0 0.12499834E+03</rscale>
<asrwt>0</asrwt>
<pdfrwt beam="1">  1        4 0.10786786E+00 0.12499834E+03</pdfrwt>
<pdfrwt beam="2">  1       -4 0.22632705E-02 0.12499834E+03</pdfrwt>
<totfact> 0.97747111E+02</totfact>
</mgrwt>
</event>
<event>
 5    1  0.1451195E-002  0.1250048E+03  0.7818608E-02  0.1235062E+00
          4   -1    0    0  501    0  0.00000000000E+00  0.00000000000E+00  0.16311225556E+02  0.16360592262E+02  0.12700000000E+01 0.  1.
         -4   -1    0    0    0  501 -0.00000000000E+00 -0.00000000000E+00 -0.23908792546E+03  0.23909129846E+03  0.12700000000E+01 0.  1.
         25    2    1    2    0    0  0.00000000000E+00  0.00000000000E+00 -0.22277669990E+03  0.25545189072E+03  0.12500484173E+03 0.  0.
    9000005    1    3    3    0    0 -0.22570543279E+02 -0.15867205065E+02  0.32020070826E+01  0.27792993179E+02  0.10000000000E+01 0.  0.
    9000005    1    3    3    0    0  0.22570543279E+02  0.15867205065E+02 -0.22597870698E+03  0.22765889754E+03  0.10000000000E+01 0.  0.
<mgrwt>
<rscale>  0 0.12500484E+03</rscale>
<asrwt>0</asrwt>
<pdfrwt beam="1">  1        4 0.40843996E-02 0.12500484E+03</pdfrwt>
<pdfrwt beam="2">  1       -4 0.59778563E-01 0.12500484E+03</pdfrwt>
<totfact> 0.14316777E+03</totfact>
</mgrwt>
</event>
<event>
 5    1  0.1451195E-002  0.1250001E+03  0.7818608E-02  0.1235069E+00
          4   -1    0    0  501    0  0.00000000000E+00  0.00000000000E+00  0.30376532424E+03  0.30376797908E+03  0.12700000000E+01 0. -1.
         -4   -1    0    0    0  501 -0.00000000000E+00 -0.00000000000E+00 -0.12825380736E+02  0.12888106573E+02  0.12700000000E+01 0. -1.
         25    2    1    2    0    0  0.00000000000E+00  0.00000000000E+00  0.29093994350E+03  0.31665608565E+03  0.12500010340E+03 0.  0.
    9000005    1    3    3    0    0 -0.52432829675E+02 -0.19598628715E+02  0.75086342806E+02  0.93660379837E+02  0.10000000000E+01 0.  0.
    9000005    1    3    3    0    0  0.52432829675E+02  0.19598628715E+02  0.21585360070E+03  0.22299570581E+03  0.10000000000E+01 0.  0.
<mgrwt>
<rscale>  0 0.12500010E+03</rscale>
<asrwt>0</asrwt>
<pdfrwt beam="1">  1        4 0.75949503E-01 0.12500010E+03</pdfrwt>
<pdfrwt beam="2">  1       -4 0.32145178E-02 0.12500010E+03</pdfrwt>
<totfact> 0.12516722E+03</totfact>
</mgrwt>
</event>
<event>
 5    1  0.1451195E-002  0.1249995E+03  0.7818608E-02  0.1235070E+00
          4   -1    0    0  501    0  0.00000000000E+00  0.00000000000E+00  0.53163100393E+02  0.53178267585E+02  0.12700000000E+01 0. -1.
         -4   -1    0    0    0  501 -0.00000000000E+00 -0.00000000000E+00 -0.73445041910E+02  0.73456021409E+02  0.12700000000E+01 0. -1.
         25    2    1    2    0    0  0.00000000000E+00  0.00000000000E+00 -0.20281941518E+02  0.12663428899E+03  0.12499954399E+03 0.  0.
    9000005    1    3    3    0    0  0.52894456097E+02  0.14278747310E+02  0.20310667676E+02  0.58439963484E+02  0.10000000000E+01 0.  0.
    9000005    1    3    3    0    0 -0.52894456097E+02 -0.14278747310E+02 -0.40592609194E+02  0.68194325510E+02  0.10000000000E+01 0.  0.
<mgrwt>
<rscale>  0 0.12499954E+03</rscale>
<asrwt>0</asrwt>
<pdfrwt beam="1">  1        4 0.13294043E-01 0.12499954E+03</pdfrwt>
<pdfrwt beam="2">  1       -4 0.18364529E-01 0.12499954E+03</pdfrwt>
<totfact> 0.19746893E+03</totfact>
</mgrwt>
</event>
<event>
 5    1  0.1451195E-002  0.1249998E+03  0.7818608E-02  0.1235070E+00
         -4   -1    0    0    0  501 -0.00000000000E+00  0.00000000000E+00  0.59088393788E+01  0.60437805060E+01  0.12700000000E+01 0. -1.
          4   -1    0    0  501    0  0.00000000000E+00 -0.00000000000E+00 -0.65348465596E+03  0.65348589004E+03  0.12700000000E+01 0. -1.
         25    2    1    2    0    0  0.00000000000E+00  0.00000000000E+00 -0.64757581658E+03  0.65952967054E+03  0.12499979241E+03 0.  0.
    9000005    1    3    3    0    0  0.29588367321E+02 -0.58073588479E+01 -0.34986797498E+02  0.46198191487E+02  0.10000000000E+01 0.  0.
    9000005    1    3    3    0    0 -0.29588367321E+02  0.58073588479E+01 -0.61258901908E+03  0.61333147905E+03  0.10000000000E+01 0.  0.
<mgrwt>
<rscale>  0 0.12499979E+03</rscale>
<asrwt>0</asrwt>
<pdfrwt beam="2">  1        4 0.16338794E+00 0.12499979E+03</pdfrwt>
<pdfrwt beam="1">  1       -4 0.14942340E-02 0.12499979E+03</pdfrwt>
<totfact> 0.66431414E+02</totfact>
</mgrwt>
</event>
<event>
 5    1  0.1451195E-002  0.1249976E+03  0.7818608E-02  0.1235073E+00
          4   -1    0    0  501    0  0.00000000000E+00  0.00000000000E+00  0.84933641976E+01  0.85877899015E+01  0.12700000000E+01 0. -1.
         -4   -1    0    0    0  501 -0.00000000000E+00 -0.00000000000E+00 -0.45726265383E+03  0.45726441748E+03  0.12700000000E+01 0. -1.
         25    2    1    2    0    0  0.00000000000E+00  0.00000000000E+00 -0.44876928964E+03  0.46585220738E+03  0.12499761517E+03 0.  0.
    9000005    1    3    3    0    0  0.41584418457E+02  0.34651681178E+02 -0.34076256238E+03  0.34503641372E+03  0.10000000000E+01 0.  0.
    9000005    1    3    3    0    0 -0.41584418457E+02 -0.34651681178E+02 -0.10800672725E+03  0.12081579366E+03  0.10000000000E+01 0.  0.
<mgrwt>
<rscale>  0 0.12499762E+03</rscale>
<asrwt>0</asrwt>
<pdfrwt beam="1">  1        4 0.21353663E-02 0.12499762E+03</pdfrwt>
<pdfrwt beam="2">  1       -4 0.11432760E+00 0.12499762E+03</pdfrwt>
<totfact> 0.93244123E+02</totfact>
</mgrwt>
</event>
<event>
 5    1  0.1451195E-002  0.1249997E+03  0.7818608E-02  0.1235070E+00
          4   -1    0    0  501    0  0.00000000000E+00  0.00000000000E+00  0.67682269020E+02  0.67694183204E+02  0.12700000000E+01 0. -1.
         -4   -1    0    0    0  501 -0.00000000000E+00 -0.00000000000E+00 -0.57690256897E+02  0.57704234167E+02  0.12700000000E+01 0. -1.
         25    2    1    2    0    0  0.00000000000E+00  0.00000000000E+00  0.99920121233E+01  0.12539841737E+03  0.12499969109E+03 0.  0.
    9000005    1    3    3    0    0  0.12040198638E+02  0.56365195087E+02 -0.19231164977E+02  0.60768736262E+02  0.10000000000E+01 0.  0.
    9000005    1    3    3    0    0 -0.12040198638E+02 -0.56365195087E+02  0.29223177101E+02  0.64629681110E+02  0.10000000000E+01 0.  0.
<mgrwt>
<rscale>  0 0.12499969E+03</rscale>
<asrwt>0</asrwt>
<pdfrwt beam="1">  1        4 0.16923804E-01 0.12499969E+03</pdfrwt>
<pdfrwt beam="2">  1       -4 0.14425801E-01 0.12499969E+03</pdfrwt>
<totfact> 0.19813607E+03</totfact>
</mgrwt>
</event>
<event>
 5    1  0.1451195E-002  0.1250006E+03  0.7818608E-02  0.1235068E+00
         -4   -1    0    0    0  501 -0.00000000000E+00  0.00000000000E+00  0.43243223555E+03  0.43243410046E+03  0.12700000000E+01 0. -1.
          4   -1    0    0  501    0  0.00000000000E+00 -0.00000000000E+00 -0.89867593876E+01  0.90760533433E+01  0.12700000000E+01 0. -1.
         25    2    1    2    0    0  0.00000000000E+00  0.00000000000E+00  0.42344547616E+03  0.44151015381E+03  0.12500057852E+03 0.  0.
    9000005    1    3    3    0    0 -0.12012656647E+02 -0.22430923158E+02  0.10121461939E+02  0.27402449256E+02  0.10000000000E+01 0.  0.
    9000005    1    3    3    0    0  0.12012656647E+02  0.22430923158E+02  0.41332401423E+03  0.41410770455E+03  0.10000000000E+01 0.  0.
<mgrwt>
<rscale>  0 0.12500058E+03</rscale>
<asrwt>0</asrwt>
<pdfrwt beam="2">  1        4 0.22580846E-02 0.12500058E+03</pdfrwt>
<pdfrwt beam="1">  1       -4 0.10811946E+00 0.12500058E+03</pdfrwt>
<totfact> 0.97560177E+02</totfact>
</mgrwt>
</event>
<event>
 5    1  0.1451195E-002  0.1249970E+03  0.7818608E-02  0.1235074E+00
          4   -1    0    0  501    0  0.00000000000E+00  0.00000000000E+00  0.20870721805E+02  0.20909326356E+02  0.12700000000E+01 0. -1.
         -4   -1    0    0    0  501 -0.00000000000E+00 -0.00000000000E+00 -0.18694143211E+03  0.18694574598E+03  0.12700000000E+01 0. -1.
         25    2    1    2    0    0  0.00000000000E+00  0.00000000000E+00 -0.16607071031E+03  0.20785507234E+03  0.12499700106E+03 0.  0.
    9000005    1    3    3    0    0  0.37680915037E+01 -0.12617880249E+02 -0.18461616453E+03  0.18508791863E+03  0.10000000000E+01 0.  0.
    9000005    1    3    3    0    0 -0.37680915037E+01  0.12617880249E+02  0.18545454225E+02  0.22767153708E+02  0.10000000000E+01 0.  0.
<mgrwt>
<rscale>  0 0.12499700E+03</rscale>
<asrwt>0</asrwt>
<pdfrwt beam="1">  1        4 0.52230458E-02 0.12499700E+03</pdfrwt>
<pdfrwt beam="2">  1       -4 0.46740718E-01 0.12499700E+03</pdfrwt>
<totfact> 0.16013381E+03</totfact>
</mgrwt>
</event>
<event>
 5    1  0.1451195E-002  0.1250027E+03  0.7818608E-02  0.1235065E+00
         -4   -1    0    0    0  501 -0.00000000000E+00  0.00000000000E+00  0.30881974215E+02  0.30908077123E+02  0.12700000000E+01 0. -1.
          4   -1    0    0  501    0  0.00000000000E+00 -0.00000000000E+00 -0.12641245615E+03  0.12641883551E+03  0.12700000000E+01 0. -1.
         25    2    1    2    0    0  0.00000000000E+00  0.00000000000E+00 -0.95530481937E+02  0.15732691263E+03  0.12500273780E+03 0.  0.
    9000005    1    3    3    0    0  0.48846720138E+02 -0.15008014412E+02 -0.93042548577E+02  0.10615629237E+03  0.10000000000E+01 0.  0.
    9000005    1    3    3    0    0 -0.48846720138E+02  0.15008014412E+02 -0.24879333599E+01  0.51170620254E+02  0.10000000000E+01 0.  0.
<mgrwt>
<rscale>  0 0.12500274E+03</rscale>
<asrwt>0</asrwt>
<pdfrwt beam="2">  1        4 0.31607173E-01 0.12500274E+03</pdfrwt>
<pdfrwt beam="1">  1       -4 0.77245542E-02 0.12500274E+03</pdfrwt>
<totfact> 0.18183127E+03</totfact>
</mgrwt>
</event>
<event>
 5    1  0.1451195E-002  0.1249989E+03  0.7818608E-02  0.1235071E+00
         -4   -1    0    0    0  501 -0.00000000000E+00  0.00000000000E+00  0.10862421455E+03  0.10863163851E+03  0.12700000000E+01 0.  1.
          4   -1    0    0  501    0  0.00000000000E+00 -0.00000000000E+00 -0.35940660644E+02  0.35963092018E+02  0.12700000000E+01 0.  1.
         25    2    1    2    0    0  0.00000000000E+00  0.00000000000E+00  0.72683553905E+02  0.14459473053E+03  0.12499894835E+03 0.  0.
    9000005    1    3    3    0    0 -0.59022771204E+02  0.19901971816E+02  0.42172650889E+02  0.75228375535E+02  0.10000000000E+01 0.  0.
    9000005    1    3    3    0    0  0.59022771204E+02 -0.19901971816E+02  0.30510903016E+02  0.69366354997E+02  0.10000000000E+01 0.  0.
<mgrwt>
<rscale>  0 0.12499895E+03</rscale>
<asrwt>0</asrwt>
<pdfrwt beam="2">  1        4 0.89888971E-02 0.12499895E+03</pdfrwt>
<pdfrwt beam="1">  1       -4 0.27159785E-01 0.12499895E+03</pdfrwt>
<totfact> 0.18808159E+03</totfact>
</mgrwt>
</event>
<event>
 5    1  0.1451195E-002  0.1250013E+03  0.7818608E-02  0.1235067E+00
          4   -1    0    0  501    0  0.00000000000E+00  0.00000000000E+00  0.40443483295E+02  0.40463418553E+02  0.12700000000E+01 0. -1.
         -4   -1    0    0    0  501 -0.00000000000E+00 -0.00000000000E+00 -0.96539519669E+02  0.96547872881E+02  0.12700000000E+01 0. -1.
         25    2    1    2    0    0  0.00000000000E+00  0.00000000000E+00 -0.56096036374E+02  0.13701129143E+03  0.12500131473E+03 0.  0.
    9000005    1    3    3    0    0  0.29019652890E+02 -0.39369252932E+02 -0.70686101269E+02  0.85962801506E+02  0.10000000000E+01 0.  0.
    9000005    1    3    3    0    0 -0.29019652890E+02  0.39369252932E+02  0.14590064895E+02  0.51048489928E+02  0.10000000000E+01 0.  0.
<mgrwt>
<rscale>  0 0.12500131E+03</rscale>
<asrwt>0</asrwt>
<pdfrwt beam="1">  1        4 0.10114407E-01 0.12500131E+03</pdfrwt>
<pdfrwt beam="2">  1       -4 0.24138416E-01 0.12500131E+03</pdfrwt>
<totfact> 0.19193711E+03</totfact>
</mgrwt>
</event>
<event>
 5    1  0.1451195E-002  0.1250005E+03  0.7818608E-02  0.1235069E+00
          4   -1    0    0  501    0  0.00000000000E+00  0.00000000000E+00  0.18686494972E+02  0.18729602087E+02  0.12700000000E+01 0.  1.
         -4   -1    0    0    0  501 -0.00000000000E+00 -0.00000000000E+00 -0.20875702128E+03  0.20876088435E+03  0.12700000000E+01 0.  1.
         25    2    1    2    0    0  0.00000000000E+00  0.00000000000E+00 -0.19007052631E+03  0.22749048643E+03  0.12500046579E+03 0.  0.
    9000005    1    3    3    0    0  0.46723225669E+02 -0.35255776804E+02 -0.55194060394E+02  0.80457528658E+02  0.10000000000E+01 0.  0.
    9000005    1    3    3    0    0 -0.46723225669E+02  0.35255776804E+02 -0.13487646591E+03  0.14703295777E+03  0.10000000000E+01 0.  0.
<mgrwt>
<rscale>  0 0.12500047E+03</rscale>
<asrwt>0</asrwt>
<pdfrwt beam="1">  1        4 0.46774957E-02 0.12500047E+03</pdfrwt>
<pdfrwt beam="2">  1       -4 0.52195119E-01 0.12500047E+03</pdfrwt>
<totfact> 0.15277235E+03</totfact>
</mgrwt>
</event>
<event>
 5    1  0.1451195E-002  0.1250029E+03  0.7818608E-02  0.1235065E+00
         -4   -1    0    0    0  501 -0.00000000000E+00  0.00000000000E+00  0.13736875735E+02  0.13795457766E+02  0.12700000000E+01 0.  1.
          4   -1    0    0  501    0  0.00000000000E+00 -0.00000000000E+00 -0.28371053776E+03  0.28371338025E+03  0.12700000000E+01 0.  1.
         25    2    1    2    0    0  0.00000000000E+00  0.00000000000E+00 -0.26997366202E+03  0.29750883802E+03  0.12500292202E+03 0.  0.
    9000005    1    3    3    0    0  0.27097510655E+02  0.52103555979E+02 -0.84142611986E+02  0.10261595773E+03  0.10000000000E+01 0.  0.
    9000005    1    3    3    0    0 -0.27097510655E+02 -0.52103555979E+02 -0.18583105004E+03  0.19489288029E+03  0.10000000000E+01 0.  0.
<mgrwt>
<rscale>  0 0.12500292E+03</rscale>
<asrwt>0</asrwt>
<pdfrwt beam="2">  1        4 0.70935293E-01 0.12500292E+03</pdfrwt>
<pdfrwt beam="1">  1       -4 0.34418979E-02 0.12500292E+03</pdfrwt>
<totfact> 0.13040293E+03</totfact>
</mgrwt>
</event>
<event>
 5    1  0.1451195E-002  0.1250005E+03  0.7818608E-02  0.1235069E+00
         -4   -1    0    0    0  501 -0.00000000000E+00  0.00000000000E+00  0.29660798514E+03  0.29661070404E+03  0.12700000000E+01 0.  1.
          4   -1    0    0  501    0  0.00000000000E+00 -0.00000000000E+00 -0.13136438920E+02  0.13197686445E+02  0.12700000000E+01 0.  1.
         25    2    1    2    0    0  0.00000000000E+00  0.00000000000E+00  0.28347154622E+03  0.30980839048E+03  0.12500048518E+03 0.  0.
    9000005    1    3    3    0    0 -0.23206084180E+02 -0.31518261760E+02  0.26247906885E+03  0.26538309056E+03  0.10000000000E+01 0.  0.
    9000005    1    3    3    0    0  0.23206084180E+02  0.31518261760E+02  0.20992477366E+02  0.44425299924E+02  0.10000000000E+01 0.  0.
<mgrwt>
<rscale>  0 0.12500049E+03</rscale>
<asrwt>0</asrwt>
<pdfrwt beam="2">  1        4 0.32921054E-02 0.12500049E+03</pdfrwt>
<pdfrwt beam="1">  1       -4 0.74159995E-01 0.12500049E+03</pdfrwt>
<totfact> 0.12700401E+03</totfact>
</mgrwt>
</event>
<event>
 5    1  0.1451195E-002  0.1250067E+03  0.7818608E-02  0.1235059E+00
         -4   -1    0    0    0  501 -0.00000000000E+00  0.00000000000E+00  0.20089689515E+02  0.20129791971E+02  0.12700000000E+01 0.  1.
          4   -1    0    0  501    0  0.00000000000E+00 -0.00000000000E+00 -0.19422545301E+03  0.19422960510E+03  0.12700000000E+01 0.  1.
         25    2    1    2    0    0  0.00000000000E+00  0.00000000000E+00 -0.17413576350E+03  0.21435939707E+03  0.12500674776E+03 0.  0.
    9000005    1    3    3    0    0  0.51026232423E+01 -0.22300131595E+02  0.12660241034E+02  0.26165135890E+02  0.10000000000E+01 0.  0.
    9000005    1    3    3    0    0 -0.51026232423E+01  0.22300131595E+02 -0.18679600453E+03  0.18819426118E+03  0.10000000000E+01 0.  0.
<mgrwt>
<rscale>  0 0.12500675E+03</rscale>
<asrwt>0</asrwt>
<pdfrwt beam="2">  1        4 0.48561889E-01 0.12500675E+03</pdfrwt>
<pdfrwt beam="1">  1       -4 0.50279548E-02 0.12500675E+03</pdfrwt>
<totfact> 0.15760316E+03</totfact>
</mgrwt>
</event>
<event>
 5    1  0.1451195E-002  0.1249949E+03  0.7818608E-02  0.1235077E+00
          4   -1    0    0  501    0  0.00000000000E+00  0.00000000000E+00  0.32339348327E+03  0.32339597697E+03  0.12700000000E+01 0. -1.
         -4   -1    0    0    0  501 -0.00000000000E+00 -0.00000000000E+00 -0.12042026666E+02  0.12108811099E+02  0.12700000000E+01 0. -1.
         25    2    1    2    0    0  0.00000000000E+00  0.00000000000E+00  0.31135145661E+03  0.33550478807E+03  0.12499493305E+03 0.  0.
    9000005    1    3    3    0    0  0.47482833012E+02  0.40614621047E+02  0.15332583660E+03  0.16557167344E+03  0.10000000000E+01 0.  0.
    9000005    1    3    3    0    0 -0.47482833012E+02 -0.40614621047E+02  0.15802562000E+03  0.16993311464E+03  0.10000000000E+01 0.  0.
<mgrwt>
<rscale>  0 0.12499493E+03</rscale>
<asrwt>0</asrwt>
<pdfrwt beam="1">  1        4 0.80857028E-01 0.12499493E+03</pdfrwt>
<pdfrwt beam="2">  1       -4 0.30191665E-02 0.12499493E+03</pdfrwt>
<totfact> 0.12032636E+03</totfact>
</mgrwt>
</event>
<event>
 5    1  0.1451195E-002  0.1250001E+03  0.7818608E-02  0.1235069E+00
          4   -1    0    0  501    0  0.00000000000E+00  0.00000000000E+00  0.69080668173E+02  0.69092341220E+02  0.12700000000E+01 0.  1.
         -4   -1    0    0    0  501 -0.00000000000E+00 -0.00000000000E+00 -0.56522731531E+02  0.56536997442E+02  0.12700000000E+01 0.  1.
         25    2    1    2    0    0  0.00000000000E+00  0.00000000000E+00  0.12557936642E+02  0.12562933866E+03  0.12500011584E+03 0.  0.
    9000005    1    3    3    0    0 -0.16541961813E+02 -0.53438782406E+02 -0.21716540707E+02  0.60016232020E+02  0.10000000000E+01 0.  0.
    9000005    1    3    3    0    0  0.16541961813E+02  0.53438782406E+02  0.34274477348E+02  0.65613106641E+02  0.10000000000E+01 0.  0.
<mgrwt>
<rscale>  0 0.12500012E+03</rscale>
<asrwt>0</asrwt>
<pdfrwt beam="1">  1        4 0.17273409E-01 0.12500012E+03</pdfrwt>
<pdfrwt beam="2">  1       -4 0.14133925E-01 0.12500012E+03</pdfrwt>
<totfact> 0.19800910E+03</totfact>
</mgrwt>
</event>
<event>
 5    1  0.1451195E-002  0.1249958E+03  0.7818608E-02  0.1235076E+00
         -4   -1    0    0    0  501 -0.00000000000E+00  0.00000000000E+00  0.71305571320E+03  0.71305684418E+03  0.12700000000E+01 0.  1.
          4   -1    0    0  501    0  0.00000000000E+00 -0.00000000000E+00 -0.54030583053E+01  0.55503098158E+01  0.12700000000E+01 0.  1.
         25    2    1    2    0    0  0.00000000000E+00  0.00000000000E+00  0.70765265489E+03  0.71860715399E+03  0.12499584709E+03 0.  0.
    9000005    1    3    3    0    0  0.40401899540E+01 -0.13117030300E+02  0.70431137626E+03  0.70444580654E+03  0.10000000000E+01 0.  0.
    9000005    1    3    3    0    0 -0.40401899540E+01  0.13117030300E+02  0.33412786313E+01  0.14161347452E+02  0.10000000000E+01 0.  0.
<mgrwt>
<rscale>  0 0.12499585E+03</rscale>
<asrwt>0</asrwt>
<pdfrwt beam="2">  1        4 0.13693124E-02 0.12499585E+03</pdfrwt>
<pdfrwt beam="1">  1       -4 0.17828247E+00 0.12499585E+03</pdfrwt>
<totfact> 0.60159615E+02</totfact>
</mgrwt>
</event>
<event>
 5    1  0.1451195E-002  0.1250000E+03  0.7818608E-02  0.1235069E+00
          4   -1    0    0  501    0  0.00000000000E+00  0.00000000000E+00  0.42321204808E+02  0.42340255979E+02  0.12700000000E+01 0. -1.
         -4   -1    0    0    0  501 -0.00000000000E+00 -0.00000000000E+00 -0.92255904452E+02  0.92264645484E+02  0.12700000000E+01 0. -1.
         25    2    1    2    0    0  0.00000000000E+00  0.00000000000E+00 -0.49934699645E+02  0.13460490146E+03  0.12500002108E+03 0.  0.
    9000005    1    3    3    0    0  0.10067987233E+01  0.59659609550E+02 -0.49668609938E+01  0.59882821940E+02  0.10000000000E+01 0.  0.
    9000005    1    3    3    0    0 -0.10067987233E+01 -0.59659609550E+02 -0.44967838651E+02  0.74722079523E+02  0.10000000000E+01 0.  0.
<mgrwt>
<rscale>  0 0.12500002E+03</rscale>
<asrwt>0</asrwt>
<pdfrwt beam="1">  1        4 0.10583775E-01 0.12500002E+03</pdfrwt>
<pdfrwt beam="2">  1       -4 0.23067450E-01 0.12500002E+03</pdfrwt>
<totfact> 0.19319842E+03</totfact>
</mgrwt>
</event>
<event>
 5    1  0.1451195E-002  0.1249730E+03  0.7818608E-02  0.1235111E+00
         -4   -1    0    0    0  501 -0.00000000000E+00  0.00000000000E+00  0.34013034215E+02  0.34036735985E+02  0.12700000000E+01 0.  1.
          4   -1    0    0  501    0  0.00000000000E+00 -0.00000000000E+00 -0.11472889804E+03  0.11473592701E+03  0.12700000000E+01 0.  1.
         25    2    1    2    0    0  0.00000000000E+00  0.00000000000E+00 -0.80715863828E+02  0.14877266299E+03  0.12497301541E+03 0.  0.
    9000005    1    3    3    0    0  0.14635213235E+02 -0.28986981058E+02 -0.10390023516E+03  0.10886089015E+03  0.10000000000E+01 0.  0.
    9000005    1    3    3    0    0 -0.14635213235E+02  0.28986981058E+02  0.23184371335E+02  0.39911772843E+02  0.10000000000E+01 0.  0.
<mgrwt>
<rscale>  0 0.12497302E+03</rscale>
<asrwt>0</asrwt>
<pdfrwt beam="2">  1        4 0.28686065E-01 0.12497302E+03</pdfrwt>
<pdfrwt beam="1">  1       -4 0.85071002E-02 0.12497302E+03</pdfrwt>
<totfact> 0.18610981E+03</totfact>
</mgrwt>
</event>
<event>
 5    1  0.1451195E-002  0.1250011E+03  0.7818608E-02  0.1235068E+00
         -4   -1    0    0    0  501 -0.00000000000E+00  0.00000000000E+00  0.45140135201E+02  0.45157997143E+02  0.12700000000E+01 0.  1.
          4   -1    0    0  501    0  0.00000000000E+00 -0.00000000000E+00 -0.86498006822E+02  0.86507329656E+02  0.12700000000E+01 0.  1.
         25    2    1    2    0    0  0.00000000000E+00  0.00000000000E+00 -0.41357871622E+02  0.13166532680E+03  0.12500113894E+03 0.  0.
    9000005    1    3    3    0    0  0.32101968289E+02 -0.26420805862E+02  0.28463798508E+02  0.50396261527E+02  0.10000000000E+01 0.  0.
    9000005    1    3    3    0    0 -0.32101968289E+02  0.26420805862E+02 -0.69821670130E+02  0.81269065272E+02  0.10000000000E+01 0.  0.
<mgrwt>
<rscale>  0 0.12500114E+03</rscale>
<asrwt>0</asrwt>
<pdfrwt beam="2">  1        4 0.21627900E-01 0.12500114E+03</pdfrwt>
<pdfrwt beam="1">  1       -4 0.11288432E-01 0.12500114E+03</pdfrwt>
<totfact> 0.19474750E+03</totfact>
</mgrwt>
</event>
<event>
 5    1  0.1451195E-002  0.1250050E+03  0.7818608E-02  0.1235061E+00
         -4   -1    0    0    0  501 -0.00000000000E+00  0.00000000000E+00  0.78039830164E+01  0.79066459969E+01  0.12700000000E+01 0.  1.
          4   -1    0    0  501    0  0.00000000000E+00 -0.00000000000E+00 -0.49721141796E+03  0.49721303991E+03  0.12700000000E+01 0.  1.
         25    2    1    2    0    0  0.00000000000E+00  0.00000000000E+00 -0.48940743495E+03  0.50511968590E+03  0.12500503872E+03 0.  0.
    9000005    1    3    3    0    0 -0.36439050196E+00 -0.58238510329E+02 -0.15311858758E+03  0.16382355975E+03  0.10000000000E+01 0.  0.
    9000005    1    3    3    0    0  0.36439050196E+00  0.58238510329E+02 -0.33628884737E+03  0.34129612616E+03  0.10000000000E+01 0.  0.
<mgrwt>
<rscale>  0 0.12500504E+03</rscale>
<asrwt>0</asrwt>
<pdfrwt beam="2">  1        4 0.12431578E+00 0.12500504E+03</pdfrwt>
<pdfrwt beam="1">  1       -4 0.19640330E-02 0.12500504E+03</pdfrwt>
<totfact> 0.86788505E+02</totfact>
</mgrwt>
</event>
<event>
 5    1  0.1451195E-002  0.1250022E+03  0.7818608E-02  0.1235066E+00
         -4   -1    0    0    0  501 -0.00000000000E+00  0.00000000000E+00  0.35291171567E+02  0.35314015497E+02  0.12700000000E+01 0. -1.
          4   -1    0    0  501    0  0.00000000000E+00 -0.00000000000E+00 -0.11062794919E+03  0.11063523869E+03  0.12700000000E+01 0. -1.
         25    2    1    2    0    0  0.00000000000E+00  0.00000000000E+00 -0.75336777619E+02  0.14594925419E+03  0.12500221893E+03 0.  0.
    9000005    1    3    3    0    0 -0.13616085995E+02 -0.55278950799E+02 -0.75769533272E+01  0.57441887338E+02  0.10000000000E+01 0.  0.
    9000005    1    3    3    0    0  0.13616085995E+02  0.55278950799E+02 -0.67759824291E+02  0.88507366853E+02  0.10000000000E+01 0.  0.
<mgrwt>
<rscale>  0 0.12500222E+03</rscale>
<asrwt>0</asrwt>
<pdfrwt beam="2">  1        4 0.27660753E-01 0.12500222E+03</pdfrwt>
<pdfrwt beam="1">  1       -4 0.88265598E-02 0.12500222E+03</pdfrwt>
<totfact> 0.18738798E+03</totfact>
</mgrwt>
</event>
<event>
 5    1  0.1451195E-002  0.1249980E+03  0.7818608E-02  0.1235072E+00
         -4   -1    0    0    0  501 -0.00000000000E+00  0.00000000000E+00  0.44938341464E+03  0.44938520920E+03  0.12700000000E+01 0.  1.
          4   -1    0    0  501    0  0.00000000000E+00 -0.00000000000E+00 -0.86439791004E+01  0.87367771340E+01  0.12700000000E+01 0.  1.
         25    2    1    2    0    0  0.00000000000E+00  0.00000000000E+00  0.44073943554E+03  0.45812198634E+03  0.12499801730E+03 0.  0.
    9000005    1    3    3    0    0 -0.40617952552E+01 -0.38656358403E+02  0.41033275359E+02  0.56529124462E+02  0.10000000000E+01 0.  0.
    9000005    1    3    3    0    0  0.40617952552E+01  0.38656358403E+02  0.39970616018E+03  0.40159286188E+03  0.10000000000E+01 0.  0.
<mgrwt>
<rscale>  0 0.12499802E+03</rscale>
<asrwt>0</asrwt>
<pdfrwt beam="2">  1        4 0.21728189E-02 0.12499802E+03</pdfrwt>
<pdfrwt beam="1">  1       -4 0.11235768E+00 0.12499802E+03</pdfrwt>
<totfact> 0.94581122E+02</totfact>
</mgrwt>
</event>
<event>
 5    1  0.1451195E-002  0.1249959E+03  0.7818608E-02  0.1235076E+00
         -4   -1    0    0    0  501 -0.00000000000E+00  0.00000000000E+00  0.10550159854E+02  0.10626324526E+02  0.12700000000E+01 0. -1.
          4   -1    0    0  501    0  0.00000000000E+00 -0.00000000000E+00 -0.36882193209E+03  0.36882411864E+03  0.12700000000E+01 0. -1.
         25    2    1    2    0    0  0.00000000000E+00  0.00000000000E+00 -0.35827177223E+03  0.37945044316E+03  0.12499590408E+03 0.  0.
    9000005    1    3    3    0    0  0.16657932915E+00 -0.61482689180E+02 -0.21305505428E+03  0.22175122315E+03  0.10000000000E+01 0.  0.
    9000005    1    3    3    0    0 -0.16657932915E+00  0.61482689180E+02 -0.14521671796E+03  0.15769922001E+03  0.10000000000E+01 0.  0.
<mgrwt>
<rscale>  0 0.12499590E+03</rscale>
<asrwt>0</asrwt>
<pdfrwt beam="2">  1        4 0.92215234E-01 0.12499590E+03</pdfrwt>
<pdfrwt beam="1">  1       -4 0.26473351E-02 0.12499590E+03</pdfrwt>
<totfact> 0.11006134E+03</totfact>
</mgrwt>
</event>
<event>
 5    1  0.1451195E-002  0.1250051E+03  0.7818608E-02  0.1235061E+00
         -4   -1    0    0    0  501 -0.00000000000E+00  0.00000000000E+00  0.31250378805E+02  0.31276174245E+02  0.12700000000E+01 0.  1.
          4   -1    0    0  501    0  0.00000000000E+00 -0.00000000000E+00 -0.12492801721E+03  0.12493447236E+03  0.12700000000E+01 0.  1.
         25    2    1    2    0    0  0.00000000000E+00  0.00000000000E+00 -0.93677638406E+02  0.15621064661E+03  0.12500506460E+03 0.  0.
    9000005    1    3    3    0    0  0.17325264562E+02  0.53240038521E+02 -0.81535030835E+02  0.98912222436E+02  0.10000000000E+01 0.  0.
    9000005    1    3    3    0    0 -0.17325264562E+02 -0.53240038521E+02 -0.12142607571E+02  0.57298424171E+02  0.10000000000E+01 0.  0.
<mgrwt>
<rscale>  0 0.12500506E+03</rscale>
<asrwt>0</asrwt>
<pdfrwt beam="2">  1        4 0.31236034E-01 0.12500506E+03</pdfrwt>
<pdfrwt beam="1">  1       -4 0.78166263E-02 0.12500506E+03</pdfrwt>
<totfact> 0.18235411E+03</totfact>
</mgrwt>
</event>
<event>
 5    1  0.1451195E-002  0.1249904E+03  0.7818608E-02  0.1235084E+00
         -4   -1    0    0    0  501 -0.00000000000E+00  0.00000000000E+00  0.21690284410E+03  0.21690656209E+03  0.12700000000E+01 0.  1.
          4   -1    0    0  501    0  0.00000000000E+00 -0.00000000000E+00 -0.17980170390E+02  0.18024966775E+02  0.12700000000E+01 0.  1.
         25    2    1    2    0    0  0.00000000000E+00  0.00000000000E+00  0.19892267371E+03  0.23493152886E+03  0.12499037219E+03 0.  0.
    9000005    1    3    3    0    0  0.27154796928E+02  0.53016365931E+02  0.13495190279E+03  0.14751655541E+03  0.10000000000E+01 0.  0.
    9000005    1    3    3    0    0 -0.27154796928E+02 -0.53016365931E+02  0.63970770921E+02  0.87414973459E+02  0.10000000000E+01 0.  0.
<mgrwt>
<rscale>  0 0.12499037E+03</rscale>
<asrwt>0</asrwt>
<pdfrwt beam="2">  1        4 0.45011070E-02 0.12499037E+03</pdfrwt>
<pdfrwt beam="1">  1       -4 0.54231774E-01 0.12499037E+03</pdfrwt>
<totfact> 0.15016014E+03</totfact>
</mgrwt>
</event>
<event>
 5    1  0.1451195E-002  0.1250000E+03  0.7818608E-02  0.1235069E+00
          4   -1    0    0  501    0  0.00000000000E+00  0.00000000000E+00  0.66270027344E+02  0.66282195378E+02  0.12700000000E+01 0.  1.
         -4   -1    0    0    0  501 -0.00000000000E+00 -0.00000000000E+00 -0.58920068907E+02  0.58933754504E+02  0.12700000000E+01 0.  1.
         25    2    1    2    0    0  0.00000000000E+00  0.00000000000E+00  0.73499584370E+01  0.12521594988E+03  0.12500004886E+03 0.  0.
    9000005    1    3    3    0    0  0.45062678648E+02  0.43280822772E+02  0.48510714549E+01  0.62677009510E+02  0.10000000000E+01 0.  0.
    9000005    1    3    3    0    0 -0.45062678648E+02 -0.43280822772E+02  0.24988869821E+01  0.62538940373E+02  0.10000000000E+01 0.  0.
<mgrwt>
<rscale>  0 0.12500005E+03</rscale>
<asrwt>0</asrwt>
<pdfrwt beam="1">  1        4 0.16570738E-01 0.12500005E+03</pdfrwt>
<pdfrwt beam="2">  1       -4 0.14733249E-01 0.12500005E+03</pdfrwt>
<totfact> 0.19823326E+03</totfact>
</mgrwt>
</event>
<event>
 5    1  0.1451195E-002  0.1250006E+03  0.7818608E-02  0.1235068E+00
         -4   -1    0    0    0  501 -0.00000000000E+00  0.00000000000E+00  0.92735315811E+02  0.92744011659E+02  0.12700000000E+01 0. -1.
          4   -1    0    0  501    0  0.00000000000E+00 -0.00000000000E+00 -0.42102737035E+02  0.42121887017E+02  0.12700000000E+01 0. -1.
         25    2    1    2    0    0  0.00000000000E+00  0.00000000000E+00  0.50632578776E+02  0.13486589868E+03  0.12500061037E+03 0.  0.
    9000005    1    3    3    0    0 -0.50266076376E+02 -0.36893354662E+02  0.29828466190E+02  0.69126951673E+02  0.10000000000E+01 0.  0.
    9000005    1    3    3    0    0  0.50266076376E+02  0.36893354662E+02  0.20804112586E+02  0.65738947002E+02  0.10000000000E+01 0.  0.
<mgrwt>
<rscale>  0 0.12500061E+03</rscale>
<asrwt>0</asrwt>
<pdfrwt beam="2">  1        4 0.10529165E-01 0.12500061E+03</pdfrwt>
<pdfrwt beam="1">  1       -4 0.23187310E-01 0.12500061E+03</pdfrwt>
<totfact> 0.19305888E+03</totfact>
</mgrwt>
</event>
<event>
 5    1  0.1451195E-002  0.1249948E+03  0.7818608E-02  0.1235077E+00
          4   -1    0    0  501    0  0.00000000000E+00  0.00000000000E+00  0.23890629073E+03  0.23890966629E+03  0.12700000000E+01 0.  1.
         -4   -1    0    0    0  501 -0.00000000000E+00 -0.00000000000E+00 -0.16321044266E+02  0.16370381361E+02  0.12700000000E+01 0.  1.
         25    2    1    2    0    0  0.00000000000E+00  0.00000000000E+00  0.22258524646E+03  0.25528004766E+03  0.12499484305E+03 0.  0.
    9000005    1    3    3    0    0 -0.37016908110E+02  0.50215073826E+02  0.11869096273E+03  0.13409082653E+03  0.10000000000E+01 0.  0.
    9000005    1    3    3    0    0  0.37016908110E+02 -0.50215073826E+02  0.10389428373E+03  0.12118922112E+03  0.10000000000E+01 0.  0.
<mgrwt>
<rscale>  0 0.12499484E+03</rscale>
<asrwt>0</asrwt>
<pdfrwt beam="1">  1        4 0.59733160E-01 0.12499484E+03</pdfrwt>
<pdfrwt beam="2">  1       -4 0.40868502E-02 0.12499484E+03</pdfrwt>
<totfact> 0.14325677E+03</totfact>
</mgrwt>
</event>
<event>
 5    1  0.1451195E-002  0.1249978E+03  0.7818608E-02  0.1235073E+00
         -4   -1    0    0    0  501 -0.00000000000E+00  0.00000000000E+00  0.63692917014E+03  0.63693043629E+03  0.12700000000E+01 0.  1.
          4   -1    0    0  501    0  0.00000000000E+00 -0.00000000000E+00 -0.60656921659E+01  0.61972188481E+01  0.12700000000E+01 0.  1.
         25    2    1    2    0    0  0.00000000000E+00  0.00000000000E+00  0.63086347798E+03  0.64312765514E+03  0.12499781184E+03 0.  0.
    9000005    1    3    3    0    0  0.70571450106E+01 -0.50785458858E+02  0.13163189182E+03  0.14126896712E+03  0.10000000000E+01 0.  0.
    9000005    1    3    3    0    0 -0.70571450106E+01  0.50785458858E+02  0.49923158615E+03  0.50185868802E+03  0.10000000000E+01 0.  0.
<mgrwt>
<rscale>  0 0.12499781E+03</rscale>
<asrwt>0</asrwt>
<pdfrwt beam="2">  1        4 0.15330223E-02 0.12499781E+03</pdfrwt>
<pdfrwt beam="1">  1       -4 0.15924887E+00 0.12499781E+03</pdfrwt>
<totfact> 0.68306193E+02</totfact>
</mgrwt>
</event>
<event>
 5    1  0.1451195E-002  0.1250020E+03  0.7818608E-02  0.1235066E+00
         -4   -1    0    0    0  501 -0.00000000000E+00  0.00000000000E+00  0.31331757895E+02  0.31357486392E+02  0.12700000000E+01 0.  1.
          4   -1    0    0  501    0  0.00000000000E+00 -0.00000000000E+00 -0.12459759150E+03  0.12460406377E+03  0.12700000000E+01 0.  1.
         25    2    1    2    0    0  0.00000000000E+00  0.00000000000E+00 -0.93265833601E+02  0.15596155016E+03  0.12500195762E+03 0.  0.
    9000005    1    3    3    0    0  0.40502476655E+02  0.32600947440E+02 -0.89891373429E+02  0.10384956142E+03  0.10000000000E+01 0.  0.
    9000005    1    3    3    0    0 -0.40502476655E+02 -0.32600947440E+02 -0.33744601724E+01  0.52111988742E+02  0.10000000000E+01 0.  0.
<mgrwt>
<rscale>  0 0.12500196E+03</rscale>
<asrwt>0</asrwt>
<pdfrwt beam="2">  1        4 0.31153422E-01 0.12500196E+03</pdfrwt>
<pdfrwt beam="1">  1       -4 0.78369649E-02 0.12500196E+03</pdfrwt>
<totfact> 0.18248652E+03</totfact>
</mgrwt>
</event>
<event>
 5    1  0.1451195E-002  0.1250066E+03  0.7818608E-02  0.1235059E+00
          4   -1    0    0  501    0  0.00000000000E+00  0.00000000000E+00  0.49866489514E+02  0.49882659076E+02  0.12700000000E+01 0.  1.
         -4   -1    0    0    0  501 -0.00000000000E+00 -0.00000000000E+00 -0.78308480656E+02  0.78318778353E+02  0.12700000000E+01 0.  1.
         25    2    1    2    0    0  0.00000000000E+00  0.00000000000E+00 -0.28441991142E+02  0.12820143743E+03  0.12500664662E+03 0.  0.
    9000005    1    3    3    0    0  0.20088494064E+02 -0.34728714913E+02 -0.63362558514E+02  0.75002966973E+02  0.10000000000E+01 0.  0.
    9000005    1    3    3    0    0 -0.20088494064E+02  0.34728714913E+02  0.34920567372E+02  0.53198470456E+02  0.10000000000E+01 0.  0.
<mgrwt>
<rscale>  0 0.12500665E+03</rscale>
<asrwt>0</asrwt>
<pdfrwt beam="1">  1        4 0.12469931E-01 0.12500665E+03</pdfrwt>
<pdfrwt beam="2">  1       -4 0.19580428E-01 0.12500665E+03</pdfrwt>
<totfact> 0.19658531E+03</totfact>
</mgrwt>
</event>
<event>
 5    1  0.1451195E-002  0.1249968E+03  0.7818608E-02  0.1235074E+00
          4   -1    0    0  501    0  0.00000000000E+00  0.00000000000E+00  0.21754180542E+02  0.21791220045E+02  0.12700000000E+01 0. -1.
         -4   -1    0    0    0  501 -0.00000000000E+00 -0.00000000000E+00 -0.17936208864E+03  0.17936658480E+03  0.12700000000E+01 0. -1.
         25    2    1    2    0    0  0.00000000000E+00  0.00000000000E+00 -0.15760790810E+03  0.20115780485E+03  0.12499683898E+03 0.  0.
    9000005    1    3    3    0    0  0.51566255319E+02 -0.34126296295E+02 -0.93320693659E+02  0.11195282333E+03  0.10000000000E+01 0.  0.
    9000005    1    3    3    0    0 -0.51566255319E+02  0.34126296295E+02 -0.64287214444E+02  0.89204981516E+02  0.10000000000E+01 0.  0.
<mgrwt>
<rscale>  0 0.12499684E+03</rscale>
<asrwt>0</asrwt>
<pdfrwt beam="1">  1        4 0.54437376E-02 0.12499684E+03</pdfrwt>
<pdfrwt beam="2">  1       -4 0.44845710E-01 0.12499684E+03</pdfrwt>
<totfact> 0.16276976E+03</totfact>
</mgrwt>
</event>
<event>
 5    1  0.1451195E-002  0.1249667E+03  0.7818608E-02  0.1235121E+00
         -4   -1    0    0    0  501 -0.00000000000E+00  0.00000000000E+00  0.22751794392E+02  0.22787212380E+02  0.12700000000E+01 0.  1.
          4   -1    0    0  501    0  0.00000000000E+00 -0.00000000000E+00 -0.17142719377E+03  0.17143189803E+03  0.12700000000E+01 0.  1.
         25    2    1    2    0    0  0.00000000000E+00  0.00000000000E+00 -0.14867539938E+03  0.19421911041E+03  0.12496674946E+03 0.  0.
    9000005    1    3    3    0    0  0.41469121483E+02  0.46695064695E+02 -0.71621234875E+02  0.95030092016E+02  0.10000000000E+01 0.  0.
    9000005    1    3    3    0    0 -0.41469121483E+02 -0.46695064695E+02 -0.77054164500E+02  0.99189018396E+02  0.10000000000E+01 0.  0.
<mgrwt>
<rscale>  0 0.12496675E+03</rscale>
<asrwt>0</asrwt>
<pdfrwt beam="2">  1        4 0.42861810E-01 0.12496675E+03</pdfrwt>
<pdfrwt beam="1">  1       -4 0.56929644E-02 0.12496675E+03</pdfrwt>
<totfact> 0.16568908E+03</totfact>
</mgrwt>
</event>
<event>
 5    1  0.1451195E-002  0.1250000E+03  0.7818608E-02  0.1235069E+00
         -4   -1    0    0    0  501 -0.00000000000E+00  0.00000000000E+00  0.47569639261E+01  0.49235765247E+01  0.12700000000E+01 0. -1.
          4   -1    0    0  501    0  0.00000000000E+00 -0.00000000000E+00 -0.80686364184E+03  0.80686464133E+03  0.12700000000E+01 0. -1.
         25    2    1    2    0    0  0.00000000000E+00  0.00000000000E+00 -0.80210667792E+03  0.81178821785E+03  0.12499995155E+03 0.  0.
    9000005    1    3    3    0    0 -0.11740534600E+01 -0.58401217643E+02 -0.54527470883E+03  0.54839546744E+03  0.10000000000E+01 0.  0.
    9000005    1    3    3    0    0  0.11740534600E+01  0.58401217643E+02 -0.25683196909E+03  0.26339275041E+03  0.10000000000E+01 0.  0.
<mgrwt>
<rscale>  0 0.12499995E+03</rscale>
<asrwt>0</asrwt>
<pdfrwt beam="2">  1        4 0.20173640E+00 0.12499995E+03</pdfrwt>
<pdfrwt beam="1">  1       -4 0.12101952E-02 0.12499995E+03</pdfrwt>
<totfact> 0.51447180E+02</totfact>
</mgrwt>
</event>
<event>
 5    1  0.1451195E-002  0.1249572E+03  0.7818608E-02  0.1235136E+00
          4   -1    0    0  501    0  0.00000000000E+00  0.00000000000E+00  0.13622844981E+03  0.13623436952E+03  0.12700000000E+01 0. -1.
         -4   -1    0    0    0  501 -0.00000000000E+00 -0.00000000000E+00 -0.28634003709E+02  0.28662153938E+02  0.12700000000E+01 0. -1.
         25    2    1    2    0    0  0.00000000000E+00  0.00000000000E+00  0.10759444610E+03  0.16489652345E+03  0.12495718713E+03 0.  0.
    9000005    1    3    3    0    0  0.19469605134E+02 -0.21396950872E+02  0.12686293874E+03  0.13012340396E+03  0.10000000000E+01 0.  0.
    9000005    1    3    3    0    0 -0.19469605134E+02  0.21396950872E+02 -0.19268492645E+02  0.34773119496E+02  0.10000000000E+01 0.  0.
<mgrwt>
<rscale>  0 0.12495719E+03</rscale>
<asrwt>0</asrwt>
<pdfrwt beam="1">  1        4 0.34061371E-01 0.12495719E+03</pdfrwt>
<pdfrwt beam="2">  1       -4 0.71627598E-02 0.12495719E+03</pdfrwt>
<totfact> 0.17847465E+03</totfact>
</mgrwt>
</event>
<event>
 5    1  0.1451195E-002  0.1250011E+03  0.7818608E-02  0.1235068E+00
         -4   -1    0    0    0  501 -0.00000000000E+00  0.00000000000E+00  0.12166190006E+02  0.12232296565E+02  0.12700000000E+01 0.  1.
          4   -1    0    0  501    0  0.00000000000E+00 -0.00000000000E+00 -0.32014246967E+03  0.32014498870E+03  0.12700000000E+01 0.  1.
         25    2    1    2    0    0  0.00000000000E+00  0.00000000000E+00 -0.30797627967E+03  0.33237728526E+03  0.12500108368E+03 0.  0.
    9000005    1    3    3    0    0 -0.34657539117E+01 -0.29303906780E+02 -0.75118340744E+01  0.30465686500E+02  0.10000000000E+01 0.  0.
    9000005    1    3    3    0    0  0.34657539117E+01  0.29303906780E+02 -0.30046444559E+03  0.30191159876E+03  0.10000000000E+01 0.  0.
<mgrwt>
<rscale>  0 0.12500108E+03</rscale>
<asrwt>0</asrwt>
<pdfrwt beam="2">  1        4 0.80044168E-01 0.12500108E+03</pdfrwt>
<pdfrwt beam="1">  1       -4 0.30501268E-02 0.12500108E+03</pdfrwt>
<totfact> 0.12109504E+03</totfact>
</mgrwt>
</event>
<event>
 5    1  0.1451195E-002  0.1250006E+03  0.7818608E-02  0.1235068E+00
         -4   -1    0    0    0  501 -0.00000000000E+00  0.00000000000E+00  0.38101749915E+03  0.38101961571E+03  0.12700000000E+01 0.  1.
          4   -1    0    0  501    0  0.00000000000E+00 -0.00000000000E+00 -0.10210764283E+02  0.10289441541E+02  0.12700000000E+01 0.  1.
         25    2    1    2    0    0  0.00000000000E+00  0.00000000000E+00  0.37080673486E+03  0.39130905725E+03  0.12500057467E+03 0.  0.
    9000005    1    3    3    0    0  0.26038493896E+02 -0.79846432103E+01  0.36147676614E+03  0.36250270365E+03  0.10000000000E+01 0.  0.
    9000005    1    3    3    0    0 -0.26038493896E+02  0.79846432103E+01  0.93299687210E+01  0.28806353603E+02  0.10000000000E+01 0.  0.
<mgrwt>
<rscale>  0 0.12500057E+03</rscale>
<asrwt>0</asrwt>
<pdfrwt beam="2">  1        4 0.25627906E-02 0.12500057E+03</pdfrwt>
<pdfrwt beam="1">  1       -4 0.95264464E-01 0.12500057E+03</pdfrwt>
<totfact> 0.10750295E+03</totfact>
</mgrwt>
</event>
<event>
 5    1  0.1451195E-002  0.1250017E+03  0.7818608E-02  0.1235067E+00
         -4   -1    0    0    0  501 -0.00000000000E+00  0.00000000000E+00  0.17884088887E+02  0.17929125336E+02  0.12700000000E+01 0.  1.
          4   -1    0    0  501    0  0.00000000000E+00 -0.00000000000E+00 -0.21810481991E+03  0.21810851742E+03  0.12700000000E+01 0.  1.
         25    2    1    2    0    0  0.00000000000E+00  0.00000000000E+00 -0.20022073103E+03  0.23603764275E+03  0.12500171064E+03 0.  0.
    9000005    1    3    3    0    0 -0.54904614670E+02 -0.27238245096E+02 -0.12315337577E+03  0.13756523060E+03  0.10000000000E+01 0.  0.
    9000005    1    3    3    0    0  0.54904614670E+02  0.27238245096E+02 -0.77067355259E+02  0.98472412149E+02  0.10000000000E+01 0.  0.
<mgrwt>
<rscale>  0 0.12500171E+03</rscale>
<asrwt>0</asrwt>
<pdfrwt beam="2">  1        4 0.54532288E-01 0.12500171E+03</pdfrwt>
<pdfrwt beam="1">  1       -4 0.44771146E-02 0.12500171E+03</pdfrwt>
<totfact> 0.14973357E+03</totfact>
</mgrwt>
</event>
<event>
 4    1  0.1451195E-002  0.1250647E+03  0.7818608E-02  0.1234968E+00
          4   -1    0    0  501    0  0.00000000000E+00  0.00000000000E+00  0.65454277234E+01  0.66674975877E+01  0.12700000000E+01 0.  1.
         -4   -1    0    0    0  501 -0.00000000000E+00 -0.00000000000E+00 -0.59176689332E+03  0.59176825610E+03  0.12700000000E+01 0.  1.
    9000005    1    1    2    0    0  0.78068354541E+01  0.40661975743E+02 -0.68431501546E+02  0.79988832689E+02  0.10000000000E+01 0.  0.
    9000005    1    1    2    0    0 -0.78068354541E+01 -0.40661975743E+02 -0.51678996405E+03  0.51844692100E+03  0.10000000000E+01 0.  0.
<mgrwt>
<rscale>  0 0.12506473E+03</rscale>
<asrwt>0</asrwt>
<pdfrwt beam="1">  1        4 0.16517880E-02 0.12506473E+03</pdfrwt>
<pdfrwt beam="2">  1       -4 0.14795697E+00 0.12506473E+03</pdfrwt>
<totfact> 0.73592290E+02</totfact>
</mgrwt>
</event>
<event>
 5    1  0.1451195E-002  0.1250042E+03  0.7818608E-02  0.1235063E+00
          4   -1    0    0  501    0  0.00000000000E+00  0.00000000000E+00  0.79260685956E+02  0.79270859956E+02  0.12700000000E+01 0. -1.
         -4   -1    0    0    0  501 -0.00000000000E+00 -0.00000000000E+00 -0.49265368985E+02  0.49281735777E+02  0.12700000000E+01 0. -1.
         25    2    1    2    0    0  0.00000000000E+00  0.00000000000E+00  0.29995316971E+02  0.12855259573E+03  0.12500420325E+03 0.  0.
    9000005    1    3    3    0    0  0.57654015499E+02 -0.19799572625E+02  0.29154473967E+02  0.67579523019E+02  0.10000000000E+01 0.  0.
    9000005    1    3    3    0    0 -0.57654015499E+02  0.19799572625E+02  0.84084300404E+00  0.60973072714E+02  0.10000000000E+01 0.  0.
<mgrwt>
<rscale>  0 0.12500420E+03</rscale>
<asrwt>0</asrwt>
<pdfrwt beam="1">  1        4 0.19818489E-01 0.12500420E+03</pdfrwt>
<pdfrwt beam="2">  1       -4 0.12319660E-01 0.12500420E+03</pdfrwt>
<totfact> 0.19640593E+03</totfact>
</mgrwt>
</event>
<event>
 5    1  0.1451195E-002  0.1249981E+03  0.7818608E-02  0.1235072E+00
         -4   -1    0    0    0  501 -0.00000000000E+00  0.00000000000E+00  0.73454752364E+02  0.73465730411E+02  0.12700000000E+01 0. -1.
          4   -1    0    0  501    0  0.00000000000E+00 -0.00000000000E+00 -0.53154862113E+02  0.53170031655E+02  0.12700000000E+01 0. -1.
         25    2    1    2    0    0  0.00000000000E+00  0.00000000000E+00  0.20299890251E+02  0.12663576207E+03  0.12499812275E+03 0.  0.
    9000005    1    3    3    0    0 -0.44618445415E+02 -0.30111841062E+02  0.42308596323E+02  0.68472957919E+02  0.10000000000E+01 0.  0.
    9000005    1    3    3    0    0  0.44618445415E+02  0.30111841062E+02 -0.22008706072E+02  0.58162804147E+02  0.10000000000E+01 0.  0.
<mgrwt>
<rscale>  0 0.12499812E+03</rscale>
<asrwt>0</asrwt>
<pdfrwt beam="2">  1        4 0.13291984E-01 0.12499812E+03</pdfrwt>
<pdfrwt beam="1">  1       -4 0.18366957E-01 0.12499812E+03</pdfrwt>
<totfact> 0.19747470E+03</totfact>
</mgrwt>
</event>
<event>
 5    1  0.1451195E-002  0.1249814E+03  0.7818608E-02  0.1235098E+00
         -4   -1    0    0    0  501 -0.00000000000E+00  0.00000000000E+00  0.45857594054E+03  0.45857769913E+03  0.12700000000E+01 0. -1.
          4   -1    0    0  501    0  0.00000000000E+00 -0.00000000000E+00 -0.84665508958E+01  0.85612723395E+01  0.12700000000E+01 0. -1.
         25    2    1    2    0    0  0.00000000000E+00  0.00000000000E+00  0.45010938964E+03  0.46713897147E+03  0.12498142271E+03 0.  0.
    9000005    1    3    3    0    0  0.43537759605E+02  0.44059733626E+02  0.25571549879E+03  0.26311254809E+03  0.10000000000E+01 0.  0.
    9000005    1    3    3    0    0 -0.43537759605E+02 -0.44059733626E+02  0.19439389085E+03  0.20402642338E+03  0.10000000000E+01 0.  0.
<mgrwt>
<rscale>  0 0.12498142E+03</rscale>
<asrwt>0</asrwt>
<pdfrwt beam="2">  1        4 0.21286978E-02 0.12498142E+03</pdfrwt>
<pdfrwt beam="1">  1       -4 0.11465604E+00 0.12498142E+03</pdfrwt>
<totfact> 0.93058586E+02</totfact>
</mgrwt>
</event>
<event>
 5    1  0.1451195E-002  0.1250018E+03  0.7818608E-02  0.1235067E+00
          4   -1    0    0  501    0  0.00000000000E+00  0.00000000000E+00  0.29919361622E+02  0.29946303610E+02  0.12700000000E+01 0.  1.
         -4   -1    0    0    0  501 -0.00000000000E+00 -0.00000000000E+00 -0.13047415165E+03  0.13048033242E+03  0.12700000000E+01 0.  1.
         25    2    1    2    0    0  0.00000000000E+00  0.00000000000E+00 -0.10055479003E+03  0.16042663603E+03  0.12500175899E+03 0.  0.
    9000005    1    3    3    0    0 -0.44436952413E+02 -0.10783466424E+02 -0.10494511311E+03  0.11447883059E+03  0.10000000000E+01 0.  0.
    9000005    1    3    3    0    0  0.44436952413E+02  0.10783466424E+02  0.43903230831E+01  0.45947805439E+02  0.10000000000E+01 0.  0.
<mgrwt>
<rscale>  0 0.12500176E+03</rscale>
<asrwt>0</asrwt>
<pdfrwt beam="1">  1        4 0.74839811E-02 0.12500176E+03</pdfrwt>
<pdfrwt beam="2">  1       -4 0.32622677E-01 0.12500176E+03</pdfrwt>
<totfact> 0.18036957E+03</totfact>
</mgrwt>
</event>
<event>
 5    1  0.1451195E-002  0.1250004E+03  0.7818608E-02  0.1235069E+00
         -4   -1    0    0    0  501 -0.00000000000E+00  0.00000000000E+00  0.96985275405E+01  0.97813259047E+01  0.12700000000E+01 0. -1.
          4   -1    0    0  501    0  0.00000000000E+00 -0.00000000000E+00 -0.40097392881E+03  0.40097594003E+03  0.12700000000E+01 0. -1.
         25    2    1    2    0    0  0.00000000000E+00  0.00000000000E+00 -0.39127540127E+03  0.41075726594E+03  0.12500036753E+03 0.  0.
    9000005    1    3    3    0    0  0.23371992130E+02 -0.34234091700E+02 -0.34931273275E+03  0.35176499017E+03  0.10000000000E+01 0.  0.
    9000005    1    3    3    0    0 -0.23371992130E+02  0.34234091700E+02 -0.41962668523E+02  0.58992275767E+02  0.10000000000E+01 0.  0.
<mgrwt>
<rscale>  0 0.12500037E+03</rscale>
<asrwt>0</asrwt>
<pdfrwt beam="2">  1        4 0.10025403E+00 0.12500037E+03</pdfrwt>
<pdfrwt beam="1">  1       -4 0.24352344E-02 0.12500037E+03</pdfrwt>
<totfact> 0.10350587E+03</totfact>
</mgrwt>
</event>
<event>
 5    1  0.1451195E-002  0.1250085E+03  0.7818608E-02  0.1235056E+00
         -4   -1    0    0    0  501 -0.00000000000E+00  0.00000000000E+00  0.20441692161E+02  0.20481105400E+02  0.12700000000E+01 0.  1.
          4   -1    0    0  501    0  0.00000000000E+00 -0.00000000000E+00 -0.19089272076E+03  0.19089694534E+03  0.12700000000E+01 0.  1.
         25    2    1    2    0    0  0.00000000000E+00  0.00000000000E+00 -0.17045102860E+03  0.21137805074E+03  0.12500850844E+03 0.  0.
    9000005    1    3    3    0    0 -0.43796200130E+02 -0.16620237755E+02 -0.15517772631E+03  0.16209708878E+03  0.10000000000E+01 0.  0.
    9000005    1    3    3    0    0  0.43796200130E+02  0.16620237755E+02 -0.15273302294E+02  0.49280961961E+02  0.10000000000E+01 0.  0.
<mgrwt>
<rscale>  0 0.12500851E+03</rscale>
<asrwt>0</asrwt>
<pdfrwt beam="2">  1        4 0.47728630E-01 0.12500851E+03</pdfrwt>
<pdfrwt beam="1">  1       -4 0.51158783E-02 0.12500851E+03</pdfrwt>
<totfact> 0.15873244E+03</totfact>
</mgrwt>
</event>
<event>
 5    1  0.1451195E-002  0.1249993E+03  0.7818608E-02  0.1235070E+00
         -4   -1    0    0    0  501 -0.00000000000E+00  0.00000000000E+00  0.19442715744E+02  0.19484149853E+02  0.12700000000E+01 0.  1.
          4   -1    0    0  501    0  0.00000000000E+00 -0.00000000000E+00 -0.20065104173E+03  0.20065506085E+03  0.12700000000E+01 0.  1.
         25    2    1    2    0    0  0.00000000000E+00  0.00000000000E+00 -0.18120832598E+03  0.22013921071E+03  0.12499925874E+03 0.  0.
    9000005    1    3    3    0    0 -0.90583489330E+01 -0.60137247047E+02 -0.11592160126E+03  0.13090973916E+03  0.10000000000E+01 0.  0.
    9000005    1    3    3    0    0  0.90583489330E+01  0.60137247047E+02 -0.65286724726E+02  0.89229471550E+02  0.10000000000E+01 0.  0.
<mgrwt>
<rscale>  0 0.12499926E+03</rscale>
<asrwt>0</asrwt>
<pdfrwt beam="2">  1        4 0.50168436E-01 0.12499926E+03</pdfrwt>
<pdfrwt beam="1">  1       -4 0.48663612E-02 0.12499926E+03</pdfrwt>
<totfact> 0.15546446E+03</totfact>
</mgrwt>
</event>
<event>
 5    1  0.1451195E-002  0.1249965E+03  0.7818608E-02  0.1235075E+00
         -4   -1    0    0    0  501 -0.00000000000E+00  0.00000000000E+00  0.39173728603E+03  0.39173934467E+03  0.12700000000E+01 0. -1.
          4   -1    0    0  501    0  0.00000000000E+00 -0.00000000000E+00 -0.99285079077E+01  0.10009404042E+02  0.12700000000E+01 0. -1.
         25    2    1    2    0    0  0.00000000000E+00  0.00000000000E+00  0.38180877812E+03  0.40174874871E+03  0.12499645613E+03 0.  0.
    9000005    1    3    3    0    0  0.29690262219E+02  0.53388116957E+02  0.14860217187E+03  0.16067174048E+03  0.10000000000E+01 0.  0.
    9000005    1    3    3    0    0 -0.29690262219E+02 -0.53388116957E+02  0.23320660625E+03  0.24107700824E+03  0.10000000000E+01 0.  0.
<mgrwt>
<rscale>  0 0.12499646E+03</rscale>
<asrwt>0</asrwt>
<pdfrwt beam="2">  1        4 0.24924965E-02 0.12499646E+03</pdfrwt>
<pdfrwt beam="1">  1       -4 0.97944685E-01 0.12499646E+03</pdfrwt>
<totfact> 0.10534117E+03</totfact>
</mgrwt>
</event>
<event>
 5    1  0.1451195E-002  0.1249998E+03  0.7818608E-02  0.1235070E+00
         -4   -1    0    0    0  501 -0.00000000000E+00  0.00000000000E+00  0.13072822111E+03  0.13073438987E+03  0.12700000000E+01 0.  1.
          4   -1    0    0  501    0  0.00000000000E+00 -0.00000000000E+00 -0.29860222103E+02  0.29887217402E+02  0.12700000000E+01 0.  1.
         25    2    1    2    0    0  0.00000000000E+00  0.00000000000E+00  0.10086799901E+03  0.16062160727E+03  0.12499979000E+03 0.  0.
    9000005    1    3    3    0    0 -0.13614681913E+02 -0.58620025512E+02  0.72072380558E+02  0.93899387612E+02  0.10000000000E+01 0.  0.
    9000005    1    3    3    0    0  0.13614681913E+02  0.58620025512E+02  0.28795618451E+02  0.66722219662E+02  0.10000000000E+01 0.  0.
<mgrwt>
<rscale>  0 0.12499979E+03</rscale>
<asrwt>0</asrwt>
<pdfrwt beam="2">  1        4 0.74692011E-02 0.12499979E+03</pdfrwt>
<pdfrwt beam="1">  1       -4 0.32686200E-01 0.12499979E+03</pdfrwt>
<totfact> 0.18028628E+03</totfact>
</mgrwt>
</event>
<event>
 5    1  0.1451195E-002  0.1250103E+03  0.7818608E-02  0.1235053E+00
         -4   -1    0    0    0  501 -0.00000000000E+00  0.00000000000E+00  0.15310508485E+03  0.15311035205E+03  0.12700000000E+01 0.  1.
          4   -1    0    0  501    0  0.00000000000E+00 -0.00000000000E+00 -0.25496230406E+02  0.25527840977E+02  0.12700000000E+01 0.  1.
         25    2    1    2    0    0  0.00000000000E+00  0.00000000000E+00  0.12760885444E+03  0.17863819303E+03  0.12501033668E+03 0.  0.
    9000005    1    3    3    0    0 -0.52984108033E+02  0.10383160196E+02  0.18824899317E+02  0.57188307843E+02  0.10000000000E+01 0.  0.
    9000005    1    3    3    0    0  0.52984108033E+02 -0.10383160196E+02  0.10878395512E+03  0.12144988519E+03  0.10000000000E+01 0.  0.
<mgrwt>
<rscale>  0 0.12501034E+03</rscale>
<asrwt>0</asrwt>
<pdfrwt beam="2">  1        4 0.63786674E-02 0.12501034E+03</pdfrwt>
<pdfrwt beam="1">  1       -4 0.38280880E-01 0.12501034E+03</pdfrwt>
<totfact> 0.17210196E+03</totfact>
</mgrwt>
</event>
<event>
 5    1  0.1451195E-002  0.1249961E+03  0.7818608E-02  0.1235075E+00
          4   -1    0    0  501    0  0.00000000000E+00  0.00000000000E+00  0.11161343774E+02  0.11233365250E+02  0.12700000000E+01 0. -1.
         -4   -1    0    0    0  501 -0.00000000000E+00 -0.00000000000E+00 -0.34875983897E+03  0.34876215130E+03  0.12700000000E+01 0. -1.
         25    2    1    2    0    0  0.00000000000E+00  0.00000000000E+00 -0.33759849520E+03  0.35999551655E+03  0.12499611185E+03 0.  0.
    9000005    1    3    3    0    0 -0.61507901208E+02 -0.64860233971E+01 -0.19451356069E+03  0.20411226250E+03  0.10000000000E+01 0.  0.
    9000005    1    3    3    0    0  0.61507901208E+02  0.64860233971E+01 -0.14308493451E+03  0.15588325405E+03  0.10000000000E+01 0.  0.
<mgrwt>
<rscale>  0 0.12499611E+03</rscale>
<asrwt>0</asrwt>
<pdfrwt beam="1">  1        4 0.27996288E-02 0.12499611E+03</pdfrwt>
<pdfrwt beam="2">  1       -4 0.87199215E-01 0.12499611E+03</pdfrwt>
<totfact> 0.11443518E+03</totfact>
</mgrwt>
</event>
<event>
 5    1  0.1451195E-002  0.1249999E+03  0.7818608E-02  0.1235069E+00
          4   -1    0    0  501    0  0.00000000000E+00  0.00000000000E+00  0.13236559626E+04  0.13236565719E+04  0.12700000000E+01 0.  1.
         -4   -1    0    0    0  501 -0.00000000000E+00 -0.00000000000E+00 -0.28138307330E+01  0.30871578181E+01  0.12700000000E+01 0.  1.
         25    2    1    2    0    0  0.00000000000E+00  0.00000000000E+00  0.13208421319E+04  0.13267437297E+04  0.12499994769E+03 0.  0.
    9000005    1    3    3    0    0 -0.42121905558E+02 -0.12647898958E+02  0.18920184326E+03  0.19424871111E+03  0.10000000000E+01 0.  0.
    9000005    1    3    3    0    0  0.42121905558E+02  0.12647898958E+02  0.11316402886E+04  0.11324950186E+04  0.10000000000E+01 0.  0.
<mgrwt>
<rscale>  0 0.12499995E+03</rscale>
<asrwt>0</asrwt>
<pdfrwt beam="1">  1        4 0.33094828E+00 0.12499995E+03</pdfrwt>
<pdfrwt beam="2">  1       -4 0.73769962E-03 0.12499995E+03</pdfrwt>
<totfact> 0.19122106E+02</totfact>
</mgrwt>
</event>
<event>
 4    1  0.1451195E-002  0.1246691E+03  0.7818608E-02  0.1235587E+00
          4   -1    0    0  501    0  0.00000000000E+00  0.00000000000E+00  0.17727951413E+03  0.17728406311E+03  0.12700000000E+01 0. -1.
         -4   -1    0    0    0  501 -0.00000000000E+00 -0.00000000000E+00 -0.21894662780E+02  0.21931465028E+02  0.12700000000E+01 0. -1.
    9000005    1    1    2    0    0  0.26569419338E+02 -0.30072427221E+01  0.16765623430E+03  0.16977806234E+03  0.10000000000E+01 0.  0.
    9000005    1    1    2    0    0 -0.26569419338E+02  0.30072427221E+01 -0.12271382949E+02  0.29437465791E+02  0.10000000000E+01 0.  0.
<mgrwt>
<rscale>  0 0.12466906E+03</rscale>
<asrwt>0</asrwt>
<pdfrwt beam="1">  1        4 0.44325046E-01 0.12466906E+03</pdfrwt>
<pdfrwt beam="2">  1       -4 0.54788348E-02 0.12466906E+03</pdfrwt>
<totfact> 0.16479277E+03</totfact>
</mgrwt>
</event>
<event>
 5    1  0.1451195E-002  0.1250022E+03  0.7818608E-02  0.1235066E+00
         -4   -1    0    0    0  501 -0.00000000000E+00  0.00000000000E+00  0.14843052432E+03  0.14843595740E+03  0.12700000000E+01 0. -1.
          4   -1    0    0  501    0  0.00000000000E+00 -0.00000000000E+00 -0.26296723813E+02  0.26327373270E+02  0.12700000000E+01 0. -1.
         25    2    1    2    0    0  0.00000000000E+00  0.00000000000E+00  0.12213380051E+03  0.17476333067E+03  0.12500222607E+03 0.  0.
    9000005    1    3    3    0    0 -0.73352030776E+01  0.10747245555E+02  0.14652253151E+03  0.14710255174E+03  0.10000000000E+01 0.  0.
    9000005    1    3    3    0    0  0.73352030776E+01 -0.10747245555E+02 -0.24388730998E+02  0.27660778928E+02  0.10000000000E+01 0.  0.
<mgrwt>
<rscale>  0 0.12500223E+03</rscale>
<asrwt>0</asrwt>
<pdfrwt beam="2">  1        4 0.65786914E-02 0.12500223E+03</pdfrwt>
<pdfrwt beam="1">  1       -4 0.37112141E-01 0.12500223E+03</pdfrwt>
<totfact> 0.17383419E+03</totfact>
</mgrwt>
</event>
<event>
 5    1  0.1451195E-002  0.1250020E+03  0.7818608E-02  0.1235066E+00
          4   -1    0    0  501    0  0.00000000000E+00  0.00000000000E+00  0.71176541585E+02  0.71187870961E+02  0.12700000000E+01 0.  1.
         -4   -1    0    0    0  501 -0.00000000000E+00 -0.00000000000E+00 -0.54859895384E+02  0.54874593589E+02  0.12700000000E+01 0.  1.
         25    2    1    2    0    0  0.00000000000E+00  0.00000000000E+00  0.16316646201E+02  0.12606246455E+03  0.12500204808E+03 0.  0.
    9000005    1    3    3    0    0 -0.35803542971E+02  0.43590347637E+02 -0.18965298919E+02  0.59520539812E+02  0.10000000000E+01 0.  0.
    9000005    1    3    3    0    0  0.35803542971E+02 -0.43590347637E+02  0.35281945120E+02  0.66541924738E+02  0.10000000000E+01 0.  0.
<mgrwt>
<rscale>  0 0.12500205E+03</rscale>
<asrwt>0</asrwt>
<pdfrwt beam="1">  1        4 0.17797389E-01 0.12500205E+03</pdfrwt>
<pdfrwt beam="2">  1       -4 0.13718227E-01 0.12500205E+03</pdfrwt>
<totfact> 0.19776597E+03</totfact>
</mgrwt>
</event>
<event>
 5    1  0.1451195E-002  0.1250007E+03  0.7818608E-02  0.1235068E+00
          4   -1    0    0  501    0  0.00000000000E+00  0.00000000000E+00  0.12641230995E+03  0.12641868931E+03  0.12700000000E+01 0.  1.
         -4   -1    0    0    0  501 -0.00000000000E+00 -0.00000000000E+00 -0.30881010242E+02  0.30907113964E+02  0.12700000000E+01 0.  1.
         25    2    1    2    0    0  0.00000000000E+00  0.00000000000E+00  0.95531299703E+02  0.15732580327E+03  0.12500071660E+03 0.  0.
    9000005    1    3    3    0    0 -0.31246242546E+02 -0.15525425640E+02 -0.17486720561E+02  0.39040388197E+02  0.10000000000E+01 0.  0.
    9000005    1    3    3    0    0  0.31246242546E+02  0.15525425640E+02  0.11301802026E+03  0.11828541507E+03  0.10000000000E+01 0.  0.
<mgrwt>
<rscale>  0 0.12500072E+03</rscale>
<asrwt>0</asrwt>
<pdfrwt beam="1">  1        4 0.31607137E-01 0.12500072E+03</pdfrwt>
<pdfrwt beam="2">  1       -4 0.77243131E-02 0.12500072E+03</pdfrwt>
<totfact> 0.18184034E+03</totfact>
</mgrwt>
</event>
<event>
 5    1  0.1451195E-002  0.1250073E+03  0.7818608E-02  0.1235058E+00
          4   -1    0    0  501    0  0.00000000000E+00  0.00000000000E+00  0.11992498634E+04  0.11992505358E+04  0.12700000000E+01 0. -1.
         -4   -1    0    0    0  501 -0.00000000000E+00 -0.00000000000E+00 -0.31331476374E+01  0.33807564416E+01  0.12700000000E+01 0. -1.
         25    2    1    2    0    0  0.00000000000E+00  0.00000000000E+00  0.11961167157E+04  0.12026312923E+04  0.12500730979E+03 0.  0.
    9000005    1    3    3    0    0  0.13768085112E+02  0.44208616667E+02  0.10018604872E+04  0.10029304053E+04  0.10000000000E+01 0.  0.
    9000005    1    3    3    0    0 -0.13768085112E+02 -0.44208616667E+02  0.19425622850E+03  0.19970088699E+03  0.10000000000E+01 0.  0.
<mgrwt>
<rscale>  0 0.12500731E+03</rscale>
<asrwt>0</asrwt>
<pdfrwt beam="1">  1        4 0.29984323E+00 0.12500731E+03</pdfrwt>
<pdfrwt beam="2">  1       -4 0.81432280E-03 0.12500731E+03</pdfrwt>
<totfact> 0.25061858E+02</totfact>
</mgrwt>
</event>
<event>
 5    1  0.1451195E-002  0.1250009E+03  0.7818608E-02  0.1235068E+00
         -4   -1    0    0    0  501 -0.00000000000E+00  0.00000000000E+00  0.13077660212E+02  0.13139181733E+02  0.12700000000E+01 0.  1.
          4   -1    0    0  501    0  0.00000000000E+00 -0.00000000000E+00 -0.29793672602E+03  0.29793943279E+03  0.12700000000E+01 0.  1.
         25    2    1    2    0    0  0.00000000000E+00  0.00000000000E+00 -0.28485906581E+03  0.31107861452E+03  0.12500086816E+03 0.  0.
    9000005    1    3    3    0    0  0.16007128340E+02  0.60249114966E+02 -0.13154765394E+03  0.14557461753E+03  0.10000000000E+01 0.  0.
    9000005    1    3    3    0    0 -0.16007128340E+02 -0.60249114966E+02 -0.15331141186E+03  0.16550399699E+03  0.10000000000E+01 0.  0.
<mgrwt>
<rscale>  0 0.12500087E+03</rscale>
<asrwt>0</asrwt>
<pdfrwt beam="2">  1        4 0.74492188E-01 0.12500087E+03</pdfrwt>
<pdfrwt beam="1">  1       -4 0.32774446E-02 0.12500087E+03</pdfrwt>
<totfact> 0.12665891E+03</totfact>
</mgrwt>
</event>
<event>
 5    1  0.1451195E-002  0.1250018E+03  0.7818608E-02  0.1235066E+00
          4   -1    0    0  501    0  0.00000000000E+00  0.00000000000E+00  0.73309252537E+02  0.73320252369E+02  0.12700000000E+01 0. -1.
         -4   -1    0    0    0  501 -0.00000000000E+00 -0.00000000000E+00 -0.53263493542E+02  0.53278632155E+02  0.12700000000E+01 0. -1.
         25    2    1    2    0    0  0.00000000000E+00  0.00000000000E+00  0.20045758995E+02  0.12659888452E+03  0.12500178042E+03 0.  0.
    9000005    1    3    3    0    0  0.40525205769E+01  0.53647369122E+02 -0.22177973713E+02  0.58200735861E+02  0.10000000000E+01 0.  0.
    9000005    1    3    3    0    0 -0.40525205769E+01 -0.53647369122E+02  0.42223732708E+02  0.68398148663E+02  0.10000000000E+01 0.  0.
<mgrwt>
<rscale>  0 0.12500178E+03</rscale>
<asrwt>0</asrwt>
<pdfrwt beam="1">  1        4 0.18330580E-01 0.12500178E+03</pdfrwt>
<pdfrwt beam="2">  1       -4 0.13319141E-01 0.12500178E+03</pdfrwt>
<totfact> 0.19747769E+03</totfact>
</mgrwt>
</event>
<event>
 5    1  0.1451195E-002  0.1249989E+03  0.7818608E-02  0.1235071E+00
         -4   -1    0    0    0  501 -0.00000000000E+00  0.00000000000E+00  0.93291797904E+02  0.93300441886E+02  0.12700000000E+01 0. -1.
          4   -1    0    0  501    0  0.00000000000E+00 -0.00000000000E+00 -0.41850344000E+02  0.41869609419E+02  0.12700000000E+01 0. -1.
         25    2    1    2    0    0  0.00000000000E+00  0.00000000000E+00  0.51441453904E+02  0.13517005131E+03  0.12499887836E+03 0.  0.
    9000005    1    3    3    0    0 -0.57317894631E+02 -0.98132879571E+01  0.50463510944E+02  0.77001348055E+02  0.10000000000E+01 0.  0.
    9000005    1    3    3    0    0  0.57317894631E+02  0.98132879571E+01  0.97794295916E+00  0.58168703251E+02  0.10000000000E+01 0.  0.
<mgrwt>
<rscale>  0 0.12499888E+03</rscale>
<asrwt>0</asrwt>
<pdfrwt beam="2">  1        4 0.10466075E-01 0.12499888E+03</pdfrwt>
<pdfrwt beam="1">  1       -4 0.23326438E-01 0.12499888E+03</pdfrwt>
<totfact> 0.19290739E+03</totfact>
</mgrwt>
</event>
<event>
 5    1  0.1451195E-002  0.1250019E+03  0.7818608E-02  0.1235066E+00
          4   -1    0    0  501    0  0.00000000000E+00  0.00000000000E+00  0.39657404566E+02  0.39677734775E+02  0.12700000000E+01 0.  1.
         -4   -1    0    0    0  501 -0.00000000000E+00 -0.00000000000E+00 -0.98453207438E+02  0.98461398298E+02  0.12700000000E+01 0.  1.
         25    2    1    2    0    0  0.00000000000E+00  0.00000000000E+00 -0.58795802872E+02  0.13813913307E+03  0.12500189459E+03 0.  0.
    9000005    1    3    3    0    0 -0.57212820949E+02  0.21999140931E+02 -0.15949313786E+02  0.63345478867E+02  0.10000000000E+01 0.  0.
    9000005    1    3    3    0    0  0.57212820949E+02 -0.21999140931E+02 -0.42846489086E+02  0.74793654206E+02  0.10000000000E+01 0.  0.
<mgrwt>
<rscale>  0 0.12500189E+03</rscale>
<asrwt>0</asrwt>
<pdfrwt beam="1">  1        4 0.99179165E-02 0.12500189E+03</pdfrwt>
<pdfrwt beam="2">  1       -4 0.24616867E-01 0.12500189E+03</pdfrwt>
<totfact> 0.19135104E+03</totfact>
</mgrwt>
</event>
<event>
 5    1  0.1451195E-002  0.1250002E+03  0.7818608E-02  0.1235069E+00
         -4   -1    0    0    0  501 -0.00000000000E+00  0.00000000000E+00  0.59570569355E+02  0.59584105542E+02  0.12700000000E+01 0.  1.
          4   -1    0    0  501    0  0.00000000000E+00 -0.00000000000E+00 -0.65546522231E+02  0.65558824552E+02  0.12700000000E+01 0.  1.
         25    2    1    2    0    0  0.00000000000E+00  0.00000000000E+00 -0.59759528768E+01  0.12514293009E+03  0.12500016376E+03 0.  0.
    9000005    1    3    3    0    0  0.89445019158E+01  0.15648222782E+01  0.58911496243E+02  0.59615578274E+02  0.10000000000E+01 0.  0.
    9000005    1    3    3    0    0 -0.89445019158E+01 -0.15648222782E+01 -0.64887449120E+02  0.65527351820E+02  0.10000000000E+01 0.  0.
<mgrwt>
<rscale>  0 0.12500016E+03</rscale>
<asrwt>0</asrwt>
<pdfrwt beam="2">  1        4 0.16389860E-01 0.12500016E+03</pdfrwt>
<pdfrwt beam="1">  1       -4 0.14895872E-01 0.12500016E+03</pdfrwt>
<totfact> 0.19827230E+03</totfact>
</mgrwt>
</event>
<event>
 5    1  0.1451195E-002  0.1249996E+03  0.7818608E-02  0.1235070E+00
          4   -1    0    0  501    0  0.00000000000E+00  0.00000000000E+00  0.36237469452E+03  0.36237691997E+03  0.12700000000E+01 0.  1.
         -4   -1    0    0    0  501 -0.00000000000E+00 -0.00000000000E+00 -0.10739854480E+02  0.10814683271E+02  0.12700000000E+01 0.  1.
         25    2    1    2    0    0  0.00000000000E+00  0.00000000000E+00  0.35163484004E+03  0.37319160324E+03  0.12499964800E+03 0.  0.
    9000005    1    3    3    0    0  0.59927146401E+02 -0.10037450207E+02  0.21941191626E+03  0.22767213769E+03  0.10000000000E+01 0.  0.
    9000005    1    3    3    0    0 -0.59927146401E+02  0.10037450207E+02  0.13222292377E+03  0.14551946555E+03  0.10000000000E+01 0.  0.
<mgrwt>
<rscale>  0 0.12499965E+03</rscale>
<asrwt>0</asrwt>
<pdfrwt beam="1">  1        4 0.90603300E-01 0.12499965E+03</pdfrwt>
<pdfrwt beam="2">  1       -4 0.26945956E-02 0.12499965E+03</pdfrwt>
<totfact> 0.11143177E+03</totfact>
</mgrwt>
</event>
<event>
 5    1  0.1451195E-002  0.1249974E+03  0.7818608E-02  0.1235073E+00
         -4   -1    0    0    0  501 -0.00000000000E+00  0.00000000000E+00  0.28288758046E+03  0.28289043123E+03  0.12700000000E+01 0. -1.
          4   -1    0    0  501    0  0.00000000000E+00 -0.00000000000E+00 -0.13775784416E+02  0.13834201685E+02  0.12700000000E+01 0. -1.
         25    2    1    2    0    0  0.00000000000E+00  0.00000000000E+00  0.26911179605E+03  0.29672463291E+03  0.12499739600E+03 0.  0.
    9000005    1    3    3    0    0  0.55650464999E+02  0.12158778951E+02  0.19555391974E+03  0.20368393576E+03  0.10000000000E+01 0.  0.
    9000005    1    3    3    0    0 -0.55650464999E+02 -0.12158778951E+02  0.73557876307E+02  0.93040697154E+02  0.10000000000E+01 0.  0.
<mgrwt>
<rscale>  0 0.12499740E+03</rscale>
<asrwt>0</asrwt>
<pdfrwt beam="2">  1        4 0.34516045E-02 0.12499740E+03</pdfrwt>
<pdfrwt beam="1">  1       -4 0.70729555E-01 0.12499740E+03</pdfrwt>
<totfact> 0.13064133E+03</totfact>
</mgrwt>
</event>
<event>
 5    1  0.1451195E-002  0.1250014E+03  0.7818608E-02  0.1235067E+00
         -4   -1    0    0    0  501 -0.00000000000E+00  0.00000000000E+00  0.27674020081E+02  0.27703145804E+02  0.12700000000E+01 0. -1.
          4   -1    0    0  501    0  0.00000000000E+00 -0.00000000000E+00 -0.14104908219E+03  0.14105479959E+03  0.12700000000E+01 0. -1.
         25    2    1    2    0    0  0.00000000000E+00  0.00000000000E+00 -0.11337506211E+03  0.16875794539E+03  0.12500135769E+03 0.  0.
    9000005    1    3    3    0    0  0.52349244349E+02 -0.32575878817E+02 -0.42939313430E+02  0.75142637047E+02  0.10000000000E+01 0.  0.
    9000005    1    3    3    0    0 -0.52349244349E+02  0.32575878817E+02 -0.70435748682E+02  0.93615308347E+02  0.10000000000E+01 0.  0.
<mgrwt>
<rscale>  0 0.12500136E+03</rscale>
<asrwt>0</asrwt>
<pdfrwt beam="2">  1        4 0.35266624E-01 0.12500136E+03</pdfrwt>
<pdfrwt beam="1">  1       -4 0.69228608E-02 0.12500136E+03</pdfrwt>
<totfact> 0.17652659E+03</totfact>
</mgrwt>
</event>
<event>
 5    1  0.1451195E-002  0.1250009E+03  0.7818608E-02  0.1235068E+00
          4   -1    0    0  501    0  0.00000000000E+00  0.00000000000E+00  0.24249790816E+03  0.24250123373E+03  0.12700000000E+01 0.  1.
         -4   -1    0    0    0  501 -0.00000000000E+00 -0.00000000000E+00 -0.16080151594E+02  0.16130225518E+02  0.12700000000E+01 0.  1.
         25    2    1    2    0    0  0.00000000000E+00  0.00000000000E+00  0.22641775656E+03  0.25863145925E+03  0.12500092490E+03 0.  0.
    9000005    1    3    3    0    0 -0.18914435746E+02  0.52036386902E+02  0.53250847364E+02  0.76825739088E+02  0.10000000000E+01 0.  0.
    9000005    1    3    3    0    0  0.18914435746E+02 -0.52036386902E+02  0.17316690920E+03  0.18180572016E+03  0.10000000000E+01 0.  0.
<mgrwt>
<rscale>  0 0.12500092E+03</rscale>
<asrwt>0</asrwt>
<pdfrwt beam="1">  1        4 0.60631149E-01 0.12500092E+03</pdfrwt>
<pdfrwt beam="2">  1       -4 0.40267130E-02 0.12500092E+03</pdfrwt>
<totfact> 0.14214900E+03</totfact>
</mgrwt>
</event>
<event>
 5    1  0.1451195E-002  0.1249977E+03  0.7818608E-02  0.1235073E+00
         -4   -1    0    0    0  501 -0.00000000000E+00  0.00000000000E+00  0.11099344095E+04  0.11099351361E+04  0.12700000000E+01 0.  1.
          4   -1    0    0  501    0  0.00000000000E+00 -0.00000000000E+00 -0.34038907785E+01  0.36330940577E+01  0.12700000000E+01 0.  1.
         25    2    1    2    0    0  0.00000000000E+00  0.00000000000E+00  0.11065305187E+04  0.11135682301E+04  0.12499765717E+03 0.  0.
    9000005    1    3    3    0    0 -0.57029855641E+02  0.21887032880E+02  0.67066334648E+03  0.67344025047E+03  0.10000000000E+01 0.  0.
    9000005    1    3    3    0    0  0.57029855641E+02 -0.21887032880E+02  0.43586717224E+03  0.44012797966E+03  0.10000000000E+01 0.  0.
<mgrwt>
<rscale>  0 0.12499766E+03</rscale>
<asrwt>0</asrwt>
<pdfrwt beam="2">  1        4 0.87971456E-03 0.12499766E+03</pdfrwt>
<pdfrwt beam="1">  1       -4 0.27751215E+00 0.12499766E+03</pdfrwt>
<totfact> 0.29985351E+02</totfact>
</mgrwt>
</event>
<event>
 5    1  0.1451195E-002  0.1249986E+03  0.7818608E-02  0.1235071E+00
         -4   -1    0    0    0  501 -0.00000000000E+00  0.00000000000E+00  0.15900764520E+03  0.15901271689E+03  0.12700000000E+01 0.  1.
          4   -1    0    0  501    0  0.00000000000E+00 -0.00000000000E+00 -0.24544000597E+02  0.24576835950E+02  0.12700000000E+01 0.  1.
         25    2    1    2    0    0  0.00000000000E+00  0.00000000000E+00  0.13446364461E+03  0.18358955284E+03  0.12499860876E+03 0.  0.
    9000005    1    3    3    0    0 -0.17094165257E+02 -0.36461327149E+02 -0.29533858899E+01  0.40390114527E+02  0.10000000000E+01 0.  0.
    9000005    1    3    3    0    0  0.17094165257E+02  0.36461327149E+02  0.13741703050E+03  0.14319943832E+03  0.10000000000E+01 0.  0.
<mgrwt>
<rscale>  0 0.12499861E+03</rscale>
<asrwt>0</asrwt>
<pdfrwt beam="2">  1        4 0.61407386E-02 0.12499861E+03</pdfrwt>
<pdfrwt beam="1">  1       -4 0.39756649E-01 0.12499861E+03</pdfrwt>
<totfact> 0.17001481E+03</totfact>
</mgrwt>
</event>
<event>
 5    1  0.1451195E-002  0.1250015E+03  0.7818608E-02  0.1235067E+00
          4   -1    0    0  501    0  0.00000000000E+00  0.00000000000E+00  0.93566825524E+02  0.93575444100E+02  0.12700000000E+01 0. -1.
         -4   -1    0    0    0  501 -0.00000000000E+00 -0.00000000000E+00 -0.41729067961E+02  0.41748389345E+02  0.12700000000E+01 0. -1.
         25    2    1    2    0    0  0.00000000000E+00  0.00000000000E+00  0.51837757563E+02  0.13532383345E+03  0.12500154715E+03 0.  0.
    9000005    1    3    3    0    0 -0.15087096982E+02  0.55303552407E+02 -0.10206229869E+01  0.57342349755E+02  0.10000000000E+01 0.  0.
    9000005    1    3    3    0    0  0.15087096982E+02 -0.55303552407E+02  0.52858380550E+02  0.77981483690E+02  0.10000000000E+01 0.  0.
<mgrwt>
<rscale>  0 0.12500155E+03</rscale>
<asrwt>0</asrwt>
<pdfrwt beam="1">  1        4 0.23395199E-01 0.12500155E+03</pdfrwt>
<pdfrwt beam="2">  1       -4 0.10435760E-01 0.12500155E+03</pdfrwt>
<totfact> 0.19281493E+03</totfact>
</mgrwt>
</event>
<event>
 5    1  0.1451195E-002  0.1249961E+03  0.7818608E-02  0.1235075E+00
         -4   -1    0    0    0  501 -0.00000000000E+00  0.00000000000E+00  0.56719724671E+02  0.56733941047E+02  0.12700000000E+01 0.  1.
          4   -1    0    0  501    0  0.00000000000E+00 -0.00000000000E+00 -0.68836335754E+02  0.68848050227E+02  0.12700000000E+01 0.  1.
         25    2    1    2    0    0  0.00000000000E+00  0.00000000000E+00 -0.12116611083E+02  0.12558199127E+03  0.12499609701E+03 0.  0.
    9000005    1    3    3    0    0 -0.31518330166E+02  0.49423093769E+02  0.15698655120E+02  0.60691804280E+02  0.10000000000E+01 0.  0.
    9000005    1    3    3    0    0  0.31518330166E+02 -0.49423093769E+02 -0.27815266203E+02  0.64890186994E+02  0.10000000000E+01 0.  0.
<mgrwt>
<rscale>  0 0.12499610E+03</rscale>
<asrwt>0</asrwt>
<pdfrwt beam="2">  1        4 0.17212325E-01 0.12499610E+03</pdfrwt>
<pdfrwt beam="1">  1       -4 0.14183173E-01 0.12499610E+03</pdfrwt>
<totfact> 0.19805334E+03</totfact>
</mgrwt>
</event>
<event>
 5    1  0.1451195E-002  0.1250033E+03  0.7818608E-02  0.1235064E+00
          4   -1    0    0  501    0  0.00000000000E+00  0.00000000000E+00  0.29385274153E+03  0.29385548592E+03  0.12700000000E+01 0.  1.
         -4   -1    0    0    0  501 -0.00000000000E+00 -0.00000000000E+00 -0.13260780760E+02  0.13321456616E+02  0.12700000000E+01 0.  1.
         25    2    1    2    0    0  0.00000000000E+00  0.00000000000E+00  0.28059196077E+03  0.30717694253E+03  0.12500330226E+03 0.  0.
    9000005    1    3    3    0    0 -0.17172130217E+02 -0.59999868613E+02  0.13229916178E+03  0.14628374653E+03  0.10000000000E+01 0.  0.
    9000005    1    3    3    0    0  0.17172130217E+02  0.59999868613E+02  0.14829279898E+03  0.16089319600E+03  0.10000000000E+01 0.  0.
<mgrwt>
<rscale>  0 0.12500330E+03</rscale>
<asrwt>0</asrwt>
<pdfrwt beam="1">  1        4 0.73471114E-01 0.12500330E+03</pdfrwt>
<pdfrwt beam="2">  1       -4 0.33231227E-02 0.12500330E+03</pdfrwt>
<totfact> 0.12771301E+03</totfact>
</mgrwt>
</event>
<event>
 5    1  0.1451195E-002  0.1249995E+03  0.7818608E-02  0.1235070E+00
          4   -1    0    0  501    0  0.00000000000E+00  0.00000000000E+00  0.18954430155E+03  0.18954855618E+03  0.12700000000E+01 0. -1.
         -4   -1    0    0    0  501 -0.00000000000E+00 -0.00000000000E+00 -0.20584410158E+02  0.20623550653E+02  0.12700000000E+01 0. -1.
         25    2    1    2    0    0  0.00000000000E+00  0.00000000000E+00  0.16895989140E+03  0.21017210684E+03  0.12499947837E+03 0.  0.
    9000005    1    3    3    0    0  0.52069113298E+02  0.32650992832E+02  0.65461903077E+02  0.89797219595E+02  0.10000000000E+01 0.  0.
    9000005    1    3    3    0    0 -0.52069113298E+02 -0.32650992832E+02  0.10349798832E+03  0.12037488724E+03  0.10000000000E+01 0.  0.
<mgrwt>
<rscale>  0 0.12499948E+03</rscale>
<asrwt>0</asrwt>
<pdfrwt beam="1">  1        4 0.47391500E-01 0.12499948E+03</pdfrwt>
<pdfrwt beam="2">  1       -4 0.51515269E-02 0.12499948E+03</pdfrwt>
<totfact> 0.15922870E+03</totfact>
</mgrwt>
</event>
<event>
 5    1  0.1451195E-002  0.1250000E+03  0.7818608E-02  0.1235069E+00
         -4   -1    0    0    0  501 -0.00000000000E+00  0.00000000000E+00  0.64461417255E+03  0.64461542361E+03  0.12700000000E+01 0. -1.
          4   -1    0    0  501    0  0.00000000000E+00 -0.00000000000E+00 -0.59920132075E+01  0.61251222256E+01  0.12700000000E+01 0. -1.
         25    2    1    2    0    0  0.00000000000E+00  0.00000000000E+00  0.63862215934E+03  0.65074054584E+03  0.12499998235E+03 0.  0.
    9000005    1    3    3    0    0 -0.53955922815E+02 -0.78889827103E+01  0.47822156964E+03  0.48132145945E+03  0.10000000000E+01 0.  0.
    9000005    1    3    3    0    0  0.53955922815E+02  0.78889827103E+01  0.16040058970E+03  0.16941908639E+03  0.10000000000E+01 0.  0.
<mgrwt>
<rscale>  0 0.12499998E+03</rscale>
<asrwt>0</asrwt>
<pdfrwt beam="2">  1        4 0.15147983E-02 0.12499998E+03</pdfrwt>
<pdfrwt beam="1">  1       -4 0.16117034E+00 0.12499998E+03</pdfrwt>
<totfact> 0.67426263E+02</totfact>
</mgrwt>
</event>
<event>
 5    1  0.1451195E-002  0.1250013E+03  0.7818608E-02  0.1235067E+00
         -4   -1    0    0    0  501 -0.00000000000E+00  0.00000000000E+00  0.29365825399E+02  0.29393274764E+02  0.12700000000E+01 0. -1.
          4   -1    0    0  501    0  0.00000000000E+00 -0.00000000000E+00 -0.13293037630E+03  0.13293644287E+03  0.12700000000E+01 0. -1.
         25    2    1    2    0    0  0.00000000000E+00  0.00000000000E+00 -0.10356455090E+03  0.16232971764E+03  0.12500128409E+03 0.  0.
    9000005    1    3    3    0    0  0.31803223901E+01  0.51747016394E+02 -0.64704786583E+01  0.52256437404E+02  0.10000000000E+01 0.  0.
    9000005    1    3    3    0    0 -0.31803223901E+01 -0.51747016394E+02 -0.97094072246E+02  0.11007328023E+03  0.10000000000E+01 0.  0.
<mgrwt>
<rscale>  0 0.12500128E+03</rscale>
<asrwt>0</asrwt>
<pdfrwt beam="2">  1        4 0.33236782E-01 0.12500128E+03</pdfrwt>
<pdfrwt beam="1">  1       -4 0.73456462E-02 0.12500128E+03</pdfrwt>
<totfact> 0.17948127E+03</totfact>
</mgrwt>
</event>
<event>
 5    1  0.1451195E-002  0.1249947E+03  0.7818608E-02  0.1235078E+00
         -4   -1    0    0    0  501 -0.00000000000E+00  0.00000000000E+00  0.27431536500E+02  0.27460919408E+02  0.12700000000E+01 0. -1.
          4   -1    0    0  501    0  0.00000000000E+00 -0.00000000000E+00 -0.14227950631E+03  0.14228517427E+03  0.12700000000E+01 0. -1.
         25    2    1    2    0    0  0.00000000000E+00  0.00000000000E+00 -0.11484796981E+03  0.16974609367E+03  0.12499472048E+03 0.  0.
    9000005    1    3    3    0    0 -0.27307187686E+00  0.60299507840E+02 -0.35158368357E+02  0.69808424130E+02  0.10000000000E+01 0.  0.
    9000005    1    3    3    0    0  0.27307187686E+00 -0.60299507840E+02 -0.79689601453E+02  0.99937669544E+02  0.10000000000E+01 0.  0.
<mgrwt>
<rscale>  0 0.12499472E+03</rscale>
<asrwt>0</asrwt>
<pdfrwt beam="2">  1        4 0.35574256E-01 0.12499472E+03</pdfrwt>
<pdfrwt beam="1">  1       -4 0.68622659E-02 0.12499472E+03</pdfrwt>
<totfact> 0.17610664E+03</totfact>
</mgrwt>
</event>
<event>
 5    1  0.1451195E-002  0.1250017E+03  0.7818608E-02  0.1235067E+00
          4   -1    0    0  501    0  0.00000000000E+00  0.00000000000E+00  0.44071550332E+02  0.44089845187E+02  0.12700000000E+01 0.  1.
         -4   -1    0    0    0  501 -0.00000000000E+00 -0.00000000000E+00 -0.88595425035E+02  0.88604527182E+02  0.12700000000E+01 0.  1.
         25    2    1    2    0    0  0.00000000000E+00  0.00000000000E+00 -0.44523874704E+02  0.13269437237E+03  0.12500168415E+03 0.  0.
    9000005    1    3    3    0    0 -0.60757791767E+02  0.68877097501E+01 -0.35955625033E+02  0.70941925386E+02  0.10000000000E+01 0.  0.
    9000005    1    3    3    0    0  0.60757791767E+02 -0.68877097501E+01 -0.85682496701E+01  0.61752446983E+02  0.10000000000E+01 0.  0.
<mgrwt>
<rscale>  0 0.12500168E+03</rscale>
<asrwt>0</asrwt>
<pdfrwt beam="1">  1        4 0.11021312E-01 0.12500168E+03</pdfrwt>
<pdfrwt beam="2">  1       -4 0.22152281E-01 0.12500168E+03</pdfrwt>
<totfact> 0.19419833E+03</totfact>
</mgrwt>
</event>
<event>
 5    1  0.1451195E-002  0.1250010E+03  0.7818608E-02  0.1235068E+00
          4   -1    0    0  501    0  0.00000000000E+00  0.00000000000E+00  0.66972526072E+01  0.68166041755E+01  0.12700000000E+01 0.  1.
         -4   -1    0    0    0  501 -0.00000000000E+00 -0.00000000000E+00 -0.57799966504E+03  0.57800106028E+03  0.12700000000E+01 0.  1.
         25    2    1    2    0    0  0.00000000000E+00  0.00000000000E+00 -0.57130241243E+03  0.58481766445E+03  0.12500101683E+03 0.  0.
    9000005    1    3    3    0    0  0.21013413000E+02  0.23199080598E+02 -0.32598551334E+02  0.45204274306E+02  0.10000000000E+01 0.  0.
    9000005    1    3    3    0    0 -0.21013413000E+02 -0.23199080598E+02 -0.53870386110E+03  0.53961339015E+03  0.10000000000E+01 0.  0.
<mgrwt>
<rscale>  0 0.12500102E+03</rscale>
<asrwt>0</asrwt>
<pdfrwt beam="1">  1        4 0.16894085E-02 0.12500102E+03</pdfrwt>
<pdfrwt beam="2">  1       -4 0.14451484E+00 0.12500102E+03</pdfrwt>
<totfact> 0.75445337E+02</totfact>
</mgrwt>
</event>
<event>
 5    1  0.1451195E-002  0.1250006E+03  0.7818608E-02  0.1235068E+00
         -4   -1    0    0    0  501 -0.00000000000E+00  0.00000000000E+00  0.70033787630E+01  0.71175988998E+01  0.12700000000E+01 0. -1.
          4   -1    0    0  501    0  0.00000000000E+00 -0.00000000000E+00 -0.55314505197E+03  0.55314650990E+03  0.12700000000E+01 0. -1.
         25    2    1    2    0    0  0.00000000000E+00  0.00000000000E+00 -0.54614167321E+03  0.56026410880E+03  0.12500057760E+03 0.  0.
    9000005    1    3    3    0    0  0.19650683960E+02  0.55599114390E+02 -0.36578356016E+03  0.37050779180E+03  0.10000000000E+01 0.  0.
    9000005    1    3    3    0    0 -0.19650683960E+02 -0.55599114390E+02 -0.18035811305E+03  0.18975631701E+03  0.10000000000E+01 0.  0.
<mgrwt>
<rscale>  0 0.12500058E+03</rscale>
<asrwt>0</asrwt>
<pdfrwt beam="2">  1        4 0.13830058E+00 0.12500058E+03</pdfrwt>
<pdfrwt beam="1">  1       -4 0.17653063E-02 0.12500058E+03</pdfrwt>
<totfact> 0.78740120E+02</totfact>
</mgrwt>
</event>
<event>
 5    1  0.1451195E-002  0.1249979E+03  0.7818608E-02  0.1235073E+00
         -4   -1    0    0    0  501 -0.00000000000E+00  0.00000000000E+00  0.73833559854E+02  0.73844481587E+02  0.12700000000E+01 0.  1.
          4   -1    0    0  501    0  0.00000000000E+00 -0.00000000000E+00 -0.52881937389E+02  0.52897185199E+02  0.12700000000E+01 0.  1.
         25    2    1    2    0    0  0.00000000000E+00  0.00000000000E+00  0.20951622465E+02  0.12674166679E+03  0.12499791845E+03 0.  0.
    9000005    1    3    3    0    0  0.11704504276E+02 -0.58223518395E+02  0.30193073461E+02  0.66630287405E+02  0.10000000000E+01 0.  0.
    9000005    1    3    3    0    0 -0.11704504276E+02  0.58223518395E+02 -0.92414509954E+01  0.60111379381E+02  0.10000000000E+01 0.  0.
<mgrwt>
<rscale>  0 0.12499792E+03</rscale>
<asrwt>0</asrwt>
<pdfrwt beam="2">  1        4 0.13223756E-01 0.12499792E+03</pdfrwt>
<pdfrwt beam="1">  1       -4 0.18461661E-01 0.12499792E+03</pdfrwt>
<totfact> 0.19741855E+03</totfact>
</mgrwt>
</event>
<event>
 5    1  0.1451195E-002  0.1249956E+03  0.7818608E-02  0.1235076E+00
         -4   -1    0    0    0  501 -0.00000000000E+00  0.00000000000E+00  0.25318051260E+02  0.25349884015E+02  0.12700000000E+01 0. -1.
          4   -1    0    0  501    0  0.00000000000E+00 -0.00000000000E+00 -0.15414492229E+03  0.15415015396E+03  0.12700000000E+01 0. -1.
         25    2    1    2    0    0  0.00000000000E+00  0.00000000000E+00 -0.12882687103E+03  0.17950003798E+03  0.12499560366E+03 0.  0.
    9000005    1    3    3    0    0 -0.43439212035E+02 -0.21518348831E+02 -0.12104139586E+03  0.13039180952E+03  0.10000000000E+01 0.  0.
    9000005    1    3    3    0    0  0.43439212035E+02  0.21518348831E+02 -0.77854751691E+01  0.49108228458E+02  0.10000000000E+01 0.  0.
<mgrwt>
<rscale>  0 0.12499560E+03</rscale>
<asrwt>0</asrwt>
<pdfrwt beam="2">  1        4 0.38540861E-01 0.12499560E+03</pdfrwt>
<pdfrwt beam="1">  1       -4 0.63341463E-02 0.12499560E+03</pdfrwt>
<totfact> 0.17178627E+03</totfact>
</mgrwt>
</event>
<event>
 5    1  0.1451195E-002  0.1250074E+03  0.7818608E-02  0.1235058E+00
         -4   -1    0    0    0  501 -0.00000000000E+00  0.00000000000E+00  0.74817036803E+01  0.75887278222E+01  0.12700000000E+01 0. -1.
          4   -1    0    0  501    0  0.00000000000E+00 -0.00000000000E+00 -0.51835255112E+03  0.51835410691E+03  0.12700000000E+01 0. -1.
         25    2    1    2    0    0  0.00000000000E+00  0.00000000000E+00 -0.51087084744E+03  0.52594283473E+03  0.12500737036E+03 0.  0.
    9000005    1    3    3    0    0 -0.41867402908E+02 -0.45899050392E+02 -0.22686655872E+03  0.23522125269E+03  0.10000000000E+01 0.  0.
    9000005    1    3    3    0    0  0.41867402908E+02  0.45899050392E+02 -0.28400428872E+03  0.29072158204E+03  0.10000000000E+01 0.  0.
<mgrwt>
<rscale>  0 0.12500737E+03</rscale>
<asrwt>0</asrwt>
<pdfrwt beam="2">  1        4 0.12960159E+00 0.12500737E+03</pdfrwt>
<pdfrwt beam="1">  1       -4 0.18840002E-02 0.12500737E+03</pdfrwt>
<totfact> 0.83609194E+02</totfact>
</mgrwt>
</event>
<event>
 5    1  0.1451195E-002  0.1249980E+03  0.7818608E-02  0.1235072E+00
          4   -1    0    0  501    0  0.00000000000E+00  0.00000000000E+00  0.95671254593E+02  0.95679683609E+02  0.12700000000E+01 0.  1.
         -4   -1    0    0    0  501 -0.00000000000E+00 -0.00000000000E+00 -0.40808511754E+02  0.40828268780E+02  0.12700000000E+01 0.  1.
         25    2    1    2    0    0  0.00000000000E+00  0.00000000000E+00  0.54862742839E+02  0.13650795239E+03  0.12499800204E+03 0.  0.
    9000005    1    3    3    0    0  0.38460156323E+01  0.23132928579E+02  0.90689180520E+02  0.93677380857E+02  0.10000000000E+01 0.  0.
    9000005    1    3    3    0    0 -0.38460156323E+01 -0.23132928579E+02 -0.35826437680E+02  0.42830571532E+02  0.10000000000E+01 0.  0.
<mgrwt>
<rscale>  0 0.12499800E+03</rscale>
<asrwt>0</asrwt>
<pdfrwt beam="1">  1        4 0.23921337E-01 0.12499800E+03</pdfrwt>
<pdfrwt beam="2">  1       -4 0.10205651E-01 0.12499800E+03</pdfrwt>
<totfact> 0.19221337E+03</totfact>
</mgrwt>
</event>
<event>
 5    1  0.1451195E-002  0.1249993E+03  0.7818608E-02  0.1235070E+00
         -4   -1    0    0    0  501 -0.00000000000E+00  0.00000000000E+00  0.18610098236E+03  0.18610531571E+03  0.12700000000E+01 0.  1.
          4   -1    0    0  501    0  0.00000000000E+00 -0.00000000000E+00 -0.20965920742E+02  0.21004350325E+02  0.12700000000E+01 0.  1.
         25    2    1    2    0    0  0.00000000000E+00  0.00000000000E+00  0.16513506162E+03  0.20710966604E+03  0.12499930076E+03 0.  0.
    9000005    1    3    3    0    0 -0.19316603823E+02 -0.85738147899E+01 -0.14873247494E+02  0.25862230652E+02  0.10000000000E+01 0.  0.
    9000005    1    3    3    0    0  0.19316603823E+02  0.85738147899E+01  0.18000830911E+03  0.18124743538E+03  0.10000000000E+01 0.  0.
<mgrwt>
<rscale>  0 0.12499930E+03</rscale>
<asrwt>0</asrwt>
<pdfrwt beam="2">  1        4 0.52468256E-02 0.12499930E+03</pdfrwt>
<pdfrwt beam="1">  1       -4 0.46530591E-01 0.12499930E+03</pdfrwt>
<totfact> 0.16041523E+03</totfact>
</mgrwt>
</event>
<event>
 5    1  0.1451195E-002  0.1249936E+03  0.7818608E-02  0.1235079E+00
         -4   -1    0    0    0  501 -0.00000000000E+00  0.00000000000E+00  0.25423175040E+03  0.25423492249E+03  0.12700000000E+01 0.  1.
          4   -1    0    0  501    0  0.00000000000E+00 -0.00000000000E+00 -0.15333823807E+02  0.15386326805E+02  0.12700000000E+01 0.  1.
         25    2    1    2    0    0  0.00000000000E+00  0.00000000000E+00  0.23889792660E+03  0.26962124929E+03  0.12499359479E+03 0.  0.
    9000005    1    3    3    0    0  0.44396836536E+02 -0.22294680276E+02  0.37686851960E+02  0.62365300237E+02  0.10000000000E+01 0.  0.
    9000005    1    3    3    0    0 -0.44396836536E+02  0.22294680276E+02  0.20121107464E+03  0.20725594906E+03  0.10000000000E+01 0.  0.
<mgrwt>
<rscale>  0 0.12499359E+03</rscale>
<asrwt>0</asrwt>
<pdfrwt beam="2">  1        4 0.38404155E-02 0.12499359E+03</pdfrwt>
<pdfrwt beam="1">  1       -4 0.63564895E-01 0.12499359E+03</pdfrwt>
<totfact> 0.13869369E+03</totfact>
</mgrwt>
</event>
<event>
 5    1  0.1451195E-002  0.1249987E+03  0.7818608E-02  0.1235071E+00
          4   -1    0    0  501    0  0.00000000000E+00  0.00000000000E+00  0.31930057919E+02  0.31955304703E+02  0.12700000000E+01 0. -1.
         -4   -1    0    0    0  501 -0.00000000000E+00 -0.00000000000E+00 -0.12225830899E+03  0.12226490509E+03  0.12700000000E+01 0. -1.
         25    2    1    2    0    0  0.00000000000E+00  0.00000000000E+00 -0.90328251071E+02  0.15422020979E+03  0.12499872066E+03 0.  0.
    9000005    1    3    3    0    0 -0.95745618772E+01 -0.54202937184E+02 -0.86573420144E+01  0.55727732820E+02  0.10000000000E+01 0.  0.
    9000005    1    3    3    0    0  0.95745618772E+01  0.54202937184E+02 -0.81670909056E+02  0.98492476975E+02  0.10000000000E+01 0.  0.
<mgrwt>
<rscale>  0 0.12499872E+03</rscale>
<asrwt>0</asrwt>
<pdfrwt beam="1">  1        4 0.79864952E-02 0.12499872E+03</pdfrwt>
<pdfrwt beam="2">  1       -4 0.30568556E-01 0.12499872E+03</pdfrwt>
<totfact> 0.18333747E+03</totfact>
</mgrwt>
</event>
<event>
 5    1  0.1451195E-002  0.1249681E+03  0.7818608E-02  0.1235119E+00
         -4   -1    0    0    0  501 -0.00000000000E+00  0.00000000000E+00  0.97641267238E+01  0.98463734786E+01  0.12700000000E+01 0.  1.
          4   -1    0    0  501    0  0.00000000000E+00 -0.00000000000E+00 -0.39809696357E+03  0.39809898933E+03  0.12700000000E+01 0.  1.
         25    2    1    2    0    0  0.00000000000E+00  0.00000000000E+00 -0.38833283685E+03  0.40794536281E+03  0.12496810338E+03 0.  0.
    9000005    1    3    3    0    0 -0.52953592184E+02  0.32670394652E+02 -0.21258036137E+03  0.22150134909E+03  0.10000000000E+01 0.  0.
    9000005    1    3    3    0    0  0.52953592184E+02 -0.32670394652E+02 -0.17575247548E+03  0.18644401372E+03  0.10000000000E+01 0.  0.
<mgrwt>
<rscale>  0 0.12496810E+03</rscale>
<asrwt>0</asrwt>
<pdfrwt beam="2">  1        4 0.99534721E-01 0.12496810E+03</pdfrwt>
<pdfrwt beam="1">  1       -4 0.24515671E-02 0.12496810E+03</pdfrwt>
<totfact> 0.10414911E+03</totfact>
</mgrwt>
</event>
<event>
 5    1  0.1451195E-002  0.1250055E+03  0.7818608E-02  0.1235061E+00
         -4   -1    0    0    0  501 -0.00000000000E+00  0.00000000000E+00  0.12227522167E+02  0.12293298920E+02  0.12700000000E+01 0.  1.
          4   -1    0    0  501    0  0.00000000000E+00 -0.00000000000E+00 -0.31856794827E+03  0.31857047975E+03  0.12700000000E+01 0.  1.
         25    2    1    2    0    0  0.00000000000E+00  0.00000000000E+00 -0.30634042611E+03  0.33086377867E+03  0.12500553335E+03 0.  0.
    9000005    1    3    3    0    0 -0.11389220522E+02  0.20214989713E+02 -0.30675802234E+03  0.30763589586E+03  0.10000000000E+01 0.  0.
    9000005    1    3    3    0    0  0.11389220522E+02 -0.20214989713E+02  0.41759622988E+00  0.23227882809E+02  0.10000000000E+01 0.  0.
<mgrwt>
<rscale>  0 0.12500553E+03</rscale>
<asrwt>0</asrwt>
<pdfrwt beam="2">  1        4 0.79650498E-01 0.12500553E+03</pdfrwt>
<pdfrwt beam="1">  1       -4 0.30654201E-02 0.12500553E+03</pdfrwt>
<totfact> 0.12146564E+03</totfact>
</mgrwt>
</event>
<event>
 5    1  0.1451195E-002  0.1250051E+03  0.7818608E-02  0.1235061E+00
         -4   -1    0    0    0  501 -0.00000000000E+00  0.00000000000E+00  0.57675776003E+02  0.57689756782E+02  0.12700000000E+01 0. -1.
          4   -1    0    0  501    0  0.00000000000E+00 -0.00000000000E+00 -0.67705085546E+02  0.67716995716E+02  0.12700000000E+01 0. -1.
         25    2    1    2    0    0  0.00000000000E+00  0.00000000000E+00 -0.10029309543E+02  0.12540675250E+03  0.12500506599E+03 0.  0.
    9000005    1    3    3    0    0  0.48914436946E+01  0.60386573556E+02  0.10367656741E+02  0.61473187598E+02  0.10000000000E+01 0.  0.
    9000005    1    3    3    0    0 -0.48914436946E+01 -0.60386573556E+02 -0.20396966283E+02  0.63933564900E+02  0.10000000000E+01 0.  0.
<mgrwt>
<rscale>  0 0.12500507E+03</rscale>
<asrwt>0</asrwt>
<pdfrwt beam="2">  1        4 0.16929508E-01 0.12500507E+03</pdfrwt>
<pdfrwt beam="1">  1       -4 0.14422180E-01 0.12500507E+03</pdfrwt>
<totfact> 0.19810664E+03</totfact>
</mgrwt>
</event>
<event>
 5    1  0.1451195E-002  0.1250038E+03  0.7818608E-02  0.1235063E+00
          4   -1    0    0  501    0  0.00000000000E+00  0.00000000000E+00  0.38801698783E+01  0.40827219210E+01  0.12700000000E+01 0.  1.
         -4   -1    0    0    0  501 -0.00000000000E+00 -0.00000000000E+00 -0.98097000595E+03  0.98097082805E+03  0.12700000000E+01 0.  1.
         25    2    1    2    0    0  0.00000000000E+00  0.00000000000E+00 -0.97708983608E+03  0.98505354997E+03  0.12500379412E+03 0.  0.
    9000005    1    3    3    0    0 -0.13954868725E+02 -0.59895553883E+02 -0.40105302575E+03  0.40574221520E+03  0.10000000000E+01 0.  0.
    9000005    1    3    3    0    0  0.13954868725E+02  0.59895553883E+02 -0.57603681033E+03  0.57931133477E+03  0.10000000000E+01 0.  0.
<mgrwt>
<rscale>  0 0.12500379E+03</rscale>
<asrwt>0</asrwt>
<pdfrwt beam="1">  1        4 0.99546759E-03 0.12500379E+03</pdfrwt>
<pdfrwt beam="2">  1       -4 0.24526710E+00 0.12500379E+03</pdfrwt>
<totfact> 0.38120687E+02</totfact>
</mgrwt>
</event>
<event>
 5    1  0.1451195E-002  0.1249964E+03  0.7818608E-02  0.1235075E+00
          4   -1    0    0  501    0  0.00000000000E+00  0.00000000000E+00  0.31953130479E+02  0.31978359048E+02  0.12700000000E+01 0.  1.
         -4   -1    0    0    0  501 -0.00000000000E+00 -0.00000000000E+00 -0.12216564857E+03  0.12217224967E+03  0.12700000000E+01 0.  1.
         25    2    1    2    0    0  0.00000000000E+00  0.00000000000E+00 -0.90212518089E+02  0.15415060872E+03  0.12499644694E+03 0.  0.
    9000005    1    3    3    0    0  0.30809689005E+02 -0.36500091243E+02 -0.94797325238E+02  0.10615567093E+03  0.10000000000E+01 0.  0.
    9000005    1    3    3    0    0 -0.30809689005E+02  0.36500091243E+02  0.45848071490E+01  0.47994937795E+02  0.10000000000E+01 0.  0.
<mgrwt>
<rscale>  0 0.12499645E+03</rscale>
<asrwt>0</asrwt>
<pdfrwt beam="1">  1        4 0.79922616E-02 0.12499645E+03</pdfrwt>
<pdfrwt beam="2">  1       -4 0.30545390E-01 0.12499645E+03</pdfrwt>
<totfact> 0.18338076E+03</totfact>
</mgrwt>
</event>
<event>
 5    1  0.1451195E-002  0.1250002E+03  0.7818608E-02  0.1235069E+00
         -4   -1    0    0    0  501 -0.00000000000E+00  0.00000000000E+00  0.22977299582E+02  0.23012370501E+02  0.12700000000E+01 0. -1.
          4   -1    0    0  501    0  0.00000000000E+00 -0.00000000000E+00 -0.16983824044E+03  0.16984298872E+03  0.12700000000E+01 0. -1.
         25    2    1    2    0    0  0.00000000000E+00  0.00000000000E+00 -0.14686094086E+03  0.19285535922E+03  0.12500021452E+03 0.  0.
    9000005    1    3    3    0    0  0.23822421472E+02  0.43521885967E+01 -0.16231218354E+03  0.16411183454E+03  0.10000000000E+01 0.  0.
    9000005    1    3    3    0    0 -0.23822421472E+02 -0.43521885967E+01  0.15451242683E+02  0.28743524676E+02  0.10000000000E+01 0.  0.
<mgrwt>
<rscale>  0 0.12500021E+03</rscale>
<asrwt>0</asrwt>
<pdfrwt beam="2">  1        4 0.42464534E-01 0.12500021E+03</pdfrwt>
<pdfrwt beam="1">  1       -4 0.57493028E-02 0.12500021E+03</pdfrwt>
<totfact> 0.16612096E+03</totfact>
</mgrwt>
</event>
<event>
 5    1  0.1451195E-002  0.1249978E+03  0.7818608E-02  0.1235073E+00
          4   -1    0    0  501    0  0.00000000000E+00  0.00000000000E+00  0.10129166767E+02  0.10208472922E+02  0.12700000000E+01 0. -1.
         -4   -1    0    0    0  501 -0.00000000000E+00 -0.00000000000E+00 -0.38404617562E+03  0.38404827549E+03  0.12700000000E+01 0. -1.
         25    2    1    2    0    0  0.00000000000E+00  0.00000000000E+00 -0.37391700885E+03  0.39425674841E+03  0.12499781662E+03 0.  0.
    9000005    1    3    3    0    0 -0.42142546635E+02 -0.43303496508E+02 -0.13669755173E+03  0.14946038839E+03  0.10000000000E+01 0.  0.
    9000005    1    3    3    0    0  0.42142546635E+02  0.43303496508E+02 -0.23721945711E+03  0.24479636002E+03  0.10000000000E+01 0.  0.
<mgrwt>
<rscale>  0 0.12499782E+03</rscale>
<asrwt>0</asrwt>
<pdfrwt beam="1">  1        4 0.25424687E-02 0.12499782E+03</pdfrwt>
<pdfrwt beam="2">  1       -4 0.96021671E-01 0.12499782E+03</pdfrwt>
<totfact> 0.10689000E+03</totfact>
</mgrwt>
</event>
<event>
 5    1  0.1451195E-002  0.1250055E+03  0.7818608E-02  0.1235061E+00
          4   -1    0    0  501    0  0.00000000000E+00  0.00000000000E+00  0.10704523920E+03  0.10705277267E+03  0.12700000000E+01 0.  1.
         -4   -1    0    0    0  501 -0.00000000000E+00 -0.00000000000E+00 -0.36474930966E+02  0.36497033975E+02  0.12700000000E+01 0.  1.
         25    2    1    2    0    0  0.00000000000E+00  0.00000000000E+00  0.70570308236E+02  0.14354980664E+03  0.12500551421E+03 0.  0.
    9000005    1    3    3    0    0 -0.44147535259E+01 -0.36596366850E+02 -0.22667290336E+02  0.43284987773E+02  0.10000000000E+01 0.  0.
    9000005    1    3    3    0    0  0.44147535259E+01  0.36596366850E+02  0.93237598572E+02  0.10026481887E+03  0.10000000000E+01 0.  0.
<mgrwt>
<rscale>  0 0.12500551E+03</rscale>
<asrwt>0</asrwt>
<pdfrwt beam="1">  1        4 0.26765014E-01 0.12500551E+03</pdfrwt>
<pdfrwt beam="2">  1       -4 0.91224374E-02 0.12500551E+03</pdfrwt>
<totfact> 0.18857765E+03</totfact>
</mgrwt>
</event>
<event>
 5    1  0.1451195E-002  0.1250004E+03  0.7818608E-02  0.1235069E+00
         -4   -1    0    0    0  501 -0.00000000000E+00  0.00000000000E+00  0.90907480609E+01  0.91790304666E+01  0.12700000000E+01 0. -1.
          4   -1    0    0  501    0  0.00000000000E+00 -0.00000000000E+00 -0.42753228850E+03  0.42753417478E+03  0.12700000000E+01 0. -1.
         25    2    1    2    0    0  0.00000000000E+00  0.00000000000E+00 -0.41844154044E+03  0.43671320525E+03  0.12500040351E+03 0.  0.
    9000005    1    3    3    0    0 -0.23425235919E+02 -0.35029211237E+02 -0.37044209957E+03  0.37283258502E+03  0.10000000000E+01 0.  0.
    9000005    1    3    3    0    0  0.23425235919E+02  0.35029211237E+02 -0.47999440869E+02  0.63880620234E+02  0.10000000000E+01 0.  0.
<mgrwt>
<rscale>  0 0.12500040E+03</rscale>
<asrwt>0</asrwt>
<pdfrwt beam="2">  1        4 0.10689428E+00 0.12500040E+03</pdfrwt>
<pdfrwt beam="1">  1       -4 0.22839595E-02 0.12500040E+03</pdfrwt>
<totfact> 0.98451475E+02</totfact>
</mgrwt>
</event>
<event>
 5    1  0.1451195E-002  0.1250067E+03  0.7818608E-02  0.1235059E+00
          4   -1    0    0  501    0  0.00000000000E+00  0.00000000000E+00  0.55345452053E+03  0.55345597765E+03  0.12700000000E+01 0.  1.
         -4   -1    0    0    0  501 -0.00000000000E+00 -0.00000000000E+00 -0.70000942974E+01  0.71143671660E+01  0.12700000000E+01 0.  1.
         25    2    1    2    0    0  0.00000000000E+00  0.00000000000E+00  0.54645442623E+03  0.56057034481E+03  0.12500668597E+03 0.  0.
    9000005    1    3    3    0    0  0.54649101158E+02 -0.16006914872E+02  0.15776810657E+03  0.16773348214E+03  0.10000000000E+01 0.  0.
    9000005    1    3    3    0    0 -0.54649101158E+02  0.16006914872E+02  0.38868631966E+03  0.39283686267E+03  0.10000000000E+01 0.  0.
<mgrwt>
<rscale>  0 0.12500669E+03</rscale>
<asrwt>0</asrwt>
<pdfrwt beam="1">  1        4 0.13837809E+00 0.12500669E+03</pdfrwt>
<pdfrwt beam="2">  1       -4 0.17644899E-02 0.12500669E+03</pdfrwt>
<totfact> 0.78686891E+02</totfact>
</mgrwt>
</event>
<event>
 4    1  0.1451195E-002  0.1248317E+03  0.7818608E-02  0.1235333E+00
         -4   -1    0    0    0  501 -0.00000000000E+00  0.00000000000E+00  0.15528025216E+03  0.15528544559E+03  0.12700000000E+01 0. -1.
          4   -1    0    0  501    0  0.00000000000E+00 -0.00000000000E+00 -0.25066746102E+02  0.25098897588E+02  0.12700000000E+01 0. -1.
    9000005    1    1    2    0    0 -0.25403406697E+02 -0.46151355864E+02  0.16758831554E+02  0.55291402180E+02  0.10000000000E+01 0.  0.
    9000005    1    1    2    0    0  0.25403406697E+02  0.46151355864E+02  0.11345467451E+03  0.12509294100E+03  0.10000000000E+01 0.  0.
<mgrwt>
<rscale>  0 0.12483170E+03</rscale>
<asrwt>0</asrwt>
<pdfrwt beam="2">  1        4 0.62713548E-02 0.12483170E+03</pdfrwt>
<pdfrwt beam="1">  1       -4 0.38824730E-01 0.12483170E+03</pdfrwt>
<totfact> 0.17205629E+03</totfact>
</mgrwt>
</event>
<event>
 5    1  0.1451195E-002  0.1250183E+03  0.7818608E-02  0.1235041E+00
         -4   -1    0    0    0  501 -0.00000000000E+00  0.00000000000E+00  0.14617725892E+02  0.14672791495E+02  0.12700000000E+01 0. -1.
          4   -1    0    0  501    0  0.00000000000E+00 -0.00000000000E+00 -0.26674587171E+03  0.26674889498E+03  0.12700000000E+01 0. -1.
         25    2    1    2    0    0  0.00000000000E+00  0.00000000000E+00 -0.25212814582E+03  0.28142168648E+03  0.12501825349E+03 0.  0.
    9000005    1    3    3    0    0  0.41468992881E+02 -0.11480475015E+02 -0.22810649871E+03  0.23213154338E+03  0.10000000000E+01 0.  0.
    9000005    1    3    3    0    0 -0.41468992881E+02  0.11480475015E+02 -0.24021647112E+02  0.49290143103E+02  0.10000000000E+01 0.  0.
<mgrwt>
<rscale>  0 0.12501825E+03</rscale>
<asrwt>0</asrwt>
<pdfrwt beam="2">  1        4 0.66693713E-01 0.12501825E+03</pdfrwt>
<pdfrwt beam="1">  1       -4 0.36616934E-02 0.12501825E+03</pdfrwt>
<totfact> 0.13502547E+03</totfact>
</mgrwt>
</event>
<event>
 5    1  0.1451195E-002  0.1250040E+03  0.7818608E-02  0.1235063E+00
          4   -1    0    0  501    0  0.00000000000E+00  0.00000000000E+00  0.48729881962E+02  0.48746428547E+02  0.12700000000E+01 0.  1.
         -4   -1    0    0    0  501 -0.00000000000E+00 -0.00000000000E+00 -0.80131171948E+02  0.80141235440E+02  0.12700000000E+01 0.  1.
         25    2    1    2    0    0  0.00000000000E+00  0.00000000000E+00 -0.31401289986E+02  0.12888766399E+03  0.12500395560E+03 0.  0.
    9000005    1    3    3    0    0  0.55240588625E+01 -0.16869494657E+02 -0.77482243991E+02  0.79495869139E+02  0.10000000000E+01 0.  0.
    9000005    1    3    3    0    0 -0.55240588625E+01  0.16869494657E+02  0.46080954005E+02  0.49391794848E+02  0.10000000000E+01 0.  0.
<mgrwt>
<rscale>  0 0.12500396E+03</rscale>
<asrwt>0</asrwt>
<pdfrwt beam="1">  1        4 0.12185797E-01 0.12500396E+03</pdfrwt>
<pdfrwt beam="2">  1       -4 0.20036119E-01 0.12500396E+03</pdfrwt>
<totfact> 0.19622560E+03</totfact>
</mgrwt>
</event>
<event>
 5    1  0.1451195E-002  0.1249987E+03  0.7818608E-02  0.1235071E+00
         -4   -1    0    0    0  501 -0.00000000000E+00  0.00000000000E+00  0.88094445724E+01  0.89005176071E+01  0.12700000000E+01 0.  1.
          4   -1    0    0  501    0  0.00000000000E+00 -0.00000000000E+00 -0.44103469317E+03  0.44103652171E+03  0.12700000000E+01 0.  1.
         25    2    1    2    0    0  0.00000000000E+00  0.00000000000E+00 -0.43222524860E+03  0.44993703931E+03  0.12499869528E+03 0.  0.
    9000005    1    3    3    0    0  0.60546519866E+02  0.13817809534E+02 -0.24114311292E+03  0.24901368203E+03  0.10000000000E+01 0.  0.
    9000005    1    3    3    0    0 -0.60546519866E+02 -0.13817809534E+02 -0.19108213567E+03  0.20092335728E+03  0.10000000000E+01 0.  0.
<mgrwt>
<rscale>  0 0.12499870E+03</rscale>
<asrwt>0</asrwt>
<pdfrwt beam="2">  1        4 0.11027021E+00 0.12499870E+03</pdfrwt>
<pdfrwt beam="1">  1       -4 0.22139753E-02 0.12499870E+03</pdfrwt>
<totfact> 0.96031155E+02</totfact>
</mgrwt>
</event>
<event>
 5    1  0.1451195E-002  0.1249974E+03  0.7818608E-02  0.1235073E+00
          4   -1    0    0  501    0  0.00000000000E+00  0.00000000000E+00  0.66826233532E+02  0.66838300308E+02  0.12700000000E+01 0.  1.
         -4   -1    0    0    0  501 -0.00000000000E+00 -0.00000000000E+00 -0.58427200082E+02  0.58441001099E+02  0.12700000000E+01 0.  1.
         25    2    1    2    0    0  0.00000000000E+00  0.00000000000E+00  0.83990334498E+01  0.12527930141E+03  0.12499743837E+03 0.  0.
    9000005    1    3    3    0    0 -0.30947081301E+01  0.24353851747E+02 -0.53396601957E+02  0.58778264808E+02  0.10000000000E+01 0.  0.
    9000005    1    3    3    0    0  0.30947081301E+01 -0.24353851747E+02  0.61795635407E+02  0.66501036598E+02  0.10000000000E+01 0.  0.
<mgrwt>
<rscale>  0 0.12499744E+03</rscale>
<asrwt>0</asrwt>
<pdfrwt beam="1">  1        4 0.16709792E-01 0.12499744E+03</pdfrwt>
<pdfrwt beam="2">  1       -4 0.14610034E-01 0.12499744E+03</pdfrwt>
<totfact> 0.19821104E+03</totfact>
</mgrwt>
</event>
<event>
 5    1  0.1451195E-002  0.1250008E+03  0.7818608E-02  0.1235068E+00
         -4   -1    0    0    0  501 -0.00000000000E+00  0.00000000000E+00  0.24275530084E+02  0.24308728079E+02  0.12700000000E+01 0. -1.
          4   -1    0    0  501    0  0.00000000000E+00 -0.00000000000E+00 -0.16076944915E+03  0.16077446526E+03  0.12700000000E+01 0. -1.
         25    2    1    2    0    0  0.00000000000E+00  0.00000000000E+00 -0.13649391907E+03  0.18508319334E+03  0.12500079406E+03 0.  0.
    9000005    1    3    3    0    0 -0.50300630362E+02  0.10693622616E+02 -0.15672351171E+02  0.53769225126E+02  0.10000000000E+01 0.  0.
    9000005    1    3    3    0    0  0.50300630362E+02 -0.10693622616E+02 -0.12082156790E+03  0.13131396822E+03  0.10000000000E+01 0.  0.
<mgrwt>
<rscale>  0 0.12500079E+03</rscale>
<asrwt>0</asrwt>
<pdfrwt beam="2">  1        4 0.40197136E-01 0.12500079E+03</pdfrwt>
<pdfrwt beam="1">  1       -4 0.60736597E-02 0.12500079E+03</pdfrwt>
<totfact> 0.16936978E+03</totfact>
</mgrwt>
</event>
<event>
 5    1  0.1451195E-002  0.1249979E+03  0.7818608E-02  0.1235072E+00
         -4   -1    0    0    0  501 -0.00000000000E+00  0.00000000000E+00  0.10195860913E+03  0.10196651841E+03  0.12700000000E+01 0. -1.
          4   -1    0    0  501    0  0.00000000000E+00 -0.00000000000E+00 -0.38290932483E+02  0.38311987816E+02  0.12700000000E+01 0. -1.
         25    2    1    2    0    0  0.00000000000E+00  0.00000000000E+00  0.63667676649E+02  0.14027850622E+03  0.12499794502E+03 0.  0.
    9000005    1    3    3    0    0 -0.51198523243E+02  0.30485794011E+02  0.10705505648E+02  0.60549816432E+02  0.10000000000E+01 0.  0.
    9000005    1    3    3    0    0  0.51198523243E+02 -0.30485794011E+02  0.52962171001E+02  0.79728689792E+02  0.10000000000E+01 0.  0.
<mgrwt>
<rscale>  0 0.12499795E+03</rscale>
<asrwt>0</asrwt>
<pdfrwt beam="2">  1        4 0.95763538E-02 0.12499795E+03</pdfrwt>
<pdfrwt beam="1">  1       -4 0.25493272E-01 0.12499795E+03</pdfrwt>
<totfact> 0.19027015E+03</totfact>
</mgrwt>
</event>
<event>
 5    1  0.1451195E-002  0.1250099E+03  0.7818608E-02  0.1235054E+00
          4   -1    0    0  501    0  0.00000000000E+00  0.00000000000E+00  0.41742531284E+02  0.41761846439E+02  0.12700000000E+01 0. -1.
         -4   -1    0    0    0  501 -0.00000000000E+00 -0.00000000000E+00 -0.93549173863E+02  0.93557794066E+02  0.12700000000E+01 0. -1.
         25    2    1    2    0    0  0.00000000000E+00  0.00000000000E+00 -0.51806642579E+02  0.13531964050E+03  0.12500990717E+03 0.  0.
    9000005    1    3    3    0    0  0.45890534348E+02 -0.22952386155E+02  0.12720069587E+02  0.52872992569E+02  0.10000000000E+01 0.  0.
    9000005    1    3    3    0    0 -0.45890534348E+02  0.22952386155E+02 -0.64526712165E+02  0.82446647936E+02  0.10000000000E+01 0.  0.
<mgrwt>
<rscale>  0 0.12500991E+03</rscale>
<asrwt>0</asrwt>
<pdfrwt beam="1">  1        4 0.10439125E-01 0.12500991E+03</pdfrwt>
<pdfrwt beam="2">  1       -4 0.23390785E-01 0.12500991E+03</pdfrwt>
<totfact> 0.19277951E+03</totfact>
</mgrwt>
</event>
<event>
 5    1  0.1451195E-002  0.1249993E+03  0.7818608E-02  0.1235070E+00
         -4   -1    0    0    0  501 -0.00000000000E+00  0.00000000000E+00  0.59075923736E+03  0.59076060246E+03  0.12700000000E+01 0.  1.
          4   -1    0    0  501    0  0.00000000000E+00 -0.00000000000E+00 -0.65498161219E+01  0.66718056949E+01  0.12700000000E+01 0.  1.
         25    2    1    2    0    0  0.00000000000E+00  0.00000000000E+00  0.58420942124E+03  0.59743240816E+03  0.12499933783E+03 0.  0.
    9000005    1    3    3    0    0  0.43280272703E+02  0.39469863012E+02  0.18803078652E+03  0.19694575083E+03  0.10000000000E+01 0.  0.
    9000005    1    3    3    0    0 -0.43280272703E+02 -0.39469863012E+02  0.39617863471E+03  0.40048665732E+03  0.10000000000E+01 0.  0.
<mgrwt>
<rscale>  0 0.12499934E+03</rscale>
<asrwt>0</asrwt>
<pdfrwt beam="2">  1        4 0.16528735E-02 0.12499934E+03</pdfrwt>
<pdfrwt beam="1">  1       -4 0.14770522E+00 0.12499934E+03</pdfrwt>
<totfact> 0.73828006E+02</totfact>
</mgrwt>
</event>
<event>
 5    1  0.1451195E-002  0.1250033E+03  0.7818608E-02  0.1235064E+00
         -4   -1    0    0    0  501 -0.00000000000E+00  0.00000000000E+00  0.42368706382E+03  0.42368896722E+03  0.12700000000E+01 0. -1.
          4   -1    0    0  501    0  0.00000000000E+00 -0.00000000000E+00 -0.91744749564E+01  0.92619593351E+01  0.12700000000E+01 0. -1.
         25    2    1    2    0    0  0.00000000000E+00  0.00000000000E+00  0.41451258886E+03  0.43295092656E+03  0.12500327389E+03 0.  0.
    9000005    1    3    3    0    0 -0.56315430667E+02  0.27013911679E+02  0.20009471224E+03  0.20961887564E+03  0.10000000000E+01 0.  0.
    9000005    1    3    3    0    0  0.56315430667E+02 -0.27013911679E+02  0.21441787662E+03  0.22333205092E+03  0.10000000000E+01 0.  0.
<mgrwt>
<rscale>  0 0.12500327E+03</rscale>
<asrwt>0</asrwt>
<pdfrwt beam="2">  1        4 0.23047922E-02 0.12500327E+03</pdfrwt>
<pdfrwt beam="1">  1       -4 0.10593294E+00 0.12500327E+03</pdfrwt>
<totfact> 0.99152994E+02</totfact>
</mgrwt>
</event>
<event>
 5    1  0.1451195E-002  0.1249989E+03  0.7818608E-02  0.1235071E+00
          4   -1    0    0  501    0  0.00000000000E+00  0.00000000000E+00  0.59533238236E+02  0.59546782910E+02  0.12700000000E+01 0. -1.
         -4   -1    0    0    0  501 -0.00000000000E+00 -0.00000000000E+00 -0.65586279203E+02  0.65598574068E+02  0.12700000000E+01 0. -1.
         25    2    1    2    0    0  0.00000000000E+00  0.00000000000E+00 -0.60530409669E+01  0.12514535698E+03  0.12499888427E+03 0.  0.
    9000005    1    3    3    0    0 -0.29075492950E+02  0.20433426720E+02 -0.54489779827E+02  0.65061857669E+02  0.10000000000E+01 0.  0.
    9000005    1    3    3    0    0  0.29075492950E+02 -0.20433426720E+02  0.48436738860E+02  0.60083499309E+02  0.10000000000E+01 0.  0.
<mgrwt>
<rscale>  0 0.12499888E+03</rscale>
<asrwt>0</asrwt>
<pdfrwt beam="1">  1        4 0.14886540E-01 0.12499888E+03</pdfrwt>
<pdfrwt beam="2">  1       -4 0.16399800E-01 0.12499888E+03</pdfrwt>
<totfact> 0.19827692E+03</totfact>
</mgrwt>
</event>
<event>
 5    1  0.1451195E-002  0.1249995E+03  0.7818608E-02  0.1235070E+00
          4   -1    0    0  501    0  0.00000000000E+00  0.00000000000E+00  0.18184679662E+03  0.18185123134E+03  0.12700000000E+01 0.  1.
         -4   -1    0    0    0  501 -0.00000000000E+00 -0.00000000000E+00 -0.21457338406E+02  0.21494889427E+02  0.12700000000E+01 0.  1.
         25    2    1    2    0    0  0.00000000000E+00  0.00000000000E+00  0.16038945822E+03  0.20334612077E+03  0.12499946610E+03 0.  0.
    9000005    1    3    3    0    0  0.50419846511E+02  0.32690006466E+02  0.52281454508E+02  0.79656436842E+02  0.10000000000E+01 0.  0.
    9000005    1    3    3    0    0 -0.50419846511E+02 -0.32690006466E+02  0.10810800371E+03  0.12368968393E+03  0.10000000000E+01 0.  0.
<mgrwt>
<rscale>  0 0.12499947E+03</rscale>
<asrwt>0</asrwt>
<pdfrwt beam="1">  1        4 0.45466947E-01 0.12499947E+03</pdfrwt>
<pdfrwt beam="2">  1       -4 0.53695828E-02 0.12499947E+03</pdfrwt>
<totfact> 0.16189128E+03</totfact>
</mgrwt>
</event>
<event>
 5    1  0.1451195E-002  0.1249845E+03  0.7818608E-02  0.1235094E+00
          4   -1    0    0  501    0  0.00000000000E+00  0.00000000000E+00  0.11373717678E+03  0.11374426703E+03  0.12700000000E+01 0. -1.
         -4   -1    0    0    0  501 -0.00000000000E+00 -0.00000000000E+00 -0.34316103870E+02  0.34339596457E+02  0.12700000000E+01 0. -1.
         25    2    1    2    0    0  0.00000000000E+00  0.00000000000E+00  0.79421072909E+02  0.14808386348E+03  0.12498449425E+03 0.  0.
    9000005    1    3    3    0    0  0.46835097838E+02  0.22256705863E+02  0.81016244675E+02  0.96195214260E+02  0.10000000000E+01 0.  0.
    9000005    1    3    3    0    0 -0.46835097838E+02 -0.22256705863E+02 -0.15951717659E+01  0.51888649224E+02  0.10000000000E+01 0.  0.
<mgrwt>
<rscale>  0 0.12498449E+03</rscale>
<asrwt>0</asrwt>
<pdfrwt beam="1">  1        4 0.28438117E-01 0.12498449E+03</pdfrwt>
<pdfrwt beam="2">  1       -4 0.85828489E-02 0.12498449E+03</pdfrwt>
<totfact> 0.18640127E+03</totfact>
</mgrwt>
</event>
<event>
 5    1  0.1451195E-002  0.1250024E+03  0.7818608E-02  0.1235065E+00
          4   -1    0    0  501    0  0.00000000000E+00  0.00000000000E+00  0.37633947279E+02  0.37655369973E+02  0.12700000000E+01 0. -1.
         -4   -1    0    0    0  501 -0.00000000000E+00 -0.00000000000E+00 -0.10374508805E+03  0.10375286114E+03  0.12700000000E+01 0. -1.
         25    2    1    2    0    0  0.00000000000E+00  0.00000000000E+00 -0.66111140774E+02  0.14140823111E+03  0.12500241955E+03 0.  0.
    9000005    1    3    3    0    0  0.58254597181E+02  0.11304880610E+02 -0.55223415004E+02  0.81068020717E+02  0.10000000000E+01 0.  0.
    9000005    1    3    3    0    0 -0.58254597181E+02 -0.11304880610E+02 -0.10887725771E+02  0.60340210397E+02  0.10000000000E+01 0.  0.
<mgrwt>
<rscale>  0 0.12500242E+03</rscale>
<asrwt>0</asrwt>
<pdfrwt beam="1">  1        4 0.94121365E-02 0.12500242E+03</pdfrwt>
<pdfrwt beam="2">  1       -4 0.25939921E-01 0.12500242E+03</pdfrwt>
<totfact> 0.18967460E+03</totfact>
</mgrwt>
</event>
<event>
 5    1  0.1451195E-002  0.1250085E+03  0.7818608E-02  0.1235056E+00
         -4   -1    0    0    0  501 -0.00000000000E+00  0.00000000000E+00  0.16020579055E+03  0.16021082431E+03  0.12700000000E+01 0.  1.
          4   -1    0    0  501    0  0.00000000000E+00 -0.00000000000E+00 -0.24364081178E+02  0.24397158680E+02  0.12700000000E+01 0.  1.
         25    2    1    2    0    0  0.00000000000E+00  0.00000000000E+00  0.13584170937E+03  0.18460798299E+03  0.12500854922E+03 0.  0.
    9000005    1    3    3    0    0 -0.45566086994E+02 -0.42230197009E+02  0.57891196949E+02  0.84923780577E+02  0.10000000000E+01 0.  0.
    9000005    1    3    3    0    0  0.45566086994E+02  0.42230197009E+02  0.77950512422E+02  0.99684202410E+02  0.10000000000E+01 0.  0.
<mgrwt>
<rscale>  0 0.12500855E+03</rscale>
<asrwt>0</asrwt>
<pdfrwt beam="2">  1        4 0.60957844E-02 0.12500855E+03</pdfrwt>
<pdfrwt beam="1">  1       -4 0.40056210E-01 0.12500855E+03</pdfrwt>
<totfact> 0.16954141E+03</totfact>
</mgrwt>
</event>
<event>
 5    1  0.1451195E-002  0.1249969E+03  0.7818608E-02  0.1235074E+00
         -4   -1    0    0    0  501 -0.00000000000E+00  0.00000000000E+00  0.47345024600E+03  0.47345194934E+03  0.12700000000E+01 0. -1.
          4   -1    0    0  501    0  0.00000000000E+00 -0.00000000000E+00 -0.81995900211E+01  0.82973596110E+01  0.12700000000E+01 0. -1.
         25    2    1    2    0    0  0.00000000000E+00  0.00000000000E+00  0.46525065598E+03  0.48174930895E+03  0.12499689512E+03 0.  0.
    9000005    1    3    3    0    0  0.45579315344E+02  0.11447301298E+02  0.73878854199E+02  0.87564831936E+02  0.10000000000E+01 0.  0.
    9000005    1    3    3    0    0 -0.45579315344E+02 -0.11447301298E+02  0.39137180178E+03  0.39418447702E+03  0.10000000000E+01 0.  0.
<mgrwt>
<rscale>  0 0.12499690E+03</rscale>
<asrwt>0</asrwt>
<pdfrwt beam="2">  1        4 0.20623317E-02 0.12499690E+03</pdfrwt>
<pdfrwt beam="1">  1       -4 0.11837499E+00 0.12499690E+03</pdfrwt>
<totfact> 0.90588129E+02</totfact>
</mgrwt>
</event>
<event>
 5    1  0.1451195E-002  0.1250006E+03  0.7818608E-02  0.1235068E+00
          4   -1    0    0  501    0  0.00000000000E+00  0.00000000000E+00  0.13770061365E+03  0.13770647008E+03  0.12700000000E+01 0. -1.
         -4   -1    0    0    0  501 -0.00000000000E+00 -0.00000000000E+00 -0.28347278423E+02  0.28375713101E+02  0.12700000000E+01 0. -1.
         25    2    1    2    0    0  0.00000000000E+00  0.00000000000E+00  0.10935333523E+03  0.16608218318E+03  0.12500055857E+03 0.  0.
    9000005    1    3    3    0    0 -0.18915467106E+02 -0.49801275169E+02  0.11269742030E+02  0.54460710514E+02  0.10000000000E+01 0.  0.
    9000005    1    3    3    0    0  0.18915467106E+02  0.49801275169E+02  0.98083593201E+02  0.11162147266E+03  0.10000000000E+01 0.  0.
<mgrwt>
<rscale>  0 0.12500056E+03</rscale>
<asrwt>0</asrwt>
<pdfrwt beam="1">  1        4 0.34429439E-01 0.12500056E+03</pdfrwt>
<pdfrwt beam="2">  1       -4 0.70911062E-02 0.12500056E+03</pdfrwt>
<totfact> 0.17774988E+03</totfact>
</mgrwt>
</event>
<event>
 5    1  0.1451195E-002  0.1249994E+03  0.7818608E-02  0.1235070E+00
          4   -1    0    0  501    0  0.00000000000E+00  0.00000000000E+00  0.67302330866E+01  0.68490099577E+01  0.12700000000E+01 0.  1.
         -4   -1    0    0    0  501 -0.00000000000E+00 -0.00000000000E+00 -0.57520183425E+03  0.57520323628E+03  0.12700000000E+01 0.  1.
         25    2    1    2    0    0  0.00000000000E+00  0.00000000000E+00 -0.56847160117E+03  0.58205224624E+03  0.12499942407E+03 0.  0.
    9000005    1    3    3    0    0  0.29373965640E+02 -0.14911029331E+02 -0.36959779502E+02  0.49519632005E+02  0.10000000000E+01 0.  0.
    9000005    1    3    3    0    0 -0.29373965640E+02  0.14911029331E+02 -0.53151182166E+03  0.53253261423E+03  0.10000000000E+01 0.  0.
<mgrwt>
<rscale>  0 0.12499942E+03</rscale>
<asrwt>0</asrwt>
<pdfrwt beam="1">  1        4 0.16975826E-02 0.12499942E+03</pdfrwt>
<pdfrwt beam="2">  1       -4 0.14381532E+00 0.12499942E+03</pdfrwt>
<totfact> 0.75809632E+02</totfact>
</mgrwt>
</event>
<event>
 5    1  0.1451195E-002  0.1250020E+03  0.7818608E-02  0.1235066E+00
         -4   -1    0    0    0  501 -0.00000000000E+00  0.00000000000E+00  0.52943134244E+01  0.54445068312E+01  0.12700000000E+01 0.  1.
          4   -1    0    0  501    0  0.00000000000E+00 -0.00000000000E+00 -0.72737361611E+03  0.72737472483E+03  0.12700000000E+01 0.  1.
         25    2    1    2    0    0  0.00000000000E+00  0.00000000000E+00 -0.72207930269E+03  0.73281923166E+03  0.12500202765E+03 0.  0.
    9000005    1    3    3    0    0 -0.25048084572E+02 -0.40658194411E+02 -0.12472500665E+03  0.13355831160E+03  0.10000000000E+01 0.  0.
    9000005    1    3    3    0    0  0.25048084572E+02  0.40658194411E+02 -0.59735429604E+03  0.59926092006E+03  0.10000000000E+01 0.  0.
<mgrwt>
<rscale>  0 0.12500203E+03</rscale>
<asrwt>0</asrwt>
<pdfrwt beam="2">  1        4 0.18186198E+00 0.12500203E+03</pdfrwt>
<pdfrwt beam="1">  1       -4 0.13424936E-02 0.12500203E+03</pdfrwt>
<totfact> 0.58733829E+02</totfact>
</mgrwt>
</event>
<event>
 5    1  0.1451195E-002  0.1249952E+03  0.7818608E-02  0.1235077E+00
         -4   -1    0    0    0  501 -0.00000000000E+00  0.00000000000E+00  0.22397266737E+03  0.22397626801E+03  0.12700000000E+01 0. -1.
          4   -1    0    0  501    0  0.00000000000E+00 -0.00000000000E+00 -0.17412529801E+02  0.17458782720E+02  0.12700000000E+01 0. -1.
         25    2    1    2    0    0  0.00000000000E+00  0.00000000000E+00  0.20656013757E+03  0.24143505073E+03  0.12499517305E+03 0.  0.
    9000005    1    3    3    0    0 -0.28073314058E+02 -0.55745596961E+02  0.10915967229E+03  0.12574782939E+03  0.10000000000E+01 0.  0.
    9000005    1    3    3    0    0  0.28073314058E+02  0.55745596961E+02  0.97400465283E+02  0.11568722133E+03  0.10000000000E+01 0.  0.
<mgrwt>
<rscale>  0 0.12499517E+03</rscale>
<asrwt>0</asrwt>
<pdfrwt beam="2">  1        4 0.43593641E-02 0.12499517E+03</pdfrwt>
<pdfrwt beam="1">  1       -4 0.55999399E-01 0.12499517E+03</pdfrwt>
<totfact> 0.14788783E+03</totfact>
</mgrwt>
</event>
<event>
 5    1  0.1451195E-002  0.1250096E+03  0.7818608E-02  0.1235054E+00
         -4   -1    0    0    0  501 -0.00000000000E+00  0.00000000000E+00  0.10647606846E+02  0.10723079388E+02  0.12700000000E+01 0. -1.
          4   -1    0    0  501    0  0.00000000000E+00 -0.00000000000E+00 -0.36555025419E+03  0.36555246031E+03  0.12700000000E+01 0. -1.
         25    2    1    2    0    0  0.00000000000E+00  0.00000000000E+00 -0.35490264734E+03  0.37627553970E+03  0.12500957037E+03 0.  0.
    9000005    1    3    3    0    0  0.41607518811E+02 -0.34362831024E+02 -0.82560333250E+02  0.98636699073E+02  0.10000000000E+01 0.  0.
    9000005    1    3    3    0    0 -0.41607518811E+02  0.34362831024E+02 -0.27234231409E+03  0.27763884063E+03  0.10000000000E+01 0.  0.
<mgrwt>
<rscale>  0 0.12500957E+03</rscale>
<asrwt>0</asrwt>
<pdfrwt beam="2">  1        4 0.91397232E-01 0.12500957E+03</pdfrwt>
<pdfrwt beam="1">  1       -4 0.26716128E-02 0.12500957E+03</pdfrwt>
<totfact> 0.11072369E+03</totfact>
</mgrwt>
</event>
<event>
 5    1  0.1451195E-002  0.1249656E+03  0.7818608E-02  0.1235123E+00
          4   -1    0    0  501    0  0.00000000000E+00  0.00000000000E+00  0.42060890164E+03  0.42061081897E+03  0.12700000000E+01 0. -1.
         -4   -1    0    0    0  501 -0.00000000000E+00 -0.00000000000E+00 -0.92366329746E+01  0.93235341319E+01  0.12700000000E+01 0. -1.
         25    2    1    2    0    0  0.00000000000E+00  0.00000000000E+00  0.41137226866E+03  0.42993435310E+03  0.12496561349E+03 0.  0.
    9000005    1    3    3    0    0  0.26533221489E+01  0.46948830267E+02  0.64173600799E+02  0.79564337623E+02  0.10000000000E+01 0.  0.
    9000005    1    3    3    0    0 -0.26533221489E+01 -0.46948830267E+02  0.34719866786E+03  0.35037001548E+03  0.10000000000E+01 0.  0.
<mgrwt>
<rscale>  0 0.12496561E+03</rscale>
<asrwt>0</asrwt>
<pdfrwt beam="1">  1        4 0.10516332E+00 0.12496561E+03</pdfrwt>
<pdfrwt beam="2">  1       -4 0.23202606E-02 0.12496561E+03</pdfrwt>
<totfact> 0.99812085E+02</totfact>
</mgrwt>
</event>
<event>
 5    1  0.1451195E-002  0.1249960E+03  0.7818608E-02  0.1235075E+00
          4   -1    0    0  501    0  0.00000000000E+00  0.00000000000E+00  0.96426637434E+02  0.96435000425E+02  0.12700000000E+01 0.  1.
         -4   -1    0    0    0  501 -0.00000000000E+00 -0.00000000000E+00 -0.40487417698E+02  0.40507331335E+02  0.12700000000E+01 0.  1.
         25    2    1    2    0    0  0.00000000000E+00  0.00000000000E+00  0.55939219736E+02  0.13694233176E+03  0.12499602363E+03 0.  0.
    9000005    1    3    3    0    0  0.44870233101E+00 -0.57469658486E+02  0.54851119449E+02  0.79451924364E+02  0.10000000000E+01 0.  0.
    9000005    1    3    3    0    0 -0.44870233101E+00  0.57469658486E+02  0.10881002874E+01  0.57490407396E+02  0.10000000000E+01 0.  0.
<mgrwt>
<rscale>  0 0.12499602E+03</rscale>
<asrwt>0</asrwt>
<pdfrwt beam="1">  1        4 0.24110194E-01 0.12499602E+03</pdfrwt>
<pdfrwt beam="2">  1       -4 0.10125389E-01 0.12499602E+03</pdfrwt>
<totfact> 0.19199658E+03</totfact>
</mgrwt>
</event>
<event>
 5    1  0.1451195E-002  0.1249994E+03  0.7818608E-02  0.1235070E+00
          4   -1    0    0  501    0  0.00000000000E+00  0.00000000000E+00  0.22408816396E+03  0.22409176274E+03  0.12700000000E+01 0. -1.
         -4   -1    0    0    0  501 -0.00000000000E+00 -0.00000000000E+00 -0.17404709652E+02  0.17450983298E+02  0.12700000000E+01 0. -1.
         25    2    1    2    0    0  0.00000000000E+00  0.00000000000E+00  0.20668345431E+03  0.24154274603E+03  0.12499939151E+03 0.  0.
    9000005    1    3    3    0    0  0.22931286326E+02  0.56483358868E+02  0.76776410955E+02  0.98039945944E+02  0.10000000000E+01 0.  0.
    9000005    1    3    3    0    0 -0.22931286326E+02 -0.56483358868E+02  0.12990704335E+03  0.14350280009E+03  0.10000000000E+01 0.  0.
<mgrwt>
<rscale>  0 0.12499939E+03</rscale>
<asrwt>0</asrwt>
<pdfrwt beam="1">  1        4 0.56028274E-01 0.12499939E+03</pdfrwt>
<pdfrwt beam="2">  1       -4 0.43574116E-02 0.12499939E+03</pdfrwt>
<totfact> 0.14783656E+03</totfact>
</mgrwt>
</event>
<event>
 5    1  0.1451195E-002  0.1249884E+03  0.7818608E-02  0.1235087E+00
          4   -1    0    0  501    0  0.00000000000E+00  0.00000000000E+00  0.15713374512E+03  0.15713887729E+03  0.12700000000E+01 0.  1.
         -4   -1    0    0    0  501 -0.00000000000E+00 -0.00000000000E+00 -0.24833022126E+02  0.24865475823E+02  0.12700000000E+01 0.  1.
         25    2    1    2    0    0  0.00000000000E+00  0.00000000000E+00  0.13230072300E+03  0.18200435311E+03  0.12498841245E+03 0.  0.
    9000005    1    3    3    0    0 -0.54741223069E+02 -0.23440815499E+02  0.38580929618E+02  0.70961690118E+02  0.10000000000E+01 0.  0.
    9000005    1    3    3    0    0  0.54741223069E+02  0.23440815499E+02  0.93719793379E+02  0.11104266300E+03  0.10000000000E+01 0.  0.
<mgrwt>
<rscale>  0 0.12498841E+03</rscale>
<asrwt>0</asrwt>
<pdfrwt beam="1">  1        4 0.39288135E-01 0.12498841E+03</pdfrwt>
<pdfrwt beam="2">  1       -4 0.62129538E-02 0.12498841E+03</pdfrwt>
<totfact> 0.17073394E+03</totfact>
</mgrwt>
</event>
<event>
 5    1  0.1451195E-002  0.1249958E+03  0.7818608E-02  0.1235076E+00
          4   -1    0    0  501    0  0.00000000000E+00  0.00000000000E+00  0.56272830854E+02  0.56287160102E+02  0.12700000000E+01 0. -1.
         -4   -1    0    0    0  501 -0.00000000000E+00 -0.00000000000E+00 -0.69382597112E+02  0.69394219370E+02  0.12700000000E+01 0. -1.
         25    2    1    2    0    0  0.00000000000E+00  0.00000000000E+00 -0.13109766258E+02  0.12568137947E+03  0.12499577263E+03 0.  0.
    9000005    1    3    3    0    0  0.57843680243E+02 -0.14648311831E+02  0.12108214226E+02  0.60893950728E+02  0.10000000000E+01 0.  0.
    9000005    1    3    3    0    0 -0.57843680243E+02  0.14648311831E+02 -0.25217980484E+02  0.64787428744E+02  0.10000000000E+01 0.  0.
<mgrwt>
<rscale>  0 0.12499577E+03</rscale>
<asrwt>0</asrwt>
<pdfrwt beam="1">  1        4 0.14071452E-01 0.12499577E+03</pdfrwt>
<pdfrwt beam="2">  1       -4 0.17348893E-01 0.12499577E+03</pdfrwt>
<totfact> 0.19800106E+03</totfact>
</mgrwt>
</event>
<event>
 5    1  0.1451195E-002  0.1250090E+03  0.7818608E-02  0.1235055E+00
          4   -1    0    0  501    0  0.00000000000E+00  0.00000000000E+00  0.91538157082E+01  0.92414956592E+01  0.12700000000E+01 0.  1.
         -4   -1    0    0    0  501 -0.00000000000E+00 -0.00000000000E+00 -0.42467317391E+03  0.42467507290E+03  0.12700000000E+01 0.  1.
         25    2    1    2    0    0  0.00000000000E+00  0.00000000000E+00 -0.41551935820E+03  0.43391656856E+03  0.12500900538E+03 0.  0.
    9000005    1    3    3    0    0 -0.43414179775E+02 -0.41504262736E+02 -0.14779749271E+03  0.15953837683E+03  0.10000000000E+01 0.  0.
    9000005    1    3    3    0    0  0.43414179775E+02  0.41504262736E+02 -0.26772186549E+03  0.27437819172E+03  0.10000000000E+01 0.  0.
<mgrwt>
<rscale>  0 0.12500901E+03</rscale>
<asrwt>0</asrwt>
<pdfrwt beam="1">  1        4 0.22996527E-02 0.12500901E+03</pdfrwt>
<pdfrwt beam="2">  1       -4 0.10617942E+00 0.12500901E+03</pdfrwt>
<totfact> 0.98957642E+02</totfact>
</mgrwt>
</event>
<event>
 5    1  0.1451195E-002  0.1250000E+03  0.7818608E-02  0.1235069E+00
          4   -1    0    0  501    0  0.00000000000E+00  0.00000000000E+00  0.23959743971E+03  0.23960080554E+03  0.12700000000E+01 0. -1.
         -4   -1    0    0    0  501 -0.00000000000E+00 -0.00000000000E+00 -0.16275181977E+02  0.16324657681E+02  0.12700000000E+01 0. -1.
         25    2    1    2    0    0  0.00000000000E+00  0.00000000000E+00  0.22332225773E+03  0.25592546322E+03  0.12500004770E+03 0.  0.
    9000005    1    3    3    0    0 -0.31802786903E+02  0.19424990888E+02  0.89536054026E+01  0.38339464987E+02  0.10000000000E+01 0.  0.
    9000005    1    3    3    0    0  0.31802786903E+02 -0.19424990888E+02  0.21436865233E+03  0.21758599823E+03  0.10000000000E+01 0.  0.
<mgrwt>
<rscale>  0 0.12500005E+03</rscale>
<asrwt>0</asrwt>
<pdfrwt beam="1">  1        4 0.59905965E-01 0.12500005E+03</pdfrwt>
<pdfrwt beam="2">  1       -4 0.40754007E-02 0.12500005E+03</pdfrwt>
<totfact> 0.14302914E+03</totfact>
</mgrwt>
</event>
<event>
 5    1  0.1451195E-002  0.1249983E+03  0.7818608E-02  0.1235072E+00
         -4   -1    0    0    0  501 -0.00000000000E+00  0.00000000000E+00  0.14746439730E+02  0.14801026475E+02  0.12700000000E+01 0. -1.
          4   -1    0    0  501    0  0.00000000000E+00 -0.00000000000E+00 -0.26434185181E+03  0.26434490257E+03  0.12700000000E+01 0. -1.
         25    2    1    2    0    0  0.00000000000E+00  0.00000000000E+00 -0.24959541208E+03  0.27914592905E+03  0.12499831989E+03 0.  0.
    9000005    1    3    3    0    0 -0.96807151097E+01  0.89569123350E+01 -0.26120937773E+03  0.26154403365E+03  0.10000000000E+01 0.  0.
    9000005    1    3    3    0    0  0.96807151097E+01 -0.89569123350E+01  0.11613965650E+02  0.17601895402E+02  0.10000000000E+01 0.  0.
<mgrwt>
<rscale>  0 0.12499832E+03</rscale>
<asrwt>0</asrwt>
<pdfrwt beam="2">  1        4 0.66092652E-01 0.12499832E+03</pdfrwt>
<pdfrwt beam="1">  1       -4 0.36938155E-02 0.12499832E+03</pdfrwt>
<totfact> 0.13576863E+03</totfact>
</mgrwt>
</event>
<event>
 5    1  0.1451195E-002  0.1249979E+03  0.7818608E-02  0.1235073E+00
         -4   -1    0    0    0  501 -0.00000000000E+00  0.00000000000E+00  0.13429990956E+03  0.13430591427E+03  0.12700000000E+01 0.  1.
          4   -1    0    0  501    0  0.00000000000E+00 -0.00000000000E+00 -0.29064514983E+02  0.29092248644E+02  0.12700000000E+01 0.  1.
         25    2    1    2    0    0  0.00000000000E+00  0.00000000000E+00  0.10523539458E+03  0.16339816291E+03  0.12499788547E+03 0.  0.
    9000005    1    3    3    0    0  0.90308337215E+01  0.46439325981E+02  0.10598876676E+03  0.11607232933E+03  0.10000000000E+01 0.  0.
    9000005    1    3    3    0    0 -0.90308337215E+01 -0.46439325981E+02 -0.75337218439E+00  0.47325833589E+02  0.10000000000E+01 0.  0.
<mgrwt>
<rscale>  0 0.12499789E+03</rscale>
<asrwt>0</asrwt>
<pdfrwt beam="2">  1        4 0.72703462E-02 0.12499789E+03</pdfrwt>
<pdfrwt beam="1">  1       -4 0.33579194E-01 0.12499789E+03</pdfrwt>
<totfact> 0.17899874E+03</totfact>
</mgrwt>
</event>
<event>
 5    1  0.1451195E-002  0.1249974E+03  0.7818608E-02  0.1235073E+00
         -4   -1    0    0    0  501 -0.00000000000E+00  0.00000000000E+00  0.99212580464E+02  0.99220708637E+02  0.12700000000E+01 0.  1.
          4   -1    0    0  501    0  0.00000000000E+00 -0.00000000000E+00 -0.39350915267E+02  0.39371403738E+02  0.12700000000E+01 0.  1.
         25    2    1    2    0    0  0.00000000000E+00  0.00000000000E+00  0.59861665198E+02  0.13859211238E+03  0.12499741858E+03 0.  0.
    9000005    1    3    3    0    0 -0.66874266972E+01 -0.41027492073E+02  0.81665045263E+02  0.91641455682E+02  0.10000000000E+01 0.  0.
    9000005    1    3    3    0    0  0.66874266972E+01  0.41027492073E+02 -0.21803380066E+02  0.46950656693E+02  0.10000000000E+01 0.  0.
<mgrwt>
<rscale>  0 0.12499742E+03</rscale>
<asrwt>0</asrwt>
<pdfrwt beam="2">  1        4 0.98413059E-02 0.12499742E+03</pdfrwt>
<pdfrwt beam="1">  1       -4 0.24806722E-01 0.12499742E+03</pdfrwt>
<totfact> 0.19113751E+03</totfact>
</mgrwt>
</event>
<event>
 5    1  0.1451195E-002  0.1250015E+03  0.7818608E-02  0.1235067E+00
         -4   -1    0    0    0  501 -0.00000000000E+00  0.00000000000E+00  0.14415220631E+02  0.14471056833E+02  0.12700000000E+01 0. -1.
          4   -1    0    0  501    0  0.00000000000E+00 -0.00000000000E+00 -0.27040609821E+03  0.27040908056E+03  0.12700000000E+01 0. -1.
         25    2    1    2    0    0  0.00000000000E+00  0.00000000000E+00 -0.25599087758E+03  0.28488013739E+03  0.12500145310E+03 0.  0.
    9000005    1    3    3    0    0 -0.52855638379E+02  0.46825096122E+01 -0.52763913072E+02  0.74837657148E+02  0.10000000000E+01 0.  0.
    9000005    1    3    3    0    0  0.52855638379E+02 -0.46825096122E+01 -0.20322696450E+03  0.21004248024E+03  0.10000000000E+01 0.  0.
<mgrwt>
<rscale>  0 0.12500145E+03</rscale>
<asrwt>0</asrwt>
<pdfrwt beam="2">  1        4 0.67608860E-01 0.12500145E+03</pdfrwt>
<pdfrwt beam="1">  1       -4 0.36111584E-02 0.12500145E+03</pdfrwt>
<totfact> 0.13405210E+03</totfact>
</mgrwt>
</event>
<event>
 5    1  0.1451195E-002  0.1249988E+03  0.7818608E-02  0.1235071E+00
         -4   -1    0    0    0  501 -0.00000000000E+00  0.00000000000E+00  0.31856007957E+03  0.31856261111E+03  0.12700000000E+01 0.  1.
          4   -1    0    0  501    0  0.00000000000E+00 -0.00000000000E+00 -0.12226508021E+02  0.12292290201E+02  0.12700000000E+01 0.  1.
         25    2    1    2    0    0  0.00000000000E+00  0.00000000000E+00  0.30633357155E+03  0.33085490131E+03  0.12499883464E+03 0.  0.
    9000005    1    3    3    0    0 -0.60330323451E+01  0.29087950027E+02  0.29868824380E+03  0.30016357758E+03  0.10000000000E+01 0.  0.
    9000005    1    3    3    0    0  0.60330323451E+01 -0.29087950027E+02  0.76453277421E+01  0.30691323731E+02  0.10000000000E+01 0.  0.
<mgrwt>
<rscale>  0 0.12499883E+03</rscale>
<asrwt>0</asrwt>
<pdfrwt beam="2">  1        4 0.30651663E-02 0.12499883E+03</pdfrwt>
<pdfrwt beam="1">  1       -4 0.79648556E-01 0.12499883E+03</pdfrwt>
<totfact> 0.12148647E+03</totfact>
</mgrwt>
</event>
<event>
 5    1  0.1451195E-002  0.1250052E+03  0.7818608E-02  0.1235061E+00
         -4   -1    0    0    0  501 -0.00000000000E+00  0.00000000000E+00  0.15092082922E+02  0.15145423960E+02  0.12700000000E+01 0.  1.
          4   -1    0    0  501    0  0.00000000000E+00 -0.00000000000E+00 -0.25833779887E+03  0.25834092053E+03  0.12700000000E+01 0.  1.
         25    2    1    2    0    0  0.00000000000E+00  0.00000000000E+00 -0.24324571594E+03  0.27348634449E+03  0.12500520909E+03 0.  0.
    9000005    1    3    3    0    0  0.40935090315E+02 -0.35674838685E+02 -0.53935300248E+02  0.76540135531E+02  0.10000000000E+01 0.  0.
    9000005    1    3    3    0    0 -0.40935090315E+02  0.35674838685E+02 -0.18931041570E+03  0.19694620896E+03  0.10000000000E+01 0.  0.
<mgrwt>
<rscale>  0 0.12500521E+03</rscale>
<asrwt>0</asrwt>
<pdfrwt beam="2">  1        4 0.64591493E-01 0.12500521E+03</pdfrwt>
<pdfrwt beam="1">  1       -4 0.37800794E-02 0.12500521E+03</pdfrwt>
<totfact> 0.13746455E+03</totfact>
</mgrwt>
</event>
<event>
 5    1  0.1451195E-002  0.1250012E+03  0.7818608E-02  0.1235067E+00
          4   -1    0    0  501    0  0.00000000000E+00  0.00000000000E+00  0.11967607635E+03  0.11968281477E+03  0.12700000000E+01 0. -1.
         -4   -1    0    0    0  501 -0.00000000000E+00 -0.00000000000E+00 -0.32620798436E+02  0.32645511033E+02  0.12700000000E+01 0. -1.
         25    2    1    2    0    0  0.00000000000E+00  0.00000000000E+00  0.87055277918E+02  0.15232832580E+03  0.12500118971E+03 0.  0.
    9000005    1    3    3    0    0 -0.11218385087E+02 -0.48986104879E+02  0.88794449931E+02  0.10203403831E+03  0.10000000000E+01 0.  0.
    9000005    1    3    3    0    0  0.11218385087E+02  0.48986104879E+02 -0.17391720129E+01  0.50294287494E+02  0.10000000000E+01 0.  0.
<mgrwt>
<rscale>  0 0.12500119E+03</rscale>
<asrwt>0</asrwt>
<pdfrwt beam="1">  1        4 0.29922950E-01 0.12500119E+03</pdfrwt>
<pdfrwt beam="2">  1       -4 0.81591311E-02 0.12500119E+03</pdfrwt>
<totfact> 0.18424377E+03</totfact>
</mgrwt>
</event>
<event>
 5    1  0.1451195E-002  0.1249982E+03  0.7818608E-02  0.1235072E+00
         -4   -1    0    0    0  501 -0.00000000000E+00  0.00000000000E+00  0.47489753799E+02  0.47506732321E+02  0.12700000000E+01 0.  1.
          4   -1    0    0  501    0  0.00000000000E+00 -0.00000000000E+00 -0.82215659203E+02  0.82225467577E+02  0.12700000000E+01 0.  1.
         25    2    1    2    0    0  0.00000000000E+00  0.00000000000E+00 -0.34725905404E+02  0.12973219990E+03  0.12499822072E+03 0.  0.
    9000005    1    3    3    0    0 -0.25798365240E+01  0.26066685106E+02  0.41522116952E+02  0.49104112099E+02  0.10000000000E+01 0.  0.
    9000005    1    3    3    0    0  0.25798365240E+01 -0.26066685106E+02 -0.76248022356E+02  0.80628087799E+02  0.10000000000E+01 0.  0.
<mgrwt>
<rscale>  0 0.12499822E+03</rscale>
<asrwt>0</asrwt>
<pdfrwt beam="2">  1        4 0.20557263E-01 0.12499822E+03</pdfrwt>
<pdfrwt beam="1">  1       -4 0.11875787E-01 0.12499822E+03</pdfrwt>
<totfact> 0.19579603E+03</totfact>
</mgrwt>
</event>
<event>
 5    1  0.1451195E-002  0.1250047E+03  0.7818608E-02  0.1235062E+00
          4   -1    0    0  501    0  0.00000000000E+00  0.00000000000E+00  0.23300795774E+02  0.23335380513E+02  0.12700000000E+01 0.  1.
         -4   -1    0    0    0  501 -0.00000000000E+00 -0.00000000000E+00 -0.16749566721E+03  0.16750048189E+03  0.12700000000E+01 0.  1.
         25    2    1    2    0    0  0.00000000000E+00  0.00000000000E+00 -0.14419487143E+03  0.19083586240E+03  0.12500466164E+03 0.  0.
    9000005    1    3    3    0    0  0.20366382661E+02 -0.39669291142E+02 -0.13894045688E+03  0.14592427064E+03  0.10000000000E+01 0.  0.
    9000005    1    3    3    0    0 -0.20366382661E+02  0.39669291142E+02 -0.52544145489E+01  0.44911591763E+02  0.10000000000E+01 0.  0.
<mgrwt>
<rscale>  0 0.12500466E+03</rscale>
<asrwt>0</asrwt>
<pdfrwt beam="1">  1        4 0.58301244E-02 0.12500466E+03</pdfrwt>
<pdfrwt beam="2">  1       -4 0.41878838E-01 0.12500466E+03</pdfrwt>
<totfact> 0.16693885E+03</totfact>
</mgrwt>
</event>
<event>
 5    1  0.1451195E-002  0.1249981E+03  0.7818608E-02  0.1235072E+00
         -4   -1    0    0    0  501 -0.00000000000E+00  0.00000000000E+00  0.27172007070E+02  0.27201670321E+02  0.12700000000E+01 0. -1.
          4   -1    0    0  501    0  0.00000000000E+00 -0.00000000000E+00 -0.14364493048E+03  0.14365054456E+03  0.12700000000E+01 0. -1.
         25    2    1    2    0    0  0.00000000000E+00  0.00000000000E+00 -0.11647292341E+03  0.17085221488E+03  0.12499814975E+03 0.  0.
    9000005    1    3    3    0    0  0.70209394341E+01  0.51634286962E+02 -0.11090632817E+02  0.53285976738E+02  0.10000000000E+01 0.  0.
    9000005    1    3    3    0    0 -0.70209394341E+01 -0.51634286962E+02 -0.10538229059E+03  0.11756623814E+03  0.10000000000E+01 0.  0.
<mgrwt>
<rscale>  0 0.12499815E+03</rscale>
<asrwt>0</asrwt>
<pdfrwt beam="2">  1        4 0.35915640E-01 0.12499815E+03</pdfrwt>
<pdfrwt beam="1">  1       -4 0.67974118E-02 0.12499815E+03</pdfrwt>
<totfact> 0.17559431E+03</totfact>
</mgrwt>
</event>
<event>
 5    1  0.1451195E-002  0.1250087E+03  0.7818608E-02  0.1235056E+00
          4   -1    0    0  501    0  0.00000000000E+00  0.00000000000E+00  0.27014831553E+03  0.27015130072E+03  0.12700000000E+01 0.  1.
         -4   -1    0    0    0  501 -0.00000000000E+00 -0.00000000000E+00 -0.14430698721E+02  0.14486475264E+02  0.12700000000E+01 0.  1.
         25    2    1    2    0    0  0.00000000000E+00  0.00000000000E+00  0.25571761681E+03  0.28463777599E+03  0.12500865559E+03 0.  0.
    9000005    1    3    3    0    0  0.35884294087E+02 -0.29052355914E+02  0.22376302721E+03  0.22847891433E+03  0.10000000000E+01 0.  0.
    9000005    1    3    3    0    0 -0.35884294087E+02  0.29052355914E+02  0.31954589592E+02  0.56158861654E+02  0.10000000000E+01 0.  0.
<mgrwt>
<rscale>  0 0.12500866E+03</rscale>
<asrwt>0</asrwt>
<pdfrwt beam="1">  1        4 0.67544427E-01 0.12500866E+03</pdfrwt>
<pdfrwt beam="2">  1       -4 0.36150197E-02 0.12500866E+03</pdfrwt>
<totfact> 0.13410139E+03</totfact>
</mgrwt>
</event>
<event>
 5    1  0.1451195E-002  0.1250020E+03  0.7818608E-02  0.1235066E+00
         -4   -1    0    0    0  501 -0.00000000000E+00  0.00000000000E+00  0.10739479995E+04  0.10739487504E+04  0.12700000000E+01 0.  1.
          4   -1    0    0  501    0  0.00000000000E+00 -0.00000000000E+00 -0.35257663428E+01  0.37475229557E+01  0.12700000000E+01 0.  1.
         25    2    1    2    0    0  0.00000000000E+00  0.00000000000E+00  0.10704222331E+04  0.10776962733E+04  0.12500200163E+03 0.  0.
    9000005    1    3    3    0    0  0.37990708538E+01  0.58801917913E+02  0.71466879192E+03  0.71709454093E+03  0.10000000000E+01 0.  0.
    9000005    1    3    3    0    0 -0.37990708538E+01 -0.58801917913E+02  0.35575344120E+03  0.36060173240E+03  0.10000000000E+01 0.  0.
<mgrwt>
<rscale>  0 0.12500200E+03</rscale>
<asrwt>0</asrwt>
<pdfrwt beam="2">  1        4 0.90925449E-03 0.12500200E+03</pdfrwt>
<pdfrwt beam="1">  1       -4 0.26851497E+00 0.12500200E+03</pdfrwt>
<totfact> 0.32125646E+02</totfact>
</mgrwt>
</event>
<event>
 5    1  0.1451195E-002  0.1249778E+03  0.7818608E-02  0.1235104E+00
          4   -1    0    0  501    0  0.00000000000E+00  0.00000000000E+00  0.11064337339E+02  0.11136986161E+02  0.12700000000E+01 0.  1.
         -4   -1    0    0    0  501 -0.00000000000E+00 -0.00000000000E+00 -0.35169479761E+03  0.35169709064E+03  0.12700000000E+01 0.  1.
         25    2    1    2    0    0  0.00000000000E+00  0.00000000000E+00 -0.34063046027E+03  0.36283407680E+03  0.12497782533E+03 0.  0.
    9000005    1    3    3    0    0  0.28850765831E+01  0.60529338575E+02 -0.12612000652E+03  0.13992633969E+03  0.10000000000E+01 0.  0.
    9000005    1    3    3    0    0 -0.28850765831E+01 -0.60529338575E+02 -0.21451045375E+03  0.22290773711E+03  0.10000000000E+01 0.  0.
<mgrwt>
<rscale>  0 0.12497783E+03</rscale>
<asrwt>0</asrwt>
<pdfrwt beam="1">  1        4 0.27754532E-02 0.12497783E+03</pdfrwt>
<pdfrwt beam="2">  1       -4 0.87933030E-01 0.12497783E+03</pdfrwt>
<totfact> 0.11382858E+03</totfact>
</mgrwt>
</event>
<event>
 5    1  0.1451195E-002  0.1249949E+03  0.7818608E-02  0.1235077E+00
          4   -1    0    0  501    0  0.00000000000E+00  0.00000000000E+00  0.10717440554E+03  0.10718192993E+03  0.12700000000E+01 0. -1.
         -4   -1    0    0    0  501 -0.00000000000E+00 -0.00000000000E+00 -0.36424732377E+02  0.36446865829E+02  0.12700000000E+01 0. -1.
         25    2    1    2    0    0  0.00000000000E+00  0.00000000000E+00  0.70749673164E+02  0.14362879576E+03  0.12499485877E+03 0.  0.
    9000005    1    3    3    0    0 -0.37717702892E+02 -0.49762556730E+02  0.32562173457E+02  0.70428916675E+02  0.10000000000E+01 0.  0.
    9000005    1    3    3    0    0  0.37717702892E+02  0.49762556730E+02  0.38187499707E+02  0.73199879082E+02  0.10000000000E+01 0.  0.
<mgrwt>
<rscale>  0 0.12499486E+03</rscale>
<asrwt>0</asrwt>
<pdfrwt beam="1">  1        4 0.26797308E-01 0.12499486E+03</pdfrwt>
<pdfrwt beam="2">  1       -4 0.91098904E-02 0.12499486E+03</pdfrwt>
<totfact> 0.18858471E+03</totfact>
</mgrwt>
</event>
<event>
 5    1  0.1451195E-002  0.1249959E+03  0.7818608E-02  0.1235076E+00
          4   -1    0    0  501    0  0.00000000000E+00  0.00000000000E+00  0.22030618418E+02  0.22067193929E+02  0.12700000000E+01 0. -1.
         -4   -1    0    0    0  501 -0.00000000000E+00 -0.00000000000E+00 -0.17711252591E+03  0.17711707917E+03  0.12700000000E+01 0. -1.
         25    2    1    2    0    0  0.00000000000E+00  0.00000000000E+00 -0.15508190749E+03  0.19918427310E+03  0.12499590641E+03 0.  0.
    9000005    1    3    3    0    0 -0.54740371215E+02  0.20877671390E+02 -0.11218352624E+03  0.12656432737E+03  0.10000000000E+01 0.  0.
    9000005    1    3    3    0    0  0.54740371215E+02 -0.20877671390E+02 -0.42898381250E+02  0.72619945726E+02  0.10000000000E+01 0.  0.
<mgrwt>
<rscale>  0 0.12499591E+03</rscale>
<asrwt>0</asrwt>
<pdfrwt beam="1">  1        4 0.55127962E-02 0.12499591E+03</pdfrwt>
<pdfrwt beam="2">  1       -4 0.44283268E-01 0.12499591E+03</pdfrwt>
<totfact> 0.16356305E+03</totfact>
</mgrwt>
</event>
<event>
 5    1  0.1451195E-002  0.1249997E+03  0.7818608E-02  0.1235070E+00
         -4   -1    0    0    0  501 -0.00000000000E+00  0.00000000000E+00  0.90441258223E+01  0.91328589111E+01  0.12700000000E+01 0.  1.
          4   -1    0    0  501    0  0.00000000000E+00 -0.00000000000E+00 -0.42970992132E+03  0.42971179804E+03  0.12700000000E+01 0.  1.
         25    2    1    2    0    0  0.00000000000E+00  0.00000000000E+00 -0.42066579550E+03  0.43884465696E+03  0.12499968576E+03 0.  0.
    9000005    1    3    3    0    0 -0.22394736099E+02 -0.52744378419E+02 -0.29787261625E+03  0.30333576969E+03  0.10000000000E+01 0.  0.
    9000005    1    3    3    0    0  0.22394736099E+02  0.52744378419E+02 -0.12279317924E+03  0.13550888727E+03  0.10000000000E+01 0.  0.
<mgrwt>
<rscale>  0 0.12499969E+03</rscale>
<asrwt>0</asrwt>
<pdfrwt beam="2">  1        4 0.10743874E+00 0.12499969E+03</pdfrwt>
<pdfrwt beam="1">  1       -4 0.22723591E-02 0.12499969E+03</pdfrwt>
<totfact> 0.98055597E+02</totfact>
</mgrwt>
</event>
<event>
 5    1  0.1451195E-002  0.1250003E+03  0.7818608E-02  0.1235069E+00
          4   -1    0    0  501    0  0.00000000000E+00  0.00000000000E+00  0.53530521392E+02  0.53545584510E+02  0.12700000000E+01 0.  1.
         -4   -1    0    0    0  501 -0.00000000000E+00 -0.00000000000E+00 -0.72941825217E+02  0.72952880450E+02  0.12700000000E+01 0.  1.
         25    2    1    2    0    0  0.00000000000E+00  0.00000000000E+00 -0.19411303825E+02  0.12649846496E+03  0.12500025168E+03 0.  0.
    9000005    1    3    3    0    0  0.26279520392E+00 -0.58973804162E+02  0.11213027029E+02  0.60039242282E+02  0.10000000000E+01 0.  0.
    9000005    1    3    3    0    0 -0.26279520392E+00  0.58973804162E+02 -0.30624330855E+02  0.66459222678E+02  0.10000000000E+01 0.  0.
<mgrwt>
<rscale>  0 0.12500025E+03</rscale>
<asrwt>0</asrwt>
<pdfrwt beam="1">  1        4 0.13385895E-01 0.12500025E+03</pdfrwt>
<pdfrwt beam="2">  1       -4 0.18238721E-01 0.12500025E+03</pdfrwt>
<totfact> 0.19753891E+03</totfact>
</mgrwt>
</event>
<event>
 5    1  0.1451195E-002  0.1250001E+03  0.7818608E-02  0.1235069E+00
         -4   -1    0    0    0  501 -0.00000000000E+00  0.00000000000E+00  0.13583931664E+03  0.13584525330E+03  0.12700000000E+01 0. -1.
          4   -1    0    0  501    0  0.00000000000E+00 -0.00000000000E+00 -0.28735851387E+02  0.28763901942E+02  0.12700000000E+01 0. -1.
         25    2    1    2    0    0  0.00000000000E+00  0.00000000000E+00  0.10710346525E+03  0.16460915524E+03  0.12500008688E+03 0.  0.
    9000005    1    3    3    0    0 -0.40531654554E+02 -0.22287099301E+02 -0.17839510212E+01  0.46300240792E+02  0.10000000000E+01 0.  0.
    9000005    1    3    3    0    0  0.40531654554E+02  0.22287099301E+02  0.10888741627E+03  0.11830891445E+03  0.10000000000E+01 0.  0.
<mgrwt>
<rscale>  0 0.12500009E+03</rscale>
<asrwt>0</asrwt>
<pdfrwt beam="2">  1        4 0.71882113E-02 0.12500009E+03</pdfrwt>
<pdfrwt beam="1">  1       -4 0.33964077E-01 0.12500009E+03</pdfrwt>
<totfact> 0.17842938E+03</totfact>
</mgrwt>
</event>
<event>
 5    1  0.1451195E-002  0.1249978E+03  0.7818608E-02  0.1235073E+00
         -4   -1    0    0    0  501 -0.00000000000E+00  0.00000000000E+00  0.97458706679E+02  0.97466981115E+02  0.12700000000E+01 0. -1.
          4   -1    0    0  501    0  0.00000000000E+00 -0.00000000000E+00 -0.40059628286E+02  0.40079754470E+02  0.12700000000E+01 0. -1.
         25    2    1    2    0    0  0.00000000000E+00  0.00000000000E+00  0.57399078393E+02  0.13754673559E+03  0.12499780106E+03 0.  0.
    9000005    1    3    3    0    0  0.35623874939E+02 -0.16115587250E+02  0.82341197973E+02  0.91158353988E+02  0.10000000000E+01 0.  0.
    9000005    1    3    3    0    0 -0.35623874939E+02  0.16115587250E+02 -0.24942119580E+02  0.46388381597E+02  0.10000000000E+01 0.  0.
<mgrwt>
<rscale>  0 0.12499780E+03</rscale>
<asrwt>0</asrwt>
<pdfrwt beam="2">  1        4 0.10018457E-01 0.12499780E+03</pdfrwt>
<pdfrwt beam="1">  1       -4 0.24368226E-01 0.12499780E+03</pdfrwt>
<totfact> 0.19167542E+03</totfact>
</mgrwt>
</event>
<event>
 5    1  0.1451195E-002  0.1249919E+03  0.7818608E-02  0.1235082E+00
          4   -1    0    0  501    0  0.00000000000E+00  0.00000000000E+00  0.90271628549E+02  0.90280561700E+02  0.12700000000E+01 0.  1.
         -4   -1    0    0    0  501 -0.00000000000E+00 -0.00000000000E+00 -0.43246181318E+02  0.43264825188E+02  0.12700000000E+01 0.  1.
         25    2    1    2    0    0  0.00000000000E+00  0.00000000000E+00  0.47025447231E+02  0.13354538689E+03  0.12499191043E+03 0.  0.
    9000005    1    3    3    0    0 -0.16999575330E+02  0.54771605659E+02 -0.30014093618E+01  0.57436249930E+02  0.10000000000E+01 0.  0.
    9000005    1    3    3    0    0  0.16999575330E+02 -0.54771605659E+02  0.50026856593E+02  0.76109136958E+02  0.10000000000E+01 0.  0.
<mgrwt>
<rscale>  0 0.12499191E+03</rscale>
<asrwt>0</asrwt>
<pdfrwt beam="1">  1        4 0.22571354E-01 0.12499191E+03</pdfrwt>
<pdfrwt beam="2">  1       -4 0.10814993E-01 0.12499191E+03</pdfrwt>
<totfact> 0.19379260E+03</totfact>
</mgrwt>
</event>
<event>
 5    1  0.1451195E-002  0.1250021E+03  0.7818608E-02  0.1235066E+00
          4   -1    0    0  501    0  0.00000000000E+00  0.00000000000E+00  0.40754363392E+02  0.40774146656E+02  0.12700000000E+01 0. -1.
         -4   -1    0    0    0  501 -0.00000000000E+00 -0.00000000000E+00 -0.95804586484E+02  0.95813003770E+02  0.12700000000E+01 0. -1.
         25    2    1    2    0    0  0.00000000000E+00  0.00000000000E+00 -0.55050223092E+02  0.13658715043E+03  0.12500209038E+03 0.  0.
    9000005    1    3    3    0    0  0.27888036189E+01  0.59146404632E+01  0.40384864226E+02  0.40923069973E+02  0.10000000000E+01 0.  0.
    9000005    1    3    3    0    0 -0.27888036189E+01 -0.59146404632E+01 -0.95435087318E+02  0.95664080453E+02  0.10000000000E+01 0.  0.
<mgrwt>
<rscale>  0 0.12500209E+03</rscale>
<asrwt>0</asrwt>
<pdfrwt beam="1">  1        4 0.10192116E-01 0.12500209E+03</pdfrwt>
<pdfrwt beam="2">  1       -4 0.23954671E-01 0.12500209E+03</pdfrwt>
<totfact> 0.19215387E+03</totfact>
</mgrwt>
</event>
<event>
 5    1  0.1451195E-002  0.1250068E+03  0.7818608E-02  0.1235059E+00
         -4   -1    0    0    0  501 -0.00000000000E+00  0.00000000000E+00  0.19700434857E+02  0.19741328059E+02  0.12700000000E+01 0.  1.
          4   -1    0    0  501    0  0.00000000000E+00 -0.00000000000E+00 -0.19805537440E+03  0.19805944620E+03  0.12700000000E+01 0.  1.
         25    2    1    2    0    0  0.00000000000E+00  0.00000000000E+00 -0.17835493955E+03  0.21780077426E+03  0.12500677105E+03 0.  0.
    9000005    1    3    3    0    0  0.48269996857E+02 -0.37887113519E+02 -0.10981097610E+03  0.12579696514E+03  0.10000000000E+01 0.  0.
    9000005    1    3    3    0    0 -0.48269996857E+02  0.37887113519E+02 -0.68543963452E+02  0.92003809123E+02  0.10000000000E+01 0.  0.
<mgrwt>
<rscale>  0 0.12500677E+03</rscale>
<asrwt>0</asrwt>
<pdfrwt beam="2">  1        4 0.49519458E-01 0.12500677E+03</pdfrwt>
<pdfrwt beam="1">  1       -4 0.49307299E-02 0.12500677E+03</pdfrwt>
<totfact> 0.15630798E+03</totfact>
</mgrwt>
</event>
<event>
 5    1  0.1451195E-002  0.1249969E+03  0.7818608E-02  0.1235074E+00
          4   -1    0    0  501    0  0.00000000000E+00  0.00000000000E+00  0.10012510089E+02  0.10092732944E+02  0.12700000000E+01 0.  1.
         -4   -1    0    0    0  501 -0.00000000000E+00 -0.00000000000E+00 -0.38847940298E+03  0.38848147889E+03  0.12700000000E+01 0.  1.
         25    2    1    2    0    0  0.00000000000E+00  0.00000000000E+00 -0.37846689289E+03  0.39857421183E+03  0.12499685325E+03 0.  0.
    9000005    1    3    3    0    0  0.59025325083E+01 -0.53279587391E+02 -0.29164395514E+03  0.29653119717E+03  0.10000000000E+01 0.  0.
    9000005    1    3    3    0    0 -0.59025325083E+01  0.53279587391E+02 -0.86822937748E+02  0.10204301466E+03  0.10000000000E+01 0.  0.
<mgrwt>
<rscale>  0 0.12499685E+03</rscale>
<asrwt>0</asrwt>
<pdfrwt beam="1">  1        4 0.25134162E-02 0.12499685E+03</pdfrwt>
<pdfrwt beam="2">  1       -4 0.97130088E-01 0.12499685E+03</pdfrwt>
<totfact> 0.10599391E+03</totfact>
</mgrwt>
</event>
<event>
 5    1  0.1451195E-002  0.1250086E+03  0.7818608E-02  0.1235056E+00
         -4   -1    0    0    0  501 -0.00000000000E+00  0.00000000000E+00  0.16673023970E+03  0.16673507648E+03  0.12700000000E+01 0.  1.
          4   -1    0    0  501    0  0.00000000000E+00 -0.00000000000E+00 -0.23409404587E+02  0.23443829105E+02  0.12700000000E+01 0.  1.
         25    2    1    2    0    0  0.00000000000E+00  0.00000000000E+00  0.14332083511E+03  0.19017890559E+03  0.12500861712E+03 0.  0.
    9000005    1    3    3    0    0 -0.42281449978E+02  0.22941128908E+02  0.13235680566E+03  0.14083089297E+03  0.10000000000E+01 0.  0.
    9000005    1    3    3    0    0  0.42281449978E+02 -0.22941128908E+02  0.10964029444E+02  0.49348012620E+02  0.10000000000E+01 0.  0.
<mgrwt>
<rscale>  0 0.12500862E+03</rscale>
<asrwt>0</asrwt>
<pdfrwt beam="2">  1        4 0.58572589E-02 0.12500862E+03</pdfrwt>
<pdfrwt beam="1">  1       -4 0.41687467E-01 0.12500862E+03</pdfrwt>
<totfact> 0.16719661E+03</totfact>
</mgrwt>
</event>
<event>
 5    1  0.1451195E-002  0.1250012E+03  0.7818608E-02  0.1235067E+00
          4   -1    0    0  501    0  0.00000000000E+00  0.00000000000E+00  0.10303132893E+03  0.10303915587E+03  0.12700000000E+01 0.  1.
         -4   -1    0    0    0  501 -0.00000000000E+00 -0.00000000000E+00 -0.37894017947E+02  0.37915293698E+02  0.12700000000E+01 0.  1.
         25    2    1    2    0    0  0.00000000000E+00  0.00000000000E+00  0.65137310986E+02  0.14095444956E+03  0.12500115027E+03 0.  0.
    9000005    1    3    3    0    0  0.56023800900E+02  0.27560354948E+02  0.35569592312E+02  0.71864005799E+02  0.10000000000E+01 0.  0.
    9000005    1    3    3    0    0 -0.56023800900E+02 -0.27560354948E+02  0.29567718673E+02  0.69090443766E+02  0.10000000000E+01 0.  0.
<mgrwt>
<rscale>  0 0.12500115E+03</rscale>
<asrwt>0</asrwt>
<pdfrwt beam="1">  1        4 0.25761470E-01 0.12500115E+03</pdfrwt>
<pdfrwt beam="2">  1       -4 0.94771424E-02 0.12500115E+03</pdfrwt>
<totfact> 0.18991111E+03</totfact>
</mgrwt>
</event>
<event>
 5    1  0.1451195E-002  0.1250000E+03  0.7818608E-02  0.1235069E+00
         -4   -1    0    0    0  501 -0.00000000000E+00  0.00000000000E+00  0.20994738679E+03  0.20995122796E+03  0.12700000000E+01 0. -1.
          4   -1    0    0  501    0  0.00000000000E+00 -0.00000000000E+00 -0.18580162112E+02  0.18623515353E+02  0.12700000000E+01 0. -1.
         25    2    1    2    0    0  0.00000000000E+00  0.00000000000E+00  0.19136722468E+03  0.22857474331E+03  0.12499999439E+03 0.  0.
    9000005    1    3    3    0    0  0.78897906756E+01  0.19319419534E+02  0.20339658716E+03  0.20446677098E+03  0.10000000000E+01 0.  0.
    9000005    1    3    3    0    0 -0.78897906756E+01 -0.19319419534E+02 -0.12029362480E+02  0.24107972327E+02  0.10000000000E+01 0.  0.
<mgrwt>
<rscale>  0 0.12499999E+03</rscale>
<asrwt>0</asrwt>
<pdfrwt beam="2">  1        4 0.46509399E-02 0.12499999E+03</pdfrwt>
<pdfrwt beam="1">  1       -4 0.52492745E-01 0.12499999E+03</pdfrwt>
<totfact> 0.15238375E+03</totfact>
</mgrwt>
</event>
<event>
 5    1  0.1451195E-002  0.1249972E+03  0.7818608E-02  0.1235074E+00
         -4   -1    0    0    0  501 -0.00000000000E+00  0.00000000000E+00  0.19828498755E+03  0.19828905463E+03  0.12700000000E+01 0.  1.
          4   -1    0    0  501    0  0.00000000000E+00 -0.00000000000E+00 -0.19674544245E+02  0.19715491149E+02  0.12700000000E+01 0.  1.
         25    2    1    2    0    0  0.00000000000E+00  0.00000000000E+00  0.17861044330E+03  0.21800454578E+03  0.12499716606E+03 0.  0.
    9000005    1    3    3    0    0  0.25420389910E+02 -0.87043619790E+01  0.18770435122E+03  0.18962037234E+03  0.10000000000E+01 0.  0.
    9000005    1    3    3    0    0 -0.25420389910E+02  0.87043619790E+01 -0.90939079158E+01  0.28384173439E+02  0.10000000000E+01 0.  0.
<mgrwt>
<rscale>  0 0.12499717E+03</rscale>
<asrwt>0</asrwt>
<pdfrwt beam="2">  1        4 0.49242629E-02 0.12499717E+03</pdfrwt>
<pdfrwt beam="1">  1       -4 0.49576873E-01 0.12499717E+03</pdfrwt>
<totfact> 0.15626645E+03</totfact>
</mgrwt>
</event>
<event>
 5    1  0.1451195E-002  0.1250015E+03  0.7818608E-02  0.1235067E+00
         -4   -1    0    0    0  501 -0.00000000000E+00  0.00000000000E+00  0.23052293789E+02  0.23087250788E+02  0.12700000000E+01 0.  1.
          4   -1    0    0  501    0  0.00000000000E+00 -0.00000000000E+00 -0.16929004915E+03  0.16929481280E+03  0.12700000000E+01 0.  1.
         25    2    1    2    0    0  0.00000000000E+00  0.00000000000E+00 -0.14623775536E+03  0.19238206358E+03  0.12500150918E+03 0.  0.
    9000005    1    3    3    0    0  0.17406563670E+02 -0.19656437973E+02 -0.16039712435E+03  0.16253492398E+03  0.10000000000E+01 0.  0.
    9000005    1    3    3    0    0 -0.17406563670E+02  0.19656437973E+02  0.14159368992E+02  0.29847139609E+02  0.10000000000E+01 0.  0.
<mgrwt>
<rscale>  0 0.12500151E+03</rscale>
<asrwt>0</asrwt>
<pdfrwt beam="2">  1        4 0.42327474E-01 0.12500151E+03</pdfrwt>
<pdfrwt beam="1">  1       -4 0.57680390E-02 0.12500151E+03</pdfrwt>
<totfact> 0.16631109E+03</totfact>
</mgrwt>
</event>
<event>
 5    1  0.1451195E-002  0.1250000E+03  0.7818608E-02  0.1235069E+00
         -4   -1    0    0    0  501 -0.00000000000E+00  0.00000000000E+00  0.79412857799E+02  0.79423012306E+02  0.12700000000E+01 0.  1.
          4   -1    0    0  501    0  0.00000000000E+00 -0.00000000000E+00 -0.49167675170E+02  0.49184074471E+02  0.12700000000E+01 0.  1.
         25    2    1    2    0    0  0.00000000000E+00  0.00000000000E+00  0.30245182629E+02  0.12860708678E+03  0.12500004679E+03 0.  0.
    9000005    1    3    3    0    0  0.15606665409E+02 -0.42486909065E+02  0.59453614482E+02  0.74729095552E+02  0.10000000000E+01 0.  0.
    9000005    1    3    3    0    0 -0.15606665409E+02  0.42486909065E+02 -0.29208431853E+02  0.53877991225E+02  0.10000000000E+01 0.  0.
<mgrwt>
<rscale>  0 0.12500005E+03</rscale>
<asrwt>0</asrwt>
<pdfrwt beam="2">  1        4 0.12295238E-01 0.12500005E+03</pdfrwt>
<pdfrwt beam="1">  1       -4 0.19856533E-01 0.12500005E+03</pdfrwt>
<totfact> 0.19639545E+03</totfact>
</mgrwt>
</event>
<event>
 5    1  0.1451195E-002  0.1250033E+03  0.7818608E-02  0.1235064E+00
         -4   -1    0    0    0  501 -0.00000000000E+00  0.00000000000E+00  0.42296865917E+03  0.42297056580E+03  0.12700000000E+01 0. -1.
          4   -1    0    0  501    0  0.00000000000E+00 -0.00000000000E+00 -0.91902146223E+01  0.92775505821E+01  0.12700000000E+01 0. -1.
         25    2    1    2    0    0  0.00000000000E+00  0.00000000000E+00  0.41377844454E+03  0.43224811639E+03  0.12500333176E+03 0.  0.
    9000005    1    3    3    0    0 -0.58533855378E+01 -0.44293189168E+02  0.35798408156E+03  0.36076273558E+03  0.10000000000E+01 0.  0.
    9000005    1    3    3    0    0  0.58533855378E+01  0.44293189168E+02  0.55794362979E+02  0.71485380807E+02  0.10000000000E+01 0.  0.
<mgrwt>
<rscale>  0 0.12500333E+03</rscale>
<asrwt>0</asrwt>
<pdfrwt beam="2">  1        4 0.23087089E-02 0.12500333E+03</pdfrwt>
<pdfrwt beam="1">  1       -4 0.10575332E+00 0.12500333E+03</pdfrwt>
<totfact> 0.99286032E+02</totfact>
</mgrwt>
</event>
<event>
 5    1  0.1451195E-002  0.1249988E+03  0.7818608E-02  0.1235071E+00
         -4   -1    0    0    0  501 -0.00000000000E+00  0.00000000000E+00  0.57240543637E+03  0.57240684525E+03  0.12700000000E+01 0. -1.
          4   -1    0    0  501    0  0.00000000000E+00 -0.00000000000E+00 -0.67636270898E+01  0.68818276213E+01  0.12700000000E+01 0. -1.
         25    2    1    2    0    0  0.00000000000E+00  0.00000000000E+00  0.56564180928E+03  0.57928867287E+03  0.12499884043E+03 0.  0.
    9000005    1    3    3    0    0 -0.32098231922E+02 -0.41302881885E+02  0.44126920102E+03  0.44435991304E+03  0.10000000000E+01 0.  0.
    9000005    1    3    3    0    0  0.32098231922E+02  0.41302881885E+02  0.12437260826E+03  0.13492875983E+03  0.10000000000E+01 0.  0.
<mgrwt>
<rscale>  0 0.12499884E+03</rscale>
<asrwt>0</asrwt>
<pdfrwt beam="2">  1        4 0.17058581E-02 0.12499884E+03</pdfrwt>
<pdfrwt beam="1">  1       -4 0.14311630E+00 0.12499884E+03</pdfrwt>
<totfact> 0.76174245E+02</totfact>
</mgrwt>
</event>
<event>
 5    1  0.1451195E-002  0.1249906E+03  0.7818608E-02  0.1235084E+00
          4   -1    0    0  501    0  0.00000000000E+00  0.00000000000E+00  0.29566646260E+02  0.29593909358E+02  0.12700000000E+01 0. -1.
         -4   -1    0    0    0  501 -0.00000000000E+00 -0.00000000000E+00 -0.13200577124E+03  0.13201188031E+03  0.12700000000E+01 0. -1.
         25    2    1    2    0    0  0.00000000000E+00  0.00000000000E+00 -0.10243912498E+03  0.16160578966E+03  0.12499062735E+03 0.  0.
    9000005    1    3    3    0    0 -0.37588496919E+02  0.47390585957E+02 -0.30944600398E+02  0.67950945775E+02  0.10000000000E+01 0.  0.
    9000005    1    3    3    0    0  0.37588496919E+02 -0.47390585957E+02 -0.71494524587E+02  0.93654843889E+02  0.10000000000E+01 0.  0.
<mgrwt>
<rscale>  0 0.12499063E+03</rscale>
<asrwt>0</asrwt>
<pdfrwt beam="1">  1        4 0.73958334E-02 0.12499063E+03</pdfrwt>
<pdfrwt beam="2">  1       -4 0.33005613E-01 0.12499063E+03</pdfrwt>
<totfact> 0.17986362E+03</totfact>
</mgrwt>
</event>
<event>
 5    1  0.1451195E-002  0.1249997E+03  0.7818608E-02  0.1235070E+00
         -4   -1    0    0    0  501 -0.00000000000E+00  0.00000000000E+00  0.25158168871E+02  0.25190203670E+02  0.12700000000E+01 0. -1.
          4   -1    0    0  501    0  0.00000000000E+00 -0.00000000000E+00 -0.15513336532E+03  0.15513856366E+03  0.12700000000E+01 0. -1.
         25    2    1    2    0    0  0.00000000000E+00  0.00000000000E+00 -0.12997519645E+03  0.18032876733E+03  0.12499965054E+03 0.  0.
    9000005    1    3    3    0    0 -0.40640618397E+02  0.47223912834E+02 -0.71976613903E+02  0.95201842188E+02  0.10000000000E+01 0.  0.
    9000005    1    3    3    0    0  0.40640618397E+02 -0.47223912834E+02 -0.57998582544E+02  0.85126925142E+02  0.10000000000E+01 0.  0.
<mgrwt>
<rscale>  0 0.12499965E+03</rscale>
<asrwt>0</asrwt>
<pdfrwt beam="2">  1        4 0.38787993E-01 0.12499965E+03</pdfrwt>
<pdfrwt beam="1">  1       -4 0.62941968E-02 0.12499965E+03</pdfrwt>
<totfact> 0.17141132E+03</totfact>
</mgrwt>
</event>
<event>
 5    1  0.1451195E-002  0.1249916E+03  0.7818608E-02  0.1235082E+00
         -4   -1    0    0    0  501 -0.00000000000E+00  0.00000000000E+00  0.48749924547E+03  0.48750089973E+03  0.12700000000E+01 0. -1.
          4   -1    0    0  501    0  0.00000000000E+00 -0.00000000000E+00 -0.79597490633E+01  0.80604283479E+01  0.12700000000E+01 0. -1.
         25    2    1    2    0    0  0.00000000000E+00  0.00000000000E+00  0.47953949641E+03  0.49556132808E+03  0.12499160479E+03 0.  0.
    9000005    1    3    3    0    0  0.57237830915E+02 -0.23212069318E+01  0.33874329771E+03  0.34355433199E+03  0.10000000000E+01 0.  0.
    9000005    1    3    3    0    0 -0.57237830915E+02  0.23212069318E+01  0.14079619870E+03  0.15200699608E+03  0.10000000000E+01 0.  0.
<mgrwt>
<rscale>  0 0.12499160E+03</rscale>
<asrwt>0</asrwt>
<pdfrwt beam="2">  1        4 0.20027290E-02 0.12499160E+03</pdfrwt>
<pdfrwt beam="1">  1       -4 0.12188760E+00 0.12499160E+03</pdfrwt>
<totfact> 0.88334008E+02</totfact>
</mgrwt>
</event>
<event>
 5    1  0.1451195E-002  0.1250010E+03  0.7818608E-02  0.1235068E+00
          4   -1    0    0  501    0  0.00000000000E+00  0.00000000000E+00  0.55772916728E+02  0.55787374381E+02  0.12700000000E+01 0.  1.
         -4   -1    0    0    0  501 -0.00000000000E+00 -0.00000000000E+00 -0.70010335103E+02  0.70021853169E+02  0.12700000000E+01 0.  1.
         25    2    1    2    0    0  0.00000000000E+00  0.00000000000E+00 -0.14237418375E+02  0.12580922755E+03  0.12500103061E+03 0.  0.
    9000005    1    3    3    0    0 -0.30031044941E+02 -0.40247836932E+02 -0.44555470788E+02  0.67141209515E+02  0.10000000000E+01 0.  0.
    9000005    1    3    3    0    0  0.30031044941E+02  0.40247836932E+02  0.30318052413E+02  0.58668018035E+02  0.10000000000E+01 0.  0.
<mgrwt>
<rscale>  0 0.12500103E+03</rscale>
<asrwt>0</asrwt>
<pdfrwt beam="1">  1        4 0.13946476E-01 0.12500103E+03</pdfrwt>
<pdfrwt beam="2">  1       -4 0.17505831E-01 0.12500103E+03</pdfrwt>
<totfact> 0.19790755E+03</totfact>
</mgrwt>
</event>
<event>
 5    1  0.1451195E-002  0.1250004E+03  0.7818608E-02  0.1235069E+00
         -4   -1    0    0    0  501 -0.00000000000E+00  0.00000000000E+00  0.18685486782E+03  0.18685918369E+03  0.12700000000E+01 0. -1.
          4   -1    0    0  501    0  0.00000000000E+00 -0.00000000000E+00 -0.20881533482E+02  0.20920118082E+02  0.12700000000E+01 0. -1.
         25    2    1    2    0    0  0.00000000000E+00  0.00000000000E+00  0.16597333434E+03  0.20777930177E+03  0.12500036213E+03 0.  0.
    9000005    1    3    3    0    0 -0.39849587541E+02  0.45435947283E+02  0.10941861103E+03  0.12500338945E+03  0.10000000000E+01 0.  0.
    9000005    1    3    3    0    0  0.39849587541E+02 -0.45435947283E+02  0.56554723307E+02  0.82775912324E+02  0.10000000000E+01 0.  0.
<mgrwt>
<rscale>  0 0.12500036E+03</rscale>
<asrwt>0</asrwt>
<pdfrwt beam="2">  1        4 0.52257460E-02 0.12500036E+03</pdfrwt>
<pdfrwt beam="1">  1       -4 0.46719079E-01 0.12500036E+03</pdfrwt>
<totfact> 0.16015080E+03</totfact>
</mgrwt>
</event>
<event>
 5    1  0.1451195E-002  0.1249947E+03  0.7818608E-02  0.1235078E+00
          4   -1    0    0  501    0  0.00000000000E+00  0.00000000000E+00  0.11275127092E+02  0.11346426351E+02  0.12700000000E+01 0.  1.
         -4   -1    0    0    0  501 -0.00000000000E+00 -0.00000000000E+00 -0.34525494294E+03  0.34525727874E+03  0.12700000000E+01 0.  1.
         25    2    1    2    0    0  0.00000000000E+00  0.00000000000E+00 -0.33397981584E+03  0.35660370509E+03  0.12499474026E+03 0.  0.
    9000005    1    3    3    0    0  0.90743591636E+01  0.45269704229E+02 -0.28712690982E+03  0.29081704293E+03  0.10000000000E+01 0.  0.
    9000005    1    3    3    0    0 -0.90743591636E+01 -0.45269704229E+02 -0.46852906021E+02  0.65786662158E+02  0.10000000000E+01 0.  0.
<mgrwt>
<rscale>  0 0.12499474E+03</rscale>
<asrwt>0</asrwt>
<pdfrwt beam="1">  1        4 0.28279873E-02 0.12499474E+03</pdfrwt>
<pdfrwt beam="2">  1       -4 0.86322905E-01 0.12499474E+03</pdfrwt>
<totfact> 0.11522773E+03</totfact>
</mgrwt>
</event>
<event>
 5    1  0.1451195E-002  0.1249988E+03  0.7818608E-02  0.1235071E+00
         -4   -1    0    0    0  501 -0.00000000000E+00  0.00000000000E+00  0.62163515019E+02  0.62176486709E+02  0.12700000000E+01 0. -1.
          4   -1    0    0  501    0  0.00000000000E+00 -0.00000000000E+00 -0.62811160328E+02  0.62823998295E+02  0.12700000000E+01 0. -1.
         25    2    1    2    0    0  0.00000000000E+00  0.00000000000E+00 -0.64764530946E+00  0.12500048500E+03  0.12499880722E+03 0.  0.
    9000005    1    3    3    0    0  0.12952028856E+02  0.57175283920E+02  0.21319187378E+02  0.62388106985E+02  0.10000000000E+01 0.  0.
    9000005    1    3    3    0    0 -0.12952028856E+02 -0.57175283920E+02 -0.21966832688E+02  0.62612378018E+02  0.10000000000E+01 0.  0.
<mgrwt>
<rscale>  0 0.12499881E+03</rscale>
<asrwt>0</asrwt>
<pdfrwt beam="2">  1        4 0.15706016E-01 0.12499881E+03</pdfrwt>
<pdfrwt beam="1">  1       -4 0.15544105E-01 0.12499881E+03</pdfrwt>
<totfact> 0.19835583E+03</totfact>
</mgrwt>
</event>
<event>
 5    1  0.1451195E-002  0.1249864E+03  0.7818608E-02  0.1235091E+00
         -4   -1    0    0    0  501 -0.00000000000E+00  0.00000000000E+00  0.59312907731E+02  0.59326502707E+02  0.12700000000E+01 0.  1.
          4   -1    0    0  501    0  0.00000000000E+00 -0.00000000000E+00 -0.65816757068E+02  0.65829008886E+02  0.12700000000E+01 0.  1.
         25    2    1    2    0    0  0.00000000000E+00  0.00000000000E+00 -0.65038493377E+01  0.12515551159E+03  0.12498640737E+03 0.  0.
    9000005    1    3    3    0    0  0.61555304058E+02  0.16045372906E+01 -0.13885638414E+02  0.63130348896E+02  0.10000000000E+01 0.  0.
    9000005    1    3    3    0    0 -0.61555304058E+02 -0.16045372906E+01  0.73817890760E+01  0.62025162697E+02  0.10000000000E+01 0.  0.
<mgrwt>
<rscale>  0 0.12498641E+03</rscale>
<asrwt>0</asrwt>
<pdfrwt beam="2">  1        4 0.16457420E-01 0.12498641E+03</pdfrwt>
<pdfrwt beam="1">  1       -4 0.14831458E-01 0.12498641E+03</pdfrwt>
<totfact> 0.19832931E+03</totfact>
</mgrwt>
</event>
<event>
 5    1  0.1451195E-002  0.1250023E+03  0.7818608E-02  0.1235066E+00
          4   -1    0    0  501    0  0.00000000000E+00  0.00000000000E+00  0.28258662362E+03  0.28258947742E+03  0.12700000000E+01 0. -1.
         -4   -1    0    0    0  501 -0.00000000000E+00 -0.00000000000E+00 -0.13791602515E+02  0.13849953066E+02  0.12700000000E+01 0. -1.
         25    2    1    2    0    0  0.00000000000E+00  0.00000000000E+00  0.26879502110E+03  0.29643943049E+03  0.12500229029E+03 0.  0.
    9000005    1    3    3    0    0 -0.13842397045E+02 -0.59826174553E+02  0.10688332225E+03  0.12327135796E+03  0.10000000000E+01 0.  0.
    9000005    1    3    3    0    0  0.13842397045E+02  0.59826174553E+02  0.16191169885E+03  0.17316807253E+03  0.10000000000E+01 0.  0.
<mgrwt>
<rscale>  0 0.12500229E+03</rscale>
<asrwt>0</asrwt>
<pdfrwt beam="1">  1        4 0.70654304E-01 0.12500229E+03</pdfrwt>
<pdfrwt beam="2">  1       -4 0.34555513E-02 0.12500229E+03</pdfrwt>
<totfact> 0.13070752E+03</totfact>
</mgrwt>
</event>
<event>
 5    1  0.1451195E-002  0.1250008E+03  0.7818608E-02  0.1235068E+00
          4   -1    0    0  501    0  0.00000000000E+00  0.00000000000E+00  0.21086130838E+02  0.21124341734E+02  0.12700000000E+01 0. -1.
         -4   -1    0    0    0  501 -0.00000000000E+00 -0.00000000000E+00 -0.18504644135E+03  0.18505079940E+03  0.12700000000E+01 0. -1.
         25    2    1    2    0    0  0.00000000000E+00  0.00000000000E+00 -0.16396031051E+03  0.20617514113E+03  0.12500082158E+03 0.  0.
    9000005    1    3    3    0    0  0.99226008480E+01 -0.46225841512E+02 -0.14938383530E+03  0.15669019331E+03  0.10000000000E+01 0.  0.
    9000005    1    3    3    0    0 -0.99226008480E+01  0.46225841512E+02 -0.14576475217E+02  0.49484947821E+02  0.10000000000E+01 0.  0.
<mgrwt>
<rscale>  0 0.12500082E+03</rscale>
<asrwt>0</asrwt>
<pdfrwt beam="1">  1        4 0.52768544E-02 0.12500082E+03</pdfrwt>
<pdfrwt beam="2">  1       -4 0.46266927E-01 0.12500082E+03</pdfrwt>
<totfact> 0.16077425E+03</totfact>
</mgrwt>
</event>
<event>
 5    1  0.1451195E-002  0.1249987E+03  0.7818608E-02  0.1235071E+00
         -4   -1    0    0    0  501 -0.00000000000E+00  0.00000000000E+00  0.10499435777E+03  0.10500203838E+03  0.12700000000E+01 0.  1.
          4   -1    0    0  501    0  0.00000000000E+00 -0.00000000000E+00 -0.37183706520E+02  0.37205388462E+02  0.12700000000E+01 0.  1.
         25    2    1    2    0    0  0.00000000000E+00  0.00000000000E+00  0.67810651249E+02  0.14220742684E+03  0.12499867129E+03 0.  0.
    9000005    1    3    3    0    0 -0.22038201286E+02  0.38577806099E+02 -0.16090613019E+02  0.47263487669E+02  0.10000000000E+01 0.  0.
    9000005    1    3    3    0    0  0.22038201286E+02 -0.38577806099E+02  0.83901264267E+02  0.94943939169E+02  0.10000000000E+01 0.  0.
<mgrwt>
<rscale>  0 0.12499867E+03</rscale>
<asrwt>0</asrwt>
<pdfrwt beam="2">  1        4 0.92995970E-02 0.12499867E+03</pdfrwt>
<pdfrwt beam="1">  1       -4 0.26252260E-01 0.12499867E+03</pdfrwt>
<totfact> 0.18928564E+03</totfact>
</mgrwt>
</event>
<event>
 5    1  0.1451195E-002  0.1250043E+03  0.7818608E-02  0.1235062E+00
          4   -1    0    0  501    0  0.00000000000E+00  0.00000000000E+00  0.25990567076E+02  0.26021577142E+02  0.12700000000E+01 0. -1.
         -4   -1    0    0    0  501 -0.00000000000E+00 -0.00000000000E+00 -0.15018204188E+03  0.15018741160E+03  0.12700000000E+01 0. -1.
         25    2    1    2    0    0  0.00000000000E+00  0.00000000000E+00 -0.12419147480E+03  0.17620898874E+03  0.12500434112E+03 0.  0.
    9000005    1    3    3    0    0  0.40034698454E+02 -0.23353816270E+02 -0.12118809188E+03  0.12975257773E+03  0.10000000000E+01 0.  0.
    9000005    1    3    3    0    0 -0.40034698454E+02  0.23353816270E+02 -0.30033829217E+01  0.46456411007E+02  0.10000000000E+01 0.  0.
<mgrwt>
<rscale>  0 0.12500434E+03</rscale>
<asrwt>0</asrwt>
<pdfrwt beam="1">  1        4 0.65021897E-02 0.12500434E+03</pdfrwt>
<pdfrwt beam="2">  1       -4 0.37550056E-01 0.12500434E+03</pdfrwt>
<totfact> 0.17318834E+03</totfact>
</mgrwt>
</event>
<event>
 5    1  0.1451195E-002  0.1250010E+03  0.7818608E-02  0.1235068E+00
         -4   -1    0    0    0  501 -0.00000000000E+00  0.00000000000E+00  0.14710043082E+03  0.14710591302E+03  0.12700000000E+01 0.  1.
          4   -1    0    0  501    0  0.00000000000E+00 -0.00000000000E+00 -0.26534230041E+02  0.26564605471E+02  0.12700000000E+01 0.  1.
         25    2    1    2    0    0  0.00000000000E+00  0.00000000000E+00  0.12056620078E+03  0.17367051850E+03  0.12500096090E+03 0.  0.
    9000005    1    3    3    0    0 -0.22834407152E+02 -0.18811135415E+02  0.13676118604E+03  0.13992816361E+03  0.10000000000E+01 0.  0.
    9000005    1    3    3    0    0  0.22834407152E+02  0.18811135415E+02 -0.16194985259E+02  0.33742354884E+02  0.10000000000E+01 0.  0.
<mgrwt>
<rscale>  0 0.12500096E+03</rscale>
<asrwt>0</asrwt>
<pdfrwt beam="2">  1        4 0.66380398E-02 0.12500096E+03</pdfrwt>
<pdfrwt beam="1">  1       -4 0.36779589E-01 0.12500096E+03</pdfrwt>
<totfact> 0.17432362E+03</totfact>
</mgrwt>
</event>
<event>
 5    1  0.1451195E-002  0.1249991E+03  0.7818608E-02  0.1235071E+00
          4   -1    0    0  501    0  0.00000000000E+00  0.00000000000E+00  0.42427826544E+03  0.42428016619E+03  0.12700000000E+01 0. -1.
         -4   -1    0    0    0  501 -0.00000000000E+00 -0.00000000000E+00 -0.91609440005E+01  0.92485563728E+01  0.12700000000E+01 0. -1.
         25    2    1    2    0    0  0.00000000000E+00  0.00000000000E+00  0.41511732144E+03  0.43352872256E+03  0.12499905092E+03 0.  0.
    9000005    1    3    3    0    0  0.24199763853E+02 -0.47067116436E+02  0.32280963395E+03  0.32712077554E+03  0.10000000000E+01 0.  0.
    9000005    1    3    3    0    0 -0.24199763853E+02  0.47067116436E+02  0.92307687488E+02  0.10640794702E+03  0.10000000000E+01 0.  0.
<mgrwt>
<rscale>  0 0.12499905E+03</rscale>
<asrwt>0</asrwt>
<pdfrwt beam="1">  1        4 0.10608075E+00 0.12499905E+03</pdfrwt>
<pdfrwt beam="2">  1       -4 0.23014253E-02 0.12499905E+03</pdfrwt>
<totfact> 0.99053240E+02</totfact>
</mgrwt>
</event>
<event>
 5    1  0.1451195E-002  0.1249992E+03  0.7818608E-02  0.1235071E+00
         -4   -1    0    0    0  501 -0.00000000000E+00  0.00000000000E+00  0.10834983388E+02  0.10909159684E+02  0.12700000000E+01 0. -1.
          4   -1    0    0  501    0  0.00000000000E+00 -0.00000000000E+00 -0.35921217415E+03  0.35921441919E+03  0.12700000000E+01 0. -1.
         25    2    1    2    0    0  0.00000000000E+00  0.00000000000E+00 -0.34837719076E+03  0.37012357888E+03  0.12499918639E+03 0.  0.
    9000005    1    3    3    0    0 -0.44812530603E+02  0.35761904055E+02 -0.24780537784E+03  0.25435326215E+03  0.10000000000E+01 0.  0.
    9000005    1    3    3    0    0  0.44812530603E+02 -0.35761904055E+02 -0.10057181292E+03  0.11577031673E+03  0.10000000000E+01 0.  0.
<mgrwt>
<rscale>  0 0.12499919E+03</rscale>
<asrwt>0</asrwt>
<pdfrwt beam="2">  1        4 0.89812557E-01 0.12499919E+03</pdfrwt>
<pdfrwt beam="1">  1       -4 0.27182997E-02 0.12499919E+03</pdfrwt>
<totfact> 0.11211868E+03</totfact>
</mgrwt>
</event>
<event>
 5    1  0.1451195E-002  0.1250029E+03  0.7818608E-02  0.1235065E+00
         -4   -1    0    0    0  501 -0.00000000000E+00  0.00000000000E+00  0.14627791121E+03  0.14628342425E+03  0.12700000000E+01 0. -1.
          4   -1    0    0  501    0  0.00000000000E+00 -0.00000000000E+00 -0.26684434800E+02  0.26714639444E+02  0.12700000000E+01 0. -1.
         25    2    1    2    0    0  0.00000000000E+00  0.00000000000E+00  0.11959347641E+03  0.17299806369E+03  0.12500292172E+03 0.  0.
    9000005    1    3    3    0    0 -0.31231508668E+02  0.38087320187E+02  0.11302731505E+03  0.12329730346E+03  0.10000000000E+01 0.  0.
    9000005    1    3    3    0    0  0.31231508668E+02 -0.38087320187E+02  0.65661613668E+01  0.49700760234E+02  0.10000000000E+01 0.  0.
<mgrwt>
<rscale>  0 0.12500292E+03</rscale>
<asrwt>0</asrwt>
<pdfrwt beam="2">  1        4 0.66755736E-02 0.12500292E+03</pdfrwt>
<pdfrwt beam="1">  1       -4 0.36573942E-01 0.12500292E+03</pdfrwt>
<totfact> 0.17461480E+03</totfact>
</mgrwt>
</event>
<event>
 5    1  0.1451195E-002  0.1250002E+03  0.7818608E-02  0.1235069E+00
          4   -1    0    0  501    0  0.00000000000E+00  0.00000000000E+00  0.16906307313E+02  0.16953941340E+02  0.12700000000E+01 0.  1.
         -4   -1    0    0    0  501 -0.00000000000E+00 -0.00000000000E+00 -0.23067898099E+03  0.23068247694E+03  0.12700000000E+01 0.  1.
         25    2    1    2    0    0  0.00000000000E+00  0.00000000000E+00 -0.21377267367E+03  0.24763641828E+03  0.12500015860E+03 0.  0.
    9000005    1    3    3    0    0  0.49549043031E+02  0.16218313147E+02 -0.38628739278E+02  0.64894690422E+02  0.10000000000E+01 0.  0.
    9000005    1    3    3    0    0 -0.49549043031E+02 -0.16218313147E+02 -0.17514393440E+03  0.18274172786E+03  0.10000000000E+01 0.  0.
<mgrwt>
<rscale>  0 0.12500016E+03</rscale>
<asrwt>0</asrwt>
<pdfrwt beam="1">  1        4 0.42329688E-02 0.12500016E+03</pdfrwt>
<pdfrwt beam="2">  1       -4 0.57676127E-01 0.12500016E+03</pdfrwt>
<totfact> 0.14576890E+03</totfact>
</mgrwt>
</event>
<event>
 5    1  0.1451195E-002  0.1249995E+03  0.7818608E-02  0.1235070E+00
          4   -1    0    0  501    0  0.00000000000E+00  0.00000000000E+00  0.10241120894E+02  0.10319566714E+02  0.12700000000E+01 0. -1.
         -4   -1    0    0    0  501 -0.00000000000E+00 -0.00000000000E+00 -0.37988988551E+03  0.37989200835E+03  0.12700000000E+01 0. -1.
         25    2    1    2    0    0  0.00000000000E+00  0.00000000000E+00 -0.36964876461E+03  0.39021157507E+03  0.12499945654E+03 0.  0.
    9000005    1    3    3    0    0 -0.43123064736E+02 -0.24334352958E+02 -0.65811751502E+02  0.82364713815E+02  0.10000000000E+01 0.  0.
    9000005    1    3    3    0    0  0.43123064736E+02  0.24334352958E+02 -0.30383701311E+03  0.30784686125E+03  0.10000000000E+01 0.  0.
<mgrwt>
<rscale>  0 0.12499946E+03</rscale>
<asrwt>0</asrwt>
<pdfrwt beam="1">  1        4 0.25703526E-02 0.12499946E+03</pdfrwt>
<pdfrwt beam="2">  1       -4 0.94982496E-01 0.12499946E+03</pdfrwt>
<totfact> 0.10773778E+03</totfact>
</mgrwt>
</event>
<event>
 5    1  0.1451195E-002  0.1249995E+03  0.7818608E-02  0.1235070E+00
          4   -1    0    0  501    0  0.00000000000E+00  0.00000000000E+00  0.10709722469E+04  0.10709729999E+04  0.12700000000E+01 0. -1.
         -4   -1    0    0    0  501 -0.00000000000E+00 -0.00000000000E+00 -0.35360270601E+01  0.37571781126E+01  0.12700000000E+01 0. -1.
         25    2    1    2    0    0  0.00000000000E+00  0.00000000000E+00  0.10674362199E+04  0.10747301781E+04  0.12499948848E+03 0.  0.
    9000005    1    3    3    0    0 -0.33211600899E+02 -0.20212537557E+02  0.95436968838E+03  0.95516179740E+03  0.10000000000E+01 0.  0.
    9000005    1    3    3    0    0  0.33211600899E+02  0.20212537557E+02  0.11306653149E+03  0.11956838066E+03  0.10000000000E+01 0.  0.
<mgrwt>
<rscale>  0 0.12499949E+03</rscale>
<asrwt>0</asrwt>
<pdfrwt beam="1">  1        4 0.26777083E+00 0.12499949E+03</pdfrwt>
<pdfrwt beam="2">  1       -4 0.91174466E-03 0.12499949E+03</pdfrwt>
<totfact> 0.32309142E+02</totfact>
</mgrwt>
</event>
<event>
 5    1  0.1451195E-002  0.1250035E+03  0.7818608E-02  0.1235064E+00
         -4   -1    0    0    0  501 -0.00000000000E+00  0.00000000000E+00  0.43489890398E+02  0.43508429837E+02  0.12700000000E+01 0.  1.
          4   -1    0    0  501    0  0.00000000000E+00 -0.00000000000E+00 -0.89782605053E+02  0.89791586856E+02  0.12700000000E+01 0.  1.
         25    2    1    2    0    0  0.00000000000E+00  0.00000000000E+00 -0.46292714655E+02  0.13330001669E+03  0.12500351603E+03 0.  0.
    9000005    1    3    3    0    0  0.17143840091E+02 -0.23107080492E+02  0.36011926524E+02  0.46105393111E+02  0.10000000000E+01 0.  0.
    9000005    1    3    3    0    0 -0.17143840091E+02  0.23107080492E+02 -0.82304641179E+02  0.87194623581E+02  0.10000000000E+01 0.  0.
<mgrwt>
<rscale>  0 0.12500352E+03</rscale>
<asrwt>0</asrwt>
<pdfrwt beam="2">  1        4 0.22449091E-01 0.12500352E+03</pdfrwt>
<pdfrwt beam="1">  1       -4 0.10875913E-01 0.12500352E+03</pdfrwt>
<totfact> 0.19386964E+03</totfact>
</mgrwt>
</event>
<event>
 5    1  0.1451195E-002  0.1249988E+03  0.7818608E-02  0.1235071E+00
          4   -1    0    0  501    0  0.00000000000E+00  0.00000000000E+00  0.18086177133E+03  0.18086623021E+03  0.12700000000E+01 0.  1.
         -4   -1    0    0    0  501 -0.00000000000E+00 -0.00000000000E+00 -0.21574172445E+02  0.21611520462E+02  0.12700000000E+01 0.  1.
         25    2    1    2    0    0  0.00000000000E+00  0.00000000000E+00  0.15928759889E+03  0.20247775067E+03  0.12499880142E+03 0.  0.
    9000005    1    3    3    0    0 -0.58359507975E+02 -0.10804157532E+02  0.11132862902E+03  0.12616507295E+03  0.10000000000E+01 0.  0.
    9000005    1    3    3    0    0  0.58359507975E+02  0.10804157532E+02  0.47958969866E+02  0.76312677726E+02  0.10000000000E+01 0.  0.
<mgrwt>
<rscale>  0 0.12499880E+03</rscale>
<asrwt>0</asrwt>
<pdfrwt beam="1">  1        4 0.45220669E-01 0.12499880E+03</pdfrwt>
<pdfrwt beam="2">  1       -4 0.53987690E-02 0.12499880E+03</pdfrwt>
<totfact> 0.16223756E+03</totfact>
</mgrwt>
</event>
<event>
 5    1  0.1451195E-002  0.1249995E+03  0.7818608E-02  0.1235070E+00
          4   -1    0    0  501    0  0.00000000000E+00  0.00000000000E+00  0.69234655374E+02  0.69246302463E+02  0.12700000000E+01 0.  1.
         -4   -1    0    0    0  501 -0.00000000000E+00 -0.00000000000E+00 -0.56396429116E+02  0.56410726968E+02  0.12700000000E+01 0.  1.
         25    2    1    2    0    0  0.00000000000E+00  0.00000000000E+00  0.12838226258E+02  0.12565702943E+03  0.12499947597E+03 0.  0.
    9000005    1    3    3    0    0 -0.35768549874E+02  0.43047022487E+02  0.34364303927E+02  0.65683640958E+02  0.10000000000E+01 0.  0.
    9000005    1    3    3    0    0  0.35768549874E+02 -0.43047022487E+02 -0.21526077669E+02  0.59973388473E+02  0.10000000000E+01 0.  0.
<mgrwt>
<rscale>  0 0.12499948E+03</rscale>
<asrwt>0</asrwt>
<pdfrwt beam="1">  1        4 0.17311907E-01 0.12499948E+03</pdfrwt>
<pdfrwt beam="2">  1       -4 0.14102350E-01 0.12499948E+03</pdfrwt>
<totfact> 0.19799708E+03</totfact>
</mgrwt>
</event>
<event>
 5    1  0.1451195E-002  0.1250024E+03  0.7818608E-02  0.1235066E+00
         -4   -1    0    0    0  501 -0.00000000000E+00  0.00000000000E+00  0.26528971641E+02  0.26559353085E+02  0.12700000000E+01 0.  1.
          4   -1    0    0  501    0  0.00000000000E+00 -0.00000000000E+00 -0.14713283539E+03  0.14713831638E+03  0.12700000000E+01 0.  1.
         25    2    1    2    0    0  0.00000000000E+00  0.00000000000E+00 -0.12060386374E+03  0.17369766947E+03  0.12500235369E+03 0.  0.
    9000005    1    3    3    0    0  0.28166134447E+02 -0.33528301151E+02  0.16528943603E+01  0.43831611510E+02  0.10000000000E+01 0.  0.
    9000005    1    3    3    0    0 -0.28166134447E+02  0.33528301151E+02 -0.12225675810E+03  0.12986605796E+03  0.10000000000E+01 0.  0.
<mgrwt>
<rscale>  0 0.12500235E+03</rscale>
<asrwt>0</asrwt>
<pdfrwt beam="2">  1        4 0.36787689E-01 0.12500235E+03</pdfrwt>
<pdfrwt beam="1">  1       -4 0.66367261E-02 0.12500235E+03</pdfrwt>
<totfact> 0.17430593E+03</totfact>
</mgrwt>
</event>
<event>
 5    1  0.1451195E-002  0.1249989E+03  0.7818608E-02  0.1235071E+00
         -4   -1    0    0    0  501 -0.00000000000E+00  0.00000000000E+00  0.49026296113E+02  0.49042742690E+02  0.12700000000E+01 0. -1.
          4   -1    0    0  501    0  0.00000000000E+00 -0.00000000000E+00 -0.79640332754E+02  0.79650458261E+02  0.12700000000E+01 0. -1.
         25    2    1    2    0    0  0.00000000000E+00  0.00000000000E+00 -0.30614036641E+02  0.12869320095E+03  0.12499888292E+03 0.  0.
    9000005    1    3    3    0    0  0.54762980793E+02 -0.22502764780E+02  0.52794879594E+01  0.59449402699E+02  0.10000000000E+01 0.  0.
    9000005    1    3    3    0    0 -0.54762980793E+02  0.22502764780E+02 -0.35893524601E+02  0.69243798252E+02  0.10000000000E+01 0.  0.
<mgrwt>
<rscale>  0 0.12499888E+03</rscale>
<asrwt>0</asrwt>
<pdfrwt beam="2">  1        4 0.19913405E-01 0.12499888E+03</pdfrwt>
<pdfrwt beam="1">  1       -4 0.12259896E-01 0.12499888E+03</pdfrwt>
<totfact> 0.19635412E+03</totfact>
</mgrwt>
</event>
<event>
 5    1  0.1451195E-002  0.1250077E+03  0.7818608E-02  0.1235057E+00
          4   -1    0    0  501    0  0.00000000000E+00  0.00000000000E+00  0.28404891785E+02  0.28433268847E+02  0.12700000000E+01 0.  1.
         -4   -1    0    0    0  501 -0.00000000000E+00 -0.00000000000E+00 -0.13743739454E+03  0.13744326218E+03  0.12700000000E+01 0.  1.
         25    2    1    2    0    0  0.00000000000E+00  0.00000000000E+00 -0.10903250276E+03  0.16587653103E+03  0.12500774731E+03 0.  0.
    9000005    1    3    3    0    0  0.49368615256E+02 -0.38232126770E+02 -0.57970995221E+02  0.85209107357E+02  0.10000000000E+01 0.  0.
    9000005    1    3    3    0    0 -0.49368615256E+02  0.38232126770E+02 -0.51061507536E+02  0.80667423670E+02  0.10000000000E+01 0.  0.
<mgrwt>
<rscale>  0 0.12500775E+03</rscale>
<asrwt>0</asrwt>
<pdfrwt beam="1">  1        4 0.71055039E-02 0.12500775E+03</pdfrwt>
<pdfrwt beam="2">  1       -4 0.34363627E-01 0.12500775E+03</pdfrwt>
<totfact> 0.17781453E+03</totfact>
</mgrwt>
</event>
<event>
 5    1  0.1451195E-002  0.1249916E+03  0.7818608E-02  0.1235082E+00
          4   -1    0    0  501    0  0.00000000000E+00  0.00000000000E+00  0.11555843633E+02  0.11625421371E+02  0.12700000000E+01 0.  1.
         -4   -1    0    0    0  501 -0.00000000000E+00 -0.00000000000E+00 -0.33690181046E+03  0.33690420418E+03  0.12700000000E+01 0.  1.
         25    2    1    2    0    0  0.00000000000E+00  0.00000000000E+00 -0.32534596683E+03  0.34852962555E+03  0.12499160673E+03 0.  0.
    9000005    1    3    3    0    0 -0.12552584851E+02 -0.48782850846E+02 -0.59561914459E+02  0.78012534744E+02  0.10000000000E+01 0.  0.
    9000005    1    3    3    0    0  0.12552584851E+02  0.48782850846E+02 -0.26578405237E+03  0.27051709081E+03  0.10000000000E+01 0.  0.
<mgrwt>
<rscale>  0 0.12499161E+03</rscale>
<asrwt>0</asrwt>
<pdfrwt beam="1">  1        4 0.28979585E-02 0.12499161E+03</pdfrwt>
<pdfrwt beam="2">  1       -4 0.84234417E-01 0.12499161E+03</pdfrwt>
<totfact> 0.11714717E+03</totfact>
</mgrwt>
</event>
<event>
 5    1  0.1451195E-002  0.1250023E+03  0.7818608E-02  0.1235066E+00
         -4   -1    0    0    0  501 -0.00000000000E+00  0.00000000000E+00  0.58669697483E+03  0.58669834938E+03  0.12700000000E+01 0. -1.
          4   -1    0    0  501    0  0.00000000000E+00 -0.00000000000E+00 -0.65963215126E+01  0.67174665982E+01  0.12700000000E+01 0. -1.
         25    2    1    2    0    0  0.00000000000E+00  0.00000000000E+00  0.58010065331E+03  0.59341581598E+03  0.12500225071E+03 0.  0.
    9000005    1    3    3    0    0 -0.54018535430E+02 -0.30991769761E+02  0.26542925265E+03  0.27263928574E+03  0.10000000000E+01 0.  0.
    9000005    1    3    3    0    0  0.54018535430E+02  0.30991769761E+02  0.31467140066E+03  0.32077653024E+03  0.10000000000E+01 0.  0.
<mgrwt>
<rscale>  0 0.12500225E+03</rscale>
<asrwt>0</asrwt>
<pdfrwt beam="2">  1        4 0.16643954E-02 0.12500225E+03</pdfrwt>
<pdfrwt beam="1">  1       -4 0.14668955E+00 0.12500225E+03</pdfrwt>
<totfact> 0.74333824E+02</totfact>
</mgrwt>
</event>
<event>
 5    1  0.1451195E-002  0.1249991E+03  0.7818608E-02  0.1235071E+00
         -4   -1    0    0    0  501 -0.00000000000E+00  0.00000000000E+00  0.66082425669E+02  0.66094628240E+02  0.12700000000E+01 0.  1.
          4   -1    0    0  501    0  0.00000000000E+00 -0.00000000000E+00 -0.59086489173E+02  0.59100136233E+02  0.12700000000E+01 0.  1.
         25    2    1    2    0    0  0.00000000000E+00  0.00000000000E+00  0.69959364958E+01  0.12519476447E+03  0.12499914369E+03 0.  0.
    9000005    1    3    3    0    0 -0.23599460313E+02  0.15463670371E+02 -0.52348928913E+02  0.59476633956E+02  0.10000000000E+01 0.  0.
    9000005    1    3    3    0    0  0.23599460313E+02 -0.15463670371E+02  0.59344865408E+02  0.65718130518E+02  0.10000000000E+01 0.  0.
<mgrwt>
<rscale>  0 0.12499914E+03</rscale>
<asrwt>0</asrwt>
<pdfrwt beam="2">  1        4 0.14774854E-01 0.12499914E+03</pdfrwt>
<pdfrwt beam="1">  1       -4 0.16523838E-01 0.12499914E+03</pdfrwt>
<totfact> 0.19824894E+03</totfact>
</mgrwt>
</event>
<event>
 5    1  0.1451195E-002  0.1250008E+03  0.7818608E-02  0.1235068E+00
          4   -1    0    0  501    0  0.00000000000E+00  0.00000000000E+00  0.15359520716E+03  0.15360045756E+03  0.12700000000E+01 0. -1.
         -4   -1    0    0    0  501 -0.00000000000E+00 -0.00000000000E+00 -0.25410903578E+02  0.25442620161E+02  0.12700000000E+01 0. -1.
         25    2    1    2    0    0  0.00000000000E+00  0.00000000000E+00  0.12818430359E+03  0.17904307773E+03  0.12500083198E+03 0.  0.
    9000005    1    3    3    0    0 -0.47165802573E+02 -0.36001408809E+02  0.36002763153E+02  0.69411190187E+02  0.10000000000E+01 0.  0.
    9000005    1    3    3    0    0  0.47165802573E+02  0.36001408809E+02  0.92181540433E+02  0.10963188754E+03  0.10000000000E+01 0.  0.
<mgrwt>
<rscale>  0 0.12500083E+03</rscale>
<asrwt>0</asrwt>
<pdfrwt beam="1">  1        4 0.38403422E-01 0.12500083E+03</pdfrwt>
<pdfrwt beam="2">  1       -4 0.63573469E-02 0.12500083E+03</pdfrwt>
<totfact> 0.17196382E+03</totfact>
</mgrwt>
</event>
<event>
 5    1  0.1451195E-002  0.1250008E+03  0.7818608E-02  0.1235068E+00
         -4   -1    0    0    0  501 -0.00000000000E+00  0.00000000000E+00  0.70497022817E+02  0.70508461379E+02  0.12700000000E+01 0.  1.
          4   -1    0    0  501    0  0.00000000000E+00 -0.00000000000E+00 -0.55387672169E+02  0.55402230355E+02  0.12700000000E+01 0.  1.
         25    2    1    2    0    0  0.00000000000E+00  0.00000000000E+00  0.15109350647E+02  0.12591069173E+03  0.12500083926E+03 0.  0.
    9000005    1    3    3    0    0 -0.35645294370E+02  0.37047889476E+02 -0.28230940247E+02  0.58661052775E+02  0.10000000000E+01 0.  0.
    9000005    1    3    3    0    0  0.35645294370E+02 -0.37047889476E+02  0.43340290894E+02  0.67249638959E+02  0.10000000000E+01 0.  0.
<mgrwt>
<rscale>  0 0.12500084E+03</rscale>
<asrwt>0</asrwt>
<pdfrwt beam="2">  1        4 0.13850168E-01 0.12500084E+03</pdfrwt>
<pdfrwt beam="1">  1       -4 0.17627505E-01 0.12500084E+03</pdfrwt>
<totfact> 0.19785358E+03</totfact>
</mgrwt>
</event>
<event>
 5    1  0.1451195E-002  0.1250259E+03  0.7818608E-02  0.1235029E+00
         -4   -1    0    0    0  501 -0.00000000000E+00  0.00000000000E+00  0.60668736071E+02  0.60682027293E+02  0.12700000000E+01 0. -1.
          4   -1    0    0  501    0  0.00000000000E+00 -0.00000000000E+00 -0.64386570902E+02  0.64399094811E+02  0.12700000000E+01 0. -1.
         25    2    1    2    0    0  0.00000000000E+00  0.00000000000E+00 -0.37178348308E+01  0.12508112210E+03  0.12502585657E+03 0.  0.
    9000005    1    3    3    0    0 -0.45913929333E+02 -0.26038088078E+01  0.40491785876E+02  0.61281754630E+02  0.10000000000E+01 0.  0.
    9000005    1    3    3    0    0  0.45913929333E+02  0.26038088078E+01 -0.44209620706E+02  0.63799367474E+02  0.10000000000E+01 0.  0.
<mgrwt>
<rscale>  0 0.12502586E+03</rscale>
<asrwt>0</asrwt>
<pdfrwt beam="2">  1        4 0.16099870E-01 0.12502586E+03</pdfrwt>
<pdfrwt beam="1">  1       -4 0.15170411E-01 0.12502586E+03</pdfrwt>
<totfact> 0.19818664E+03</totfact>
</mgrwt>
</event>
<event>
 5    1  0.1451195E-002  0.1250050E+03  0.7818608E-02  0.1235061E+00
         -4   -1    0    0    0  501 -0.00000000000E+00  0.00000000000E+00  0.16520962927E+03  0.16521451057E+03  0.12700000000E+01 0.  1.
          4   -1    0    0  501    0  0.00000000000E+00 -0.00000000000E+00 -0.23623820995E+02  0.23657933519E+02  0.12700000000E+01 0.  1.
         25    2    1    2    0    0  0.00000000000E+00  0.00000000000E+00  0.14158580827E+03  0.18887244409E+03  0.12500503603E+03 0.  0.
    9000005    1    3    3    0    0 -0.31153131494E+02 -0.33468623791E+02  0.13516049384E+03  0.14268856112E+03  0.10000000000E+01 0.  0.
    9000005    1    3    3    0    0  0.31153131494E+02  0.33468623791E+02  0.64253144337E+01  0.46183882967E+02  0.10000000000E+01 0.  0.
<mgrwt>
<rscale>  0 0.12500504E+03</rscale>
<asrwt>0</asrwt>
<pdfrwt beam="2">  1        4 0.59108295E-02 0.12500504E+03</pdfrwt>
<pdfrwt beam="1">  1       -4 0.41307281E-01 0.12500504E+03</pdfrwt>
<totfact> 0.16775565E+03</totfact>
</mgrwt>
</event>
<event>
 5    1  0.1451195E-002  0.1249987E+03  0.7818608E-02  0.1235071E+00
          4   -1    0    0  501    0  0.00000000000E+00  0.00000000000E+00  0.15122683919E+02  0.15175917400E+02  0.12700000000E+01 0.  1.
         -4   -1    0    0    0  501 -0.00000000000E+00 -0.00000000000E+00 -0.25779022594E+03  0.25779335424E+03  0.12700000000E+01 0.  1.
         25    2    1    2    0    0  0.00000000000E+00  0.00000000000E+00 -0.24266754203E+03  0.27296927164E+03  0.12499874923E+03 0.  0.
    9000005    1    3    3    0    0 -0.52148465283E+02  0.14628228720E+02 -0.53260028158E+02  0.75967612219E+02  0.10000000000E+01 0.  0.
    9000005    1    3    3    0    0  0.52148465283E+02 -0.14628228720E+02 -0.18940751387E+03  0.19700165942E+03  0.10000000000E+01 0.  0.
<mgrwt>
<rscale>  0 0.12499875E+03</rscale>
<asrwt>0</asrwt>
<pdfrwt beam="1">  1        4 0.37877170E-02 0.12499875E+03</pdfrwt>
<pdfrwt beam="2">  1       -4 0.64454588E-01 0.12499875E+03</pdfrwt>
<totfact> 0.13764354E+03</totfact>
</mgrwt>
</event>
<event>
 5    1  0.1451195E-002  0.1249972E+03  0.7818608E-02  0.1235074E+00
         -4   -1    0    0    0  501 -0.00000000000E+00  0.00000000000E+00  0.45802178389E+01  0.47530301337E+01  0.12700000000E+01 0. -1.
          4   -1    0    0  501    0  0.00000000000E+00 -0.00000000000E+00 -0.83684979588E+03  0.83685075955E+03  0.12700000000E+01 0. -1.
         25    2    1    2    0    0  0.00000000000E+00  0.00000000000E+00 -0.83226957804E+03  0.84160378968E+03  0.12499715310E+03 0.  0.
    9000005    1    3    3    0    0 -0.55716433937E+02 -0.87504093436E+00 -0.60657058311E+03  0.60912556916E+03  0.10000000000E+01 0.  0.
    9000005    1    3    3    0    0  0.55716433937E+02  0.87504093436E+00 -0.22569899493E+03  0.23247822052E+03  0.10000000000E+01 0.  0.
<mgrwt>
<rscale>  0 0.12499715E+03</rscale>
<asrwt>0</asrwt>
<pdfrwt beam="2">  1        4 0.20923366E+00 0.12499715E+03</pdfrwt>
<pdfrwt beam="1">  1       -4 0.11667793E-02 0.12499715E+03</pdfrwt>
<totfact> 0.48925967E+02</totfact>
</mgrwt>
</event>
<event>
 5    1  0.1451195E-002  0.1249992E+03  0.7818608E-02  0.1235071E+00
         -4   -1    0    0    0  501 -0.00000000000E+00  0.00000000000E+00  0.50342924578E+02  0.50358941163E+02  0.12700000000E+01 0.  1.
          4   -1    0    0  501    0  0.00000000000E+00 -0.00000000000E+00 -0.77558235448E+02  0.77568632744E+02  0.12700000000E+01 0.  1.
         25    2    1    2    0    0  0.00000000000E+00  0.00000000000E+00 -0.27215310870E+02  0.12792757391E+03  0.12499916408E+03 0.  0.
    9000005    1    3    3    0    0  0.40366334699E+02  0.31720555153E+02 -0.50073326543E+02  0.71721493482E+02  0.10000000000E+01 0.  0.
    9000005    1    3    3    0    0 -0.40366334699E+02 -0.31720555153E+02  0.22858015673E+02  0.56206080425E+02  0.10000000000E+01 0.  0.
<mgrwt>
<rscale>  0 0.12499916E+03</rscale>
<asrwt>0</asrwt>
<pdfrwt beam="2">  1        4 0.19392860E-01 0.12499916E+03</pdfrwt>
<pdfrwt beam="1">  1       -4 0.12589033E-01 0.12499916E+03</pdfrwt>
<totfact> 0.19676860E+03</totfact>
</mgrwt>
</event>
<event>
 5    1  0.1451195E-002  0.1249952E+03  0.7818608E-02  0.1235077E+00
         -4   -1    0    0    0  501 -0.00000000000E+00  0.00000000000E+00  0.11625428231E+04  0.11625435168E+04  0.12700000000E+01 0.  1.
          4   -1    0    0  501    0  0.00000000000E+00 -0.00000000000E+00 -0.32391030329E+01  0.34791792794E+01  0.12700000000E+01 0.  1.
         25    2    1    2    0    0  0.00000000000E+00  0.00000000000E+00  0.11593037201E+04  0.11660226961E+04  0.12499524950E+03 0.  0.
    9000005    1    3    3    0    0 -0.15143706272E+02 -0.59345509871E+02  0.69531506878E+03  0.69800807034E+03  0.10000000000E+01 0.  0.
    9000005    1    3    3    0    0  0.15143706272E+02  0.59345509871E+02  0.46398865127E+03  0.46801462572E+03  0.10000000000E+01 0.  0.
<mgrwt>
<rscale>  0 0.12499525E+03</rscale>
<asrwt>0</asrwt>
<pdfrwt beam="2">  1        4 0.83987253E-03 0.12499525E+03</pdfrwt>
<pdfrwt beam="1">  1       -4 0.29066562E+00 0.12499525E+03</pdfrwt>
<totfact> 0.27022205E+02</totfact>
</mgrwt>
</event>
<event>
 5    1  0.1451195E-002  0.1249948E+03  0.7818608E-02  0.1235077E+00
         -4   -1    0    0    0  501 -0.00000000000E+00  0.00000000000E+00  0.21016147315E+02  0.21054485222E+02  0.12700000000E+01 0.  1.
          4   -1    0    0  501    0  0.00000000000E+00 -0.00000000000E+00 -0.18564359576E+03  0.18564793979E+03  0.12700000000E+01 0.  1.
         25    2    1    2    0    0  0.00000000000E+00  0.00000000000E+00 -0.16462744845E+03  0.20670242501E+03  0.12499478278E+03 0.  0.
    9000005    1    3    3    0    0 -0.23062057017E+02 -0.20621821488E+01  0.13668791530E+02  0.26906261928E+02  0.10000000000E+01 0.  0.
    9000005    1    3    3    0    0  0.23062057017E+02  0.20621821488E+01 -0.17829623998E+03  0.17979616308E+03  0.10000000000E+01 0.  0.
<mgrwt>
<rscale>  0 0.12499478E+03</rscale>
<asrwt>0</asrwt>
<pdfrwt beam="2">  1        4 0.46416229E-01 0.12499478E+03</pdfrwt>
<pdfrwt beam="1">  1       -4 0.52593726E-02 0.12499478E+03</pdfrwt>
<totfact> 0.16059075E+03</totfact>
</mgrwt>
</event>
<event>
 5    1  0.1451195E-002  0.1249924E+03  0.7818608E-02  0.1235081E+00
         -4   -1    0    0    0  501 -0.00000000000E+00  0.00000000000E+00  0.35826465020E+02  0.35848967849E+02  0.12700000000E+01 0. -1.
          4   -1    0    0  501    0  0.00000000000E+00 -0.00000000000E+00 -0.10895883121E+03  0.10896623238E+03  0.12700000000E+01 0. -1.
         25    2    1    2    0    0  0.00000000000E+00  0.00000000000E+00 -0.73132366188E+02  0.14481520023E+03  0.12499239670E+03 0.  0.
    9000005    1    3    3    0    0  0.56638208964E+02 -0.26373333383E+02 -0.37905036169E+02  0.73083727296E+02  0.10000000000E+01 0.  0.
    9000005    1    3    3    0    0 -0.56638208964E+02  0.26373333383E+02 -0.35227330018E+02  0.71731472930E+02  0.10000000000E+01 0.  0.
<mgrwt>
<rscale>  0 0.12499240E+03</rscale>
<asrwt>0</asrwt>
<pdfrwt beam="2">  1        4 0.27243445E-01 0.12499240E+03</pdfrwt>
<pdfrwt beam="1">  1       -4 0.89603545E-02 0.12499240E+03</pdfrwt>
<totfact> 0.18799963E+03</totfact>
</mgrwt>
</event>
<event>
 5    1  0.1451195E-002  0.1249908E+03  0.7818608E-02  0.1235084E+00
          4   -1    0    0  501    0  0.00000000000E+00  0.00000000000E+00  0.14435018734E+02  0.14490778649E+02  0.12700000000E+01 0.  1.
         -4   -1    0    0    0  501 -0.00000000000E+00 -0.00000000000E+00 -0.26999065594E+03  0.26999364288E+03  0.12700000000E+01 0.  1.
         25    2    1    2    0    0  0.00000000000E+00  0.00000000000E+00 -0.25555563721E+03  0.28448442153E+03  0.12499080920E+03 0.  0.
    9000005    1    3    3    0    0  0.14278651316E+01 -0.20592451908E+02 -0.26201780188E+03  0.26283153612E+03  0.10000000000E+01 0.  0.
    9000005    1    3    3    0    0 -0.14278651316E+01  0.20592451908E+02  0.64621646738E+01  0.21652885413E+02  0.10000000000E+01 0.  0.
<mgrwt>
<rscale>  0 0.12499081E+03</rscale>
<asrwt>0</asrwt>
<pdfrwt beam="1">  1        4 0.36160989E-02 0.12499081E+03</pdfrwt>
<pdfrwt beam="2">  1       -4 0.67504991E-01 0.12499081E+03</pdfrwt>
<totfact> 0.13420158E+03</totfact>
</mgrwt>
</event>
<event>
 5    1  0.1451195E-002  0.1249995E+03  0.7818608E-02  0.1235070E+00
         -4   -1    0    0    0  501 -0.00000000000E+00  0.00000000000E+00  0.60444972917E+02  0.60458313332E+02  0.12700000000E+01 0. -1.
          4   -1    0    0  501    0  0.00000000000E+00 -0.00000000000E+00 -0.64597678176E+02  0.64610161165E+02  0.12700000000E+01 0. -1.
         25    2    1    2    0    0  0.00000000000E+00  0.00000000000E+00 -0.41527052584E+01  0.12506847450E+03  0.12499951341E+03 0.  0.
    9000005    1    3    3    0    0 -0.19747336089E+02  0.19710324564E+02 -0.58024689320E+02  0.64391915236E+02  0.10000000000E+01 0.  0.
    9000005    1    3    3    0    0  0.19747336089E+02 -0.19710324564E+02  0.53871984062E+02  0.60676559261E+02  0.10000000000E+01 0.  0.
<mgrwt>
<rscale>  0 0.12499951E+03</rscale>
<asrwt>0</asrwt>
<pdfrwt beam="2">  1        4 0.16152647E-01 0.12499951E+03</pdfrwt>
<pdfrwt beam="1">  1       -4 0.15114471E-01 0.12499951E+03</pdfrwt>
<totfact> 0.19831568E+03</totfact>
</mgrwt>
</event>
<event>
 5    1  0.1451195E-002  0.1249971E+03  0.7818608E-02  0.1235074E+00
          4   -1    0    0  501    0  0.00000000000E+00  0.00000000000E+00  0.27888002116E+03  0.27888291289E+03  0.12700000000E+01 0.  1.
         -4   -1    0    0    0  501 -0.00000000000E+00 -0.00000000000E+00 -0.13974514353E+02  0.14032104311E+02  0.12700000000E+01 0.  1.
         25    2    1    2    0    0  0.00000000000E+00  0.00000000000E+00  0.26490550680E+03  0.29291501720E+03  0.12499711903E+03 0.  0.
    9000005    1    3    3    0    0 -0.44110070770E+02  0.40614793514E+02  0.17369947662E+03  0.18376008264E+03  0.10000000000E+01 0.  0.
    9000005    1    3    3    0    0  0.44110070770E+02 -0.40614793514E+02  0.91206030186E+02  0.10915493455E+03  0.10000000000E+01 0.  0.
<mgrwt>
<rscale>  0 0.12499712E+03</rscale>
<asrwt>0</asrwt>
<pdfrwt beam="1">  1        4 0.69727567E-01 0.12499712E+03</pdfrwt>
<pdfrwt beam="2">  1       -4 0.35011887E-02 0.12499712E+03</pdfrwt>
<totfact> 0.13172845E+03</totfact>
</mgrwt>
</event>
<event>
 5    1  0.1451195E-002  0.1249965E+03  0.7818608E-02  0.1235075E+00
          4   -1    0    0  501    0  0.00000000000E+00  0.00000000000E+00  0.87282308277E+02  0.87291547347E+02  0.12700000000E+01 0.  1.
         -4   -1    0    0    0  501 -0.00000000000E+00 -0.00000000000E+00 -0.44731101373E+02  0.44749126584E+02  0.12700000000E+01 0.  1.
         25    2    1    2    0    0  0.00000000000E+00  0.00000000000E+00  0.42551206904E+02  0.13204067393E+03  0.12499653740E+03 0.  0.
    9000005    1    3    3    0    0  0.84090128397E+01 -0.28452724507E+02 -0.36821641470E+02  0.47298015914E+02  0.10000000000E+01 0.  0.
    9000005    1    3    3    0    0 -0.84090128397E+01  0.28452724507E+02  0.79372848374E+02  0.84742658018E+02  0.10000000000E+01 0.  0.
<mgrwt>
<rscale>  0 0.12499654E+03</rscale>
<asrwt>0</asrwt>
<pdfrwt beam="1">  1        4 0.21823985E-01 0.12499654E+03</pdfrwt>
<pdfrwt beam="2">  1       -4 0.11186183E-01 0.12499654E+03</pdfrwt>
<totfact> 0.19456864E+03</totfact>
</mgrwt>
</event>
<event>
 5    1  0.1451195E-002  0.1249960E+03  0.7818608E-02  0.1235076E+00
         -4   -1    0    0    0  501 -0.00000000000E+00  0.00000000000E+00  0.16285822213E+03  0.16286317391E+03  0.12700000000E+01 0.  1.
          4   -1    0    0  501    0  0.00000000000E+00 -0.00000000000E+00 -0.23961902138E+02  0.23995534044E+02  0.12700000000E+01 0.  1.
         25    2    1    2    0    0  0.00000000000E+00  0.00000000000E+00  0.13889631999E+03  0.18685870795E+03  0.12499595605E+03 0.  0.
    9000005    1    3    3    0    0 -0.10707836897E+02  0.50990479214E+02  0.17872176989E+02  0.55091754845E+02  0.10000000000E+01 0.  0.
    9000005    1    3    3    0    0  0.10707836897E+02 -0.50990479214E+02  0.12102414300E+03  0.13176695311E+03  0.10000000000E+01 0.  0.
<mgrwt>
<rscale>  0 0.12499596E+03</rscale>
<asrwt>0</asrwt>
<pdfrwt beam="2">  1        4 0.59952986E-02 0.12499596E+03</pdfrwt>
<pdfrwt beam="1">  1       -4 0.40719378E-01 0.12499596E+03</pdfrwt>
<totfact> 0.16863704E+03</totfact>
</mgrwt>
</event>
<event>
 5    1  0.1451195E-002  0.1250344E+03  0.7818608E-02  0.1235016E+00
         -4   -1    0    0    0  501 -0.00000000000E+00  0.00000000000E+00  0.28291352492E+02  0.28319843322E+02  0.12700000000E+01 0.  1.
          4   -1    0    0  501    0  0.00000000000E+00 -0.00000000000E+00 -0.13804732677E+03  0.13805316848E+03  0.12700000000E+01 0.  1.
         25    2    1    2    0    0  0.00000000000E+00  0.00000000000E+00 -0.10975597428E+03  0.16637301180E+03  0.12503441593E+03 0.  0.
    9000005    1    3    3    0    0 -0.42549808711E+02 -0.47240605846E+01 -0.11548464282E+03  0.12316860678E+03  0.10000000000E+01 0.  0.
    9000005    1    3    3    0    0  0.42549808711E+02  0.47240605846E+01  0.57286685446E+01  0.43204405019E+02  0.10000000000E+01 0.  0.
<mgrwt>
<rscale>  0 0.12503442E+03</rscale>
<asrwt>0</asrwt>
<pdfrwt beam="2">  1        4 0.34516121E-01 0.12503442E+03</pdfrwt>
<pdfrwt beam="1">  1       -4 0.70771301E-02 0.12503442E+03</pdfrwt>
<totfact> 0.17747702E+03</totfact>
</mgrwt>
</event>
<event>
 5    1  0.1451195E-002  0.1249994E+03  0.7818608E-02  0.1235070E+00
         -4   -1    0    0    0  501 -0.00000000000E+00  0.00000000000E+00  0.96443622919E+01  0.97276217041E+01  0.12700000000E+01 0.  1.
          4   -1    0    0  501    0  0.00000000000E+00 -0.00000000000E+00 -0.40320016750E+03  0.40320216762E+03  0.12700000000E+01 0.  1.
         25    2    1    2    0    0  0.00000000000E+00  0.00000000000E+00 -0.39355580521E+03  0.41292978932E+03  0.12499935639E+03 0.  0.
    9000005    1    3    3    0    0  0.27380678170E+02 -0.23533024009E+02 -0.36527695586E+03  0.36705825048E+03  0.10000000000E+01 0.  0.
    9000005    1    3    3    0    0 -0.27380678170E+02  0.23533024009E+02 -0.28278849344E+02  0.45871538848E+02  0.10000000000E+01 0.  0.
<mgrwt>
<rscale>  0 0.12499936E+03</rscale>
<asrwt>0</asrwt>
<pdfrwt beam="2">  1        4 0.10081064E+00 0.12499936E+03</pdfrwt>
<pdfrwt beam="1">  1       -4 0.24217494E-02 0.12499936E+03</pdfrwt>
<totfact> 0.10306993E+03</totfact>
</mgrwt>
</event>
<event>
 5    1  0.1451195E-002  0.1249919E+03  0.7818608E-02  0.1235082E+00
          4   -1    0    0  501    0  0.00000000000E+00  0.00000000000E+00  0.63597087243E+02  0.63609766591E+02  0.12700000000E+01 0.  1.
         -4   -1    0    0    0  501 -0.00000000000E+00 -0.00000000000E+00 -0.61388482448E+02  0.61401617871E+02  0.12700000000E+01 0.  1.
         25    2    1    2    0    0  0.00000000000E+00  0.00000000000E+00  0.22086047953E+01  0.12501138446E+03  0.12499187298E+03 0.  0.
    9000005    1    3    3    0    0  0.62068601162E+02 -0.72256750133E+01  0.12473208673E+01  0.62508218971E+02  0.10000000000E+01 0.  0.
    9000005    1    3    3    0    0 -0.62068601162E+02  0.72256750133E+01  0.96128392806E+00  0.62503165491E+02  0.10000000000E+01 0.  0.
<mgrwt>
<rscale>  0 0.12499187E+03</rscale>
<asrwt>0</asrwt>
<pdfrwt beam="1">  1        4 0.15902499E-01 0.12499187E+03</pdfrwt>
<pdfrwt beam="2">  1       -4 0.15350347E-01 0.12499187E+03</pdfrwt>
<totfact> 0.19838210E+03</totfact>
</mgrwt>
</event>
<event>
 5    1  0.1451195E-002  0.1250011E+03  0.7818608E-02  0.1235068E+00
         -4   -1    0    0    0  501 -0.00000000000E+00  0.00000000000E+00  0.42152252375E+02  0.42171379872E+02  0.12700000000E+01 0. -1.
          4   -1    0    0  501    0  0.00000000000E+00 -0.00000000000E+00 -0.92627157661E+02  0.92635863662E+02  0.12700000000E+01 0. -1.
         25    2    1    2    0    0  0.00000000000E+00  0.00000000000E+00 -0.50474905286E+02  0.13480724353E+03  0.12500110738E+03 0.  0.
    9000005    1    3    3    0    0 -0.13138561877E+02 -0.39765850511E+02  0.24784124449E+02  0.48674402922E+02  0.10000000000E+01 0.  0.
    9000005    1    3    3    0    0  0.13138561877E+02  0.39765850511E+02 -0.75259029736E+02  0.86132840612E+02  0.10000000000E+01 0.  0.
<mgrwt>
<rscale>  0 0.12500111E+03</rscale>
<asrwt>0</asrwt>
<pdfrwt beam="2">  1        4 0.23160268E-01 0.12500111E+03</pdfrwt>
<pdfrwt beam="1">  1       -4 0.10541542E-01 0.12500111E+03</pdfrwt>
<totfact> 0.19308739E+03</totfact>
</mgrwt>
</event>
<event>
 5    1  0.1451195E-002  0.1250008E+03  0.7818608E-02  0.1235068E+00
          4   -1    0    0  501    0  0.00000000000E+00  0.00000000000E+00  0.71929649099E+02  0.71940859874E+02  0.12700000000E+01 0.  1.
         -4   -1    0    0    0  501 -0.00000000000E+00 -0.00000000000E+00 -0.54284335319E+02  0.54299189322E+02  0.12700000000E+01 0.  1.
         25    2    1    2    0    0  0.00000000000E+00  0.00000000000E+00  0.17645313780E+02  0.12624004920E+03  0.12500077169E+03 0.  0.
    9000005    1    3    3    0    0 -0.48055682244E+02  0.12832096385E+02 -0.29384772116E+02  0.57779547643E+02  0.10000000000E+01 0.  0.
    9000005    1    3    3    0    0  0.48055682244E+02 -0.12832096385E+02  0.47030085896E+02  0.68460501553E+02  0.10000000000E+01 0.  0.
<mgrwt>
<rscale>  0 0.12500077E+03</rscale>
<asrwt>0</asrwt>
<pdfrwt beam="1">  1        4 0.17985670E-01 0.12500077E+03</pdfrwt>
<pdfrwt beam="2">  1       -4 0.13574342E-01 0.12500077E+03</pdfrwt>
<totfact> 0.19767597E+03</totfact>
</mgrwt>
</event>
<event>
 5    1  0.1451195E-002  0.1249962E+03  0.7818608E-02  0.1235075E+00
          4   -1    0    0  501    0  0.00000000000E+00  0.00000000000E+00  0.21742745851E+03  0.21743116753E+03  0.12700000000E+01 0.  1.
         -4   -1    0    0    0  501 -0.00000000000E+00 -0.00000000000E+00 -0.17938357695E+02  0.17983258237E+02  0.12700000000E+01 0.  1.
         25    2    1    2    0    0  0.00000000000E+00  0.00000000000E+00  0.19948910082E+03  0.23541442577E+03  0.12499620201E+03 0.  0.
    9000005    1    3    3    0    0  0.73704612707E+01 -0.12468796059E+02  0.21423158076E+03  0.21472299543E+03  0.10000000000E+01 0.  0.
    9000005    1    3    3    0    0 -0.73704612707E+01  0.12468796059E+02 -0.14742479941E+02  0.20691430335E+02  0.10000000000E+01 0.  0.
<mgrwt>
<rscale>  0 0.12499620E+03</rscale>
<asrwt>0</asrwt>
<pdfrwt beam="1">  1        4 0.54362941E-01 0.12499620E+03</pdfrwt>
<pdfrwt beam="2">  1       -4 0.44906656E-02 0.12499620E+03</pdfrwt>
<totfact> 0.14997065E+03</totfact>
</mgrwt>
</event>
<event>
 5    1  0.1451195E-002  0.1250021E+03  0.7818608E-02  0.1235066E+00
          4   -1    0    0  501    0  0.00000000000E+00  0.00000000000E+00  0.35628166807E+02  0.35650794802E+02  0.12700000000E+01 0.  1.
         -4   -1    0    0    0  501 -0.00000000000E+00 -0.00000000000E+00 -0.10958189785E+03  0.10958925693E+03  0.12700000000E+01 0.  1.
         25    2    1    2    0    0  0.00000000000E+00  0.00000000000E+00 -0.73953731039E+02  0.14524005174E+03  0.12500207316E+03 0.  0.
    9000005    1    3    3    0    0 -0.35437344841E+02 -0.66102436558E+01 -0.96289373613E+02  0.10282093270E+03  0.10000000000E+01 0.  0.
    9000005    1    3    3    0    0  0.35437344841E+02  0.66102436558E+01  0.22335642574E+02  0.42419119036E+02  0.10000000000E+01 0.  0.
<mgrwt>
<rscale>  0 0.12500207E+03</rscale>
<asrwt>0</asrwt>
<pdfrwt beam="1">  1        4 0.89107903E-02 0.12500207E+03</pdfrwt>
<pdfrwt beam="2">  1       -4 0.27399222E-01 0.12500207E+03</pdfrwt>
<totfact> 0.18774416E+03</totfact>
</mgrwt>
</event>
<event>
 5    1  0.1451195E-002  0.1250024E+03  0.7818608E-02  0.1235066E+00
         -4   -1    0    0    0  501 -0.00000000000E+00  0.00000000000E+00  0.57813373099E+01  0.59191858470E+01  0.12700000000E+01 0. -1.
          4   -1    0    0  501    0  0.00000000000E+00 -0.00000000000E+00 -0.66759221882E+03  0.66759342682E+03  0.12700000000E+01 0. -1.
         25    2    1    2    0    0  0.00000000000E+00  0.00000000000E+00 -0.66181088151E+03  0.67351261266E+03  0.12500238611E+03 0.  0.
    9000005    1    3    3    0    0  0.76690134176E+01 -0.96140717192E+01 -0.77655260003E+00  0.12363137780E+02  0.10000000000E+01 0.  0.
    9000005    1    3    3    0    0 -0.76690134176E+01  0.96140717192E+01 -0.66103432891E+03  0.66114947488E+03  0.10000000000E+01 0.  0.
<mgrwt>
<rscale>  0 0.12500239E+03</rscale>
<asrwt>0</asrwt>
<pdfrwt beam="2">  1        4 0.16691518E+00 0.12500239E+03</pdfrwt>
<pdfrwt beam="1">  1       -4 0.14627187E-02 0.12500239E+03</pdfrwt>
<totfact> 0.64880198E+02</totfact>
</mgrwt>
</event>
<event>
 5    1  0.1451195E-002  0.1249997E+03  0.7818608E-02  0.1235070E+00
         -4   -1    0    0    0  501 -0.00000000000E+00  0.00000000000E+00  0.26496036591E+02  0.26526455757E+02  0.12700000000E+01 0.  1.
          4   -1    0    0  501    0  0.00000000000E+00 -0.00000000000E+00 -0.14730919000E+03  0.14731466444E+03  0.12700000000E+01 0.  1.
         25    2    1    2    0    0  0.00000000000E+00  0.00000000000E+00 -0.12081315341E+03  0.17384112020E+03  0.12499966814E+03 0.  0.
    9000005    1    3    3    0    0  0.45734506946E+02  0.12539931072E+02 -0.38064185725E+01  0.47585542124E+02  0.10000000000E+01 0.  0.
    9000005    1    3    3    0    0 -0.45734506946E+02 -0.12539931072E+02 -0.11700673484E+03  0.12625557807E+03  0.10000000000E+01 0.  0.
<mgrwt>
<rscale>  0 0.12499967E+03</rscale>
<asrwt>0</asrwt>
<pdfrwt beam="2">  1        4 0.36831782E-01 0.12499967E+03</pdfrwt>
<pdfrwt beam="1">  1       -4 0.66284963E-02 0.12499967E+03</pdfrwt>
<totfact> 0.17425310E+03</totfact>
</mgrwt>
</event>
<event>
 5    1  0.1451195E-002  0.1250105E+03  0.7818608E-02  0.1235053E+00
          4   -1    0    0  501    0  0.00000000000E+00  0.00000000000E+00  0.79531055126E+02  0.79541194544E+02  0.12700000000E+01 0.  1.
         -4   -1    0    0    0  501 -0.00000000000E+00 -0.00000000000E+00 -0.49102826023E+02  0.49119246976E+02  0.12700000000E+01 0.  1.
         25    2    1    2    0    0  0.00000000000E+00  0.00000000000E+00  0.30428229102E+02  0.12866044152E+03  0.12501052790E+03 0.  0.
    9000005    1    3    3    0    0  0.24490647945E+02 -0.19263699626E+02 -0.40543531318E+02  0.51143522481E+02  0.10000000000E+01 0.  0.
    9000005    1    3    3    0    0 -0.24490647945E+02  0.19263699626E+02  0.70971760420E+02  0.77516919038E+02  0.10000000000E+01 0.  0.
<mgrwt>
<rscale>  0 0.12501053E+03</rscale>
<asrwt>0</asrwt>
<pdfrwt beam="1">  1        4 0.19886084E-01 0.12501053E+03</pdfrwt>
<pdfrwt beam="2">  1       -4 0.12279027E-01 0.12501053E+03</pdfrwt>
<totfact> 0.19631850E+03</totfact>
</mgrwt>
</event>
<event>
 5    1  0.1451195E-002  0.1250042E+03  0.7818608E-02  0.1235063E+00
          4   -1    0    0  501    0  0.00000000000E+00  0.00000000000E+00  0.12842457081E+02  0.12905099918E+02  0.12700000000E+01 0. -1.
         -4   -1    0    0    0  501 -0.00000000000E+00 -0.00000000000E+00 -0.30338331452E+03  0.30338597270E+03  0.12700000000E+01 0. -1.
         25    2    1    2    0    0  0.00000000000E+00  0.00000000000E+00 -0.29054085744E+03  0.31629107261E+03  0.12500421103E+03 0.  0.
    9000005    1    3    3    0    0 -0.43934770921E+02 -0.33259255994E+02 -0.70678829758E+02  0.89626665569E+02  0.10000000000E+01 0.  0.
    9000005    1    3    3    0    0  0.43934770921E+02  0.33259255994E+02 -0.21986202768E+03  0.22666440704E+03  0.10000000000E+01 0.  0.
<mgrwt>
<rscale>  0 0.12500421E+03</rscale>
<asrwt>0</asrwt>
<pdfrwt beam="1">  1        4 0.32187779E-02 0.12500421E+03</pdfrwt>
<pdfrwt beam="2">  1       -4 0.75853968E-01 0.12500421E+03</pdfrwt>
<totfact> 0.12525241E+03</totfact>
</mgrwt>
</event>
<event>
 5    1  0.1451195E-002  0.1249973E+03  0.7818608E-02  0.1235074E+00
          4   -1    0    0  501    0  0.00000000000E+00  0.00000000000E+00  0.10033678534E+02  0.10113733481E+02  0.12700000000E+01 0. -1.
         -4   -1    0    0    0  501 -0.00000000000E+00 -0.00000000000E+00 -0.38766883586E+03  0.38767091611E+03  0.12700000000E+01 0. -1.
         25    2    1    2    0    0  0.00000000000E+00  0.00000000000E+00 -0.37763515733E+03  0.39778464959E+03  0.12499726158E+03 0.  0.
    9000005    1    3    3    0    0  0.57662956936E+02 -0.93464391283E+01 -0.11817905903E+03  0.13183194802E+03  0.10000000000E+01 0.  0.
    9000005    1    3    3    0    0 -0.57662956936E+02  0.93464391283E+01 -0.25945609830E+03  0.26595270157E+03  0.10000000000E+01 0.  0.
<mgrwt>
<rscale>  0 0.12499726E+03</rscale>
<asrwt>0</asrwt>
<pdfrwt beam="1">  1        4 0.25186878E-02 0.12499726E+03</pdfrwt>
<pdfrwt beam="2">  1       -4 0.96927426E-01 0.12499726E+03</pdfrwt>
<totfact> 0.10615641E+03</totfact>
</mgrwt>
</event>
<event>
 5    1  0.1451195E-002  0.1250002E+03  0.7818608E-02  0.1235069E+00
         -4   -1    0    0    0  501 -0.00000000000E+00  0.00000000000E+00  0.16064887332E+02  0.16115008687E+02  0.12700000000E+01 0.  1.
          4   -1    0    0  501    0  0.00000000000E+00 -0.00000000000E+00 -0.24272488632E+03  0.24272820878E+03  0.12700000000E+01 0.  1.
         25    2    1    2    0    0  0.00000000000E+00  0.00000000000E+00 -0.22665999898E+03  0.25884321747E+03  0.12500022435E+03 0.  0.
    9000005    1    3    3    0    0 -0.56806131910E+02  0.45209024061E+01 -0.16644317371E+03  0.17593096730E+03  0.10000000000E+01 0.  0.
    9000005    1    3    3    0    0  0.56806131910E+02 -0.45209024061E+01 -0.60216825276E+02  0.82912250165E+02  0.10000000000E+01 0.  0.
<mgrwt>
<rscale>  0 0.12500022E+03</rscale>
<asrwt>0</asrwt>
<pdfrwt beam="2">  1        4 0.60687890E-01 0.12500022E+03</pdfrwt>
<pdfrwt beam="1">  1       -4 0.40229031E-02 0.12500022E+03</pdfrwt>
<totfact> 0.14208300E+03</totfact>
</mgrwt>
</event>
<event>
 5    1  0.1451195E-002  0.1249979E+03  0.7818608E-02  0.1235073E+00
         -4   -1    0    0    0  501 -0.00000000000E+00  0.00000000000E+00  0.26536499054E+02  0.26566871891E+02  0.12700000000E+01 0. -1.
          4   -1    0    0  501    0  0.00000000000E+00 -0.00000000000E+00 -0.14708060313E+03  0.14708608608E+03  0.12700000000E+01 0. -1.
         25    2    1    2    0    0  0.00000000000E+00  0.00000000000E+00 -0.12054410408E+03  0.17365295797E+03  0.12499787511E+03 0.  0.
    9000005    1    3    3    0    0 -0.42026893568E+02 -0.44244882617E+02 -0.78975251133E+02  0.99809617334E+02  0.10000000000E+01 0.  0.
    9000005    1    3    3    0    0  0.42026893568E+02  0.44244882617E+02 -0.41568852943E+02  0.73843340633E+02  0.10000000000E+01 0.  0.
<mgrwt>
<rscale>  0 0.12499788E+03</rscale>
<asrwt>0</asrwt>
<pdfrwt beam="2">  1        4 0.36774630E-01 0.12499788E+03</pdfrwt>
<pdfrwt beam="1">  1       -4 0.66386072E-02 0.12499788E+03</pdfrwt>
<totfact> 0.17434391E+03</totfact>
</mgrwt>
</event>
<event>
 5    1  0.1451195E-002  0.1250057E+03  0.7818608E-02  0.1235060E+00
          4   -1    0    0  501    0  0.00000000000E+00  0.00000000000E+00  0.20620516100E+02  0.20659588191E+02  0.12700000000E+01 0. -1.
         -4   -1    0    0    0  501 -0.00000000000E+00 -0.00000000000E+00 -0.18923179985E+03  0.18923606150E+03  0.12700000000E+01 0. -1.
         25    2    1    2    0    0  0.00000000000E+00  0.00000000000E+00 -0.16861128375E+03  0.20989564970E+03  0.12500567489E+03 0.  0.
    9000005    1    3    3    0    0 -0.10379066801E+02  0.18250282953E+02  0.14529916902E+02  0.25552227705E+02  0.10000000000E+01 0.  0.
    9000005    1    3    3    0    0  0.10379066801E+02 -0.18250282953E+02 -0.18314120065E+03  0.18434342199E+03  0.10000000000E+01 0.  0.
<mgrwt>
<rscale>  0 0.12500567E+03</rscale>
<asrwt>0</asrwt>
<pdfrwt beam="1">  1        4 0.51605463E-02 0.12500567E+03</pdfrwt>
<pdfrwt beam="2">  1       -4 0.47313361E-01 0.12500567E+03</pdfrwt>
<totfact> 0.15931239E+03</totfact>
</mgrwt>
</event>
<event>
 5    1  0.1451195E-002  0.1249953E+03  0.7818608E-02  0.1235077E+00
          4   -1    0    0  501    0  0.00000000000E+00  0.00000000000E+00  0.64749459390E+01  0.65983198553E+01  0.12700000000E+01 0. -1.
         -4   -1    0    0    0  501 -0.00000000000E+00 -0.00000000000E+00 -0.59742435742E+03  0.59742570730E+03  0.12700000000E+01 0. -1.
         25    2    1    2    0    0  0.00000000000E+00  0.00000000000E+00 -0.59094941148E+03  0.60402402715E+03  0.12499527370E+03 0.  0.
    9000005    1    3    3    0    0  0.28095829698E+02  0.53703394365E+02 -0.36900376430E+03  0.37394947290E+03  0.10000000000E+01 0.  0.
    9000005    1    3    3    0    0 -0.28095829698E+02 -0.53703394365E+02 -0.22194564718E+03  0.23007455425E+03  0.10000000000E+01 0.  0.
<mgrwt>
<rscale>  0 0.12499527E+03</rscale>
<asrwt>0</asrwt>
<pdfrwt beam="1">  1        4 0.16343290E-02 0.12499527E+03</pdfrwt>
<pdfrwt beam="2">  1       -4 0.14937149E+00 0.12499527E+03</pdfrwt>
<totfact> 0.73006795E+02</totfact>
</mgrwt>
</event>
<event>
 5    1  0.1451195E-002  0.1249935E+03  0.7818608E-02  0.1235079E+00
          4   -1    0    0  501    0  0.00000000000E+00  0.00000000000E+00  0.29936288674E+01  0.32518785026E+01  0.12700000000E+01 0.  1.
         -4   -1    0    0    0  501 -0.00000000000E+00 -0.00000000000E+00 -0.12505108845E+04  0.12505115294E+04  0.12700000000E+01 0.  1.
         25    2    1    2    0    0  0.00000000000E+00  0.00000000000E+00 -0.12475172556E+04  0.12537634079E+04  0.12499351937E+03 0.  0.
    9000005    1    3    3    0    0 -0.15523483003E+02 -0.29815728355E+02 -0.11521441205E+04  0.11526348210E+04  0.10000000000E+01 0.  0.
    9000005    1    3    3    0    0  0.15523483003E+02  0.29815728355E+02 -0.95373135046E+02  0.10112858681E+03  0.10000000000E+01 0.  0.
<mgrwt>
<rscale>  0 0.12499352E+03</rscale>
<asrwt>0</asrwt>
<pdfrwt beam="1">  1        4 0.78077332E-03 0.12499352E+03</pdfrwt>
<pdfrwt beam="2">  1       -4 0.31265837E+00 0.12499352E+03</pdfrwt>
<totfact> 0.22495423E+02</totfact>
</mgrwt>
</event>
<event>
 5    1  0.1451195E-002  0.1250135E+03  0.7818608E-02  0.1235048E+00
         -4   -1    0    0    0  501 -0.00000000000E+00  0.00000000000E+00  0.68651031424E+03  0.68651148895E+03  0.12700000000E+01 0. -1.
          4   -1    0    0  501    0  0.00000000000E+00 -0.00000000000E+00 -0.56191980824E+01  0.57609276240E+01  0.12700000000E+01 0. -1.
         25    2    1    2    0    0  0.00000000000E+00  0.00000000000E+00  0.68089111616E+03  0.69227241658E+03  0.12501354600E+03 0.  0.
    9000005    1    3    3    0    0 -0.32158556764E+02 -0.51250955215E+02  0.25372213667E+03  0.26083856276E+03  0.10000000000E+01 0.  0.
    9000005    1    3    3    0    0  0.32158556764E+02  0.51250955215E+02  0.42716897949E+03  0.43143385382E+03  0.10000000000E+01 0.  0.
<mgrwt>
<rscale>  0 0.12501355E+03</rscale>
<asrwt>0</asrwt>
<pdfrwt beam="2">  1        4 0.14226622E-02 0.12501355E+03</pdfrwt>
<pdfrwt beam="1">  1       -4 0.17164548E+00 0.12501355E+03</pdfrwt>
<totfact> 0.62854258E+02</totfact>
</mgrwt>
</event>
<event>
 5    1  0.1451195E-002  0.1250004E+03  0.7818608E-02  0.1235069E+00
          4   -1    0    0  501    0  0.00000000000E+00  0.00000000000E+00  0.26608025893E+03  0.26608328976E+03  0.12700000000E+01 0. -1.
         -4   -1    0    0    0  501 -0.00000000000E+00 -0.00000000000E+00 -0.14650219393E+02  0.14705163320E+02  0.12700000000E+01 0. -1.
         25    2    1    2    0    0  0.00000000000E+00  0.00000000000E+00  0.25143003953E+03  0.28078845308E+03  0.12500036241E+03 0.  0.
    9000005    1    3    3    0    0  0.19246408719E+02 -0.43928085666E+02  0.35717877726E+02  0.59806920571E+02  0.10000000000E+01 0.  0.
    9000005    1    3    3    0    0 -0.19246408719E+02  0.43928085666E+02  0.21571216181E+03  0.22098153251E+03  0.10000000000E+01 0.  0.
<mgrwt>
<rscale>  0 0.12500036E+03</rscale>
<asrwt>0</asrwt>
<pdfrwt beam="1">  1        4 0.66527311E-01 0.12500036E+03</pdfrwt>
<pdfrwt beam="2">  1       -4 0.36698017E-02 0.12500036E+03</pdfrwt>
<totfact> 0.13526995E+03</totfact>
</mgrwt>
</event>
<event>
 5    1  0.1451195E-002  0.1250035E+03  0.7818608E-02  0.1235064E+00
          4   -1    0    0  501    0  0.00000000000E+00  0.00000000000E+00  0.15547791748E+02  0.15599574617E+02  0.12700000000E+01 0.  1.
         -4   -1    0    0    0  501 -0.00000000000E+00 -0.00000000000E+00 -0.25078462576E+03  0.25078784144E+03  0.12700000000E+01 0.  1.
         25    2    1    2    0    0  0.00000000000E+00  0.00000000000E+00 -0.23523683401E+03  0.26638741606E+03  0.12500354939E+03 0.  0.
    9000005    1    3    3    0    0 -0.57224920276E+02 -0.24373769816E+02 -0.10470852745E+03  0.12179346401E+03  0.10000000000E+01 0.  0.
    9000005    1    3    3    0    0  0.57224920276E+02  0.24373769816E+02 -0.13052830656E+03  0.14459395205E+03  0.10000000000E+01 0.  0.
<mgrwt>
<rscale>  0 0.12500355E+03</rscale>
<asrwt>0</asrwt>
<pdfrwt beam="1">  1        4 0.38938236E-02 0.12500355E+03</pdfrwt>
<pdfrwt beam="2">  1       -4 0.62703018E-01 0.12500355E+03</pdfrwt>
<totfact> 0.13967178E+03</totfact>
</mgrwt>
</event>
<event>
 5    1  0.1451195E-002  0.1250018E+03  0.7818608E-02  0.1235066E+00
         -4   -1    0    0    0  501 -0.00000000000E+00  0.00000000000E+00  0.27312418327E+02  0.27341929245E+02  0.12700000000E+01 0.  1.
          4   -1    0    0  501    0  0.00000000000E+00 -0.00000000000E+00 -0.14291567830E+03  0.14292132102E+03  0.12700000000E+01 0.  1.
         25    2    1    2    0    0  0.00000000000E+00  0.00000000000E+00 -0.11560325997E+03  0.17026325027E+03  0.12500184269E+03 0.  0.
    9000005    1    3    3    0    0  0.45573080494E+02  0.57769680122E+00  0.43651588287E+00  0.45589800893E+02  0.10000000000E+01 0.  0.
    9000005    1    3    3    0    0 -0.45573080494E+02 -0.57769680122E+00 -0.11603977585E+03  0.12467344938E+03  0.10000000000E+01 0.  0.
<mgrwt>
<rscale>  0 0.12500184E+03</rscale>
<asrwt>0</asrwt>
<pdfrwt beam="2">  1        4 0.35733312E-01 0.12500184E+03</pdfrwt>
<pdfrwt beam="1">  1       -4 0.68324992E-02 0.12500184E+03</pdfrwt>
<totfact> 0.17584428E+03</totfact>
</mgrwt>
</event>
<event>
 5    1  0.1451195E-002  0.1249995E+03  0.7818608E-02  0.1235070E+00
         -4   -1    0    0    0  501 -0.00000000000E+00  0.00000000000E+00  0.10073013295E+02  0.10152758091E+02  0.12700000000E+01 0.  1.
          4   -1    0    0  501    0  0.00000000000E+00 -0.00000000000E+00 -0.38618097431E+03  0.38618306258E+03  0.12700000000E+01 0.  1.
         25    2    1    2    0    0  0.00000000000E+00  0.00000000000E+00 -0.37610796102E+03  0.39633582067E+03  0.12499953761E+03 0.  0.
    9000005    1    3    3    0    0 -0.23177534641E+02 -0.57118974313E+02 -0.15549509848E+03  0.16727074158E+03  0.10000000000E+01 0.  0.
    9000005    1    3    3    0    0  0.23177534641E+02  0.57118974313E+02 -0.22061286254E+03  0.22906507909E+03  0.10000000000E+01 0.  0.
<mgrwt>
<rscale>  0 0.12499954E+03</rscale>
<asrwt>0</asrwt>
<pdfrwt beam="2">  1        4 0.96555423E-01 0.12499954E+03</pdfrwt>
<pdfrwt beam="1">  1       -4 0.25284837E-02 0.12499954E+03</pdfrwt>
<totfact> 0.10645183E+03</totfact>
</mgrwt>
</event>
<event>
 5    1  0.1451195E-002  0.1249794E+03  0.7818608E-02  0.1235102E+00
         -4   -1    0    0    0  501 -0.00000000000E+00  0.00000000000E+00  0.39309685595E+03  0.39309890748E+03  0.12700000000E+01 0.  1.
          4   -1    0    0  501    0  0.00000000000E+00 -0.00000000000E+00 -0.98911587023E+01  0.99723578192E+01  0.12700000000E+01 0.  1.
         25    2    1    2    0    0  0.00000000000E+00  0.00000000000E+00  0.38320569725E+03  0.40307126530E+03  0.12497935230E+03 0.  0.
    9000005    1    3    3    0    0 -0.45305853636E+02 -0.16894386230E+02  0.31922563171E+03  0.32286846331E+03  0.10000000000E+01 0.  0.
    9000005    1    3    3    0    0  0.45305853636E+02  0.16894386230E+02  0.63980065537E+02  0.80202801982E+02  0.10000000000E+01 0.  0.
<mgrwt>
<rscale>  0 0.12497935E+03</rscale>
<asrwt>0</asrwt>
<pdfrwt beam="2">  1        4 0.24831962E-02 0.12497935E+03</pdfrwt>
<pdfrwt beam="1">  1       -4 0.98284612E-01 0.12497935E+03</pdfrwt>
<totfact> 0.10511150E+03</totfact>
</mgrwt>
</event>
<event>
 5    1  0.1451195E-002  0.1249929E+03  0.7818608E-02  0.1235080E+00
          4   -1    0    0  501    0  0.00000000000E+00  0.00000000000E+00  0.74129753082E+02  0.74140631181E+02  0.12700000000E+01 0.  1.
         -4   -1    0    0    0  501 -0.00000000000E+00 -0.00000000000E+00 -0.52666378329E+02  0.52681688529E+02  0.12700000000E+01 0.  1.
         25    2    1    2    0    0  0.00000000000E+00  0.00000000000E+00  0.21463374753E+02  0.12682231971E+03  0.12499289708E+03 0.  0.
    9000005    1    3    3    0    0  0.61828211989E+02  0.89284336737E+01  0.12290848386E+02  0.63675031839E+02  0.10000000000E+01 0.  0.
    9000005    1    3    3    0    0 -0.61828211989E+02 -0.89284336737E+01  0.91725263666E+01  0.63147287872E+02  0.10000000000E+01 0.  0.
<mgrwt>
<rscale>  0 0.12499290E+03</rscale>
<asrwt>0</asrwt>
<pdfrwt beam="1">  1        4 0.18535712E-01 0.12499290E+03</pdfrwt>
<pdfrwt beam="2">  1       -4 0.13169868E-01 0.12499290E+03</pdfrwt>
<totfact> 0.19739827E+03</totfact>
</mgrwt>
</event>
<event>
 5    1  0.1451195E-002  0.1249941E+03  0.7818608E-02  0.1235079E+00
          4   -1    0    0  501    0  0.00000000000E+00  0.00000000000E+00  0.12350749059E+03  0.12351401998E+03  0.12700000000E+01 0. -1.
         -4   -1    0    0    0  501 -0.00000000000E+00 -0.00000000000E+00 -0.31604528903E+02  0.31630035523E+02  0.12700000000E+01 0. -1.
         25    2    1    2    0    0  0.00000000000E+00  0.00000000000E+00  0.91902961686E+02  0.15514405550E+03  0.12499409423E+03 0.  0.
    9000005    1    3    3    0    0  0.15593716565E+02  0.68238831402E+01  0.12058070011E+03  0.12178027187E+03  0.10000000000E+01 0.  0.
    9000005    1    3    3    0    0 -0.15593716565E+02 -0.68238831402E+01 -0.28677738423E+02  0.33363783636E+02  0.10000000000E+01 0.  0.
<mgrwt>
<rscale>  0 0.12499409E+03</rscale>
<asrwt>0</asrwt>
<pdfrwt beam="1">  1        4 0.30880877E-01 0.12499409E+03</pdfrwt>
<pdfrwt beam="2">  1       -4 0.79051368E-02 0.12499409E+03</pdfrwt>
<totfact> 0.18291218E+03</totfact>
</mgrwt>
</event>
<event>
 5    1  0.1451195E-002  0.1250026E+03  0.7818608E-02  0.1235065E+00
         -4   -1    0    0    0  501 -0.00000000000E+00  0.00000000000E+00  0.93217272030E+02  0.93225922922E+02  0.12700000000E+01 0.  1.
          4   -1    0    0  501    0  0.00000000000E+00 -0.00000000000E+00 -0.41886312374E+02  0.41905561258E+02  0.12700000000E+01 0.  1.
         25    2    1    2    0    0  0.00000000000E+00  0.00000000000E+00  0.51330959656E+02  0.13513148418E+03  0.12500260236E+03 0.  0.
    9000005    1    3    3    0    0 -0.42903591700E+02 -0.10594403244E+02  0.73432461121E+02  0.85710477231E+02  0.10000000000E+01 0.  0.
    9000005    1    3    3    0    0  0.42903591700E+02  0.10594403244E+02 -0.22101501465E+02  0.49421006949E+02  0.10000000000E+01 0.  0.
<mgrwt>
<rscale>  0 0.12500260E+03</rscale>
<asrwt>0</asrwt>
<pdfrwt beam="2">  1        4 0.10475066E-01 0.12500260E+03</pdfrwt>
<pdfrwt beam="1">  1       -4 0.23307805E-01 0.12500260E+03</pdfrwt>
<totfact> 0.19291081E+03</totfact>
</mgrwt>
</event>
<event>
 5    1  0.1451195E-002  0.1249903E+03  0.7818608E-02  0.1235084E+00
         -4   -1    0    0    0  501 -0.00000000000E+00  0.00000000000E+00  0.28339469511E+02  0.28367912017E+02  0.12700000000E+01 0.  1.
          4   -1    0    0  501    0  0.00000000000E+00 -0.00000000000E+00 -0.13771591610E+03  0.13772177187E+03  0.12700000000E+01 0.  1.
         25    2    1    2    0    0  0.00000000000E+00  0.00000000000E+00 -0.10937644659E+03  0.16608968389E+03  0.12499030373E+03 0.  0.
    9000005    1    3    3    0    0 -0.38920005921E+02 -0.47247488731E+02 -0.71367539120E+02  0.94028813096E+02  0.10000000000E+01 0.  0.
    9000005    1    3    3    0    0  0.38920005921E+02  0.47247488731E+02 -0.38008907471E+02  0.72060870793E+02  0.10000000000E+01 0.  0.
<mgrwt>
<rscale>  0 0.12499030E+03</rscale>
<asrwt>0</asrwt>
<pdfrwt beam="2">  1        4 0.34433264E-01 0.12499030E+03</pdfrwt>
<pdfrwt beam="1">  1       -4 0.70891550E-02 0.12499030E+03</pdfrwt>
<totfact> 0.17778878E+03</totfact>
</mgrwt>
</event>
<event>
 5    1  0.1451195E-002  0.1250003E+03  0.7818608E-02  0.1235069E+00
          4   -1    0    0  501    0  0.00000000000E+00  0.00000000000E+00  0.80662023129E+01  0.81655691628E+01  0.12700000000E+01 0.  1.
         -4   -1    0    0    0  501 -0.00000000000E+00 -0.00000000000E+00 -0.48121086793E+03  0.48121254380E+03  0.12700000000E+01 0.  1.
         25    2    1    2    0    0  0.00000000000E+00  0.00000000000E+00 -0.47314466561E+03  0.48937811296E+03  0.12500025139E+03 0.  0.
    9000005    1    3    3    0    0 -0.48303614439E+02  0.78664061000E+01 -0.38871224194E+03  0.39178224378E+03  0.10000000000E+01 0.  0.
    9000005    1    3    3    0    0  0.48303614439E+02 -0.78664061000E+01 -0.84432423675E+02  0.97595869177E+02  0.10000000000E+01 0.  0.
<mgrwt>
<rscale>  0 0.12500025E+03</rscale>
<asrwt>0</asrwt>
<pdfrwt beam="1">  1        4 0.20291825E-02 0.12500025E+03</pdfrwt>
<pdfrwt beam="2">  1       -4 0.12031525E+00 0.12500025E+03</pdfrwt>
<totfact> 0.89320185E+02</totfact>
</mgrwt>
</event>
<event>
 5    1  0.1451195E-002  0.1249972E+03  0.7818608E-02  0.1235074E+00
         -4   -1    0    0    0  501 -0.00000000000E+00  0.00000000000E+00  0.57529543765E+02  0.57543560072E+02  0.12700000000E+01 0. -1.
          4   -1    0    0  501    0  0.00000000000E+00 -0.00000000000E+00 -0.67868610399E+02  0.67880491877E+02  0.12700000000E+01 0. -1.
         25    2    1    2    0    0  0.00000000000E+00  0.00000000000E+00 -0.10339066634E+02  0.12542405195E+03  0.12499718600E+03 0.  0.
    9000005    1    3    3    0    0 -0.93883092384E+01 -0.78482998923E+01 -0.66659619941E+02  0.67780831304E+02  0.10000000000E+01 0.  0.
    9000005    1    3    3    0    0  0.93883092384E+01  0.78482998923E+01  0.56320553307E+02  0.57643220646E+02  0.10000000000E+01 0.  0.
<mgrwt>
<rscale>  0 0.12499719E+03</rscale>
<asrwt>0</asrwt>
<pdfrwt beam="2">  1        4 0.16970390E-01 0.12499719E+03</pdfrwt>
<pdfrwt beam="1">  1       -4 0.14385623E-01 0.12499719E+03</pdfrwt>
<totfact> 0.19813380E+03</totfact>
</mgrwt>
</event>
<event>
 4    1  0.1451195E-002  0.1249058E+03  0.7818608E-02  0.1235217E+00
          4   -1    0    0  501    0  0.00000000000E+00  0.00000000000E+00  0.27830732370E+02  0.27859694260E+02  0.12700000000E+01 0. -1.
         -4   -1    0    0    0  501 -0.00000000000E+00 -0.00000000000E+00 -0.14004118470E+03  0.14004694324E+03  0.12700000000E+01 0. -1.
    9000005    1    1    2    0    0  0.49241356757E+02 -0.22493592524E+02 -0.14266559468E+02  0.55992924900E+02  0.10000000000E+01 0.  0.
    9000005    1    1    2    0    0 -0.49241356757E+02  0.22493592524E+02 -0.97943892860E+02  0.11191371260E+03  0.10000000000E+01 0.  0.
<mgrwt>
<rscale>  0 0.12490578E+03</rscale>
<asrwt>0</asrwt>
<pdfrwt beam="1">  1        4 0.69620235E-02 0.12490578E+03</pdfrwt>
<pdfrwt beam="2">  1       -4 0.35014634E-01 0.12490578E+03</pdfrwt>
<totfact> 0.17730643E+03</totfact>
</mgrwt>
</event>
<event>
 5    1  0.1451195E-002  0.1249968E+03  0.7818608E-02  0.1235074E+00
         -4   -1    0    0    0  501 -0.00000000000E+00  0.00000000000E+00  0.27259276172E+02  0.27288844560E+02  0.12700000000E+01 0.  1.
          4   -1    0    0  501    0  0.00000000000E+00 -0.00000000000E+00 -0.14318243106E+03  0.14318806327E+03  0.12700000000E+01 0.  1.
         25    2    1    2    0    0  0.00000000000E+00  0.00000000000E+00 -0.11592315488E+03  0.17047690783E+03  0.12499679302E+03 0.  0.
    9000005    1    3    3    0    0  0.69331029726E+01 -0.54932704601E+02 -0.97475113610E+02  0.11210739371E+03  0.10000000000E+01 0.  0.
    9000005    1    3    3    0    0 -0.69331029726E+01  0.54932704601E+02 -0.18448041274E+02  0.58369514118E+02  0.10000000000E+01 0.  0.
<mgrwt>
<rscale>  0 0.12499679E+03</rscale>
<asrwt>0</asrwt>
<pdfrwt beam="2">  1        4 0.35800006E-01 0.12499679E+03</pdfrwt>
<pdfrwt beam="1">  1       -4 0.68192195E-02 0.12499679E+03</pdfrwt>
<totfact> 0.17576867E+03</totfact>
</mgrwt>
</event>
<event>
 5    1  0.1451195E-002  0.1249987E+03  0.7818608E-02  0.1235071E+00
          4   -1    0    0  501    0  0.00000000000E+00  0.00000000000E+00  0.63598884485E+02  0.63611563475E+02  0.12700000000E+01 0.  1.
         -4   -1    0    0    0  501 -0.00000000000E+00 -0.00000000000E+00 -0.61393422225E+02  0.61406556592E+02  0.12700000000E+01 0.  1.
         25    2    1    2    0    0  0.00000000000E+00  0.00000000000E+00  0.22054622603E+01  0.12501812007E+03  0.12499866512E+03 0.  0.
    9000005    1    3    3    0    0 -0.41413083561E+02 -0.67472641613E+01 -0.45214275836E+02  0.61691975192E+02  0.10000000000E+01 0.  0.
    9000005    1    3    3    0    0  0.41413083561E+02  0.67472641613E+01  0.47419738096E+02  0.63326144876E+02  0.10000000000E+01 0.  0.
<mgrwt>
<rscale>  0 0.12499867E+03</rscale>
<asrwt>0</asrwt>
<pdfrwt beam="1">  1        4 0.15902948E-01 0.12499867E+03</pdfrwt>
<pdfrwt beam="2">  1       -4 0.15351582E-01 0.12499867E+03</pdfrwt>
<totfact> 0.19834692E+03</totfact>
</mgrwt>
</event>
<event>
 5    1  0.1451195E-002  0.1249957E+03  0.7818608E-02  0.1235076E+00
         -4   -1    0    0    0  501 -0.00000000000E+00  0.00000000000E+00  0.60845769037E+03  0.60845901577E+03  0.12700000000E+01 0.  1.
          4   -1    0    0  501    0  0.00000000000E+00 -0.00000000000E+00 -0.63553161422E+01  0.64809677724E+01  0.12700000000E+01 0.  1.
         25    2    1    2    0    0  0.00000000000E+00  0.00000000000E+00  0.60210237423E+03  0.61493998354E+03  0.12499565715E+03 0.  0.
    9000005    1    3    3    0    0 -0.41287836676E+02  0.73325162642E+01  0.52898356349E+03  0.53064400655E+03  0.10000000000E+01 0.  0.
    9000005    1    3    3    0    0  0.41287836676E+02 -0.73325162642E+01  0.73118810743E+02  0.84295976990E+02  0.10000000000E+01 0.  0.
<mgrwt>
<rscale>  0 0.12499566E+03</rscale>
<asrwt>0</asrwt>
<pdfrwt beam="2">  1        4 0.16047012E-02 0.12499566E+03</pdfrwt>
<pdfrwt beam="1">  1       -4 0.15213030E+00 0.12499566E+03</pdfrwt>
<totfact> 0.71661480E+02</totfact>
</mgrwt>
</event>
<event>
 5    1  0.1451195E-002  0.1249997E+03  0.7818608E-02  0.1235070E+00
         -4   -1    0    0    0  501 -0.00000000000E+00  0.00000000000E+00  0.80270938783E+02  0.80280984754E+02  0.12700000000E+01 0.  1.
          4   -1    0    0  501    0  0.00000000000E+00 -0.00000000000E+00 -0.48641693194E+02  0.48658269767E+02  0.12700000000E+01 0.  1.
         25    2    1    2    0    0  0.00000000000E+00  0.00000000000E+00  0.31629245589E+02  0.12893925452E+03  0.12499968872E+03 0.  0.
    9000005    1    3    3    0    0 -0.54538025969E+02 -0.21586391002E+02 -0.64255543886E+01  0.59014034791E+02  0.10000000000E+01 0.  0.
    9000005    1    3    3    0    0  0.54538025969E+02  0.21586391002E+02  0.38054799978E+02  0.69925219731E+02  0.10000000000E+01 0.  0.
<mgrwt>
<rscale>  0 0.12499969E+03</rscale>
<asrwt>0</asrwt>
<pdfrwt beam="2">  1        4 0.12163751E-01 0.12499969E+03</pdfrwt>
<pdfrwt beam="1">  1       -4 0.20071062E-01 0.12499969E+03</pdfrwt>
<totfact> 0.19621723E+03</totfact>
</mgrwt>
</event>
<event>
 5    1  0.1451195E-002  0.1250015E+03  0.7818608E-02  0.1235067E+00
         -4   -1    0    0    0  501 -0.00000000000E+00  0.00000000000E+00  0.19615138642E+02  0.19656209297E+02  0.12700000000E+01 0.  1.
          4   -1    0    0  501    0  0.00000000000E+00 -0.00000000000E+00 -0.19889799890E+03  0.19890205345E+03  0.12700000000E+01 0.  1.
         25    2    1    2    0    0  0.00000000000E+00  0.00000000000E+00 -0.17928286026E+03  0.21855826275E+03  0.12500148092E+03 0.  0.
    9000005    1    3    3    0    0 -0.25817464177E+01  0.56420010559E+02 -0.42873880597E+02  0.70915813776E+02  0.10000000000E+01 0.  0.
    9000005    1    3    3    0    0  0.25817464177E+01 -0.56420010559E+02 -0.13640897967E+03  0.14764244898E+03  0.10000000000E+01 0.  0.
<mgrwt>
<rscale>  0 0.12500148E+03</rscale>
<asrwt>0</asrwt>
<pdfrwt beam="2">  1        4 0.49730134E-01 0.12500148E+03</pdfrwt>
<pdfrwt beam="1">  1       -4 0.49094259E-02 0.12500148E+03</pdfrwt>
<totfact> 0.15604422E+03</totfact>
</mgrwt>
</event>
<event>
 5    1  0.1451195E-002  0.1249878E+03  0.7818608E-02  0.1235088E+00
          4   -1    0    0  501    0  0.00000000000E+00  0.00000000000E+00  0.32497133779E+03  0.32497381938E+03  0.12700000000E+01 0.  1.
         -4   -1    0    0    0  501 -0.00000000000E+00 -0.00000000000E+00 -0.11981865601E+02  0.12048983496E+02  0.12700000000E+01 0.  1.
         25    2    1    2    0    0  0.00000000000E+00  0.00000000000E+00  0.31298947219E+03  0.33702280288E+03  0.12498783925E+03 0.  0.
    9000005    1    3    3    0    0  0.11745647749E+02 -0.54260380502E+02  0.79170175637E+02  0.96700909219E+02  0.10000000000E+01 0.  0.
    9000005    1    3    3    0    0 -0.11745647749E+02  0.54260380502E+02  0.23381929655E+03  0.24032189366E+03  0.10000000000E+01 0.  0.
<mgrwt>
<rscale>  0 0.12498784E+03</rscale>
<asrwt>0</asrwt>
<pdfrwt beam="1">  1        4 0.81251531E-01 0.12498784E+03</pdfrwt>
<pdfrwt beam="2">  1       -4 0.30041665E-02 0.12498784E+03</pdfrwt>
<totfact> 0.11996725E+03</totfact>
</mgrwt>
</event>
<event>
 5    1  0.1451195E-002  0.1250040E+03  0.7818608E-02  0.1235063E+00
         -4   -1    0    0    0  501 -0.00000000000E+00  0.00000000000E+00  0.22820669718E+03  0.22821023101E+03  0.12700000000E+01 0.  1.
          4   -1    0    0  501    0  0.00000000000E+00 -0.00000000000E+00 -0.17091030886E+02  0.17138151497E+02  0.12700000000E+01 0.  1.
         25    2    1    2    0    0  0.00000000000E+00  0.00000000000E+00  0.21111566629E+03  0.24534838251E+03  0.12500401691E+03 0.  0.
    9000005    1    3    3    0    0 -0.18266818492E+02  0.52939126744E+02  0.15999550574E+03  0.16951634038E+03  0.10000000000E+01 0.  0.
    9000005    1    3    3    0    0  0.18266818492E+02 -0.52939126744E+02  0.51120160551E+02  0.75832042127E+02  0.10000000000E+01 0.  0.
<mgrwt>
<rscale>  0 0.12500402E+03</rscale>
<asrwt>0</asrwt>
<pdfrwt beam="2">  1        4 0.42790896E-02 0.12500402E+03</pdfrwt>
<pdfrwt beam="1">  1       -4 0.57058005E-01 0.12500402E+03</pdfrwt>
<totfact> 0.14652601E+03</totfact>
</mgrwt>
</event>
<event>
 5    1  0.1451195E-002  0.1250046E+03  0.7818608E-02  0.1235062E+00
          4   -1    0    0  501    0  0.00000000000E+00  0.00000000000E+00  0.22769576369E+03  0.22769930545E+03  0.12700000000E+01 0.  1.
         -4   -1    0    0    0  501 -0.00000000000E+00 -0.00000000000E+00 -0.17129637782E+02  0.17176652483E+02  0.12700000000E+01 0.  1.
         25    2    1    2    0    0  0.00000000000E+00  0.00000000000E+00  0.21056612590E+03  0.24487595793E+03  0.12500456549E+03 0.  0.
    9000005    1    3    3    0    0  0.83661149911E+01  0.37358080761E+02  0.20204572852E+03  0.20564312411E+03  0.10000000000E+01 0.  0.
    9000005    1    3    3    0    0 -0.83661149911E+01 -0.37358080761E+02  0.85203973812E+01  0.39232833822E+02  0.10000000000E+01 0.  0.
<mgrwt>
<rscale>  0 0.12500457E+03</rscale>
<asrwt>0</asrwt>
<pdfrwt beam="1">  1        4 0.56930260E-01 0.12500457E+03</pdfrwt>
<pdfrwt beam="2">  1       -4 0.42887290E-02 0.12500457E+03</pdfrwt>
<totfact> 0.14668393E+03</totfact>
</mgrwt>
</event>
<event>
 5    1  0.1451195E-002  0.1250091E+03  0.7818608E-02  0.1235055E+00
         -4   -1    0    0    0  501 -0.00000000000E+00  0.00000000000E+00  0.72719041865E+01  0.73819706378E+01  0.12700000000E+01 0.  1.
          4   -1    0    0  501    0  0.00000000000E+00 -0.00000000000E+00 -0.53310225733E+03  0.53310377008E+03  0.12700000000E+01 0.  1.
         25    2    1    2    0    0  0.00000000000E+00  0.00000000000E+00 -0.52583035314E+03  0.54048574071E+03  0.12500910218E+03 0.  0.
    9000005    1    3    3    0    0  0.38475702476E+01 -0.51167926174E+02 -0.10866251790E+03  0.12017280583E+03  0.10000000000E+01 0.  0.
    9000005    1    3    3    0    0 -0.38475702476E+01  0.51167926174E+02 -0.41716783525E+03  0.42031293488E+03  0.10000000000E+01 0.  0.
<mgrwt>
<rscale>  0 0.12500910E+03</rscale>
<asrwt>0</asrwt>
<pdfrwt beam="2">  1        4 0.13328938E+00 0.12500910E+03</pdfrwt>
<pdfrwt beam="1">  1       -4 0.18319253E-02 0.12500910E+03</pdfrwt>
<totfact> 0.81491415E+02</totfact>
</mgrwt>
</event>
<event>
 5    1  0.1451195E-002  0.1249974E+03  0.7818608E-02  0.1235073E+00
          4   -1    0    0  501    0  0.00000000000E+00  0.00000000000E+00  0.19815394605E+02  0.19856051051E+02  0.12700000000E+01 0. -1.
         -4   -1    0    0    0  501 -0.00000000000E+00 -0.00000000000E+00 -0.19687922102E+03  0.19688331714E+03  0.12700000000E+01 0. -1.
         25    2    1    2    0    0  0.00000000000E+00  0.00000000000E+00 -0.17706382641E+03  0.21673936819E+03  0.12499742037E+03 0.  0.
    9000005    1    3    3    0    0  0.51773714655E+02  0.32414149136E+02 -0.65666488200E+02  0.89689922879E+02  0.10000000000E+01 0.  0.
    9000005    1    3    3    0    0 -0.51773714655E+02 -0.32414149136E+02 -0.11139733821E+03  0.12704944531E+03  0.10000000000E+01 0.  0.
<mgrwt>
<rscale>  0 0.12499742E+03</rscale>
<asrwt>0</asrwt>
<pdfrwt beam="1">  1        4 0.49594433E-02 0.12499742E+03</pdfrwt>
<pdfrwt beam="2">  1       -4 0.49225393E-01 0.12499742E+03</pdfrwt>
<totfact> 0.15673945E+03</totfact>
</mgrwt>
</event>
<event>
 5    1  0.1451195E-002  0.1249930E+03  0.7818608E-02  0.1235080E+00
         -4   -1    0    0    0  501 -0.00000000000E+00  0.00000000000E+00  0.52664407039E+02  0.52679717812E+02  0.12700000000E+01 0. -1.
          4   -1    0    0  501    0  0.00000000000E+00 -0.00000000000E+00 -0.74132620799E+02  0.74143498478E+02  0.12700000000E+01 0. -1.
         25    2    1    2    0    0  0.00000000000E+00  0.00000000000E+00 -0.21468213760E+02  0.12682321629E+03  0.12499297575E+03 0.  0.
    9000005    1    3    3    0    0  0.18852789876E+02  0.43891138884E+02  0.30141657878E+02  0.56492294149E+02  0.10000000000E+01 0.  0.
    9000005    1    3    3    0    0 -0.18852789876E+02 -0.43891138884E+02 -0.51609871638E+02  0.70330922140E+02  0.10000000000E+01 0.  0.
<mgrwt>
<rscale>  0 0.12499298E+03</rscale>
<asrwt>0</asrwt>
<pdfrwt beam="2">  1        4 0.18536429E-01 0.12499298E+03</pdfrwt>
<pdfrwt beam="1">  1       -4 0.13169375E-01 0.12499298E+03</pdfrwt>
<totfact> 0.19739742E+03</totfact>
</mgrwt>
</event>
<event>
 5    1  0.1451195E-002  0.1249980E+03  0.7818608E-02  0.1235072E+00
         -4   -1    0    0    0  501 -0.00000000000E+00  0.00000000000E+00  0.21690899857E+02  0.21728047234E+02  0.12700000000E+01 0.  1.
          4   -1    0    0  501    0  0.00000000000E+00 -0.00000000000E+00 -0.17988770627E+03  0.17989218929E+03  0.12700000000E+01 0.  1.
         25    2    1    2    0    0  0.00000000000E+00  0.00000000000E+00 -0.15819680641E+03  0.20162023652E+03  0.12499796085E+03 0.  0.
    9000005    1    3    3    0    0  0.16265649409E+02 -0.53496223766E+02 -0.34087498530E+02  0.65493319232E+02  0.10000000000E+01 0.  0.
    9000005    1    3    3    0    0 -0.16265649409E+02  0.53496223766E+02 -0.12410930788E+03  0.13612691729E+03  0.10000000000E+01 0.  0.
<mgrwt>
<rscale>  0 0.12499796E+03</rscale>
<asrwt>0</asrwt>
<pdfrwt beam="2">  1        4 0.44977126E-01 0.12499796E+03</pdfrwt>
<pdfrwt beam="1">  1       -4 0.54279293E-02 0.12499796E+03</pdfrwt>
<totfact> 0.16258136E+03</totfact>
</mgrwt>
</event>
<event>
 5    1  0.1451195E-002  0.1249978E+03  0.7818608E-02  0.1235073E+00
         -4   -1    0    0    0  501 -0.00000000000E+00  0.00000000000E+00  0.15746865897E+03  0.15747378023E+03  0.12700000000E+01 0. -1.
          4   -1    0    0  501    0  0.00000000000E+00 -0.00000000000E+00 -0.24783847849E+02  0.24816365854E+02  0.12700000000E+01 0. -1.
         25    2    1    2    0    0  0.00000000000E+00  0.00000000000E+00  0.13268481113E+03  0.18229014608E+03  0.12499775300E+03 0.  0.
    9000005    1    3    3    0    0 -0.42413884920E+02  0.14248962088E+02  0.12996278318E+03  0.13745288489E+03  0.10000000000E+01 0.  0.
    9000005    1    3    3    0    0  0.42413884920E+02 -0.14248962088E+02  0.27220279480E+01  0.44837261187E+02  0.10000000000E+01 0.  0.
<mgrwt>
<rscale>  0 0.12499775E+03</rscale>
<asrwt>0</asrwt>
<pdfrwt beam="2">  1        4 0.62006669E-02 0.12499775E+03</pdfrwt>
<pdfrwt beam="1">  1       -4 0.39371870E-01 0.12499775E+03</pdfrwt>
<totfact> 0.17057434E+03</totfact>
</mgrwt>
</event>
<event>
 5    1  0.1451195E-002  0.1249957E+03  0.7818608E-02  0.1235076E+00
         -4   -1    0    0    0  501 -0.00000000000E+00  0.00000000000E+00  0.11153787346E+02  0.11225857302E+02  0.12700000000E+01 0.  1.
          4   -1    0    0  501    0  0.00000000000E+00 -0.00000000000E+00 -0.34899252857E+03  0.34899483936E+03  0.12700000000E+01 0.  1.
         25    2    1    2    0    0  0.00000000000E+00  0.00000000000E+00 -0.33783874122E+03  0.36022069666E+03  0.12499574085E+03 0.  0.
    9000005    1    3    3    0    0 -0.18150525857E+02 -0.15170465491E+02 -0.22340245965E+01  0.23781830838E+02  0.10000000000E+01 0.  0.
    9000005    1    3    3    0    0  0.18150525857E+02  0.15170465491E+02 -0.33560471663E+03  0.33643886582E+03  0.10000000000E+01 0.  0.
<mgrwt>
<rscale>  0 0.12499574E+03</rscale>
<asrwt>0</asrwt>
<pdfrwt beam="2">  1        4 0.87257394E-01 0.12499574E+03</pdfrwt>
<pdfrwt beam="1">  1       -4 0.27977456E-02 0.12499574E+03</pdfrwt>
<totfact> 0.11438406E+03</totfact>
</mgrwt>
</event>
<event>
 5    1  0.1451195E-002  0.1250023E+03  0.7818608E-02  0.1235066E+00
          4   -1    0    0  501    0  0.00000000000E+00  0.00000000000E+00  0.20871287782E+02  0.20909891288E+02  0.12700000000E+01 0. -1.
         -4   -1    0    0    0  501 -0.00000000000E+00 -0.00000000000E+00 -0.18695215617E+03  0.18695646979E+03  0.12700000000E+01 0. -1.
         25    2    1    2    0    0  0.00000000000E+00  0.00000000000E+00 -0.16608086839E+03  0.20786636108E+03  0.12500227687E+03 0.  0.
    9000005    1    3    3    0    0 -0.46218481173E+02  0.94678909219E+01 -0.15119102972E+03  0.15838407883E+03  0.10000000000E+01 0.  0.
    9000005    1    3    3    0    0  0.46218481173E+02 -0.94678909219E+01 -0.14889838667E+02  0.49482282243E+02  0.10000000000E+01 0.  0.
<mgrwt>
<rscale>  0 0.12500228E+03</rscale>
<asrwt>0</asrwt>
<pdfrwt beam="1">  1        4 0.52231872E-02 0.12500228E+03</pdfrwt>
<pdfrwt beam="2">  1       -4 0.46743399E-01 0.12500228E+03</pdfrwt>
<totfact> 0.16010991E+03</totfact>
</mgrwt>
</event>
<event>
 5    1  0.1451195E-002  0.1249973E+03  0.7818608E-02  0.1235074E+00
          4   -1    0    0  501    0  0.00000000000E+00  0.00000000000E+00  0.39573009965E+02  0.39593383509E+02  0.12700000000E+01 0. -1.
         -4   -1    0    0    0  501 -0.00000000000E+00 -0.00000000000E+00 -0.98655804419E+02  0.98663978460E+02  0.12700000000E+01 0. -1.
         25    2    1    2    0    0  0.00000000000E+00  0.00000000000E+00 -0.59082794453E+02  0.13825736197E+03  0.12499728612E+03 0.  0.
    9000005    1    3    3    0    0 -0.23166110643E+02  0.57265184423E+02 -0.39982629797E+02  0.73590629260E+02  0.10000000000E+01 0.  0.
    9000005    1    3    3    0    0  0.23166110643E+02 -0.57265184423E+02 -0.19100164656E+02  0.64666732709E+02  0.10000000000E+01 0.  0.
<mgrwt>
<rscale>  0 0.12499729E+03</rscale>
<asrwt>0</asrwt>
<pdfrwt beam="1">  1        4 0.98968211E-02 0.12499729E+03</pdfrwt>
<pdfrwt beam="2">  1       -4 0.24667519E-01 0.12499729E+03</pdfrwt>
<totfact> 0.19131061E+03</totfact>
</mgrwt>
</event>
<event>
 5    1  0.1451195E-002  0.1250032E+03  0.7818608E-02  0.1235064E+00
         -4   -1    0    0    0  501 -0.00000000000E+00  0.00000000000E+00  0.63922858256E+02  0.63935472999E+02  0.12700000000E+01 0. -1.
          4   -1    0    0  501    0  0.00000000000E+00 -0.00000000000E+00 -0.61086711958E+02  0.61099912257E+02  0.12700000000E+01 0. -1.
         25    2    1    2    0    0  0.00000000000E+00  0.00000000000E+00  0.28361462982E+01  0.12503538526E+03  0.12500321532E+03 0.  0.
    9000005    1    3    3    0    0 -0.11149851810E+02  0.26553672832E+01  0.62867431000E+02  0.63911533007E+02  0.10000000000E+01 0.  0.
    9000005    1    3    3    0    0  0.11149851810E+02 -0.26553672832E+01 -0.60031284702E+02  0.61123852249E+02  0.10000000000E+01 0.  0.
<mgrwt>
<rscale>  0 0.12500322E+03</rscale>
<asrwt>0</asrwt>
<pdfrwt beam="2">  1        4 0.15274905E-01 0.12500322E+03</pdfrwt>
<pdfrwt beam="1">  1       -4 0.15983941E-01 0.12500322E+03</pdfrwt>
<totfact> 0.19831644E+03</totfact>
</mgrwt>
</event>
<event>
 5    1  0.1451195E-002  0.1249981E+03  0.7818608E-02  0.1235072E+00
         -4   -1    0    0    0  501 -0.00000000000E+00  0.00000000000E+00  0.19157119625E+03  0.19157540587E+03  0.12700000000E+01 0.  1.
          4   -1    0    0  501    0  0.00000000000E+00 -0.00000000000E+00 -0.20365758915E+02  0.20405318821E+02  0.12700000000E+01 0.  1.
         25    2    1    2    0    0  0.00000000000E+00  0.00000000000E+00  0.17120543734E+03  0.21198072469E+03  0.12499810345E+03 0.  0.
    9000005    1    3    3    0    0 -0.40700868646E+02 -0.42370351653E+02  0.49495225887E+02  0.76828281208E+02  0.10000000000E+01 0.  0.
    9000005    1    3    3    0    0  0.40700868646E+02  0.42370351653E+02  0.12171021145E+03  0.13515244348E+03  0.10000000000E+01 0.  0.
<mgrwt>
<rscale>  0 0.12499810E+03</rscale>
<asrwt>0</asrwt>
<pdfrwt beam="2">  1        4 0.50969110E-02 0.12499810E+03</pdfrwt>
<pdfrwt beam="1">  1       -4 0.47898269E-01 0.12499810E+03</pdfrwt>
<totfact> 0.15853990E+03</totfact>
</mgrwt>
</event>
<event>
 5    1  0.1451195E-002  0.1250054E+03  0.7818608E-02  0.1235061E+00
          4   -1    0    0  501    0  0.00000000000E+00  0.00000000000E+00  0.10058797141E+03  0.10059598845E+03  0.12700000000E+01 0.  1.
         -4   -1    0    0    0  501 -0.00000000000E+00 -0.00000000000E+00 -0.38817544678E+02  0.38838314521E+02  0.12700000000E+01 0.  1.
         25    2    1    2    0    0  0.00000000000E+00  0.00000000000E+00  0.61770426731E+02  0.13943430297E+03  0.12500535679E+03 0.  0.
    9000005    1    3    3    0    0 -0.44836932073E+02  0.43119307208E+02  0.37574023733E+02  0.72680343913E+02  0.10000000000E+01 0.  0.
    9000005    1    3    3    0    0  0.44836932073E+02 -0.43119307208E+02  0.24196402997E+02  0.66753959057E+02  0.10000000000E+01 0.  0.
<mgrwt>
<rscale>  0 0.12500536E+03</rscale>
<asrwt>0</asrwt>
<pdfrwt beam="1">  1        4 0.25150591E-01 0.12500536E+03</pdfrwt>
<pdfrwt beam="2">  1       -4 0.97079846E-02 0.12500536E+03</pdfrwt>
<totfact> 0.19066938E+03</totfact>
</mgrwt>
</event>
<event>
 5    1  0.1451195E-002  0.1250130E+03  0.7818608E-02  0.1235049E+00
          4   -1    0    0  501    0  0.00000000000E+00  0.00000000000E+00  0.18194916550E+03  0.18195359772E+03  0.12700000000E+01 0. -1.
         -4   -1    0    0    0  501 -0.00000000000E+00 -0.00000000000E+00 -0.21449902251E+02  0.21487466267E+02  0.12700000000E+01 0. -1.
         25    2    1    2    0    0  0.00000000000E+00  0.00000000000E+00  0.16049926324E+03  0.20344106399E+03  0.12501301138E+03 0.  0.
    9000005    1    3    3    0    0 -0.21026702915E+02  0.20990710269E+02  0.16972968974E+03  0.17231337653E+03  0.10000000000E+01 0.  0.
    9000005    1    3    3    0    0  0.21026702915E+02 -0.20990710269E+02 -0.92304264953E+01  0.31127687456E+02  0.10000000000E+01 0.  0.
<mgrwt>
<rscale>  0 0.12501301E+03</rscale>
<asrwt>0</asrwt>
<pdfrwt beam="1">  1        4 0.45492541E-01 0.12501301E+03</pdfrwt>
<pdfrwt beam="2">  1       -4 0.53677251E-02 0.12501301E+03</pdfrwt>
<totfact> 0.16180310E+03</totfact>
</mgrwt>
</event>
<event>
 5    1  0.1451195E-002  0.1249902E+03  0.7818608E-02  0.1235085E+00
          4   -1    0    0  501    0  0.00000000000E+00  0.00000000000E+00  0.57454679294E+02  0.57468713861E+02  0.12700000000E+01 0. -1.
         -4   -1    0    0    0  501 -0.00000000000E+00 -0.00000000000E+00 -0.67949431326E+02  0.67961298674E+02  0.12700000000E+01 0. -1.
         25    2    1    2    0    0  0.00000000000E+00  0.00000000000E+00 -0.10494752031E+02  0.12543001254E+03  0.12499019251E+03 0.  0.
    9000005    1    3    3    0    0  0.57724701787E+02  0.94139178493E+01 -0.27321916752E+02  0.64561987118E+02  0.10000000000E+01 0.  0.
    9000005    1    3    3    0    0 -0.57724701787E+02 -0.94139178493E+01  0.16827164721E+02  0.60868025417E+02  0.10000000000E+01 0.  0.
<mgrwt>
<rscale>  0 0.12499019E+03</rscale>
<asrwt>0</asrwt>
<pdfrwt beam="1">  1        4 0.14366908E-01 0.12499019E+03</pdfrwt>
<pdfrwt beam="2">  1       -4 0.16990596E-01 0.12499019E+03</pdfrwt>
<totfact> 0.19816299E+03</totfact>
</mgrwt>
</event>
<event>
 5    1  0.1451195E-002  0.1249977E+03  0.7818608E-02  0.1235073E+00
         -4   -1    0    0    0  501 -0.00000000000E+00  0.00000000000E+00  0.48869595762E+02  0.48886095057E+02  0.12700000000E+01 0.  1.
          4   -1    0    0  501    0  0.00000000000E+00 -0.00000000000E+00 -0.79894096001E+02  0.79904189351E+02  0.12700000000E+01 0.  1.
         25    2    1    2    0    0  0.00000000000E+00  0.00000000000E+00 -0.31024500239E+02  0.12879028441E+03  0.12499767095E+03 0.  0.
    9000005    1    3    3    0    0  0.20018861635E+02  0.27764627746E+01 -0.76438815451E+02  0.79071841222E+02  0.10000000000E+01 0.  0.
    9000005    1    3    3    0    0 -0.20018861635E+02 -0.27764627746E+01  0.45414315211E+02  0.49718443186E+02  0.10000000000E+01 0.  0.
<mgrwt>
<rscale>  0 0.12499767E+03</rscale>
<asrwt>0</asrwt>
<pdfrwt beam="2">  1        4 0.19976848E-01 0.12499767E+03</pdfrwt>
<pdfrwt beam="1">  1       -4 0.12220723E-01 0.12499767E+03</pdfrwt>
<totfact> 0.19630710E+03</totfact>
</mgrwt>
</event>
<event>
 5    1  0.1451195E-002  0.1250009E+03  0.7818608E-02  0.1235068E+00
         -4   -1    0    0    0  501 -0.00000000000E+00  0.00000000000E+00  0.36990351817E+02  0.37012147027E+02  0.12700000000E+01 0. -1.
          4   -1    0    0  501    0  0.00000000000E+00 -0.00000000000E+00 -0.10554667388E+03  0.10555431430E+03  0.12700000000E+01 0. -1.
         25    2    1    2    0    0  0.00000000000E+00  0.00000000000E+00 -0.68556322060E+02  0.14256646132E+03  0.12500090640E+03 0.  0.
    9000005    1    3    3    0    0 -0.59420179341E+02 -0.35258125017E+01 -0.55981622989E+02  0.81719833451E+02  0.10000000000E+01 0.  0.
    9000005    1    3    3    0    0  0.59420179341E+02  0.35258125017E+01 -0.12574699071E+02  0.60846627873E+02  0.10000000000E+01 0.  0.
<mgrwt>
<rscale>  0 0.12500091E+03</rscale>
<asrwt>0</asrwt>
<pdfrwt beam="2">  1        4 0.26390347E-01 0.12500091E+03</pdfrwt>
<pdfrwt beam="1">  1       -4 0.92512676E-02 0.12500091E+03</pdfrwt>
<totfact> 0.18909407E+03</totfact>
</mgrwt>
</event>
<event>
 5    1  0.1451195E-002  0.1250016E+03  0.7818608E-02  0.1235067E+00
          4   -1    0    0  501    0  0.00000000000E+00  0.00000000000E+00  0.64307745083E+02  0.64320284341E+02  0.12700000000E+01 0.  1.
         -4   -1    0    0    0  501 -0.00000000000E+00 -0.00000000000E+00 -0.60719523116E+02  0.60732803224E+02  0.12700000000E+01 0.  1.
         25    2    1    2    0    0  0.00000000000E+00  0.00000000000E+00  0.35882219677E+01  0.12505308756E+03  0.12500159748E+03 0.  0.
    9000005    1    3    3    0    0  0.28118605636E+02  0.34550371803E+02 -0.42052765132E+02  0.61268419516E+02  0.10000000000E+01 0.  0.
    9000005    1    3    3    0    0 -0.28118605636E+02 -0.34550371803E+02  0.45640987100E+02  0.63784668049E+02  0.10000000000E+01 0.  0.
<mgrwt>
<rscale>  0 0.12500160E+03</rscale>
<asrwt>0</asrwt>
<pdfrwt beam="1">  1        4 0.16080164E-01 0.12500160E+03</pdfrwt>
<pdfrwt beam="2">  1       -4 0.15183108E-01 0.12500160E+03</pdfrwt>
<totfact> 0.19831435E+03</totfact>
</mgrwt>
</event>
<event>
 5    1  0.1451195E-002  0.1250011E+03  0.7818608E-02  0.1235068E+00
         -4   -1    0    0    0  501 -0.00000000000E+00  0.00000000000E+00  0.31865972109E+03  0.31866225184E+03  0.12700000000E+01 0. -1.
          4   -1    0    0  501    0  0.00000000000E+00 -0.00000000000E+00 -0.12223113147E+02  0.12288913499E+02  0.12700000000E+01 0. -1.
         25    2    1    2    0    0  0.00000000000E+00  0.00000000000E+00  0.30643660794E+03  0.33095116534E+03  0.12500111659E+03 0.  0.
    9000005    1    3    3    0    0  0.31016216017E+02  0.44822489790E+02  0.72293145134E+02  0.90544795987E+02  0.10000000000E+01 0.  0.
    9000005    1    3    3    0    0 -0.31016216017E+02 -0.44822489790E+02  0.23414346281E+03  0.24040636935E+03  0.10000000000E+01 0.  0.
<mgrwt>
<rscale>  0 0.12500112E+03</rscale>
<asrwt>0</asrwt>
<pdfrwt beam="2">  1        4 0.30643197E-02 0.12500112E+03</pdfrwt>
<pdfrwt beam="1">  1       -4 0.79673471E-01 0.12500112E+03</pdfrwt>
<totfact> 0.12145572E+03</totfact>
</mgrwt>
</event>
<event>
 5    1  0.1451195E-002  0.1249969E+03  0.7818608E-02  0.1235074E+00
          4   -1    0    0  501    0  0.00000000000E+00  0.00000000000E+00  0.52492970077E+02  0.52508330839E+02  0.12700000000E+01 0. -1.
         -4   -1    0    0    0  501 -0.00000000000E+00 -0.00000000000E+00 -0.74379315735E+02  0.74390157341E+02  0.12700000000E+01 0. -1.
         25    2    1    2    0    0  0.00000000000E+00  0.00000000000E+00 -0.21886345658E+02  0.12689848818E+03  0.12499685666E+03 0.  0.
    9000005    1    3    3    0    0 -0.40813828562E+02  0.36463666408E+02 -0.41563026128E+02  0.68730289616E+02  0.10000000000E+01 0.  0.
    9000005    1    3    3    0    0  0.40813828562E+02 -0.36463666408E+02  0.19676680471E+02  0.58168198564E+02  0.10000000000E+01 0.  0.
<mgrwt>
<rscale>  0 0.12499686E+03</rscale>
<asrwt>0</asrwt>
<pdfrwt beam="1">  1        4 0.13126518E-01 0.12499686E+03</pdfrwt>
<pdfrwt beam="2">  1       -4 0.18598104E-01 0.12499686E+03</pdfrwt>
<totfact> 0.19733895E+03</totfact>
</mgrwt>
</event>
<event>
 5    1  0.1451195E-002  0.1250000E+03  0.7818608E-02  0.1235069E+00
         -4   -1    0    0    0  501 -0.00000000000E+00  0.00000000000E+00  0.81771664268E+01  0.82752009505E+01  0.12700000000E+01 0. -1.
          4   -1    0    0  501    0  0.00000000000E+00 -0.00000000000E+00 -0.47475686096E+03  0.47475855962E+03  0.12700000000E+01 0. -1.
         25    2    1    2    0    0  0.00000000000E+00  0.00000000000E+00 -0.46657969453E+03  0.48303376057E+03  0.12500000999E+03 0.  0.
    9000005    1    3    3    0    0 -0.35355396772E+02 -0.25537031066E+02 -0.40623940977E+03  0.40857508745E+03  0.10000000000E+01 0.  0.
    9000005    1    3    3    0    0  0.35355396772E+02  0.25537031066E+02 -0.60340284765E+02  0.74458673115E+02  0.10000000000E+01 0.  0.
<mgrwt>
<rscale>  0 0.12500001E+03</rscale>
<asrwt>0</asrwt>
<pdfrwt beam="2">  1        4 0.11870159E+00 0.12500001E+03</pdfrwt>
<pdfrwt beam="1">  1       -4 0.20567599E-02 0.12500001E+03</pdfrwt>
<totfact> 0.90367654E+02</totfact>
</mgrwt>
</event>
<event>
 5    1  0.1451195E-002  0.1249997E+03  0.7818608E-02  0.1235070E+00
          4   -1    0    0  501    0  0.00000000000E+00  0.00000000000E+00  0.13292734824E+03  0.13293341495E+03  0.12700000000E+01 0. -1.
         -4   -1    0    0    0  501 -0.00000000000E+00 -0.00000000000E+00 -0.29365729166E+02  0.29393178621E+02  0.12700000000E+01 0. -1.
         25    2    1    2    0    0  0.00000000000E+00  0.00000000000E+00  0.10356161908E+03  0.16232659357E+03  0.12499965614E+03 0.  0.
    9000005    1    3    3    0    0  0.23454015834E+02  0.10233501962E+02 -0.22256416010E+02  0.33928800079E+02  0.10000000000E+01 0.  0.
    9000005    1    3    3    0    0 -0.23454015834E+02 -0.10233501962E+02  0.12581803509E+03  0.12839779350E+03  0.10000000000E+01 0.  0.
<mgrwt>
<rscale>  0 0.12499966E+03</rscale>
<asrwt>0</asrwt>
<pdfrwt beam="1">  1        4 0.33236026E-01 0.12499966E+03</pdfrwt>
<pdfrwt beam="2">  1       -4 0.73456219E-02 0.12499966E+03</pdfrwt>
<totfact> 0.17948951E+03</totfact>
</mgrwt>
</event>
<event>
 5    1  0.1451195E-002  0.1249912E+03  0.7818608E-02  0.1235083E+00
          4   -1    0    0  501    0  0.00000000000E+00  0.00000000000E+00  0.49664659130E+01  0.51262738578E+01  0.12700000000E+01 0.  1.
         -4   -1    0    0    0  501 -0.00000000000E+00 -0.00000000000E+00 -0.77380202502E+03  0.77380306721E+03  0.12700000000E+01 0.  1.
         25    2    1    2    0    0  0.00000000000E+00  0.00000000000E+00 -0.76883555911E+03  0.77892934107E+03  0.12499120541E+03 0.  0.
    9000005    1    3    3    0    0  0.35824338206E+02 -0.36416210541E+02 -0.16014161088E+03  0.16809479210E+03  0.10000000000E+01 0.  0.
    9000005    1    3    3    0    0 -0.35824338206E+02  0.36416210541E+02 -0.60869394823E+03  0.61083454897E+03  0.10000000000E+01 0.  0.
<mgrwt>
<rscale>  0 0.12499121E+03</rscale>
<asrwt>0</asrwt>
<pdfrwt beam="1">  1        4 0.12617254E-02 0.12499121E+03</pdfrwt>
<pdfrwt beam="2">  1       -4 0.19347021E+00 0.12499121E+03</pdfrwt>
<totfact> 0.54382578E+02</totfact>
</mgrwt>
</event>
<event>
 5    1  0.1451195E-002  0.1249999E+03  0.7818608E-02  0.1235070E+00
         -4   -1    0    0    0  501 -0.00000000000E+00  0.00000000000E+00  0.20654773865E+02  0.20693781274E+02  0.12700000000E+01 0.  1.
          4   -1    0    0  501    0  0.00000000000E+00 -0.00000000000E+00 -0.18890091869E+03  0.18890518781E+03  0.12700000000E+01 0.  1.
         25    2    1    2    0    0  0.00000000000E+00  0.00000000000E+00 -0.16824614482E+03  0.20959896908E+03  0.12499985037E+03 0.  0.
    9000005    1    3    3    0    0  0.21567936725E+02 -0.76437024771E+00 -0.18246213732E+03  0.18373674568E+03  0.10000000000E+01 0.  0.
    9000005    1    3    3    0    0 -0.21567936725E+02  0.76437024771E+00  0.14215992502E+02  0.25862223402E+02  0.10000000000E+01 0.  0.
<mgrwt>
<rscale>  0 0.12499985E+03</rscale>
<asrwt>0</asrwt>
<pdfrwt beam="2">  1        4 0.47230634E-01 0.12499985E+03</pdfrwt>
<pdfrwt beam="1">  1       -4 0.51691036E-02 0.12499985E+03</pdfrwt>
<totfact> 0.15944821E+03</totfact>
</mgrwt>
</event>
<event>
 5    1  0.1451195E-002  0.1249652E+03  0.7818608E-02  0.1235124E+00
         -4   -1    0    0    0  501 -0.00000000000E+00  0.00000000000E+00  0.91740831951E+02  0.91749622054E+02  0.12700000000E+01 0.  1.
          4   -1    0    0  501    0  0.00000000000E+00 -0.00000000000E+00 -0.42535198514E+02  0.42554153882E+02  0.12700000000E+01 0.  1.
         25    2    1    2    0    0  0.00000000000E+00  0.00000000000E+00  0.49205633437E+02  0.13430377594E+03  0.12496523464E+03 0.  0.
    9000005    1    3    3    0    0 -0.22366776626E+02  0.52349982356E+02  0.52260842953E+02  0.77285115355E+02  0.10000000000E+01 0.  0.
    9000005    1    3    3    0    0  0.22366776626E+02 -0.52349982356E+02 -0.30552095155E+01  0.57018660581E+02  0.10000000000E+01 0.  0.
<mgrwt>
<rscale>  0 0.12496523E+03</rscale>
<asrwt>0</asrwt>
<pdfrwt beam="2">  1        4 0.10637268E-01 0.12496523E+03</pdfrwt>
<pdfrwt beam="1">  1       -4 0.22938676E-01 0.12496523E+03</pdfrwt>
<totfact> 0.19351360E+03</totfact>
</mgrwt>
</event>
<event>
 5    1  0.1451195E-002  0.1250006E+03  0.7818608E-02  0.1235068E+00
          4   -1    0    0  501    0  0.00000000000E+00  0.00000000000E+00  0.14552665336E+02  0.14607976191E+02  0.12700000000E+01 0. -1.
         -4   -1    0    0    0  501 -0.00000000000E+00 -0.00000000000E+00 -0.26785839067E+03  0.26786140139E+03  0.12700000000E+01 0. -1.
         25    2    1    2    0    0  0.00000000000E+00  0.00000000000E+00 -0.25330572533E+03  0.28246937758E+03  0.12500063513E+03 0.  0.
    9000005    1    3    3    0    0 -0.19518858089E+02 -0.36884545930E+02 -0.23176942226E+03  0.23549845146E+03  0.10000000000E+01 0.  0.
    9000005    1    3    3    0    0  0.19518858089E+02  0.36884545930E+02 -0.21536303077E+02  0.46970926111E+02  0.10000000000E+01 0.  0.
<mgrwt>
<rscale>  0 0.12500064E+03</rscale>
<asrwt>0</asrwt>
<pdfrwt beam="1">  1        4 0.36454574E-02 0.12500064E+03</pdfrwt>
<pdfrwt beam="2">  1       -4 0.66971872E-01 0.12500064E+03</pdfrwt>
<totfact> 0.13476815E+03</totfact>
</mgrwt>
</event>
<event>
 5    1  0.1451195E-002  0.1250006E+03  0.7818608E-02  0.1235068E+00
         -4   -1    0    0    0  501 -0.00000000000E+00  0.00000000000E+00  0.16336950276E+03  0.16337443905E+03  0.12700000000E+01 0. -1.
          4   -1    0    0  501    0  0.00000000000E+00 -0.00000000000E+00 -0.23888594018E+02  0.23922328987E+02  0.12700000000E+01 0. -1.
         25    2    1    2    0    0  0.00000000000E+00  0.00000000000E+00  0.13948090875E+03  0.18729676803E+03  0.12500062164E+03 0.  0.
    9000005    1    3    3    0    0  0.56759680931E+02  0.26124535701E+02  0.71337538698E+02  0.94837741288E+02  0.10000000000E+01 0.  0.
    9000005    1    3    3    0    0 -0.56759680931E+02 -0.26124535701E+02  0.68143370048E+02  0.92459026744E+02  0.10000000000E+01 0.  0.
<mgrwt>
<rscale>  0 0.12500062E+03</rscale>
<asrwt>0</asrwt>
<pdfrwt beam="2">  1        4 0.59769825E-02 0.12500062E+03</pdfrwt>
<pdfrwt beam="1">  1       -4 0.40847209E-01 0.12500062E+03</pdfrwt>
<totfact> 0.16843420E+03</totfact>
</mgrwt>
</event>
<event>
 5    1  0.1451195E-002  0.1249843E+03  0.7818608E-02  0.1235094E+00
          4   -1    0    0  501    0  0.00000000000E+00  0.00000000000E+00  0.95893254585E+02  0.95901664089E+02  0.12700000000E+01 0. -1.
         -4   -1    0    0    0  501 -0.00000000000E+00 -0.00000000000E+00 -0.40705075973E+02  0.40724883179E+02  0.12700000000E+01 0. -1.
         25    2    1    2    0    0  0.00000000000E+00  0.00000000000E+00  0.55188178613E+02  0.13662654727E+03  0.12498431245E+03 0.  0.
    9000005    1    3    3    0    0 -0.99251176370E+01 -0.45658133193E+02  0.72944601764E+02  0.86631911056E+02  0.10000000000E+01 0.  0.
    9000005    1    3    3    0    0  0.99251176370E+01  0.45658133193E+02 -0.17756423151E+02  0.49994636211E+02  0.10000000000E+01 0.  0.
<mgrwt>
<rscale>  0 0.12498431E+03</rscale>
<asrwt>0</asrwt>
<pdfrwt beam="1">  1        4 0.23976841E-01 0.12498431E+03</pdfrwt>
<pdfrwt beam="2">  1       -4 0.10179796E-01 0.12498431E+03</pdfrwt>
<totfact> 0.19221309E+03</totfact>
</mgrwt>
</event>
<event>
 5    1  0.1451195E-002  0.1250023E+03  0.7818608E-02  0.1235066E+00
          4   -1    0    0  501    0  0.00000000000E+00  0.00000000000E+00  0.14898426410E+02  0.14952458309E+02  0.12700000000E+01 0.  1.
         -4   -1    0    0    0  501 -0.00000000000E+00 -0.00000000000E+00 -0.26167175944E+03  0.26167484134E+03  0.12700000000E+01 0.  1.
         25    2    1    2    0    0  0.00000000000E+00  0.00000000000E+00 -0.24677333303E+03  0.27662729965E+03  0.12500234004E+03 0.  0.
    9000005    1    3    3    0    0 -0.55610354473E+01 -0.55659366569E+02 -0.18505316888E+03  0.19332502558E+03  0.10000000000E+01 0.  0.
    9000005    1    3    3    0    0  0.55610354473E+01  0.55659366569E+02 -0.61720164150E+02  0.83302274067E+02  0.10000000000E+01 0.  0.
<mgrwt>
<rscale>  0 0.12500234E+03</rscale>
<asrwt>0</asrwt>
<pdfrwt beam="1">  1        4 0.37317467E-02 0.12500234E+03</pdfrwt>
<pdfrwt beam="2">  1       -4 0.65425064E-01 0.12500234E+03</pdfrwt>
<totfact> 0.13651633E+03</totfact>
</mgrwt>
</event>
<event>
 5    1  0.1451195E-002  0.1250017E+03  0.7818608E-02  0.1235067E+00
         -4   -1    0    0    0  501 -0.00000000000E+00  0.00000000000E+00  0.75087142177E+01  0.76153587705E+01  0.12700000000E+01 0.  1.
          4   -1    0    0  501    0  0.00000000000E+00 -0.00000000000E+00 -0.51646695016E+03  0.51646851163E+03  0.12700000000E+01 0.  1.
         25    2    1    2    0    0  0.00000000000E+00  0.00000000000E+00 -0.50895823594E+03  0.52408387040E+03  0.12500166912E+03 0.  0.
    9000005    1    3    3    0    0 -0.22317163238E+02 -0.71646284184E+01 -0.49736026182E+03  0.49791326324E+03  0.10000000000E+01 0.  0.
    9000005    1    3    3    0    0  0.22317163238E+02  0.71646284184E+01 -0.11597974122E+02  0.26170607159E+02  0.10000000000E+01 0.  0.
<mgrwt>
<rscale>  0 0.12500167E+03</rscale>
<asrwt>0</asrwt>
<pdfrwt beam="2">  1        4 0.12913014E+00 0.12500167E+03</pdfrwt>
<pdfrwt beam="1">  1       -4 0.18907061E-02 0.12500167E+03</pdfrwt>
<totfact> 0.83896246E+02</totfact>
</mgrwt>
</event>
<event>
 5    1  0.1451195E-002  0.1250365E+03  0.7818608E-02  0.1235012E+00
          4   -1    0    0  501    0  0.00000000000E+00  0.00000000000E+00  0.18388354640E+02  0.18432159026E+02  0.12700000000E+01 0.  1.
         -4   -1    0    0    0  501 -0.00000000000E+00 -0.00000000000E+00 -0.21225614892E+03  0.21225994830E+03  0.12700000000E+01 0.  1.
         25    2    1    2    0    0  0.00000000000E+00  0.00000000000E+00 -0.19386779428E+03  0.23069210733E+03  0.12503650157E+03 0.  0.
    9000005    1    3    3    0    0  0.23647594685E+02 -0.38844344320E+02 -0.17606345136E+03  0.18184452349E+03  0.10000000000E+01 0.  0.
    9000005    1    3    3    0    0 -0.23647594685E+02  0.38844344320E+02 -0.17804342923E+02  0.48847583839E+02  0.10000000000E+01 0.  0.
<mgrwt>
<rscale>  0 0.12503650E+03</rscale>
<asrwt>0</asrwt>
<pdfrwt beam="1">  1        4 0.46030398E-02 0.12503650E+03</pdfrwt>
<pdfrwt beam="2">  1       -4 0.53069980E-01 0.12503650E+03</pdfrwt>
<totfact> 0.15149863E+03</totfact>
</mgrwt>
</event>
<event>
 5    1  0.1451195E-002  0.1250004E+03  0.7818608E-02  0.1235069E+00
         -4   -1    0    0    0  501 -0.00000000000E+00  0.00000000000E+00  0.84643606767E+02  0.84653133826E+02  0.12700000000E+01 0. -1.
          4   -1    0    0  501    0  0.00000000000E+00 -0.00000000000E+00 -0.46128805983E+02  0.46146285240E+02  0.12700000000E+01 0. -1.
         25    2    1    2    0    0  0.00000000000E+00  0.00000000000E+00  0.38514800784E+02  0.13079941907E+03  0.12500039259E+03 0.  0.
    9000005    1    3    3    0    0 -0.54650729962E+02  0.44454840714E+01  0.50628400726E+02  0.74637119277E+02  0.10000000000E+01 0.  0.
    9000005    1    3    3    0    0  0.54650729962E+02 -0.44454840714E+01 -0.12113599942E+02  0.56162299788E+02  0.10000000000E+01 0.  0.
<mgrwt>
<rscale>  0 0.12500039E+03</rscale>
<asrwt>0</asrwt>
<pdfrwt beam="2">  1        4 0.11535577E-01 0.12500039E+03</pdfrwt>
<pdfrwt beam="1">  1       -4 0.21164277E-01 0.12500039E+03</pdfrwt>
<totfact> 0.19521324E+03</totfact>
</mgrwt>
</event>
<event>
 5    1  0.1451195E-002  0.1249656E+03  0.7818608E-02  0.1235123E+00
          4   -1    0    0  501    0  0.00000000000E+00  0.00000000000E+00  0.20059949031E+03  0.20060351047E+03  0.12700000000E+01 0. -1.
         -4   -1    0    0    0  501 -0.00000000000E+00 -0.00000000000E+00 -0.19437228198E+02  0.19478673980E+02  0.12700000000E+01 0. -1.
         25    2    1    2    0    0  0.00000000000E+00  0.00000000000E+00  0.18116226211E+03  0.22008218445E+03  0.12496560606E+03 0.  0.
    9000005    1    3    3    0    0  0.45316268245E+02  0.27138998078E+02  0.31826220003E+02  0.61676556843E+02  0.10000000000E+01 0.  0.
    9000005    1    3    3    0    0 -0.45316268245E+02 -0.27138998078E+02  0.14933604210E+03  0.15840562760E+03  0.10000000000E+01 0.  0.
<mgrwt>
<rscale>  0 0.12496561E+03</rscale>
<asrwt>0</asrwt>
<pdfrwt beam="1">  1        4 0.50155555E-01 0.12496561E+03</pdfrwt>
<pdfrwt beam="2">  1       -4 0.48649904E-02 0.12496561E+03</pdfrwt>
<totfact> 0.15560639E+03</totfact>
</mgrwt>
</event>
<event>
 5    1  0.1451195E-002  0.1250197E+03  0.7818608E-02  0.1235038E+00
          4   -1    0    0  501    0  0.00000000000E+00  0.00000000000E+00  0.17707875053E+02  0.17753358524E+02  0.12700000000E+01 0.  1.
         -4   -1    0    0    0  501 -0.00000000000E+00 -0.00000000000E+00 -0.22033324279E+03  0.22033690290E+03  0.12700000000E+01 0.  1.
         25    2    1    2    0    0  0.00000000000E+00  0.00000000000E+00 -0.20262536774E+03  0.23809026142E+03  0.12501973018E+03 0.  0.
    9000005    1    3    3    0    0  0.13698214680E+02 -0.59666261943E+02 -0.12530985575E+03  0.13946778785E+03  0.10000000000E+01 0.  0.
    9000005    1    3    3    0    0 -0.13698214680E+02  0.59666261943E+02 -0.77315511990E+02  0.98622473575E+02  0.10000000000E+01 0.  0.
<mgrwt>
<rscale>  0 0.12501973E+03</rscale>
<asrwt>0</asrwt>
<pdfrwt beam="1">  1        4 0.44331124E-02 0.12501973E+03</pdfrwt>
<pdfrwt beam="2">  1       -4 0.55089445E-01 0.12501973E+03</pdfrwt>
<totfact> 0.14895704E+03</totfact>
</mgrwt>
</event>
<event>
 5    1  0.1451195E-002  0.1249867E+03  0.7818608E-02  0.1235090E+00
         -4   -1    0    0    0  501 -0.00000000000E+00  0.00000000000E+00  0.91775824464E+01  0.92650374829E+01  0.12700000000E+01 0.  1.
          4   -1    0    0  501    0  0.00000000000E+00 -0.00000000000E+00 -0.42343275087E+03  0.42343465542E+03  0.12700000000E+01 0.  1.
         25    2    1    2    0    0  0.00000000000E+00  0.00000000000E+00 -0.41425516842E+03  0.43269969290E+03  0.12498671798E+03 0.  0.
    9000005    1    3    3    0    0 -0.47604597887E+02 -0.21705748317E+02 -0.32539729440E+03  0.32957811890E+03  0.10000000000E+01 0.  0.
    9000005    1    3    3    0    0  0.47604597887E+02  0.21705748317E+02 -0.88857874021E+02  0.10312157401E+03  0.10000000000E+01 0.  0.
<mgrwt>
<rscale>  0 0.12498672E+03</rscale>
<asrwt>0</asrwt>
<pdfrwt beam="2">  1        4 0.10586929E+00 0.12498672E+03</pdfrwt>
<pdfrwt beam="1">  1       -4 0.23055670E-02 0.12498672E+03</pdfrwt>
<totfact> 0.99237964E+02</totfact>
</mgrwt>
</event>
<event>
 5    1  0.1451195E-002  0.1249996E+03  0.7818608E-02  0.1235070E+00
          4   -1    0    0  501    0  0.00000000000E+00  0.00000000000E+00  0.77508692460E+03  0.77508796506E+03  0.12700000000E+01 0.  1.
         -4   -1    0    0    0  501 -0.00000000000E+00 -0.00000000000E+00 -0.49586561089E+01  0.51187078844E+01  0.12700000000E+01 0.  1.
         25    2    1    2    0    0  0.00000000000E+00  0.00000000000E+00  0.77012826849E+03  0.78020667295E+03  0.12499961033E+03 0.  0.
    9000005    1    3    3    0    0  0.12774601843E+02 -0.58216728469E+02  0.50230922277E+03  0.50583389883E+03  0.10000000000E+01 0.  0.
    9000005    1    3    3    0    0 -0.12774601843E+02  0.58216728469E+02  0.26781904572E+03  0.27437277411E+03  0.10000000000E+01 0.  0.
<mgrwt>
<rscale>  0 0.12499961E+03</rscale>
<asrwt>0</asrwt>
<pdfrwt beam="1">  1        4 0.19379184E+00 0.12499961E+03</pdfrwt>
<pdfrwt beam="2">  1       -4 0.12598008E-02 0.12499961E+03</pdfrwt>
<totfact> 0.54255475E+02</totfact>
</mgrwt>
</event>
<event>
 5    1  0.1451195E-002  0.1250006E+03  0.7818608E-02  0.1235068E+00
         -4   -1    0    0    0  501 -0.00000000000E+00  0.00000000000E+00  0.51263437362E+02  0.51279166434E+02  0.12700000000E+01 0.  1.
          4   -1    0    0  501    0  0.00000000000E+00 -0.00000000000E+00 -0.76167508166E+02  0.76178095278E+02  0.12700000000E+01 0.  1.
         25    2    1    2    0    0  0.00000000000E+00  0.00000000000E+00 -0.24904070804E+02  0.12745726171E+03  0.12500056328E+03 0.  0.
    9000005    1    3    3    0    0  0.30248180363E+02  0.19746260242E+02 -0.64448545460E+02  0.73888309093E+02  0.10000000000E+01 0.  0.
    9000005    1    3    3    0    0 -0.30248180363E+02 -0.19746260242E+02  0.39544474656E+02  0.53568952618E+02  0.10000000000E+01 0.  0.
<mgrwt>
<rscale>  0 0.12500056E+03</rscale>
<asrwt>0</asrwt>
<pdfrwt beam="2">  1        4 0.19045166E-01 0.12500056E+03</pdfrwt>
<pdfrwt beam="1">  1       -4 0.12819149E-01 0.12500056E+03</pdfrwt>
<totfact> 0.19701859E+03</totfact>
</mgrwt>
</event>
<event>
 5    1  0.1451195E-002  0.1250083E+03  0.7818608E-02  0.1235056E+00
          4   -1    0    0  501    0  0.00000000000E+00  0.00000000000E+00  0.65273893159E+03  0.65274016707E+03  0.12700000000E+01 0.  1.
         -4   -1    0    0    0  501 -0.00000000000E+00 -0.00000000000E+00 -0.59165725613E+01  0.60513412458E+01  0.12700000000E+01 0.  1.
         25    2    1    2    0    0  0.00000000000E+00  0.00000000000E+00  0.64682235903E+03  0.65879150832E+03  0.12500834891E+03 0.  0.
    9000005    1    3    3    0    0 -0.30074341241E+02  0.54282189986E+02  0.36240535476E+03  0.36768146990E+03  0.10000000000E+01 0.  0.
    9000005    1    3    3    0    0  0.30074341241E+02 -0.54282189986E+02  0.28441700427E+03  0.29111003842E+03  0.10000000000E+01 0.  0.
<mgrwt>
<rscale>  0 0.12500835E+03</rscale>
<asrwt>0</asrwt>
<pdfrwt beam="1">  1        4 0.16320175E+00 0.12500835E+03</pdfrwt>
<pdfrwt beam="2">  1       -4 0.14961435E-02 0.12500835E+03</pdfrwt>
<totfact> 0.66501339E+02</totfact>
</mgrwt>
</event>
<event>
 5    1  0.1451195E-002  0.1250010E+03  0.7818608E-02  0.1235068E+00
          4   -1    0    0  501    0  0.00000000000E+00  0.00000000000E+00  0.61322145309E+02  0.61335294940E+02  0.12700000000E+01 0. -1.
         -4   -1    0    0    0  501 -0.00000000000E+00 -0.00000000000E+00 -0.63675183246E+02  0.63687847047E+02  0.12700000000E+01 0. -1.
         25    2    1    2    0    0  0.00000000000E+00  0.00000000000E+00 -0.23530379372E+01  0.12502314199E+03  0.12500099697E+03 0.  0.
    9000005    1    3    3    0    0  0.14703112524E+02  0.38949366662E+02 -0.47790329185E+02  0.63388881082E+02  0.10000000000E+01 0.  0.
    9000005    1    3    3    0    0 -0.14703112524E+02 -0.38949366662E+02  0.45437291248E+02  0.61634260904E+02  0.10000000000E+01 0.  0.
<mgrwt>
<rscale>  0 0.12500100E+03</rscale>
<asrwt>0</asrwt>
<pdfrwt beam="1">  1        4 0.15333763E-01 0.12500100E+03</pdfrwt>
<pdfrwt beam="2">  1       -4 0.15922022E-01 0.12500100E+03</pdfrwt>
<totfact> 0.19833338E+03</totfact>
</mgrwt>
</event>
<event>
 5    1  0.1451195E-002  0.1250023E+03  0.7818608E-02  0.1235066E+00
          4   -1    0    0  501    0  0.00000000000E+00  0.00000000000E+00  0.40636423454E+02  0.40656264106E+02  0.12700000000E+01 0.  1.
         -4   -1    0    0    0  501 -0.00000000000E+00 -0.00000000000E+00 -0.96082883845E+02  0.96091276752E+02  0.12700000000E+01 0.  1.
         25    2    1    2    0    0  0.00000000000E+00  0.00000000000E+00 -0.55446460391E+02  0.13674754086E+03  0.12500231982E+03 0.  0.
    9000005    1    3    3    0    0  0.16808377168E+02 -0.56712877934E+02 -0.49780104713E+02  0.77317080207E+02  0.10000000000E+01 0.  0.
    9000005    1    3    3    0    0 -0.16808377168E+02  0.56712877934E+02 -0.56663556783E+01  0.59430460651E+02  0.10000000000E+01 0.  0.
<mgrwt>
<rscale>  0 0.12500232E+03</rscale>
<asrwt>0</asrwt>
<pdfrwt beam="1">  1        4 0.10162635E-01 0.12500232E+03</pdfrwt>
<pdfrwt beam="2">  1       -4 0.24024250E-01 0.12500232E+03</pdfrwt>
<totfact> 0.19206951E+03</totfact>
</mgrwt>
</event>
<event>
 5    1  0.1451195E-002  0.1249996E+03  0.7818608E-02  0.1235070E+00
          4   -1    0    0  501    0  0.00000000000E+00  0.00000000000E+00  0.11800722792E+03  0.11801406163E+03  0.12700000000E+01 0.  1.
         -4   -1    0    0    0  501 -0.00000000000E+00 -0.00000000000E+00 -0.33081595233E+02  0.33105963861E+02  0.12700000000E+01 0.  1.
         25    2    1    2    0    0  0.00000000000E+00  0.00000000000E+00  0.84925632691E+02  0.15112002549E+03  0.12499959607E+03 0.  0.
    9000005    1    3    3    0    0 -0.52072028534E+02  0.94593018590E+01  0.82637008568E+02  0.98136892820E+02  0.10000000000E+01 0.  0.
    9000005    1    3    3    0    0  0.52072028534E+02 -0.94593018590E+01  0.22886241236E+01  0.52983132672E+02  0.10000000000E+01 0.  0.
<mgrwt>
<rscale>  0 0.12499960E+03</rscale>
<asrwt>0</asrwt>
<pdfrwt beam="1">  1        4 0.29505707E-01 0.12499960E+03</pdfrwt>
<pdfrwt beam="2">  1       -4 0.82742992E-02 0.12499960E+03</pdfrwt>
<totfact> 0.18484020E+03</totfact>
</mgrwt>
</event>
<event>
 5    1  0.1451195E-002  0.1250005E+03  0.7818608E-02  0.1235069E+00
         -4   -1    0    0    0  501 -0.00000000000E+00  0.00000000000E+00  0.12026015914E+02  0.12092888768E+02  0.12700000000E+01 0.  1.
          4   -1    0    0  501    0  0.00000000000E+00 -0.00000000000E+00 -0.32385046345E+03  0.32385295363E+03  0.12700000000E+01 0.  1.
         25    2    1    2    0    0  0.00000000000E+00  0.00000000000E+00 -0.31182444753E+03  0.33594584240E+03  0.12500049178E+03 0.  0.
    9000005    1    3    3    0    0  0.33809357277E+02 -0.26403058681E+00 -0.29715955981E+03  0.29907849528E+03  0.10000000000E+01 0.  0.
    9000005    1    3    3    0    0 -0.33809357277E+02  0.26403058681E+00 -0.14664887720E+02  0.36867347117E+02  0.10000000000E+01 0.  0.
<mgrwt>
<rscale>  0 0.12500049E+03</rscale>
<asrwt>0</asrwt>
<pdfrwt beam="2">  1        4 0.80971257E-01 0.12500049E+03</pdfrwt>
<pdfrwt beam="1">  1       -4 0.30151754E-02 0.12500049E+03</pdfrwt>
<totfact> 0.12020094E+03</totfact>
</mgrwt>
</event>
<event>
 5    1  0.1451195E-002  0.1249988E+03  0.7818608E-02  0.1235071E+00
         -4   -1    0    0    0  501 -0.00000000000E+00  0.00000000000E+00  0.65577132433E+02  0.65589429013E+02  0.12700000000E+01 0.  1.
          4   -1    0    0  501    0  0.00000000000E+00 -0.00000000000E+00 -0.59541439643E+02  0.59554982452E+02  0.12700000000E+01 0.  1.
         25    2    1    2    0    0  0.00000000000E+00  0.00000000000E+00  0.60356927901E+01  0.12514441146E+03  0.12499877653E+03 0.  0.
    9000005    1    3    3    0    0  0.35539950992E+01  0.62358752051E+02  0.50022492526E+01  0.62667913130E+02  0.10000000000E+01 0.  0.
    9000005    1    3    3    0    0 -0.35539950992E+01 -0.62358752051E+02  0.10334435375E+01  0.62476498334E+02  0.10000000000E+01 0.  0.
<mgrwt>
<rscale>  0 0.12499878E+03</rscale>
<asrwt>0</asrwt>
<pdfrwt beam="2">  1        4 0.14888590E-01 0.12499878E+03</pdfrwt>
<pdfrwt beam="1">  1       -4 0.16397513E-01 0.12499878E+03</pdfrwt>
<totfact> 0.19827793E+03</totfact>
</mgrwt>
</event>
<event>
 5    1  0.1451195E-002  0.1250006E+03  0.7818608E-02  0.1235068E+00
          4   -1    0    0  501    0  0.00000000000E+00  0.00000000000E+00  0.42709039949E+02  0.42727918196E+02  0.12700000000E+01 0.  1.
         -4   -1    0    0    0  501 -0.00000000000E+00 -0.00000000000E+00 -0.91419340364E+02  0.91428161376E+02  0.12700000000E+01 0.  1.
         25    2    1    2    0    0  0.00000000000E+00  0.00000000000E+00 -0.48710300415E+02  0.13415607957E+03  0.12500064128E+03 0.  0.
    9000005    1    3    3    0    0 -0.60437654281E+02 -0.26901533058E+01 -0.41165820937E+02  0.73181772274E+02  0.10000000000E+01 0.  0.
    9000005    1    3    3    0    0  0.60437654281E+02  0.26901533058E+01 -0.75444794782E+01  0.60974307297E+02  0.10000000000E+01 0.  0.
<mgrwt>
<rscale>  0 0.12500064E+03</rscale>
<asrwt>0</asrwt>
<pdfrwt beam="1">  1        4 0.10680723E-01 0.12500064E+03</pdfrwt>
<pdfrwt beam="2">  1       -4 0.22858297E-01 0.12500064E+03</pdfrwt>
<totfact> 0.19343143E+03</totfact>
</mgrwt>
</event>
<event>
 5    1  0.1451195E-002  0.1250099E+03  0.7818608E-02  0.1235054E+00
          4   -1    0    0  501    0  0.00000000000E+00  0.00000000000E+00  0.10395588720E+03  0.10396364453E+03  0.12700000000E+01 0. -1.
         -4   -1    0    0    0  501 -0.00000000000E+00 -0.00000000000E+00 -0.37562077518E+02  0.37583541178E+02  0.12700000000E+01 0. -1.
         25    2    1    2    0    0  0.00000000000E+00  0.00000000000E+00  0.66393809686E+02  0.14154718571E+03  0.12500987088E+03 0.  0.
    9000005    1    3    3    0    0  0.74761690285E+01  0.10914749324E+02  0.10235776193E+03  0.10321403143E+03  0.10000000000E+01 0.  0.
    9000005    1    3    3    0    0 -0.74761690285E+01 -0.10914749324E+02 -0.35963952245E+02  0.38333154282E+02  0.10000000000E+01 0.  0.
<mgrwt>
<rscale>  0 0.12500987E+03</rscale>
<asrwt>0</asrwt>
<pdfrwt beam="1">  1        4 0.25992624E-01 0.12500987E+03</pdfrwt>
<pdfrwt beam="2">  1       -4 0.93941721E-02 0.12500987E+03</pdfrwt>
<totfact> 0.18957106E+03</totfact>
</mgrwt>
</event>
<event>
 5    1  0.1451195E-002  0.1250013E+03  0.7818608E-02  0.1235067E+00
         -4   -1    0    0    0  501 -0.00000000000E+00  0.00000000000E+00  0.98183332481E+02  0.98191545854E+02  0.12700000000E+01 0. -1.
          4   -1    0    0  501    0  0.00000000000E+00 -0.00000000000E+00 -0.39766074303E+02  0.39786348984E+02  0.12700000000E+01 0. -1.
         25    2    1    2    0    0  0.00000000000E+00  0.00000000000E+00  0.58417258178E+02  0.13797789484E+03  0.12500129364E+03 0.  0.
    9000005    1    3    3    0    0 -0.61829920786E+02 -0.80075862483E+01  0.24490520046E+02  0.66991388358E+02  0.10000000000E+01 0.  0.
    9000005    1    3    3    0    0  0.61829920786E+02  0.80075862483E+01  0.33926738132E+02  0.70986506480E+02  0.10000000000E+01 0.  0.
<mgrwt>
<rscale>  0 0.12500129E+03</rscale>
<asrwt>0</asrwt>
<pdfrwt beam="2">  1        4 0.99450797E-02 0.12500129E+03</pdfrwt>
<pdfrwt beam="1">  1       -4 0.24549394E-01 0.12500129E+03</pdfrwt>
<totfact> 0.19143695E+03</totfact>
</mgrwt>
</event>
<event>
 5    1  0.1451195E-002  0.1250015E+03  0.7818608E-02  0.1235067E+00
          4   -1    0    0  501    0  0.00000000000E+00  0.00000000000E+00  0.25818297557E+03  0.25818609911E+03  0.12700000000E+01 0. -1.
         -4   -1    0    0    0  501 -0.00000000000E+00 -0.00000000000E+00 -0.15100260611E+02  0.15153572863E+02  0.12700000000E+01 0. -1.
         25    2    1    2    0    0  0.00000000000E+00  0.00000000000E+00  0.24308271496E+03  0.27333967197E+03  0.12500147984E+03 0.  0.
    9000005    1    3    3    0    0  0.33627078921E+02 -0.31578974154E+02  0.29353949405E+02  0.54686985573E+02  0.10000000000E+01 0.  0.
    9000005    1    3    3    0    0 -0.33627078921E+02  0.31578974154E+02  0.21372876555E+03  0.21865268640E+03  0.10000000000E+01 0.  0.
<mgrwt>
<rscale>  0 0.12500148E+03</rscale>
<asrwt>0</asrwt>
<pdfrwt beam="1">  1        4 0.64552799E-01 0.12500148E+03</pdfrwt>
<pdfrwt beam="2">  1       -4 0.37821196E-02 0.12500148E+03</pdfrwt>
<totfact> 0.13752126E+03</totfact>
</mgrwt>
</event>
<event>
 5    1  0.1451195E-002  0.1249970E+03  0.7818608E-02  0.1235074E+00
         -4   -1    0    0    0  501 -0.00000000000E+00  0.00000000000E+00  0.47667118285E+01  0.49329952013E+01  0.12700000000E+01 0.  1.
          4   -1    0    0  501    0  0.00000000000E+00 -0.00000000000E+00 -0.80523072207E+03  0.80523172358E+03  0.12700000000E+01 0.  1.
         25    2    1    2    0    0  0.00000000000E+00  0.00000000000E+00 -0.80046401024E+03  0.81016471878E+03  0.12499695945E+03 0.  0.
    9000005    1    3    3    0    0  0.17713952895E+02 -0.24070823851E+02 -0.75593873435E+03  0.75652994572E+03  0.10000000000E+01 0.  0.
    9000005    1    3    3    0    0 -0.17713952895E+02  0.24070823851E+02 -0.44525275893E+02  0.53634773062E+02  0.10000000000E+01 0.  0.
<mgrwt>
<rscale>  0 0.12499696E+03</rscale>
<asrwt>0</asrwt>
<pdfrwt beam="2">  1        4 0.20132813E+00 0.12499696E+03</pdfrwt>
<pdfrwt beam="1">  1       -4 0.12125913E-02 0.12499696E+03</pdfrwt>
<totfact> 0.51591547E+02</totfact>
</mgrwt>
</event>
<event>
 5    1  0.1451195E-002  0.1249935E+03  0.7818608E-02  0.1235079E+00
          4   -1    0    0  501    0  0.00000000000E+00  0.00000000000E+00  0.36236919514E+03  0.36237142063E+03  0.12700000000E+01 0. -1.
         -4   -1    0    0    0  501 -0.00000000000E+00 -0.00000000000E+00 -0.10738949947E+02  0.10813784997E+02  0.12700000000E+01 0. -1.
         25    2    1    2    0    0  0.00000000000E+00  0.00000000000E+00  0.35163024520E+03  0.37318520563E+03  0.12499347328E+03 0.  0.
    9000005    1    3    3    0    0  0.36124363866E+02  0.72795389440E+01  0.32649018732E+03  0.32856476343E+03  0.10000000000E+01 0.  0.
    9000005    1    3    3    0    0 -0.36124363866E+02 -0.72795389440E+01  0.25140057882E+02  0.44620442202E+02  0.10000000000E+01 0.  0.
<mgrwt>
<rscale>  0 0.12499347E+03</rscale>
<asrwt>0</asrwt>
<pdfrwt beam="1">  1        4 0.90601922E-01 0.12499347E+03</pdfrwt>
<pdfrwt beam="2">  1       -4 0.26943703E-02 0.12499347E+03</pdfrwt>
<totfact> 0.11144888E+03</totfact>
</mgrwt>
</event>
<event>
 5    1  0.1451195E-002  0.1249871E+03  0.7818608E-02  0.1235089E+00
          4   -1    0    0  501    0  0.00000000000E+00  0.00000000000E+00  0.15542832022E+02  0.15594631360E+02  0.12700000000E+01 0.  1.
         -4   -1    0    0    0  501 -0.00000000000E+00 -0.00000000000E+00 -0.25079833400E+03  0.25080154951E+03  0.12700000000E+01 0.  1.
         25    2    1    2    0    0  0.00000000000E+00  0.00000000000E+00 -0.23525550197E+03  0.26639618087E+03  0.12498709522E+03 0.  0.
    9000005    1    3    3    0    0 -0.37292174068E+02  0.21883882101E+02 -0.21377286091E+03  0.21810421042E+03  0.10000000000E+01 0.  0.
    9000005    1    3    3    0    0  0.37292174068E+02 -0.21883882101E+02 -0.21482641068E+02  0.48291970449E+02  0.10000000000E+01 0.  0.
<mgrwt>
<rscale>  0 0.12498710E+03</rscale>
<asrwt>0</asrwt>
<pdfrwt beam="1">  1        4 0.38925857E-02 0.12498710E+03</pdfrwt>
<pdfrwt beam="2">  1       -4 0.62706447E-01 0.12498710E+03</pdfrwt>
<totfact> 0.13972183E+03</totfact>
</mgrwt>
</event>
<event>
 5    1  0.1451195E-002  0.1249728E+03  0.7818608E-02  0.1235112E+00
         -4   -1    0    0    0  501 -0.00000000000E+00  0.00000000000E+00  0.14564236656E+02  0.14619503733E+02  0.12700000000E+01 0. -1.
          4   -1    0    0  501    0  0.00000000000E+00 -0.00000000000E+00 -0.26752705183E+03  0.26753006628E+03  0.12700000000E+01 0. -1.
         25    2    1    2    0    0  0.00000000000E+00  0.00000000000E+00 -0.25296281517E+03  0.28214957001E+03  0.12497277301E+03 0.  0.
    9000005    1    3    3    0    0  0.14315843937E+02 -0.34840071560E+02 -0.23902155487E+03  0.24197329949E+03  0.10000000000E+01 0.  0.
    9000005    1    3    3    0    0 -0.14315843937E+02  0.34840071560E+02 -0.13941260308E+02  0.40176270521E+02  0.10000000000E+01 0.  0.
<mgrwt>
<rscale>  0 0.12497277E+03</rscale>
<asrwt>0</asrwt>
<pdfrwt beam="2">  1        4 0.66889032E-01 0.12497277E+03</pdfrwt>
<pdfrwt beam="1">  1       -4 0.36483452E-02 0.12497277E+03</pdfrwt>
<totfact> 0.13494948E+03</totfact>
</mgrwt>
</event>
<event>
 5    1  0.1451195E-002  0.1250021E+03  0.7818608E-02  0.1235066E+00
          4   -1    0    0  501    0  0.00000000000E+00  0.00000000000E+00  0.31447448351E+02  0.31473082273E+02  0.12700000000E+01 0. -1.
         -4   -1    0    0    0  501 -0.00000000000E+00 -0.00000000000E+00 -0.12413978042E+03  0.12414627655E+03  0.12700000000E+01 0. -1.
         25    2    1    2    0    0  0.00000000000E+00  0.00000000000E+00 -0.92692332066E+02  0.15561935883E+03  0.12500206565E+03 0.  0.
    9000005    1    3    3    0    0 -0.53319563995E+02 -0.29098667328E+02 -0.28063393087E+02  0.66919820505E+02  0.10000000000E+01 0.  0.
    9000005    1    3    3    0    0  0.53319563995E+02  0.29098667328E+02 -0.64628938979E+02  0.88699538322E+02  0.10000000000E+01 0.  0.
<mgrwt>
<rscale>  0 0.12500207E+03</rscale>
<asrwt>0</asrwt>
<pdfrwt beam="1">  1        4 0.78658787E-02 0.12500207E+03</pdfrwt>
<pdfrwt beam="2">  1       -4 0.31038960E-01 0.12500207E+03</pdfrwt>
<totfact> 0.18265006E+03</totfact>
</mgrwt>
</event>
<event>
 5    1  0.1451195E-002  0.1249968E+03  0.7818608E-02  0.1235074E+00
         -4   -1    0    0    0  501 -0.00000000000E+00  0.00000000000E+00  0.30195344748E+01  0.32757424265E+01  0.12700000000E+01 0. -1.
          4   -1    0    0  501    0  0.00000000000E+00 -0.00000000000E+00 -0.12406898047E+04  0.12406904547E+04  0.12700000000E+01 0. -1.
         25    2    1    2    0    0  0.00000000000E+00  0.00000000000E+00 -0.12376702702E+04  0.12439661971E+04  0.12499680714E+03 0.  0.
    9000005    1    3    3    0    0 -0.52899419022E+02 -0.12883715402E+02 -0.92407268147E+03  0.92567578520E+03  0.10000000000E+01 0.  0.
    9000005    1    3    3    0    0  0.52899419022E+02  0.12883715402E+02 -0.31359758872E+03  0.31829041189E+03  0.10000000000E+01 0.  0.
<mgrwt>
<rscale>  0 0.12499681E+03</rscale>
<asrwt>0</asrwt>
<pdfrwt beam="2">  1        4 0.31020288E+00 0.12499681E+03</pdfrwt>
<pdfrwt beam="1">  1       -4 0.78699512E-03 0.12499681E+03</pdfrwt>
<totfact> 0.22973189E+02</totfact>
</mgrwt>
</event>
<event>
 5    1  0.1451195E-002  0.1249985E+03  0.7818608E-02  0.1235072E+00
         -4   -1    0    0    0  501 -0.00000000000E+00  0.00000000000E+00  0.14101001581E+03  0.14101573479E+03  0.12700000000E+01 0.  1.
          4   -1    0    0  501    0  0.00000000000E+00 -0.00000000000E+00 -0.27680434167E+02  0.27709553148E+02  0.12700000000E+01 0.  1.
         25    2    1    2    0    0  0.00000000000E+00  0.00000000000E+00  0.11332958164E+03  0.16872528793E+03  0.12499851485E+03 0.  0.
    9000005    1    3    3    0    0 -0.60840328728E+02  0.31832773032E+00  0.75920896686E+02  0.97296605726E+02  0.10000000000E+01 0.  0.
    9000005    1    3    3    0    0  0.60840328728E+02 -0.31832773032E+00  0.37408684952E+02  0.71428682208E+02  0.10000000000E+01 0.  0.
<mgrwt>
<rscale>  0 0.12499851E+03</rscale>
<asrwt>0</asrwt>
<pdfrwt beam="2">  1        4 0.69244634E-02 0.12499851E+03</pdfrwt>
<pdfrwt beam="1">  1       -4 0.35256858E-01 0.12499851E+03</pdfrwt>
<totfact> 0.17655305E+03</totfact>
</mgrwt>
</event>
<event>
 5    1  0.1451195E-002  0.1249994E+03  0.7818608E-02  0.1235070E+00
         -4   -1    0    0    0  501 -0.00000000000E+00  0.00000000000E+00  0.39475672748E+02  0.39496096503E+02  0.12700000000E+01 0.  1.
          4   -1    0    0  501    0  0.00000000000E+00 -0.00000000000E+00 -0.98902243278E+02  0.98910396953E+02  0.12700000000E+01 0.  1.
         25    2    1    2    0    0  0.00000000000E+00  0.00000000000E+00 -0.59426570529E+02  0.13840649346E+03  0.12499936058E+03 0.  0.
    9000005    1    3    3    0    0  0.48321875693E+02 -0.33491040514E+02 -0.53164064925E+02  0.79272134225E+02  0.10000000000E+01 0.  0.
    9000005    1    3    3    0    0 -0.48321875693E+02  0.33491040514E+02 -0.62625056038E+01  0.59134359230E+02  0.10000000000E+01 0.  0.
<mgrwt>
<rscale>  0 0.12499936E+03</rscale>
<asrwt>0</asrwt>
<pdfrwt beam="2">  1        4 0.24729133E-01 0.12499936E+03</pdfrwt>
<pdfrwt beam="1">  1       -4 0.98724906E-02 0.12499936E+03</pdfrwt>
<totfact> 0.19122447E+03</totfact>
</mgrwt>
</event>
<event>
 5    1  0.1451195E-002  0.1249986E+03  0.7818608E-02  0.1235071E+00
         -4   -1    0    0    0  501 -0.00000000000E+00  0.00000000000E+00  0.22019914833E+02  0.22056508093E+02  0.12700000000E+01 0.  1.
          4   -1    0    0  501    0  0.00000000000E+00 -0.00000000000E+00 -0.17720613623E+03  0.17721068709E+03  0.12700000000E+01 0.  1.
         25    2    1    2    0    0  0.00000000000E+00  0.00000000000E+00 -0.15518622140E+03  0.19926719518E+03  0.12499860705E+03 0.  0.
    9000005    1    3    3    0    0  0.41207354032E+02  0.26400499755E+02 -0.15643600364E+02  0.51388273429E+02  0.10000000000E+01 0.  0.
    9000005    1    3    3    0    0 -0.41207354032E+02 -0.26400499755E+02 -0.13954262103E+03  0.14787892175E+03  0.10000000000E+01 0.  0.
<mgrwt>
<rscale>  0 0.12499861E+03</rscale>
<asrwt>0</asrwt>
<pdfrwt beam="2">  1        4 0.44306673E-01 0.12499861E+03</pdfrwt>
<pdfrwt beam="1">  1       -4 0.55101223E-02 0.12499861E+03</pdfrwt>
<totfact> 0.16351953E+03</totfact>
</mgrwt>
</event>
<event>
 5    1  0.1451195E-002  0.1249979E+03  0.7818608E-02  0.1235073E+00
          4   -1    0    0  501    0  0.00000000000E+00  0.00000000000E+00  0.12922840338E+02  0.12985095394E+02  0.12700000000E+01 0. -1.
         -4   -1    0    0    0  501 -0.00000000000E+00 -0.00000000000E+00 -0.30147456634E+03  0.30147724135E+03  0.12700000000E+01 0. -1.
         25    2    1    2    0    0  0.00000000000E+00  0.00000000000E+00 -0.28855172600E+03  0.31446233674E+03  0.12499785058E+03 0.  0.
    9000005    1    3    3    0    0 -0.40524480675E+02  0.47265743326E+02 -0.13076756176E+03  0.14483590451E+03  0.10000000000E+01 0.  0.
    9000005    1    3    3    0    0  0.40524480675E+02 -0.47265743326E+02 -0.15778416424E+03  0.16962643223E+03  0.10000000000E+01 0.  0.
<mgrwt>
<rscale>  0 0.12499785E+03</rscale>
<asrwt>0</asrwt>
<pdfrwt beam="1">  1        4 0.32388273E-02 0.12499785E+03</pdfrwt>
<pdfrwt beam="2">  1       -4 0.75376735E-01 0.12499785E+03</pdfrwt>
<totfact> 0.12575809E+03</totfact>
</mgrwt>
</event>
<event>
 5    1  0.1451195E-002  0.1249986E+03  0.7818608E-02  0.1235071E+00
         -4   -1    0    0    0  501 -0.00000000000E+00  0.00000000000E+00  0.63078025740E+02  0.63090809404E+02  0.12700000000E+01 0.  1.
          4   -1    0    0  501    0  0.00000000000E+00 -0.00000000000E+00 -0.61900297507E+02  0.61913324345E+02  0.12700000000E+01 0.  1.
         25    2    1    2    0    0  0.00000000000E+00  0.00000000000E+00  0.11777282330E+01  0.12500413375E+03  0.12499858563E+03 0.  0.
    9000005    1    3    3    0    0  0.16285317968E+02  0.28441037639E+02  0.53798907532E+02  0.63003386059E+02  0.10000000000E+01 0.  0.
    9000005    1    3    3    0    0 -0.16285317968E+02 -0.28441037639E+02 -0.52621179299E+02  0.62000747690E+02  0.10000000000E+01 0.  0.
<mgrwt>
<rscale>  0 0.12499859E+03</rscale>
<asrwt>0</asrwt>
<pdfrwt beam="2">  1        4 0.15478301E-01 0.12499859E+03</pdfrwt>
<pdfrwt beam="1">  1       -4 0.15772733E-01 0.12499859E+03</pdfrwt>
<totfact> 0.19835488E+03</totfact>
</mgrwt>
</event>
<event>
 5    1  0.1451195E-002  0.1249997E+03  0.7818608E-02  0.1235070E+00
          4   -1    0    0  501    0  0.00000000000E+00  0.00000000000E+00  0.15498864034E+02  0.15550809829E+02  0.12700000000E+01 0. -1.
         -4   -1    0    0    0  501 -0.00000000000E+00 -0.00000000000E+00 -0.25155818361E+03  0.25156138941E+03  0.12700000000E+01 0. -1.
         25    2    1    2    0    0  0.00000000000E+00  0.00000000000E+00 -0.23605931958E+03  0.26711219924E+03  0.12499969849E+03 0.  0.
    9000005    1    3    3    0    0  0.25770115067E+02 -0.36589870070E+02 -0.21123178799E+03  0.21592310131E+03  0.10000000000E+01 0.  0.
    9000005    1    3    3    0    0 -0.25770115067E+02  0.36589870070E+02 -0.24827531594E+02  0.51189097934E+02  0.10000000000E+01 0.  0.
<mgrwt>
<rscale>  0 0.12499970E+03</rscale>
<asrwt>0</asrwt>
<pdfrwt beam="1">  1        4 0.38816108E-02 0.12499970E+03</pdfrwt>
<pdfrwt beam="2">  1       -4 0.62896427E-01 0.12499970E+03</pdfrwt>
<totfact> 0.13945682E+03</totfact>
</mgrwt>
</event>
<event>
 5    1  0.1451195E-002  0.1250009E+03  0.7818608E-02  0.1235068E+00
         -4   -1    0    0    0  501 -0.00000000000E+00  0.00000000000E+00  0.15228887289E+02  0.15281750818E+02  0.12700000000E+01 0.  1.
          4   -1    0    0  501    0  0.00000000000E+00 -0.00000000000E+00 -0.25600743659E+03  0.25601058667E+03  0.12700000000E+01 0.  1.
         25    2    1    2    0    0  0.00000000000E+00  0.00000000000E+00 -0.24077854930E+03  0.27129233749E+03  0.12500089031E+03 0.  0.
    9000005    1    3    3    0    0 -0.29721851654E+02 -0.38303915154E+02 -0.20596518510E+03  0.21159687109E+03  0.10000000000E+01 0.  0.
    9000005    1    3    3    0    0  0.29721851654E+02  0.38303915154E+02 -0.34813364197E+02  0.59695466399E+02  0.10000000000E+01 0.  0.
<mgrwt>
<rscale>  0 0.12500089E+03</rscale>
<asrwt>0</asrwt>
<pdfrwt beam="2">  1        4 0.64008847E-01 0.12500089E+03</pdfrwt>
<pdfrwt beam="1">  1       -4 0.38142244E-02 0.12500089E+03</pdfrwt>
<totfact> 0.13815303E+03</totfact>
</mgrwt>
</event>
<event>
 5    1  0.1451195E-002  0.1250140E+03  0.7818608E-02  0.1235047E+00
         -4   -1    0    0    0  501 -0.00000000000E+00  0.00000000000E+00  0.86001181657E+02  0.86010558342E+02  0.12700000000E+01 0. -1.
          4   -1    0    0  501    0  0.00000000000E+00 -0.00000000000E+00 -0.45410343908E+02  0.45428099606E+02  0.12700000000E+01 0. -1.
         25    2    1    2    0    0  0.00000000000E+00  0.00000000000E+00  0.40590837749E+02  0.13143865795E+03  0.12501401799E+03 0.  0.
    9000005    1    3    3    0    0  0.29707860015E+02  0.53489641336E+02  0.33695091182E+02  0.69857410822E+02  0.10000000000E+01 0.  0.
    9000005    1    3    3    0    0 -0.29707860015E+02 -0.53489641336E+02  0.68957465662E+01  0.61581247127E+02  0.10000000000E+01 0.  0.
<mgrwt>
<rscale>  0 0.12501402E+03</rscale>
<asrwt>0</asrwt>
<pdfrwt beam="2">  1        4 0.11355978E-01 0.12501402E+03</pdfrwt>
<pdfrwt beam="1">  1       -4 0.21503687E-01 0.12501402E+03</pdfrwt>
<totfact> 0.19480975E+03</totfact>
</mgrwt>
</event>
<event>
 5    1  0.1451195E-002  0.1249996E+03  0.7818608E-02  0.1235070E+00
          4   -1    0    0  501    0  0.00000000000E+00  0.00000000000E+00  0.78050876004E+02  0.78061207683E+02  0.12700000000E+01 0.  1.
         -4   -1    0    0    0  501 -0.00000000000E+00 -0.00000000000E+00 -0.50025432298E+02  0.50041550502E+02  0.12700000000E+01 0.  1.
         25    2    1    2    0    0  0.00000000000E+00  0.00000000000E+00  0.28025443705E+02  0.12810275819E+03  0.12499956464E+03 0.  0.
    9000005    1    3    3    0    0  0.54530852486E+01 -0.55963411287E+02  0.41958408105E+02  0.70165144854E+02  0.10000000000E+01 0.  0.
    9000005    1    3    3    0    0 -0.54530852486E+01  0.55963411287E+02 -0.13932964400E+02  0.57937613332E+02  0.10000000000E+01 0.  0.
<mgrwt>
<rscale>  0 0.12499956E+03</rscale>
<asrwt>0</asrwt>
<pdfrwt beam="1">  1        4 0.19516025E-01 0.12499956E+03</pdfrwt>
<pdfrwt beam="2">  1       -4 0.12509664E-01 0.12499956E+03</pdfrwt>
<totfact> 0.19667145E+03</totfact>
</mgrwt>
</event>
<event>
 5    1  0.1451195E-002  0.1249991E+03  0.7818608E-02  0.1235071E+00
         -4   -1    0    0    0  501 -0.00000000000E+00  0.00000000000E+00  0.12402002622E+03  0.12402652863E+03  0.12700000000E+01 0.  1.
          4   -1    0    0  501    0  0.00000000000E+00 -0.00000000000E+00 -0.31476332683E+02  0.31501943102E+02  0.12700000000E+01 0.  1.
         25    2    1    2    0    0  0.00000000000E+00  0.00000000000E+00  0.92543693540E+02  0.15552847173E+03  0.12499908122E+03 0.  0.
    9000005    1    3    3    0    0 -0.51772480130E+02 -0.30342634721E+02  0.67970403870E+02  0.90675470679E+02  0.10000000000E+01 0.  0.
    9000005    1    3    3    0    0  0.51772480130E+02  0.30342634721E+02  0.24573289670E+02  0.64853001055E+02  0.10000000000E+01 0.  0.
<mgrwt>
<rscale>  0 0.12499908E+03</rscale>
<asrwt>0</asrwt>
<pdfrwt beam="2">  1        4 0.78730974E-02 0.12499908E+03</pdfrwt>
<pdfrwt beam="1">  1       -4 0.31009020E-01 0.12499908E+03</pdfrwt>
<totfact> 0.18270634E+03</totfact>
</mgrwt>
</event>
<event>
 5    1  0.1451195E-002  0.1249902E+03  0.7818608E-02  0.1235085E+00
         -4   -1    0    0    0  501 -0.00000000000E+00  0.00000000000E+00  0.15525205455E+02  0.15577063408E+02  0.12700000000E+01 0.  1.
          4   -1    0    0  501    0  0.00000000000E+00 -0.00000000000E+00 -0.25109457281E+03  0.25109778453E+03  0.12700000000E+01 0.  1.
         25    2    1    2    0    0  0.00000000000E+00  0.00000000000E+00 -0.23556936735E+03  0.26667484793E+03  0.12499019036E+03 0.  0.
    9000005    1    3    3    0    0 -0.54855910868E+02 -0.27771824198E+02 -0.14156143366E+03  0.15434080691E+03  0.10000000000E+01 0.  0.
    9000005    1    3    3    0    0  0.54855910868E+02  0.27771824198E+02 -0.94007933693E+02  0.11233404103E+03  0.10000000000E+01 0.  0.
<mgrwt>
<rscale>  0 0.12499019E+03</rscale>
<asrwt>0</asrwt>
<pdfrwt beam="2">  1        4 0.62780514E-01 0.12499019E+03</pdfrwt>
<pdfrwt beam="1">  1       -4 0.38881859E-02 0.12499019E+03</pdfrwt>
<totfact> 0.13962441E+03</totfact>
</mgrwt>
</event>
<event>
 5    1  0.1451195E-002  0.1249396E+03  0.7818608E-02  0.1235164E+00
         -4   -1    0    0    0  501 -0.00000000000E+00  0.00000000000E+00  0.16862487832E+03  0.16862966076E+03  0.12700000000E+01 0. -1.
          4   -1    0    0  501    0  0.00000000000E+00 -0.00000000000E+00 -0.23120391046E+02  0.23155245240E+02  0.12700000000E+01 0. -1.
         25    2    1    2    0    0  0.00000000000E+00  0.00000000000E+00  0.14550448727E+03  0.19178490600E+03  0.12493956280E+03 0.  0.
    9000005    1    3    3    0    0 -0.19658295951E+02 -0.59166971091E+02  0.78555867219E+02  0.10029557987E+03  0.10000000000E+01 0.  0.
    9000005    1    3    3    0    0  0.19658295951E+02  0.59166971091E+02  0.66948620053E+02  0.91489326125E+02  0.10000000000E+01 0.  0.
<mgrwt>
<rscale>  0 0.12493956E+03</rscale>
<asrwt>0</asrwt>
<pdfrwt beam="2">  1        4 0.57850525E-02 0.12493956E+03</pdfrwt>
<pdfrwt beam="1">  1       -4 0.42161173E-01 0.12493956E+03</pdfrwt>
<totfact> 0.16679678E+03</totfact>
</mgrwt>
</event>
<event>
 5    1  0.1451195E-002  0.1249957E+03  0.7818608E-02  0.1235076E+00
         -4   -1    0    0    0  501 -0.00000000000E+00  0.00000000000E+00  0.22621619606E+03  0.22621976099E+03  0.12700000000E+01 0.  1.
          4   -1    0    0  501    0  0.00000000000E+00 -0.00000000000E+00 -0.17239536829E+02  0.17286252633E+02  0.12700000000E+01 0.  1.
         25    2    1    2    0    0  0.00000000000E+00  0.00000000000E+00  0.20897665923E+03  0.24350601362E+03  0.12499573819E+03 0.  0.
    9000005    1    3    3    0    0 -0.32169979883E+02  0.43981082469E+02  0.44895750715E+02  0.70610704947E+02  0.10000000000E+01 0.  0.
    9000005    1    3    3    0    0  0.32169979883E+02 -0.43981082469E+02  0.16408090852E+03  0.17289530867E+03  0.10000000000E+01 0.  0.
<mgrwt>
<rscale>  0 0.12499574E+03</rscale>
<asrwt>0</asrwt>
<pdfrwt beam="2">  1        4 0.43161694E-02 0.12499574E+03</pdfrwt>
<pdfrwt beam="1">  1       -4 0.56560333E-01 0.12499574E+03</pdfrwt>
<totfact> 0.14717868E+03</totfact>
</mgrwt>
</event>
<event>
 5    1  0.1451195E-002  0.1250119E+03  0.7818608E-02  0.1235051E+00
         -4   -1    0    0    0  501 -0.00000000000E+00  0.00000000000E+00  0.49891275640E+01  0.51482321092E+01  0.12700000000E+01 0.  1.
          4   -1    0    0  501    0  0.00000000000E+00 -0.00000000000E+00 -0.77065099598E+03  0.77065204243E+03  0.12700000000E+01 0.  1.
         25    2    1    2    0    0  0.00000000000E+00  0.00000000000E+00 -0.76566186842E+03  0.77580027454E+03  0.12501187637E+03 0.  0.
    9000005    1    3    3    0    0 -0.57141172672E+01 -0.52139311316E+02 -0.17193980082E+03  0.17976499667E+03  0.10000000000E+01 0.  0.
    9000005    1    3    3    0    0  0.57141172672E+01  0.52139311316E+02 -0.59372206759E+03  0.59603527787E+03  0.10000000000E+01 0.  0.
<mgrwt>
<rscale>  0 0.12501188E+03</rscale>
<asrwt>0</asrwt>
<pdfrwt beam="2">  1        4 0.19268237E+00 0.12501188E+03</pdfrwt>
<pdfrwt beam="1">  1       -4 0.12673034E-02 0.12501188E+03</pdfrwt>
<totfact> 0.54643880E+02</totfact>
</mgrwt>
</event>
<event>
 5    1  0.1451195E-002  0.1249970E+03  0.7818608E-02  0.1235074E+00
         -4   -1    0    0    0  501 -0.00000000000E+00  0.00000000000E+00  0.18266493150E+02  0.18310589067E+02  0.12700000000E+01 0.  1.
          4   -1    0    0  501    0  0.00000000000E+00 -0.00000000000E+00 -0.21353379440E+03  0.21353757105E+03  0.12700000000E+01 0.  1.
         25    2    1    2    0    0  0.00000000000E+00  0.00000000000E+00 -0.19526730125E+03  0.23184816012E+03  0.12499700162E+03 0.  0.
    9000005    1    3    3    0    0 -0.53959562856E+02  0.29143871430E+02 -0.11989647148E+03  0.13467428685E+03  0.10000000000E+01 0.  0.
    9000005    1    3    3    0    0  0.53959562856E+02 -0.29143871430E+02 -0.75370829767E+02  0.97173873265E+02  0.10000000000E+01 0.  0.
<mgrwt>
<rscale>  0 0.12499700E+03</rscale>
<asrwt>0</asrwt>
<pdfrwt beam="2">  1        4 0.53389425E-01 0.12499700E+03</pdfrwt>
<pdfrwt beam="1">  1       -4 0.45726080E-02 0.12499700E+03</pdfrwt>
<totfact> 0.15122543E+03</totfact>
</mgrwt>
</event>
<event>
 5    1  0.1451195E-002  0.1250094E+03  0.7818608E-02  0.1235055E+00
          4   -1    0    0  501    0  0.00000000000E+00  0.00000000000E+00  0.72389590703E+02  0.72400730259E+02  0.12700000000E+01 0.  1.
         -4   -1    0    0    0  501 -0.00000000000E+00 -0.00000000000E+00 -0.53946848763E+02  0.53961795665E+02  0.12700000000E+01 0.  1.
         25    2    1    2    0    0  0.00000000000E+00  0.00000000000E+00  0.18442741940E+02  0.12636252592E+03  0.12500941256E+03 0.  0.
    9000005    1    3    3    0    0  0.54837077437E+02  0.29916908593E+02  0.11168834565E+02  0.63465497297E+02  0.10000000000E+01 0.  0.
    9000005    1    3    3    0    0 -0.54837077437E+02 -0.29916908593E+02  0.72739073745E+01  0.62897028627E+02  0.10000000000E+01 0.  0.
<mgrwt>
<rscale>  0 0.12500941E+03</rscale>
<asrwt>0</asrwt>
<pdfrwt beam="1">  1        4 0.18100658E-01 0.12500941E+03</pdfrwt>
<pdfrwt beam="2">  1       -4 0.13489973E-01 0.12500941E+03</pdfrwt>
<totfact> 0.19756992E+03</totfact>
</mgrwt>
</event>
<event>
 5    1  0.1451195E-002  0.1249994E+03  0.7818608E-02  0.1235070E+00
         -4   -1    0    0    0  501 -0.00000000000E+00  0.00000000000E+00  0.26599498798E+03  0.26599801978E+03  0.12700000000E+01 0. -1.
          4   -1    0    0  501    0  0.00000000000E+00 -0.00000000000E+00 -0.14654713700E+02  0.14709640840E+02  0.12700000000E+01 0. -1.
         25    2    1    2    0    0  0.00000000000E+00  0.00000000000E+00  0.25134027428E+03  0.28070766062E+03  0.12499942904E+03 0.  0.
    9000005    1    3    3    0    0 -0.13460162100E+02 -0.40084777140E+02  0.22900151085E+03  0.23287476741E+03  0.10000000000E+01 0.  0.
    9000005    1    3    3    0    0  0.13460162100E+02  0.40084777140E+02  0.22338763423E+02  0.47832893215E+02  0.10000000000E+01 0.  0.
<mgrwt>
<rscale>  0 0.12499943E+03</rscale>
<asrwt>0</asrwt>
<pdfrwt beam="2">  1        4 0.36709233E-02 0.12499943E+03</pdfrwt>
<pdfrwt beam="1">  1       -4 0.66505992E-01 0.12499943E+03</pdfrwt>
<totfact> 0.13529700E+03</totfact>
</mgrwt>
</event>
<event>
 5    1  0.1451195E-002  0.1250006E+03  0.7818608E-02  0.1235068E+00
         -4   -1    0    0    0  501 -0.00000000000E+00  0.00000000000E+00  0.40500342467E+02  0.40520249752E+02  0.12700000000E+01 0. -1.
          4   -1    0    0  501    0  0.00000000000E+00 -0.00000000000E+00 -0.96402962145E+02  0.96411327189E+02  0.12700000000E+01 0. -1.
         25    2    1    2    0    0  0.00000000000E+00  0.00000000000E+00 -0.55902619677E+02  0.13693157694E+03  0.12500061551E+03 0.  0.
    9000005    1    3    3    0    0 -0.43371969523E+02  0.21511336718E+02 -0.71237739027E+02  0.86137569094E+02  0.10000000000E+01 0.  0.
    9000005    1    3    3    0    0  0.43371969523E+02 -0.21511336718E+02  0.15335119350E+02  0.50794007847E+02  0.10000000000E+01 0.  0.
<mgrwt>
<rscale>  0 0.12500062E+03</rscale>
<asrwt>0</asrwt>
<pdfrwt beam="2">  1        4 0.24104274E-01 0.12500062E+03</pdfrwt>
<pdfrwt beam="1">  1       -4 0.10128620E-01 0.12500062E+03</pdfrwt>
<totfact> 0.19198160E+03</totfact>
</mgrwt>
</event>
<event>
 5    1  0.1451195E-002  0.1249861E+03  0.7818608E-02  0.1235091E+00
         -4   -1    0    0    0  501 -0.00000000000E+00  0.00000000000E+00  0.15744221470E+03  0.15744733681E+03  0.12700000000E+01 0.  1.
          4   -1    0    0  501    0  0.00000000000E+00 -0.00000000000E+00 -0.24783382026E+02  0.24815900641E+02  0.12700000000E+01 0.  1.
         25    2    1    2    0    0  0.00000000000E+00  0.00000000000E+00  0.13265883267E+03  0.18226323745E+03  0.12498608659E+03 0.  0.
    9000005    1    3    3    0    0  0.99856122212E+01  0.11229913961E+02  0.15477500104E+03  0.15550602679E+03  0.10000000000E+01 0.  0.
    9000005    1    3    3    0    0 -0.99856122212E+01 -0.11229913961E+02 -0.22116168373E+02  0.26757210664E+02  0.10000000000E+01 0.  0.
<mgrwt>
<rscale>  0 0.12498609E+03</rscale>
<asrwt>0</asrwt>
<pdfrwt beam="2">  1        4 0.62005507E-02 0.12498609E+03</pdfrwt>
<pdfrwt beam="1">  1       -4 0.39365258E-01 0.12498609E+03</pdfrwt>
<totfact> 0.17063201E+03</totfact>
</mgrwt>
</event>
<event>
 5    1  0.1451195E-002  0.1249837E+03  0.7818608E-02  0.1235095E+00
         -4   -1    0    0    0  501 -0.00000000000E+00  0.00000000000E+00  0.63776500152E+02  0.63789143839E+02  0.12700000000E+01 0. -1.
          4   -1    0    0  501    0  0.00000000000E+00 -0.00000000000E+00 -0.61207736547E+02  0.61220910751E+02  0.12700000000E+01 0. -1.
         25    2    1    2    0    0  0.00000000000E+00  0.00000000000E+00  0.25687636057E+01  0.12501005459E+03  0.12498365974E+03 0.  0.
    9000005    1    3    3    0    0 -0.26279213587E+02 -0.46084765595E+02  0.34303868100E+02  0.63183526756E+02  0.10000000000E+01 0.  0.
    9000005    1    3    3    0    0  0.26279213587E+02  0.46084765595E+02 -0.31735104494E+02  0.61826527834E+02  0.10000000000E+01 0.  0.
<mgrwt>
<rscale>  0 0.12498366E+03</rscale>
<asrwt>0</asrwt>
<pdfrwt beam="2">  1        4 0.15305161E-01 0.12498366E+03</pdfrwt>
<pdfrwt beam="1">  1       -4 0.15947352E-01 0.12498366E+03</pdfrwt>
<totfact> 0.19842096E+03</totfact>
</mgrwt>
</event>
<event>
 5    1  0.1451195E-002  0.1250020E+03  0.7818608E-02  0.1235066E+00
         -4   -1    0    0    0  501 -0.00000000000E+00  0.00000000000E+00  0.13563778527E+02  0.13623104930E+02  0.12700000000E+01 0.  1.
          4   -1    0    0  501    0  0.00000000000E+00 -0.00000000000E+00 -0.28731122968E+03  0.28731403655E+03  0.12700000000E+01 0.  1.
         25    2    1    2    0    0  0.00000000000E+00  0.00000000000E+00 -0.27374745115E+03  0.30093714148E+03  0.12500198443E+03 0.  0.
    9000005    1    3    3    0    0  0.31244033387E+01  0.58162628733E+02 -0.19138663117E+03  0.20005623176E+03  0.10000000000E+01 0.  0.
    9000005    1    3    3    0    0 -0.31244033387E+01 -0.58162628733E+02 -0.82360819985E+02  0.10088090972E+03  0.10000000000E+01 0.  0.
<mgrwt>
<rscale>  0 0.12500198E+03</rscale>
<asrwt>0</asrwt>
<pdfrwt beam="2">  1        4 0.71835554E-01 0.12500198E+03</pdfrwt>
<pdfrwt beam="1">  1       -4 0.33987122E-02 0.12500198E+03</pdfrwt>
<totfact> 0.12944245E+03</totfact>
</mgrwt>
</event>
<event>
 5    1  0.1451195E-002  0.1250209E+03  0.7818608E-02  0.1235037E+00
          4   -1    0    0  501    0  0.00000000000E+00  0.00000000000E+00  0.75826280394E+01  0.76882473935E+01  0.12700000000E+01 0.  1.
         -4   -1    0    0    0  501 -0.00000000000E+00 -0.00000000000E+00 -0.51165961563E+03  0.51166119178E+03  0.12700000000E+01 0.  1.
         25    2    1    2    0    0  0.00000000000E+00  0.00000000000E+00 -0.50407698759E+03  0.51934943917E+03  0.12502092043E+03 0.  0.
    9000005    1    3    3    0    0 -0.36425657572E+02 -0.22675283054E+02 -0.63241119413E+02  0.76429288729E+02  0.10000000000E+01 0.  0.
    9000005    1    3    3    0    0  0.36425657572E+02  0.22675283054E+02 -0.44083586818E+03  0.44292015044E+03  0.10000000000E+01 0.  0.
<mgrwt>
<rscale>  0 0.12502092E+03</rscale>
<asrwt>0</asrwt>
<pdfrwt beam="1">  1        4 0.19090582E-02 0.12502092E+03</pdfrwt>
<pdfrwt beam="2">  1       -4 0.12792819E+00 0.12502092E+03</pdfrwt>
<totfact> 0.84569152E+02</totfact>
</mgrwt>
</event>
<event>
 5    1  0.1451195E-002  0.1250019E+03  0.7818608E-02  0.1235066E+00
          4   -1    0    0  501    0  0.00000000000E+00  0.00000000000E+00  0.66158090691E+03  0.66158212588E+03  0.12700000000E+01 0.  1.
         -4   -1    0    0    0  501 -0.00000000000E+00 -0.00000000000E+00 -0.58350646935E+01  0.59716731305E+01  0.12700000000E+01 0.  1.
         25    2    1    2    0    0  0.00000000000E+00  0.00000000000E+00  0.65574584221E+03  0.66755379901E+03  0.12500185996E+03 0.  0.
    9000005    1    3    3    0    0  0.13876120612E+02  0.57793432917E+02  0.22476975476E+03  0.23249746292E+03  0.10000000000E+01 0.  0.
    9000005    1    3    3    0    0 -0.13876120612E+02 -0.57793432917E+02  0.43097608746E+03  0.43505633609E+03  0.10000000000E+01 0.  0.
<mgrwt>
<rscale>  0 0.12500186E+03</rscale>
<asrwt>0</asrwt>
<pdfrwt beam="1">  1        4 0.16541243E+00 0.12500186E+03</pdfrwt>
<pdfrwt beam="2">  1       -4 0.14759948E-02 0.12500186E+03</pdfrwt>
<totfact> 0.65534965E+02</totfact>
</mgrwt>
</event>
<event>
 5    1  0.1451195E-002  0.1250086E+03  0.7818608E-02  0.1235056E+00
         -4   -1    0    0    0  501 -0.00000000000E+00  0.00000000000E+00  0.54126144318E+02  0.54141041722E+02  0.12700000000E+01 0.  1.
          4   -1    0    0  501    0  0.00000000000E+00 -0.00000000000E+00 -0.72148887280E+02  0.72160063995E+02  0.12700000000E+01 0.  1.
         25    2    1    2    0    0  0.00000000000E+00  0.00000000000E+00 -0.18022742963E+02  0.12630110572E+03  0.12500859987E+03 0.  0.
    9000005    1    3    3    0    0  0.26069402840E+02 -0.31797073278E+01 -0.66308063558E+02  0.71326598096E+02  0.10000000000E+01 0.  0.
    9000005    1    3    3    0    0 -0.26069402840E+02  0.31797073278E+01  0.48285320595E+02  0.54974507621E+02  0.10000000000E+01 0.  0.
<mgrwt>
<rscale>  0 0.12500860E+03</rscale>
<asrwt>0</asrwt>
<pdfrwt beam="2">  1        4 0.18040481E-01 0.12500860E+03</pdfrwt>
<pdfrwt beam="1">  1       -4 0.13534795E-01 0.12500860E+03</pdfrwt>
<totfact> 0.19760682E+03</totfact>
</mgrwt>
</event>
<event>
 5    1  0.1451195E-002  0.1250015E+03  0.7818608E-02  0.1235067E+00
          4   -1    0    0  501    0  0.00000000000E+00  0.00000000000E+00  0.86129634178E+02  0.86138996881E+02  0.12700000000E+01 0.  1.
         -4   -1    0    0    0  501 -0.00000000000E+00 -0.00000000000E+00 -0.45333501042E+02  0.45351286825E+02  0.12700000000E+01 0.  1.
         25    2    1    2    0    0  0.00000000000E+00  0.00000000000E+00  0.40796133136E+02  0.13149028371E+03  0.12500148091E+03 0.  0.
    9000005    1    3    3    0    0  0.53781815678E+02  0.26848417118E+02  0.24223665242E+01  0.60168006938E+02  0.10000000000E+01 0.  0.
    9000005    1    3    3    0    0 -0.53781815678E+02 -0.26848417118E+02  0.38373766612E+02  0.71322276768E+02  0.10000000000E+01 0.  0.
<mgrwt>
<rscale>  0 0.12500148E+03</rscale>
<asrwt>0</asrwt>
<pdfrwt beam="1">  1        4 0.21535802E-01 0.12500148E+03</pdfrwt>
<pdfrwt beam="2">  1       -4 0.11336769E-01 0.12500148E+03</pdfrwt>
<totfact> 0.19483923E+03</totfact>
</mgrwt>
</event>
<event>
 5    1  0.1451195E-002  0.1249982E+03  0.7818608E-02  0.1235072E+00
          4   -1    0    0  501    0  0.00000000000E+00  0.00000000000E+00  0.12092824515E+03  0.12093491380E+03  0.12700000000E+01 0.  1.
         -4   -1    0    0    0  501 -0.00000000000E+00 -0.00000000000E+00 -0.32281240713E+02  0.32306213055E+02  0.12700000000E+01 0.  1.
         25    2    1    2    0    0  0.00000000000E+00  0.00000000000E+00  0.88647004437E+02  0.15324112685E+03  0.12499820624E+03 0.  0.
    9000005    1    3    3    0    0 -0.31490086999E+00  0.62436895043E+02  0.47490354061E+02  0.78452525479E+02  0.10000000000E+01 0.  0.
    9000005    1    3    3    0    0  0.31490086999E+00 -0.62436895043E+02  0.41156650376E+02  0.74788601373E+02  0.10000000000E+01 0.  0.
<mgrwt>
<rscale>  0 0.12499821E+03</rscale>
<asrwt>0</asrwt>
<pdfrwt beam="1">  1        4 0.30236016E-01 0.12499821E+03</pdfrwt>
<pdfrwt beam="2">  1       -4 0.80742653E-02 0.12499821E+03</pdfrwt>
<totfact> 0.18381321E+03</totfact>
</mgrwt>
</event>
<event>
 5    1  0.1451195E-002  0.1249978E+03  0.7818608E-02  0.1235073E+00
          4   -1    0    0  501    0  0.00000000000E+00  0.00000000000E+00  0.44697874266E+02  0.44715912871E+02  0.12700000000E+01 0.  1.
         -4   -1    0    0    0  501 -0.00000000000E+00 -0.00000000000E+00 -0.87348912711E+02  0.87358144736E+02  0.12700000000E+01 0.  1.
         25    2    1    2    0    0  0.00000000000E+00  0.00000000000E+00 -0.42651038445E+02  0.13207405761E+03  0.12499778243E+03 0.  0.
    9000005    1    3    3    0    0  0.15558080489E+02  0.21784474092E+02 -0.80988923463E+02  0.85304295927E+02  0.10000000000E+01 0.  0.
    9000005    1    3    3    0    0 -0.15558080489E+02 -0.21784474092E+02  0.38337885018E+02  0.46769761680E+02  0.10000000000E+01 0.  0.
<mgrwt>
<rscale>  0 0.12499778E+03</rscale>
<asrwt>0</asrwt>
<pdfrwt beam="1">  1        4 0.11177878E-01 0.12499778E+03</pdfrwt>
<pdfrwt beam="2">  1       -4 0.21840637E-01 0.12499778E+03</pdfrwt>
<totfact> 0.19454524E+03</totfact>
</mgrwt>
</event>
<event>
 5    1  0.1451195E-002  0.1250001E+03  0.7818608E-02  0.1235069E+00
          4   -1    0    0  501    0  0.00000000000E+00  0.00000000000E+00  0.35359150255E+02  0.35381950297E+02  0.12700000000E+01 0.  1.
         -4   -1    0    0    0  501 -0.00000000000E+00 -0.00000000000E+00 -0.11041168459E+03  0.11041898837E+03  0.12700000000E+01 0.  1.
         25    2    1    2    0    0  0.00000000000E+00  0.00000000000E+00 -0.75052534333E+02  0.14580093867E+03  0.12500012323E+03 0.  0.
    9000005    1    3    3    0    0 -0.94598684813E+01 -0.31329147927E+02  0.24570528830E+02  0.40935504254E+02  0.10000000000E+01 0.  0.
    9000005    1    3    3    0    0  0.94598684813E+01  0.31329147927E+02 -0.99623063163E+02  0.10486543442E+03  0.10000000000E+01 0.  0.
<mgrwt>
<rscale>  0 0.12500012E+03</rscale>
<asrwt>0</asrwt>
<pdfrwt beam="1">  1        4 0.88435508E-02 0.12500012E+03</pdfrwt>
<pdfrwt beam="2">  1       -4 0.27606683E-01 0.12500012E+03</pdfrwt>
<totfact> 0.18747141E+03</totfact>
</mgrwt>
</event>
<event>
 5    1  0.1451195E-002  0.1250055E+03  0.7818608E-02  0.1235061E+00
          4   -1    0    0  501    0  0.00000000000E+00  0.00000000000E+00  0.22899795291E+02  0.22934984726E+02  0.12700000000E+01 0. -1.
         -4   -1    0    0    0  501 -0.00000000000E+00 -0.00000000000E+00 -0.17042672385E+03  0.17043145573E+03  0.12700000000E+01 0. -1.
         25    2    1    2    0    0  0.00000000000E+00  0.00000000000E+00 -0.14752692856E+03  0.19336644045E+03  0.12500554245E+03 0.  0.
    9000005    1    3    3    0    0  0.35503512212E+02 -0.10250414603E+02  0.41963718313E+01  0.37204568476E+02  0.10000000000E+01 0.  0.
    9000005    1    3    3    0    0 -0.35503512212E+02  0.10250414603E+02 -0.15172330039E+03  0.15616187198E+03  0.10000000000E+01 0.  0.
<mgrwt>
<rscale>  0 0.12500554E+03</rscale>
<asrwt>0</asrwt>
<pdfrwt beam="1">  1        4 0.57299395E-02 0.12500554E+03</pdfrwt>
<pdfrwt beam="2">  1       -4 0.42611667E-01 0.12500554E+03</pdfrwt>
<totfact> 0.16589024E+03</totfact>
</mgrwt>
</event>
<event>
 5    1  0.1451195E-002  0.1249980E+03  0.7818608E-02  0.1235072E+00
          4   -1    0    0  501    0  0.00000000000E+00  0.00000000000E+00  0.47739662424E+03  0.47739831350E+03  0.12700000000E+01 0.  1.
         -4   -1    0    0    0  501 -0.00000000000E+00 -0.00000000000E+00 -0.81311372134E+01  0.82297200671E+01  0.12700000000E+01 0.  1.
         25    2    1    2    0    0  0.00000000000E+00  0.00000000000E+00  0.46926548702E+03  0.48562803357E+03  0.12499795868E+03 0.  0.
    9000005    1    3    3    0    0  0.19198705610E+02  0.54295361184E+01  0.45564104114E+01  0.20489778803E+02  0.10000000000E+01 0.  0.
    9000005    1    3    3    0    0 -0.19198705610E+02 -0.54295361184E+01  0.46470907661E+03  0.46513825476E+03  0.10000000000E+01 0.  0.
<mgrwt>
<rscale>  0 0.12499796E+03</rscale>
<asrwt>0</asrwt>
<pdfrwt beam="1">  1        4 0.11936169E+00 0.12499796E+03</pdfrwt>
<pdfrwt beam="2">  1       -4 0.20453184E-02 0.12499796E+03</pdfrwt>
<totfact> 0.89941516E+02</totfact>
</mgrwt>
</event>
<event>
 5    1  0.1451195E-002  0.1249997E+03  0.7818608E-02  0.1235070E+00
         -4   -1    0    0    0  501 -0.00000000000E+00  0.00000000000E+00  0.19097660086E+02  0.19139841190E+02  0.12700000000E+01 0.  1.
          4   -1    0    0  501    0  0.00000000000E+00 -0.00000000000E+00 -0.20427013927E+03  0.20427408719E+03  0.12700000000E+01 0.  1.
         25    2    1    2    0    0  0.00000000000E+00  0.00000000000E+00 -0.18517247919E+03  0.22341392838E+03  0.12499974539E+03 0.  0.
    9000005    1    3    3    0    0 -0.57893794997E+02 -0.15131822266E+02 -0.60386254743E+02  0.85018605647E+02  0.10000000000E+01 0.  0.
    9000005    1    3    3    0    0  0.57893794997E+02  0.15131822266E+02 -0.12478622444E+03  0.13839532274E+03  0.10000000000E+01 0.  0.
<mgrwt>
<rscale>  0 0.12499975E+03</rscale>
<asrwt>0</asrwt>
<pdfrwt beam="2">  1        4 0.51073294E-01 0.12499975E+03</pdfrwt>
<pdfrwt beam="1">  1       -4 0.47801818E-02 0.12499975E+03</pdfrwt>
<totfact> 0.15425628E+03</totfact>
</mgrwt>
</event>
<event>
 5    1  0.1451195E-002  0.1250101E+03  0.7818608E-02  0.1235053E+00
          4   -1    0    0  501    0  0.00000000000E+00  0.00000000000E+00  0.33201345802E+02  0.33225626602E+02  0.12700000000E+01 0.  1.
         -4   -1    0    0    0  501 -0.00000000000E+00 -0.00000000000E+00 -0.11760169553E+03  0.11760855280E+03  0.12700000000E+01 0.  1.
         25    2    1    2    0    0  0.00000000000E+00  0.00000000000E+00 -0.84400349727E+02  0.15083417940E+03  0.12501012215E+03 0.  0.
    9000005    1    3    3    0    0  0.26811165886E+02  0.56384151649E+02 -0.38814985427E+02  0.73522882608E+02  0.10000000000E+01 0.  0.
    9000005    1    3    3    0    0 -0.26811165886E+02 -0.56384151649E+02 -0.45585364300E+02  0.77311296792E+02  0.10000000000E+01 0.  0.
<mgrwt>
<rscale>  0 0.12501012E+03</rscale>
<asrwt>0</asrwt>
<pdfrwt beam="1">  1        4 0.83042290E-02 0.12501012E+03</pdfrwt>
<pdfrwt beam="2">  1       -4 0.29404315E-01 0.12501012E+03</pdfrwt>
<totfact> 0.18493484E+03</totfact>
</mgrwt>
</event>
<event>
 4    1  0.1451195E-002  0.1250799E+03  0.7818608E-02  0.1234944E+00
         -4   -1    0    0    0  501 -0.00000000000E+00  0.00000000000E+00  0.19985167794E+02  0.20025479563E+02  0.12700000000E+01 0.  1.
          4   -1    0    0  501    0  0.00000000000E+00 -0.00000000000E+00 -0.19546794121E+03  0.19547206690E+03  0.12700000000E+01 0.  1.
    9000005    1    1    2    0    0  0.22223608944E+02  0.54611965525E+02 -0.51853710918E+02  0.78524919032E+02  0.10000000000E+01 0.  0.
    9000005    1    1    2    0    0 -0.22223608944E+02 -0.54611965525E+02 -0.12362906249E+03  0.13697262743E+03  0.10000000000E+01 0.  0.
<mgrwt>
<rscale>  0 0.12507993E+03</rscale>
<asrwt>0</asrwt>
<pdfrwt beam="2">  1        4 0.48872534E-01 0.12507993E+03</pdfrwt>
<pdfrwt beam="1">  1       -4 0.50018472E-02 0.12507993E+03</pdfrwt>
<totfact> 0.15690775E+03</totfact>
</mgrwt>
</event>
<event>
 5    1  0.1451195E-002  0.1250007E+03  0.7818608E-02  0.1235068E+00
         -4   -1    0    0    0  501 -0.00000000000E+00  0.00000000000E+00  0.13755329598E+03  0.13755915868E+03  0.12700000000E+01 0.  1.
          4   -1    0    0  501    0  0.00000000000E+00 -0.00000000000E+00 -0.28377712136E+02  0.28406116350E+02  0.12700000000E+01 0.  1.
         25    2    1    2    0    0  0.00000000000E+00  0.00000000000E+00  0.10917558385E+03  0.16596527503E+03  0.12500065762E+03 0.  0.
    9000005    1    3    3    0    0  0.15341411445E+02  0.16562994503E+02 -0.22780526344E+02  0.32088067449E+02  0.10000000000E+01 0.  0.
    9000005    1    3    3    0    0 -0.15341411445E+02 -0.16562994503E+02  0.13195611019E+03  0.13387720758E+03  0.10000000000E+01 0.  0.
<mgrwt>
<rscale>  0 0.12500066E+03</rscale>
<asrwt>0</asrwt>
<pdfrwt beam="2">  1        4 0.70987115E-02 0.12500066E+03</pdfrwt>
<pdfrwt beam="1">  1       -4 0.34392607E-01 0.12500066E+03</pdfrwt>
<totfact> 0.17780309E+03</totfact>
</mgrwt>
</event>
<event>
 5    1  0.1451195E-002  0.1250114E+03  0.7818608E-02  0.1235051E+00
          4   -1    0    0  501    0  0.00000000000E+00  0.00000000000E+00  0.65585236305E+03  0.65585359267E+03  0.12700000000E+01 0. -1.
         -4   -1    0    0    0  501 -0.00000000000E+00 -0.00000000000E+00 -0.58881407236E+01  0.60235455656E+01  0.12700000000E+01 0. -1.
         25    2    1    2    0    0  0.00000000000E+00  0.00000000000E+00  0.64996422232E+03  0.66187713823E+03  0.12501142274E+03 0.  0.
    9000005    1    3    3    0    0  0.66546387213E+01  0.61665439932E+02  0.36566854291E+03  0.37089269873E+03  0.10000000000E+01 0.  0.
    9000005    1    3    3    0    0 -0.66546387213E+01 -0.61665439932E+02  0.28429567941E+03  0.29098443950E+03  0.10000000000E+01 0.  0.
<mgrwt>
<rscale>  0 0.12501142E+03</rscale>
<asrwt>0</asrwt>
<pdfrwt beam="1">  1        4 0.16398016E+00 0.12501142E+03</pdfrwt>
<pdfrwt beam="2">  1       -4 0.14891146E-02 0.12501142E+03</pdfrwt>
<totfact> 0.66151085E+02</totfact>
</mgrwt>
</event>
<event>
 5    1  0.1451195E-002  0.1249955E+03  0.7818608E-02  0.1235076E+00
         -4   -1    0    0    0  501 -0.00000000000E+00  0.00000000000E+00  0.88686315654E+03  0.88686406586E+03  0.12700000000E+01 0.  1.
          4   -1    0    0  501    0  0.00000000000E+00 -0.00000000000E+00 -0.43117668042E+01  0.44949118984E+01  0.12700000000E+01 0.  1.
         25    2    1    2    0    0  0.00000000000E+00  0.00000000000E+00  0.88255138973E+03  0.89135897776E+03  0.12499548680E+03 0.  0.
    9000005    1    3    3    0    0  0.30022321637E+02 -0.51235958599E+02  0.58001321826E+03  0.58304613592E+03  0.10000000000E+01 0.  0.
    9000005    1    3    3    0    0 -0.30022321637E+02  0.51235958599E+02  0.30253817147E+03  0.30831284185E+03  0.10000000000E+01 0.  0.
<mgrwt>
<rscale>  0 0.12499549E+03</rscale>
<asrwt>0</asrwt>
<pdfrwt beam="2">  1        4 0.11009480E-02 0.12499549E+03</pdfrwt>
<pdfrwt beam="1">  1       -4 0.22173891E+00 0.12499549E+03</pdfrwt>
<totfact> 0.44942755E+02</totfact>
</mgrwt>
</event>
<event>
 5    1  0.1451195E-002  0.1250047E+03  0.7818608E-02  0.1235062E+00
          4   -1    0    0  501    0  0.00000000000E+00  0.00000000000E+00  0.40033385559E+02  0.40053524930E+02  0.12700000000E+01 0.  1.
         -4   -1    0    0    0  501 -0.00000000000E+00 -0.00000000000E+00 -0.97533291668E+02  0.97541559777E+02  0.12700000000E+01 0.  1.
         25    2    1    2    0    0  0.00000000000E+00  0.00000000000E+00 -0.57499906109E+02  0.13759508471E+03  0.12500467244E+03 0.  0.
    9000005    1    3    3    0    0  0.31854544836E+02  0.53349045751E+02 -0.21389988458E+02  0.65721870906E+02  0.10000000000E+01 0.  0.
    9000005    1    3    3    0    0 -0.31854544836E+02 -0.53349045751E+02 -0.36109917651E+02  0.71873213800E+02  0.10000000000E+01 0.  0.
<mgrwt>
<rscale>  0 0.12500467E+03</rscale>
<asrwt>0</asrwt>
<pdfrwt beam="1">  1        4 0.10011898E-01 0.12500467E+03</pdfrwt>
<pdfrwt beam="2">  1       -4 0.24386873E-01 0.12500467E+03</pdfrwt>
<totfact> 0.19161969E+03</totfact>
</mgrwt>
</event>
<event>
 5    1  0.1451195E-002  0.1249997E+03  0.7818608E-02  0.1235070E+00
          4   -1    0    0  501    0  0.00000000000E+00  0.00000000000E+00  0.22157551113E+03  0.22157915071E+03  0.12700000000E+01 0.  1.
         -4   -1    0    0    0  501 -0.00000000000E+00 -0.00000000000E+00 -0.17602693007E+02  0.17648447555E+02  0.12700000000E+01 0.  1.
         25    2    1    2    0    0  0.00000000000E+00  0.00000000000E+00  0.20397281812E+03  0.23922759827E+03  0.12499973297E+03 0.  0.
    9000005    1    3    3    0    0  0.66639892230E+01  0.46967739579E+02  0.24132163780E+02  0.53232871820E+02  0.10000000000E+01 0.  0.
    9000005    1    3    3    0    0 -0.66639892230E+01 -0.46967739579E+02  0.17984065434E+03  0.18599472645E+03  0.10000000000E+01 0.  0.
<mgrwt>
<rscale>  0 0.12499973E+03</rscale>
<asrwt>0</asrwt>
<pdfrwt beam="1">  1        4 0.55400051E-01 0.12499973E+03</pdfrwt>
<pdfrwt beam="2">  1       -4 0.44068476E-02 0.12499973E+03</pdfrwt>
<totfact> 0.14863191E+03</totfact>
</mgrwt>
</event>
<event>
 5    1  0.1451195E-002  0.1250060E+03  0.7818608E-02  0.1235060E+00
          4   -1    0    0  501    0  0.00000000000E+00  0.00000000000E+00  0.82844499555E+02  0.82854233485E+02  0.12700000000E+01 0.  1.
         -4   -1    0    0    0  501 -0.00000000000E+00 -0.00000000000E+00 -0.47135094164E+02  0.47152200393E+02  0.12700000000E+01 0.  1.
         25    2    1    2    0    0  0.00000000000E+00  0.00000000000E+00  0.35709405390E+02  0.13000643388E+03  0.12500604472E+03 0.  0.
    9000005    1    3    3    0    0  0.38792954311E+02 -0.59875493385E+01 -0.32720627912E+02  0.51111481511E+02  0.10000000000E+01 0.  0.
    9000005    1    3    3    0    0 -0.38792954311E+02  0.59875493385E+01  0.68430033303E+02  0.78894952367E+02  0.10000000000E+01 0.  0.
<mgrwt>
<rscale>  0 0.12500604E+03</rscale>
<asrwt>0</asrwt>
<pdfrwt beam="1">  1        4 0.20714480E-01 0.12500604E+03</pdfrwt>
<pdfrwt beam="2">  1       -4 0.11787129E-01 0.12500604E+03</pdfrwt>
<totfact> 0.19561276E+03</totfact>
</mgrwt>
</event>
<event>
 5    1  0.1451195E-002  0.1249899E+03  0.7818608E-02  0.1235085E+00
          4   -1    0    0  501    0  0.00000000000E+00  0.00000000000E+00  0.70073193198E+03  0.70073308284E+03  0.12700000000E+01 0.  1.
         -4   -1    0    0    0  501 -0.00000000000E+00 -0.00000000000E+00 -0.55001150143E+01  0.56448352651E+01  0.12700000000E+01 0.  1.
         25    2    1    2    0    0  0.00000000000E+00  0.00000000000E+00  0.69523181696E+03  0.70637791811E+03  0.12498993509E+03 0.  0.
    9000005    1    3    3    0    0 -0.38082904508E+02  0.20335047732E+02  0.92309210820E+02  0.10191080504E+03  0.10000000000E+01 0.  0.
    9000005    1    3    3    0    0  0.38082904508E+02 -0.20335047732E+02  0.60292260614E+03  0.60446711307E+03  0.10000000000E+01 0.  0.
<mgrwt>
<rscale>  0 0.12498994E+03</rscale>
<asrwt>0</asrwt>
<pdfrwt beam="1">  1        4 0.17520122E+00 0.12498994E+03</pdfrwt>
<pdfrwt beam="2">  1       -4 0.13932626E-02 0.12498994E+03</pdfrwt>
<totfact> 0.61417249E+02</totfact>
</mgrwt>
</event>
<event>
 5    1  0.1451195E-002  0.1250021E+03  0.7818608E-02  0.1235066E+00
         -4   -1    0    0    0  501 -0.00000000000E+00  0.00000000000E+00  0.71013713801E+02  0.71025069150E+02  0.12700000000E+01 0.  1.
          4   -1    0    0  501    0  0.00000000000E+00 -0.00000000000E+00 -0.54985713602E+02  0.55000378183E+02  0.12700000000E+01 0.  1.
         25    2    1    2    0    0  0.00000000000E+00  0.00000000000E+00  0.16028000199E+02  0.12602544733E+03  0.12500206632E+03 0.  0.
    9000005    1    3    3    0    0 -0.19912368619E+02 -0.48536103536E+02 -0.26221678738E+02  0.58658607265E+02  0.10000000000E+01 0.  0.
    9000005    1    3    3    0    0  0.19912368619E+02  0.48536103536E+02  0.42249678937E+02  0.67366840068E+02  0.10000000000E+01 0.  0.
<mgrwt>
<rscale>  0 0.12500207E+03</rscale>
<asrwt>0</asrwt>
<pdfrwt beam="2">  1        4 0.13749681E-01 0.12500207E+03</pdfrwt>
<pdfrwt beam="1">  1       -4 0.17756681E-01 0.12500207E+03</pdfrwt>
<totfact> 0.19778589E+03</totfact>
</mgrwt>
</event>
<event>
 5    1  0.1451195E-002  0.1250090E+03  0.7818608E-02  0.1235055E+00
         -4   -1    0    0    0  501 -0.00000000000E+00  0.00000000000E+00  0.36654585848E+03  0.36654805860E+03  0.12700000000E+01 0. -1.
          4   -1    0    0  501    0  0.00000000000E+00 -0.00000000000E+00 -0.10618383620E+02  0.10694062404E+02  0.12700000000E+01 0. -1.
         25    2    1    2    0    0  0.00000000000E+00  0.00000000000E+00  0.35592747486E+03  0.37724212101E+03  0.12500900169E+03 0.  0.
    9000005    1    3    3    0    0 -0.24280885233E+02 -0.23753608509E+02  0.33627232441E+03  0.33798501663E+03  0.10000000000E+01 0.  0.
    9000005    1    3    3    0    0  0.24280885233E+02  0.23753608509E+02  0.19655150450E+02  0.39257104377E+02  0.10000000000E+01 0.  0.
<mgrwt>
<rscale>  0 0.12500900E+03</rscale>
<asrwt>0</asrwt>
<pdfrwt beam="2">  1        4 0.26643308E-02 0.12500900E+03</pdfrwt>
<pdfrwt beam="1">  1       -4 0.91646200E-01 0.12500900E+03</pdfrwt>
<totfact> 0.11051232E+03</totfact>
</mgrwt>
</event>
<event>
 5    1  0.1451195E-002  0.1249965E+03  0.7818608E-02  0.1235075E+00
         -4   -1    0    0    0  501 -0.00000000000E+00  0.00000000000E+00  0.62676092763E+02  0.62688958390E+02  0.12700000000E+01 0.  1.
          4   -1    0    0  501    0  0.00000000000E+00 -0.00000000000E+00 -0.62295216930E+02  0.62308161201E+02  0.12700000000E+01 0.  1.
         25    2    1    2    0    0  0.00000000000E+00  0.00000000000E+00  0.38087583367E+00  0.12499711959E+03  0.12499653931E+03 0.  0.
    9000005    1    3    3    0    0 -0.52397652210E+02  0.54920446386E+01 -0.33415628267E+02  0.62396159528E+02  0.10000000000E+01 0.  0.
    9000005    1    3    3    0    0  0.52397652210E+02 -0.54920446386E+01  0.33796504101E+02  0.62600960063E+02  0.10000000000E+01 0.  0.
<mgrwt>
<rscale>  0 0.12499654E+03</rscale>
<asrwt>0</asrwt>
<pdfrwt beam="2">  1        4 0.15577030E-01 0.12499654E+03</pdfrwt>
<pdfrwt beam="1">  1       -4 0.15672249E-01 0.12499654E+03</pdfrwt>
<totfact> 0.19836818E+03</totfact>
</mgrwt>
</event>
<event>
 5    1  0.1451195E-002  0.1249982E+03  0.7818608E-02  0.1235072E+00
          4   -1    0    0  501    0  0.00000000000E+00  0.00000000000E+00  0.65197178691E+02  0.65209546918E+02  0.12700000000E+01 0. -1.
         -4   -1    0    0    0  501 -0.00000000000E+00 -0.00000000000E+00 -0.59887905711E+02  0.59901370188E+02  0.12700000000E+01 0. -1.
         25    2    1    2    0    0  0.00000000000E+00  0.00000000000E+00  0.53092729799E+01  0.12511091711E+03  0.12499821279E+03 0.  0.
    9000005    1    3    3    0    0  0.11712086253E+02 -0.52553028622E+02 -0.29093744750E+02  0.61208167472E+02  0.10000000000E+01 0.  0.
    9000005    1    3    3    0    0 -0.11712086253E+02  0.52553028622E+02  0.34403017730E+02  0.63902749633E+02  0.10000000000E+01 0.  0.
<mgrwt>
<rscale>  0 0.12499821E+03</rscale>
<asrwt>0</asrwt>
<pdfrwt beam="1">  1        4 0.16302524E-01 0.12499821E+03</pdfrwt>
<pdfrwt beam="2">  1       -4 0.14975206E-01 0.12499821E+03</pdfrwt>
<totfact> 0.19829870E+03</totfact>
</mgrwt>
</event>
<event>
 5    1  0.1451195E-002  0.1249967E+03  0.7818608E-02  0.1235074E+00
         -4   -1    0    0    0  501 -0.00000000000E+00  0.00000000000E+00  0.15321532663E+03  0.15322059005E+03  0.12700000000E+01 0. -1.
          4   -1    0    0  501    0  0.00000000000E+00 -0.00000000000E+00 -0.25472293130E+02  0.25503933369E+02  0.12700000000E+01 0. -1.
         25    2    1    2    0    0  0.00000000000E+00  0.00000000000E+00  0.12774303350E+03  0.17872452342E+03  0.12499669061E+03 0.  0.
    9000005    1    3    3    0    0  0.44342536107E+02  0.40059498593E+02  0.37739593867E+02  0.70684516559E+02  0.10000000000E+01 0.  0.
    9000005    1    3    3    0    0 -0.44342536107E+02 -0.40059498593E+02  0.90003439636E+02  0.10804000686E+03  0.10000000000E+01 0.  0.
<mgrwt>
<rscale>  0 0.12499669E+03</rscale>
<asrwt>0</asrwt>
<pdfrwt beam="2">  1        4 0.63726863E-02 0.12499669E+03</pdfrwt>
<pdfrwt beam="1">  1       -4 0.38308444E-01 0.12499669E+03</pdfrwt>
<totfact> 0.17211886E+03</totfact>
</mgrwt>
</event>
<event>
 5    1  0.1451195E-002  0.1249671E+03  0.7818608E-02  0.1235121E+00
          4   -1    0    0  501    0  0.00000000000E+00  0.00000000000E+00  0.19266429534E+02  0.19308241945E+02  0.12700000000E+01 0.  1.
         -4   -1    0    0    0  501 -0.00000000000E+00 -0.00000000000E+00 -0.20237882841E+03  0.20238281323E+03  0.12700000000E+01 0.  1.
         25    2    1    2    0    0  0.00000000000E+00  0.00000000000E+00 -0.18311239888E+03  0.22169105517E+03  0.12496708895E+03 0.  0.
    9000005    1    3    3    0    0 -0.13844504381E+02  0.10702271124E+02 -0.19795134074E+03  0.19872579654E+03  0.10000000000E+01 0.  0.
    9000005    1    3    3    0    0  0.13844504381E+02 -0.10702271124E+02  0.14838941859E+02  0.22965258637E+02  0.10000000000E+01 0.  0.
<mgrwt>
<rscale>  0 0.12496709E+03</rscale>
<asrwt>0</asrwt>
<pdfrwt beam="1">  1        4 0.48223327E-02 0.12496709E+03</pdfrwt>
<pdfrwt beam="2">  1       -4 0.50600425E-01 0.12496709E+03</pdfrwt>
<totfact> 0.15500591E+03</totfact>
</mgrwt>
</event>
<event>
 5    1  0.1451195E-002  0.1250044E+03  0.7818608E-02  0.1235062E+00
          4   -1    0    0  501    0  0.00000000000E+00  0.00000000000E+00  0.37465406035E+02  0.37486925046E+02  0.12700000000E+01 0. -1.
         -4   -1    0    0    0  501 -0.00000000000E+00 -0.00000000000E+00 -0.10421488856E+03  0.10422262661E+03  0.12700000000E+01 0. -1.
         25    2    1    2    0    0  0.00000000000E+00  0.00000000000E+00 -0.66749482528E+02  0.14170955166E+03  0.12500441438E+03 0.  0.
    9000005    1    3    3    0    0 -0.58032446785E+02  0.16232217978E+02 -0.52149215131E+02  0.79698120549E+02  0.10000000000E+01 0.  0.
    9000005    1    3    3    0    0  0.58032446785E+02 -0.16232217978E+02 -0.14600267397E+02  0.62011431110E+02  0.10000000000E+01 0.  0.
<mgrwt>
<rscale>  0 0.12500441E+03</rscale>
<asrwt>0</asrwt>
<pdfrwt beam="1">  1        4 0.93700089E-02 0.12500441E+03</pdfrwt>
<pdfrwt beam="2">  1       -4 0.26057379E-01 0.12500441E+03</pdfrwt>
<totfact> 0.18951273E+03</totfact>
</mgrwt>
</event>
<event>
 5    1  0.1451195E-002  0.1250013E+03  0.7818608E-02  0.1235067E+00
         -4   -1    0    0    0  501 -0.00000000000E+00  0.00000000000E+00  0.17573001052E+02  0.17618832707E+02  0.12700000000E+01 0.  1.
          4   -1    0    0  501    0  0.00000000000E+00 -0.00000000000E+00 -0.22195458273E+03  0.22195821610E+03  0.12700000000E+01 0.  1.
         25    2    1    2    0    0  0.00000000000E+00  0.00000000000E+00 -0.20438158168E+03  0.23957704881E+03  0.12500132554E+03 0.  0.
    9000005    1    3    3    0    0  0.37516561140E+02 -0.28878932291E+02 -0.18036930016E+03  0.18648208903E+03  0.10000000000E+01 0.  0.
    9000005    1    3    3    0    0 -0.37516561140E+02  0.28878932291E+02 -0.24012281524E+02  0.53094959780E+02  0.10000000000E+01 0.  0.
<mgrwt>
<rscale>  0 0.12500133E+03</rscale>
<asrwt>0</asrwt>
<pdfrwt beam="2">  1        4 0.55494820E-01 0.12500133E+03</pdfrwt>
<pdfrwt beam="1">  1       -4 0.43994341E-02 0.12500133E+03</pdfrwt>
<totfact> 0.14850582E+03</totfact>
</mgrwt>
</event>
<event>
 5    1  0.1451195E-002  0.1249903E+03  0.7818608E-02  0.1235084E+00
         -4   -1    0    0    0  501 -0.00000000000E+00  0.00000000000E+00  0.53571288740E+03  0.53571439278E+03  0.12700000000E+01 0. -1.
          4   -1    0    0  501    0  0.00000000000E+00 -0.00000000000E+00 -0.72337232449E+01  0.73443619181E+01  0.12700000000E+01 0. -1.
         25    2    1    2    0    0  0.00000000000E+00  0.00000000000E+00  0.52847916416E+03  0.54305875470E+03  0.12499033604E+03 0.  0.
    9000005    1    3    3    0    0 -0.67897833606E+01  0.48285880642E+02  0.94457229522E+02  0.10630520042E+03  0.10000000000E+01 0.  0.
    9000005    1    3    3    0    0  0.67897833606E+01 -0.48285880642E+02  0.43402193464E+03  0.43675355428E+03  0.10000000000E+01 0.  0.
<mgrwt>
<rscale>  0 0.12499034E+03</rscale>
<asrwt>0</asrwt>
<pdfrwt beam="2">  1        4 0.18224484E-02 0.12499034E+03</pdfrwt>
<pdfrwt beam="1">  1       -4 0.13394227E+00 0.12499034E+03</pdfrwt>
<totfact> 0.81159959E+02</totfact>
</mgrwt>
</event>
<event>
 5    1  0.1451195E-002  0.1250008E+03  0.7818608E-02  0.1235068E+00
         -4   -1    0    0    0  501 -0.00000000000E+00  0.00000000000E+00  0.11187796815E+02  0.11259649088E+02  0.12700000000E+01 0.  1.
          4   -1    0    0  501    0  0.00000000000E+00 -0.00000000000E+00 -0.34796673824E+03  0.34796905584E+03  0.12700000000E+01 0.  1.
         25    2    1    2    0    0  0.00000000000E+00  0.00000000000E+00 -0.33677894142E+03  0.35922870493E+03  0.12500082822E+03 0.  0.
    9000005    1    3    3    0    0 -0.47714124464E+02 -0.32971901002E+02 -0.10151435839E+03  0.11691855665E+03  0.10000000000E+01 0.  0.
    9000005    1    3    3    0    0  0.47714124464E+02  0.32971901002E+02 -0.23526458303E+03  0.24231014828E+03  0.10000000000E+01 0.  0.
<mgrwt>
<rscale>  0 0.12500083E+03</rscale>
<asrwt>0</asrwt>
<pdfrwt beam="2">  1        4 0.87000920E-01 0.12500083E+03</pdfrwt>
<pdfrwt beam="1">  1       -4 0.28062216E-02 0.12500083E+03</pdfrwt>
<totfact> 0.11460050E+03</totfact>
</mgrwt>
</event>
<event>
 5    1  0.1451195E-002  0.1250011E+03  0.7818608E-02  0.1235067E+00
         -4   -1    0    0    0  501 -0.00000000000E+00  0.00000000000E+00  0.48600608866E+02  0.48617199448E+02  0.12700000000E+01 0. -1.
          4   -1    0    0  501    0  0.00000000000E+00 -0.00000000000E+00 -0.80340657325E+02  0.80350694580E+02  0.12700000000E+01 0. -1.
         25    2    1    2    0    0  0.00000000000E+00  0.00000000000E+00 -0.31740048459E+02  0.12896789403E+03  0.12500114805E+03 0.  0.
    9000005    1    3    3    0    0 -0.14782745010E+02  0.37034528455E+02  0.33773800186E+02  0.52266197747E+02  0.10000000000E+01 0.  0.
    9000005    1    3    3    0    0  0.14782745010E+02 -0.37034528455E+02 -0.65513848646E+02  0.76701696280E+02  0.10000000000E+01 0.  0.
<mgrwt>
<rscale>  0 0.12500115E+03</rscale>
<asrwt>0</asrwt>
<pdfrwt beam="2">  1        4 0.20088493E-01 0.12500115E+03</pdfrwt>
<pdfrwt beam="1">  1       -4 0.12153481E-01 0.12500115E+03</pdfrwt>
<totfact> 0.19619506E+03</totfact>
</mgrwt>
</event>
<event>
 5    1  0.1451195E-002  0.1249994E+03  0.7818608E-02  0.1235070E+00
         -4   -1    0    0    0  501 -0.00000000000E+00  0.00000000000E+00  0.10516968849E+04  0.10516976517E+04  0.12700000000E+01 0. -1.
          4   -1    0    0  501    0  0.00000000000E+00 -0.00000000000E+00 -0.36048439039E+01  0.38220151193E+01  0.12700000000E+01 0. -1.
         25    2    1    2    0    0  0.00000000000E+00  0.00000000000E+00  0.10480920410E+04  0.10555196668E+04  0.12499936264E+03 0.  0.
    9000005    1    3    3    0    0 -0.10557079390E+01 -0.58734027237E+02  0.70405008973E+03  0.70649722528E+03  0.10000000000E+01 0.  0.
    9000005    1    3    3    0    0  0.10557079390E+01  0.58734027237E+02  0.34404195122E+03  0.34902244151E+03  0.10000000000E+01 0.  0.
<mgrwt>
<rscale>  0 0.12499936E+03</rscale>
<asrwt>0</asrwt>
<pdfrwt beam="2">  1        4 0.92845296E-03 0.12499936E+03</pdfrwt>
<pdfrwt beam="1">  1       -4 0.26295154E+00 0.12499936E+03</pdfrwt>
<totfact> 0.33501154E+02</totfact>
</mgrwt>
</event>
<event>
 5    1  0.1451195E-002  0.1250005E+03  0.7818608E-02  0.1235068E+00
         -4   -1    0    0    0  501 -0.00000000000E+00  0.00000000000E+00  0.15094116202E+03  0.15094650473E+03  0.12700000000E+01 0. -1.
          4   -1    0    0  501    0  0.00000000000E+00 -0.00000000000E+00 -0.25858111380E+02  0.25889280101E+02  0.12700000000E+01 0. -1.
         25    2    1    2    0    0  0.00000000000E+00  0.00000000000E+00  0.12508305064E+03  0.17683578484E+03  0.12500050096E+03 0.  0.
    9000005    1    3    3    0    0  0.27378096778E+02 -0.53375798738E+02  0.87318445064E+02  0.10594360256E+03  0.10000000000E+01 0.  0.
    9000005    1    3    3    0    0 -0.27378096778E+02  0.53375798738E+02  0.37764605575E+02  0.70892182279E+02  0.10000000000E+01 0.  0.
<mgrwt>
<rscale>  0 0.12500050E+03</rscale>
<asrwt>0</asrwt>
<pdfrwt beam="2">  1        4 0.64690919E-02 0.12500050E+03</pdfrwt>
<pdfrwt beam="1">  1       -4 0.37739853E-01 0.12500050E+03</pdfrwt>
<totfact> 0.17292859E+03</totfact>
</mgrwt>
</event>
<event>
 5    1  0.1451195E-002  0.1250402E+03  0.7818608E-02  0.1235006E+00
          4   -1    0    0  501    0  0.00000000000E+00  0.00000000000E+00  0.18358742308E+02  0.18402617182E+02  0.12700000000E+01 0.  1.
         -4   -1    0    0    0  501 -0.00000000000E+00 -0.00000000000E+00 -0.21261038047E+03  0.21261417352E+03  0.12700000000E+01 0.  1.
         25    2    1    2    0    0  0.00000000000E+00  0.00000000000E+00 -0.19425163816E+03  0.23101679071E+03  0.12504022817E+03 0.  0.
    9000005    1    3    3    0    0  0.23334205904E+02 -0.56991831470E+02 -0.77295025515E+02  0.98833572175E+02  0.10000000000E+01 0.  0.
    9000005    1    3    3    0    0 -0.23334205904E+02  0.56991831470E+02 -0.11695661265E+03  0.13218321853E+03  0.10000000000E+01 0.  0.
<mgrwt>
<rscale>  0 0.12504023E+03</rscale>
<asrwt>0</asrwt>
<pdfrwt beam="1">  1        4 0.45956447E-02 0.12504023E+03</pdfrwt>
<pdfrwt beam="2">  1       -4 0.53158546E-01 0.12504023E+03</pdfrwt>
<totfact> 0.15137008E+03</totfact>
</mgrwt>
</event>
<event>
 5    1  0.1451195E-002  0.1249964E+03  0.7818608E-02  0.1235075E+00
          4   -1    0    0  501    0  0.00000000000E+00  0.00000000000E+00  0.32159618141E+02  0.32184684852E+02  0.12700000000E+01 0.  1.
         -4   -1    0    0    0  501 -0.00000000000E+00 -0.00000000000E+00 -0.12138175145E+03  0.12138839519E+03  0.12700000000E+01 0.  1.
         25    2    1    2    0    0  0.00000000000E+00  0.00000000000E+00 -0.89222133313E+02  0.15357308004E+03  0.12499640731E+03 0.  0.
    9000005    1    3    3    0    0  0.43774461021E+02  0.41988363954E+02 -0.26149061253E+02  0.66060574850E+02  0.10000000000E+01 0.  0.
    9000005    1    3    3    0    0 -0.43774461021E+02 -0.41988363954E+02 -0.63073072060E+02  0.87512505188E+02  0.10000000000E+01 0.  0.
<mgrwt>
<rscale>  0 0.12499641E+03</rscale>
<asrwt>0</asrwt>
<pdfrwt beam="1">  1        4 0.80438686E-02 0.12499641E+03</pdfrwt>
<pdfrwt beam="2">  1       -4 0.30349401E-01 0.12499641E+03</pdfrwt>
<totfact> 0.18366011E+03</totfact>
</mgrwt>
</event>
<event>
 5    1  0.1451195E-002  0.1249954E+03  0.7818608E-02  0.1235076E+00
          4   -1    0    0  501    0  0.00000000000E+00  0.00000000000E+00  0.23457395321E+02  0.23491749515E+02  0.12700000000E+01 0. -1.
         -4   -1    0    0    0  501 -0.00000000000E+00 -0.00000000000E+00 -0.16635449322E+03  0.16635934093E+03  0.12700000000E+01 0. -1.
         25    2    1    2    0    0  0.00000000000E+00  0.00000000000E+00 -0.14289709790E+03  0.18985109045E+03  0.12499542374E+03 0.  0.
    9000005    1    3    3    0    0 -0.49367015191E+02  0.36575220260E+02 -0.88773929025E+02  0.10796601039E+03  0.10000000000E+01 0.  0.
    9000005    1    3    3    0    0  0.49367015191E+02 -0.36575220260E+02 -0.54123168876E+02  0.81885080052E+02  0.10000000000E+01 0.  0.
<mgrwt>
<rscale>  0 0.12499542E+03</rscale>
<asrwt>0</asrwt>
<pdfrwt beam="1">  1        4 0.58692495E-02 0.12499542E+03</pdfrwt>
<pdfrwt beam="2">  1       -4 0.41593520E-01 0.12499542E+03</pdfrwt>
<totfact> 0.16738425E+03</totfact>
</mgrwt>
</event>
<event>
 5    1  0.1451195E-002  0.1249987E+03  0.7818608E-02  0.1235071E+00
          4   -1    0    0  501    0  0.00000000000E+00  0.00000000000E+00  0.32960199945E+03  0.32960444618E+03  0.12700000000E+01 0. -1.
         -4   -1    0    0    0  501 -0.00000000000E+00 -0.00000000000E+00 -0.11814655109E+02  0.11882717507E+02  0.12700000000E+01 0. -1.
         25    2    1    2    0    0  0.00000000000E+00  0.00000000000E+00  0.31778734435E+03  0.34148716369E+03  0.12499874695E+03 0.  0.
    9000005    1    3    3    0    0  0.30015875766E+02  0.32017309693E+02  0.37357997909E+02  0.57642700541E+02  0.10000000000E+01 0.  0.
    9000005    1    3    3    0    0 -0.30015875766E+02 -0.32017309693E+02  0.28042934644E+03  0.28384446315E+03  0.10000000000E+01 0.  0.
<mgrwt>
<rscale>  0 0.12499875E+03</rscale>
<asrwt>0</asrwt>
<pdfrwt beam="1">  1        4 0.82409315E-01 0.12499875E+03</pdfrwt>
<pdfrwt beam="2">  1       -4 0.29624774E-02 0.12499875E+03</pdfrwt>
<totfact> 0.11883452E+03</totfact>
</mgrwt>
</event>
<event>
 5    1  0.1451195E-002  0.1249984E+03  0.7818608E-02  0.1235072E+00
         -4   -1    0    0    0  501 -0.00000000000E+00  0.00000000000E+00  0.27675439902E+02  0.27704564133E+02  0.12700000000E+01 0. -1.
          4   -1    0    0  501    0  0.00000000000E+00 -0.00000000000E+00 -0.14103528111E+03  0.14104099906E+03  0.12700000000E+01 0. -1.
         25    2    1    2    0    0  0.00000000000E+00  0.00000000000E+00 -0.11335984120E+03  0.16874556320E+03  0.12499844599E+03 0.  0.
    9000005    1    3    3    0    0 -0.35850983958E+02 -0.37702061713E+02 -0.99461037317E+01  0.52977952845E+02  0.10000000000E+01 0.  0.
    9000005    1    3    3    0    0  0.35850983958E+02  0.37702061713E+02 -0.10341373747E+03  0.11576761035E+03  0.10000000000E+01 0.  0.
<mgrwt>
<rscale>  0 0.12499845E+03</rscale>
<asrwt>0</asrwt>
<pdfrwt beam="2">  1        4 0.35263174E-01 0.12499845E+03</pdfrwt>
<pdfrwt beam="1">  1       -4 0.69232156E-02 0.12499845E+03</pdfrwt>
<totfact> 0.17654414E+03</totfact>
</mgrwt>
</event>
<event>
 5    1  0.1451195E-002  0.1249867E+03  0.7818608E-02  0.1235090E+00
         -4   -1    0    0    0  501 -0.00000000000E+00  0.00000000000E+00  0.42531861842E+02  0.42550818696E+02  0.12700000000E+01 0. -1.
          4   -1    0    0  501    0  0.00000000000E+00 -0.00000000000E+00 -0.91779617346E+02  0.91788403734E+02  0.12700000000E+01 0. -1.
         25    2    1    2    0    0  0.00000000000E+00  0.00000000000E+00 -0.49247755504E+02  0.13433922243E+03  0.12498674034E+03 0.  0.
    9000005    1    3    3    0    0  0.26170147581E+02 -0.56710516278E+02 -0.22623994815E+02  0.66436469069E+02  0.10000000000E+01 0.  0.
    9000005    1    3    3    0    0 -0.26170147581E+02  0.56710516278E+02 -0.26623760689E+02  0.67902753362E+02  0.10000000000E+01 0.  0.
<mgrwt>
<rscale>  0 0.12498674E+03</rscale>
<asrwt>0</asrwt>
<pdfrwt beam="2">  1        4 0.22948372E-01 0.12498674E+03</pdfrwt>
<pdfrwt beam="1">  1       -4 0.10636434E-01 0.12498674E+03</pdfrwt>
<totfact> 0.19339787E+03</totfact>
</mgrwt>
</event>
<event>
 5    1  0.1451195E-002  0.1250003E+03  0.7818608E-02  0.1235069E+00
         -4   -1    0    0    0  501 -0.00000000000E+00  0.00000000000E+00  0.14522615600E+02  0.14578040467E+02  0.12700000000E+01 0.  1.
          4   -1    0    0  501    0  0.00000000000E+00 -0.00000000000E+00 -0.26840918615E+03  0.26841219069E+03  0.12700000000E+01 0.  1.
         25    2    1    2    0    0  0.00000000000E+00  0.00000000000E+00 -0.25388657055E+03  0.28299023116E+03  0.12500032089E+03 0.  0.
    9000005    1    3    3    0    0 -0.33986770526E+02 -0.10530164020E+02 -0.10636923256E+02  0.37150088309E+02  0.10000000000E+01 0.  0.
    9000005    1    3    3    0    0  0.33986770526E+02  0.10530164020E+02 -0.24324964730E+03  0.24584014285E+03  0.10000000000E+01 0.  0.
<mgrwt>
<rscale>  0 0.12500032E+03</rscale>
<asrwt>0</asrwt>
<pdfrwt beam="2">  1        4 0.67109584E-01 0.12500032E+03</pdfrwt>
<pdfrwt beam="1">  1       -4 0.36379584E-02 0.12500032E+03</pdfrwt>
<totfact> 0.13461446E+03</totfact>
</mgrwt>
</event>
<event>
 5    1  0.1451195E-002  0.1250052E+03  0.7818608E-02  0.1235061E+00
         -4   -1    0    0    0  501 -0.00000000000E+00  0.00000000000E+00  0.39769260029E+02  0.39789533087E+02  0.12700000000E+01 0. -1.
          4   -1    0    0  501    0  0.00000000000E+00 -0.00000000000E+00 -0.98181550429E+02  0.98189763951E+02  0.12700000000E+01 0. -1.
         25    2    1    2    0    0  0.00000000000E+00  0.00000000000E+00 -0.58412290400E+02  0.13797929704E+03  0.12500516286E+03 0.  0.
    9000005    1    3    3    0    0 -0.66903855863E+01  0.35215284628E+02  0.27299811278E+02  0.45068361702E+02  0.10000000000E+01 0.  0.
    9000005    1    3    3    0    0  0.66903855863E+01 -0.35215284628E+02 -0.85712101678E+02  0.92910935335E+02  0.10000000000E+01 0.  0.
<mgrwt>
<rscale>  0 0.12500516E+03</rscale>
<asrwt>0</asrwt>
<pdfrwt beam="2">  1        4 0.24548948E-01 0.12500516E+03</pdfrwt>
<pdfrwt beam="1">  1       -4 0.99458760E-02 0.12500516E+03</pdfrwt>
<totfact> 0.19141895E+03</totfact>
</mgrwt>
</event>
<event>
 5    1  0.1451195E-002  0.1249995E+03  0.7818608E-02  0.1235070E+00
          4   -1    0    0  501    0  0.00000000000E+00  0.00000000000E+00  0.73548259769E+01  0.74636696839E+01  0.12700000000E+01 0. -1.
         -4   -1    0    0    0  501 -0.00000000000E+00 -0.00000000000E+00 -0.52709884033E+03  0.52710037031E+03  0.12700000000E+01 0. -1.
         25    2    1    2    0    0  0.00000000000E+00  0.00000000000E+00 -0.51974401435E+03  0.53456403999E+03  0.12499948958E+03 0.  0.
    9000005    1    3    3    0    0 -0.25114564135E+02  0.42687982112E+02 -0.42284162741E+03  0.42573353993E+03  0.10000000000E+01 0.  0.
    9000005    1    3    3    0    0  0.25114564135E+02 -0.42687982112E+02 -0.96902386938E+02  0.10883050006E+03  0.10000000000E+01 0.  0.
<mgrwt>
<rscale>  0 0.12499949E+03</rscale>
<asrwt>0</asrwt>
<pdfrwt beam="1">  1        4 0.18525050E-02 0.12499949E+03</pdfrwt>
<pdfrwt beam="2">  1       -4 0.13178838E+00 0.12499949E+03</pdfrwt>
<totfact> 0.82360634E+02</totfact>
</mgrwt>
</event>
<event>
 5    1  0.1451195E-002  0.1250070E+03  0.7818608E-02  0.1235058E+00
         -4   -1    0    0    0  501 -0.00000000000E+00  0.00000000000E+00  0.34999757108E+03  0.34999987523E+03  0.12700000000E+01 0.  1.
          4   -1    0    0  501    0  0.00000000000E+00 -0.00000000000E+00 -0.11123560154E+02  0.11195824690E+02  0.12700000000E+01 0.  1.
         25    2    1    2    0    0  0.00000000000E+00  0.00000000000E+00  0.33887401092E+03  0.36119569992E+03  0.12500695325E+03 0.  0.
    9000005    1    3    3    0    0 -0.48785842800E+02 -0.10991240969E+02  0.27773453487E+03  0.28220265359E+03  0.10000000000E+01 0.  0.
    9000005    1    3    3    0    0  0.48785842800E+02  0.10991240969E+02  0.61139476056E+02  0.78993046328E+02  0.10000000000E+01 0.  0.
<mgrwt>
<rscale>  0 0.12500695E+03</rscale>
<asrwt>0</asrwt>
<pdfrwt beam="2">  1        4 0.27902111E-02 0.12500695E+03</pdfrwt>
<pdfrwt beam="1">  1       -4 0.87508715E-01 0.12500695E+03</pdfrwt>
<totfact> 0.11412968E+03</totfact>
</mgrwt>
</event>
<event>
 5    1  0.1451195E-002  0.1250020E+03  0.7818608E-02  0.1235066E+00
          4   -1    0    0  501    0  0.00000000000E+00  0.00000000000E+00  0.15085352974E+03  0.15085887556E+03  0.12700000000E+01 0.  1.
         -4   -1    0    0    0  501 -0.00000000000E+00 -0.00000000000E+00 -0.25873761929E+02  0.25904911819E+02  0.12700000000E+01 0.  1.
         25    2    1    2    0    0  0.00000000000E+00  0.00000000000E+00  0.12497976781E+03  0.17676378737E+03  0.12500197665E+03 0.  0.
    9000005    1    3    3    0    0  0.30916831946E+02  0.49436854561E+02  0.94283928885E+02  0.11086168108E+03  0.10000000000E+01 0.  0.
    9000005    1    3    3    0    0 -0.30916831946E+02 -0.49436854561E+02  0.30695838922E+02  0.65902106291E+02  0.10000000000E+01 0.  0.
<mgrwt>
<rscale>  0 0.12500198E+03</rscale>
<asrwt>0</asrwt>
<pdfrwt beam="1">  1        4 0.37717944E-01 0.12500198E+03</pdfrwt>
<pdfrwt beam="2">  1       -4 0.64730025E-02 0.12500198E+03</pdfrwt>
<totfact> 0.17295424E+03</totfact>
</mgrwt>
</event>
<event>
 5    1  0.1451195E-002  0.1249939E+03  0.7818608E-02  0.1235079E+00
          4   -1    0    0  501    0  0.00000000000E+00  0.00000000000E+00  0.36600953265E+02  0.36622980216E+02  0.12700000000E+01 0.  1.
         -4   -1    0    0    0  501 -0.00000000000E+00 -0.00000000000E+00 -0.10665709034E+03  0.10666465122E+03  0.12700000000E+01 0.  1.
         25    2    1    2    0    0  0.00000000000E+00  0.00000000000E+00 -0.70056137078E+02  0.14328763144E+03  0.12499393178E+03 0.  0.
    9000005    1    3    3    0    0 -0.31674982553E+02 -0.48636620902E+02 -0.84868697977E+01  0.58667302405E+02  0.10000000000E+01 0.  0.
    9000005    1    3    3    0    0  0.31674982553E+02  0.48636620902E+02 -0.61569267280E+02  0.84620329035E+02  0.10000000000E+01 0.  0.
<mgrwt>
<rscale>  0 0.12499393E+03</rscale>
<asrwt>0</asrwt>
<pdfrwt beam="1">  1        4 0.91539370E-02 0.12499393E+03</pdfrwt>
<pdfrwt beam="2">  1       -4 0.26667970E-01 0.12499393E+03</pdfrwt>
<totfact> 0.18876066E+03</totfact>
</mgrwt>
</event>
<event>
 5    1  0.1451195E-002  0.1250040E+03  0.7818608E-02  0.1235063E+00
          4   -1    0    0  501    0  0.00000000000E+00  0.00000000000E+00  0.11241027279E+04  0.11241034454E+04  0.12700000000E+01 0. -1.
         -4   -1    0    0    0  501 -0.00000000000E+00 -0.00000000000E+00 -0.33584440676E+01  0.35905496174E+01  0.12700000000E+01 0. -1.
         25    2    1    2    0    0  0.00000000000E+00  0.00000000000E+00  0.11207442839E+04  0.11276939950E+04  0.12500398581E+03 0.  0.
    9000005    1    3    3    0    0 -0.12649610914E+02 -0.16402171592E+02  0.28465115674E+02  0.35217988295E+02  0.10000000000E+01 0.  0.
    9000005    1    3    3    0    0  0.12649610914E+02  0.16402171592E+02  0.10922791682E+04  0.10924760067E+04  0.10000000000E+01 0.  0.
<mgrwt>
<rscale>  0 0.12500399E+03</rscale>
<asrwt>0</asrwt>
<pdfrwt beam="1">  1        4 0.28105484E+00 0.12500399E+03</pdfrwt>
<pdfrwt beam="2">  1       -4 0.86871371E-03 0.12500399E+03</pdfrwt>
<totfact> 0.29163592E+02</totfact>
</mgrwt>
</event>
<event>
 5    1  0.1451195E-002  0.1250008E+03  0.7818608E-02  0.1235068E+00
         -4   -1    0    0    0  501 -0.00000000000E+00  0.00000000000E+00  0.91688996168E+01  0.92564366893E+01  0.12700000000E+01 0.  1.
          4   -1    0    0  501    0  0.00000000000E+00 -0.00000000000E+00 -0.42392544740E+03  0.42392734974E+03  0.12700000000E+01 0.  1.
         25    2    1    2    0    0  0.00000000000E+00  0.00000000000E+00 -0.41475654778E+03  0.43318378643E+03  0.12500079556E+03 0.  0.
    9000005    1    3    3    0    0  0.14725189744E+02 -0.43759869787E+02 -0.61436307903E+02  0.76858163818E+02  0.10000000000E+01 0.  0.
    9000005    1    3    3    0    0 -0.14725189744E+02  0.43759869787E+02 -0.35332023988E+03  0.35632562261E+03  0.10000000000E+01 0.  0.
<mgrwt>
<rscale>  0 0.12500080E+03</rscale>
<asrwt>0</asrwt>
<pdfrwt beam="2">  1        4 0.10599248E+00 0.12500080E+03</pdfrwt>
<pdfrwt beam="1">  1       -4 0.23034063E-02 0.12500080E+03</pdfrwt>
<totfact> 0.99114566E+02</totfact>
</mgrwt>
</event>
<event>
 5    1  0.1451195E-002  0.1249958E+03  0.7818608E-02  0.1235076E+00
          4   -1    0    0  501    0  0.00000000000E+00  0.00000000000E+00  0.49819342904E+02  0.49835527762E+02  0.12700000000E+01 0. -1.
         -4   -1    0    0    0  501 -0.00000000000E+00 -0.00000000000E+00 -0.78368955186E+02  0.78379244938E+02  0.12700000000E+01 0. -1.
         25    2    1    2    0    0  0.00000000000E+00  0.00000000000E+00 -0.28549612283E+02  0.12821477270E+03  0.12499579024E+03 0.  0.
    9000005    1    3    3    0    0  0.68783971430E+01 -0.16511075156E+02  0.47142509450E+02  0.50431578870E+02  0.10000000000E+01 0.  0.
    9000005    1    3    3    0    0 -0.68783971430E+01  0.16511075156E+02 -0.75692121732E+02  0.77783193830E+02  0.10000000000E+01 0.  0.
<mgrwt>
<rscale>  0 0.12499579E+03</rscale>
<asrwt>0</asrwt>
<pdfrwt beam="1">  1        4 0.12458145E-01 0.12499579E+03</pdfrwt>
<pdfrwt beam="2">  1       -4 0.19595548E-01 0.12499579E+03</pdfrwt>
<totfact> 0.19662788E+03</totfact>
</mgrwt>
</event>
<event>
 5    1  0.1451195E-002  0.1249988E+03  0.7818608E-02  0.1235071E+00
         -4   -1    0    0    0  501 -0.00000000000E+00  0.00000000000E+00  0.40352848141E+03  0.40353047990E+03  0.12700000000E+01 0.  1.
          4   -1    0    0  501    0  0.00000000000E+00 -0.00000000000E+00 -0.96363549388E+01  0.97196829427E+01  0.12700000000E+01 0.  1.
         25    2    1    2    0    0  0.00000000000E+00  0.00000000000E+00  0.39389212647E+03  0.41325016284E+03  0.12499875917E+03 0.  0.
    9000005    1    3    3    0    0 -0.22364609779E+02  0.56696858090E+02  0.24257208433E+03  0.25011382526E+03  0.10000000000E+01 0.  0.
    9000005    1    3    3    0    0  0.22364609779E+02 -0.56696858090E+02  0.15132004214E+03  0.16313633758E+03  0.10000000000E+01 0.  0.
<mgrwt>
<rscale>  0 0.12499876E+03</rscale>
<asrwt>0</asrwt>
<pdfrwt beam="2">  1        4 0.24197546E-02 0.12499876E+03</pdfrwt>
<pdfrwt beam="1">  1       -4 0.10089278E+00 0.12499876E+03</pdfrwt>
<totfact> 0.10300689E+03</totfact>
</mgrwt>
</event>
<event>
 5    1  0.1451195E-002  0.1249971E+03  0.7818608E-02  0.1235074E+00
         -4   -1    0    0    0  501 -0.00000000000E+00  0.00000000000E+00  0.46986985162E+03  0.46987156794E+03  0.12700000000E+01 0.  1.
          4   -1    0    0  501    0  0.00000000000E+00 -0.00000000000E+00 -0.82628341143E+01  0.83598640898E+01  0.12700000000E+01 0.  1.
         25    2    1    2    0    0  0.00000000000E+00  0.00000000000E+00  0.46160701750E+03  0.47823143203E+03  0.12499705586E+03 0.  0.
    9000005    1    3    3    0    0 -0.59772362896E+02 -0.11527731959E+02  0.28483496448E+03  0.29126891520E+03  0.10000000000E+01 0.  0.
    9000005    1    3    3    0    0  0.59772362896E+02  0.11527731959E+02  0.17677205302E+03  0.18696251683E+03  0.10000000000E+01 0.  0.
<mgrwt>
<rscale>  0 0.12499706E+03</rscale>
<asrwt>0</asrwt>
<pdfrwt beam="2">  1        4 0.20780520E-02 0.12499706E+03</pdfrwt>
<pdfrwt beam="1">  1       -4 0.11747980E+00 0.12499706E+03</pdfrwt>
<totfact> 0.91165582E+02</totfact>
</mgrwt>
</event>
<event>
 5    1  0.1451195E-002  0.1250004E+03  0.7818608E-02  0.1235069E+00
          4   -1    0    0  501    0  0.00000000000E+00  0.00000000000E+00  0.38942402164E+03  0.38942609251E+03  0.12700000000E+01 0. -1.
         -4   -1    0    0    0  501 -0.00000000000E+00 -0.00000000000E+00 -0.99885983871E+01  0.10069011756E+02  0.12700000000E+01 0. -1.
         25    2    1    2    0    0  0.00000000000E+00  0.00000000000E+00  0.37943542325E+03  0.39949510427E+03  0.12500039166E+03 0.  0.
    9000005    1    3    3    0    0  0.24695327838E+02 -0.40786914905E+02  0.60613844213E+02  0.77126323358E+02  0.10000000000E+01 0.  0.
    9000005    1    3    3    0    0 -0.24695327838E+02  0.40786914905E+02  0.31882157904E+03  0.32236878091E+03  0.10000000000E+01 0.  0.
<mgrwt>
<rscale>  0 0.12500039E+03</rscale>
<asrwt>0</asrwt>
<pdfrwt beam="1">  1        4 0.97366310E-01 0.12500039E+03</pdfrwt>
<pdfrwt beam="2">  1       -4 0.25074603E-02 0.12500039E+03</pdfrwt>
<totfact> 0.10579513E+03</totfact>
</mgrwt>
</event>
<event>
 5    1  0.1451195E-002  0.1249989E+03  0.7818608E-02  0.1235071E+00
          4   -1    0    0  501    0  0.00000000000E+00  0.00000000000E+00  0.17660601881E+03  0.17661058513E+03  0.12700000000E+01 0. -1.
         -4   -1    0    0    0  501 -0.00000000000E+00 -0.00000000000E+00 -0.22094980399E+02  0.22131449542E+02  0.12700000000E+01 0. -1.
         25    2    1    2    0    0  0.00000000000E+00  0.00000000000E+00  0.15451103841E+03  0.19874203467E+03  0.12499894141E+03 0.  0.
    9000005    1    3    3    0    0 -0.95403809674E+01 -0.30515848055E+02  0.16262483489E+03  0.16574098098E+03  0.10000000000E+01 0.  0.
    9000005    1    3    3    0    0  0.95403809674E+01  0.30515848055E+02 -0.81137964817E+01  0.33001053693E+02  0.10000000000E+01 0.  0.
<mgrwt>
<rscale>  0 0.12499894E+03</rscale>
<asrwt>0</asrwt>
<pdfrwt beam="1">  1        4 0.44156633E-01 0.12499894E+03</pdfrwt>
<pdfrwt beam="2">  1       -4 0.55288746E-02 0.12499894E+03</pdfrwt>
<totfact> 0.16372937E+03</totfact>
</mgrwt>
</event>
<event>
 5    1  0.1451195E-002  0.1249904E+03  0.7818608E-02  0.1235084E+00
          4   -1    0    0  501    0  0.00000000000E+00  0.00000000000E+00  0.30372038179E+02  0.30398578966E+02  0.12700000000E+01 0. -1.
         -4   -1    0    0    0  501 -0.00000000000E+00 -0.00000000000E+00 -0.12850769704E+03  0.12851397239E+03  0.12700000000E+01 0. -1.
         25    2    1    2    0    0  0.00000000000E+00  0.00000000000E+00 -0.98135658860E+02  0.15891255135E+03  0.12499036538E+03 0.  0.
    9000005    1    3    3    0    0  0.60505005067E+01 -0.43121882305E+02  0.79121362167E+01  0.44268580160E+02  0.10000000000E+01 0.  0.
    9000005    1    3    3    0    0 -0.60505005067E+01  0.43121882305E+02 -0.10604779508E+03  0.11464397119E+03  0.10000000000E+01 0.  0.
<mgrwt>
<rscale>  0 0.12499037E+03</rscale>
<asrwt>0</asrwt>
<pdfrwt beam="1">  1        4 0.75971119E-02 0.12499037E+03</pdfrwt>
<pdfrwt beam="2">  1       -4 0.32131025E-01 0.12499037E+03</pdfrwt>
<totfact> 0.18113108E+03</totfact>
</mgrwt>
</event>
<event>
 5    1  0.1451195E-002  0.1250001E+03  0.7818608E-02  0.1235069E+00
         -4   -1    0    0    0  501 -0.00000000000E+00  0.00000000000E+00  0.24728651354E+02  0.24761241847E+02  0.12700000000E+01 0.  1.
          4   -1    0    0  501    0  0.00000000000E+00 -0.00000000000E+00 -0.15782571333E+03  0.15783082300E+03  0.12700000000E+01 0.  1.
         25    2    1    2    0    0  0.00000000000E+00  0.00000000000E+00 -0.13309706197E+03  0.18259206484E+03  0.12500013695E+03 0.  0.
    9000005    1    3    3    0    0 -0.35464121911E+02  0.49885382370E+02 -0.84967885269E+02  0.10472247535E+03  0.10000000000E+01 0.  0.
    9000005    1    3    3    0    0  0.35464121911E+02 -0.49885382370E+02 -0.48129176706E+02  0.77869589491E+02  0.10000000000E+01 0.  0.
<mgrwt>
<rscale>  0 0.12500014E+03</rscale>
<asrwt>0</asrwt>
<pdfrwt beam="2">  1        4 0.39461138E-01 0.12500014E+03</pdfrwt>
<pdfrwt beam="1">  1       -4 0.61868758E-02 0.12500014E+03</pdfrwt>
<totfact> 0.17043550E+03</totfact>
</mgrwt>
</event>
<event>
 5    1  0.1451195E-002  0.1250047E+03  0.7818608E-02  0.1235062E+00
         -4   -1    0    0    0  501 -0.00000000000E+00  0.00000000000E+00  0.15458818748E+02  0.15510898655E+02  0.12700000000E+01 0. -1.
          4   -1    0    0  501    0  0.00000000000E+00 -0.00000000000E+00 -0.25222770341E+03  0.25223090070E+03  0.12700000000E+01 0. -1.
         25    2    1    2    0    0  0.00000000000E+00  0.00000000000E+00 -0.23676888467E+03  0.26774179936E+03  0.12500466542E+03 0.  0.
    9000005    1    3    3    0    0  0.23184218346E+02 -0.41626382668E+02 -0.20499797190E+03  0.21046480038E+03  0.10000000000E+01 0.  0.
    9000005    1    3    3    0    0 -0.23184218346E+02  0.41626382668E+02 -0.31770912767E+02  0.57276998982E+02  0.10000000000E+01 0.  0.
<mgrwt>
<rscale>  0 0.12500467E+03</rscale>
<asrwt>0</asrwt>
<pdfrwt beam="2">  1        4 0.63063822E-01 0.12500467E+03</pdfrwt>
<pdfrwt beam="1">  1       -4 0.38716151E-02 0.12500467E+03</pdfrwt>
<totfact> 0.13924392E+03</totfact>
</mgrwt>
</event>
<event>
 5    1  0.1451195E-002  0.1250237E+03  0.7818608E-02  0.1235032E+00
          4   -1    0    0  501    0  0.00000000000E+00  0.00000000000E+00  0.35647779112E+02  0.35670394666E+02  0.12700000000E+01 0. -1.
         -4   -1    0    0    0  501 -0.00000000000E+00 -0.00000000000E+00 -0.10955956021E+03  0.10956692080E+03  0.12700000000E+01 0. -1.
         25    2    1    2    0    0  0.00000000000E+00  0.00000000000E+00 -0.73911781102E+02  0.14523731547E+03  0.12502370343E+03 0.  0.
    9000005    1    3    3    0    0 -0.17045611497E+02  0.10802107973E+01 -0.10680175840E+03  0.10816346575E+03  0.10000000000E+01 0.  0.
    9000005    1    3    3    0    0  0.17045611497E+02 -0.10802107973E+01  0.32889977294E+02  0.37073849720E+02  0.10000000000E+01 0.  0.
<mgrwt>
<rscale>  0 0.12502370E+03</rscale>
<asrwt>0</asrwt>
<pdfrwt beam="1">  1        4 0.89156920E-02 0.12502370E+03</pdfrwt>
<pdfrwt beam="2">  1       -4 0.27393636E-01 0.12502370E+03</pdfrwt>
<totfact> 0.18765096E+03</totfact>
</mgrwt>
</event>
<event>
 5    1  0.1451195E-002  0.1250019E+03  0.7818608E-02  0.1235066E+00
          4   -1    0    0  501    0  0.00000000000E+00  0.00000000000E+00  0.22958477438E+02  0.22993577066E+02  0.12700000000E+01 0.  1.
         -4   -1    0    0    0  501 -0.00000000000E+00 -0.00000000000E+00 -0.16998174656E+03  0.16998649083E+03  0.12700000000E+01 0.  1.
         25    2    1    2    0    0  0.00000000000E+00  0.00000000000E+00 -0.14702326912E+03  0.19298006789E+03  0.12500185975E+03 0.  0.
    9000005    1    3    3    0    0 -0.61429261312E+02  0.53823855335E+01 -0.57855618042E+02  0.84562383826E+02  0.10000000000E+01 0.  0.
    9000005    1    3    3    0    0  0.61429261312E+02 -0.53823855335E+01 -0.89167651079E+02  0.10841768407E+03  0.10000000000E+01 0.  0.
<mgrwt>
<rscale>  0 0.12500186E+03</rscale>
<asrwt>0</asrwt>
<pdfrwt beam="1">  1        4 0.57446004E-02 0.12500186E+03</pdfrwt>
<pdfrwt beam="2">  1       -4 0.42500413E-01 0.12500186E+03</pdfrwt>
<totfact> 0.16606329E+03</totfact>
</mgrwt>
</event>
<event>
 5    1  0.1451195E-002  0.1249987E+03  0.7818608E-02  0.1235071E+00
         -4   -1    0    0    0  501 -0.00000000000E+00  0.00000000000E+00  0.17297787080E+03  0.17298253289E+03  0.12700000000E+01 0. -1.
          4   -1    0    0  501    0  0.00000000000E+00 -0.00000000000E+00 -0.22559063490E+02  0.22594783592E+02  0.12700000000E+01 0. -1.
         25    2    1    2    0    0  0.00000000000E+00  0.00000000000E+00  0.15041880731E+03  0.19557731648E+03  0.12499867652E+03 0.  0.
    9000005    1    3    3    0    0 -0.15211017534E+02 -0.60575570824E+02  0.71930215287E+02  0.95266629553E+02  0.10000000000E+01 0.  0.
    9000005    1    3    3    0    0  0.15211017534E+02  0.60575570824E+02  0.78488592019E+02  0.10031068693E+03  0.10000000000E+01 0.  0.
<mgrwt>
<rscale>  0 0.12499868E+03</rscale>
<asrwt>0</asrwt>
<pdfrwt beam="2">  1        4 0.56448137E-02 0.12499868E+03</pdfrwt>
<pdfrwt beam="1">  1       -4 0.43249515E-01 0.12499868E+03</pdfrwt>
<totfact> 0.16501182E+03</totfact>
</mgrwt>
</event>
<event>
 5    1  0.1451195E-002  0.1249999E+03  0.7818608E-02  0.1235069E+00
         -4   -1    0    0    0  501 -0.00000000000E+00  0.00000000000E+00  0.24563784048E+03  0.24564112355E+03  0.12700000000E+01 0.  1.
          4   -1    0    0  501    0  0.00000000000E+00 -0.00000000000E+00 -0.15873705991E+02  0.15924429092E+02  0.12700000000E+01 0.  1.
         25    2    1    2    0    0  0.00000000000E+00  0.00000000000E+00  0.22976413449E+03  0.26156555264E+03  0.12499992331E+03 0.  0.
    9000005    1    3    3    0    0 -0.14008561201E+02  0.39741063525E+02  0.18315842187E+02  0.45957175632E+02  0.10000000000E+01 0.  0.
    9000005    1    3    3    0    0  0.14008561201E+02 -0.39741063525E+02  0.21144829231E+03  0.21560837701E+03  0.10000000000E+01 0.  0.
<mgrwt>
<rscale>  0 0.12499992E+03</rscale>
<asrwt>0</asrwt>
<pdfrwt beam="2">  1        4 0.39751773E-02 0.12499992E+03</pdfrwt>
<pdfrwt beam="1">  1       -4 0.61416210E-01 0.12499992E+03</pdfrwt>
<totfact> 0.14121042E+03</totfact>
</mgrwt>
</event>
<event>
 5    1  0.1451195E-002  0.1249965E+03  0.7818608E-02  0.1235075E+00
          4   -1    0    0  501    0  0.00000000000E+00  0.00000000000E+00  0.18820478476E+02  0.18863279409E+02  0.12700000000E+01 0. -1.
         -4   -1    0    0    0  501 -0.00000000000E+00 -0.00000000000E+00 -0.20726094295E+03  0.20726483390E+03  0.12700000000E+01 0. -1.
         25    2    1    2    0    0  0.00000000000E+00  0.00000000000E+00 -0.18844046447E+03  0.22612811331E+03  0.12499645986E+03 0.  0.
    9000005    1    3    3    0    0 -0.37110632888E+02  0.49708207437E+02 -0.80571141235E+02  0.10168979182E+03  0.10000000000E+01 0.  0.
    9000005    1    3    3    0    0  0.37110632888E+02 -0.49708207437E+02 -0.10786932324E+03  0.12443832149E+03  0.10000000000E+01 0.  0.
<mgrwt>
<rscale>  0 0.12499646E+03</rscale>
<asrwt>0</asrwt>
<pdfrwt beam="1">  1        4 0.47109567E-02 0.12499646E+03</pdfrwt>
<pdfrwt beam="2">  1       -4 0.51821065E-01 0.12499646E+03</pdfrwt>
<totfact> 0.15327909E+03</totfact>
</mgrwt>
</event>
<event>
 5    1  0.1451195E-002  0.1249901E+03  0.7818608E-02  0.1235085E+00
          4   -1    0    0  501    0  0.00000000000E+00  0.00000000000E+00  0.13930425605E+02  0.13988197080E+02  0.12700000000E+01 0. -1.
         -4   -1    0    0    0  501 -0.00000000000E+00 -0.00000000000E+00 -0.27972767474E+03  0.27973055771E+03  0.12700000000E+01 0. -1.
         25    2    1    2    0    0  0.00000000000E+00  0.00000000000E+00 -0.26579724913E+03  0.29371875479E+03  0.12499011667E+03 0.  0.
    9000005    1    3    3    0    0  0.61929316678E+02 -0.82958535284E+01 -0.13112311375E+03  0.14525265027E+03  0.10000000000E+01 0.  0.
    9000005    1    3    3    0    0 -0.61929316678E+02  0.82958535284E+01 -0.13467413538E+03  0.14846610452E+03  0.10000000000E+01 0.  0.
<mgrwt>
<rscale>  0 0.12499012E+03</rscale>
<asrwt>0</asrwt>
<pdfrwt beam="1">  1        4 0.34901891E-02 0.12499012E+03</pdfrwt>
<pdfrwt beam="2">  1       -4 0.69939482E-01 0.12499012E+03</pdfrwt>
<totfact> 0.13151925E+03</totfact>
</mgrwt>
</event>
<event>
 5    1  0.1451195E-002  0.1249992E+03  0.7818608E-02  0.1235071E+00
         -4   -1    0    0    0  501 -0.00000000000E+00  0.00000000000E+00  0.15399430173E+02  0.15451710250E+02  0.12700000000E+01 0. -1.
          4   -1    0    0  501    0  0.00000000000E+00 -0.00000000000E+00 -0.25317508559E+03  0.25317827091E+03  0.12700000000E+01 0. -1.
         25    2    1    2    0    0  0.00000000000E+00  0.00000000000E+00 -0.23777565541E+03  0.26862998116E+03  0.12499921789E+03 0.  0.
    9000005    1    3    3    0    0  0.44947798700E+02  0.60408909705E+01 -0.21128222844E+03  0.21609714720E+03  0.10000000000E+01 0.  0.
    9000005    1    3    3    0    0 -0.44947798700E+02 -0.60408909705E+01 -0.26493426974E+02  0.52532833966E+02  0.10000000000E+01 0.  0.
<mgrwt>
<rscale>  0 0.12499922E+03</rscale>
<asrwt>0</asrwt>
<pdfrwt beam="2">  1        4 0.63300691E-01 0.12499922E+03</pdfrwt>
<pdfrwt beam="1">  1       -4 0.38567915E-02 0.12499922E+03</pdfrwt>
<totfact> 0.13898415E+03</totfact>
</mgrwt>
</event>
<event>
 5    1  0.1451195E-002  0.1250003E+03  0.7818608E-02  0.1235069E+00
          4   -1    0    0  501    0  0.00000000000E+00  0.00000000000E+00  0.46097346170E+02  0.46114837351E+02  0.12700000000E+01 0.  1.
         -4   -1    0    0    0  501 -0.00000000000E+00 -0.00000000000E+00 -0.84701263212E+02  0.84710783787E+02  0.12700000000E+01 0.  1.
         25    2    1    2    0    0  0.00000000000E+00  0.00000000000E+00 -0.38603917042E+02  0.13082562114E+03  0.12500032294E+03 0.  0.
    9000005    1    3    3    0    0  0.59242645611E+02  0.47020316932E+01  0.92402012746E+00  0.59444545369E+02  0.10000000000E+01 0.  0.
    9000005    1    3    3    0    0 -0.59242645611E+02 -0.47020316932E+01 -0.39527937170E+02  0.71381075769E+02  0.10000000000E+01 0.  0.
<mgrwt>
<rscale>  0 0.12500032E+03</rscale>
<asrwt>0</asrwt>
<pdfrwt beam="1">  1        4 0.11527713E-01 0.12500032E+03</pdfrwt>
<pdfrwt beam="2">  1       -4 0.21178692E-01 0.12500032E+03</pdfrwt>
<totfact> 0.19519953E+03</totfact>
</mgrwt>
</event>
<event>
 5    1  0.1451195E-002  0.1250006E+03  0.7818608E-02  0.1235068E+00
         -4   -1    0    0    0  501 -0.00000000000E+00  0.00000000000E+00  0.32132883453E+02  0.32157971003E+02  0.12700000000E+01 0.  1.
          4   -1    0    0  501    0  0.00000000000E+00 -0.00000000000E+00 -0.12149077787E+03  0.12149741564E+03  0.12700000000E+01 0.  1.
         25    2    1    2    0    0  0.00000000000E+00  0.00000000000E+00 -0.89357894417E+02  0.15365538664E+03  0.12500057820E+03 0.  0.
    9000005    1    3    3    0    0 -0.18386105137E+02  0.59677855081E+02 -0.47637016659E+02  0.78547950994E+02  0.10000000000E+01 0.  0.
    9000005    1    3    3    0    0  0.18386105137E+02 -0.59677855081E+02 -0.41720877758E+02  0.75107435651E+02  0.10000000000E+01 0.  0.
<mgrwt>
<rscale>  0 0.12500058E+03</rscale>
<asrwt>0</asrwt>
<pdfrwt beam="2">  1        4 0.30376659E-01 0.12500058E+03</pdfrwt>
<pdfrwt beam="1">  1       -4 0.80371868E-02 0.12500058E+03</pdfrwt>
<totfact> 0.18360247E+03</totfact>
</mgrwt>
</event>
<event>
 5    1  0.1451195E-002  0.1249997E+03  0.7818608E-02  0.1235070E+00
          4   -1    0    0  501    0  0.00000000000E+00  0.00000000000E+00  0.17022755974E+02  0.17070065054E+02  0.12700000000E+01 0.  1.
         -4   -1    0    0    0  501 -0.00000000000E+00 -0.00000000000E+00 -0.22910378460E+03  0.22910730460E+03  0.12700000000E+01 0.  1.
         25    2    1    2    0    0  0.00000000000E+00  0.00000000000E+00 -0.21208102863E+03  0.24617736965E+03  0.12499973849E+03 0.  0.
    9000005    1    3    3    0    0  0.24294227977E+02  0.23911042715E+02 -0.20919178454E+03  0.21195317926E+03  0.10000000000E+01 0.  0.
    9000005    1    3    3    0    0 -0.24294227977E+02 -0.23911042715E+02 -0.28892440871E+01  0.34224190394E+02  0.10000000000E+01 0.  0.
<mgrwt>
<rscale>  0 0.12499974E+03</rscale>
<asrwt>0</asrwt>
<pdfrwt beam="1">  1        4 0.42620434E-02 0.12499974E+03</pdfrwt>
<pdfrwt beam="2">  1       -4 0.57282290E-01 0.12499974E+03</pdfrwt>
<totfact> 0.14626070E+03</totfact>
</mgrwt>
</event>
<event>
 5    1  0.1451195E-002  0.1249844E+03  0.7818608E-02  0.1235094E+00
         -4   -1    0    0    0  501 -0.00000000000E+00  0.00000000000E+00  0.27159648895E+03  0.27159945823E+03  0.12700000000E+01 0. -1.
          4   -1    0    0  501    0  0.00000000000E+00 -0.00000000000E+00 -0.14347868742E+02  0.14403966032E+02  0.12700000000E+01 0. -1.
         25    2    1    2    0    0  0.00000000000E+00  0.00000000000E+00  0.25724862021E+03  0.28600342426E+03  0.12498442339E+03 0.  0.
    9000005    1    3    3    0    0  0.20426694651E+02  0.45526030906E+02  0.42564067154E+02  0.65593971958E+02  0.10000000000E+01 0.  0.
    9000005    1    3    3    0    0 -0.20426694651E+02 -0.45526030906E+02  0.21468455306E+03  0.22040945231E+03  0.10000000000E+01 0.  0.
<mgrwt>
<rscale>  0 0.12498442E+03</rscale>
<asrwt>0</asrwt>
<pdfrwt beam="2">  1        4 0.35943504E-02 0.12498442E+03</pdfrwt>
<pdfrwt beam="1">  1       -4 0.67906508E-01 0.12498442E+03</pdfrwt>
<totfact> 0.13377384E+03</totfact>
</mgrwt>
</event>
<event>
 5    1  0.1451195E-002  0.1249977E+03  0.7818608E-02  0.1235073E+00
         -4   -1    0    0    0  501 -0.00000000000E+00  0.00000000000E+00  0.34440511694E+03  0.34440745851E+03  0.12700000000E+01 0.  1.
          4   -1    0    0  501    0  0.00000000000E+00 -0.00000000000E+00 -0.11303665838E+02  0.11374786212E+02  0.12700000000E+01 0.  1.
         25    2    1    2    0    0  0.00000000000E+00  0.00000000000E+00  0.33310145110E+03  0.35578224472E+03  0.12499771570E+03 0.  0.
    9000005    1    3    3    0    0  0.77023021514E+01 -0.60993110173E+02  0.19845255138E+03  0.20775923589E+03  0.10000000000E+01 0.  0.
    9000005    1    3    3    0    0 -0.77023021514E+01  0.60993110173E+02  0.13464889972E+03  0.14802300883E+03  0.10000000000E+01 0.  0.
<mgrwt>
<rscale>  0 0.12499772E+03</rscale>
<asrwt>0</asrwt>
<pdfrwt beam="2">  1        4 0.28350991E-02 0.12499772E+03</pdfrwt>
<pdfrwt beam="1">  1       -4 0.86110464E-01 0.12499772E+03</pdfrwt>
<totfact> 0.11541215E+03</totfact>
</mgrwt>
</event>
<event>
 5    1  0.1451195E-002  0.1250243E+03  0.7818608E-02  0.1235031E+00
         -4   -1    0    0    0  501 -0.00000000000E+00  0.00000000000E+00  0.50245771460E+02  0.50261819004E+02  0.12700000000E+01 0. -1.
          4   -1    0    0  501    0  0.00000000000E+00 -0.00000000000E+00 -0.77739483413E+02  0.77749856471E+02  0.12700000000E+01 0. -1.
         25    2    1    2    0    0  0.00000000000E+00  0.00000000000E+00 -0.27493711953E+02  0.12801167548E+03  0.12502433707E+03 0.  0.
    9000005    1    3    3    0    0 -0.39588303798E+02 -0.32529412888E+01 -0.63159221309E+02  0.74618380182E+02  0.10000000000E+01 0.  0.
    9000005    1    3    3    0    0  0.39588303798E+02  0.32529412888E+01  0.35665509356E+02  0.53393295293E+02  0.10000000000E+01 0.  0.
<mgrwt>
<rscale>  0 0.12502434E+03</rscale>
<asrwt>0</asrwt>
<pdfrwt beam="2">  1        4 0.19438173E-01 0.12502434E+03</pdfrwt>
<pdfrwt beam="1">  1       -4 0.12564746E-01 0.12502434E+03</pdfrwt>
<totfact> 0.19660729E+03</totfact>
</mgrwt>
</event>
<event>
 5    1  0.1451195E-002  0.1249974E+03  0.7818608E-02  0.1235073E+00
          4   -1    0    0  501    0  0.00000000000E+00  0.00000000000E+00  0.57999077283E+02  0.58012980148E+02  0.12700000000E+01 0.  1.
         -4   -1    0    0    0  501 -0.00000000000E+00 -0.00000000000E+00 -0.67319489311E+02  0.67331467688E+02  0.12700000000E+01 0.  1.
         25    2    1    2    0    0  0.00000000000E+00  0.00000000000E+00 -0.93204120275E+01  0.12534444784E+03  0.12499744207E+03 0.  0.
    9000005    1    3    3    0    0 -0.80034093376E+01  0.10616461483E+02 -0.65889737158E+02  0.67225153612E+02  0.10000000000E+01 0.  0.
    9000005    1    3    3    0    0  0.80034093376E+01 -0.10616461483E+02  0.56569325130E+02  0.58119294224E+02  0.10000000000E+01 0.  0.
<mgrwt>
<rscale>  0 0.12499744E+03</rscale>
<asrwt>0</asrwt>
<pdfrwt beam="1">  1        4 0.14503004E-01 0.12499744E+03</pdfrwt>
<pdfrwt beam="2">  1       -4 0.16833107E-01 0.12499744E+03</pdfrwt>
<totfact> 0.19817573E+03</totfact>
</mgrwt>
</event>
<event>
 5    1  0.1451195E-002  0.1250001E+03  0.7818608E-02  0.1235069E+00
          4   -1    0    0  501    0  0.00000000000E+00  0.00000000000E+00  0.11057651888E+02  0.11130344347E+02  0.12700000000E+01 0.  1.
         -4   -1    0    0    0  501 -0.00000000000E+00 -0.00000000000E+00 -0.35203145153E+03  0.35203374237E+03  0.12700000000E+01 0.  1.
         25    2    1    2    0    0  0.00000000000E+00  0.00000000000E+00 -0.34097379964E+03  0.36316408671E+03  0.12500008735E+03 0.  0.
    9000005    1    3    3    0    0  0.25467202189E+02 -0.49898599546E+02 -0.25093866288E+03  0.25711799072E+03  0.10000000000E+01 0.  0.
    9000005    1    3    3    0    0 -0.25467202189E+02  0.49898599546E+02 -0.90035136761E+02  0.10604609599E+03  0.10000000000E+01 0.  0.
<mgrwt>
<rscale>  0 0.12500009E+03</rscale>
<asrwt>0</asrwt>
<pdfrwt beam="1">  1        4 0.27737871E-02 0.12500009E+03</pdfrwt>
<pdfrwt beam="2">  1       -4 0.88017199E-01 0.12500009E+03</pdfrwt>
<totfact> 0.11369510E+03</totfact>
</mgrwt>
</event>
<event>
 5    1  0.1451195E-002  0.1249989E+03  0.7818608E-02  0.1235071E+00
         -4   -1    0    0    0  501 -0.00000000000E+00  0.00000000000E+00  0.49951691502E+03  0.49951852948E+03  0.12700000000E+01 0.  1.
          4   -1    0    0  501    0  0.00000000000E+00 -0.00000000000E+00 -0.77667181111E+01  0.78698672300E+01  0.12700000000E+01 0.  1.
         25    2    1    2    0    0  0.00000000000E+00  0.00000000000E+00  0.49175019691E+03  0.50738839671E+03  0.12499891581E+03 0.  0.
    9000005    1    3    3    0    0  0.44823860833E+02  0.39551301607E+02  0.17194761979E+03  0.18204523589E+03  0.10000000000E+01 0.  0.
    9000005    1    3    3    0    0 -0.44823860833E+02 -0.39551301607E+02  0.31980257712E+03  0.32534316081E+03  0.10000000000E+01 0.  0.
<mgrwt>
<rscale>  0 0.12499892E+03</rscale>
<asrwt>0</asrwt>
<pdfrwt beam="2">  1        4 0.19547752E-02 0.12499892E+03</pdfrwt>
<pdfrwt beam="1">  1       -4 0.12489231E+00 0.12499892E+03</pdfrwt>
<totfact> 0.86445755E+02</totfact>
</mgrwt>
</event>
<event>
 5    1  0.1451195E-002  0.1250012E+03  0.7818608E-02  0.1235067E+00
          4   -1    0    0  501    0  0.00000000000E+00  0.00000000000E+00  0.10085321651E+03  0.10086121247E+03  0.12700000000E+01 0. -1.
         -4   -1    0    0    0  501 -0.00000000000E+00 -0.00000000000E+00 -0.38712832007E+02  0.38733657999E+02  0.12700000000E+01 0. -1.
         25    2    1    2    0    0  0.00000000000E+00  0.00000000000E+00  0.62140384507E+02  0.13959487047E+03  0.12500120189E+03 0.  0.
    9000005    1    3    3    0    0  0.46891337462E+02  0.19534688271E+02 -0.95788839356E+01  0.51702578198E+02  0.10000000000E+01 0.  0.
    9000005    1    3    3    0    0 -0.46891337462E+02 -0.19534688271E+02  0.71719268443E+02  0.87892292272E+02  0.10000000000E+01 0.  0.
<mgrwt>
<rscale>  0 0.12500120E+03</rscale>
<asrwt>0</asrwt>
<pdfrwt beam="1">  1        4 0.25216907E-01 0.12500120E+03</pdfrwt>
<pdfrwt beam="2">  1       -4 0.96818108E-02 0.12500120E+03</pdfrwt>
<totfact> 0.19060553E+03</totfact>
</mgrwt>
</event>
<event>
 5    1  0.1451195E-002  0.1249985E+03  0.7818608E-02  0.1235072E+00
          4   -1    0    0  501    0  0.00000000000E+00  0.00000000000E+00  0.30969037337E+03  0.30969297741E+03  0.12700000000E+01 0.  1.
         -4   -1    0    0    0  501 -0.00000000000E+00 -0.00000000000E+00 -0.12578463006E+02  0.12642413994E+02  0.12700000000E+01 0.  1.
         25    2    1    2    0    0  0.00000000000E+00  0.00000000000E+00  0.29711191036E+03  0.32233539140E+03  0.12499846908E+03 0.  0.
    9000005    1    3    3    0    0  0.17346014278E+02  0.14276171639E+02 -0.18178533665E+01  0.22560981337E+02  0.10000000000E+01 0.  0.
    9000005    1    3    3    0    0 -0.17346014278E+02 -0.14276171639E+02  0.29892976373E+03  0.29977441007E+03  0.10000000000E+01 0.  0.
<mgrwt>
<rscale>  0 0.12499847E+03</rscale>
<asrwt>0</asrwt>
<pdfrwt beam="1">  1        4 0.77430910E-01 0.12499847E+03</pdfrwt>
<pdfrwt beam="2">  1       -4 0.31529353E-02 0.12499847E+03</pdfrwt>
<totfact> 0.12367807E+03</totfact>
</mgrwt>
</event>
<event>
 5    1  0.1451195E-002  0.1249941E+03  0.7818608E-02  0.1235078E+00
         -4   -1    0    0    0  501 -0.00000000000E+00  0.00000000000E+00  0.18119845372E+01  0.22127331432E+01  0.12700000000E+01 0. -1.
          4   -1    0    0  501    0  0.00000000000E+00 -0.00000000000E+00 -0.19405469265E+04  0.19405473421E+04  0.12700000000E+01 0. -1.
         25    2    1    2    0    0  0.00000000000E+00  0.00000000000E+00 -0.19387349419E+04  0.19427600752E+04  0.12499413862E+03 0.  0.
    9000005    1    3    3    0    0 -0.11657056736E+02  0.36623219606E+02 -0.17351938023E+04  0.17356196815E+04  0.10000000000E+01 0.  0.
    9000005    1    3    3    0    0  0.11657056736E+02 -0.36623219606E+02 -0.20354113967E+03  0.20714039375E+03  0.10000000000E+01 0.  0.
<mgrwt>
<rscale>  0 0.12499414E+03</rscale>
<asrwt>0</asrwt>
<pdfrwt beam="2">  1        4 0.48518045E+00 0.12499414E+03</pdfrwt>
<pdfrwt beam="1">  1       -4 0.50314832E-03 0.12499414E+03</pdfrwt>
<totfact> 0.31519722E+01</totfact>
</mgrwt>
</event>
<event>
 5    1  0.1451195E-002  0.1250045E+03  0.7818608E-02  0.1235062E+00
          4   -1    0    0  501    0  0.00000000000E+00  0.00000000000E+00  0.25791542889E+02  0.25822791959E+02  0.12700000000E+01 0.  1.
         -4   -1    0    0    0  501 -0.00000000000E+00 -0.00000000000E+00 -0.15134006556E+03  0.15134539419E+03  0.12700000000E+01 0.  1.
         25    2    1    2    0    0  0.00000000000E+00  0.00000000000E+00 -0.12554852267E+03  0.17716818615E+03  0.12500453847E+03 0.  0.
    9000005    1    3    3    0    0 -0.24202611550E+02 -0.17600836331E+02 -0.14053163889E+03  0.14368610710E+03  0.10000000000E+01 0.  0.
    9000005    1    3    3    0    0  0.24202611550E+02  0.17600836331E+02  0.14983116224E+02  0.33482079045E+02  0.10000000000E+01 0.  0.
<mgrwt>
<rscale>  0 0.12500454E+03</rscale>
<asrwt>0</asrwt>
<pdfrwt beam="1">  1        4 0.64524584E-02 0.12500454E+03</pdfrwt>
<pdfrwt beam="2">  1       -4 0.37839586E-01 0.12500454E+03</pdfrwt>
<totfact> 0.17276677E+03</totfact>
</mgrwt>
</event>
<event>
 5    1  0.1451195E-002  0.1249992E+03  0.7818608E-02  0.1235071E+00
         -4   -1    0    0    0  501 -0.00000000000E+00  0.00000000000E+00  0.42519739651E+03  0.42519929315E+03  0.12700000000E+01 0. -1.
          4   -1    0    0  501    0  0.00000000000E+00 -0.00000000000E+00 -0.91409665251E+01  0.92287685534E+01  0.12700000000E+01 0. -1.
         25    2    1    2    0    0  0.00000000000E+00  0.00000000000E+00  0.41605642998E+03  0.43442806170E+03  0.12499915147E+03 0.  0.
    9000005    1    3    3    0    0 -0.48450490829E+02 -0.37930427719E+02  0.17011084410E+03  0.18090015669E+03  0.10000000000E+01 0.  0.
    9000005    1    3    3    0    0  0.48450490829E+02  0.37930427719E+02  0.24594558588E+03  0.25352790502E+03  0.10000000000E+01 0.  0.
<mgrwt>
<rscale>  0 0.12499915E+03</rscale>
<asrwt>0</asrwt>
<pdfrwt beam="2">  1        4 0.22964539E-02 0.12499915E+03</pdfrwt>
<pdfrwt beam="1">  1       -4 0.10631057E+00 0.12499915E+03</pdfrwt>
<totfact> 0.98883305E+02</totfact>
</mgrwt>
</event>
<event>
 5    1  0.1451195E-002  0.1250011E+03  0.7818608E-02  0.1235068E+00
          4   -1    0    0  501    0  0.00000000000E+00  0.00000000000E+00  0.23001015202E+01  0.26274259273E+01  0.12700000000E+01 0. -1.
         -4   -1    0    0    0  501 -0.00000000000E+00 -0.00000000000E+00 -0.15851806121E+04  0.15851811208E+04  0.12700000000E+01 0. -1.
         25    2    1    2    0    0  0.00000000000E+00  0.00000000000E+00 -0.15828805106E+04  0.15878085468E+04  0.12500108169E+03 0.  0.
    9000005    1    3    3    0    0  0.37497794031E+02 -0.47057351545E+02 -0.10058200608E+04  0.10076187144E+04  0.10000000000E+01 0.  0.
    9000005    1    3    3    0    0 -0.37497794031E+02  0.47057351545E+02 -0.57706044977E+03  0.58018983237E+03  0.10000000000E+01 0.  0.
<mgrwt>
<rscale>  0 0.12500108E+03</rscale>
<asrwt>0</asrwt>
<pdfrwt beam="1">  1        4 0.61600996E-03 0.12500108E+03</pdfrwt>
<pdfrwt beam="2">  1       -4 0.39633263E+00 0.12500108E+03</pdfrwt>
<totfact> 0.98350491E+01</totfact>
</mgrwt>
</event>
<event>
 5    1  0.1451195E-002  0.1249996E+03  0.7818608E-02  0.1235070E+00
         -4   -1    0    0    0  501 -0.00000000000E+00  0.00000000000E+00  0.35131881246E+03  0.35132110795E+03  0.12700000000E+01 0. -1.
          4   -1    0    0  501    0  0.00000000000E+00 -0.00000000000E+00 -0.11080140455E+02  0.11152686335E+02  0.12700000000E+01 0. -1.
         25    2    1    2    0    0  0.00000000000E+00  0.00000000000E+00  0.34023867201E+03  0.36247379428E+03  0.12499959045E+03 0.  0.
    9000005    1    3    3    0    0  0.55355354917E+02  0.81515324356E+01  0.25082351173E+03  0.25699046059E+03  0.10000000000E+01 0.  0.
    9000005    1    3    3    0    0 -0.55355354917E+02 -0.81515324356E+01  0.89415160277E+02  0.10548333369E+03  0.10000000000E+01 0.  0.
<mgrwt>
<rscale>  0 0.12499959E+03</rscale>
<asrwt>0</asrwt>
<pdfrwt beam="2">  1        4 0.27793902E-02 0.12499959E+03</pdfrwt>
<pdfrwt beam="1">  1       -4 0.87839060E-01 0.12499959E+03</pdfrwt>
<totfact> 0.11385474E+03</totfact>
</mgrwt>
</event>
<event>
 5    1  0.1451195E-002  0.1249943E+03  0.7818608E-02  0.1235078E+00
          4   -1    0    0  501    0  0.00000000000E+00  0.00000000000E+00  0.54437555873E+02  0.54452368079E+02  0.12700000000E+01 0. -1.
         -4   -1    0    0    0  501 -0.00000000000E+00 -0.00000000000E+00 -0.71719783349E+02  0.71731026925E+02  0.12700000000E+01 0. -1.
         25    2    1    2    0    0  0.00000000000E+00  0.00000000000E+00 -0.17282227476E+02  0.12618339500E+03  0.12499429502E+03 0.  0.
    9000005    1    3    3    0    0 -0.31224479108E+02  0.54067884864E+02 -0.60497544707E+01  0.62736781862E+02  0.10000000000E+01 0.  0.
    9000005    1    3    3    0    0  0.31224479108E+02 -0.54067884864E+02 -0.11232473006E+02  0.63446613141E+02  0.10000000000E+01 0.  0.
<mgrwt>
<rscale>  0 0.12499430E+03</rscale>
<asrwt>0</asrwt>
<pdfrwt beam="1">  1        4 0.13612646E-01 0.12499430E+03</pdfrwt>
<pdfrwt beam="2">  1       -4 0.17933203E-01 0.12499430E+03</pdfrwt>
<totfact> 0.19773651E+03</totfact>
</mgrwt>
</event>
<event>
 5    1  0.1451195E-002  0.1249970E+03  0.7818608E-02  0.1235074E+00
         -4   -1    0    0    0  501 -0.00000000000E+00  0.00000000000E+00  0.34182332928E+03  0.34182568853E+03  0.12700000000E+01 0.  1.
          4   -1    0    0  501    0  0.00000000000E+00 -0.00000000000E+00 -0.11389454475E+02  0.11460042462E+02  0.12700000000E+01 0.  1.
         25    2    1    2    0    0  0.00000000000E+00  0.00000000000E+00  0.33043387481E+03  0.35328573100E+03  0.12499704838E+03 0.  0.
    9000005    1    3    3    0    0 -0.67073502852E+01  0.45398748829E+02  0.28509662765E+03  0.28876828434E+03  0.10000000000E+01 0.  0.
    9000005    1    3    3    0    0  0.67073502852E+01 -0.45398748829E+02  0.45337247154E+02  0.64517446652E+02  0.10000000000E+01 0.  0.
<mgrwt>
<rscale>  0 0.12499705E+03</rscale>
<asrwt>0</asrwt>
<pdfrwt beam="2">  1        4 0.28564821E-02 0.12499705E+03</pdfrwt>
<pdfrwt beam="1">  1       -4 0.85464947E-01 0.12499705E+03</pdfrwt>
<totfact> 0.11600124E+03</totfact>
</mgrwt>
</event>
<event>
 5    1  0.1451195E-002  0.1249970E+03  0.7818608E-02  0.1235074E+00
          4   -1    0    0  501    0  0.00000000000E+00  0.00000000000E+00  0.34434567357E+02  0.34457979179E+02  0.12700000000E+01 0.  1.
         -4   -1    0    0    0  501 -0.00000000000E+00 -0.00000000000E+00 -0.11336890313E+03  0.11337601641E+03  0.12700000000E+01 0.  1.
         25    2    1    2    0    0  0.00000000000E+00  0.00000000000E+00 -0.78934335772E+02  0.14783399559E+03  0.12499704352E+03 0.  0.
    9000005    1    3    3    0    0 -0.50748117951E+02  0.31384348030E+02 -0.61425814782E+02  0.85641575759E+02  0.10000000000E+01 0.  0.
    9000005    1    3    3    0    0  0.50748117951E+02 -0.31384348030E+02 -0.17508520990E+02  0.62192419828E+02  0.10000000000E+01 0.  0.
<mgrwt>
<rscale>  0 0.12499704E+03</rscale>
<asrwt>0</asrwt>
<pdfrwt beam="1">  1        4 0.86124577E-02 0.12499704E+03</pdfrwt>
<pdfrwt beam="2">  1       -4 0.28346041E-01 0.12499704E+03</pdfrwt>
<totfact> 0.18647082E+03</totfact>
</mgrwt>
</event>
<event>
 5    1  0.1451195E-002  0.1250008E+03  0.7818608E-02  0.1235068E+00
          4   -1    0    0  501    0  0.00000000000E+00  0.00000000000E+00  0.21004946869E+02  0.21043305182E+02  0.12700000000E+01 0.  1.
         -4   -1    0    0    0  501 -0.00000000000E+00 -0.00000000000E+00 -0.18576018216E+03  0.18576452346E+03  0.12700000000E+01 0.  1.
         25    2    1    2    0    0  0.00000000000E+00  0.00000000000E+00 -0.16475523529E+03  0.20680782864E+03  0.12500076172E+03 0.  0.
    9000005    1    3    3    0    0  0.58049736717E+02  0.17078106431E+02 -0.10821378699E+03  0.12398652083E+03  0.10000000000E+01 0.  0.
    9000005    1    3    3    0    0 -0.58049736717E+02 -0.17078106431E+02 -0.56541448304E+02  0.82821307817E+02  0.10000000000E+01 0.  0.
<mgrwt>
<rscale>  0 0.12500076E+03</rscale>
<asrwt>0</asrwt>
<pdfrwt beam="1">  1        4 0.52565747E-02 0.12500076E+03</pdfrwt>
<pdfrwt beam="2">  1       -4 0.46445378E-01 0.12500076E+03</pdfrwt>
<totfact> 0.16052745E+03</totfact>
</mgrwt>
</event>
<event>
 5    1  0.1451195E-002  0.1250000E+03  0.7818608E-02  0.1235069E+00
         -4   -1    0    0    0  501 -0.00000000000E+00  0.00000000000E+00  0.41330833874E+02  0.41350341338E+02  0.12700000000E+01 0.  1.
          4   -1    0    0  501    0  0.00000000000E+00 -0.00000000000E+00 -0.94465738907E+02  0.94474275479E+02  0.12700000000E+01 0.  1.
         25    2    1    2    0    0  0.00000000000E+00  0.00000000000E+00 -0.53134905033E+02  0.13582461682E+03  0.12500003360E+03 0.  0.
    9000005    1    3    3    0    0 -0.31695403956E+02  0.38332618150E+02  0.14540723790E+02  0.51830694520E+02  0.10000000000E+01 0.  0.
    9000005    1    3    3    0    0  0.31695403956E+02 -0.38332618150E+02 -0.67675628823E+02  0.83993922297E+02  0.10000000000E+01 0.  0.
<mgrwt>
<rscale>  0 0.12500003E+03</rscale>
<asrwt>0</asrwt>
<pdfrwt beam="2">  1        4 0.23619940E-01 0.12500003E+03</pdfrwt>
<pdfrwt beam="1">  1       -4 0.10336214E-01 0.12500003E+03</pdfrwt>
<totfact> 0.19256016E+03</totfact>
</mgrwt>
</event>
<event>
 4    1  0.1451195E-002  0.1196509E+03  0.7818608E-02  0.1243674E+00
          4   -1    0    0  501    0  0.00000000000E+00  0.00000000000E+00  0.32526314063E+03  0.32526562000E+03  0.12700000000E+01 0.  1.
         -4   -1    0    0    0  501 -0.00000000000E+00 -0.00000000000E+00 -0.10964483680E+02  0.11037789741E+02  0.12700000000E+01 0.  1.
    9000005    1    1    2    0    0 -0.19341221790E+02  0.49361060620E+02  0.23501587032E+03  0.24092334147E+03  0.10000000000E+01 0.  0.
    9000005    1    1    2    0    0  0.19341221790E+02 -0.49361060620E+02  0.79282786633E+02  0.95380068265E+02  0.10000000000E+01 0.  0.
<mgrwt>
<rscale>  0 0.11965090E+03</rscale>
<asrwt>0</asrwt>
<pdfrwt beam="1">  1        4 0.81325261E-01 0.11965090E+03</pdfrwt>
<pdfrwt beam="2">  1       -4 0.27505940E-02 0.11965090E+03</pdfrwt>
<totfact> 0.13605017E+03</totfact>
</mgrwt>
</event>
<event>
 5    1  0.1451195E-002  0.1250035E+03  0.7818608E-02  0.1235064E+00
          4   -1    0    0  501    0  0.00000000000E+00  0.00000000000E+00  0.92874580757E+02  0.92883263566E+02  0.12700000000E+01 0.  1.
         -4   -1    0    0    0  501 -0.00000000000E+00 -0.00000000000E+00 -0.42041513031E+02  0.42060690888E+02  0.12700000000E+01 0.  1.
         25    2    1    2    0    0  0.00000000000E+00  0.00000000000E+00  0.50833067725E+02  0.13494395445E+03  0.12500348023E+03 0.  0.
    9000005    1    3    3    0    0 -0.56818492736E+02  0.13081664534E+02  0.49699686227E+02  0.76619383154E+02  0.10000000000E+01 0.  0.
    9000005    1    3    3    0    0  0.56818492736E+02 -0.13081664534E+02  0.11333814982E+01  0.58324571300E+02  0.10000000000E+01 0.  0.
<mgrwt>
<rscale>  0 0.12500348E+03</rscale>
<asrwt>0</asrwt>
<pdfrwt beam="1">  1        4 0.23222128E-01 0.12500348E+03</pdfrwt>
<pdfrwt beam="2">  1       -4 0.10513861E-01 0.12500348E+03</pdfrwt>
<totfact> 0.19300506E+03</totfact>
</mgrwt>
</event>
<event>
 5    1  0.1451195E-002  0.1249998E+03  0.7818608E-02  0.1235070E+00
         -4   -1    0    0    0  501 -0.00000000000E+00  0.00000000000E+00  0.53162380336E+01  0.54658290158E+01  0.12700000000E+01 0.  1.
          4   -1    0    0  501    0  0.00000000000E+00 -0.00000000000E+00 -0.72443013756E+03  0.72443125078E+03  0.12700000000E+01 0.  1.
         25    2    1    2    0    0  0.00000000000E+00  0.00000000000E+00 -0.71911389952E+03  0.72989707979E+03  0.12499978640E+03 0.  0.
    9000005    1    3    3    0    0 -0.41027357273E+02  0.43438958619E+02 -0.46643950527E+03  0.47025205927E+03  0.10000000000E+01 0.  0.
    9000005    1    3    3    0    0  0.41027357273E+02 -0.43438958619E+02 -0.25267439426E+03  0.25964502052E+03  0.10000000000E+01 0.  0.
<mgrwt>
<rscale>  0 0.12499979E+03</rscale>
<asrwt>0</asrwt>
<pdfrwt beam="2">  1        4 0.18112604E+00 0.12499979E+03</pdfrwt>
<pdfrwt beam="1">  1       -4 0.13479000E-02 0.12499979E+03</pdfrwt>
<totfact> 0.59025307E+02</totfact>
</mgrwt>
</event>
<event>
 5    1  0.1451195E-002  0.1250060E+03  0.7818608E-02  0.1235060E+00
         -4   -1    0    0    0  501 -0.00000000000E+00  0.00000000000E+00  0.53342242262E+01  0.54833245477E+01  0.12700000000E+01 0.  1.
          4   -1    0    0  501    0  0.00000000000E+00 -0.00000000000E+00 -0.72212631781E+03  0.72212743458E+03  0.12700000000E+01 0.  1.
         25    2    1    2    0    0  0.00000000000E+00  0.00000000000E+00 -0.71679209359E+03  0.72761075913E+03  0.12500604535E+03 0.  0.
    9000005    1    3    3    0    0  0.10287201613E+01 -0.29784556995E+02 -0.67812952994E+03  0.67878482413E+03  0.10000000000E+01 0.  0.
    9000005    1    3    3    0    0 -0.10287201613E+01  0.29784556995E+02 -0.38662563653E+02  0.48825935001E+02  0.10000000000E+01 0.  0.
<mgrwt>
<rscale>  0 0.12500605E+03</rscale>
<asrwt>0</asrwt>
<pdfrwt beam="2">  1        4 0.18055003E+00 0.12500605E+03</pdfrwt>
<pdfrwt beam="1">  1       -4 0.13523357E-02 0.12500605E+03</pdfrwt>
<totfact> 0.59243719E+02</totfact>
</mgrwt>
</event>
<event>
 5    1  0.1451195E-002  0.1249951E+03  0.7818608E-02  0.1235077E+00
          4   -1    0    0  501    0  0.00000000000E+00  0.00000000000E+00  0.71498815375E+02  0.71510093693E+02  0.12700000000E+01 0. -1.
         -4   -1    0    0    0  501 -0.00000000000E+00 -0.00000000000E+00 -0.54606480330E+02  0.54621246727E+02  0.12700000000E+01 0. -1.
         25    2    1    2    0    0  0.00000000000E+00  0.00000000000E+00  0.16892335045E+02  0.12613134042E+03  0.12499505611E+03 0.  0.
    9000005    1    3    3    0    0 -0.59160521001E+02 -0.16569333679E+02 -0.30782903138E+01  0.61522239352E+02  0.10000000000E+01 0.  0.
    9000005    1    3    3    0    0  0.59160521001E+02  0.16569333679E+02  0.19970625359E+02  0.64609101068E+02  0.10000000000E+01 0.  0.
<mgrwt>
<rscale>  0 0.12499506E+03</rscale>
<asrwt>0</asrwt>
<pdfrwt beam="1">  1        4 0.17877959E-01 0.12499506E+03</pdfrwt>
<pdfrwt beam="2">  1       -4 0.13654876E-01 0.12499506E+03</pdfrwt>
<totfact> 0.19776111E+03</totfact>
</mgrwt>
</event>
<event>
 5    1  0.1451195E-002  0.1250012E+03  0.7818608E-02  0.1235067E+00
         -4   -1    0    0    0  501 -0.00000000000E+00  0.00000000000E+00  0.72687650986E+02  0.72698744871E+02  0.12700000000E+01 0.  1.
          4   -1    0    0  501    0  0.00000000000E+00 -0.00000000000E+00 -0.53718506785E+02  0.53733517205E+02  0.12700000000E+01 0.  1.
         25    2    1    2    0    0  0.00000000000E+00  0.00000000000E+00  0.18969144200E+02  0.12643226208E+03  0.12500115384E+03 0.  0.
    9000005    1    3    3    0    0 -0.14101855739E+02 -0.21121297670E+02  0.67237769899E+02  0.71881077145E+02  0.10000000000E+01 0.  0.
    9000005    1    3    3    0    0  0.14101855739E+02  0.21121297670E+02 -0.48268625699E+02  0.54551184931E+02  0.10000000000E+01 0.  0.
<mgrwt>
<rscale>  0 0.12500115E+03</rscale>
<asrwt>0</asrwt>
<pdfrwt beam="2">  1        4 0.13432890E-01 0.12500115E+03</pdfrwt>
<pdfrwt beam="1">  1       -4 0.18175176E-01 0.12500115E+03</pdfrwt>
<totfact> 0.19757046E+03</totfact>
</mgrwt>
</event>
<event>
 5    1  0.1451195E-002  0.1249996E+03  0.7818608E-02  0.1235070E+00
          4   -1    0    0  501    0  0.00000000000E+00  0.00000000000E+00  0.75115265578E+02  0.75126000978E+02  0.12700000000E+01 0. -1.
         -4   -1    0    0    0  501 -0.00000000000E+00 -0.00000000000E+00 -0.51980892279E+02  0.51996404320E+02  0.12700000000E+01 0. -1.
         25    2    1    2    0    0  0.00000000000E+00  0.00000000000E+00  0.23134373299E+02  0.12712240530E+03  0.12499962680E+03 0.  0.
    9000005    1    3    3    0    0 -0.11838411931E+02  0.61348747905E+02  0.10359669079E+02  0.63341452541E+02  0.10000000000E+01 0.  0.
    9000005    1    3    3    0    0  0.11838411931E+02 -0.61348747905E+02  0.12774704219E+02  0.63780952756E+02  0.10000000000E+01 0.  0.
<mgrwt>
<rscale>  0 0.12499963E+03</rscale>
<asrwt>0</asrwt>
<pdfrwt beam="1">  1        4 0.18782097E-01 0.12499963E+03</pdfrwt>
<pdfrwt beam="2">  1       -4 0.12998504E-01 0.12499963E+03</pdfrwt>
<totfact> 0.19720534E+03</totfact>
</mgrwt>
</event>
<event>
 5    1  0.1451195E-002  0.1250518E+03  0.7818608E-02  0.1234988E+00
          4   -1    0    0  501    0  0.00000000000E+00  0.00000000000E+00  0.71770942882E+01  0.72885926228E+01  0.12700000000E+01 0.  1.
         -4   -1    0    0    0  501 -0.00000000000E+00 -0.00000000000E+00 -0.54040670597E+03  0.54040819827E+03  0.12700000000E+01 0.  1.
         25    2    1    2    0    0  0.00000000000E+00  0.00000000000E+00 -0.53322961168E+03  0.54769679089E+03  0.12505181318E+03 0.  0.
    9000005    1    3    3    0    0 -0.15143608714E+02  0.26075754025E+01 -0.53202821864E+03  0.53225102514E+03  0.10000000000E+01 0.  0.
    9000005    1    3    3    0    0  0.15143608714E+02 -0.26075754025E+01 -0.12013930397E+01  0.15445765750E+02  0.10000000000E+01 0.  0.
<mgrwt>
<rscale>  0 0.12505181E+03</rscale>
<asrwt>0</asrwt>
<pdfrwt beam="1">  1        4 0.18083992E-02 0.12505181E+03</pdfrwt>
<pdfrwt beam="2">  1       -4 0.13511566E+00 0.12505181E+03</pdfrwt>
<totfact> 0.80394229E+02</totfact>
</mgrwt>
</event>
<event>
 5    1  0.1451195E-002  0.1250108E+03  0.7818608E-02  0.1235052E+00
         -4   -1    0    0    0  501 -0.00000000000E+00  0.00000000000E+00  0.36590998237E+02  0.36613031177E+02  0.12700000000E+01 0.  1.
          4   -1    0    0  501    0  0.00000000000E+00 -0.00000000000E+00 -0.10671486407E+03  0.10672242085E+03  0.12700000000E+01 0.  1.
         25    2    1    2    0    0  0.00000000000E+00  0.00000000000E+00 -0.70123865830E+02  0.14333545203E+03  0.12501078053E+03 0.  0.
    9000005    1    3    3    0    0 -0.28448634675E+01  0.23934864947E+02  0.31052898694E+02  0.39322430310E+02  0.10000000000E+01 0.  0.
    9000005    1    3    3    0    0  0.28448634675E+01 -0.23934864947E+02 -0.10117676452E+03  0.10401302172E+03  0.10000000000E+01 0.  0.
<mgrwt>
<rscale>  0 0.12501078E+03</rscale>
<asrwt>0</asrwt>
<pdfrwt beam="2">  1        4 0.26682414E-01 0.12501078E+03</pdfrwt>
<pdfrwt beam="1">  1       -4 0.91514485E-02 0.12501078E+03</pdfrwt>
<totfact> 0.18866245E+03</totfact>
</mgrwt>
</event>
<event>
 4    1  0.1451195E-002  0.1248034E+03  0.7818608E-02  0.1235377E+00
          4   -1    0    0  501    0  0.00000000000E+00  0.00000000000E+00  0.40359004541E+01  0.42310037196E+01  0.12700000000E+01 0. -1.
         -4   -1    0    0    0  501 -0.00000000000E+00 -0.00000000000E+00 -0.94186812470E+03  0.94186898092E+03  0.12700000000E+01 0. -1.
    9000005    1    1    2    0    0 -0.25224952766E+02  0.51126938196E+02 -0.66110089293E+03  0.66355531245E+03  0.10000000000E+01 0.  0.
    9000005    1    1    2    0    0  0.25224952766E+02 -0.51126938196E+02 -0.27673133132E+03  0.28254467219E+03  0.10000000000E+01 0.  0.
<mgrwt>
<rscale>  0 0.12480345E+03</rscale>
<asrwt>0</asrwt>
<pdfrwt beam="1">  1        4 0.10334733E-02 0.12480345E+03</pdfrwt>
<pdfrwt beam="2">  1       -4 0.23549079E+00 0.12480345E+03</pdfrwt>
<totfact> 0.41039422E+02</totfact>
</mgrwt>
</event>
<event>
 5    1  0.1451195E-002  0.1250036E+03  0.7818608E-02  0.1235064E+00
         -4   -1    0    0    0  501 -0.00000000000E+00  0.00000000000E+00  0.23979061341E+02  0.24012669215E+02  0.12700000000E+01 0. -1.
          4   -1    0    0  501    0  0.00000000000E+00 -0.00000000000E+00 -0.16276174790E+03  0.16276670261E+03  0.12700000000E+01 0. -1.
         25    2    1    2    0    0  0.00000000000E+00  0.00000000000E+00 -0.13878268656E+03  0.18677937183E+03  0.12500359856E+03 0.  0.
    9000005    1    3    3    0    0 -0.56131256534E+02 -0.21397278004E+02 -0.95138028796E+02  0.11252024702E+03  0.10000000000E+01 0.  0.
    9000005    1    3    3    0    0  0.56131256534E+02  0.21397278004E+02 -0.43644657762E+02  0.74259124808E+02  0.10000000000E+01 0.  0.
<mgrwt>
<rscale>  0 0.12500360E+03</rscale>
<asrwt>0</asrwt>
<pdfrwt beam="2">  1        4 0.40695254E-01 0.12500360E+03</pdfrwt>
<pdfrwt beam="1">  1       -4 0.59995861E-02 0.12500360E+03</pdfrwt>
<totfact> 0.16864067E+03</totfact>
</mgrwt>
</event>
<event>
 5    1  0.1451195E-002  0.1250018E+03  0.7818608E-02  0.1235067E+00
          4   -1    0    0  501    0  0.00000000000E+00  0.00000000000E+00  0.15903092790E+03  0.15903599884E+03  0.12700000000E+01 0.  1.
         -4   -1    0    0    0  501 -0.00000000000E+00 -0.00000000000E+00 -0.24541645390E+02  0.24574483890E+02  0.12700000000E+01 0.  1.
         25    2    1    2    0    0  0.00000000000E+00  0.00000000000E+00  0.13448928251E+03  0.18361048273E+03  0.12500176903E+03 0.  0.
    9000005    1    3    3    0    0 -0.28393866573E+02 -0.55319406466E+02  0.76407353816E+02  0.98516659037E+02  0.10000000000E+01 0.  0.
    9000005    1    3    3    0    0  0.28393866573E+02  0.55319406466E+02  0.58081928692E+02  0.85093823697E+02  0.10000000000E+01 0.  0.
<mgrwt>
<rscale>  0 0.12500177E+03</rscale>
<asrwt>0</asrwt>
<pdfrwt beam="1">  1        4 0.39762470E-01 0.12500177E+03</pdfrwt>
<pdfrwt beam="2">  1       -4 0.61401501E-02 0.12500177E+03</pdfrwt>
<totfact> 0.16999343E+03</totfact>
</mgrwt>
</event>
<event>
 5    1  0.1451195E-002  0.1249991E+03  0.7818608E-02  0.1235071E+00
         -4   -1    0    0    0  501 -0.00000000000E+00  0.00000000000E+00  0.58087311668E+03  0.58087450502E+03  0.12700000000E+01 0. -1.
          4   -1    0    0  501    0  0.00000000000E+00 -0.00000000000E+00 -0.66633256443E+01  0.67832741830E+01  0.12700000000E+01 0. -1.
         25    2    1    2    0    0  0.00000000000E+00  0.00000000000E+00  0.57420979104E+03  0.58765777921E+03  0.12499912534E+03 0.  0.
    9000005    1    3    3    0    0 -0.51431277172E+02  0.35496396563E+02  0.28784665021E+03  0.29455366994E+03  0.10000000000E+01 0.  0.
    9000005    1    3    3    0    0  0.51431277172E+02 -0.35496396563E+02  0.28636314083E+03  0.29310410927E+03  0.10000000000E+01 0.  0.
<mgrwt>
<rscale>  0 0.12499913E+03</rscale>
<asrwt>0</asrwt>
<pdfrwt beam="2">  1        4 0.16809985E-02 0.12499913E+03</pdfrwt>
<pdfrwt beam="1">  1       -4 0.14523345E+00 0.12499913E+03</pdfrwt>
<totfact> 0.75079562E+02</totfact>
</mgrwt>
</event>
<event>
 5    1  0.1451195E-002  0.1249982E+03  0.7818608E-02  0.1235072E+00
         -4   -1    0    0    0  501 -0.00000000000E+00  0.00000000000E+00  0.56489641752E+01  0.57899651340E+01  0.12700000000E+01 0.  1.
          4   -1    0    0  501    0  0.00000000000E+00 -0.00000000000E+00 -0.68281375321E+03  0.68281493428E+03  0.12700000000E+01 0.  1.
         25    2    1    2    0    0  0.00000000000E+00  0.00000000000E+00 -0.67716478903E+03  0.68860489941E+03  0.12499822393E+03 0.  0.
    9000005    1    3    3    0    0  0.31703499081E+02 -0.52004023515E+02 -0.26153457935E+03  0.26853466538E+03  0.10000000000E+01 0.  0.
    9000005    1    3    3    0    0 -0.31703499081E+02  0.52004023515E+02 -0.41563020969E+03  0.42007023403E+03  0.10000000000E+01 0.  0.
<mgrwt>
<rscale>  0 0.12499822E+03</rscale>
<asrwt>0</asrwt>
<pdfrwt beam="2">  1        4 0.17072093E+00 0.12499822E+03</pdfrwt>
<pdfrwt beam="1">  1       -4 0.14300161E-02 0.12499822E+03</pdfrwt>
<totfact> 0.63263440E+02</totfact>
</mgrwt>
</event>
<event>
 5    1  0.1451195E-002  0.1250146E+03  0.7818608E-02  0.1235046E+00
         -4   -1    0    0    0  501 -0.00000000000E+00  0.00000000000E+00  0.16260067395E+03  0.16260563357E+03  0.12700000000E+01 0. -1.
          4   -1    0    0  501    0  0.00000000000E+00 -0.00000000000E+00 -0.24007097135E+02  0.24040665815E+02  0.12700000000E+01 0. -1.
         25    2    1    2    0    0  0.00000000000E+00  0.00000000000E+00  0.13859357682E+03  0.18664629939E+03  0.12501464530E+03 0.  0.
    9000005    1    3    3    0    0  0.22054622653E+02  0.58466654734E+02  0.67524401552E+02  0.92007069843E+02  0.10000000000E+01 0.  0.
    9000005    1    3    3    0    0 -0.22054622653E+02 -0.58466654734E+02  0.71069175264E+02  0.94639229545E+02  0.10000000000E+01 0.  0.
<mgrwt>
<rscale>  0 0.12501465E+03</rscale>
<asrwt>0</asrwt>
<pdfrwt beam="2">  1        4 0.60065903E-02 0.12501465E+03</pdfrwt>
<pdfrwt beam="1">  1       -4 0.40654984E-01 0.12501465E+03</pdfrwt>
<totfact> 0.16865368E+03</totfact>
</mgrwt>
</event>
<event>
 5    1  0.1451195E-002  0.1249986E+03  0.7818608E-02  0.1235071E+00
          4   -1    0    0  501    0  0.00000000000E+00  0.00000000000E+00  0.12409835333E+03  0.12410485164E+03  0.12700000000E+01 0. -1.
         -4   -1    0    0    0  501 -0.00000000000E+00 -0.00000000000E+00 -0.31456206812E+02  0.31481833602E+02  0.12700000000E+01 0. -1.
         25    2    1    2    0    0  0.00000000000E+00  0.00000000000E+00  0.92642146520E+02  0.15558668524E+03  0.12499859724E+03 0.  0.
    9000005    1    3    3    0    0 -0.48621399024E+02 -0.36391774442E+02  0.27995502953E+02  0.66881610893E+02  0.10000000000E+01 0.  0.
    9000005    1    3    3    0    0  0.48621399024E+02  0.36391774442E+02  0.64646643567E+02  0.88705074345E+02  0.10000000000E+01 0.  0.
<mgrwt>
<rscale>  0 0.12499860E+03</rscale>
<asrwt>0</asrwt>
<pdfrwt beam="1">  1        4 0.31028604E-01 0.12499860E+03</pdfrwt>
<pdfrwt beam="2">  1       -4 0.78680674E-02 0.12499860E+03</pdfrwt>
<totfact> 0.18268047E+03</totfact>
</mgrwt>
</event>
<event>
 5    1  0.1451195E-002  0.1250000E+03  0.7818608E-02  0.1235069E+00
         -4   -1    0    0    0  501 -0.00000000000E+00  0.00000000000E+00  0.55235900241E+02  0.55250498418E+02  0.12700000000E+01 0. -1.
          4   -1    0    0  501    0  0.00000000000E+00 -0.00000000000E+00 -0.70689743158E+02  0.70701150540E+02  0.12700000000E+01 0. -1.
         25    2    1    2    0    0  0.00000000000E+00  0.00000000000E+00 -0.15453842917E+02  0.12595164896E+03  0.12499998646E+03 0.  0.
    9000005    1    3    3    0    0 -0.46754010012E+01 -0.17011732618E+02  0.52679397034E+02  0.55564172747E+02  0.10000000000E+01 0.  0.
    9000005    1    3    3    0    0  0.46754010012E+01  0.17011732618E+02 -0.68133239951E+02  0.70387476211E+02  0.10000000000E+01 0.  0.
<mgrwt>
<rscale>  0 0.12499999E+03</rscale>
<asrwt>0</asrwt>
<pdfrwt beam="2">  1        4 0.17675686E-01 0.12499999E+03</pdfrwt>
<pdfrwt beam="1">  1       -4 0.13812226E-01 0.12499999E+03</pdfrwt>
<totfact> 0.19783539E+03</totfact>
</mgrwt>
</event>
<event>
 5    1  0.1451195E-002  0.1249941E+03  0.7818608E-02  0.1235078E+00
         -4   -1    0    0    0  501 -0.00000000000E+00  0.00000000000E+00  0.42003194237E+02  0.42022389581E+02  0.12700000000E+01 0.  1.
          4   -1    0    0  501    0  0.00000000000E+00 -0.00000000000E+00 -0.92945371789E+02  0.92954047986E+02  0.12700000000E+01 0.  1.
         25    2    1    2    0    0  0.00000000000E+00  0.00000000000E+00 -0.50942177552E+02  0.13497643757E+03  0.12499413284E+03 0.  0.
    9000005    1    3    3    0    0  0.31507083803E+02  0.53883202623E+02 -0.22269983731E+02  0.66280072647E+02  0.10000000000E+01 0.  0.
    9000005    1    3    3    0    0 -0.31507083803E+02 -0.53883202623E+02 -0.28672193821E+02  0.68696364920E+02  0.10000000000E+01 0.  0.
<mgrwt>
<rscale>  0 0.12499413E+03</rscale>
<asrwt>0</asrwt>
<pdfrwt beam="2">  1        4 0.23239827E-01 0.12499413E+03</pdfrwt>
<pdfrwt beam="1">  1       -4 0.10504283E-01 0.12499413E+03</pdfrwt>
<totfact> 0.19303014E+03</totfact>
</mgrwt>
</event>
<event>
 5    1  0.1451195E-002  0.1249992E+03  0.7818608E-02  0.1235070E+00
         -4   -1    0    0    0  501 -0.00000000000E+00  0.00000000000E+00  0.98443000921E+02  0.98451192631E+02  0.12700000000E+01 0.  1.
          4   -1    0    0  501    0  0.00000000000E+00 -0.00000000000E+00 -0.39659825636E+02  0.39680154605E+02  0.12700000000E+01 0.  1.
         25    2    1    2    0    0  0.00000000000E+00  0.00000000000E+00  0.58783175285E+02  0.13813134724E+03  0.12499922957E+03 0.  0.
    9000005    1    3    3    0    0  0.53575173384E+02 -0.12708704536E+01 -0.61302566472E+01  0.53948997779E+02  0.10000000000E+01 0.  0.
    9000005    1    3    3    0    0 -0.53575173384E+02  0.12708704536E+01  0.64913431932E+02  0.84182349457E+02  0.10000000000E+01 0.  0.
<mgrwt>
<rscale>  0 0.12499923E+03</rscale>
<asrwt>0</asrwt>
<pdfrwt beam="2">  1        4 0.99185216E-02 0.12499923E+03</pdfrwt>
<pdfrwt beam="1">  1       -4 0.24614315E-01 0.12499923E+03</pdfrwt>
<totfact> 0.19136695E+03</totfact>
</mgrwt>
</event>
<event>
 5    1  0.1451195E-002  0.1249972E+03  0.7818608E-02  0.1235074E+00
         -4   -1    0    0    0  501 -0.00000000000E+00  0.00000000000E+00  0.93164655505E+01  0.94026289065E+01  0.12700000000E+01 0.  1.
          4   -1    0    0  501    0  0.00000000000E+00 -0.00000000000E+00 -0.41724849256E+03  0.41725042533E+03  0.12700000000E+01 0.  1.
         25    2    1    2    0    0  0.00000000000E+00  0.00000000000E+00 -0.40793202701E+03  0.42665305424E+03  0.12499716011E+03 0.  0.
    9000005    1    3    3    0    0 -0.20020493390E+02 -0.55212744556E+02 -0.13109339979E+03  0.14365147680E+03  0.10000000000E+01 0.  0.
    9000005    1    3    3    0    0  0.20020493390E+02  0.55212744556E+02 -0.27683862722E+03  0.28300157744E+03  0.10000000000E+01 0.  0.
<mgrwt>
<rscale>  0 0.12499716E+03</rscale>
<asrwt>0</asrwt>
<pdfrwt beam="2">  1        4 0.10432307E+00 0.12499716E+03</pdfrwt>
<pdfrwt beam="1">  1       -4 0.23401298E-02 0.12499716E+03</pdfrwt>
<totfact> 0.10037069E+03</totfact>
</mgrwt>
</event>
<event>
 5    1  0.1451195E-002  0.1250021E+03  0.7818608E-02  0.1235066E+00
         -4   -1    0    0    0  501 -0.00000000000E+00  0.00000000000E+00  0.35753996109E+02  0.35776544520E+02  0.12700000000E+01 0. -1.
          4   -1    0    0  501    0  0.00000000000E+00 -0.00000000000E+00 -0.10919648764E+03  0.10920387271E+03  0.12700000000E+01 0. -1.
         25    2    1    2    0    0  0.00000000000E+00  0.00000000000E+00 -0.73442491535E+02  0.14498041723E+03  0.12500208725E+03 0.  0.
    9000005    1    3    3    0    0 -0.22953751634E+02  0.26320482766E+02  0.23385594251E+02  0.42041985510E+02  0.10000000000E+01 0.  0.
    9000005    1    3    3    0    0  0.22953751634E+02 -0.26320482766E+02 -0.96828085786E+02  0.10293843172E+03  0.10000000000E+01 0.  0.
<mgrwt>
<rscale>  0 0.12500209E+03</rscale>
<asrwt>0</asrwt>
<pdfrwt beam="2">  1        4 0.27302863E-01 0.12500209E+03</pdfrwt>
<pdfrwt beam="1">  1       -4 0.89422409E-02 0.12500209E+03</pdfrwt>
<totfact> 0.18787428E+03</totfact>
</mgrwt>
</event>
<event>
 5    1  0.1451195E-002  0.1250051E+03  0.7818608E-02  0.1235061E+00
         -4   -1    0    0    0  501 -0.00000000000E+00  0.00000000000E+00  0.37458776146E+02  0.37480298963E+02  0.12700000000E+01 0. -1.
          4   -1    0    0  501    0  0.00000000000E+00 -0.00000000000E+00 -0.10423451866E+03  0.10424225525E+03  0.12700000000E+01 0. -1.
         25    2    1    2    0    0  0.00000000000E+00  0.00000000000E+00 -0.66775742515E+02  0.14172255422E+03  0.12500513024E+03 0.  0.
    9000005    1    3    3    0    0 -0.86981283782E+01 -0.56017678246E+02 -0.63210308600E+02  0.84912783647E+02  0.10000000000E+01 0.  0.
    9000005    1    3    3    0    0  0.86981283782E+01  0.56017678246E+02 -0.35654339141E+01  0.56809770571E+02  0.10000000000E+01 0.  0.
<mgrwt>
<rscale>  0 0.12500513E+03</rscale>
<asrwt>0</asrwt>
<pdfrwt beam="2">  1        4 0.26062286E-01 0.12500513E+03</pdfrwt>
<pdfrwt beam="1">  1       -4 0.93683517E-02 0.12500513E+03</pdfrwt>
<totfact> 0.18950297E+03</totfact>
</mgrwt>
</event>
<event>
 5    1  0.1451195E-002  0.1250029E+03  0.7818608E-02  0.1235065E+00
         -4   -1    0    0    0  501 -0.00000000000E+00  0.00000000000E+00  0.78144783199E+01  0.79170052047E+01  0.12700000000E+01 0. -1.
          4   -1    0    0  501    0  0.00000000000E+00 -0.00000000000E+00 -0.49653544581E+03  0.49653706997E+03  0.12700000000E+01 0. -1.
         25    2    1    2    0    0  0.00000000000E+00  0.00000000000E+00 -0.48872096749E+03  0.50445407517E+03  0.12500291951E+03 0.  0.
    9000005    1    3    3    0    0 -0.34117864152E+02 -0.47663257639E+02 -0.33181328030E+03  0.33695232269E+03  0.10000000000E+01 0.  0.
    9000005    1    3    3    0    0  0.34117864152E+02  0.47663257639E+02 -0.15690768719E+03  0.16750175248E+03  0.10000000000E+01 0.  0.
<mgrwt>
<rscale>  0 0.12500292E+03</rscale>
<asrwt>0</asrwt>
<pdfrwt beam="2">  1        4 0.12414677E+00 0.12500292E+03</pdfrwt>
<pdfrwt beam="1">  1       -4 0.19666401E-02 0.12500292E+03</pdfrwt>
<totfact> 0.86897159E+02</totfact>
</mgrwt>
</event>
<event>
 5    1  0.1451195E-002  0.1250082E+03  0.7818608E-02  0.1235056E+00
         -4   -1    0    0    0  501 -0.00000000000E+00  0.00000000000E+00  0.67172203771E+01  0.68362233429E+01  0.12700000000E+01 0.  1.
          4   -1    0    0  501    0  0.00000000000E+00 -0.00000000000E+00 -0.57637780323E+03  0.57637920240E+03  0.12700000000E+01 0.  1.
         25    2    1    2    0    0  0.00000000000E+00  0.00000000000E+00 -0.56966058286E+03  0.58321542574E+03  0.12500821239E+03 0.  0.
    9000005    1    3    3    0    0 -0.28789930130E+02 -0.39157457998E+02 -0.10153243850E+03  0.11256999005E+03  0.10000000000E+01 0.  0.
    9000005    1    3    3    0    0  0.28789930130E+02  0.39157457998E+02 -0.46812814436E+03  0.47064543569E+03  0.10000000000E+01 0.  0.
<mgrwt>
<rscale>  0 0.12500821E+03</rscale>
<asrwt>0</asrwt>
<pdfrwt beam="2">  1        4 0.14410933E+00 0.12500821E+03</pdfrwt>
<pdfrwt beam="1">  1       -4 0.16943573E-02 0.12500821E+03</pdfrwt>
<totfact> 0.75642214E+02</totfact>
</mgrwt>
</event>
<event>
 5    1  0.1451195E-002  0.1250016E+03  0.7818608E-02  0.1235067E+00
          4   -1    0    0  501    0  0.00000000000E+00  0.00000000000E+00  0.49259500505E+03  0.49259664220E+03  0.12700000000E+01 0.  1.
         -4   -1    0    0    0  501 -0.00000000000E+00 -0.00000000000E+00 -0.78776421179E+01  0.79793574514E+01  0.12700000000E+01 0.  1.
         25    2    1    2    0    0  0.00000000000E+00  0.00000000000E+00  0.48471736294E+03  0.50057599965E+03  0.12500163796E+03 0.  0.
    9000005    1    3    3    0    0 -0.20039826661E+02  0.22138429237E+02  0.46219556466E+03  0.46316027970E+03  0.10000000000E+01 0.  0.
    9000005    1    3    3    0    0  0.20039826661E+02 -0.22138429237E+02  0.22521798280E+02  0.37415719951E+02  0.10000000000E+01 0.  0.
<mgrwt>
<rscale>  0 0.12500164E+03</rscale>
<asrwt>0</asrwt>
<pdfrwt beam="1">  1        4 0.12316168E+00 0.12500164E+03</pdfrwt>
<pdfrwt beam="2">  1       -4 0.19823295E-02 0.12500164E+03</pdfrwt>
<totfact> 0.87512174E+02</totfact>
</mgrwt>
</event>
<event>
 5    1  0.1451195E-002  0.1250002E+03  0.7818608E-02  0.1235069E+00
          4   -1    0    0  501    0  0.00000000000E+00  0.00000000000E+00  0.97838758508E+02  0.97847000804E+02  0.12700000000E+01 0.  1.
         -4   -1    0    0    0  501 -0.00000000000E+00 -0.00000000000E+00 -0.39905485827E+02  0.39925689713E+02  0.12700000000E+01 0.  1.
         25    2    1    2    0    0  0.00000000000E+00  0.00000000000E+00  0.57933272681E+02  0.13777269052E+03  0.12500020068E+03 0.  0.
    9000005    1    3    3    0    0 -0.25944674746E+02 -0.50395100564E+02  0.57970308287E+02  0.81082359065E+02  0.10000000000E+01 0.  0.
    9000005    1    3    3    0    0  0.25944674746E+02  0.50395100564E+02 -0.37035606303E-01  0.56690331453E+02  0.10000000000E+01 0.  0.
<mgrwt>
<rscale>  0 0.12500020E+03</rscale>
<asrwt>0</asrwt>
<pdfrwt beam="1">  1        4 0.24463245E-01 0.12500020E+03</pdfrwt>
<pdfrwt beam="2">  1       -4 0.99799273E-02 0.12500020E+03</pdfrwt>
<totfact> 0.19154784E+03</totfact>
</mgrwt>
</event>
<event>
 5    1  0.1451195E-002  0.1249920E+03  0.7818608E-02  0.1235082E+00
          4   -1    0    0  501    0  0.00000000000E+00  0.00000000000E+00  0.33797970255E+02  0.33821822738E+02  0.12700000000E+01 0. -1.
         -4   -1    0    0    0  501 -0.00000000000E+00 -0.00000000000E+00 -0.11549359934E+03  0.11550058177E+03  0.12700000000E+01 0. -1.
         25    2    1    2    0    0  0.00000000000E+00  0.00000000000E+00 -0.81695629087E+02  0.14932240451E+03  0.12499201845E+03 0.  0.
    9000005    1    3    3    0    0  0.99974774036E+01 -0.16826157456E+02  0.30047537682E+02  0.35873718095E+02  0.10000000000E+01 0.  0.
    9000005    1    3    3    0    0 -0.99974774036E+01  0.16826157456E+02 -0.11174316677E+03  0.11344868641E+03  0.10000000000E+01 0.  0.
<mgrwt>
<rscale>  0 0.12499202E+03</rscale>
<asrwt>0</asrwt>
<pdfrwt beam="1">  1        4 0.84533472E-02 0.12499202E+03</pdfrwt>
<pdfrwt beam="2">  1       -4 0.28877253E-01 0.12499202E+03</pdfrwt>
<totfact> 0.18575599E+03</totfact>
</mgrwt>
</event>
<event>
 5    1  0.1451195E-002  0.1250053E+03  0.7818608E-02  0.1235061E+00
         -4   -1    0    0    0  501 -0.00000000000E+00  0.00000000000E+00  0.84329180291E+02  0.84338742868E+02  0.12700000000E+01 0. -1.
          4   -1    0    0  501    0  0.00000000000E+00 -0.00000000000E+00 -0.46304490148E+02  0.46321903111E+02  0.12700000000E+01 0. -1.
         25    2    1    2    0    0  0.00000000000E+00  0.00000000000E+00  0.38024690143E+02  0.13066064598E+03  0.12500530928E+03 0.  0.
    9000005    1    3    3    0    0  0.45247848457E+02  0.36999886601E+02  0.42131370678E+02  0.72058391556E+02  0.10000000000E+01 0.  0.
    9000005    1    3    3    0    0 -0.45247848457E+02 -0.36999886601E+02 -0.41066805350E+01  0.58602254423E+02  0.10000000000E+01 0.  0.
<mgrwt>
<rscale>  0 0.12500531E+03</rscale>
<asrwt>0</asrwt>
<pdfrwt beam="2">  1        4 0.11579495E-01 0.12500531E+03</pdfrwt>
<pdfrwt beam="1">  1       -4 0.21085667E-01 0.12500531E+03</pdfrwt>
<totfact> 0.19526513E+03</totfact>
</mgrwt>
</event>
<event>
 5    1  0.1451195E-002  0.1250024E+03  0.7818608E-02  0.1235066E+00
         -4   -1    0    0    0  501 -0.00000000000E+00  0.00000000000E+00  0.11448734343E+03  0.11449438722E+03  0.12700000000E+01 0.  1.
          4   -1    0    0  501    0  0.00000000000E+00 -0.00000000000E+00 -0.34100874545E+02  0.34124515304E+02  0.12700000000E+01 0.  1.
         25    2    1    2    0    0  0.00000000000E+00  0.00000000000E+00  0.80386468883E+02  0.14861890253E+03  0.12500237521E+03 0.  0.
    9000005    1    3    3    0    0 -0.46256883021E+02 -0.83422570004E+01 -0.87713729418E+01  0.47824987841E+02  0.10000000000E+01 0.  0.
    9000005    1    3    3    0    0  0.46256883021E+02  0.83422570004E+01  0.89157841825E+02  0.10079391469E+03  0.10000000000E+01 0.  0.
<mgrwt>
<rscale>  0 0.12500238E+03</rscale>
<asrwt>0</asrwt>
<pdfrwt beam="2">  1        4 0.85290543E-02 0.12500238E+03</pdfrwt>
<pdfrwt beam="1">  1       -4 0.28625671E-01 0.12500238E+03</pdfrwt>
<totfact> 0.18605870E+03</totfact>
</mgrwt>
</event>
<event>
 5    1  0.1451195E-002  0.1250030E+03  0.7818608E-02  0.1235065E+00
         -4   -1    0    0    0  501 -0.00000000000E+00  0.00000000000E+00  0.10107676871E+02  0.10187150324E+02  0.12700000000E+01 0.  1.
          4   -1    0    0  501    0  0.00000000000E+00 -0.00000000000E+00 -0.38488826982E+03  0.38489036510E+03  0.12700000000E+01 0.  1.
         25    2    1    2    0    0  0.00000000000E+00  0.00000000000E+00 -0.37478059295E+03  0.39507751542E+03  0.12500300132E+03 0.  0.
    9000005    1    3    3    0    0 -0.15386778740E+02  0.21414907860E+02 -0.83213697740E+01  0.27669413321E+02  0.10000000000E+01 0.  0.
    9000005    1    3    3    0    0  0.15386778740E+02 -0.21414907860E+02 -0.36645922318E+03  0.36740810210E+03  0.10000000000E+01 0.  0.
<mgrwt>
<rscale>  0 0.12500300E+03</rscale>
<asrwt>0</asrwt>
<pdfrwt beam="2">  1        4 0.96232215E-01 0.12500300E+03</pdfrwt>
<pdfrwt beam="1">  1       -4 0.25371166E-02 0.12500300E+03</pdfrwt>
<totfact> 0.10670576E+03</totfact>
</mgrwt>
</event>
<event>
 5    1  0.1451195E-002  0.1250007E+03  0.7818608E-02  0.1235068E+00
         -4   -1    0    0    0  501 -0.00000000000E+00  0.00000000000E+00  0.23642314388E+04  0.23642317800E+04  0.12700000000E+01 0.  1.
          4   -1    0    0  501    0  0.00000000000E+00 -0.00000000000E+00 -0.14078075432E+01  0.18960016030E+01  0.12700000000E+01 0.  1.
         25    2    1    2    0    0  0.00000000000E+00  0.00000000000E+00  0.23628236313E+04  0.23661277816E+04  0.12500066398E+03 0.  0.
    9000005    1    3    3    0    0 -0.18095604863E+01  0.26466989590E+02  0.11037678416E+03  0.11352449308E+03  0.10000000000E+01 0.  0.
    9000005    1    3    3    0    0  0.18095604863E+01 -0.26466989590E+02  0.22524468471E+04  0.22526032885E+04  0.10000000000E+01 0.  0.
<mgrwt>
<rscale>  0 0.12500066E+03</rscale>
<asrwt>0</asrwt>
<pdfrwt beam="2">  1        4 0.41301796E-03 0.12500066E+03</pdfrwt>
<pdfrwt beam="1">  1       -4 0.59112010E+00 0.12500066E+03</pdfrwt>
<totfact> 0.57774947E+00</totfact>
</mgrwt>
</event>
<event>
 5    1  0.1451195E-002  0.1249989E+03  0.7818608E-02  0.1235071E+00
          4   -1    0    0  501    0  0.00000000000E+00  0.00000000000E+00  0.15027191673E+03  0.15027728324E+03  0.12700000000E+01 0. -1.
         -4   -1    0    0    0  501 -0.00000000000E+00 -0.00000000000E+00 -0.25972721147E+02  0.26003752494E+02  0.12700000000E+01 0. -1.
         25    2    1    2    0    0  0.00000000000E+00  0.00000000000E+00  0.12429919558E+03  0.17628103573E+03  0.12499885414E+03 0.  0.
    9000005    1    3    3    0    0 -0.12755475801E+02  0.27690268964E+02  0.13907964075E+03  0.14238539121E+03  0.10000000000E+01 0.  0.
    9000005    1    3    3    0    0  0.12755475801E+02 -0.27690268964E+02 -0.14780445170E+02  0.33895644522E+02  0.10000000000E+01 0.  0.
<mgrwt>
<rscale>  0 0.12499885E+03</rscale>
<asrwt>0</asrwt>
<pdfrwt beam="1">  1        4 0.37572529E-01 0.12499885E+03</pdfrwt>
<pdfrwt beam="2">  1       -4 0.64977301E-02 0.12499885E+03</pdfrwt>
<totfact> 0.17317871E+03</totfact>
</mgrwt>
</event>
<event>
 5    1  0.1451195E-002  0.1249947E+03  0.7818608E-02  0.1235078E+00
          4   -1    0    0  501    0  0.00000000000E+00  0.00000000000E+00  0.33232755750E+02  0.33257013617E+02  0.12700000000E+01 0.  1.
         -4   -1    0    0    0  501 -0.00000000000E+00 -0.00000000000E+00 -0.11746162094E+03  0.11746848639E+03  0.12700000000E+01 0.  1.
         25    2    1    2    0    0  0.00000000000E+00  0.00000000000E+00 -0.84228865191E+02  0.15072550000E+03  0.12499469837E+03 0.  0.
    9000005    1    3    3    0    0 -0.86504202322E+01 -0.39939856024E+02  0.14892001530E+02  0.43506247586E+02  0.10000000000E+01 0.  0.
    9000005    1    3    3    0    0  0.86504202322E+01  0.39939856024E+02 -0.99120866722E+02  0.10721925242E+03  0.10000000000E+01 0.  0.
<mgrwt>
<rscale>  0 0.12499470E+03</rscale>
<asrwt>0</asrwt>
<pdfrwt beam="1">  1        4 0.83120796E-02 0.12499470E+03</pdfrwt>
<pdfrwt beam="2">  1       -4 0.29369295E-01 0.12499470E+03</pdfrwt>
<totfact> 0.18505448E+03</totfact>
</mgrwt>
</event>
<event>
 5    1  0.1451195E-002  0.1250001E+03  0.7818608E-02  0.1235069E+00
          4   -1    0    0  501    0  0.00000000000E+00  0.00000000000E+00  0.48037693202E+02  0.48054478128E+02  0.12700000000E+01 0.  1.
         -4   -1    0    0    0  501 -0.00000000000E+00 -0.00000000000E+00 -0.81280468942E+02  0.81290390154E+02  0.12700000000E+01 0.  1.
         25    2    1    2    0    0  0.00000000000E+00  0.00000000000E+00 -0.33242775740E+02  0.12934486828E+03  0.12500005125E+03 0.  0.
    9000005    1    3    3    0    0 -0.30930932041E+02 -0.83399830230E+01 -0.72142477845E+02  0.78941845579E+02  0.10000000000E+01 0.  0.
    9000005    1    3    3    0    0  0.30930932041E+02  0.83399830230E+01  0.38899702105E+02  0.50403022703E+02  0.10000000000E+01 0.  0.
<mgrwt>
<rscale>  0 0.12500005E+03</rscale>
<asrwt>0</asrwt>
<pdfrwt beam="1">  1        4 0.12012762E-01 0.12500005E+03</pdfrwt>
<pdfrwt beam="2">  1       -4 0.20323455E-01 0.12500005E+03</pdfrwt>
<totfact> 0.19599644E+03</totfact>
</mgrwt>
</event>
<event>
 5    1  0.1451195E-002  0.1249973E+03  0.7818608E-02  0.1235074E+00
         -4   -1    0    0    0  501 -0.00000000000E+00  0.00000000000E+00  0.46660563004E+02  0.46677843136E+02  0.12700000000E+01 0. -1.
          4   -1    0    0  501    0  0.00000000000E+00 -0.00000000000E+00 -0.83675068561E+02  0.83684705883E+02  0.12700000000E+01 0. -1.
         25    2    1    2    0    0  0.00000000000E+00  0.00000000000E+00 -0.37014505557E+02  0.13036254902E+03  0.12499728223E+03 0.  0.
    9000005    1    3    3    0    0 -0.11353496926E+02 -0.54356612167E+02 -0.48399999840E+02  0.73668875132E+02  0.10000000000E+01 0.  0.
    9000005    1    3    3    0    0  0.11353496926E+02  0.54356612167E+02  0.11385494283E+02  0.56693673887E+02  0.10000000000E+01 0.  0.
<mgrwt>
<rscale>  0 0.12499728E+03</rscale>
<asrwt>0</asrwt>
<pdfrwt beam="2">  1        4 0.20922132E-01 0.12499728E+03</pdfrwt>
<pdfrwt beam="1">  1       -4 0.11668506E-01 0.12499728E+03</pdfrwt>
<totfact> 0.19546152E+03</totfact>
</mgrwt>
</event>
<event>
 5    1  0.1451195E-002  0.1249975E+03  0.7818608E-02  0.1235073E+00
          4   -1    0    0  501    0  0.00000000000E+00  0.00000000000E+00  0.23547453577E+02  0.23581676572E+02  0.12700000000E+01 0. -1.
         -4   -1    0    0    0  501 -0.00000000000E+00 -0.00000000000E+00 -0.16572459107E+03  0.16572945721E+03  0.12700000000E+01 0. -1.
         25    2    1    2    0    0  0.00000000000E+00  0.00000000000E+00 -0.14217713750E+03  0.18931113378E+03  0.12499746776E+03 0.  0.
    9000005    1    3    3    0    0 -0.13047877050E+02 -0.11109128675E+02 -0.16210392146E+03  0.16301024872E+03  0.10000000000E+01 0.  0.
    9000005    1    3    3    0    0  0.13047877050E+02  0.11109128675E+02  0.19926783967E+02  0.26300885055E+02  0.10000000000E+01 0.  0.
<mgrwt>
<rscale>  0 0.12499747E+03</rscale>
<asrwt>0</asrwt>
<pdfrwt beam="1">  1        4 0.58917500E-02 0.12499747E+03</pdfrwt>
<pdfrwt beam="2">  1       -4 0.41436031E-01 0.12499747E+03</pdfrwt>
<totfact> 0.16760164E+03</totfact>
</mgrwt>
</event>
<event>
 5    1  0.1451195E-002  0.1250012E+03  0.7818608E-02  0.1235067E+00
         -4   -1    0    0    0  501 -0.00000000000E+00  0.00000000000E+00  0.13040368145E+03  0.13040986556E+03  0.12700000000E+01 0.  1.
          4   -1    0    0  501    0  0.00000000000E+00 -0.00000000000E+00 -0.29935281169E+02  0.29962208842E+02  0.12700000000E+01 0.  1.
         25    2    1    2    0    0  0.00000000000E+00  0.00000000000E+00  0.10046840028E+03  0.16037207441E+03  0.12500121117E+03 0.  0.
    9000005    1    3    3    0    0  0.50403824081E+01 -0.47743072943E+02 -0.10926926614E+01  0.48031244478E+02  0.10000000000E+01 0.  0.
    9000005    1    3    3    0    0 -0.50403824081E+01  0.47743072943E+02  0.10156109294E+03  0.11234082993E+03  0.10000000000E+01 0.  0.
<mgrwt>
<rscale>  0 0.12500121E+03</rscale>
<asrwt>0</asrwt>
<pdfrwt beam="2">  1        4 0.74879593E-02 0.12500121E+03</pdfrwt>
<pdfrwt beam="1">  1       -4 0.32605059E-01 0.12500121E+03</pdfrwt>
<totfact> 0.18039750E+03</totfact>
</mgrwt>
</event>
<event>
 5    1  0.1451195E-002  0.1249967E+03  0.7818608E-02  0.1235074E+00
          4   -1    0    0  501    0  0.00000000000E+00  0.00000000000E+00  0.39471406709E+03  0.39471611021E+03  0.12700000000E+01 0. -1.
         -4   -1    0    0    0  501 -0.00000000000E+00 -0.00000000000E+00 -0.98530640985E+01  0.99345745822E+01  0.12700000000E+01 0. -1.
         25    2    1    2    0    0  0.00000000000E+00  0.00000000000E+00  0.38486100299E+03  0.40465068479E+03  0.12499674027E+03 0.  0.
    9000005    1    3    3    0    0  0.27745718596E+02 -0.21245225192E+02  0.36014154641E+03  0.36183437916E+03  0.10000000000E+01 0.  0.
    9000005    1    3    3    0    0 -0.27745718596E+02  0.21245225192E+02  0.24719456580E+02  0.42816305626E+02  0.10000000000E+01 0.  0.
<mgrwt>
<rscale>  0 0.12499674E+03</rscale>
<asrwt>0</asrwt>
<pdfrwt beam="1">  1        4 0.98688956E-01 0.12499674E+03</pdfrwt>
<pdfrwt beam="2">  1       -4 0.24737104E-02 0.12499674E+03</pdfrwt>
<totfact> 0.10474804E+03</totfact>
</mgrwt>
</event>
<event>
 5    1  0.1451195E-002  0.1250010E+03  0.7818608E-02  0.1235068E+00
          4   -1    0    0  501    0  0.00000000000E+00  0.00000000000E+00  0.66613480060E+02  0.66625585369E+02  0.12700000000E+01 0.  1.
         -4   -1    0    0    0  501 -0.00000000000E+00 -0.00000000000E+00 -0.58617177285E+02  0.58630933584E+02  0.12700000000E+01 0.  1.
         25    2    1    2    0    0  0.00000000000E+00  0.00000000000E+00  0.79963027746E+01  0.12525651895E+03  0.12500101872E+03 0.  0.
    9000005    1    3    3    0    0  0.41646707634E+02 -0.42685036158E+02  0.22713937786E+02  0.63823064313E+02  0.10000000000E+01 0.  0.
    9000005    1    3    3    0    0 -0.41646707634E+02  0.42685036158E+02 -0.14717635012E+02  0.61433454639E+02  0.10000000000E+01 0.  0.
<mgrwt>
<rscale>  0 0.12500102E+03</rscale>
<asrwt>0</asrwt>
<pdfrwt beam="1">  1        4 0.16656603E-01 0.12500102E+03</pdfrwt>
<pdfrwt beam="2">  1       -4 0.14657527E-01 0.12500102E+03</pdfrwt>
<totfact> 0.19820678E+03</totfact>
</mgrwt>
</event>
<event>
 5    1  0.1451195E-002  0.1249965E+03  0.7818608E-02  0.1235075E+00
         -4   -1    0    0    0  501 -0.00000000000E+00  0.00000000000E+00  0.11445652266E+03  0.11446356835E+03  0.12700000000E+01 0.  1.
          4   -1    0    0  501    0  0.00000000000E+00 -0.00000000000E+00 -0.34106879978E+02  0.34130516577E+02  0.12700000000E+01 0.  1.
         25    2    1    2    0    0  0.00000000000E+00  0.00000000000E+00  0.80349642684E+02  0.14859408493E+03  0.12499654794E+03 0.  0.
    9000005    1    3    3    0    0  0.43810415557E+02 -0.39926588134E+02  0.16651603668E+02  0.61577275484E+02  0.10000000000E+01 0.  0.
    9000005    1    3    3    0    0 -0.43810415557E+02  0.39926588134E+02  0.63698039016E+02  0.87016809444E+02  0.10000000000E+01 0.  0.
<mgrwt>
<rscale>  0 0.12499655E+03</rscale>
<asrwt>0</asrwt>
<pdfrwt beam="2">  1        4 0.85305553E-02 0.12499655E+03</pdfrwt>
<pdfrwt beam="1">  1       -4 0.28617966E-01 0.12499655E+03</pdfrwt>
<totfact> 0.18609622E+03</totfact>
</mgrwt>
</event>
<event>
 5    1  0.1451195E-002  0.1250039E+03  0.7818608E-02  0.1235063E+00
         -4   -1    0    0    0  501 -0.00000000000E+00  0.00000000000E+00  0.66961791614E+03  0.66961912049E+03  0.12700000000E+01 0. -1.
          4   -1    0    0  501    0  0.00000000000E+00 -0.00000000000E+00 -0.57635771096E+01  0.59018404840E+01  0.12700000000E+01 0. -1.
         25    2    1    2    0    0  0.00000000000E+00  0.00000000000E+00  0.66385433903E+03  0.67552096097E+03  0.12500394096E+03 0.  0.
    9000005    1    3    3    0    0 -0.29450178766E+02 -0.43985518273E+02  0.51143893708E+03  0.51417198019E+03  0.10000000000E+01 0.  0.
    9000005    1    3    3    0    0  0.29450178766E+02  0.43985518273E+02  0.15241540195E+03  0.16134898078E+03  0.10000000000E+01 0.  0.
<mgrwt>
<rscale>  0 0.12500394E+03</rscale>
<asrwt>0</asrwt>
<pdfrwt beam="2">  1        4 0.14583280E-02 0.12500394E+03</pdfrwt>
<pdfrwt beam="1">  1       -4 0.16742189E+00 0.12500394E+03</pdfrwt>
<totfact> 0.64659111E+02</totfact>
</mgrwt>
</event>
<event>
 5    1  0.1451195E-002  0.1250076E+03  0.7818608E-02  0.1235057E+00
          4   -1    0    0  501    0  0.00000000000E+00  0.00000000000E+00  0.45799306090E+02  0.45816911052E+02  0.12700000000E+01 0. -1.
         -4   -1    0    0    0  501 -0.00000000000E+00 -0.00000000000E+00 -0.85262232987E+02  0.85271690929E+02  0.12700000000E+01 0. -1.
         25    2    1    2    0    0  0.00000000000E+00  0.00000000000E+00 -0.39462926897E+02  0.13108860198E+03  0.12500759565E+03 0.  0.
    9000005    1    3    3    0    0  0.10324130194E+02 -0.40428023595E+02  0.29058286311E+02  0.50856629454E+02  0.10000000000E+01 0.  0.
    9000005    1    3    3    0    0 -0.10324130194E+02  0.40428023595E+02 -0.68521213208E+02  0.80231972527E+02  0.10000000000E+01 0.  0.
<mgrwt>
<rscale>  0 0.12500760E+03</rscale>
<asrwt>0</asrwt>
<pdfrwt beam="1">  1        4 0.11453210E-01 0.12500760E+03</pdfrwt>
<pdfrwt beam="2">  1       -4 0.21318941E-01 0.12500760E+03</pdfrwt>
<totfact> 0.19502580E+03</totfact>
</mgrwt>
</event>
<event>
 5    1  0.1451195E-002  0.1249968E+03  0.7818608E-02  0.1235074E+00
         -4   -1    0    0    0  501 -0.00000000000E+00  0.00000000000E+00  0.88328266237E+02  0.88337395912E+02  0.12700000000E+01 0. -1.
          4   -1    0    0  501    0  0.00000000000E+00 -0.00000000000E+00 -0.44201413877E+02  0.44219655005E+02  0.12700000000E+01 0. -1.
         25    2    1    2    0    0  0.00000000000E+00  0.00000000000E+00  0.44126852360E+02  0.13255705092E+03  0.12499677055E+03 0.  0.
    9000005    1    3    3    0    0 -0.49149658509E+02 -0.23136363432E+02 -0.10692786853E+02  0.55374325595E+02  0.10000000000E+01 0.  0.
    9000005    1    3    3    0    0  0.49149658509E+02  0.23136363432E+02  0.54819639214E+02  0.77182725321E+02  0.10000000000E+01 0.  0.
<mgrwt>
<rscale>  0 0.12499677E+03</rscale>
<asrwt>0</asrwt>
<pdfrwt beam="2">  1        4 0.11053775E-01 0.12499677E+03</pdfrwt>
<pdfrwt beam="1">  1       -4 0.22085488E-01 0.12499677E+03</pdfrwt>
<totfact> 0.19429339E+03</totfact>
</mgrwt>
</event>
<event>
 5    1  0.1451195E-002  0.1250047E+03  0.7818608E-02  0.1235062E+00
          4   -1    0    0  501    0  0.00000000000E+00  0.00000000000E+00  0.59885523826E+01  0.61217366522E+01  0.12700000000E+01 0. -1.
         -4   -1    0    0    0  501 -0.00000000000E+00 -0.00000000000E+00 -0.64502682416E+03  0.64502807442E+03  0.12700000000E+01 0. -1.
         25    2    1    2    0    0  0.00000000000E+00  0.00000000000E+00 -0.63903827178E+03  0.65114981107E+03  0.12500465455E+03 0.  0.
    9000005    1    3    3    0    0 -0.40021830201E+02  0.21325829712E+02 -0.95531759088E+02  0.10575374651E+03  0.10000000000E+01 0.  0.
    9000005    1    3    3    0    0  0.40021830201E+02 -0.21325829712E+02 -0.54350651269E+03  0.54539606457E+03  0.10000000000E+01 0.  0.
<mgrwt>
<rscale>  0 0.12500465E+03</rscale>
<asrwt>0</asrwt>
<pdfrwt beam="1">  1        4 0.15139446E-02 0.12500465E+03</pdfrwt>
<pdfrwt beam="2">  1       -4 0.16127328E+00 0.12500465E+03</pdfrwt>
<totfact> 0.67372511E+02</totfact>
</mgrwt>
</event>
<event>
 5    1  0.1451195E-002  0.1250000E+03  0.7818608E-02  0.1235069E+00
          4   -1    0    0  501    0  0.00000000000E+00  0.00000000000E+00  0.54296567005E+03  0.54296715532E+03  0.12700000000E+01 0.  1.
         -4   -1    0    0    0  501 -0.00000000000E+00 -0.00000000000E+00 -0.71367337713E+01  0.72488529384E+01  0.12700000000E+01 0.  1.
         25    2    1    2    0    0  0.00000000000E+00  0.00000000000E+00  0.53582893628E+03  0.55021600826E+03  0.12500002715E+03 0.  0.
    9000005    1    3    3    0    0  0.53771436572E+02 -0.18379675872E+02  0.38236545235E+03  0.38656631905E+03  0.10000000000E+01 0.  0.
    9000005    1    3    3    0    0 -0.53771436572E+02  0.18379675872E+02  0.15346348393E+03  0.16364968921E+03  0.10000000000E+01 0.  0.
<mgrwt>
<rscale>  0 0.12500003E+03</rscale>
<asrwt>0</asrwt>
<pdfrwt beam="1">  1        4 0.13575558E+00 0.12500003E+03</pdfrwt>
<pdfrwt beam="2">  1       -4 0.17983846E-02 0.12500003E+03</pdfrwt>
<totfact> 0.80136635E+02</totfact>
</mgrwt>
</event>
<event>
 5    1  0.1451195E-002  0.1250020E+03  0.7818608E-02  0.1235066E+00
         -4   -1    0    0    0  501 -0.00000000000E+00  0.00000000000E+00  0.82141799105E+01  0.83117778845E+01  0.12700000000E+01 0. -1.
          4   -1    0    0  501    0  0.00000000000E+00 -0.00000000000E+00 -0.47265776575E+03  0.47265947195E+03  0.12700000000E+01 0. -1.
         25    2    1    2    0    0  0.00000000000E+00  0.00000000000E+00 -0.46444358584E+03  0.48097124984E+03  0.12500199494E+03 0.  0.
    9000005    1    3    3    0    0  0.17616011260E+02 -0.25557004152E+02 -0.23525172918E+02  0.38960468102E+02  0.10000000000E+01 0.  0.
    9000005    1    3    3    0    0 -0.17616011260E+02  0.25557004152E+02 -0.44091841292E+03  0.44201078173E+03  0.10000000000E+01 0.  0.
<mgrwt>
<rscale>  0 0.12500199E+03</rscale>
<asrwt>0</asrwt>
<pdfrwt beam="2">  1        4 0.11817676E+00 0.12500199E+03</pdfrwt>
<pdfrwt beam="1">  1       -4 0.20659596E-02 0.12500199E+03</pdfrwt>
<totfact> 0.90705072E+02</totfact>
</mgrwt>
</event>
<event>
 5    1  0.1451195E-002  0.1249968E+03  0.7818608E-02  0.1235074E+00
          4   -1    0    0  501    0  0.00000000000E+00  0.00000000000E+00  0.34770533542E+02  0.34793719301E+02  0.12700000000E+01 0. -1.
         -4   -1    0    0    0  501 -0.00000000000E+00 -0.00000000000E+00 -0.11227368404E+03  0.11228086670E+03  0.12700000000E+01 0. -1.
         25    2    1    2    0    0  0.00000000000E+00  0.00000000000E+00 -0.77503150497E+02  0.14707458601E+03  0.12499678200E+03 0.  0.
    9000005    1    3    3    0    0  0.50025799732E+02 -0.26292242612E+02 -0.70129951626E+02  0.90072597251E+02  0.10000000000E+01 0.  0.
    9000005    1    3    3    0    0 -0.50025799732E+02  0.26292242612E+02 -0.73731988712E+01  0.57001988755E+02  0.10000000000E+01 0.  0.
<mgrwt>
<rscale>  0 0.12499678E+03</rscale>
<asrwt>0</asrwt>
<pdfrwt beam="1">  1        4 0.86964297E-02 0.12499678E+03</pdfrwt>
<pdfrwt beam="2">  1       -4 0.28072216E-01 0.12499678E+03</pdfrwt>
<totfact> 0.18684965E+03</totfact>
</mgrwt>
</event>
<event>
 5    1  0.1451195E-002  0.1250042E+03  0.7818608E-02  0.1235063E+00
          4   -1    0    0  501    0  0.00000000000E+00  0.00000000000E+00  0.72056798245E+02  0.72067989242E+02  0.12700000000E+01 0. -1.
         -4   -1    0    0    0  501 -0.00000000000E+00 -0.00000000000E+00 -0.54191490117E+02  0.54206369562E+02  0.12700000000E+01 0. -1.
         25    2    1    2    0    0  0.00000000000E+00  0.00000000000E+00  0.17865308129E+02  0.12627435880E+03  0.12500417776E+03 0.  0.
    9000005    1    3    3    0    0 -0.49447337520E+02 -0.37976495780E+02  0.13248973852E+02  0.63747852730E+02  0.10000000000E+01 0.  0.
    9000005    1    3    3    0    0  0.49447337520E+02  0.37976495780E+02  0.46163342772E+01  0.62526506073E+02  0.10000000000E+01 0.  0.
<mgrwt>
<rscale>  0 0.12500418E+03</rscale>
<asrwt>0</asrwt>
<pdfrwt beam="1">  1        4 0.18017458E-01 0.12500418E+03</pdfrwt>
<pdfrwt beam="2">  1       -4 0.13551131E-01 0.12500418E+03</pdfrwt>
<totfact> 0.19764170E+03</totfact>
</mgrwt>
</event>
<event>
 5    1  0.1451195E-002  0.1250000E+03  0.7818608E-02  0.1235069E+00
          4   -1    0    0  501    0  0.00000000000E+00  0.00000000000E+00  0.37155409366E+01  0.39265945107E+01  0.12700000000E+01 0. -1.
         -4   -1    0    0    0  501 -0.00000000000E+00 -0.00000000000E+00 -0.10220820661E+04  0.10220828552E+04  0.12700000000E+01 0. -1.
         25    2    1    2    0    0  0.00000000000E+00  0.00000000000E+00 -0.10183665252E+04  0.10260094497E+04  0.12500004469E+03 0.  0.
    9000005    1    3    3    0    0  0.15674264266E+01 -0.34739668676E+02 -0.93536734079E+03  0.93601408302E+03  0.10000000000E+01 0.  0.
    9000005    1    3    3    0    0 -0.15674264266E+01  0.34739668676E+02 -0.82999184401E+02  0.89995366639E+02  0.10000000000E+01 0.  0.
<mgrwt>
<rscale>  0 0.12500004E+03</rscale>
<asrwt>0</asrwt>
<pdfrwt beam="1">  1        4 0.95536906E-03 0.12500004E+03</pdfrwt>
<pdfrwt beam="2">  1       -4 0.25554606E+00 0.12500004E+03</pdfrwt>
<totfact> 0.35387433E+02</totfact>
</mgrwt>
</event>
<event>
 5    1  0.1451195E-002  0.1249994E+03  0.7818608E-02  0.1235070E+00
         -4   -1    0    0    0  501 -0.00000000000E+00  0.00000000000E+00  0.16896858620E+03  0.16897335891E+03  0.12700000000E+01 0. -1.
          4   -1    0    0  501    0  0.00000000000E+00 -0.00000000000E+00 -0.23095420552E+02  0.23130312373E+02  0.12700000000E+01 0. -1.
         25    2    1    2    0    0  0.00000000000E+00  0.00000000000E+00  0.14587316564E+03  0.19210367128E+03  0.12499936026E+03 0.  0.
    9000005    1    3    3    0    0  0.54103055818E+02 -0.71232949893E+01  0.11973644449E+03  0.13158912615E+03  0.10000000000E+01 0.  0.
    9000005    1    3    3    0    0 -0.54103055818E+02  0.71232949893E+01  0.26136721150E+02  0.60514545134E+02  0.10000000000E+01 0.  0.
<mgrwt>
<rscale>  0 0.12499936E+03</rscale>
<asrwt>0</asrwt>
<pdfrwt beam="2">  1        4 0.57788133E-02 0.12499936E+03</pdfrwt>
<pdfrwt beam="1">  1       -4 0.42247104E-01 0.12499936E+03</pdfrwt>
<totfact> 0.16643429E+03</totfact>
</mgrwt>
</event>
<event>
 5    1  0.1451195E-002  0.1250019E+03  0.7818608E-02  0.1235066E+00
          4   -1    0    0  501    0  0.00000000000E+00  0.00000000000E+00  0.15597361743E+02  0.15648980585E+02  0.12700000000E+01 0. -1.
         -4   -1    0    0    0  501 -0.00000000000E+00 -0.00000000000E+00 -0.24998357971E+03  0.24998680570E+03  0.12700000000E+01 0. -1.
         25    2    1    2    0    0  0.00000000000E+00  0.00000000000E+00 -0.23438621797E+03  0.26563578629E+03  0.12500188712E+03 0.  0.
    9000005    1    3    3    0    0  0.38659175045E+02  0.16840100810E+02 -0.21520504927E+03  0.21929964442E+03  0.10000000000E+01 0.  0.
    9000005    1    3    3    0    0 -0.38659175045E+02 -0.16840100810E+02 -0.19181168694E+02  0.46336141865E+02  0.10000000000E+01 0.  0.
<mgrwt>
<rscale>  0 0.12500189E+03</rscale>
<asrwt>0</asrwt>
<pdfrwt beam="1">  1        4 0.39061968E-02 0.12500189E+03</pdfrwt>
<pdfrwt beam="2">  1       -4 0.62502738E-01 0.12500189E+03</pdfrwt>
<totfact> 0.13991345E+03</totfact>
</mgrwt>
</event>
<event>
 5    1  0.1451195E-002  0.1249995E+03  0.7818608E-02  0.1235070E+00
         -4   -1    0    0    0  501 -0.00000000000E+00  0.00000000000E+00  0.27532780286E+02  0.27562055262E+02  0.12700000000E+01 0. -1.
          4   -1    0    0  501    0  0.00000000000E+00 -0.00000000000E+00 -0.14176759313E+03  0.14177328155E+03  0.12700000000E+01 0. -1.
         25    2    1    2    0    0  0.00000000000E+00  0.00000000000E+00 -0.11423481284E+03  0.16933533681E+03  0.12499945531E+03 0.  0.
    9000005    1    3    3    0    0  0.10128057403E+02  0.61644023374E+02 -0.54910971537E+02  0.83179191867E+02  0.10000000000E+01 0.  0.
    9000005    1    3    3    0    0 -0.10128057403E+02 -0.61644023374E+02 -0.59323841306E+02  0.86156144945E+02  0.10000000000E+01 0.  0.
<mgrwt>
<rscale>  0 0.12499946E+03</rscale>
<asrwt>0</asrwt>
<pdfrwt beam="2">  1        4 0.35446267E-01 0.12499946E+03</pdfrwt>
<pdfrwt beam="1">  1       -4 0.68875659E-02 0.12499946E+03</pdfrwt>
<totfact> 0.17627291E+03</totfact>
</mgrwt>
</event>
<event>
 5    1  0.1451195E-002  0.1249996E+03  0.7818608E-02  0.1235070E+00
          4   -1    0    0  501    0  0.00000000000E+00  0.00000000000E+00  0.11337310907E+03  0.11338022208E+03  0.12700000000E+01 0. -1.
         -4   -1    0    0    0  501 -0.00000000000E+00 -0.00000000000E+00 -0.34434703488E+02  0.34458115217E+02  0.12700000000E+01 0. -1.
         25    2    1    2    0    0  0.00000000000E+00  0.00000000000E+00  0.78938405580E+02  0.14783833730E+03  0.12499960840E+03 0.  0.
    9000005    1    3    3    0    0  0.30240584460E+02  0.80516115654E-02  0.10414878456E+03  0.10845488619E+03  0.10000000000E+01 0.  0.
    9000005    1    3    3    0    0 -0.30240584460E+02 -0.80516115654E-02 -0.25210378977E+02  0.39383451112E+02  0.10000000000E+01 0.  0.
<mgrwt>
<rscale>  0 0.12499961E+03</rscale>
<asrwt>0</asrwt>
<pdfrwt beam="1">  1        4 0.28347093E-01 0.12499961E+03</pdfrwt>
<pdfrwt beam="2">  1       -4 0.86124915E-02 0.12499961E+03</pdfrwt>
<totfact> 0.18645753E+03</totfact>
</mgrwt>
</event>
<event>
 5    1  0.1451195E-002  0.1250046E+03  0.7818608E-02  0.1235062E+00
         -4   -1    0    0    0  501 -0.00000000000E+00  0.00000000000E+00  0.64741004907E+03  0.64741129473E+03  0.12700000000E+01 0. -1.
          4   -1    0    0  501    0  0.00000000000E+00 -0.00000000000E+00 -0.59660137256E+01  0.60996901376E+01  0.12700000000E+01 0. -1.
         25    2    1    2    0    0  0.00000000000E+00  0.00000000000E+00  0.64144403535E+03  0.65351098487E+03  0.12500462734E+03 0.  0.
    9000005    1    3    3    0    0  0.65472596598E+01 -0.59672899601E+02  0.22989833135E+03  0.23760884730E+03  0.10000000000E+01 0.  0.
    9000005    1    3    3    0    0 -0.65472596598E+01  0.59672899601E+02  0.41154570400E+03  0.41590213757E+03  0.10000000000E+01 0.  0.
<mgrwt>
<rscale>  0 0.12500463E+03</rscale>
<asrwt>0</asrwt>
<pdfrwt beam="2">  1        4 0.15083685E-02 0.12500463E+03</pdfrwt>
<pdfrwt beam="1">  1       -4 0.16186940E+00 0.12500463E+03</pdfrwt>
<totfact> 0.67103572E+02</totfact>
</mgrwt>
</event>
<event>
 5    1  0.1451195E-002  0.1250043E+03  0.7818608E-02  0.1235063E+00
         -4   -1    0    0    0  501 -0.00000000000E+00  0.00000000000E+00  0.34489689691E+02  0.34513064120E+02  0.12700000000E+01 0.  1.
          4   -1    0    0  501    0  0.00000000000E+00 -0.00000000000E+00 -0.11320090964E+03  0.11320803348E+03  0.12700000000E+01 0.  1.
         25    2    1    2    0    0  0.00000000000E+00  0.00000000000E+00 -0.78711219950E+02  0.14772109760E+03  0.12500426604E+03 0.  0.
    9000005    1    3    3    0    0  0.59527617487E+02 -0.18959974336E+02 -0.41223623920E+02  0.74855895156E+02  0.10000000000E+01 0.  0.
    9000005    1    3    3    0    0 -0.59527617487E+02  0.18959974336E+02 -0.37487596030E+02  0.72865202440E+02  0.10000000000E+01 0.  0.
<mgrwt>
<rscale>  0 0.12500427E+03</rscale>
<asrwt>0</asrwt>
<pdfrwt beam="2">  1        4 0.28304039E-01 0.12500427E+03</pdfrwt>
<pdfrwt beam="1">  1       -4 0.86262350E-02 0.12500427E+03</pdfrwt>
<totfact> 0.18649553E+03</totfact>
</mgrwt>
</event>
<event>
 5    1  0.1451195E-002  0.1249985E+03  0.7818608E-02  0.1235072E+00
         -4   -1    0    0    0  501 -0.00000000000E+00  0.00000000000E+00  0.72557555267E+02  0.72568669041E+02  0.12700000000E+01 0.  1.
          4   -1    0    0  501    0  0.00000000000E+00 -0.00000000000E+00 -0.53812546671E+02  0.53827530867E+02  0.12700000000E+01 0.  1.
         25    2    1    2    0    0  0.00000000000E+00  0.00000000000E+00  0.18745008596E+02  0.12639619991E+03  0.12499849601E+03 0.  0.
    9000005    1    3    3    0    0 -0.43080292032E+02  0.33500486900E+02 -0.21413983914E+02  0.58632353621E+02  0.10000000000E+01 0.  0.
    9000005    1    3    3    0    0  0.43080292032E+02 -0.33500486900E+02  0.40158992510E+02  0.67763846286E+02  0.10000000000E+01 0.  0.
<mgrwt>
<rscale>  0 0.12499850E+03</rscale>
<asrwt>0</asrwt>
<pdfrwt beam="2">  1        4 0.13456399E-01 0.12499850E+03</pdfrwt>
<pdfrwt beam="1">  1       -4 0.18142651E-01 0.12499850E+03</pdfrwt>
<totfact> 0.19760220E+03</totfact>
</mgrwt>
</event>
<event>
 5    1  0.1451195E-002  0.1250001E+03  0.7818608E-02  0.1235069E+00
         -4   -1    0    0    0  501 -0.00000000000E+00  0.00000000000E+00  0.49941585488E+02  0.49957730744E+02  0.12700000000E+01 0.  1.
          4   -1    0    0  501    0  0.00000000000E+00 -0.00000000000E+00 -0.78182533913E+02  0.78192848196E+02  0.12700000000E+01 0.  1.
         25    2    1    2    0    0  0.00000000000E+00  0.00000000000E+00 -0.28240948425E+02  0.12815057894E+03  0.12500007886E+03 0.  0.
    9000005    1    3    3    0    0  0.25517634151E+02  0.21683794554E+02  0.39972209753E+02  0.52154713608E+02  0.10000000000E+01 0.  0.
    9000005    1    3    3    0    0 -0.25517634151E+02 -0.21683794554E+02 -0.68213158178E+02  0.75995865332E+02  0.10000000000E+01 0.  0.
<mgrwt>
<rscale>  0 0.12500008E+03</rscale>
<asrwt>0</asrwt>
<pdfrwt beam="2">  1        4 0.19548941E-01 0.12500008E+03</pdfrwt>
<pdfrwt beam="1">  1       -4 0.12488704E-01 0.12500008E+03</pdfrwt>
<totfact> 0.19664309E+03</totfact>
</mgrwt>
</event>
<event>
 5    1  0.1451195E-002  0.1250052E+03  0.7818608E-02  0.1235061E+00
          4   -1    0    0  501    0  0.00000000000E+00  0.00000000000E+00  0.20180702231E+03  0.20181101841E+03  0.12700000000E+01 0.  1.
         -4   -1    0    0    0  501 -0.00000000000E+00 -0.00000000000E+00 -0.19332958380E+02  0.19374627215E+02  0.12700000000E+01 0.  1.
         25    2    1    2    0    0  0.00000000000E+00  0.00000000000E+00  0.18247406393E+03  0.22118564563E+03  0.12500522319E+03 0.  0.
    9000005    1    3    3    0    0  0.23119971524E+02 -0.52521309177E+01 -0.11075008755E+02  0.26187282818E+02  0.10000000000E+01 0.  0.
    9000005    1    3    3    0    0 -0.23119971524E+02  0.52521309177E+01  0.19354907268E+03  0.19499836281E+03  0.10000000000E+01 0.  0.
<mgrwt>
<rscale>  0 0.12500522E+03</rscale>
<asrwt>0</asrwt>
<pdfrwt beam="1">  1        4 0.50457464E-01 0.12500522E+03</pdfrwt>
<pdfrwt beam="2">  1       -4 0.48389477E-02 0.12500522E+03</pdfrwt>
<totfact> 0.15505598E+03</totfact>
</mgrwt>
</event>
<event>
 5    1  0.1451195E-002  0.1249996E+03  0.7818608E-02  0.1235070E+00
         -4   -1    0    0    0  501 -0.00000000000E+00  0.00000000000E+00  0.58711390867E+02  0.58725125096E+02  0.12700000000E+01 0. -1.
          4   -1    0    0  501    0  0.00000000000E+00 -0.00000000000E+00 -0.66505078074E+02  0.66517203110E+02  0.12700000000E+01 0. -1.
         25    2    1    2    0    0  0.00000000000E+00  0.00000000000E+00 -0.77936872062E+01  0.12524232821E+03  0.12499959686E+03 0.  0.
    9000005    1    3    3    0    0 -0.17184734220E+02  0.28173731107E+02  0.49273621242E+02  0.59312426733E+02  0.10000000000E+01 0.  0.
    9000005    1    3    3    0    0  0.17184734220E+02 -0.28173731107E+02 -0.57067308448E+02  0.65929901473E+02  0.10000000000E+01 0.  0.
<mgrwt>
<rscale>  0 0.12499960E+03</rscale>
<asrwt>0</asrwt>
<pdfrwt beam="2">  1        4 0.16629502E-01 0.12499960E+03</pdfrwt>
<pdfrwt beam="1">  1       -4 0.14681080E-01 0.12499960E+03</pdfrwt>
<totfact> 0.19822106E+03</totfact>
</mgrwt>
</event>
<event>
 5    1  0.1451195E-002  0.1249989E+03  0.7818608E-02  0.1235071E+00
          4   -1    0    0  501    0  0.00000000000E+00  0.00000000000E+00  0.13170281767E+03  0.13170894078E+03  0.12700000000E+01 0. -1.
         -4   -1    0    0    0  501 -0.00000000000E+00 -0.00000000000E+00 -0.29638632150E+02  0.29665829092E+02  0.12700000000E+01 0. -1.
         25    2    1    2    0    0  0.00000000000E+00  0.00000000000E+00  0.10206418552E+03  0.16137476987E+03  0.12499887354E+03 0.  0.
    9000005    1    3    3    0    0 -0.25090643014E+02 -0.14245857517E+02 -0.20531024094E+02  0.35426088884E+02  0.10000000000E+01 0.  0.
    9000005    1    3    3    0    0  0.25090643014E+02  0.14245857517E+02  0.12259520961E+03  0.12594868099E+03  0.10000000000E+01 0.  0.
<mgrwt>
<rscale>  0 0.12499887E+03</rscale>
<asrwt>0</asrwt>
<pdfrwt beam="1">  1        4 0.32929869E-01 0.12499887E+03</pdfrwt>
<pdfrwt beam="2">  1       -4 0.74138231E-02 0.12499887E+03</pdfrwt>
<totfact> 0.17993718E+03</totfact>
</mgrwt>
</event>
<event>
 5    1  0.1451195E-002  0.1250018E+03  0.7818608E-02  0.1235066E+00
          4   -1    0    0  501    0  0.00000000000E+00  0.00000000000E+00  0.10796225544E+02  0.10870666309E+02  0.12700000000E+01 0.  1.
         -4   -1    0    0    0  501 -0.00000000000E+00 -0.00000000000E+00 -0.36050824037E+03  0.36051047734E+03  0.12700000000E+01 0.  1.
         25    2    1    2    0    0  0.00000000000E+00  0.00000000000E+00 -0.34971201482E+03  0.37138114365E+03  0.12500184218E+03 0.  0.
    9000005    1    3    3    0    0 -0.58421821821E+02  0.19147755379E+02 -0.20815504507E+03  0.21704669679E+03  0.10000000000E+01 0.  0.
    9000005    1    3    3    0    0  0.58421821821E+02 -0.19147755379E+02 -0.14155696975E+03  0.15433444686E+03  0.10000000000E+01 0.  0.
<mgrwt>
<rscale>  0 0.12500184E+03</rscale>
<asrwt>0</asrwt>
<pdfrwt beam="1">  1        4 0.27086423E-02 0.12500184E+03</pdfrwt>
<pdfrwt beam="2">  1       -4 0.90136605E-01 0.12500184E+03</pdfrwt>
<totfact> 0.11183009E+03</totfact>
</mgrwt>
</event>
<event>
 5    1  0.1451195E-002  0.1249986E+03  0.7818608E-02  0.1235071E+00
         -4   -1    0    0    0  501 -0.00000000000E+00  0.00000000000E+00  0.20697254920E+03  0.20697644557E+03  0.12700000000E+01 0. -1.
          4   -1    0    0  501    0  0.00000000000E+00 -0.00000000000E+00 -0.18847405019E+02  0.18890144943E+02  0.12700000000E+01 0. -1.
         25    2    1    2    0    0  0.00000000000E+00  0.00000000000E+00  0.18812514418E+03  0.22586659052E+03  0.12499858735E+03 0.  0.
    9000005    1    3    3    0    0  0.19738982710E+02  0.96153938229E+01  0.19978212527E+03  0.20098751407E+03  0.10000000000E+01 0.  0.
    9000005    1    3    3    0    0 -0.19738982710E+02 -0.96153938229E+01 -0.11656981085E+02  0.24879076446E+02  0.10000000000E+01 0.  0.
<mgrwt>
<rscale>  0 0.12499859E+03</rscale>
<asrwt>0</asrwt>
<pdfrwt beam="2">  1        4 0.47176809E-02 0.12499859E+03</pdfrwt>
<pdfrwt beam="1">  1       -4 0.51748966E-01 0.12499859E+03</pdfrwt>
<totfact> 0.15336640E+03</totfact>
</mgrwt>
</event>
<event>
 5    1  0.1451195E-002  0.1250024E+03  0.7818608E-02  0.1235066E+00
         -4   -1    0    0    0  501 -0.00000000000E+00  0.00000000000E+00  0.54514518046E+02  0.54529309347E+02  0.12700000000E+01 0.  1.
          4   -1    0    0  501    0  0.00000000000E+00 -0.00000000000E+00 -0.71627841469E+02  0.71639099474E+02  0.12700000000E+01 0.  1.
         25    2    1    2    0    0  0.00000000000E+00  0.00000000000E+00 -0.17113323422E+02  0.12616840882E+03  0.12500240616E+03 0.  0.
    9000005    1    3    3    0    0  0.61869453164E+02  0.72654710764E+01 -0.35318630006E+01  0.62402647068E+02  0.10000000000E+01 0.  0.
    9000005    1    3    3    0    0 -0.61869453164E+02 -0.72654710764E+01 -0.13581460422E+02  0.63765761753E+02  0.10000000000E+01 0.  0.
<mgrwt>
<rscale>  0 0.12500241E+03</rscale>
<asrwt>0</asrwt>
<pdfrwt beam="2">  1        4 0.17910216E-01 0.12500241E+03</pdfrwt>
<pdfrwt beam="1">  1       -4 0.13631886E-01 0.12500241E+03</pdfrwt>
<totfact> 0.19770709E+03</totfact>
</mgrwt>
</event>
<event>
 5    1  0.1451195E-002  0.1250014E+03  0.7818608E-02  0.1235067E+00
         -4   -1    0    0    0  501 -0.00000000000E+00  0.00000000000E+00  0.93015532449E+01  0.93878534696E+01  0.12700000000E+01 0.  1.
          4   -1    0    0  501    0  0.00000000000E+00 -0.00000000000E+00 -0.41793964356E+03  0.41794157314E+03  0.12700000000E+01 0.  1.
         25    2    1    2    0    0  0.00000000000E+00  0.00000000000E+00 -0.40863809031E+03  0.42732942661E+03  0.12500139995E+03 0.  0.
    9000005    1    3    3    0    0 -0.49000706318E+02 -0.11167652168E+02 -0.77344421910E+02  0.92243944382E+02  0.10000000000E+01 0.  0.
    9000005    1    3    3    0    0  0.49000706318E+02  0.11167652168E+02 -0.33129366840E+03  0.33508548222E+03  0.10000000000E+01 0.  0.
<mgrwt>
<rscale>  0 0.12500140E+03</rscale>
<asrwt>0</asrwt>
<pdfrwt beam="2">  1        4 0.10449588E+00 0.12500140E+03</pdfrwt>
<pdfrwt beam="1">  1       -4 0.23364184E-02 0.12500140E+03</pdfrwt>
<totfact> 0.10023061E+03</totfact>
</mgrwt>
</event>
<event>
 5    1  0.1451195E-002  0.1250007E+03  0.7818608E-02  0.1235068E+00
         -4   -1    0    0    0  501 -0.00000000000E+00  0.00000000000E+00  0.33334311274E+03  0.33334553201E+03  0.12700000000E+01 0.  1.
          4   -1    0    0  501    0  0.00000000000E+00 -0.00000000000E+00 -0.11681655090E+02  0.11750487889E+02  0.12700000000E+01 0.  1.
         25    2    1    2    0    0  0.00000000000E+00  0.00000000000E+00  0.32166145765E+03  0.34509601990E+03  0.12500067845E+03 0.  0.
    9000005    1    3    3    0    0  0.61573186919E+02  0.41362578470E+01  0.13365077704E+03  0.14721377714E+03  0.10000000000E+01 0.  0.
    9000005    1    3    3    0    0 -0.61573186919E+02 -0.41362578470E+01  0.18801068061E+03  0.19788224276E+03  0.10000000000E+01 0.  0.
<mgrwt>
<rscale>  0 0.12500068E+03</rscale>
<asrwt>0</asrwt>
<pdfrwt beam="2">  1        4 0.29293203E-02 0.12500068E+03</pdfrwt>
<pdfrwt beam="1">  1       -4 0.83344684E-01 0.12500068E+03</pdfrwt>
<totfact> 0.11794970E+03</totfact>
</mgrwt>
</event>
<event>
 5    1  0.1451195E-002  0.1250109E+03  0.7818608E-02  0.1235052E+00
         -4   -1    0    0    0  501 -0.00000000000E+00  0.00000000000E+00  0.19757549929E+02  0.19798325161E+02  0.12700000000E+01 0. -1.
          4   -1    0    0  501    0  0.00000000000E+00 -0.00000000000E+00 -0.19749716239E+03  0.19750124570E+03  0.12700000000E+01 0. -1.
         25    2    1    2    0    0  0.00000000000E+00  0.00000000000E+00 -0.17773961246E+03  0.21729957086E+03  0.12501093415E+03 0.  0.
    9000005    1    3    3    0    0  0.17992919389E+02 -0.17469150983E+02 -0.18837602361E+03  0.19004063423E+03  0.10000000000E+01 0.  0.
    9000005    1    3    3    0    0 -0.17992919389E+02  0.17469150983E+02  0.10636411153E+02  0.27258936634E+02  0.10000000000E+01 0.  0.
<mgrwt>
<rscale>  0 0.12501093E+03</rscale>
<asrwt>0</asrwt>
<pdfrwt beam="2">  1        4 0.49379892E-01 0.12501093E+03</pdfrwt>
<pdfrwt beam="1">  1       -4 0.49449954E-02 0.12501093E+03</pdfrwt>
<totfact> 0.15648052E+03</totfact>
</mgrwt>
</event>
<event>
 5    1  0.1451195E-002  0.1249912E+03  0.7818608E-02  0.1235083E+00
         -4   -1    0    0    0  501 -0.00000000000E+00  0.00000000000E+00  0.28033115035E+02  0.28061868052E+02  0.12700000000E+01 0.  1.
          4   -1    0    0  501    0  0.00000000000E+00 -0.00000000000E+00 -0.13922152740E+03  0.13922731984E+03  0.12700000000E+01 0.  1.
         25    2    1    2    0    0  0.00000000000E+00  0.00000000000E+00 -0.11118841236E+03  0.16728918789E+03  0.12499123706E+03 0.  0.
    9000005    1    3    3    0    0  0.54564620100E+02 -0.21898855506E+02 -0.83918039131E+02  0.10246997087E+03  0.10000000000E+01 0.  0.
    9000005    1    3    3    0    0 -0.54564620100E+02  0.21898855506E+02 -0.27270373229E+02  0.64819217021E+02  0.10000000000E+01 0.  0.
<mgrwt>
<rscale>  0 0.12499124E+03</rscale>
<asrwt>0</asrwt>
<pdfrwt beam="2">  1        4 0.34809698E-01 0.12499124E+03</pdfrwt>
<pdfrwt beam="1">  1       -4 0.70125973E-02 0.12499124E+03</pdfrwt>
<totfact> 0.17723620E+03</totfact>
</mgrwt>
</event>
<event>
 5    1  0.1451195E-002  0.1250056E+03  0.7818608E-02  0.1235061E+00
         -4   -1    0    0    0  501 -0.00000000000E+00  0.00000000000E+00  0.30768449959E+03  0.30768712061E+03  0.12700000000E+01 0.  1.
          4   -1    0    0  501    0  0.00000000000E+00 -0.00000000000E+00 -0.12662329597E+02  0.12725859139E+02  0.12700000000E+01 0.  1.
         25    2    1    2    0    0  0.00000000000E+00  0.00000000000E+00  0.29502216999E+03  0.32041297975E+03  0.12500558709E+03 0.  0.
    9000005    1    3    3    0    0 -0.21826621405E+02  0.14799920611E+01 -0.25396749204E+01  0.22046354056E+02  0.10000000000E+01 0.  0.
    9000005    1    3    3    0    0  0.21826621405E+02 -0.14799920611E+01  0.29756184491E+03  0.29836662569E+03  0.10000000000E+01 0.  0.
<mgrwt>
<rscale>  0 0.12500559E+03</rscale>
<asrwt>0</asrwt>
<pdfrwt beam="2">  1        4 0.31738513E-02 0.12500559E+03</pdfrwt>
<pdfrwt beam="1">  1       -4 0.76929392E-01 0.12500559E+03</pdfrwt>
<totfact> 0.12416045E+03</totfact>
</mgrwt>
</event>
<event>
 5    1  0.1451195E-002  0.1249906E+03  0.7818608E-02  0.1235084E+00
          4   -1    0    0  501    0  0.00000000000E+00  0.00000000000E+00  0.14924976204E+02  0.14978912333E+02  0.12700000000E+01 0. -1.
         -4   -1    0    0    0  501 -0.00000000000E+00 -0.00000000000E+00 -0.26115886375E+03  0.26116195170E+03  0.12700000000E+01 0. -1.
         25    2    1    2    0    0  0.00000000000E+00  0.00000000000E+00 -0.24623388755E+03  0.27614086403E+03  0.12499059730E+03 0.  0.
    9000005    1    3    3    0    0  0.40214276435E+02 -0.57881161153E+01 -0.18228510646E+02  0.44541765993E+02  0.10000000000E+01 0.  0.
    9000005    1    3    3    0    0 -0.40214276435E+02  0.57881161153E+01 -0.22800537690E+03  0.23159909804E+03  0.10000000000E+01 0.  0.
<mgrwt>
<rscale>  0 0.12499060E+03</rscale>
<asrwt>0</asrwt>
<pdfrwt beam="1">  1        4 0.37383729E-02 0.12499060E+03</pdfrwt>
<pdfrwt beam="2">  1       -4 0.65296829E-01 0.12499060E+03</pdfrwt>
<totfact> 0.13670075E+03</totfact>
</mgrwt>
</event>
<event>
 5    1  0.1451195E-002  0.1250036E+03  0.7818608E-02  0.1235064E+00
         -4   -1    0    0    0  501 -0.00000000000E+00  0.00000000000E+00  0.11389414038E+02  0.11460002274E+02  0.12700000000E+01 0.  1.
          4   -1    0    0  501    0  0.00000000000E+00 -0.00000000000E+00 -0.34186054235E+03  0.34186290134E+03  0.12700000000E+01 0.  1.
         25    2    1    2    0    0  0.00000000000E+00  0.00000000000E+00 -0.33047112831E+03  0.35332290361E+03  0.12500363024E+03 0.  0.
    9000005    1    3    3    0    0 -0.44363150953E+02  0.10481741470E+02 -0.28606711030E+03  0.28967800687E+03  0.10000000000E+01 0.  0.
    9000005    1    3    3    0    0  0.44363150953E+02 -0.10481741470E+02 -0.44404018005E+02  0.63644896745E+02  0.10000000000E+01 0.  0.
<mgrwt>
<rscale>  0 0.12500363E+03</rscale>
<asrwt>0</asrwt>
<pdfrwt beam="2">  1        4 0.85474220E-01 0.12500363E+03</pdfrwt>
<pdfrwt beam="1">  1       -4 0.28564730E-02 0.12500363E+03</pdfrwt>
<totfact> 0.11597506E+03</totfact>
</mgrwt>
</event>
<event>
 5    1  0.1451195E-002  0.1249987E+03  0.7818608E-02  0.1235071E+00
          4   -1    0    0  501    0  0.00000000000E+00  0.00000000000E+00  0.16695314628E+03  0.16695797661E+03  0.12700000000E+01 0.  1.
         -4   -1    0    0    0  501 -0.00000000000E+00 -0.00000000000E+00 -0.23374380922E+02  0.23408856945E+02  0.12700000000E+01 0.  1.
         25    2    1    2    0    0  0.00000000000E+00  0.00000000000E+00  0.14357876536E+03  0.19036683356E+03  0.12499867781E+03 0.  0.
    9000005    1    3    3    0    0  0.48842969754E+02  0.29317337047E+01  0.12591116296E+02  0.50534809453E+02  0.10000000000E+01 0.  0.
    9000005    1    3    3    0    0 -0.48842969754E+02 -0.29317337047E+01  0.13098764907E+03  0.13983202410E+03  0.10000000000E+01 0.  0.
<mgrwt>
<rscale>  0 0.12499868E+03</rscale>
<asrwt>0</asrwt>
<pdfrwt beam="1">  1        4 0.41743199E-01 0.12499868E+03</pdfrwt>
<pdfrwt beam="2">  1       -4 0.58485087E-02 0.12499868E+03</pdfrwt>
<totfact> 0.16715688E+03</totfact>
</mgrwt>
</event>
<event>
 5    1  0.1451195E-002  0.1249995E+03  0.7818608E-02  0.1235070E+00
         -4   -1    0    0    0  501 -0.00000000000E+00  0.00000000000E+00  0.60572667506E+02  0.60585979804E+02  0.12700000000E+01 0.  1.
          4   -1    0    0  501    0  0.00000000000E+00 -0.00000000000E+00 -0.64461451635E+02  0.64473960999E+02  0.12700000000E+01 0.  1.
         25    2    1    2    0    0  0.00000000000E+00  0.00000000000E+00 -0.38887841292E+01  0.12505994080E+03  0.12499946461E+03 0.  0.
    9000005    1    3    3    0    0  0.56093911629E+02 -0.13623516433E+02  0.22006476080E+02  0.61785209487E+02  0.10000000000E+01 0.  0.
    9000005    1    3    3    0    0 -0.56093911629E+02  0.13623516433E+02 -0.25895260209E+02  0.63274731316E+02  0.10000000000E+01 0.  0.
<mgrwt>
<rscale>  0 0.12499946E+03</rscale>
<asrwt>0</asrwt>
<pdfrwt beam="2">  1        4 0.16118591E-01 0.12499946E+03</pdfrwt>
<pdfrwt beam="1">  1       -4 0.15146395E-01 0.12499946E+03</pdfrwt>
<totfact> 0.19832053E+03</totfact>
</mgrwt>
</event>
<event>
 5    1  0.1451195E-002  0.1250010E+03  0.7818608E-02  0.1235068E+00
          4   -1    0    0  501    0  0.00000000000E+00  0.00000000000E+00  0.12262081443E+02  0.12327673800E+02  0.12700000000E+01 0. -1.
         -4   -1    0    0    0  501 -0.00000000000E+00 -0.00000000000E+00 -0.31765159132E+03  0.31765413010E+03  0.12700000000E+01 0. -1.
         25    2    1    2    0    0  0.00000000000E+00  0.00000000000E+00 -0.30538950988E+03  0.32998180390E+03  0.12500095264E+03 0.  0.
    9000005    1    3    3    0    0 -0.16280214672E+02 -0.56922399204E+01 -0.31125768472E+03  0.31173673714E+03  0.10000000000E+01 0.  0.
    9000005    1    3    3    0    0  0.16280214672E+02  0.56922399204E+01  0.58681748417E+01  0.18245066760E+02  0.10000000000E+01 0.  0.
<mgrwt>
<rscale>  0 0.12500095E+03</rscale>
<asrwt>0</asrwt>
<pdfrwt beam="1">  1        4 0.30740378E-02 0.12500095E+03</pdfrwt>
<pdfrwt beam="2">  1       -4 0.79421387E-01 0.12500095E+03</pdfrwt>
<totfact> 0.12170237E+03</totfact>
</mgrwt>
</event>
<event>
 5    1  0.1451195E-002  0.1249987E+03  0.7818608E-02  0.1235071E+00
          4   -1    0    0  501    0  0.00000000000E+00  0.00000000000E+00  0.38770845651E+03  0.38771053655E+03  0.12700000000E+01 0. -1.
         -4   -1    0    0    0  501 -0.00000000000E+00 -0.00000000000E+00 -0.10032870198E+02  0.10112931544E+02  0.12700000000E+01 0. -1.
         25    2    1    2    0    0  0.00000000000E+00  0.00000000000E+00  0.37767558631E+03  0.39782346809E+03  0.12499865307E+03 0.  0.
    9000005    1    3    3    0    0 -0.40878447915E+02 -0.22107101330E+02  0.32180111388E+03  0.32514108988E+03  0.10000000000E+01 0.  0.
    9000005    1    3    3    0    0  0.40878447915E+02  0.22107101330E+02  0.55874472435E+02  0.72682378216E+02  0.10000000000E+01 0.  0.
<mgrwt>
<rscale>  0 0.12499865E+03</rscale>
<asrwt>0</asrwt>
<pdfrwt beam="1">  1        4 0.96937376E-01 0.12499865E+03</pdfrwt>
<pdfrwt beam="2">  1       -4 0.25184854E-02 0.12499865E+03</pdfrwt>
<totfact> 0.10614496E+03</totfact>
</mgrwt>
</event>
<event>
 5    1  0.1451195E-002  0.1249743E+03  0.7818608E-02  0.1235109E+00
          4   -1    0    0  501    0  0.00000000000E+00  0.00000000000E+00  0.13121581318E+03  0.13122195902E+03  0.12700000000E+01 0.  1.
         -4   -1    0    0    0  501 -0.00000000000E+00 -0.00000000000E+00 -0.29737035913E+02  0.29764142939E+02  0.12700000000E+01 0.  1.
         25    2    1    2    0    0  0.00000000000E+00  0.00000000000E+00  0.10147877727E+03  0.16098610196E+03  0.12497432852E+03 0.  0.
    9000005    1    3    3    0    0 -0.53398247489E+02  0.69910067066E+01  0.99352384853E+01  0.54771853843E+02  0.10000000000E+01 0.  0.
    9000005    1    3    3    0    0  0.53398247489E+02 -0.69910067066E+01  0.91543538787E+02  0.10621424812E+03  0.10000000000E+01 0.  0.
<mgrwt>
<rscale>  0 0.12497433E+03</rscale>
<asrwt>0</asrwt>
<pdfrwt beam="1">  1        4 0.32808109E-01 0.12497433E+03</pdfrwt>
<pdfrwt beam="2">  1       -4 0.74384157E-02 0.12497433E+03</pdfrwt>
<totfact> 0.18022195E+03</totfact>
</mgrwt>
</event>
<event>
 5    1  0.1451195E-002  0.1249992E+03  0.7818608E-02  0.1235071E+00
          4   -1    0    0  501    0  0.00000000000E+00  0.00000000000E+00  0.61286645321E+02  0.61299802566E+02  0.12700000000E+01 0.  1.
         -4   -1    0    0    0  501 -0.00000000000E+00 -0.00000000000E+00 -0.63710197103E+02  0.63722853945E+02  0.12700000000E+01 0.  1.
         25    2    1    2    0    0  0.00000000000E+00  0.00000000000E+00 -0.24235517823E+01  0.12502265651E+03  0.12499916415E+03 0.  0.
    9000005    1    3    3    0    0  0.25939573667E+02  0.21460971791E+02 -0.53869205721E+02  0.63532087304E+02  0.10000000000E+01 0.  0.
    9000005    1    3    3    0    0 -0.25939573667E+02 -0.21460971791E+02  0.51445653939E+02  0.61490569207E+02  0.10000000000E+01 0.  0.
<mgrwt>
<rscale>  0 0.12499916E+03</rscale>
<asrwt>0</asrwt>
<pdfrwt beam="1">  1        4 0.15324888E-01 0.12499916E+03</pdfrwt>
<pdfrwt beam="2">  1       -4 0.15930776E-01 0.12499916E+03</pdfrwt>
<totfact> 0.19834215E+03</totfact>
</mgrwt>
</event>
<event>
 5    1  0.1451195E-002  0.1250003E+03  0.7818608E-02  0.1235069E+00
         -4   -1    0    0    0  501 -0.00000000000E+00  0.00000000000E+00  0.99192061734E+03  0.99192143036E+03  0.12700000000E+01 0.  1.
          4   -1    0    0  501    0  0.00000000000E+00 -0.00000000000E+00 -0.38348571701E+01  0.40396818581E+01  0.12700000000E+01 0.  1.
         25    2    1    2    0    0  0.00000000000E+00  0.00000000000E+00  0.98808576017E+03  0.99596111221E+03  0.12500027039E+03 0.  0.
    9000005    1    3    3    0    0  0.24031448787E+02 -0.15158118934E+02  0.50565696686E+02  0.58010074830E+02  0.10000000000E+01 0.  0.
    9000005    1    3    3    0    0 -0.24031448787E+02  0.15158118934E+02  0.93752006348E+03  0.93795103738E+03  0.10000000000E+01 0.  0.
<mgrwt>
<rscale>  0 0.12500027E+03</rscale>
<asrwt>0</asrwt>
<pdfrwt beam="2">  1        4 0.98441905E-03 0.12500027E+03</pdfrwt>
<pdfrwt beam="1">  1       -4 0.24800585E+00 0.12500027E+03</pdfrwt>
<totfact> 0.37381688E+02</totfact>
</mgrwt>
</event>
<event>
 5    1  0.1451195E-002  0.1250045E+03  0.7818608E-02  0.1235062E+00
         -4   -1    0    0    0  501 -0.00000000000E+00  0.00000000000E+00  0.17182221993E+02  0.17229093203E+02  0.12700000000E+01 0. -1.
          4   -1    0    0  501    0  0.00000000000E+00 -0.00000000000E+00 -0.22700042393E+03  0.22700397654E+03  0.12700000000E+01 0. -1.
         25    2    1    2    0    0  0.00000000000E+00  0.00000000000E+00 -0.20981820194E+03  0.24423306974E+03  0.12500445789E+03 0.  0.
    9000005    1    3    3    0    0  0.34415613609E+02 -0.48150850923E+01 -0.34262580234E+01  0.34933633486E+02  0.10000000000E+01 0.  0.
    9000005    1    3    3    0    0 -0.34415613609E+02  0.48150850923E+01 -0.20639194392E+03  0.20929943626E+03  0.10000000000E+01 0.  0.
<mgrwt>
<rscale>  0 0.12500446E+03</rscale>
<asrwt>0</asrwt>
<pdfrwt beam="2">  1        4 0.56756399E-01 0.12500446E+03</pdfrwt>
<pdfrwt beam="1">  1       -4 0.43018592E-02 0.12500446E+03</pdfrwt>
<totfact> 0.14690216E+03</totfact>
</mgrwt>
</event>
<event>
 5    1  0.1451195E-002  0.1250033E+03  0.7818608E-02  0.1235064E+00
          4   -1    0    0  501    0  0.00000000000E+00  0.00000000000E+00  0.61835378171E+01  0.63126095979E+01  0.12700000000E+01 0. -1.
         -4   -1    0    0    0  501 -0.00000000000E+00 -0.00000000000E+00 -0.62509633135E+03  0.62509762147E+03  0.12700000000E+01 0. -1.
         25    2    1    2    0    0  0.00000000000E+00  0.00000000000E+00 -0.61891279353E+03  0.63141023107E+03  0.12500333555E+03 0.  0.
    9000005    1    3    3    0    0 -0.30428263780E+02  0.42327850981E+02 -0.48355121817E+03  0.48635409611E+03  0.10000000000E+01 0.  0.
    9000005    1    3    3    0    0  0.30428263780E+02 -0.42327850981E+02 -0.13536157536E+03  0.14505613496E+03  0.10000000000E+01 0.  0.
<mgrwt>
<rscale>  0 0.12500334E+03</rscale>
<asrwt>0</asrwt>
<pdfrwt beam="1">  1        4 0.15621818E-02 0.12500334E+03</pdfrwt>
<pdfrwt beam="2">  1       -4 0.15629017E+00 0.12500334E+03</pdfrwt>
<totfact> 0.69673730E+02</totfact>
</mgrwt>
</event>
<event>
 5    1  0.1451195E-002  0.1249981E+03  0.7818608E-02  0.1235072E+00
          4   -1    0    0  501    0  0.00000000000E+00  0.00000000000E+00  0.57386867340E+02  0.57400918486E+02  0.12700000000E+01 0. -1.
         -4   -1    0    0    0  501 -0.00000000000E+00 -0.00000000000E+00 -0.68038365305E+02  0.68050217144E+02  0.12700000000E+01 0. -1.
         25    2    1    2    0    0  0.00000000000E+00  0.00000000000E+00 -0.10651497965E+02  0.12545113563E+03  0.12499813207E+03 0.  0.
    9000005    1    3    3    0    0 -0.30854613796E+02 -0.53746678427E+02 -0.13381082524E+02  0.63409510359E+02  0.10000000000E+01 0.  0.
    9000005    1    3    3    0    0  0.30854613796E+02  0.53746678427E+02  0.27295845589E+01  0.62041625272E+02  0.10000000000E+01 0.  0.
<mgrwt>
<rscale>  0 0.12499813E+03</rscale>
<asrwt>0</asrwt>
<pdfrwt beam="1">  1        4 0.14349955E-01 0.12499813E+03</pdfrwt>
<pdfrwt beam="2">  1       -4 0.17012829E-01 0.12499813E+03</pdfrwt>
<totfact> 0.19811475E+03</totfact>
</mgrwt>
</event>
<event>
 5    1  0.1451195E-002  0.1249974E+03  0.7818608E-02  0.1235073E+00
         -4   -1    0    0    0  501 -0.00000000000E+00  0.00000000000E+00  0.26339719579E+03  0.26340025750E+03  0.12700000000E+01 0. -1.
          4   -1    0    0  501    0  0.00000000000E+00 -0.00000000000E+00 -0.14799311814E+02  0.14853704257E+02  0.12700000000E+01 0. -1.
         25    2    1    2    0    0  0.00000000000E+00  0.00000000000E+00  0.24859788397E+03  0.27825396175E+03  0.12499743723E+03 0.  0.
    9000005    1    3    3    0    0 -0.12116378897E+02  0.39727507946E+02  0.20362146825E+02  0.46267683630E+02  0.10000000000E+01 0.  0.
    9000005    1    3    3    0    0  0.12116378897E+02 -0.39727507946E+02  0.22823573715E+03  0.23198627812E+03  0.10000000000E+01 0.  0.
<mgrwt>
<rscale>  0 0.12499744E+03</rscale>
<asrwt>0</asrwt>
<pdfrwt beam="2">  1        4 0.37070100E-02 0.12499744E+03</pdfrwt>
<pdfrwt beam="1">  1       -4 0.65856476E-01 0.12499744E+03</pdfrwt>
<totfact> 0.13603988E+03</totfact>
</mgrwt>
</event>
<event>
 5    1  0.1451195E-002  0.1249981E+03  0.7818608E-02  0.1235072E+00
          4   -1    0    0  501    0  0.00000000000E+00  0.00000000000E+00  0.14533274806E+03  0.14533829694E+03  0.12700000000E+01 0.  1.
         -4   -1    0    0    0  501 -0.00000000000E+00 -0.00000000000E+00 -0.26856080060E+02  0.26886091873E+02  0.12700000000E+01 0.  1.
         25    2    1    2    0    0  0.00000000000E+00  0.00000000000E+00  0.11847666799E+03  0.17222438881E+03  0.12499807696E+03 0.  0.
    9000005    1    3    3    0    0  0.43744869736E+02 -0.42610971886E+02  0.77507848708E+02  0.98680166014E+02  0.10000000000E+01 0.  0.
    9000005    1    3    3    0    0 -0.43744869736E+02  0.42610971886E+02  0.40968819287E+02  0.73544222799E+02  0.10000000000E+01 0.  0.
<mgrwt>
<rscale>  0 0.12499808E+03</rscale>
<asrwt>0</asrwt>
<pdfrwt beam="1">  1        4 0.36337632E-01 0.12499808E+03</pdfrwt>
<pdfrwt beam="2">  1       -4 0.67184652E-02 0.12499808E+03</pdfrwt>
<totfact> 0.17497963E+03</totfact>
</mgrwt>
</event>
<event>
 5    1  0.1451195E-002  0.1250001E+03  0.7818608E-02  0.1235069E+00
          4   -1    0    0  501    0  0.00000000000E+00  0.00000000000E+00  0.17681601402E+03  0.17682057492E+03  0.12700000000E+01 0. -1.
         -4   -1    0    0    0  501 -0.00000000000E+00 -0.00000000000E+00 -0.22069118039E+02  0.22105629849E+02  0.12700000000E+01 0. -1.
         25    2    1    2    0    0  0.00000000000E+00  0.00000000000E+00  0.15474689598E+03  0.19892620477E+03  0.12500013251E+03 0.  0.
    9000005    1    3    3    0    0  0.31127396387E+02  0.52980135942E+01 -0.84486690417E+01  0.32701127847E+02  0.10000000000E+01 0.  0.
    9000005    1    3    3    0    0 -0.31127396387E+02 -0.52980135942E+01  0.16319556502E+03  0.16622507692E+03  0.10000000000E+01 0.  0.
<mgrwt>
<rscale>  0 0.12500013E+03</rscale>
<asrwt>0</asrwt>
<pdfrwt beam="1">  1        4 0.44209136E-01 0.12500013E+03</pdfrwt>
<pdfrwt beam="2">  1       -4 0.55224137E-02 0.12500013E+03</pdfrwt>
<totfact> 0.16365078E+03</totfact>
</mgrwt>
</event>
<event>
 5    1  0.1451195E-002  0.1250019E+03  0.7818608E-02  0.1235066E+00
         -4   -1    0    0    0  501 -0.00000000000E+00  0.00000000000E+00  0.41247330374E+02  0.41266877311E+02  0.12700000000E+01 0. -1.
          4   -1    0    0  501    0  0.00000000000E+00 -0.00000000000E+00 -0.94659704601E+02  0.94668223682E+02  0.12700000000E+01 0. -1.
         25    2    1    2    0    0  0.00000000000E+00  0.00000000000E+00 -0.53412374227E+02  0.13593510099E+03  0.12500187983E+03 0.  0.
    9000005    1    3    3    0    0  0.11257117442E+02  0.91525085047E+01 -0.92808252089E+02  0.93940740687E+02  0.10000000000E+01 0.  0.
    9000005    1    3    3    0    0 -0.11257117442E+02 -0.91525085047E+01  0.39395877862E+02  0.41994360306E+02  0.10000000000E+01 0.  0.
<mgrwt>
<rscale>  0 0.12500188E+03</rscale>
<asrwt>0</asrwt>
<pdfrwt beam="2">  1        4 0.23668434E-01 0.12500188E+03</pdfrwt>
<pdfrwt beam="1">  1       -4 0.10315341E-01 0.12500188E+03</pdfrwt>
<totfact> 0.19249425E+03</totfact>
</mgrwt>
</event>
<event>
 5    1  0.1451195E-002  0.1249976E+03  0.7818608E-02  0.1235073E+00
          4   -1    0    0  501    0  0.00000000000E+00  0.00000000000E+00  0.10501335885E+03  0.10502103807E+03  0.12700000000E+01 0.  1.
         -4   -1    0    0    0  501 -0.00000000000E+00 -0.00000000000E+00 -0.37176367001E+02  0.37198053221E+02  0.12700000000E+01 0.  1.
         25    2    1    2    0    0  0.00000000000E+00  0.00000000000E+00  0.67836991846E+02  0.14221909129E+03  0.12499764983E+03 0.  0.
    9000005    1    3    3    0    0  0.35231882301E+02  0.49813312492E+02  0.18550057126E+02  0.63778964018E+02  0.10000000000E+01 0.  0.
    9000005    1    3    3    0    0 -0.35231882301E+02 -0.49813312492E+02  0.49286934720E+02  0.78440127269E+02  0.10000000000E+01 0.  0.
<mgrwt>
<rscale>  0 0.12499765E+03</rscale>
<asrwt>0</asrwt>
<pdfrwt beam="1">  1        4 0.26257010E-01 0.12499765E+03</pdfrwt>
<pdfrwt beam="2">  1       -4 0.92977625E-02 0.12499765E+03</pdfrwt>
<totfact> 0.18928424E+03</totfact>
</mgrwt>
</event>
<event>
 5    1  0.1451195E-002  0.1250015E+03  0.7818608E-02  0.1235067E+00
         -4   -1    0    0    0  501 -0.00000000000E+00  0.00000000000E+00  0.60016344990E+02  0.60029780659E+02  0.12700000000E+01 0. -1.
          4   -1    0    0  501    0  0.00000000000E+00 -0.00000000000E+00 -0.65061106570E+02  0.65073500660E+02  0.12700000000E+01 0. -1.
         25    2    1    2    0    0  0.00000000000E+00  0.00000000000E+00 -0.50447615802E+01  0.12510328132E+03  0.12500152550E+03 0.  0.
    9000005    1    3    3    0    0  0.42582434202E+02 -0.25730089617E+01 -0.48226406130E+02  0.64394645165E+02  0.10000000000E+01 0.  0.
    9000005    1    3    3    0    0 -0.42582434202E+02  0.25730089617E+01  0.43181644550E+02  0.60708636154E+02  0.10000000000E+01 0.  0.
<mgrwt>
<rscale>  0 0.12500153E+03</rscale>
<asrwt>0</asrwt>
<pdfrwt beam="2">  1        4 0.16268505E-01 0.12500153E+03</pdfrwt>
<pdfrwt beam="1">  1       -4 0.15007315E-01 0.12500153E+03</pdfrwt>
<totfact> 0.19828747E+03</totfact>
</mgrwt>
</event>
<event>
 5    1  0.1451195E-002  0.1249971E+03  0.7818608E-02  0.1235074E+00
          4   -1    0    0  501    0  0.00000000000E+00  0.00000000000E+00  0.38680011386E+01  0.40711586567E+01  0.12700000000E+01 0.  1.
         -4   -1    0    0    0  501 -0.00000000000E+00 -0.00000000000E+00 -0.98379650518E+03  0.98379732491E+03  0.12700000000E+01 0.  1.
         25    2    1    2    0    0  0.00000000000E+00  0.00000000000E+00 -0.97992850404E+03  0.98786848357E+03  0.12499707115E+03 0.  0.
    9000005    1    3    3    0    0 -0.64563634608E+01  0.27226643667E+02 -0.48371278036E+02  0.55890565334E+02  0.10000000000E+01 0.  0.
    9000005    1    3    3    0    0  0.64563634608E+01 -0.27226643667E+02 -0.93155722601E+03  0.93197791824E+03  0.10000000000E+01 0.  0.
<mgrwt>
<rscale>  0 0.12499707E+03</rscale>
<asrwt>0</asrwt>
<pdfrwt beam="1">  1        4 0.99250081E-03 0.12499707E+03</pdfrwt>
<pdfrwt beam="2">  1       -4 0.24597379E+00 0.12499707E+03</pdfrwt>
<totfact> 0.37934245E+02</totfact>
</mgrwt>
</event>
<event>
 5    1  0.1451195E-002  0.1250005E+03  0.7818608E-02  0.1235068E+00
          4   -1    0    0  501    0  0.00000000000E+00  0.00000000000E+00  0.59990278246E+02  0.60003719751E+02  0.12700000000E+01 0. -1.
         -4   -1    0    0    0  501 -0.00000000000E+00 -0.00000000000E+00 -0.65088359319E+02  0.65100748220E+02  0.12700000000E+01 0. -1.
         25    2    1    2    0    0  0.00000000000E+00  0.00000000000E+00 -0.50980810733E+01  0.12510446797E+03  0.12500054990E+03 0.  0.
    9000005    1    3    3    0    0  0.17799760791E+02  0.46856482637E+02  0.34803869255E+02  0.61030080816E+02  0.10000000000E+01 0.  0.
    9000005    1    3    3    0    0 -0.17799760791E+02 -0.46856482637E+02 -0.39901950328E+02  0.64074387155E+02  0.10000000000E+01 0.  0.
<mgrwt>
<rscale>  0 0.12500055E+03</rscale>
<asrwt>0</asrwt>
<pdfrwt beam="1">  1        4 0.15000798E-01 0.12500055E+03</pdfrwt>
<pdfrwt beam="2">  1       -4 0.16275319E-01 0.12500055E+03</pdfrwt>
<totfact> 0.19829136E+03</totfact>
</mgrwt>
</event>
<event>
 5    1  0.1451195E-002  0.1249977E+03  0.7818608E-02  0.1235073E+00
         -4   -1    0    0    0  501 -0.00000000000E+00  0.00000000000E+00  0.13754575883E+02  0.13813082846E+02  0.12700000000E+01 0. -1.
          4   -1    0    0  501    0  0.00000000000E+00 -0.00000000000E+00 -0.28332347623E+03  0.28332632261E+03  0.12700000000E+01 0. -1.
         25    2    1    2    0    0  0.00000000000E+00  0.00000000000E+00 -0.26956890035E+03  0.29713940546E+03  0.12499773694E+03 0.  0.
    9000005    1    3    3    0    0  0.10573159032E+02  0.61259259423E+02 -0.11963391147E+03  0.13482492844E+03  0.10000000000E+01 0.  0.
    9000005    1    3    3    0    0 -0.10573159032E+02 -0.61259259423E+02 -0.14993498888E+03  0.16231447701E+03  0.10000000000E+01 0.  0.
<mgrwt>
<rscale>  0 0.12499774E+03</rscale>
<asrwt>0</asrwt>
<pdfrwt beam="2">  1        4 0.70838519E-01 0.12499774E+03</pdfrwt>
<pdfrwt beam="1">  1       -4 0.34463141E-02 0.12499774E+03</pdfrwt>
<totfact> 0.13052289E+03</totfact>
</mgrwt>
</event>
<event>
 5    1  0.1451195E-002  0.1250002E+03  0.7818608E-02  0.1235069E+00
          4   -1    0    0  501    0  0.00000000000E+00  0.00000000000E+00  0.25310984251E+02  0.25342825883E+02  0.12700000000E+01 0. -1.
         -4   -1    0    0    0  501 -0.00000000000E+00 -0.00000000000E+00 -0.15419919102E+03  0.15420442085E+03  0.12700000000E+01 0. -1.
         25    2    1    2    0    0  0.00000000000E+00  0.00000000000E+00 -0.12888820677E+03  0.17954724674E+03  0.12500017587E+03 0.  0.
    9000005    1    3    3    0    0  0.41614351636E+02  0.34298792703E+02 -0.19087827772E+02  0.57214566432E+02  0.10000000000E+01 0.  0.
    9000005    1    3    3    0    0 -0.41614351636E+02 -0.34298792703E+02 -0.10980037900E+03  0.12233268031E+03  0.10000000000E+01 0.  0.
<mgrwt>
<rscale>  0 0.12500018E+03</rscale>
<asrwt>0</asrwt>
<pdfrwt beam="1">  1        4 0.63323804E-02 0.12500018E+03</pdfrwt>
<pdfrwt beam="2">  1       -4 0.38554429E-01 0.12500018E+03</pdfrwt>
<totfact> 0.17174759E+03</totfact>
</mgrwt>
</event>
<event>
 5    1  0.1451195E-002  0.1249996E+03  0.7818608E-02  0.1235070E+00
          4   -1    0    0  501    0  0.00000000000E+00  0.00000000000E+00  0.76689635201E+02  0.76700150243E+02  0.12700000000E+01 0.  1.
         -4   -1    0    0    0  501 -0.00000000000E+00 -0.00000000000E+00 -0.50913573543E+02  0.50929410667E+02  0.12700000000E+01 0.  1.
         25    2    1    2    0    0  0.00000000000E+00  0.00000000000E+00  0.25776061658E+02  0.12762956091E+03  0.12499959785E+03 0.  0.
    9000005    1    3    3    0    0 -0.57896664247E+02 -0.12328693342E+02 -0.75634864266E+01  0.59684392745E+02  0.10000000000E+01 0.  0.
    9000005    1    3    3    0    0  0.57896664247E+02  0.12328693342E+02  0.33339548085E+02  0.67945168165E+02  0.10000000000E+01 0.  0.
<mgrwt>
<rscale>  0 0.12499960E+03</rscale>
<asrwt>0</asrwt>
<pdfrwt beam="1">  1        4 0.19175703E-01 0.12499960E+03</pdfrwt>
<pdfrwt beam="2">  1       -4 0.12731687E-01 0.12499960E+03</pdfrwt>
<totfact> 0.19692899E+03</totfact>
</mgrwt>
</event>
<event>
 4    1  0.1451195E-002  0.1251860E+03  0.7818608E-02  0.1234779E+00
          4   -1    0    0  501    0  0.00000000000E+00  0.00000000000E+00  0.14212465866E+02  0.14269095486E+02  0.12700000000E+01 0. -1.
         -4   -1    0    0    0  501 -0.00000000000E+00 -0.00000000000E+00 -0.27505906975E+03  0.27506200165E+03  0.12700000000E+01 0. -1.
    9000005    1    1    2    0    0  0.31564340562E+02  0.39817897294E+02 -0.45973620963E+02  0.68529893947E+02  0.10000000000E+01 0.  0.
    9000005    1    1    2    0    0 -0.31564340562E+02 -0.39817897294E+02 -0.21487298292E+03  0.22080120319E+03  0.10000000000E+01 0.  0.
<mgrwt>
<rscale>  0 0.12518599E+03</rscale>
<asrwt>0</asrwt>
<pdfrwt beam="1">  1        4 0.35605625E-02 0.12518599E+03</pdfrwt>
<pdfrwt beam="2">  1       -4 0.68772195E-01 0.12518599E+03</pdfrwt>
<totfact> 0.13218975E+03</totfact>
</mgrwt>
</event>
<event>
 5    1  0.1451195E-002  0.1249902E+03  0.7818608E-02  0.1235085E+00
         -4   -1    0    0    0  501 -0.00000000000E+00  0.00000000000E+00  0.13199383813E+03  0.13199994774E+03  0.12700000000E+01 0. -1.
          4   -1    0    0  501    0  0.00000000000E+00 -0.00000000000E+00 -0.29569102271E+02  0.29596363106E+02  0.12700000000E+01 0. -1.
         25    2    1    2    0    0  0.00000000000E+00  0.00000000000E+00  0.10242473586E+03  0.16159631085E+03  0.12499016427E+03 0.  0.
    9000005    1    3    3    0    0  0.51543809471E+02 -0.29418943277E+02  0.25930293113E+02  0.64773595077E+02  0.10000000000E+01 0.  0.
    9000005    1    3    3    0    0 -0.51543809471E+02  0.29418943277E+02  0.76494442745E+02  0.96822715771E+02  0.10000000000E+01 0.  0.
<mgrwt>
<rscale>  0 0.12499016E+03</rscale>
<asrwt>0</asrwt>
<pdfrwt beam="2">  1        4 0.73964470E-02 0.12499016E+03</pdfrwt>
<pdfrwt beam="1">  1       -4 0.33002630E-01 0.12499016E+03</pdfrwt>
<totfact> 0.17986998E+03</totfact>
</mgrwt>
</event>
<event>
 5    1  0.1451195E-002  0.1250007E+03  0.7818608E-02  0.1235068E+00
         -4   -1    0    0    0  501 -0.00000000000E+00  0.00000000000E+00  0.56624097977E+03  0.56624240398E+03  0.12700000000E+01 0.  1.
          4   -1    0    0  501    0  0.00000000000E+00 -0.00000000000E+00 -0.68387417289E+01  0.69556659232E+01  0.12700000000E+01 0.  1.
         25    2    1    2    0    0  0.00000000000E+00  0.00000000000E+00  0.55940223804E+03  0.57319806991E+03  0.12500065368E+03 0.  0.
    9000005    1    3    3    0    0  0.36655709056E+02 -0.71362287043E+01  0.50947038133E+03  0.51083817029E+03  0.10000000000E+01 0.  0.
    9000005    1    3    3    0    0 -0.36655709056E+02  0.71362287043E+01  0.49931856709E+02  0.62359899622E+02  0.10000000000E+01 0.  0.
<mgrwt>
<rscale>  0 0.12500065E+03</rscale>
<asrwt>0</asrwt>
<pdfrwt beam="2">  1        4 0.17244794E-02 0.12500065E+03</pdfrwt>
<pdfrwt beam="1">  1       -4 0.14157500E+00 0.12500065E+03</pdfrwt>
<totfact> 0.76981028E+02</totfact>
</mgrwt>
</event>
<event>
 5    1  0.1451195E-002  0.1249996E+03  0.7818608E-02  0.1235070E+00
         -4   -1    0    0    0  501 -0.00000000000E+00  0.00000000000E+00  0.13270171393E+03  0.13270779095E+03  0.12700000000E+01 0.  1.
          4   -1    0    0  501    0  0.00000000000E+00 -0.00000000000E+00 -0.29415697395E+02  0.29443100266E+02  0.12700000000E+01 0.  1.
         25    2    1    2    0    0  0.00000000000E+00  0.00000000000E+00  0.10328601653E+03  0.16215089122E+03  0.12499964125E+03 0.  0.
    9000005    1    3    3    0    0  0.12130351846E+02  0.43334566190E+02 -0.46056685478E+01  0.45246461138E+02  0.10000000000E+01 0.  0.
    9000005    1    3    3    0    0 -0.12130351846E+02 -0.43334566190E+02  0.10789168508E+03  0.11690443008E+03  0.10000000000E+01 0.  0.
<mgrwt>
<rscale>  0 0.12499964E+03</rscale>
<asrwt>0</asrwt>
<pdfrwt beam="2">  1        4 0.73581094E-02 0.12499964E+03</pdfrwt>
<pdfrwt beam="1">  1       -4 0.33179613E-01 0.12499964E+03</pdfrwt>
<totfact> 0.17957147E+03</totfact>
</mgrwt>
</event>
<event>
 5    1  0.1451195E-002  0.1250113E+03  0.7818608E-02  0.1235052E+00
          4   -1    0    0  501    0  0.00000000000E+00  0.00000000000E+00  0.78601402505E+02  0.78611661831E+02  0.12700000000E+01 0.  1.
         -4   -1    0    0    0  501 -0.00000000000E+00 -0.00000000000E+00 -0.49684352480E+02  0.49700581298E+02  0.12700000000E+01 0.  1.
         25    2    1    2    0    0  0.00000000000E+00  0.00000000000E+00  0.28917050025E+02  0.12831224313E+03  0.12501134330E+03 0.  0.
    9000005    1    3    3    0    0  0.61632730153E+01 -0.11545656618E+02  0.77184127632E+02  0.78292258106E+02  0.10000000000E+01 0.  0.
    9000005    1    3    3    0    0 -0.61632730153E+01  0.11545656618E+02 -0.48267077607E+02  0.50019985023E+02  0.10000000000E+01 0.  0.
<mgrwt>
<rscale>  0 0.12501134E+03</rscale>
<asrwt>0</asrwt>
<pdfrwt beam="1">  1        4 0.19653662E-01 0.12501134E+03</pdfrwt>
<pdfrwt beam="2">  1       -4 0.12424399E-01 0.12501134E+03</pdfrwt>
<totfact> 0.19650359E+03</totfact>
</mgrwt>
</event>
<event>
 5    1  0.1451195E-002  0.1250005E+03  0.7818608E-02  0.1235069E+00
         -4   -1    0    0    0  501 -0.00000000000E+00  0.00000000000E+00  0.31941782900E+02  0.31967020425E+02  0.12700000000E+01 0.  1.
          4   -1    0    0  501    0  0.00000000000E+00 -0.00000000000E+00 -0.12221692529E+03  0.12222352362E+03  0.12700000000E+01 0.  1.
         25    2    1    2    0    0  0.00000000000E+00  0.00000000000E+00 -0.90275142386E+02  0.15419054405E+03  0.12500049016E+03 0.  0.
    9000005    1    3    3    0    0 -0.25749054203E+01 -0.31860375733E+02  0.21101013565E+02  0.38314050337E+02  0.10000000000E+01 0.  0.
    9000005    1    3    3    0    0  0.25749054203E+01  0.31860375733E+02 -0.11137615595E+03  0.11587649371E+03  0.10000000000E+01 0.  0.
<mgrwt>
<rscale>  0 0.12500049E+03</rscale>
<asrwt>0</asrwt>
<pdfrwt beam="2">  1        4 0.30558210E-01 0.12500049E+03</pdfrwt>
<pdfrwt beam="1">  1       -4 0.79894255E-02 0.12500049E+03</pdfrwt>
<totfact> 0.18334424E+03</totfact>
</mgrwt>
</event>
<event>
 5    1  0.1451195E-002  0.1250082E+03  0.7818608E-02  0.1235056E+00
          4   -1    0    0  501    0  0.00000000000E+00  0.00000000000E+00  0.14699094430E+02  0.14753856346E+02  0.12700000000E+01 0. -1.
         -4   -1    0    0    0  501 -0.00000000000E+00 -0.00000000000E+00 -0.26523209751E+03  0.26523513804E+03  0.12700000000E+01 0. -1.
         25    2    1    2    0    0  0.00000000000E+00  0.00000000000E+00 -0.25053300308E+03  0.27998899438E+03  0.12500820510E+03 0.  0.
    9000005    1    3    3    0    0 -0.55612742741E+00 -0.23082231765E+02 -0.25534005007E+03  0.25638377458E+03  0.10000000000E+01 0.  0.
    9000005    1    3    3    0    0  0.55612742741E+00  0.23082231765E+02  0.48070469895E+01  0.23605219798E+02  0.10000000000E+01 0.  0.
<mgrwt>
<rscale>  0 0.12500821E+03</rscale>
<asrwt>0</asrwt>
<pdfrwt beam="1">  1        4 0.36819998E-02 0.12500821E+03</pdfrwt>
<pdfrwt beam="2">  1       -4 0.66315234E-01 0.12500821E+03</pdfrwt>
<totfact> 0.13548486E+03</totfact>
</mgrwt>
</event>
<event>
 5    1  0.1451195E-002  0.1250006E+03  0.7818608E-02  0.1235068E+00
         -4   -1    0    0    0  501 -0.00000000000E+00  0.00000000000E+00  0.31436446364E+02  0.31462089250E+02  0.12700000000E+01 0.  1.
          4   -1    0    0  501    0  0.00000000000E+00 -0.00000000000E+00 -0.12418026514E+03  0.12418675916E+03  0.12700000000E+01 0.  1.
         25    2    1    2    0    0  0.00000000000E+00  0.00000000000E+00 -0.92743818774E+02  0.15564884841E+03  0.12500059236E+03 0.  0.
    9000005    1    3    3    0    0 -0.45755745031E+02 -0.26899275596E+02 -0.87446551875E+02  0.10229886933E+03  0.10000000000E+01 0.  0.
    9000005    1    3    3    0    0  0.45755745031E+02  0.26899275596E+02 -0.52972668987E+01  0.53349979077E+02  0.10000000000E+01 0.  0.
<mgrwt>
<rscale>  0 0.12500059E+03</rscale>
<asrwt>0</asrwt>
<pdfrwt beam="2">  1        4 0.31049082E-01 0.12500059E+03</pdfrwt>
<pdfrwt beam="1">  1       -4 0.78631290E-02 0.12500059E+03</pdfrwt>
<totfact> 0.18264218E+03</totfact>
</mgrwt>
</event>
<event>
 5    1  0.1451195E-002  0.1250121E+03  0.7818608E-02  0.1235050E+00
          4   -1    0    0  501    0  0.00000000000E+00  0.00000000000E+00  0.97505042591E+03  0.97505125300E+03  0.12700000000E+01 0.  1.
         -4   -1    0    0    0  501 -0.00000000000E+00 -0.00000000000E+00 -0.39054979047E+01  0.41068009307E+01  0.12700000000E+01 0.  1.
         25    2    1    2    0    0  0.00000000000E+00  0.00000000000E+00  0.97114492801E+03  0.97915805393E+03  0.12501209292E+03 0.  0.
    9000005    1    3    3    0    0  0.14198878421E+02  0.20406275451E+02  0.36449289651E+02  0.44131337417E+02  0.10000000000E+01 0.  0.
    9000005    1    3    3    0    0 -0.14198878421E+02 -0.20406275451E+02  0.93469563836E+03  0.93502671651E+03  0.10000000000E+01 0.  0.
<mgrwt>
<rscale>  0 0.12501209E+03</rscale>
<asrwt>0</asrwt>
<pdfrwt beam="1">  1        4 0.24378792E+00 0.12501209E+03</pdfrwt>
<pdfrwt beam="2">  1       -4 0.10016406E-02 0.12501209E+03</pdfrwt>
<totfact> 0.38518029E+02</totfact>
</mgrwt>
</event>
<event>
 5    1  0.1451195E-002  0.1250024E+03  0.7818608E-02  0.1235066E+00
         -4   -1    0    0    0  501 -0.00000000000E+00  0.00000000000E+00  0.77953680209E+02  0.77964024769E+02  0.12700000000E+01 0.  1.
          4   -1    0    0  501    0  0.00000000000E+00 -0.00000000000E+00 -0.50090074441E+02  0.50106171851E+02  0.12700000000E+01 0.  1.
         25    2    1    2    0    0  0.00000000000E+00  0.00000000000E+00  0.27863605768E+02  0.12807019662E+03  0.12500237892E+03 0.  0.
    9000005    1    3    3    0    0  0.37322372742E+02  0.22235419533E+02 -0.32093123332E+02  0.54021680408E+02  0.10000000000E+01 0.  0.
    9000005    1    3    3    0    0 -0.37322372742E+02 -0.22235419533E+02  0.59956729100E+02  0.74048516212E+02  0.10000000000E+01 0.  0.
<mgrwt>
<rscale>  0 0.12500238E+03</rscale>
<asrwt>0</asrwt>
<pdfrwt beam="2">  1        4 0.12525824E-01 0.12500238E+03</pdfrwt>
<pdfrwt beam="1">  1       -4 0.19491725E-01 0.12500238E+03</pdfrwt>
<totfact> 0.19667623E+03</totfact>
</mgrwt>
</event>
<event>
 5    1  0.1451195E-002  0.1249937E+03  0.7818608E-02  0.1235079E+00
         -4   -1    0    0    0  501 -0.00000000000E+00  0.00000000000E+00  0.54850895664E+03  0.54851042689E+03  0.12700000000E+01 0.  1.
          4   -1    0    0  501    0  0.00000000000E+00 -0.00000000000E+00 -0.70627450571E+01  0.71760203276E+01  0.12700000000E+01 0.  1.
         25    2    1    2    0    0  0.00000000000E+00  0.00000000000E+00  0.54144621158E+03  0.55568644722E+03  0.12499371021E+03 0.  0.
    9000005    1    3    3    0    0  0.17202320603E+02  0.58996089900E+02  0.32109885511E+03  0.32692802451E+03  0.10000000000E+01 0.  0.
    9000005    1    3    3    0    0 -0.17202320603E+02 -0.58996089900E+02  0.22034735647E+03  0.22875842271E+03  0.10000000000E+01 0.  0.
<mgrwt>
<rscale>  0 0.12499371E+03</rscale>
<asrwt>0</asrwt>
<pdfrwt beam="2">  1        4 0.17800295E-02 0.12499371E+03</pdfrwt>
<pdfrwt beam="1">  1       -4 0.13714158E+00 0.12499371E+03</pdfrwt>
<totfact> 0.79387817E+02</totfact>
</mgrwt>
</event>
<event>
 5    1  0.1451195E-002  0.1249999E+03  0.7818608E-02  0.1235069E+00
         -4   -1    0    0    0  501 -0.00000000000E+00  0.00000000000E+00  0.13298776476E+02  0.13359279762E+02  0.12700000000E+01 0.  1.
          4   -1    0    0  501    0  0.00000000000E+00 -0.00000000000E+00 -0.29300105494E+03  0.29300380731E+03  0.12700000000E+01 0.  1.
         25    2    1    2    0    0  0.00000000000E+00  0.00000000000E+00 -0.27970227847E+03  0.30636308707E+03  0.12499990616E+03 0.  0.
    9000005    1    3    3    0    0 -0.33802092192E+02 -0.22709027096E+02 -0.25602935168E+03  0.25924951354E+03  0.10000000000E+01 0.  0.
    9000005    1    3    3    0    0  0.33802092192E+02  0.22709027096E+02 -0.23672926784E+02  0.47113573530E+02  0.10000000000E+01 0.  0.
<mgrwt>
<rscale>  0 0.12499991E+03</rscale>
<asrwt>0</asrwt>
<pdfrwt beam="2">  1        4 0.73258150E-01 0.12499991E+03</pdfrwt>
<pdfrwt beam="1">  1       -4 0.33326020E-02 0.12499991E+03</pdfrwt>
<totfact> 0.12794604E+03</totfact>
</mgrwt>
</event>
<event>
 5    1  0.1451195E-002  0.1249972E+03  0.7818608E-02  0.1235074E+00
          4   -1    0    0  501    0  0.00000000000E+00  0.00000000000E+00  0.24229653159E+01  0.27356280672E+01  0.12700000000E+01 0.  1.
         -4   -1    0    0    0  501 -0.00000000000E+00 -0.00000000000E+00 -0.15140832792E+04  0.15140838119E+04  0.12700000000E+01 0.  1.
         25    2    1    2    0    0  0.00000000000E+00  0.00000000000E+00 -0.15116603139E+04  0.15168194399E+04  0.12499723471E+03 0.  0.
    9000005    1    3    3    0    0 -0.97460360359E+01 -0.56641053980E+02 -0.45812284342E+03  0.46171499205E+03  0.10000000000E+01 0.  0.
    9000005    1    3    3    0    0  0.97460360359E+01  0.56641053980E+02 -0.10535374705E+04  0.10551044479E+04  0.10000000000E+01 0.  0.
<mgrwt>
<rscale>  0 0.12499723E+03</rscale>
<asrwt>0</asrwt>
<pdfrwt beam="1">  1        4 0.64489595E-03 0.12499723E+03</pdfrwt>
<pdfrwt beam="2">  1       -4 0.37855692E+00 0.12499723E+03</pdfrwt>
<totfact> 0.11949483E+02</totfact>
</mgrwt>
</event>
<event>
 5    1  0.1451195E-002  0.1249590E+03  0.7818608E-02  0.1235133E+00
         -4   -1    0    0    0  501 -0.00000000000E+00  0.00000000000E+00  0.23730383131E+02  0.23764342691E+02  0.12700000000E+01 0.  1.
          4   -1    0    0  501    0  0.00000000000E+00 -0.00000000000E+00 -0.16434761889E+03  0.16435252580E+03  0.12700000000E+01 0.  1.
         25    2    1    2    0    0  0.00000000000E+00  0.00000000000E+00 -0.14061723576E+03  0.18811686849E+03  0.12495899014E+03 0.  0.
    9000005    1    3    3    0    0 -0.16749486311E+02  0.56519734933E+02 -0.39176379326E+02  0.70787106352E+02  0.10000000000E+01 0.  0.
    9000005    1    3    3    0    0  0.16749486311E+02 -0.56519734933E+02 -0.10144085644E+03  0.11732976214E+03  0.10000000000E+01 0.  0.
<mgrwt>
<rscale>  0 0.12495899E+03</rscale>
<asrwt>0</asrwt>
<pdfrwt beam="2">  1        4 0.41091760E-01 0.12495899E+03</pdfrwt>
<pdfrwt beam="1">  1       -4 0.59374546E-02 0.12495899E+03</pdfrwt>
<totfact> 0.16825156E+03</totfact>
</mgrwt>
</event>
<event>
 5    1  0.1451195E-002  0.1249995E+03  0.7818608E-02  0.1235070E+00
          4   -1    0    0  501    0  0.00000000000E+00  0.00000000000E+00  0.41176768227E+03  0.41176964078E+03  0.12700000000E+01 0.  1.
         -4   -1    0    0    0  501 -0.00000000000E+00 -0.00000000000E+00 -0.94419737792E+01  0.95270020912E+01  0.12700000000E+01 0.  1.
         25    2    1    2    0    0  0.00000000000E+00  0.00000000000E+00  0.40232570849E+03  0.42129664287E+03  0.12499954230E+03 0.  0.
    9000005    1    3    3    0    0 -0.47823618766E+02 -0.13994619855E+02  0.74055366711E+02  0.89264467933E+02  0.10000000000E+01 0.  0.
    9000005    1    3    3    0    0  0.47823618766E+02  0.13994619855E+02  0.32827034178E+03  0.33203217493E+03  0.10000000000E+01 0.  0.
<mgrwt>
<rscale>  0 0.12499954E+03</rscale>
<asrwt>0</asrwt>
<pdfrwt beam="1">  1        4 0.10295278E+00 0.12499954E+03</pdfrwt>
<pdfrwt beam="2">  1       -4 0.23713670E-02 0.12499954E+03</pdfrwt>
<totfact> 0.10140746E+03</totfact>
</mgrwt>
</event>
<event>
 5    1  0.1451195E-002  0.1249978E+03  0.7818608E-02  0.1235073E+00
         -4   -1    0    0    0  501 -0.00000000000E+00  0.00000000000E+00  0.34028311318E+03  0.34028548311E+03  0.12700000000E+01 0. -1.
          4   -1    0    0  501    0  0.00000000000E+00 -0.00000000000E+00 -0.11441455979E+02  0.11511725106E+02  0.12700000000E+01 0. -1.
         25    2    1    2    0    0  0.00000000000E+00  0.00000000000E+00  0.32884165721E+03  0.35179720822E+03  0.12499776077E+03 0.  0.
    9000005    1    3    3    0    0 -0.34719818346E+01  0.20807616073E+02  0.32997281156E+03  0.33064795162E+03  0.10000000000E+01 0.  0.
    9000005    1    3    3    0    0  0.34719818346E+01 -0.20807616073E+02 -0.11311543521E+01  0.21149256599E+02  0.10000000000E+01 0.  0.
<mgrwt>
<rscale>  0 0.12499776E+03</rscale>
<asrwt>0</asrwt>
<pdfrwt beam="2">  1        4 0.28694440E-02 0.12499776E+03</pdfrwt>
<pdfrwt beam="1">  1       -4 0.85079856E-01 0.12499776E+03</pdfrwt>
<totfact> 0.11635166E+03</totfact>
</mgrwt>
</event>
<event>
 5    1  0.1451195E-002  0.1250023E+03  0.7818608E-02  0.1235066E+00
         -4   -1    0    0    0  501 -0.00000000000E+00  0.00000000000E+00  0.50717083907E+02  0.50732982369E+02  0.12700000000E+01 0. -1.
          4   -1    0    0  501    0  0.00000000000E+00 -0.00000000000E+00 -0.76989992881E+02  0.77000466906E+02  0.12700000000E+01 0. -1.
         25    2    1    2    0    0  0.00000000000E+00  0.00000000000E+00 -0.26272908974E+02  0.12773344927E+03  0.12500227325E+03 0.  0.
    9000005    1    3    3    0    0 -0.62106128408E+02 -0.43830427378E+01 -0.18640212369E+02  0.64998767424E+02  0.10000000000E+01 0.  0.
    9000005    1    3    3    0    0  0.62106128408E+02  0.43830427378E+01 -0.76326966045E+01  0.62734681851E+02  0.10000000000E+01 0.  0.
<mgrwt>
<rscale>  0 0.12500227E+03</rscale>
<asrwt>0</asrwt>
<pdfrwt beam="2">  1        4 0.19250795E-01 0.12500227E+03</pdfrwt>
<pdfrwt beam="1">  1       -4 0.12682568E-01 0.12500227E+03</pdfrwt>
<totfact> 0.19686005E+03</totfact>
</mgrwt>
</event>
<event>
 5    1  0.1451195E-002  0.1250000E+03  0.7818608E-02  0.1235069E+00
         -4   -1    0    0    0  501 -0.00000000000E+00  0.00000000000E+00  0.68373726992E+03  0.68373844939E+03  0.12700000000E+01 0. -1.
          4   -1    0    0  501    0  0.00000000000E+00 -0.00000000000E+00 -0.56413035265E+01  0.57824912864E+01  0.12700000000E+01 0. -1.
         25    2    1    2    0    0  0.00000000000E+00  0.00000000000E+00  0.67809596639E+03  0.68952094068E+03  0.12499995198E+03 0.  0.
    9000005    1    3    3    0    0 -0.22565871098E+02 -0.54339627912E+02  0.22291547548E+03  0.23055221297E+03  0.10000000000E+01 0.  0.
    9000005    1    3    3    0    0  0.22565871098E+02  0.54339627912E+02  0.45518049091E+03  0.45896872770E+03  0.10000000000E+01 0.  0.
<mgrwt>
<rscale>  0 0.12499995E+03</rscale>
<asrwt>0</asrwt>
<pdfrwt beam="2">  1        4 0.14281216E-02 0.12499995E+03</pdfrwt>
<pdfrwt beam="1">  1       -4 0.17095214E+00 0.12499995E+03</pdfrwt>
<totfact> 0.63163862E+02</totfact>
</mgrwt>
</event>
<event>
 5    1  0.1451195E-002  0.1249921E+03  0.7818608E-02  0.1235082E+00
          4   -1    0    0  501    0  0.00000000000E+00  0.00000000000E+00  0.14492166738E+02  0.14547707612E+02  0.12700000000E+01 0. -1.
         -4   -1    0    0    0  501 -0.00000000000E+00 -0.00000000000E+00 -0.26893538570E+03  0.26893838436E+03  0.12700000000E+01 0. -1.
         25    2    1    2    0    0  0.00000000000E+00  0.00000000000E+00 -0.25444321896E+03  0.28348609197E+03  0.12499205041E+03 0.  0.
    9000005    1    3    3    0    0 -0.23818795365E+02 -0.18737941002E+02 -0.25116307957E+03  0.25298683362E+03  0.10000000000E+01 0.  0.
    9000005    1    3    3    0    0  0.23818795365E+02  0.18737941002E+02 -0.32801393927E+01  0.30499258353E+02  0.10000000000E+01 0.  0.
<mgrwt>
<rscale>  0 0.12499205E+03</rscale>
<asrwt>0</asrwt>
<pdfrwt beam="1">  1        4 0.36303600E-02 0.12499205E+03</pdfrwt>
<pdfrwt beam="2">  1       -4 0.67241148E-01 0.12499205E+03</pdfrwt>
<totfact> 0.13449299E+03</totfact>
</mgrwt>
</event>
<event>
 5    1  0.1451195E-002  0.1250006E+03  0.7818608E-02  0.1235068E+00
         -4   -1    0    0    0  501 -0.00000000000E+00  0.00000000000E+00  0.26241800916E+02  0.26272514446E+02  0.12700000000E+01 0. -1.
          4   -1    0    0  501    0  0.00000000000E+00 -0.00000000000E+00 -0.14873684797E+03  0.14874226986E+03  0.12700000000E+01 0. -1.
         25    2    1    2    0    0  0.00000000000E+00  0.00000000000E+00 -0.12249504705E+03  0.17501478431E+03  0.12500055269E+03 0.  0.
    9000005    1    3    3    0    0  0.28037485375E+02 -0.11546404508E+02 -0.13775393846E+03  0.14105519347E+03  0.10000000000E+01 0.  0.
    9000005    1    3    3    0    0 -0.28037485375E+02  0.11546404508E+02  0.15258891405E+02  0.33959590841E+02  0.10000000000E+01 0.  0.
<mgrwt>
<rscale>  0 0.12500055E+03</rscale>
<asrwt>0</asrwt>
<pdfrwt beam="2">  1        4 0.37188727E-01 0.12500055E+03</pdfrwt>
<pdfrwt beam="1">  1       -4 0.65649676E-02 0.12500055E+03</pdfrwt>
<totfact> 0.17372980E+03</totfact>
</mgrwt>
</event>
<event>
 5    1  0.1451195E-002  0.1249970E+03  0.7818608E-02  0.1235074E+00
          4   -1    0    0  501    0  0.00000000000E+00  0.00000000000E+00  0.85661450137E+02  0.85670864006E+02  0.12700000000E+01 0.  1.
         -4   -1    0    0    0  501 -0.00000000000E+00 -0.00000000000E+00 -0.45578083604E+02  0.45595773982E+02  0.12700000000E+01 0.  1.
         25    2    1    2    0    0  0.00000000000E+00  0.00000000000E+00  0.40083366533E+02  0.13126663799E+03  0.12499701587E+03 0.  0.
    9000005    1    3    3    0    0  0.25525769021E+02  0.53502210000E+02  0.40807539128E+02  0.71974346879E+02  0.10000000000E+01 0.  0.
    9000005    1    3    3    0    0 -0.25525769021E+02 -0.53502210000E+02 -0.72417259581E+00  0.59292291109E+02  0.10000000000E+01 0.  0.
<mgrwt>
<rscale>  0 0.12499702E+03</rscale>
<asrwt>0</asrwt>
<pdfrwt beam="1">  1        4 0.21418750E-01 0.12499702E+03</pdfrwt>
<pdfrwt beam="2">  1       -4 0.11397909E-01 0.12499702E+03</pdfrwt>
<totfact> 0.19497887E+03</totfact>
</mgrwt>
</event>
<event>
 5    1  0.1451195E-002  0.1250014E+03  0.7818608E-02  0.1235067E+00
          4   -1    0    0  501    0  0.00000000000E+00  0.00000000000E+00  0.10406431256E+03  0.10407206181E+03  0.12700000000E+01 0.  1.
         -4   -1    0    0    0  501 -0.00000000000E+00 -0.00000000000E+00 -0.37517838452E+02  0.37539327406E+02  0.12700000000E+01 0.  1.
         25    2    1    2    0    0  0.00000000000E+00  0.00000000000E+00  0.66546474112E+02  0.14161138922E+03  0.12500140935E+03 0.  0.
    9000005    1    3    3    0    0 -0.39030898242E+02 -0.44452222389E+02  0.10448423487E+02  0.60079785671E+02  0.10000000000E+01 0.  0.
    9000005    1    3    3    0    0  0.39030898242E+02  0.44452222389E+02  0.56098050625E+02  0.81531603546E+02  0.10000000000E+01 0.  0.
<mgrwt>
<rscale>  0 0.12500141E+03</rscale>
<asrwt>0</asrwt>
<pdfrwt beam="1">  1        4 0.26019733E-01 0.12500141E+03</pdfrwt>
<pdfrwt beam="2">  1       -4 0.93831145E-02 0.12500141E+03</pdfrwt>
<totfact> 0.18957585E+03</totfact>
</mgrwt>
</event>
<event>
 5    1  0.1451195E-002  0.1249922E+03  0.7818608E-02  0.1235082E+00
          4   -1    0    0  501    0  0.00000000000E+00  0.00000000000E+00  0.11667414467E+03  0.11668105645E+03  0.12700000000E+01 0.  1.
         -4   -1    0    0    0  501 -0.00000000000E+00 -0.00000000000E+00 -0.33455846865E+02  0.33479943092E+02  0.12700000000E+01 0.  1.
         25    2    1    2    0    0  0.00000000000E+00  0.00000000000E+00  0.83218297801E+02  0.15016099954E+03  0.12499216253E+03 0.  0.
    9000005    1    3    3    0    0 -0.36777283959E+02 -0.50229620031E+02  0.48098382636E+02  0.78676792996E+02  0.10000000000E+01 0.  0.
    9000005    1    3    3    0    0  0.36777283959E+02  0.50229620031E+02  0.35119915165E+02  0.71484206543E+02  0.10000000000E+01 0.  0.
<mgrwt>
<rscale>  0 0.12499216E+03</rscale>
<asrwt>0</asrwt>
<pdfrwt beam="1">  1        4 0.29172412E-01 0.12499216E+03</pdfrwt>
<pdfrwt beam="2">  1       -4 0.83678378E-02 0.12499216E+03</pdfrwt>
<totfact> 0.18534247E+03</totfact>
</mgrwt>
</event>
<event>
 5    1  0.1451195E-002  0.1249994E+03  0.7818608E-02  0.1235070E+00
         -4   -1    0    0    0  501 -0.00000000000E+00  0.00000000000E+00  0.15339182391E+03  0.15339708127E+03  0.12700000000E+01 0. -1.
          4   -1    0    0  501    0  0.00000000000E+00 -0.00000000000E+00 -0.25444043319E+02  0.25475718644E+02  0.12700000000E+01 0. -1.
         25    2    1    2    0    0  0.00000000000E+00  0.00000000000E+00  0.12794778059E+03  0.17887279992E+03  0.12499937597E+03 0.  0.
    9000005    1    3    3    0    0 -0.26281124555E+02  0.35621707566E+02  0.85431480134E+00  0.44286944031E+02  0.10000000000E+01 0.  0.
    9000005    1    3    3    0    0  0.26281124555E+02 -0.35621707566E+02  0.12709346579E+03  0.13458585589E+03  0.10000000000E+01 0.  0.
<mgrwt>
<rscale>  0 0.12499938E+03</rscale>
<asrwt>0</asrwt>
<pdfrwt beam="2">  1        4 0.63656276E-02 0.12499938E+03</pdfrwt>
<pdfrwt beam="1">  1       -4 0.38352572E-01 0.12499938E+03</pdfrwt>
<totfact> 0.17204364E+03</totfact>
</mgrwt>
</event>
<event>
 5    1  0.1451195E-002  0.1250004E+03  0.7818608E-02  0.1235069E+00
         -4   -1    0    0    0  501 -0.00000000000E+00  0.00000000000E+00  0.58594916646E+03  0.58595054277E+03  0.12700000000E+01 0. -1.
          4   -1    0    0  501    0  0.00000000000E+00 -0.00000000000E+00 -0.66046981922E+01  0.67256923963E+01  0.12700000000E+01 0. -1.
         25    2    1    2    0    0  0.00000000000E+00  0.00000000000E+00  0.57934446827E+03  0.59267623517E+03  0.12500042728E+03 0.  0.
    9000005    1    3    3    0    0  0.66778113487E+01 -0.53682152796E+01  0.58317429944E+03  0.58323809412E+03  0.10000000000E+01 0.  0.
    9000005    1    3    3    0    0 -0.66778113487E+01  0.53682152796E+01 -0.38298311737E+01  0.94381410520E+01  0.10000000000E+01 0.  0.
<mgrwt>
<rscale>  0 0.12500043E+03</rscale>
<asrwt>0</asrwt>
<pdfrwt beam="2">  1        4 0.16664712E-02 0.12500043E+03</pdfrwt>
<pdfrwt beam="1">  1       -4 0.14650256E+00 0.12500043E+03</pdfrwt>
<totfact> 0.74431456E+02</totfact>
</mgrwt>
</event>
<event>
 5    1  0.1451195E-002  0.1249978E+03  0.7818608E-02  0.1235073E+00
         -4   -1    0    0    0  501 -0.00000000000E+00  0.00000000000E+00  0.94092827626E+02  0.94101398027E+02  0.12700000000E+01 0. -1.
          4   -1    0    0  501    0  0.00000000000E+00 -0.00000000000E+00 -0.41493244910E+02  0.41512676054E+02  0.12700000000E+01 0. -1.
         25    2    1    2    0    0  0.00000000000E+00  0.00000000000E+00  0.52599582715E+02  0.13561407408E+03  0.12499784393E+03 0.  0.
    9000005    1    3    3    0    0 -0.55043931666E+00  0.21239693235E+02 -0.37459542754E+02  0.43077196932E+02  0.10000000000E+01 0.  0.
    9000005    1    3    3    0    0  0.55043931666E+00 -0.21239693235E+02  0.90059125470E+02  0.92536877149E+02  0.10000000000E+01 0.  0.
<mgrwt>
<rscale>  0 0.12499784E+03</rscale>
<asrwt>0</asrwt>
<pdfrwt beam="2">  1        4 0.10376811E-01 0.12499784E+03</pdfrwt>
<pdfrwt beam="1">  1       -4 0.23526707E-01 0.12499784E+03</pdfrwt>
<totfact> 0.19267990E+03</totfact>
</mgrwt>
</event>
<event>
 5    1  0.1451195E-002  0.1249951E+03  0.7818608E-02  0.1235077E+00
          4   -1    0    0  501    0  0.00000000000E+00  0.00000000000E+00  0.14541753066E+02  0.14597105269E+02  0.12700000000E+01 0. -1.
         -4   -1    0    0    0  501 -0.00000000000E+00 -0.00000000000E+00 -0.26803474946E+03  0.26803775820E+03  0.12700000000E+01 0. -1.
         25    2    1    2    0    0  0.00000000000E+00  0.00000000000E+00 -0.25349299640E+03  0.28263486347E+03  0.12499506720E+03 0.  0.
    9000005    1    3    3    0    0  0.17168365633E+02  0.33248286269E+01  0.89072793880E+01  0.19650620601E+02  0.10000000000E+01 0.  0.
    9000005    1    3    3    0    0 -0.17168365633E+02 -0.33248286269E+01 -0.26240027578E+03  0.26298424287E+03  0.10000000000E+01 0.  0.
<mgrwt>
<rscale>  0 0.12499507E+03</rscale>
<asrwt>0</asrwt>
<pdfrwt beam="1">  1        4 0.36427342E-02 0.12499507E+03</pdfrwt>
<pdfrwt beam="2">  1       -4 0.67015967E-01 0.12499507E+03</pdfrwt>
<totfact> 0.13473619E+03</totfact>
</mgrwt>
</event>
<event>
 5    1  0.1451195E-002  0.1249980E+03  0.7818608E-02  0.1235072E+00
          4   -1    0    0  501    0  0.00000000000E+00  0.00000000000E+00  0.43453303714E+02  0.43471858755E+02  0.12700000000E+01 0.  1.
         -4   -1    0    0    0  501 -0.00000000000E+00 -0.00000000000E+00 -0.89850248668E+02  0.89859223710E+02  0.12700000000E+01 0.  1.
         25    2    1    2    0    0  0.00000000000E+00  0.00000000000E+00 -0.46396944954E+02  0.13333108246E+03  0.12499800418E+03 0.  0.
    9000005    1    3    3    0    0  0.19499732018E+02  0.25917484265E+02  0.33777550257E+02  0.46838856099E+02  0.10000000000E+01 0.  0.
    9000005    1    3    3    0    0 -0.19499732018E+02 -0.25917484265E+02 -0.80174495211E+02  0.86492226366E+02  0.10000000000E+01 0.  0.
<mgrwt>
<rscale>  0 0.12499800E+03</rscale>
<asrwt>0</asrwt>
<pdfrwt beam="1">  1        4 0.10866767E-01 0.12499800E+03</pdfrwt>
<pdfrwt beam="2">  1       -4 0.22466003E-01 0.12499800E+03</pdfrwt>
<totfact> 0.19387817E+03</totfact>
</mgrwt>
</event>
<event>
 5    1  0.1451195E-002  0.1250027E+03  0.7818608E-02  0.1235065E+00
         -4   -1    0    0    0  501 -0.00000000000E+00  0.00000000000E+00  0.28311713002E+02  0.28340183364E+02  0.12700000000E+01 0. -1.
          4   -1    0    0  501    0  0.00000000000E+00 -0.00000000000E+00 -0.13787810626E+03  0.13788395514E+03  0.12700000000E+01 0. -1.
         25    2    1    2    0    0  0.00000000000E+00  0.00000000000E+00 -0.10956639326E+03  0.16622413850E+03  0.12500267873E+03 0.  0.
    9000005    1    3    3    0    0  0.58232009206E+02 -0.22176982048E+02 -0.61109298450E+02  0.87281909844E+02  0.10000000000E+01 0.  0.
    9000005    1    3    3    0    0 -0.58232009206E+02  0.22176982048E+02 -0.48457094806E+02  0.78942228661E+02  0.10000000000E+01 0.  0.
<mgrwt>
<rscale>  0 0.12500268E+03</rscale>
<asrwt>0</asrwt>
<pdfrwt beam="2">  1        4 0.34473815E-01 0.12500268E+03</pdfrwt>
<pdfrwt beam="1">  1       -4 0.70822185E-02 0.12500268E+03</pdfrwt>
<totfact> 0.17767606E+03</totfact>
</mgrwt>
</event>
<event>
 5    1  0.1451195E-002  0.1250081E+03  0.7818608E-02  0.1235057E+00
          4   -1    0    0  501    0  0.00000000000E+00  0.00000000000E+00  0.18788546369E+02  0.18831419879E+02  0.12700000000E+01 0. -1.
         -4   -1    0    0    0  501 -0.00000000000E+00 -0.00000000000E+00 -0.20765097794E+03  0.20765486159E+03  0.12700000000E+01 0. -1.
         25    2    1    2    0    0  0.00000000000E+00  0.00000000000E+00 -0.18886243157E+03  0.22648628147E+03  0.12500807027E+03 0.  0.
    9000005    1    3    3    0    0 -0.40176401733E+02 -0.18803759423E+02 -0.14671412571E+02  0.46733018001E+02  0.10000000000E+01 0.  0.
    9000005    1    3    3    0    0  0.40176401733E+02  0.18803759423E+02 -0.17419101900E+03  0.17975326346E+03  0.10000000000E+01 0.  0.
<mgrwt>
<rscale>  0 0.12500807E+03</rscale>
<asrwt>0</asrwt>
<pdfrwt beam="1">  1        4 0.47029819E-02 0.12500807E+03</pdfrwt>
<pdfrwt beam="2">  1       -4 0.51918582E-01 0.12500807E+03</pdfrwt>
<totfact> 0.15310834E+03</totfact>
</mgrwt>
</event>
<event>
 5    1  0.1451195E-002  0.1250004E+03  0.7818608E-02  0.1235069E+00
          4   -1    0    0  501    0  0.00000000000E+00  0.00000000000E+00  0.73385786970E+02  0.73396775332E+02  0.12700000000E+01 0. -1.
         -4   -1    0    0    0  501 -0.00000000000E+00 -0.00000000000E+00 -0.53206796117E+02  0.53221950857E+02  0.12700000000E+01 0. -1.
         25    2    1    2    0    0  0.00000000000E+00  0.00000000000E+00  0.20178990853E+02  0.12661872619E+03  0.12500044060E+03 0.  0.
    9000005    1    3    3    0    0  0.55386324347E+02  0.21583792402E+01 -0.19145438881E+02  0.58650245998E+02  0.10000000000E+01 0.  0.
    9000005    1    3    3    0    0 -0.55386324347E+02 -0.21583792402E+01  0.39324429734E+02  0.67968480192E+02  0.10000000000E+01 0.  0.
<mgrwt>
<rscale>  0 0.12500044E+03</rscale>
<asrwt>0</asrwt>
<pdfrwt beam="1">  1        4 0.18349715E-01 0.12500044E+03</pdfrwt>
<pdfrwt beam="2">  1       -4 0.13304967E-01 0.12500044E+03</pdfrwt>
<totfact> 0.19747318E+03</totfact>
</mgrwt>
</event>
<event>
 5    1  0.1451195E-002  0.1249974E+03  0.7818608E-02  0.1235073E+00
          4   -1    0    0  501    0  0.00000000000E+00  0.00000000000E+00  0.12252160537E+04  0.12252167119E+04  0.12700000000E+01 0.  1.
         -4   -1    0    0    0  501 -0.00000000000E+00 -0.00000000000E+00 -0.30609179734E+01  0.33139280077E+01  0.12700000000E+01 0.  1.
         25    2    1    2    0    0  0.00000000000E+00  0.00000000000E+00  0.12221551357E+04  0.12285306399E+04  0.12499742971E+03 0.  0.
    9000005    1    3    3    0    0 -0.61003110700E+02  0.13027392487E+02  0.57430697254E+03  0.57768554697E+03  0.10000000000E+01 0.  0.
    9000005    1    3    3    0    0  0.61003110700E+02 -0.13027392487E+02  0.64784816319E+03  0.65084509296E+03  0.10000000000E+01 0.  0.
<mgrwt>
<rscale>  0 0.12499743E+03</rscale>
<asrwt>0</asrwt>
<pdfrwt beam="1">  1        4 0.30633613E+00 0.12499743E+03</pdfrwt>
<pdfrwt beam="2">  1       -4 0.79693697E-03 0.12499743E+03</pdfrwt>
<totfact> 0.23741140E+02</totfact>
</mgrwt>
</event>
<event>
 5    1  0.1451195E-002  0.1249943E+03  0.7818608E-02  0.1235078E+00
          4   -1    0    0  501    0  0.00000000000E+00  0.00000000000E+00  0.75935327273E+02  0.75945946752E+02  0.12700000000E+01 0. -1.
         -4   -1    0    0    0  501 -0.00000000000E+00 -0.00000000000E+00 -0.51415063863E+02  0.51430746563E+02  0.12700000000E+01 0. -1.
         25    2    1    2    0    0  0.00000000000E+00  0.00000000000E+00  0.24520263411E+02  0.12737669332E+03  0.12499431460E+03 0.  0.
    9000005    1    3    3    0    0 -0.59187836831E+02 -0.17365689399E+01  0.32607646592E+02  0.67605283200E+02  0.10000000000E+01 0.  0.
    9000005    1    3    3    0    0  0.59187836831E+02  0.17365689399E+01 -0.80873831810E+01  0.59771410115E+02  0.10000000000E+01 0.  0.
<mgrwt>
<rscale>  0 0.12499431E+03</rscale>
<asrwt>0</asrwt>
<pdfrwt beam="1">  1        4 0.18987120E-01 0.12499431E+03</pdfrwt>
<pdfrwt beam="2">  1       -4 0.12857054E-01 0.12499431E+03</pdfrwt>
<totfact> 0.19709134E+03</totfact>
</mgrwt>
</event>
<event>
 5    1  0.1451195E-002  0.1249995E+03  0.7818608E-02  0.1235070E+00
          4   -1    0    0  501    0  0.00000000000E+00  0.00000000000E+00  0.31618145319E+02  0.31643640963E+02  0.12700000000E+01 0.  1.
         -4   -1    0    0    0  501 -0.00000000000E+00 -0.00000000000E+00 -0.12346500424E+03  0.12347153587E+03  0.12700000000E+01 0.  1.
         25    2    1    2    0    0  0.00000000000E+00  0.00000000000E+00 -0.91846858916E+02  0.15511517684E+03  0.12499949037E+03 0.  0.
    9000005    1    3    3    0    0  0.25719768442E+01 -0.22086103610E+02 -0.11839616089E+03  0.12047017038E+03  0.10000000000E+01 0.  0.
    9000005    1    3    3    0    0 -0.25719768442E+01  0.22086103610E+02  0.26549301970E+02  0.34645006461E+02  0.10000000000E+01 0.  0.
<mgrwt>
<rscale>  0 0.12499949E+03</rscale>
<asrwt>0</asrwt>
<pdfrwt beam="1">  1        4 0.79085401E-02 0.12499949E+03</pdfrwt>
<pdfrwt beam="2">  1       -4 0.30870253E-01 0.12499949E+03</pdfrwt>
<totfact> 0.18290311E+03</totfact>
</mgrwt>
</event>
<event>
 5    1  0.1451195E-002  0.1250047E+03  0.7818608E-02  0.1235062E+00
         -4   -1    0    0    0  501 -0.00000000000E+00  0.00000000000E+00  0.82611570947E+02  0.82621332320E+02  0.12700000000E+01 0. -1.
          4   -1    0    0  501    0  0.00000000000E+00 -0.00000000000E+00 -0.47267041212E+02  0.47284099706E+02  0.12700000000E+01 0. -1.
         25    2    1    2    0    0  0.00000000000E+00  0.00000000000E+00  0.35344529735E+02  0.12990543203E+03  0.12500474186E+03 0.  0.
    9000005    1    3    3    0    0 -0.18522906973E+02 -0.51419458122E+02  0.49166964907E+02  0.73521760007E+02  0.10000000000E+01 0.  0.
    9000005    1    3    3    0    0  0.18522906973E+02  0.51419458122E+02 -0.13822435172E+02  0.56383672019E+02  0.10000000000E+01 0.  0.
<mgrwt>
<rscale>  0 0.12500474E+03</rscale>
<asrwt>0</asrwt>
<pdfrwt beam="2">  1        4 0.11820113E-01 0.12500474E+03</pdfrwt>
<pdfrwt beam="1">  1       -4 0.20656245E-01 0.12500474E+03</pdfrwt>
<totfact> 0.19567302E+03</totfact>
</mgrwt>
</event>
<event>
 5    1  0.1451195E-002  0.1250035E+03  0.7818608E-02  0.1235064E+00
          4   -1    0    0  501    0  0.00000000000E+00  0.00000000000E+00  0.78956750347E+02  0.78966963506E+02  0.12700000000E+01 0.  1.
         -4   -1    0    0    0  501 -0.00000000000E+00 -0.00000000000E+00 -0.49454515824E+02  0.49470820039E+02  0.12700000000E+01 0.  1.
         25    2    1    2    0    0  0.00000000000E+00  0.00000000000E+00  0.29502234523E+02  0.12843778354E+03  0.12500352955E+03 0.  0.
    9000005    1    3    3    0    0  0.11718613520E+01  0.54550154564E+02 -0.16555269165E+02  0.57027796373E+02  0.10000000000E+01 0.  0.
    9000005    1    3    3    0    0 -0.11718613520E+01 -0.54550154564E+02  0.46057503688E+02  0.71409987172E+02  0.10000000000E+01 0.  0.
<mgrwt>
<rscale>  0 0.12500353E+03</rscale>
<asrwt>0</asrwt>
<pdfrwt beam="1">  1        4 0.19742502E-01 0.12500353E+03</pdfrwt>
<pdfrwt beam="2">  1       -4 0.12366944E-01 0.12500353E+03</pdfrwt>
<totfact> 0.19647129E+03</totfact>
</mgrwt>
</event>
<event>
 5    1  0.1451195E-002  0.1250008E+03  0.7818608E-02  0.1235068E+00
         -4   -1    0    0    0  501 -0.00000000000E+00  0.00000000000E+00  0.51837147181E+02  0.51852702223E+02  0.12700000000E+01 0. -1.
          4   -1    0    0  501    0  0.00000000000E+00 -0.00000000000E+00 -0.75324997587E+02  0.75335703099E+02  0.12700000000E+01 0. -1.
         25    2    1    2    0    0  0.00000000000E+00  0.00000000000E+00 -0.23487850406E+02  0.12718840532E+03  0.12500084532E+03 0.  0.
    9000005    1    3    3    0    0  0.24201487946E+02  0.35476028849E+02  0.34449271037E+02  0.55063716881E+02  0.10000000000E+01 0.  0.
    9000005    1    3    3    0    0 -0.24201487946E+02 -0.35476028849E+02 -0.57937121443E+02  0.72124688442E+02  0.10000000000E+01 0.  0.
<mgrwt>
<rscale>  0 0.12500085E+03</rscale>
<asrwt>0</asrwt>
<pdfrwt beam="2">  1        4 0.18834532E-01 0.12500085E+03</pdfrwt>
<pdfrwt beam="1">  1       -4 0.12962569E-01 0.12500085E+03</pdfrwt>
<totfact> 0.19716389E+03</totfact>
</mgrwt>
</event>
<event>
 5    1  0.1451195E-002  0.1250047E+03  0.7818608E-02  0.1235062E+00
          4   -1    0    0  501    0  0.00000000000E+00  0.00000000000E+00  0.16889359796E+02  0.16937041487E+02  0.12700000000E+01 0.  1.
         -4   -1    0    0    0  501 -0.00000000000E+00 -0.00000000000E+00 -0.23092647254E+03  0.23092996475E+03  0.12700000000E+01 0.  1.
         25    2    1    2    0    0  0.00000000000E+00  0.00000000000E+00 -0.21403711275E+03  0.24786700624E+03  0.12500466851E+03 0.  0.
    9000005    1    3    3    0    0  0.26314058736E+02 -0.18413818345E+02 -0.71711601710E+00  0.32140514131E+02  0.10000000000E+01 0.  0.
    9000005    1    3    3    0    0 -0.26314058736E+02  0.18413818345E+02 -0.21331999673E+03  0.21572649211E+03  0.10000000000E+01 0.  0.
<mgrwt>
<rscale>  0 0.12500467E+03</rscale>
<asrwt>0</asrwt>
<pdfrwt beam="1">  1        4 0.42287374E-02 0.12500467E+03</pdfrwt>
<pdfrwt beam="2">  1       -4 0.57738005E-01 0.12500467E+03</pdfrwt>
<totfact> 0.14567650E+03</totfact>
</mgrwt>
</event>
<event>
 5    1  0.1451195E-002  0.1250017E+03  0.7818608E-02  0.1235067E+00
         -4   -1    0    0    0  501 -0.00000000000E+00  0.00000000000E+00  0.11032233956E+03  0.11032964926E+03  0.12700000000E+01 0. -1.
          4   -1    0    0  501    0  0.00000000000E+00 -0.00000000000E+00 -0.35388690133E+02  0.35411471155E+02  0.12700000000E+01 0. -1.
         25    2    1    2    0    0  0.00000000000E+00  0.00000000000E+00  0.74933649430E+02  0.14574112042E+03  0.12500168944E+03 0.  0.
    9000005    1    3    3    0    0  0.37695210111E+02 -0.10191922354E+02  0.94352773612E+02  0.10211880353E+03  0.10000000000E+01 0.  0.
    9000005    1    3    3    0    0 -0.37695210111E+02  0.10191922354E+02 -0.19419124182E+02  0.43622316887E+02  0.10000000000E+01 0.  0.
<mgrwt>
<rscale>  0 0.12500169E+03</rscale>
<asrwt>0</asrwt>
<pdfrwt beam="2">  1        4 0.88509340E-02 0.12500169E+03</pdfrwt>
<pdfrwt beam="1">  1       -4 0.27584346E-01 0.12500169E+03</pdfrwt>
<totfact> 0.18749454E+03</totfact>
</mgrwt>
</event>
<event>
 5    1  0.1451195E-002  0.1250006E+03  0.7818608E-02  0.1235068E+00
         -4   -1    0    0    0  501 -0.00000000000E+00  0.00000000000E+00  0.35771323155E+02  0.35793860650E+02  0.12700000000E+01 0.  1.
          4   -1    0    0  501    0  0.00000000000E+00 -0.00000000000E+00 -0.10914095236E+03  0.10914834118E+03  0.12700000000E+01 0.  1.
         25    2    1    2    0    0  0.00000000000E+00  0.00000000000E+00 -0.73369629204E+02  0.14494220183E+03  0.12500055752E+03 0.  0.
    9000005    1    3    3    0    0 -0.45841527806E+02  0.30342941881E+02 -0.22261118064E+01  0.55028132509E+02  0.10000000000E+01 0.  0.
    9000005    1    3    3    0    0  0.45841527806E+02 -0.30342941881E+02 -0.71143517398E+02  0.89914069318E+02  0.10000000000E+01 0.  0.
<mgrwt>
<rscale>  0 0.12500056E+03</rscale>
<asrwt>0</asrwt>
<pdfrwt beam="2">  1        4 0.27288978E-01 0.12500056E+03</pdfrwt>
<pdfrwt beam="1">  1       -4 0.89465718E-02 0.12500056E+03</pdfrwt>
<totfact> 0.18790015E+03</totfact>
</mgrwt>
</event>
<event>
 5    1  0.1451195E-002  0.1250249E+03  0.7818608E-02  0.1235030E+00
         -4   -1    0    0    0  501 -0.00000000000E+00  0.00000000000E+00  0.68444866948E+02  0.68456648410E+02  0.12700000000E+01 0. -1.
          4   -1    0    0  501    0  0.00000000000E+00 -0.00000000000E+00 -0.57070449499E+02  0.57084578530E+02  0.12700000000E+01 0. -1.
         25    2    1    2    0    0  0.00000000000E+00  0.00000000000E+00  0.11374417449E+02  0.12554122694E+03  0.12502488668E+03 0.  0.
    9000005    1    3    3    0    0  0.34121727905E+02  0.16784548897E+02  0.55498450401E+02  0.67283663647E+02  0.10000000000E+01 0.  0.
    9000005    1    3    3    0    0 -0.34121727905E+02 -0.16784548897E+02 -0.44124032952E+02  0.58257563293E+02  0.10000000000E+01 0.  0.
<mgrwt>
<rscale>  0 0.12502489E+03</rscale>
<asrwt>0</asrwt>
<pdfrwt beam="2">  1        4 0.14270851E-01 0.12502489E+03</pdfrwt>
<pdfrwt beam="1">  1       -4 0.17114456E-01 0.12502489E+03</pdfrwt>
<totfact> 0.19794205E+03</totfact>
</mgrwt>
</event>
<event>
 5    1  0.1451195E-002  0.1249831E+03  0.7818608E-02  0.1235096E+00
         -4   -1    0    0    0  501 -0.00000000000E+00  0.00000000000E+00  0.29371661770E+02  0.29399105686E+02  0.12700000000E+01 0. -1.
          4   -1    0    0  501    0  0.00000000000E+00 -0.00000000000E+00 -0.13286522592E+03  0.13287129547E+03  0.12700000000E+01 0. -1.
         25    2    1    2    0    0  0.00000000000E+00  0.00000000000E+00 -0.10349356415E+03  0.16227040115E+03  0.12498305993E+03 0.  0.
    9000005    1    3    3    0    0 -0.27685488904E+02  0.15566237025E+02 -0.12160897893E+03  0.12569223439E+03  0.10000000000E+01 0.  0.
    9000005    1    3    3    0    0  0.27685488904E+02 -0.15566237025E+02  0.18115414776E+02  0.36578166760E+02  0.10000000000E+01 0.  0.
<mgrwt>
<rscale>  0 0.12498306E+03</rscale>
<asrwt>0</asrwt>
<pdfrwt beam="2">  1        4 0.33220494E-01 0.12498306E+03</pdfrwt>
<pdfrwt beam="1">  1       -4 0.73471050E-02 0.12498306E+03</pdfrwt>
<totfact> 0.17958494E+03</totfact>
</mgrwt>
</event>
<event>
 5    1  0.1451195E-002  0.1250004E+03  0.7818608E-02  0.1235069E+00
          4   -1    0    0  501    0  0.00000000000E+00  0.00000000000E+00  0.16288343594E+02  0.16337779440E+02  0.12700000000E+01 0.  1.
         -4   -1    0    0    0  501 -0.00000000000E+00 -0.00000000000E+00 -0.23940579122E+03  0.23940915974E+03  0.12700000000E+01 0.  1.
         25    2    1    2    0    0  0.00000000000E+00  0.00000000000E+00 -0.22311744762E+03  0.25574693918E+03  0.12500040587E+03 0.  0.
    9000005    1    3    3    0    0  0.12955611315E+00 -0.45697359805E+02 -0.24346438472E+02  0.51788169926E+02  0.10000000000E+01 0.  0.
    9000005    1    3    3    0    0 -0.12955611315E+00  0.45697359805E+02 -0.19877100915E+03  0.20395876926E+03  0.10000000000E+01 0.  0.
<mgrwt>
<rscale>  0 0.12500041E+03</rscale>
<asrwt>0</asrwt>
<pdfrwt beam="1">  1        4 0.40786872E-02 0.12500041E+03</pdfrwt>
<pdfrwt beam="2">  1       -4 0.59858037E-01 0.12500041E+03</pdfrwt>
<totfact> 0.14308615E+03</totfact>
</mgrwt>
</event>
<event>
 5    1  0.1451195E-002  0.1249995E+03  0.7818608E-02  0.1235070E+00
          4   -1    0    0  501    0  0.00000000000E+00  0.00000000000E+00  0.21441917219E+02  0.21479495199E+02  0.12700000000E+01 0. -1.
         -4   -1    0    0    0  501 -0.00000000000E+00 -0.00000000000E+00 -0.18197738005E+03  0.18198181159E+03  0.12700000000E+01 0. -1.
         25    2    1    2    0    0  0.00000000000E+00  0.00000000000E+00 -0.16053546283E+03  0.20346130679E+03  0.12499947413E+03 0.  0.
    9000005    1    3    3    0    0  0.48446738162E+01 -0.61677786012E+02 -0.65929484399E+02  0.90417459956E+02  0.10000000000E+01 0.  0.
    9000005    1    3    3    0    0 -0.48446738162E+01  0.61677786012E+02 -0.94605978428E+02  0.11304384683E+03  0.10000000000E+01 0.  0.
<mgrwt>
<rscale>  0 0.12499947E+03</rscale>
<asrwt>0</asrwt>
<pdfrwt beam="1">  1        4 0.53657310E-02 0.12499947E+03</pdfrwt>
<pdfrwt beam="2">  1       -4 0.45499592E-01 0.12499947E+03</pdfrwt>
<totfact> 0.16184574E+03</totfact>
</mgrwt>
</event>
<event>
 5    1  0.1451195E-002  0.1250024E+03  0.7818608E-02  0.1235066E+00
         -4   -1    0    0    0  501 -0.00000000000E+00  0.00000000000E+00  0.24629883772E+02  0.24662604782E+02  0.12700000000E+01 0. -1.
          4   -1    0    0  501    0  0.00000000000E+00 -0.00000000000E+00 -0.15846342089E+03  0.15846850999E+03  0.12700000000E+01 0. -1.
         25    2    1    2    0    0  0.00000000000E+00  0.00000000000E+00 -0.13383353712E+03  0.18313111478E+03  0.12500235815E+03 0.  0.
    9000005    1    3    3    0    0 -0.93392773579E+01  0.58899728244E+02 -0.39548018426E+02  0.71564277752E+02  0.10000000000E+01 0.  0.
    9000005    1    3    3    0    0  0.93392773579E+01 -0.58899728244E+02 -0.94285518690E+02  0.11156683702E+03  0.10000000000E+01 0.  0.
<mgrwt>
<rscale>  0 0.12500236E+03</rscale>
<asrwt>0</asrwt>
<pdfrwt beam="2">  1        4 0.39620579E-01 0.12500236E+03</pdfrwt>
<pdfrwt beam="1">  1       -4 0.61621977E-02 0.12500236E+03</pdfrwt>
<totfact> 0.17019593E+03</totfact>
</mgrwt>
</event>
<event>
 5    1  0.1451195E-002  0.1250344E+03  0.7818608E-02  0.1235015E+00
         -4   -1    0    0    0  501 -0.00000000000E+00  0.00000000000E+00  0.11829326657E+02  0.11897305122E+02  0.12700000000E+01 0. -1.
          4   -1    0    0  501    0  0.00000000000E+00 -0.00000000000E+00 -0.32938358180E+03  0.32938603015E+03  0.12700000000E+01 0. -1.
         25    2    1    2    0    0  0.00000000000E+00  0.00000000000E+00 -0.31755425514E+03  0.34128333527E+03  0.12503443516E+03 0.  0.
    9000005    1    3    3    0    0 -0.17274474943E+02  0.39302451991E+01  0.48469389682E+01  0.18394214559E+02  0.10000000000E+01 0.  0.
    9000005    1    3    3    0    0  0.17274474943E+02 -0.39302451991E+01 -0.32240119411E+03  0.32288912071E+03  0.10000000000E+01 0.  0.
<mgrwt>
<rscale>  0 0.12503444E+03</rscale>
<asrwt>0</asrwt>
<pdfrwt beam="2">  1        4 0.82354669E-01 0.12503444E+03</pdfrwt>
<pdfrwt beam="1">  1       -4 0.29661361E-02 0.12503444E+03</pdfrwt>
<totfact> 0.11878768E+03</totfact>
</mgrwt>
</event>
<event>
 5    1  0.1451195E-002  0.1249989E+03  0.7818608E-02  0.1235071E+00
          4   -1    0    0  501    0  0.00000000000E+00  0.00000000000E+00  0.76604053270E+02  0.76614580057E+02  0.12700000000E+01 0.  1.
         -4   -1    0    0    0  501 -0.00000000000E+00 -0.00000000000E+00 -0.50969902557E+02  0.50985722184E+02  0.12700000000E+01 0.  1.
         25    2    1    2    0    0  0.00000000000E+00  0.00000000000E+00  0.25634150713E+02  0.12760030224E+03  0.12499890979E+03 0.  0.
    9000005    1    3    3    0    0  0.77808043152E+01 -0.10695289176E+02  0.75163929990E+02  0.76325267755E+02  0.10000000000E+01 0.  0.
    9000005    1    3    3    0    0 -0.77808043152E+01  0.10695289176E+02 -0.49529779277E+02  0.51275034486E+02  0.10000000000E+01 0.  0.
<mgrwt>
<rscale>  0 0.12499891E+03</rscale>
<asrwt>0</asrwt>
<pdfrwt beam="1">  1        4 0.19154306E-01 0.12499891E+03</pdfrwt>
<pdfrwt beam="2">  1       -4 0.12745769E-01 0.12499891E+03</pdfrwt>
<totfact> 0.19694812E+03</totfact>
</mgrwt>
</event>
<event>
 5    1  0.1451195E-002  0.1250019E+03  0.7818608E-02  0.1235066E+00
          4   -1    0    0  501    0  0.00000000000E+00  0.00000000000E+00  0.28450791800E+02  0.28479123127E+02  0.12700000000E+01 0. -1.
         -4   -1    0    0    0  501 -0.00000000000E+00 -0.00000000000E+00 -0.13720300750E+03  0.13720888516E+03  0.12700000000E+01 0. -1.
         25    2    1    2    0    0  0.00000000000E+00  0.00000000000E+00 -0.10875221570E+03  0.16568800829E+03  0.12500188667E+03 0.  0.
    9000005    1    3    3    0    0  0.62288668460E+02  0.50445934594E+01 -0.54647025984E+02  0.83021825989E+02  0.10000000000E+01 0.  0.
    9000005    1    3    3    0    0 -0.62288668460E+02 -0.50445934594E+01 -0.54105189717E+02  0.82666182300E+02  0.10000000000E+01 0.  0.
<mgrwt>
<rscale>  0 0.12500189E+03</rscale>
<asrwt>0</asrwt>
<pdfrwt beam="1">  1        4 0.71169744E-02 0.12500189E+03</pdfrwt>
<pdfrwt beam="2">  1       -4 0.34305026E-01 0.12500189E+03</pdfrwt>
<totfact> 0.17792529E+03</totfact>
</mgrwt>
</event>
<event>
 5    1  0.1451195E-002  0.1249965E+03  0.7818608E-02  0.1235075E+00
          4   -1    0    0  501    0  0.00000000000E+00  0.00000000000E+00  0.46092346528E+02  0.46109839606E+02  0.12700000000E+01 0.  1.
         -4   -1    0    0    0  501 -0.00000000000E+00 -0.00000000000E+00 -0.84705267600E+02  0.84714787724E+02  0.12700000000E+01 0.  1.
         25    2    1    2    0    0  0.00000000000E+00  0.00000000000E+00 -0.38612921071E+02  0.13082462733E+03  0.12499650172E+03 0.  0.
    9000005    1    3    3    0    0  0.46568115497E+02 -0.22177354533E+02 -0.56230376539E+02  0.76310416594E+02  0.10000000000E+01 0.  0.
    9000005    1    3    3    0    0 -0.46568115497E+02  0.22177354533E+02  0.17617455467E+02  0.54514210736E+02  0.10000000000E+01 0.  0.
<mgrwt>
<rscale>  0 0.12499650E+03</rscale>
<asrwt>0</asrwt>
<pdfrwt beam="1">  1        4 0.11526463E-01 0.12499650E+03</pdfrwt>
<pdfrwt beam="2">  1       -4 0.21179693E-01 0.12499650E+03</pdfrwt>
<totfact> 0.19521748E+03</totfact>
</mgrwt>
</event>
<event>
 5    1  0.1451195E-002  0.1249987E+03  0.7818608E-02  0.1235071E+00
         -4   -1    0    0    0  501 -0.00000000000E+00  0.00000000000E+00  0.31654165255E+02  0.31679631911E+02  0.12700000000E+01 0.  1.
          4   -1    0    0  501    0  0.00000000000E+00 -0.00000000000E+00 -0.12332299603E+03  0.12332953519E+03  0.12700000000E+01 0.  1.
         25    2    1    2    0    0  0.00000000000E+00  0.00000000000E+00 -0.91668830776E+02  0.15500916710E+03  0.12499866939E+03 0.  0.
    9000005    1    3    3    0    0  0.62255783879E+02  0.50231838101E+01 -0.48361222304E+02  0.78998878629E+02  0.10000000000E+01 0.  0.
    9000005    1    3    3    0    0 -0.62255783879E+02 -0.50231838101E+01 -0.43307608472E+02  0.76010288471E+02  0.10000000000E+01 0.  0.
<mgrwt>
<rscale>  0 0.12499867E+03</rscale>
<asrwt>0</asrwt>
<pdfrwt beam="2">  1        4 0.30834749E-01 0.12499867E+03</pdfrwt>
<pdfrwt beam="1">  1       -4 0.79175424E-02 0.12499867E+03</pdfrwt>
<totfact> 0.18295757E+03</totfact>
</mgrwt>
</event>
<event>
 5    1  0.1451195E-002  0.1250004E+03  0.7818608E-02  0.1235069E+00
          4   -1    0    0  501    0  0.00000000000E+00  0.00000000000E+00  0.10432993260E+03  0.10433766212E+03  0.12700000000E+01 0. -1.
         -4   -1    0    0    0  501 -0.00000000000E+00 -0.00000000000E+00 -0.37421637410E+02  0.37443181575E+02  0.12700000000E+01 0. -1.
         25    2    1    2    0    0  0.00000000000E+00  0.00000000000E+00  0.66908295193E+02  0.14178084370E+03  0.12500035069E+03 0.  0.
    9000005    1    3    3    0    0 -0.53228002093E+02 -0.28074387748E+02  0.52564736852E+02  0.79908967047E+02  0.10000000000E+01 0.  0.
    9000005    1    3    3    0    0  0.53228002093E+02  0.28074387748E+02  0.14343558340E+02  0.61871876649E+02  0.10000000000E+01 0.  0.
<mgrwt>
<rscale>  0 0.12500035E+03</rscale>
<asrwt>0</asrwt>
<pdfrwt beam="1">  1        4 0.26086142E-01 0.12500035E+03</pdfrwt>
<pdfrwt beam="2">  1       -4 0.93590686E-02 0.12500035E+03</pdfrwt>
<totfact> 0.18949450E+03</totfact>
</mgrwt>
</event>
<event>
 5    1  0.1451195E-002  0.1250020E+03  0.7818608E-02  0.1235066E+00
          4   -1    0    0  501    0  0.00000000000E+00  0.00000000000E+00  0.57203523847E+01  0.58596357741E+01  0.12700000000E+01 0. -1.
         -4   -1    0    0    0  501 -0.00000000000E+00 -0.00000000000E+00 -0.67453669223E+03  0.67453788779E+03  0.12700000000E+01 0. -1.
         25    2    1    2    0    0  0.00000000000E+00  0.00000000000E+00 -0.66881633985E+03  0.68039752357E+03  0.12500197450E+03 0.  0.
    9000005    1    3    3    0    0 -0.33025395794E+01  0.36268615987E+02 -0.57983957954E+02  0.68479622175E+02  0.10000000000E+01 0.  0.
    9000005    1    3    3    0    0  0.33025395794E+01 -0.36268615987E+02 -0.61083238189E+03  0.61191790139E+03  0.10000000000E+01 0.  0.
<mgrwt>
<rscale>  0 0.12500197E+03</rscale>
<asrwt>0</asrwt>
<pdfrwt beam="1">  1        4 0.14476503E-02 0.12500197E+03</pdfrwt>
<pdfrwt beam="2">  1       -4 0.16865147E+00 0.12500197E+03</pdfrwt>
<totfact> 0.64134606E+02</totfact>
</mgrwt>
</event>
<event>
 5    1  0.1451195E-002  0.1249965E+03  0.7818608E-02  0.1235075E+00
          4   -1    0    0  501    0  0.00000000000E+00  0.00000000000E+00  0.23736200962E+03  0.23736540715E+03  0.12700000000E+01 0. -1.
         -4   -1    0    0    0  501 -0.00000000000E+00 -0.00000000000E+00 -0.16427993520E+02  0.16477010381E+02  0.12700000000E+01 0. -1.
         25    2    1    2    0    0  0.00000000000E+00  0.00000000000E+00  0.22093401610E+03  0.25384241753E+03  0.12499653382E+03 0.  0.
    9000005    1    3    3    0    0 -0.41527454622E+02  0.18309235956E+02  0.19770323292E+03  0.20284803650E+03  0.10000000000E+01 0.  0.
    9000005    1    3    3    0    0  0.41527454622E+02 -0.18309235956E+02  0.23230783185E+02  0.50994381024E+02  0.10000000000E+01 0.  0.
<mgrwt>
<rscale>  0 0.12499653E+03</rscale>
<asrwt>0</asrwt>
<pdfrwt beam="1">  1        4 0.59347052E-01 0.12499653E+03</pdfrwt>
<pdfrwt beam="2">  1       -4 0.41135503E-02 0.12499653E+03</pdfrwt>
<totfact> 0.14372180E+03</totfact>
</mgrwt>
</event>
<event>
 5    1  0.1451195E-002  0.1249998E+03  0.7818608E-02  0.1235070E+00
          4   -1    0    0  501    0  0.00000000000E+00  0.00000000000E+00  0.30703116240E+01  0.33226064270E+01  0.12700000000E+01 0. -1.
         -4   -1    0    0    0  501 -0.00000000000E+00 -0.00000000000E+00 -0.12217990492E+04  0.12217997092E+04  0.12700000000E+01 0. -1.
         25    2    1    2    0    0  0.00000000000E+00  0.00000000000E+00 -0.12187287375E+04  0.12251223156E+04  0.12499981031E+03 0.  0.
    9000005    1    3    3    0    0 -0.29507348331E+02  0.41251680634E+02 -0.25154710847E+03  0.25661124788E+03  0.10000000000E+01 0.  0.
    9000005    1    3    3    0    0  0.29507348331E+02 -0.41251680634E+02 -0.96718162908E+03  0.96851106777E+03  0.10000000000E+01 0.  0.
<mgrwt>
<rscale>  0 0.12499981E+03</rscale>
<asrwt>0</asrwt>
<pdfrwt beam="1">  1        4 0.79920145E-03 0.12499981E+03</pdfrwt>
<pdfrwt beam="2">  1       -4 0.30547978E+00 0.12499981E+03</pdfrwt>
<totfact> 0.23912190E+02</totfact>
</mgrwt>
</event>
<event>
 5    1  0.1451195E-002  0.1249990E+03  0.7818608E-02  0.1235071E+00
          4   -1    0    0  501    0  0.00000000000E+00  0.00000000000E+00  0.14123346703E+03  0.14123917696E+03  0.12700000000E+01 0. -1.
         -4   -1    0    0    0  501 -0.00000000000E+00 -0.00000000000E+00 -0.27636814751E+02  0.27665979643E+02  0.12700000000E+01 0. -1.
         25    2    1    2    0    0  0.00000000000E+00  0.00000000000E+00  0.11359665228E+03  0.16890515660E+03  0.12499901007E+03 0.  0.
    9000005    1    3    3    0    0 -0.54646051308E+02  0.23172411111E+02  0.83209566846E+02  0.10221537837E+03  0.10000000000E+01 0.  0.
    9000005    1    3    3    0    0  0.54646051308E+02 -0.23172411111E+02  0.30387085431E+02  0.66689778236E+02  0.10000000000E+01 0.  0.
<mgrwt>
<rscale>  0 0.12499901E+03</rscale>
<asrwt>0</asrwt>
<pdfrwt beam="1">  1        4 0.35312726E-01 0.12499901E+03</pdfrwt>
<pdfrwt beam="2">  1       -4 0.69135631E-02 0.12499901E+03</pdfrwt>
<totfact> 0.17646948E+03</totfact>
</mgrwt>
</event>
<event>
 5    1  0.1451195E-002  0.1249988E+03  0.7818608E-02  0.1235071E+00
          4   -1    0    0  501    0  0.00000000000E+00  0.00000000000E+00  0.75381647047E+01  0.76443984142E+01  0.12700000000E+01 0.  1.
         -4   -1    0    0    0  501 -0.00000000000E+00 -0.00000000000E+00 -0.51445353515E+03  0.51445510273E+03  0.12700000000E+01 0.  1.
         25    2    1    2    0    0  0.00000000000E+00  0.00000000000E+00 -0.50691537044E+03  0.52209950114E+03  0.12499878521E+03 0.  0.
    9000005    1    3    3    0    0  0.80549113851E+01 -0.26295756678E+02 -0.19077013944E+02  0.33485532364E+02  0.10000000000E+01 0.  0.
    9000005    1    3    3    0    0 -0.80549113851E+01  0.26295756678E+02 -0.48783835650E+03  0.48861396878E+03  0.10000000000E+01 0.  0.
<mgrwt>
<rscale>  0 0.12499879E+03</rscale>
<asrwt>0</asrwt>
<pdfrwt beam="1">  1        4 0.18980181E-02 0.12499879E+03</pdfrwt>
<pdfrwt beam="2">  1       -4 0.12862674E+00 0.12499879E+03</pdfrwt>
<totfact> 0.84198157E+02</totfact>
</mgrwt>
</event>
<event>
 5    1  0.1451195E-002  0.1249984E+03  0.7818608E-02  0.1235072E+00
         -4   -1    0    0    0  501 -0.00000000000E+00  0.00000000000E+00  0.79135791765E+02  0.79145981820E+02  0.12700000000E+01 0. -1.
          4   -1    0    0  501    0  0.00000000000E+00 -0.00000000000E+00 -0.49338537644E+02  0.49354880172E+02  0.12700000000E+01 0. -1.
         25    2    1    2    0    0  0.00000000000E+00  0.00000000000E+00  0.29797254121E+02  0.12850086199E+03  0.12499838071E+03 0.  0.
    9000005    1    3    3    0    0  0.30986937557E+02 -0.44571647134E+02  0.46722898013E+02  0.71629960394E+02  0.10000000000E+01 0.  0.
    9000005    1    3    3    0    0 -0.30986937557E+02  0.44571647134E+02 -0.16925643892E+02  0.56870901598E+02  0.10000000000E+01 0.  0.
<mgrwt>
<rscale>  0 0.12499838E+03</rscale>
<asrwt>0</asrwt>
<pdfrwt beam="2">  1        4 0.12337951E-01 0.12499838E+03</pdfrwt>
<pdfrwt beam="1">  1       -4 0.19787264E-01 0.12499838E+03</pdfrwt>
<totfact> 0.19646068E+03</totfact>
</mgrwt>
</event>
<event>
 5    1  0.1451195E-002  0.1250010E+03  0.7818608E-02  0.1235068E+00
          4   -1    0    0  501    0  0.00000000000E+00  0.00000000000E+00  0.85910870107E+02  0.85920256648E+02  0.12700000000E+01 0. -1.
         -4   -1    0    0    0  501 -0.00000000000E+00 -0.00000000000E+00 -0.45448621630E+02  0.45466362380E+02  0.12700000000E+01 0. -1.
         25    2    1    2    0    0  0.00000000000E+00  0.00000000000E+00  0.40462248477E+02  0.13138661903E+03  0.12500100043E+03 0.  0.
    9000005    1    3    3    0    0 -0.16143592342E+02 -0.52150955313E+02  0.52198177294E+02  0.75537986646E+02  0.10000000000E+01 0.  0.
    9000005    1    3    3    0    0  0.16143592342E+02  0.52150955313E+02 -0.11735928817E+02  0.55848632382E+02  0.10000000000E+01 0.  0.
<mgrwt>
<rscale>  0 0.12500100E+03</rscale>
<asrwt>0</asrwt>
<pdfrwt beam="1">  1        4 0.21481108E-01 0.12500100E+03</pdfrwt>
<pdfrwt beam="2">  1       -4 0.11365546E-01 0.12500100E+03</pdfrwt>
<totfact> 0.19489671E+03</totfact>
</mgrwt>
</event>
<event>
 5    1  0.1451195E-002  0.1249960E+03  0.7818608E-02  0.1235076E+00
         -4   -1    0    0    0  501 -0.00000000000E+00  0.00000000000E+00  0.88630874529E+02  0.88639973035E+02  0.12700000000E+01 0.  1.
          4   -1    0    0  501    0  0.00000000000E+00 -0.00000000000E+00 -0.44049884900E+02  0.44068188749E+02  0.12700000000E+01 0.  1.
         25    2    1    2    0    0  0.00000000000E+00  0.00000000000E+00  0.44580989629E+02  0.13270816178E+03  0.12499596621E+03 0.  0.
    9000005    1    3    3    0    0  0.14393034872E+02  0.28547508137E+02  0.79295735546E+02  0.85503996103E+02  0.10000000000E+01 0.  0.
    9000005    1    3    3    0    0 -0.14393034872E+02 -0.28547508137E+02 -0.34714745917E+02  0.47204165682E+02  0.10000000000E+01 0.  0.
<mgrwt>
<rscale>  0 0.12499597E+03</rscale>
<asrwt>0</asrwt>
<pdfrwt beam="2">  1        4 0.11015897E-01 0.12499597E+03</pdfrwt>
<pdfrwt beam="1">  1       -4 0.22161144E-01 0.12499597E+03</pdfrwt>
<totfact> 0.19421694E+03</totfact>
</mgrwt>
</event>
<event>
 5    1  0.1451195E-002  0.1249989E+03  0.7818608E-02  0.1235071E+00
          4   -1    0    0  501    0  0.00000000000E+00  0.00000000000E+00  0.99846663373E+01  0.10065111120E+02  0.12700000000E+01 0.  1.
         -4   -1    0    0    0  501 -0.00000000000E+00 -0.00000000000E+00 -0.38956716227E+03  0.38956923238E+03  0.12700000000E+01 0.  1.
         25    2    1    2    0    0  0.00000000000E+00  0.00000000000E+00 -0.37958249593E+03  0.39963434350E+03  0.12499894915E+03 0.  0.
    9000005    1    3    3    0    0  0.54442486647E+01  0.60932286439E+02 -0.23058417852E+03  0.23856329717E+03  0.10000000000E+01 0.  0.
    9000005    1    3    3    0    0 -0.54442486647E+01 -0.60932286439E+02 -0.14899831742E+03  0.16107104633E+03  0.10000000000E+01 0.  0.
<mgrwt>
<rscale>  0 0.12499895E+03</rscale>
<asrwt>0</asrwt>
<pdfrwt beam="1">  1        4 0.25064823E-02 0.12499895E+03</pdfrwt>
<pdfrwt beam="2">  1       -4 0.97402054E-01 0.12499895E+03</pdfrwt>
<totfact> 0.10576993E+03</totfact>
</mgrwt>
</event>
<event>
 5    1  0.1451195E-002  0.1250011E+03  0.7818608E-02  0.1235068E+00
          4   -1    0    0  501    0  0.00000000000E+00  0.00000000000E+00  0.68758705844E+02  0.68770433541E+02  0.12700000000E+01 0. -1.
         -4   -1    0    0    0  501 -0.00000000000E+00 -0.00000000000E+00 -0.56788322285E+02  0.56802521493E+02  0.12700000000E+01 0. -1.
         25    2    1    2    0    0  0.00000000000E+00  0.00000000000E+00  0.11970383559E+02  0.12557295503E+03  0.12500110781E+03 0.  0.
    9000005    1    3    3    0    0 -0.10998776933E+02 -0.57510507693E+02 -0.15952467644E+02  0.60695245391E+02  0.10000000000E+01 0.  0.
    9000005    1    3    3    0    0  0.10998776933E+02  0.57510507693E+02  0.27922851203E+02  0.64877709643E+02  0.10000000000E+01 0.  0.
<mgrwt>
<rscale>  0 0.12500111E+03</rscale>
<asrwt>0</asrwt>
<pdfrwt beam="1">  1        4 0.17192917E-01 0.12500111E+03</pdfrwt>
<pdfrwt beam="2">  1       -4 0.14200321E-01 0.12500111E+03</pdfrwt>
<totfact> 0.19803501E+03</totfact>
</mgrwt>
</event>
<event>
 5    1  0.1451195E-002  0.1249833E+03  0.7818608E-02  0.1235095E+00
         -4   -1    0    0    0  501 -0.00000000000E+00  0.00000000000E+00  0.17988429197E+02  0.18033205067E+02  0.12700000000E+01 0. -1.
          4   -1    0    0  501    0  0.00000000000E+00 -0.00000000000E+00 -0.21677896384E+03  0.21678268396E+03  0.12700000000E+01 0. -1.
         25    2    1    2    0    0  0.00000000000E+00  0.00000000000E+00 -0.19879053465E+03  0.23481588903E+03  0.12498329918E+03 0.  0.
    9000005    1    3    3    0    0 -0.50448839478E+02  0.14613457350E+02 -0.16298483630E+03  0.17124162872E+03  0.10000000000E+01 0.  0.
    9000005    1    3    3    0    0  0.50448839478E+02 -0.14613457350E+02 -0.35805698345E+02  0.63574260313E+02  0.10000000000E+01 0.  0.
<mgrwt>
<rscale>  0 0.12498330E+03</rscale>
<asrwt>0</asrwt>
<pdfrwt beam="2">  1        4 0.54200795E-01 0.12498330E+03</pdfrwt>
<pdfrwt beam="1">  1       -4 0.45031700E-02 0.12498330E+03</pdfrwt>
<totfact> 0.15022523E+03</totfact>
</mgrwt>
</event>
<event>
 5    1  0.1451195E-002  0.1250007E+03  0.7818608E-02  0.1235068E+00
          4   -1    0    0  501    0  0.00000000000E+00  0.00000000000E+00  0.98309995807E+03  0.98310077838E+03  0.12700000000E+01 0. -1.
         -4   -1    0    0    0  501 -0.00000000000E+00 -0.00000000000E+00 -0.38711211514E+01  0.40741230920E+01  0.12700000000E+01 0. -1.
         25    2    1    2    0    0  0.00000000000E+00  0.00000000000E+00  0.97922883691E+03  0.98717490147E+03  0.12500068419E+03 0.  0.
    9000005    1    3    3    0    0 -0.52578430112E+02  0.33361509128E+02  0.53126214035E+03  0.53489993772E+03  0.10000000000E+01 0.  0.
    9000005    1    3    3    0    0  0.52578430112E+02 -0.33361509128E+02  0.44796669656E+03  0.45227496375E+03  0.10000000000E+01 0.  0.
<mgrwt>
<rscale>  0 0.12500068E+03</rscale>
<asrwt>0</asrwt>
<pdfrwt beam="1">  1        4 0.24580049E+00 0.12500068E+03</pdfrwt>
<pdfrwt beam="2">  1       -4 0.99325797E-03 0.12500068E+03</pdfrwt>
<totfact> 0.37978211E+02</totfact>
</mgrwt>
</event>
<event>
 5    1  0.1451195E-002  0.1250004E+03  0.7818608E-02  0.1235069E+00
         -4   -1    0    0    0  501 -0.00000000000E+00  0.00000000000E+00  0.18491984586E+03  0.18492420689E+03  0.12700000000E+01 0.  1.
          4   -1    0    0  501    0  0.00000000000E+00 -0.00000000000E+00 -0.21100461648E+02  0.21138646639E+02  0.12700000000E+01 0.  1.
         25    2    1    2    0    0  0.00000000000E+00  0.00000000000E+00  0.16381938421E+03  0.20606285353E+03  0.12500043584E+03 0.  0.
    9000005    1    3    3    0    0 -0.32368491624E+02 -0.30452076838E+02  0.15433537539E+03  0.16060963959E+03  0.10000000000E+01 0.  0.
    9000005    1    3    3    0    0  0.32368491624E+02  0.30452076838E+02  0.94840088272E+01  0.45453213937E+02  0.10000000000E+01 0.  0.
<mgrwt>
<rscale>  0 0.12500044E+03</rscale>
<asrwt>0</asrwt>
<pdfrwt beam="2">  1        4 0.52804338E-02 0.12500044E+03</pdfrwt>
<pdfrwt beam="1">  1       -4 0.46235279E-01 0.12500044E+03</pdfrwt>
<totfact> 0.16081958E+03</totfact>
</mgrwt>
</event>
<event>
 5    1  0.1451195E-002  0.1249976E+03  0.7818608E-02  0.1235073E+00
         -4   -1    0    0    0  501 -0.00000000000E+00  0.00000000000E+00  0.89846149789E+01  0.90739300371E+01  0.12700000000E+01 0.  1.
          4   -1    0    0  501    0  0.00000000000E+00 -0.00000000000E+00 -0.43251383693E+03  0.43251570149E+03  0.12700000000E+01 0.  1.
         25    2    1    2    0    0  0.00000000000E+00  0.00000000000E+00 -0.42352922195E+03  0.44158963153E+03  0.12499760328E+03 0.  0.
    9000005    1    3    3    0    0  0.38303716505E+02 -0.38031726443E+02 -0.32300601256E+03  0.32748659678E+03  0.10000000000E+01 0.  0.
    9000005    1    3    3    0    0 -0.38303716505E+02  0.38031726443E+02 -0.10052320938E+03  0.11410303475E+03  0.10000000000E+01 0.  0.
<mgrwt>
<rscale>  0 0.12499760E+03</rscale>
<asrwt>0</asrwt>
<pdfrwt beam="2">  1        4 0.10813979E+00 0.12499760E+03</pdfrwt>
<pdfrwt beam="1">  1       -4 0.22575526E-02 0.12499760E+03</pdfrwt>
<totfact> 0.97552179E+02</totfact>
</mgrwt>
</event>
<event>
 5    1  0.1451195E-002  0.1250002E+03  0.7818608E-02  0.1235069E+00
          4   -1    0    0  501    0  0.00000000000E+00  0.00000000000E+00  0.31199711654E+02  0.31225548951E+02  0.12700000000E+01 0.  1.
         -4   -1    0    0    0  501 -0.00000000000E+00 -0.00000000000E+00 -0.12512103473E+03  0.12512747993E+03  0.12700000000E+01 0.  1.
         25    2    1    2    0    0  0.00000000000E+00  0.00000000000E+00 -0.93921323080E+02  0.15635302888E+03  0.12500021884E+03 0.  0.
    9000005    1    3    3    0    0  0.51524993765E+02 -0.31821356457E+02 -0.66250915470E+02  0.89764177208E+02  0.10000000000E+01 0.  0.
    9000005    1    3    3    0    0 -0.51524993765E+02  0.31821356457E+02 -0.27670407609E+02  0.66588851668E+02  0.10000000000E+01 0.  0.
<mgrwt>
<rscale>  0 0.12500022E+03</rscale>
<asrwt>0</asrwt>
<pdfrwt beam="1">  1        4 0.78039635E-02 0.12500022E+03</pdfrwt>
<pdfrwt beam="2">  1       -4 0.31284293E-01 0.12500022E+03</pdfrwt>
<totfact> 0.18230656E+03</totfact>
</mgrwt>
</event>
<event>
 5    1  0.1451195E-002  0.1249975E+03  0.7818608E-02  0.1235073E+00
          4   -1    0    0  501    0  0.00000000000E+00  0.00000000000E+00  0.31588164474E+03  0.31588419774E+03  0.12700000000E+01 0.  1.
         -4   -1    0    0    0  501 -0.00000000000E+00 -0.00000000000E+00 -0.12330460030E+02  0.12395690564E+02  0.12700000000E+01 0.  1.
         25    2    1    2    0    0  0.00000000000E+00  0.00000000000E+00  0.30355118471E+03  0.32827988831E+03  0.12499745329E+03 0.  0.
    9000005    1    3    3    0    0 -0.54518636600E+02  0.30160714189E+02  0.16440923774E+03  0.17582192091E+03  0.10000000000E+01 0.  0.
    9000005    1    3    3    0    0  0.54518636600E+02 -0.30160714189E+02  0.13914194697E+03  0.15245796740E+03  0.10000000000E+01 0.  0.
<mgrwt>
<rscale>  0 0.12499745E+03</rscale>
<asrwt>0</asrwt>
<pdfrwt beam="1">  1        4 0.78978883E-01 0.12499745E+03</pdfrwt>
<pdfrwt beam="2">  1       -4 0.30910880E-02 0.12499745E+03</pdfrwt>
<totfact> 0.12214617E+03</totfact>
</mgrwt>
</event>
<event>
 5    1  0.1451195E-002  0.1250000E+03  0.7818608E-02  0.1235069E+00
          4   -1    0    0  501    0  0.00000000000E+00  0.00000000000E+00  0.19714606351E+03  0.19715015409E+03  0.12700000000E+01 0. -1.
         -4   -1    0    0    0  501 -0.00000000000E+00 -0.00000000000E+00 -0.19789341257E+02  0.19830051120E+02  0.12700000000E+01 0. -1.
         25    2    1    2    0    0  0.00000000000E+00  0.00000000000E+00  0.17735672225E+03  0.21698020521E+03  0.12500001010E+03 0.  0.
    9000005    1    3    3    0    0  0.99393321730E+01 -0.28401620846E+02  0.18375127711E+03  0.18620143456E+03  0.10000000000E+01 0.  0.
    9000005    1    3    3    0    0 -0.99393321730E+01  0.28401620846E+02 -0.63945548633E+01  0.30778770648E+02  0.10000000000E+01 0.  0.
<mgrwt>
<rscale>  0 0.12500001E+03</rscale>
<asrwt>0</asrwt>
<pdfrwt beam="1">  1        4 0.49292116E-01 0.12500001E+03</pdfrwt>
<pdfrwt beam="2">  1       -4 0.49529354E-02 0.12500001E+03</pdfrwt>
<totfact> 0.15663969E+03</totfact>
</mgrwt>
</event>
<event>
 5    1  0.1451195E-002  0.1249986E+03  0.7818608E-02  0.1235072E+00
         -4   -1    0    0    0  501 -0.00000000000E+00  0.00000000000E+00  0.20225689150E+03  0.20226087872E+03  0.12700000000E+01 0.  1.
          4   -1    0    0  501    0  0.00000000000E+00 -0.00000000000E+00 -0.19287801878E+02  0.19329568058E+02  0.12700000000E+01 0.  1.
         25    2    1    2    0    0  0.00000000000E+00  0.00000000000E+00  0.18296908962E+03  0.22159044678E+03  0.12499855337E+03 0.  0.
    9000005    1    3    3    0    0 -0.27958327572E+02  0.52216286764E+02  0.56165053269E+02  0.81631623117E+02  0.10000000000E+01 0.  0.
    9000005    1    3    3    0    0  0.27958327572E+02 -0.52216286764E+02  0.12680403636E+03  0.13995882366E+03  0.10000000000E+01 0.  0.
<mgrwt>
<rscale>  0 0.12499855E+03</rscale>
<asrwt>0</asrwt>
<pdfrwt beam="2">  1        4 0.48276697E-02 0.12499855E+03</pdfrwt>
<pdfrwt beam="1">  1       -4 0.50569942E-01 0.12499855E+03</pdfrwt>
<totfact> 0.15493049E+03</totfact>
</mgrwt>
</event>
<event>
 5    1  0.1451195E-002  0.1249992E+03  0.7818608E-02  0.1235071E+00
         -4   -1    0    0    0  501 -0.00000000000E+00  0.00000000000E+00  0.15176421037E+02  0.15229466684E+02  0.12700000000E+01 0. -1.
          4   -1    0    0  501    0  0.00000000000E+00 -0.00000000000E+00 -0.25688240453E+03  0.25688554389E+03  0.12700000000E+01 0. -1.
         25    2    1    2    0    0  0.00000000000E+00  0.00000000000E+00 -0.24170598350E+03  0.27211501057E+03  0.12499918608E+03 0.  0.
    9000005    1    3    3    0    0 -0.39430187556E+02  0.17813577551E+02 -0.21901162845E+03  0.22324685134E+03  0.10000000000E+01 0.  0.
    9000005    1    3    3    0    0  0.39430187556E+02 -0.17813577551E+02 -0.22694355044E+02  0.48868159232E+02  0.10000000000E+01 0.  0.
<mgrwt>
<rscale>  0 0.12499919E+03</rscale>
<asrwt>0</asrwt>
<pdfrwt beam="2">  1        4 0.64227610E-01 0.12499919E+03</pdfrwt>
<pdfrwt beam="1">  1       -4 0.38011292E-02 0.12499919E+03</pdfrwt>
<totfact> 0.13790479E+03</totfact>
</mgrwt>
</event>
<event>
 5    1  0.1451195E-002  0.1250032E+03  0.7818608E-02  0.1235064E+00
         -4   -1    0    0    0  501 -0.00000000000E+00  0.00000000000E+00  0.84997842294E+02  0.85007329652E+02  0.12700000000E+01 0. -1.
          4   -1    0    0  501    0  0.00000000000E+00 -0.00000000000E+00 -0.45938550538E+02  0.45956102158E+02  0.12700000000E+01 0. -1.
         25    2    1    2    0    0  0.00000000000E+00  0.00000000000E+00  0.39059291756E+02  0.13096343181E+03  0.12500316876E+03 0.  0.
    9000005    1    3    3    0    0  0.15681458805E+02  0.47838238381E+02 -0.19263458820E+02  0.53911835874E+02  0.10000000000E+01 0.  0.
    9000005    1    3    3    0    0 -0.15681458805E+02 -0.47838238381E+02  0.58322750575E+02  0.77051595936E+02  0.10000000000E+01 0.  0.
<mgrwt>
<rscale>  0 0.12500317E+03</rscale>
<asrwt>0</asrwt>
<pdfrwt beam="2">  1        4 0.11488018E-01 0.12500317E+03</pdfrwt>
<pdfrwt beam="1">  1       -4 0.21252840E-01 0.12500317E+03</pdfrwt>
<totfact> 0.19511286E+03</totfact>
</mgrwt>
</event>
<event>
 5    1  0.1451195E-002  0.1250010E+03  0.7818608E-02  0.1235068E+00
         -4   -1    0    0    0  501 -0.00000000000E+00  0.00000000000E+00  0.22215046980E+03  0.22215409997E+03  0.12700000000E+01 0. -1.
          4   -1    0    0  501    0  0.00000000000E+00 -0.00000000000E+00 -0.17557381065E+02  0.17603253389E+02  0.12700000000E+01 0. -1.
         25    2    1    2    0    0  0.00000000000E+00  0.00000000000E+00  0.20459308874E+03  0.23975735336E+03  0.12500102612E+03 0.  0.
    9000005    1    3    3    0    0  0.44393327714E+02  0.32945618521E+02  0.46404992516E+02  0.72184518116E+02  0.10000000000E+01 0.  0.
    9000005    1    3    3    0    0 -0.44393327714E+02 -0.32945618521E+02  0.15818809622E+03  0.16757283524E+03  0.10000000000E+01 0.  0.
<mgrwt>
<rscale>  0 0.12500103E+03</rscale>
<asrwt>0</asrwt>
<pdfrwt beam="2">  1        4 0.43955331E-02 0.12500103E+03</pdfrwt>
<pdfrwt beam="1">  1       -4 0.55543805E-01 0.12500103E+03</pdfrwt>
<totfact> 0.14844464E+03</totfact>
</mgrwt>
</event>
<event>
 5    1  0.1451195E-002  0.1249990E+03  0.7818608E-02  0.1235071E+00
          4   -1    0    0  501    0  0.00000000000E+00  0.00000000000E+00  0.10481978675E+03  0.10482748014E+03  0.12700000000E+01 0. -1.
         -4   -1    0    0    0  501 -0.00000000000E+00 -0.00000000000E+00 -0.37245878803E+02  0.37267524573E+02  0.12700000000E+01 0. -1.
         25    2    1    2    0    0  0.00000000000E+00  0.00000000000E+00  0.67573907943E+02  0.14209500472E+03  0.12499902932E+03 0.  0.
    9000005    1    3    3    0    0 -0.89955833540E+01 -0.61054919074E+02  0.44957735259E+02  0.76359816806E+02  0.10000000000E+01 0.  0.
    9000005    1    3    3    0    0  0.89955833540E+01  0.61054919074E+02  0.22616172684E+02  0.65735187912E+02  0.10000000000E+01 0.  0.
<mgrwt>
<rscale>  0 0.12499903E+03</rscale>
<asrwt>0</asrwt>
<pdfrwt beam="1">  1        4 0.26208614E-01 0.12499903E+03</pdfrwt>
<pdfrwt beam="2">  1       -4 0.93151373E-02 0.12499903E+03</pdfrwt>
<totfact> 0.18934102E+03</totfact>
</mgrwt>
</event>
<event>
 5    1  0.1451195E-002  0.1250016E+03  0.7818608E-02  0.1235067E+00
          4   -1    0    0  501    0  0.00000000000E+00  0.00000000000E+00  0.93355741223E+02  0.93364379286E+02  0.12700000000E+01 0.  1.
         -4   -1    0    0    0  501 -0.00000000000E+00 -0.00000000000E+00 -0.41823497173E+02  0.41842774953E+02  0.12700000000E+01 0.  1.
         25    2    1    2    0    0  0.00000000000E+00  0.00000000000E+00  0.51532244050E+02  0.13520715424E+03  0.12500160951E+03 0.  0.
    9000005    1    3    3    0    0  0.99910232446E+01 -0.52565624836E+02 -0.91558027029E+01  0.54293592467E+02  0.10000000000E+01 0.  0.
    9000005    1    3    3    0    0 -0.99910232446E+01  0.52565624836E+02  0.60688046753E+02  0.80913561772E+02  0.10000000000E+01 0.  0.
<mgrwt>
<rscale>  0 0.12500161E+03</rscale>
<asrwt>0</asrwt>
<pdfrwt beam="1">  1        4 0.23342425E-01 0.12500161E+03</pdfrwt>
<pdfrwt beam="2">  1       -4 0.10459364E-01 0.12500161E+03</pdfrwt>
<totfact> 0.19287568E+03</totfact>
</mgrwt>
</event>
<event>
 5    1  0.1451195E-002  0.1249982E+03  0.7818608E-02  0.1235072E+00
         -4   -1    0    0    0  501 -0.00000000000E+00  0.00000000000E+00  0.17148116299E+03  0.17148586577E+03  0.12700000000E+01 0. -1.
          4   -1    0    0  501    0  0.00000000000E+00 -0.00000000000E+00 -0.22756075263E+02  0.22791486598E+02  0.12700000000E+01 0. -1.
         25    2    1    2    0    0  0.00000000000E+00  0.00000000000E+00  0.14872508773E+03  0.19427735237E+03  0.12499815169E+03 0.  0.
    9000005    1    3    3    0    0 -0.38420924007E+02 -0.21405705244E+02  0.14336042750E+03  0.14995860693E+03  0.10000000000E+01 0.  0.
    9000005    1    3    3    0    0  0.38420924007E+02  0.21405705244E+02  0.53646602276E+01  0.44318745446E+02  0.10000000000E+01 0.  0.
<mgrwt>
<rscale>  0 0.12499815E+03</rscale>
<asrwt>0</asrwt>
<pdfrwt beam="2">  1        4 0.56940332E-02 0.12499815E+03</pdfrwt>
<pdfrwt beam="1">  1       -4 0.42875304E-01 0.12499815E+03</pdfrwt>
<totfact> 0.16554487E+03</totfact>
</mgrwt>
</event>
<event>
 5    1  0.1451195E-002  0.1249986E+03  0.7818608E-02  0.1235072E+00
          4   -1    0    0  501    0  0.00000000000E+00  0.00000000000E+00  0.46022441613E+02  0.46039961252E+02  0.12700000000E+01 0.  1.
         -4   -1    0    0    0  501 -0.00000000000E+00 -0.00000000000E+00 -0.84836690851E+02  0.84846196229E+02  0.12700000000E+01 0.  1.
         25    2    1    2    0    0  0.00000000000E+00  0.00000000000E+00 -0.38814249238E+02  0.13088615748E+03  0.12499856110E+03 0.  0.
    9000005    1    3    3    0    0  0.42265667378E+02  0.45196322753E+02 -0.28539495413E+02  0.68151280455E+02  0.10000000000E+01 0.  0.
    9000005    1    3    3    0    0 -0.42265667378E+02 -0.45196322753E+02 -0.10274753825E+02  0.62734877025E+02  0.10000000000E+01 0.  0.
<mgrwt>
<rscale>  0 0.12499856E+03</rscale>
<asrwt>0</asrwt>
<pdfrwt beam="1">  1        4 0.11508989E-01 0.12499856E+03</pdfrwt>
<pdfrwt beam="2">  1       -4 0.21212551E-01 0.12499856E+03</pdfrwt>
<totfact> 0.19517517E+03</totfact>
</mgrwt>
</event>
<event>
 5    1  0.1451195E-002  0.1250243E+03  0.7818608E-02  0.1235031E+00
         -4   -1    0    0    0  501 -0.00000000000E+00  0.00000000000E+00  0.52768891431E+02  0.52784171897E+02  0.12700000000E+01 0.  1.
          4   -1    0    0  501    0  0.00000000000E+00 -0.00000000000E+00 -0.74022969219E+02  0.74033863009E+02  0.12700000000E+01 0.  1.
         25    2    1    2    0    0  0.00000000000E+00  0.00000000000E+00 -0.21254077788E+02  0.12681803491E+03  0.12502431025E+03 0.  0.
    9000005    1    3    3    0    0  0.34889699809E+02  0.21097185198E+02  0.37427613494E+02  0.55355294489E+02  0.10000000000E+01 0.  0.
    9000005    1    3    3    0    0 -0.34889699809E+02 -0.21097185198E+02 -0.58681691283E+02  0.71462740417E+02  0.10000000000E+01 0.  0.
<mgrwt>
<rscale>  0 0.12502431E+03</rscale>
<asrwt>0</asrwt>
<pdfrwt beam="2">  1        4 0.18509014E-01 0.12502431E+03</pdfrwt>
<pdfrwt beam="1">  1       -4 0.13195495E-01 0.12502431E+03</pdfrwt>
<totfact> 0.19725562E+03</totfact>
</mgrwt>
</event>
<event>
 5    1  0.1451195E-002  0.1250030E+03  0.7818608E-02  0.1235065E+00
         -4   -1    0    0    0  501 -0.00000000000E+00  0.00000000000E+00  0.14132666273E+03  0.14133236890E+03  0.12700000000E+01 0.  1.
          4   -1    0    0  501    0  0.00000000000E+00 -0.00000000000E+00 -0.27620329780E+02  0.27649512060E+02  0.12700000000E+01 0.  1.
         25    2    1    2    0    0  0.00000000000E+00  0.00000000000E+00  0.11370633295E+03  0.16898188096E+03  0.12500298372E+03 0.  0.
    9000005    1    3    3    0    0 -0.68761521599E+01 -0.47698720359E+02  0.30685040160E+01  0.48299742332E+02  0.10000000000E+01 0.  0.
    9000005    1    3    3    0    0  0.68761521599E+01  0.47698720359E+02  0.11063782894E+03  0.12068213863E+03  0.10000000000E+01 0.  0.
<mgrwt>
<rscale>  0 0.12500298E+03</rscale>
<asrwt>0</asrwt>
<pdfrwt beam="2">  1        4 0.69094437E-02 0.12500298E+03</pdfrwt>
<pdfrwt beam="1">  1       -4 0.35336026E-01 0.12500298E+03</pdfrwt>
<totfact> 0.17641845E+03</totfact>
</mgrwt>
</event>
<event>
 5    1  0.1451195E-002  0.1250032E+03  0.7818608E-02  0.1235064E+00
          4   -1    0    0  501    0  0.00000000000E+00  0.00000000000E+00  0.49467608209E+01  0.51071853911E+01  0.12700000000E+01 0.  1.
         -4   -1    0    0    0  501 -0.00000000000E+00 -0.00000000000E+00 -0.77693742586E+03  0.77693846384E+03  0.12700000000E+01 0.  1.
         25    2    1    2    0    0  0.00000000000E+00  0.00000000000E+00 -0.77199066504E+03  0.78204564923E+03  0.12500324229E+03 0.  0.
    9000005    1    3    3    0    0  0.34226522937E+02  0.12602987297E+02 -0.70347297373E+03  0.70441856515E+03  0.10000000000E+01 0.  0.
    9000005    1    3    3    0    0 -0.34226522937E+02 -0.12602987297E+02 -0.68517691305E+02  0.77627084081E+02  0.10000000000E+01 0.  0.
<mgrwt>
<rscale>  0 0.12500324E+03</rscale>
<asrwt>0</asrwt>
<pdfrwt beam="1">  1        4 0.12568757E-02 0.12500324E+03</pdfrwt>
<pdfrwt beam="2">  1       -4 0.19425413E+00 0.12500324E+03</pdfrwt>
<totfact> 0.54083672E+02</totfact>
</mgrwt>
</event>
<event>
 5    1  0.1451195E-002  0.1250588E+03  0.7818608E-02  0.1234977E+00
          4   -1    0    0  501    0  0.00000000000E+00  0.00000000000E+00  0.79125709971E+02  0.79135901324E+02  0.12700000000E+01 0. -1.
         -4   -1    0    0    0  501 -0.00000000000E+00 -0.00000000000E+00 -0.49392568145E+02  0.49408892803E+02  0.12700000000E+01 0. -1.
         25    2    1    2    0    0  0.00000000000E+00  0.00000000000E+00  0.29733141826E+02  0.12854479413E+03  0.12505880367E+03 0.  0.
    9000005    1    3    3    0    0 -0.16734424060E+02 -0.53823796328E+02 -0.12940892696E+02  0.57840372609E+02  0.10000000000E+01 0.  0.
    9000005    1    3    3    0    0  0.16734424060E+02  0.53823796328E+02  0.42674034522E+02  0.70704421518E+02  0.10000000000E+01 0.  0.
<mgrwt>
<rscale>  0 0.12505880E+03</rscale>
<asrwt>0</asrwt>
<pdfrwt beam="1">  1        4 0.19784742E-01 0.12505880E+03</pdfrwt>
<pdfrwt beam="2">  1       -4 0.12351457E-01 0.12505880E+03</pdfrwt>
<totfact> 0.19616007E+03</totfact>
</mgrwt>
</event>
<event>
 5    1  0.1451195E-002  0.1249989E+03  0.7818608E-02  0.1235071E+00
          4   -1    0    0  501    0  0.00000000000E+00  0.00000000000E+00  0.25537769123E+03  0.25538084909E+03  0.12700000000E+01 0.  1.
         -4   -1    0    0    0  501 -0.00000000000E+00 -0.00000000000E+00 -0.15266085582E+02  0.15318820744E+02  0.12700000000E+01 0.  1.
         25    2    1    2    0    0  0.00000000000E+00  0.00000000000E+00  0.24011160565E+03  0.27069966983E+03  0.12499891231E+03 0.  0.
    9000005    1    3    3    0    0  0.23655620721E+02  0.33155811225E+02  0.22269517784E+03  0.22639133916E+03  0.10000000000E+01 0.  0.
    9000005    1    3    3    0    0 -0.23655620721E+02 -0.33155811225E+02  0.17416427809E+02  0.44308330676E+02  0.10000000000E+01 0.  0.
<mgrwt>
<rscale>  0 0.12499891E+03</rscale>
<asrwt>0</asrwt>
<pdfrwt beam="1">  1        4 0.63851409E-01 0.12499891E+03</pdfrwt>
<pdfrwt beam="2">  1       -4 0.38235080E-02 0.12499891E+03</pdfrwt>
<totfact> 0.13834247E+03</totfact>
</mgrwt>
</event>
<event>
 5    1  0.1451195E-002  0.1249991E+03  0.7818608E-02  0.1235071E+00
         -4   -1    0    0    0  501 -0.00000000000E+00  0.00000000000E+00  0.11091684214E+03  0.11092411267E+03  0.12700000000E+01 0. -1.
          4   -1    0    0  501    0  0.00000000000E+00 -0.00000000000E+00 -0.35197460504E+02  0.35220365216E+02  0.12700000000E+01 0. -1.
         25    2    1    2    0    0  0.00000000000E+00  0.00000000000E+00  0.75719381638E+02  0.14614447788E+03  0.12499913464E+03 0.  0.
    9000005    1    3    3    0    0  0.59310422024E+02  0.16039355848E+02  0.51200912555E+02  0.79984501893E+02  0.10000000000E+01 0.  0.
    9000005    1    3    3    0    0 -0.59310422024E+02 -0.16039355848E+02  0.24518469083E+02  0.66159975989E+02  0.10000000000E+01 0.  0.
<mgrwt>
<rscale>  0 0.12499913E+03</rscale>
<asrwt>0</asrwt>
<pdfrwt beam="2">  1        4 0.88031371E-02 0.12499913E+03</pdfrwt>
<pdfrwt beam="1">  1       -4 0.27732982E-01 0.12499913E+03</pdfrwt>
<totfact> 0.18730373E+03</totfact>
</mgrwt>
</event>
<event>
 5    1  0.1451195E-002  0.1250029E+03  0.7818608E-02  0.1235065E+00
         -4   -1    0    0    0  501 -0.00000000000E+00  0.00000000000E+00  0.46837261739E+02  0.46854476704E+02  0.12700000000E+01 0. -1.
          4   -1    0    0  501    0  0.00000000000E+00 -0.00000000000E+00 -0.83367019949E+02  0.83376692878E+02  0.12700000000E+01 0. -1.
         25    2    1    2    0    0  0.00000000000E+00  0.00000000000E+00 -0.36529758210E+02  0.13023116958E+03  0.12500293715E+03 0.  0.
    9000005    1    3    3    0    0  0.31485612648E+02 -0.35954138933E+02 -0.60215502928E+02  0.76882707439E+02  0.10000000000E+01 0.  0.
    9000005    1    3    3    0    0 -0.31485612648E+02  0.35954138933E+02  0.23685744718E+02  0.53348462143E+02  0.10000000000E+01 0.  0.
<mgrwt>
<rscale>  0 0.12500294E+03</rscale>
<asrwt>0</asrwt>
<pdfrwt beam="2">  1        4 0.20845116E-01 0.12500294E+03</pdfrwt>
<pdfrwt beam="1">  1       -4 0.11712677E-01 0.12500294E+03</pdfrwt>
<totfact> 0.19550623E+03</totfact>
</mgrwt>
</event>
<event>
 5    1  0.1451195E-002  0.1249997E+03  0.7818608E-02  0.1235070E+00
         -4   -1    0    0    0  501 -0.00000000000E+00  0.00000000000E+00  0.13459861764E+02  0.13519644178E+02  0.12700000000E+01 0. -1.
          4   -1    0    0  501    0  0.00000000000E+00 -0.00000000000E+00 -0.28950889388E+03  0.28951167945E+03  0.12700000000E+01 0. -1.
         25    2    1    2    0    0  0.00000000000E+00  0.00000000000E+00 -0.27604903212E+03  0.30303132362E+03  0.12499965986E+03 0.  0.
    9000005    1    3    3    0    0  0.12380838749E+02 -0.43746731320E+02 -0.24196175664E+03  0.24619819932E+03  0.10000000000E+01 0.  0.
    9000005    1    3    3    0    0 -0.12380838749E+02  0.43746731320E+02 -0.34087275475E+02  0.56833124308E+02  0.10000000000E+01 0.  0.
<mgrwt>
<rscale>  0 0.12499966E+03</rscale>
<asrwt>0</asrwt>
<pdfrwt beam="2">  1        4 0.72385024E-01 0.12499966E+03</pdfrwt>
<pdfrwt beam="1">  1       -4 0.33727874E-02 0.12499966E+03</pdfrwt>
<totfact> 0.12886623E+03</totfact>
</mgrwt>
</event>
<event>
 5    1  0.1451195E-002  0.1250001E+03  0.7818608E-02  0.1235069E+00
         -4   -1    0    0    0  501 -0.00000000000E+00  0.00000000000E+00  0.18105150992E+03  0.18105596413E+03  0.12700000000E+01 0. -1.
          4   -1    0    0  501    0  0.00000000000E+00 -0.00000000000E+00 -0.21551967865E+02  0.21589354294E+02  0.12700000000E+01 0. -1.
         25    2    1    2    0    0  0.00000000000E+00  0.00000000000E+00  0.15949954206E+03  0.20264531842E+03  0.12500008464E+03 0.  0.
    9000005    1    3    3    0    0 -0.59275571442E+01 -0.36110234633E+02 -0.23740231683E+01  0.36684069635E+02  0.10000000000E+01 0.  0.
    9000005    1    3    3    0    0  0.59275571442E+01  0.36110234633E+02  0.16187356523E+03  0.16596124879E+03  0.10000000000E+01 0.  0.
<mgrwt>
<rscale>  0 0.12500008E+03</rscale>
<asrwt>0</asrwt>
<pdfrwt beam="2">  1        4 0.53932221E-02 0.12500008E+03</pdfrwt>
<pdfrwt beam="1">  1       -4 0.45268107E-01 0.12500008E+03</pdfrwt>
<totfact> 0.16216632E+03</totfact>
</mgrwt>
</event>
<event>
 5    1  0.1451195E-002  0.1250034E+03  0.7818608E-02  0.1235064E+00
         -4   -1    0    0    0  501 -0.00000000000E+00  0.00000000000E+00  0.29057658608E+03  0.29057936141E+03  0.12700000000E+01 0.  1.
          4   -1    0    0  501    0  0.00000000000E+00 -0.00000000000E+00 -0.13410982382E+02  0.13470981718E+02  0.12700000000E+01 0.  1.
         25    2    1    2    0    0  0.00000000000E+00  0.00000000000E+00  0.27716560369E+03  0.30405034313E+03  0.12500335709E+03 0.  0.
    9000005    1    3    3    0    0 -0.15503497682E+02  0.45380049374E+02  0.41114561714E+02  0.63175268155E+02  0.10000000000E+01 0.  0.
    9000005    1    3    3    0    0  0.15503497682E+02 -0.45380049374E+02  0.23605104198E+03  0.24087507497E+03  0.10000000000E+01 0.  0.
<mgrwt>
<rscale>  0 0.12500336E+03</rscale>
<asrwt>0</asrwt>
<pdfrwt beam="2">  1        4 0.33605924E-02 0.12500336E+03</pdfrwt>
<pdfrwt beam="1">  1       -4 0.72651994E-01 0.12500336E+03</pdfrwt>
<totfact> 0.12857304E+03</totfact>
</mgrwt>
</event>
<event>
 5    1  0.1451195E-002  0.1250066E+03  0.7818608E-02  0.1235059E+00
          4   -1    0    0  501    0  0.00000000000E+00  0.00000000000E+00  0.31289127457E+02  0.31314890978E+02  0.12700000000E+01 0.  1.
         -4   -1    0    0    0  501 -0.00000000000E+00 -0.00000000000E+00 -0.12477647266E+03  0.12478293565E+03  0.12700000000E+01 0.  1.
         25    2    1    2    0    0  0.00000000000E+00  0.00000000000E+00 -0.93487345208E+02  0.15609782663E+03  0.12500659089E+03 0.  0.
    9000005    1    3    3    0    0  0.57923437380E+02  0.73596010088E+01 -0.74564387755E+02  0.94710803218E+02  0.10000000000E+01 0.  0.
    9000005    1    3    3    0    0 -0.57923437380E+02 -0.73596010088E+01 -0.18922957452E+02  0.61387023414E+02  0.10000000000E+01 0.  0.
<mgrwt>
<rscale>  0 0.12500659E+03</rscale>
<asrwt>0</asrwt>
<pdfrwt beam="1">  1        4 0.78263105E-02 0.12500659E+03</pdfrwt>
<pdfrwt beam="2">  1       -4 0.31198145E-01 0.12500659E+03</pdfrwt>
<totfact> 0.18240162E+03</totfact>
</mgrwt>
</event>
<event>
 5    1  0.1451195E-002  0.1249977E+03  0.7818608E-02  0.1235073E+00
          4   -1    0    0  501    0  0.00000000000E+00  0.00000000000E+00  0.33227786717E+02  0.33252048209E+02  0.12700000000E+01 0. -1.
         -4   -1    0    0    0  501 -0.00000000000E+00 -0.00000000000E+00 -0.11748490159E+03  0.11749176567E+03  0.12700000000E+01 0. -1.
         25    2    1    2    0    0  0.00000000000E+00  0.00000000000E+00 -0.84257114869E+02  0.15074381388E+03  0.12499774405E+03 0.  0.
    9000005    1    3    3    0    0  0.61678439593E+02  0.98492198846E+01 -0.44501585259E+02  0.76698292898E+02  0.10000000000E+01 0.  0.
    9000005    1    3    3    0    0 -0.61678439593E+02 -0.98492198846E+01 -0.39755529611E+02  0.74045520983E+02  0.10000000000E+01 0.  0.
<mgrwt>
<rscale>  0 0.12499774E+03</rscale>
<asrwt>0</asrwt>
<pdfrwt beam="1">  1        4 0.83108377E-02 0.12499774E+03</pdfrwt>
<pdfrwt beam="2">  1       -4 0.29375115E-01 0.12499774E+03</pdfrwt>
<totfact> 0.18503239E+03</totfact>
</mgrwt>
</event>
<event>
 5    1  0.1451195E-002  0.1249766E+03  0.7818608E-02  0.1235106E+00
         -4   -1    0    0    0  501 -0.00000000000E+00  0.00000000000E+00  0.21189151895E+03  0.21189532487E+03  0.12700000000E+01 0. -1.
          4   -1    0    0  501    0  0.00000000000E+00 -0.00000000000E+00 -0.18402371727E+02  0.18446142826E+02  0.12700000000E+01 0. -1.
         25    2    1    2    0    0  0.00000000000E+00  0.00000000000E+00  0.19348914722E+03  0.23034146770E+03  0.12497656440E+03 0.  0.
    9000005    1    3    3    0    0  0.54452450577E+02  0.30503954683E+02  0.10203031455E+03  0.11961080935E+03  0.10000000000E+01 0.  0.
    9000005    1    3    3    0    0 -0.54452450577E+02 -0.30503954683E+02  0.91458832665E+02  0.11073065835E+03  0.10000000000E+01 0.  0.
<mgrwt>
<rscale>  0 0.12497656E+03</rscale>
<asrwt>0</asrwt>
<pdfrwt beam="2">  1        4 0.46065400E-02 0.12497656E+03</pdfrwt>
<pdfrwt beam="1">  1       -4 0.52978827E-01 0.12497656E+03</pdfrwt>
<totfact> 0.15183318E+03</totfact>
</mgrwt>
</event>
<event>
 5    1  0.1451195E-002  0.1250004E+03  0.7818608E-02  0.1235069E+00
         -4   -1    0    0    0  501 -0.00000000000E+00  0.00000000000E+00  0.65821110400E+02  0.65833361408E+02  0.12700000000E+01 0. -1.
          4   -1    0    0  501    0  0.00000000000E+00 -0.00000000000E+00 -0.59322313015E+02  0.59335905837E+02  0.12700000000E+01 0. -1.
         25    2    1    2    0    0  0.00000000000E+00  0.00000000000E+00  0.64987973847E+01  0.12516926724E+03  0.12500044438E+03 0.  0.
    9000005    1    3    3    0    0  0.13063455766E+01  0.33260336751E+02  0.56210538582E+02  0.65334379826E+02  0.10000000000E+01 0.  0.
    9000005    1    3    3    0    0 -0.13063455766E+01 -0.33260336751E+02 -0.49711741197E+02  0.59834887419E+02  0.10000000000E+01 0.  0.
<mgrwt>
<rscale>  0 0.12500044E+03</rscale>
<asrwt>0</asrwt>
<pdfrwt beam="2">  1        4 0.14833809E-01 0.12500044E+03</pdfrwt>
<pdfrwt beam="1">  1       -4 0.16458508E-01 0.12500044E+03</pdfrwt>
<totfact> 0.19825672E+03</totfact>
</mgrwt>
</event>
<event>
 5    1  0.1451195E-002  0.1249914E+03  0.7818608E-02  0.1235083E+00
         -4   -1    0    0    0  501 -0.00000000000E+00  0.00000000000E+00  0.21857680311E+02  0.21894544722E+02  0.12700000000E+01 0. -1.
          4   -1    0    0  501    0  0.00000000000E+00 -0.00000000000E+00 -0.17849867602E+03  0.17850319392E+03  0.12700000000E+01 0. -1.
         25    2    1    2    0    0  0.00000000000E+00  0.00000000000E+00 -0.15664099571E+03  0.20039773865E+03  0.12499140817E+03 0.  0.
    9000005    1    3    3    0    0  0.23748622649E+02 -0.54918673380E+02 -0.10720892396E+03  0.12277952248E+03  0.10000000000E+01 0.  0.
    9000005    1    3    3    0    0 -0.23748622649E+02  0.54918673380E+02 -0.49432071752E+02  0.77618216169E+02  0.10000000000E+01 0.  0.
<mgrwt>
<rscale>  0 0.12499141E+03</rscale>
<asrwt>0</asrwt>
<pdfrwt beam="2">  1        4 0.44629837E-01 0.12499141E+03</pdfrwt>
<pdfrwt beam="1">  1       -4 0.54695934E-02 0.12499141E+03</pdfrwt>
<totfact> 0.16309368E+03</totfact>
</mgrwt>
</event>
<event>
 5    1  0.1451195E-002  0.1250006E+03  0.7818608E-02  0.1235068E+00
          4   -1    0    0  501    0  0.00000000000E+00  0.00000000000E+00  0.15389640682E+02  0.15441953903E+02  0.12700000000E+01 0. -1.
         -4   -1    0    0    0  501 -0.00000000000E+00 -0.00000000000E+00 -0.25334137586E+03  0.25334455909E+03  0.12700000000E+01 0. -1.
         25    2    1    2    0    0  0.00000000000E+00  0.00000000000E+00 -0.23795173518E+03  0.26878651300E+03  0.12500064518E+03 0.  0.
    9000005    1    3    3    0    0  0.29113686370E+02  0.34230167444E+01 -0.23765046939E+03  0.23945368942E+03  0.10000000000E+01 0.  0.
    9000005    1    3    3    0    0 -0.29113686370E+02 -0.34230167444E+01 -0.30126578821E+00  0.29332823573E+02  0.10000000000E+01 0.  0.
<mgrwt>
<rscale>  0 0.12500065E+03</rscale>
<asrwt>0</asrwt>
<pdfrwt beam="1">  1        4 0.38543480E-02 0.12500065E+03</pdfrwt>
<pdfrwt beam="2">  1       -4 0.63342268E-01 0.12500065E+03</pdfrwt>
<totfact> 0.13893083E+03</totfact>
</mgrwt>
</event>
<event>
 5    1  0.1451195E-002  0.1250029E+03  0.7818608E-02  0.1235065E+00
          4   -1    0    0  501    0  0.00000000000E+00  0.00000000000E+00  0.29185552866E+02  0.29213171620E+02  0.12700000000E+01 0.  1.
         -4   -1    0    0    0  501 -0.00000000000E+00 -0.00000000000E+00 -0.13375410269E+03  0.13376013191E+03  0.12700000000E+01 0.  1.
         25    2    1    2    0    0  0.00000000000E+00  0.00000000000E+00 -0.10456854983E+03  0.16297330353E+03  0.12500286416E+03 0.  0.
    9000005    1    3    3    0    0 -0.42090698095E+02  0.38267476747E+02 -0.18552427462E+02  0.59843288741E+02  0.10000000000E+01 0.  0.
    9000005    1    3    3    0    0  0.42090698095E+02 -0.38267476747E+02 -0.86016122365E+02  0.10313001478E+03  0.10000000000E+01 0.  0.
<mgrwt>
<rscale>  0 0.12500286E+03</rscale>
<asrwt>0</asrwt>
<pdfrwt beam="1">  1        4 0.73005946E-02 0.12500286E+03</pdfrwt>
<pdfrwt beam="2">  1       -4 0.33442730E-01 0.12500286E+03</pdfrwt>
<totfact> 0.17917525E+03</totfact>
</mgrwt>
</event>
<event>
 5    1  0.1451195E-002  0.1250051E+03  0.7818608E-02  0.1235061E+00
          4   -1    0    0  501    0  0.00000000000E+00  0.00000000000E+00  0.72434112978E+01  0.73539042168E+01  0.12700000000E+01 0. -1.
         -4   -1    0    0    0  501 -0.00000000000E+00 -0.00000000000E+00 -0.53513332398E+03  0.53513483099E+03  0.12700000000E+01 0. -1.
         25    2    1    2    0    0  0.00000000000E+00  0.00000000000E+00 -0.52788991268E+03  0.54248873520E+03  0.12500507154E+03 0.  0.
    9000005    1    3    3    0    0 -0.60189019642E+02  0.16127271870E+02 -0.24324119927E+03  0.25109776583E+03  0.10000000000E+01 0.  0.
    9000005    1    3    3    0    0  0.60189019642E+02 -0.16127271870E+02 -0.28464871341E+03  0.29139096937E+03  0.10000000000E+01 0.  0.
<mgrwt>
<rscale>  0 0.12500507E+03</rscale>
<asrwt>0</asrwt>
<pdfrwt beam="1">  1        4 0.18248546E-02 0.12500507E+03</pdfrwt>
<pdfrwt beam="2">  1       -4 0.13379720E+00 0.12500507E+03</pdfrwt>
<totfact> 0.81213812E+02</totfact>
</mgrwt>
</event>
<event>
 5    1  0.1451195E-002  0.1249937E+03  0.7818608E-02  0.1235079E+00
         -4   -1    0    0    0  501 -0.00000000000E+00  0.00000000000E+00  0.30296804161E+02  0.30323410797E+02  0.12700000000E+01 0.  1.
          4   -1    0    0  501    0  0.00000000000E+00 -0.00000000000E+00 -0.12883337155E+03  0.12883963103E+03  0.12700000000E+01 0.  1.
         25    2    1    2    0    0  0.00000000000E+00  0.00000000000E+00 -0.98536567385E+02  0.15916304183E+03  0.12499367493E+03 0.  0.
    9000005    1    3    3    0    0  0.29552070721E+02  0.33792400162E+02 -0.10462107625E+03  0.11384999248E+03  0.10000000000E+01 0.  0.
    9000005    1    3    3    0    0 -0.29552070721E+02 -0.33792400162E+02  0.60845088665E+01  0.45313049343E+02  0.10000000000E+01 0.  0.
<mgrwt>
<rscale>  0 0.12499367E+03</rscale>
<asrwt>0</asrwt>
<pdfrwt beam="2">  1        4 0.32212450E-01 0.12499367E+03</pdfrwt>
<pdfrwt beam="1">  1       -4 0.75783096E-02 0.12499367E+03</pdfrwt>
<totfact> 0.18099875E+03</totfact>
</mgrwt>
</event>
<event>
 5    1  0.1451195E-002  0.1250059E+03  0.7818608E-02  0.1235060E+00
          4   -1    0    0  501    0  0.00000000000E+00  0.00000000000E+00  0.33746343031E+03  0.33746582004E+03  0.12700000000E+01 0. -1.
         -4   -1    0    0    0  501 -0.00000000000E+00 -0.00000000000E+00 -0.11539152332E+02  0.11608830111E+02  0.12700000000E+01 0. -1.
         25    2    1    2    0    0  0.00000000000E+00  0.00000000000E+00  0.32592427798E+03  0.34907465016E+03  0.12500590548E+03 0.  0.
    9000005    1    3    3    0    0  0.10301585574E+02  0.57915577491E+02  0.10403633634E+03  0.11951943801E+03  0.10000000000E+01 0.  0.
    9000005    1    3    3    0    0 -0.10301585574E+02 -0.57915577491E+02  0.22188794164E+03  0.22955521215E+03  0.10000000000E+01 0.  0.
<mgrwt>
<rscale>  0 0.12500591E+03</rscale>
<asrwt>0</asrwt>
<pdfrwt beam="1">  1        4 0.84374868E-01 0.12500591E+03</pdfrwt>
<pdfrwt beam="2">  1       -4 0.28937965E-02 0.12500591E+03</pdfrwt>
<totfact> 0.11697844E+03</totfact>
</mgrwt>
</event>
<event>
 5    1  0.1451195E-002  0.1249853E+03  0.7818608E-02  0.1235092E+00
          4   -1    0    0  501    0  0.00000000000E+00  0.00000000000E+00  0.91401062961E+02  0.91409885737E+02  0.12700000000E+01 0. -1.
         -4   -1    0    0    0  501 -0.00000000000E+00 -0.00000000000E+00 -0.42707110225E+02  0.42725989325E+02  0.12700000000E+01 0. -1.
         25    2    1    2    0    0  0.00000000000E+00  0.00000000000E+00  0.48693952736E+02  0.13413587506E+03  0.12498532692E+03 0.  0.
    9000005    1    3    3    0    0  0.47049077594E+02  0.39984533160E+02  0.34638321776E+02  0.70803897703E+02  0.10000000000E+01 0.  0.
    9000005    1    3    3    0    0 -0.47049077594E+02 -0.39984533160E+02  0.14055630959E+02  0.63331977359E+02  0.10000000000E+01 0.  0.
<mgrwt>
<rscale>  0 0.12498533E+03</rscale>
<asrwt>0</asrwt>
<pdfrwt beam="1">  1        4 0.22853728E-01 0.12498533E+03</pdfrwt>
<pdfrwt beam="2">  1       -4 0.10680240E-01 0.12498533E+03</pdfrwt>
<totfact> 0.19351120E+03</totfact>
</mgrwt>
</event>
<event>
 5    1  0.1451195E-002  0.1249997E+03  0.7818608E-02  0.1235070E+00
         -4   -1    0    0    0  501 -0.00000000000E+00  0.00000000000E+00  0.17260570542E+03  0.17261037757E+03  0.12700000000E+01 0.  1.
          4   -1    0    0  501    0  0.00000000000E+00 -0.00000000000E+00 -0.22608166791E+02  0.22643809433E+02  0.12700000000E+01 0.  1.
         25    2    1    2    0    0  0.00000000000E+00  0.00000000000E+00  0.14999753863E+03  0.19525418700E+03  0.12499974379E+03 0.  0.
    9000005    1    3    3    0    0  0.58929040569E+02  0.20049216433E+02  0.66353621548E+02  0.90985746106E+02  0.10000000000E+01 0.  0.
    9000005    1    3    3    0    0 -0.58929040569E+02 -0.20049216433E+02  0.83643917085E+02  0.10426844090E+03  0.10000000000E+01 0.  0.
<mgrwt>
<rscale>  0 0.12499974E+03</rscale>
<asrwt>0</asrwt>
<pdfrwt beam="2">  1        4 0.56570812E-02 0.12499974E+03</pdfrwt>
<pdfrwt beam="1">  1       -4 0.43156465E-01 0.12499974E+03</pdfrwt>
<totfact> 0.16513949E+03</totfact>
</mgrwt>
</event>
<event>
 5    1  0.1451195E-002  0.1249987E+03  0.7818608E-02  0.1235071E+00
         -4   -1    0    0    0  501 -0.00000000000E+00  0.00000000000E+00  0.38058704057E+03  0.38058915953E+03  0.12700000000E+01 0.  1.
          4   -1    0    0  501    0  0.00000000000E+00 -0.00000000000E+00 -0.10222088609E+02  0.10300679372E+02  0.12700000000E+01 0.  1.
         25    2    1    2    0    0  0.00000000000E+00  0.00000000000E+00  0.37036495196E+03  0.39088983890E+03  0.12499867405E+03 0.  0.
    9000005    1    3    3    0    0 -0.18418666177E+02 -0.55271267668E+02  0.25587318370E+03  0.26242379166E+03  0.10000000000E+01 0.  0.
    9000005    1    3    3    0    0  0.18418666177E+02  0.55271267668E+02  0.11449176826E+03  0.12846604724E+03  0.10000000000E+01 0.  0.
<mgrwt>
<rscale>  0 0.12499867E+03</rscale>
<asrwt>0</asrwt>
<pdfrwt beam="2">  1        4 0.25656111E-02 0.12499867E+03</pdfrwt>
<pdfrwt beam="1">  1       -4 0.95156839E-01 0.12499867E+03</pdfrwt>
<totfact> 0.10759617E+03</totfact>
</mgrwt>
</event>
<event>
 5    1  0.1451195E-002  0.1249967E+03  0.7818608E-02  0.1235074E+00
          4   -1    0    0  501    0  0.00000000000E+00  0.00000000000E+00  0.22517526776E+03  0.22517884916E+03  0.12700000000E+01 0. -1.
         -4   -1    0    0    0  501 -0.00000000000E+00 -0.00000000000E+00 -0.17319720084E+02  0.17366220193E+02  0.12700000000E+01 0. -1.
         25    2    1    2    0    0  0.00000000000E+00  0.00000000000E+00  0.20785554767E+03  0.24254506936E+03  0.12499672784E+03 0.  0.
    9000005    1    3    3    0    0 -0.24183932534E+02  0.28830280365E+02  0.20073461863E+03  0.20423377482E+03  0.10000000000E+01 0.  0.
    9000005    1    3    3    0    0  0.24183932534E+02 -0.28830280365E+02  0.71209290408E+01  0.38311294537E+02  0.10000000000E+01 0.  0.
<mgrwt>
<rscale>  0 0.12499673E+03</rscale>
<asrwt>0</asrwt>
<pdfrwt beam="1">  1        4 0.56300077E-01 0.12499673E+03</pdfrwt>
<pdfrwt beam="2">  1       -4 0.43361902E-02 0.12499673E+03</pdfrwt>
<totfact> 0.14750282E+03</totfact>
</mgrwt>
</event>
<event>
 5    1  0.1451195E-002  0.1249987E+03  0.7818608E-02  0.1235071E+00
         -4   -1    0    0    0  501 -0.00000000000E+00  0.00000000000E+00  0.66956267510E+03  0.66956387954E+03  0.12700000000E+01 0.  1.
          4   -1    0    0  501    0  0.00000000000E+00 -0.00000000000E+00 -0.57635672085E+01  0.59018308148E+01  0.12700000000E+01 0.  1.
         25    2    1    2    0    0  0.00000000000E+00  0.00000000000E+00  0.66379910789E+03  0.67546571035E+03  0.12499868091E+03 0.  0.
    9000005    1    3    3    0    0 -0.10096778635E+02  0.34033266867E+02  0.60981160494E+03  0.61084482621E+03  0.10000000000E+01 0.  0.
    9000005    1    3    3    0    0  0.10096778635E+02 -0.34033266867E+02  0.53987502951E+02  0.64620884142E+02  0.10000000000E+01 0.  0.
<mgrwt>
<rscale>  0 0.12499868E+03</rscale>
<asrwt>0</asrwt>
<pdfrwt beam="2">  1        4 0.14583252E-02 0.12499868E+03</pdfrwt>
<pdfrwt beam="1">  1       -4 0.16740812E+00 0.12499868E+03</pdfrwt>
<totfact> 0.64672789E+02</totfact>
</mgrwt>
</event>
<event>
 5    1  0.1451195E-002  0.1250004E+03  0.7818608E-02  0.1235069E+00
         -4   -1    0    0    0  501 -0.00000000000E+00  0.00000000000E+00  0.11821962405E+03  0.11822644548E+03  0.12700000000E+01 0. -1.
          4   -1    0    0  501    0  0.00000000000E+00 -0.00000000000E+00 -0.33022548454E+02  0.33046960623E+02  0.12700000000E+01 0. -1.
         25    2    1    2    0    0  0.00000000000E+00  0.00000000000E+00  0.85197075599E+02  0.15127340610E+03  0.12500040681E+03 0.  0.
    9000005    1    3    3    0    0  0.37038844914E+02 -0.23134777153E+02  0.96694970087E+02  0.10610377555E+03  0.10000000000E+01 0.  0.
    9000005    1    3    3    0    0 -0.37038844914E+02  0.23134777153E+02 -0.11497894488E+02  0.45169630551E+02  0.10000000000E+01 0.  0.
<mgrwt>
<rscale>  0 0.12500041E+03</rscale>
<asrwt>0</asrwt>
<pdfrwt beam="2">  1        4 0.82595414E-02 0.12500041E+03</pdfrwt>
<pdfrwt beam="1">  1       -4 0.29558810E-01 0.12500041E+03</pdfrwt>
<totfact> 0.18476169E+03</totfact>
</mgrwt>
</event>
<event>
 5    1  0.1451195E-002  0.1249961E+03  0.7818608E-02  0.1235075E+00
         -4   -1    0    0    0  501 -0.00000000000E+00  0.00000000000E+00  0.12409052761E+03  0.12409702632E+03  0.12700000000E+01 0.  1.
          4   -1    0    0  501    0  0.00000000000E+00 -0.00000000000E+00 -0.31456946216E+02  0.31482572405E+02  0.12700000000E+01 0.  1.
         25    2    1    2    0    0  0.00000000000E+00  0.00000000000E+00  0.92633581389E+02  0.15557959872E+03  0.12499612449E+03 0.  0.
    9000005    1    3    3    0    0  0.15696601739E+02 -0.20197520027E+02  0.11728167846E+03  0.12004297240E+03  0.10000000000E+01 0.  0.
    9000005    1    3    3    0    0 -0.15696601739E+02  0.20197520027E+02 -0.24648097067E+02  0.35536626323E+02  0.10000000000E+01 0.  0.
<mgrwt>
<rscale>  0 0.12499612E+03</rscale>
<asrwt>0</asrwt>
<pdfrwt beam="2">  1        4 0.78682522E-02 0.12499612E+03</pdfrwt>
<pdfrwt beam="1">  1       -4 0.31026647E-01 0.12499612E+03</pdfrwt>
<totfact> 0.18269437E+03</totfact>
</mgrwt>
</event>
<event>
 5    1  0.1451195E-002  0.1250017E+03  0.7818608E-02  0.1235067E+00
          4   -1    0    0  501    0  0.00000000000E+00  0.00000000000E+00  0.61218986645E+03  0.61219118377E+03  0.12700000000E+01 0. -1.
         -4   -1    0    0    0  501 -0.00000000000E+00 -0.00000000000E+00 -0.63164212365E+01  0.64428314612E+01  0.12700000000E+01 0. -1.
         25    2    1    2    0    0  0.00000000000E+00  0.00000000000E+00  0.60587344522E+03  0.61863401523E+03  0.12500165273E+03 0.  0.
    9000005    1    3    3    0    0 -0.45973461082E+02  0.30023497579E+02  0.45061161295E+03  0.45394580652E+03  0.10000000000E+01 0.  0.
    9000005    1    3    3    0    0  0.45973461082E+02 -0.30023497579E+02  0.15526183227E+03  0.16468820872E+03  0.10000000000E+01 0.  0.
<mgrwt>
<rscale>  0 0.12500165E+03</rscale>
<asrwt>0</asrwt>
<pdfrwt beam="1">  1        4 0.15306341E+00 0.12500165E+03</pdfrwt>
<pdfrwt beam="2">  1       -4 0.15950715E-02 0.12500165E+03</pdfrwt>
<totfact> 0.71204088E+02</totfact>
</mgrwt>
</event>
<event>
 5    1  0.1451195E-002  0.1250045E+03  0.7818608E-02  0.1235062E+00
         -4   -1    0    0    0  501 -0.00000000000E+00  0.00000000000E+00  0.97254252265E+02  0.97262544094E+02  0.12700000000E+01 0. -1.
          4   -1    0    0  501    0  0.00000000000E+00 -0.00000000000E+00 -0.40148186527E+02  0.40168268340E+02  0.12700000000E+01 0. -1.
         25    2    1    2    0    0  0.00000000000E+00  0.00000000000E+00  0.57106065738E+02  0.13743081243E+03  0.12500450177E+03 0.  0.
    9000005    1    3    3    0    0 -0.57745631841E+02  0.19309244022E+02  0.44027998917E+02  0.75145655830E+02  0.10000000000E+01 0.  0.
    9000005    1    3    3    0    0  0.57745631841E+02 -0.19309244022E+02  0.13078066820E+02  0.62285156604E+02  0.10000000000E+01 0.  0.
<mgrwt>
<rscale>  0 0.12500450E+03</rscale>
<asrwt>0</asrwt>
<pdfrwt beam="2">  1        4 0.10040593E-01 0.12500450E+03</pdfrwt>
<pdfrwt beam="1">  1       -4 0.24317110E-01 0.12500450E+03</pdfrwt>
<totfact> 0.19170546E+03</totfact>
</mgrwt>
</event>
<event>
 5    1  0.1451195E-002  0.1249999E+03  0.7818608E-02  0.1235069E+00
          4   -1    0    0  501    0  0.00000000000E+00  0.00000000000E+00  0.27498965371E+03  0.27499258635E+03  0.12700000000E+01 0. -1.
         -4   -1    0    0    0  501 -0.00000000000E+00 -0.00000000000E+00 -0.14173665800E+02  0.14230449824E+02  0.12700000000E+01 0. -1.
         25    2    1    2    0    0  0.00000000000E+00  0.00000000000E+00  0.26081598791E+03  0.28922303617E+03  0.12499994042E+03 0.  0.
    9000005    1    3    3    0    0 -0.29099448778E+02 -0.49447703082E+02  0.73102997684E+02  0.92934931698E+02  0.10000000000E+01 0.  0.
    9000005    1    3    3    0    0  0.29099448778E+02  0.49447703082E+02  0.18771299022E+03  0.19628810447E+03  0.10000000000E+01 0.  0.
<mgrwt>
<rscale>  0 0.12499994E+03</rscale>
<asrwt>0</asrwt>
<pdfrwt beam="1">  1        4 0.68754877E-01 0.12499994E+03</pdfrwt>
<pdfrwt beam="2">  1       -4 0.35508811E-02 0.12499994E+03</pdfrwt>
<totfact> 0.13278586E+03</totfact>
</mgrwt>
</event>
<event>
 5    1  0.1451195E-002  0.1250050E+03  0.7818608E-02  0.1235062E+00
          4   -1    0    0  501    0  0.00000000000E+00  0.00000000000E+00  0.29834964560E+02  0.29861982692E+02  0.12700000000E+01 0. -1.
         -4   -1    0    0    0  501 -0.00000000000E+00 -0.00000000000E+00 -0.13084961692E+03  0.13085577996E+03  0.12700000000E+01 0. -1.
         25    2    1    2    0    0  0.00000000000E+00  0.00000000000E+00 -0.10101465236E+03  0.16071776265E+03  0.12500495686E+03 0.  0.
    9000005    1    3    3    0    0  0.11289812304E+02 -0.52750009955E+02 -0.99410432970E+01  0.54862079381E+02  0.10000000000E+01 0.  0.
    9000005    1    3    3    0    0 -0.11289812304E+02  0.52750009955E+02 -0.91073609063E+02  0.10585568327E+03  0.10000000000E+01 0.  0.
<mgrwt>
<rscale>  0 0.12500496E+03</rscale>
<asrwt>0</asrwt>
<pdfrwt beam="1">  1        4 0.74628891E-02 0.12500496E+03</pdfrwt>
<pdfrwt beam="2">  1       -4 0.32716550E-01 0.12500496E+03</pdfrwt>
<totfact> 0.18021952E+03</totfact>
</mgrwt>
</event>
<event>
 5    1  0.1451195E-002  0.1250001E+03  0.7818608E-02  0.1235069E+00
         -4   -1    0    0    0  501 -0.00000000000E+00  0.00000000000E+00  0.18566462754E+02  0.18609847909E+02  0.12700000000E+01 0.  1.
          4   -1    0    0  501    0  0.00000000000E+00 -0.00000000000E+00 -0.21010243914E+03  0.21010627747E+03  0.12700000000E+01 0.  1.
         25    2    1    2    0    0  0.00000000000E+00  0.00000000000E+00 -0.19153597639E+03  0.22871612538E+03  0.12500014303E+03 0.  0.
    9000005    1    3    3    0    0  0.65475712534E+01 -0.61912563629E+02 -0.10565913293E+03  0.12264130053E+03  0.10000000000E+01 0.  0.
    9000005    1    3    3    0    0 -0.65475712534E+01  0.61912563629E+02 -0.85876843453E+02  0.10607482485E+03  0.10000000000E+01 0.  0.
<mgrwt>
<rscale>  0 0.12500014E+03</rscale>
<asrwt>0</asrwt>
<pdfrwt beam="2">  1        4 0.52531505E-01 0.12500014E+03</pdfrwt>
<pdfrwt beam="1">  1       -4 0.46475193E-02 0.12500014E+03</pdfrwt>
<totfact> 0.15233247E+03</totfact>
</mgrwt>
</event>
<event>
 5    1  0.1451195E-002  0.1250381E+03  0.7818608E-02  0.1235010E+00
         -4   -1    0    0    0  501 -0.00000000000E+00  0.00000000000E+00  0.10081597389E+03  0.10082397280E+03  0.12700000000E+01 0. -1.
          4   -1    0    0  501    0  0.00000000000E+00 -0.00000000000E+00 -0.38750001161E+02  0.38770807187E+02  0.12700000000E+01 0. -1.
         25    2    1    2    0    0  0.00000000000E+00  0.00000000000E+00  0.62065972725E+02  0.13959477998E+03  0.12503806472E+03 0.  0.
    9000005    1    3    3    0    0 -0.26353423181E+02  0.56666732792E+02  0.32614950843E+02  0.70500755579E+02  0.10000000000E+01 0.  0.
    9000005    1    3    3    0    0  0.26353423181E+02 -0.56666732792E+02  0.29451021882E+02  0.69094024406E+02  0.10000000000E+01 0.  0.
<mgrwt>
<rscale>  0 0.12503806E+03</rscale>
<asrwt>0</asrwt>
<pdfrwt beam="2">  1        4 0.96911010E-02 0.12503806E+03</pdfrwt>
<pdfrwt beam="1">  1       -4 0.25207594E-01 0.12503806E+03</pdfrwt>
<totfact> 0.19044182E+03</totfact>
</mgrwt>
</event>
<event>
 5    1  0.1451195E-002  0.1249919E+03  0.7818608E-02  0.1235082E+00
         -4   -1    0    0    0  501 -0.00000000000E+00  0.00000000000E+00  0.57414803727E+02  0.57428848039E+02  0.12700000000E+01 0.  1.
          4   -1    0    0  501    0  0.00000000000E+00 -0.00000000000E+00 -0.67998454616E+02  0.68010313410E+02  0.12700000000E+01 0.  1.
         25    2    1    2    0    0  0.00000000000E+00  0.00000000000E+00 -0.10583650888E+02  0.12543916145E+03  0.12499187797E+03 0.  0.
    9000005    1    3    3    0    0 -0.17764322861E+02 -0.56890465285E+02  0.13554250740E+02  0.61129484867E+02  0.10000000000E+01 0.  0.
    9000005    1    3    3    0    0  0.17764322861E+02  0.56890465285E+02 -0.24137901628E+02  0.64309676582E+02  0.10000000000E+01 0.  0.
<mgrwt>
<rscale>  0 0.12499188E+03</rscale>
<asrwt>0</asrwt>
<pdfrwt beam="2">  1        4 0.17002852E-01 0.12499188E+03</pdfrwt>
<pdfrwt beam="1">  1       -4 0.14356939E-01 0.12499188E+03</pdfrwt>
<totfact> 0.19815022E+03</totfact>
</mgrwt>
</event>
<event>
 5    1  0.1451195E-002  0.1249997E+03  0.7818608E-02  0.1235070E+00
          4   -1    0    0  501    0  0.00000000000E+00  0.00000000000E+00  0.83438164705E+01  0.84399154791E+01  0.12700000000E+01 0. -1.
         -4   -1    0    0    0  501 -0.00000000000E+00 -0.00000000000E+00 -0.46538160489E+03  0.46538333776E+03  0.12700000000E+01 0. -1.
         25    2    1    2    0    0  0.00000000000E+00  0.00000000000E+00 -0.45703778842E+03  0.47382325324E+03  0.12499974109E+03 0.  0.
    9000005    1    3    3    0    0  0.21264692641E+02  0.22229537828E+02 -0.43471097595E+03  0.43579923373E+03  0.10000000000E+01 0.  0.
    9000005    1    3    3    0    0 -0.21264692641E+02 -0.22229537828E+02 -0.22326812466E+02  0.38024019515E+02  0.10000000000E+01 0.  0.
<mgrwt>
<rscale>  0 0.12499974E+03</rscale>
<asrwt>0</asrwt>
<pdfrwt beam="1">  1        4 0.20981847E-02 0.12499974E+03</pdfrwt>
<pdfrwt beam="2">  1       -4 0.11635754E+00 0.12499974E+03</pdfrwt>
<totfact> 0.91892040E+02</totfact>
</mgrwt>
</event>
<event>
 5    1  0.1451195E-002  0.1249986E+03  0.7818608E-02  0.1235072E+00
         -4   -1    0    0    0  501 -0.00000000000E+00  0.00000000000E+00  0.58174481913E+01  0.59544608034E+01  0.12700000000E+01 0.  1.
          4   -1    0    0  501    0  0.00000000000E+00 -0.00000000000E+00 -0.66350341433E+03  0.66350462977E+03  0.12700000000E+01 0.  1.
         25    2    1    2    0    0  0.00000000000E+00  0.00000000000E+00 -0.65768596614E+03  0.66945909057E+03  0.12499857558E+03 0.  0.
    9000005    1    3    3    0    0 -0.49499646325E+02 -0.22379878417E+02 -0.16341347619E+03  0.17220928588E+03  0.10000000000E+01 0.  0.
    9000005    1    3    3    0    0  0.49499646325E+02  0.22379878417E+02 -0.49427248995E+03  0.49724980469E+03  0.10000000000E+01 0.  0.
<mgrwt>
<rscale>  0 0.12499858E+03</rscale>
<asrwt>0</asrwt>
<pdfrwt beam="2">  1        4 0.16589288E+00 0.12499858E+03</pdfrwt>
<pdfrwt beam="1">  1       -4 0.14716428E-02 0.12499858E+03</pdfrwt>
<totfact> 0.65329926E+02</totfact>
</mgrwt>
</event>
<event>
 5    1  0.1451195E-002  0.1250011E+03  0.7818608E-02  0.1235068E+00
          4   -1    0    0  501    0  0.00000000000E+00  0.00000000000E+00  0.30283135995E+03  0.30283402297E+03  0.12700000000E+01 0.  1.
         -4   -1    0    0    0  501 -0.00000000000E+00 -0.00000000000E+00 -0.12865331476E+02  0.12927863474E+02  0.12700000000E+01 0.  1.
         25    2    1    2    0    0  0.00000000000E+00  0.00000000000E+00  0.28996602847E+03  0.31576188644E+03  0.12500108504E+03 0.  0.
    9000005    1    3    3    0    0  0.58303839478E+02 -0.28657261444E+01  0.88624531219E+02  0.10612661126E+03  0.10000000000E+01 0.  0.
    9000005    1    3    3    0    0 -0.58303839478E+02  0.28657261444E+01  0.20134149725E+03  0.20963527518E+03  0.10000000000E+01 0.  0.
<mgrwt>
<rscale>  0 0.12500109E+03</rscale>
<asrwt>0</asrwt>
<pdfrwt beam="1">  1        4 0.75715988E-01 0.12500109E+03</pdfrwt>
<pdfrwt beam="2">  1       -4 0.32244823E-02 0.12500109E+03</pdfrwt>
<totfact> 0.12540210E+03</totfact>
</mgrwt>
</event>
<event>
 5    1  0.1451195E-002  0.1249969E+03  0.7818608E-02  0.1235074E+00
         -4   -1    0    0    0  501 -0.00000000000E+00  0.00000000000E+00  0.40594159639E+01  0.42534407211E+01  0.12700000000E+01 0. -1.
          4   -1    0    0  501    0  0.00000000000E+00 -0.00000000000E+00 -0.93956792378E+03  0.93956878210E+03  0.12700000000E+01 0. -1.
         25    2    1    2    0    0  0.00000000000E+00  0.00000000000E+00 -0.93550850782E+03  0.94382222282E+03  0.12499688034E+03 0.  0.
    9000005    1    3    3    0    0  0.11648668355E+02  0.53685893343E+02 -0.69265917250E+03  0.69483494146E+03  0.10000000000E+01 0.  0.
    9000005    1    3    3    0    0 -0.11648668355E+02 -0.53685893343E+02 -0.24284933532E+03  0.24898728137E+03  0.10000000000E+01 0.  0.
<mgrwt>
<rscale>  0 0.12499688E+03</rscale>
<asrwt>0</asrwt>
<pdfrwt beam="2">  1        4 0.23491561E+00 0.12499688E+03</pdfrwt>
<pdfrwt beam="1">  1       -4 0.10392176E-02 0.12499688E+03</pdfrwt>
<totfact> 0.41024386E+02</totfact>
</mgrwt>
</event>
<event>
 5    1  0.1451195E-002  0.1250001E+03  0.7818608E-02  0.1235069E+00
          4   -1    0    0  501    0  0.00000000000E+00  0.00000000000E+00  0.35841864116E+02  0.35864357283E+02  0.12700000000E+01 0.  1.
         -4   -1    0    0    0  501 -0.00000000000E+00 -0.00000000000E+00 -0.10892549690E+03  0.10893290033E+03  0.12700000000E+01 0.  1.
         25    2    1    2    0    0  0.00000000000E+00  0.00000000000E+00 -0.73083632785E+02  0.14479725762E+03  0.12500011373E+03 0.  0.
    9000005    1    3    3    0    0 -0.28209213801E+01 -0.40392408196E+02 -0.91680475178E+02  0.10022880707E+03  0.10000000000E+01 0.  0.
    9000005    1    3    3    0    0  0.28209213801E+01  0.40392408196E+02  0.18596842393E+02  0.44568450549E+02  0.10000000000E+01 0.  0.
<mgrwt>
<rscale>  0 0.12500011E+03</rscale>
<asrwt>0</asrwt>
<pdfrwt beam="1">  1        4 0.89642033E-02 0.12500011E+03</pdfrwt>
<pdfrwt beam="2">  1       -4 0.27235111E-01 0.12500011E+03</pdfrwt>
<totfact> 0.18797484E+03</totfact>
</mgrwt>
</event>
<event>
 5    1  0.1451195E-002  0.1250024E+03  0.7818608E-02  0.1235066E+00
         -4   -1    0    0    0  501 -0.00000000000E+00  0.00000000000E+00  0.26297563232E+03  0.26297869894E+03  0.12700000000E+01 0. -1.
          4   -1    0    0  501    0  0.00000000000E+00 -0.00000000000E+00 -0.14824305071E+02  0.14878606146E+02  0.12700000000E+01 0. -1.
         25    2    1    2    0    0  0.00000000000E+00  0.00000000000E+00  0.24815132725E+03  0.27785730508E+03  0.12500240307E+03 0.  0.
    9000005    1    3    3    0    0  0.32767345100E+02  0.46885449868E+02  0.68130616671E+02  0.88964741568E+02  0.10000000000E+01 0.  0.
    9000005    1    3    3    0    0 -0.32767345100E+02 -0.46885449868E+02  0.18002071058E+03  0.18889256351E+03  0.10000000000E+01 0.  0.
<mgrwt>
<rscale>  0 0.12500240E+03</rscale>
<asrwt>0</asrwt>
<pdfrwt beam="2">  1        4 0.37132472E-02 0.12500240E+03</pdfrwt>
<pdfrwt beam="1">  1       -4 0.65751079E-01 0.12500240E+03</pdfrwt>
<totfact> 0.13614403E+03</totfact>
</mgrwt>
</event>
<event>
 5    1  0.1451195E-002  0.1249979E+03  0.7818608E-02  0.1235073E+00
          4   -1    0    0  501    0  0.00000000000E+00  0.00000000000E+00  0.11885182667E+03  0.11885861182E+03  0.12700000000E+01 0. -1.
         -4   -1    0    0    0  501 -0.00000000000E+00 -0.00000000000E+00 -0.32845461524E+02  0.32870005214E+02  0.12700000000E+01 0. -1.
         25    2    1    2    0    0  0.00000000000E+00  0.00000000000E+00  0.86006365146E+02  0.15172861703E+03  0.12499791350E+03 0.  0.
    9000005    1    3    3    0    0  0.48336013751E+02  0.13614302725E+02 -0.21448304734E+01  0.50272455299E+02  0.10000000000E+01 0.  0.
    9000005    1    3    3    0    0 -0.48336013751E+02 -0.13614302725E+02  0.88151195619E+02  0.10145616173E+03  0.10000000000E+01 0.  0.
<mgrwt>
<rscale>  0 0.12499791E+03</rscale>
<asrwt>0</asrwt>
<pdfrwt beam="1">  1        4 0.29716873E-01 0.12499791E+03</pdfrwt>
<pdfrwt beam="2">  1       -4 0.82152815E-02 0.12499791E+03</pdfrwt>
<totfact> 0.18455006E+03</totfact>
</mgrwt>
</event>
<event>
 5    1  0.1451195E-002  0.1250007E+03  0.7818608E-02  0.1235068E+00
         -4   -1    0    0    0  501 -0.00000000000E+00  0.00000000000E+00  0.28410918621E+02  0.28439289669E+02  0.12700000000E+01 0. -1.
          4   -1    0    0  501    0  0.00000000000E+00 -0.00000000000E+00 -0.13739286757E+03  0.13739873711E+03  0.12700000000E+01 0. -1.
         25    2    1    2    0    0  0.00000000000E+00  0.00000000000E+00 -0.10898194895E+03  0.16583802678E+03  0.12500074371E+03 0.  0.
    9000005    1    3    3    0    0  0.20167673680E+02  0.55463351245E+02 -0.27224925193E+02  0.65000884184E+02  0.10000000000E+01 0.  0.
    9000005    1    3    3    0    0 -0.20167673680E+02 -0.55463351245E+02 -0.81757023757E+02  0.10083714259E+03  0.10000000000E+01 0.  0.
<mgrwt>
<rscale>  0 0.12500074E+03</rscale>
<asrwt>0</asrwt>
<pdfrwt beam="2">  1        4 0.34352495E-01 0.12500074E+03</pdfrwt>
<pdfrwt beam="1">  1       -4 0.71070101E-02 0.12500074E+03</pdfrwt>
<totfact> 0.17786113E+03</totfact>
</mgrwt>
</event>
<event>
 5    1  0.1451195E-002  0.1249982E+03  0.7818608E-02  0.1235072E+00
         -4   -1    0    0    0  501 -0.00000000000E+00  0.00000000000E+00  0.69930315450E+02  0.69941846694E+02  0.12700000000E+01 0.  1.
          4   -1    0    0  501    0  0.00000000000E+00 -0.00000000000E+00 -0.55834243869E+02  0.55848685647E+02  0.12700000000E+01 0.  1.
         25    2    1    2    0    0  0.00000000000E+00  0.00000000000E+00  0.14096071580E+02  0.12579053234E+03  0.12499823516E+03 0.  0.
    9000005    1    3    3    0    0  0.10614844148E+02 -0.27302549559E+02  0.62597878780E+02  0.69120174742E+02  0.10000000000E+01 0.  0.
    9000005    1    3    3    0    0 -0.10614844148E+02  0.27302549559E+02 -0.48501807199E+02  0.56670357598E+02  0.10000000000E+01 0.  0.
<mgrwt>
<rscale>  0 0.12499824E+03</rscale>
<asrwt>0</asrwt>
<pdfrwt beam="2">  1        4 0.13961808E-01 0.12499824E+03</pdfrwt>
<pdfrwt beam="1">  1       -4 0.17485825E-01 0.12499824E+03</pdfrwt>
<totfact> 0.19793061E+03</totfact>
</mgrwt>
</event>
<event>
 5    1  0.1451195E-002  0.1249967E+03  0.7818608E-02  0.1235074E+00
         -4   -1    0    0    0  501 -0.00000000000E+00  0.00000000000E+00  0.46071313575E+03  0.46071488619E+03  0.12700000000E+01 0. -1.
          4   -1    0    0  501    0  0.00000000000E+00 -0.00000000000E+00 -0.84289252433E+01  0.85240648025E+01  0.12700000000E+01 0. -1.
         25    2    1    2    0    0  0.00000000000E+00  0.00000000000E+00  0.45228421051E+03  0.46923895099E+03  0.12499674416E+03 0.  0.
    9000005    1    3    3    0    0  0.60415621258E+02  0.15671872738E+02  0.21463765852E+03  0.22353071230E+03  0.10000000000E+01 0.  0.
    9000005    1    3    3    0    0 -0.60415621258E+02 -0.15671872738E+02  0.23764655199E+03  0.24570823869E+03  0.10000000000E+01 0.  0.
<mgrwt>
<rscale>  0 0.12499674E+03</rscale>
<asrwt>0</asrwt>
<pdfrwt beam="2">  1        4 0.21193428E-02 0.12499674E+03</pdfrwt>
<pdfrwt beam="1">  1       -4 0.11519038E+00 0.12499674E+03</pdfrwt>
<totfact> 0.92669454E+02</totfact>
</mgrwt>
</event>
<event>
 5    1  0.1451195E-002  0.1249984E+03  0.7818608E-02  0.1235072E+00
         -4   -1    0    0    0  501 -0.00000000000E+00  0.00000000000E+00  0.25293212599E+02  0.25325076576E+02  0.12700000000E+01 0. -1.
          4   -1    0    0  501    0  0.00000000000E+00 -0.00000000000E+00 -0.15430311978E+03  0.15430834609E+03  0.12700000000E+01 0. -1.
         25    2    1    2    0    0  0.00000000000E+00  0.00000000000E+00 -0.12900990718E+03  0.17963342267E+03  0.12499844154E+03 0.  0.
    9000005    1    3    3    0    0 -0.47028630168E+02  0.14732818344E+01 -0.54043951208E+01  0.47371617045E+02  0.10000000000E+01 0.  0.
    9000005    1    3    3    0    0  0.47028630168E+02 -0.14732818344E+01 -0.12360551206E+03  0.13226180562E+03  0.10000000000E+01 0.  0.
<mgrwt>
<rscale>  0 0.12499844E+03</rscale>
<asrwt>0</asrwt>
<pdfrwt beam="2">  1        4 0.38580414E-01 0.12499844E+03</pdfrwt>
<pdfrwt beam="1">  1       -4 0.63279399E-02 0.12499844E+03</pdfrwt>
<totfact> 0.17171713E+03</totfact>
</mgrwt>
</event>
<event>
 5    1  0.1451195E-002  0.1250012E+03  0.7818608E-02  0.1235067E+00
         -4   -1    0    0    0  501 -0.00000000000E+00  0.00000000000E+00  0.42087457194E+03  0.42087648806E+03  0.12700000000E+01 0. -1.
          4   -1    0    0  501    0  0.00000000000E+00 -0.00000000000E+00 -0.92360559550E+01  0.93229624907E+01  0.12700000000E+01 0. -1.
         25    2    1    2    0    0  0.00000000000E+00  0.00000000000E+00  0.41163851598E+03  0.43019945055E+03  0.12500119766E+03 0.  0.
    9000005    1    3    3    0    0 -0.58355714763E+02 -0.18766881180E+02  0.24765082236E+03  0.25512646881E+03  0.10000000000E+01 0.  0.
    9000005    1    3    3    0    0  0.58355714763E+02  0.18766881180E+02  0.16398769363E+03  0.17507298174E+03  0.10000000000E+01 0.  0.
<mgrwt>
<rscale>  0 0.12500120E+03</rscale>
<asrwt>0</asrwt>
<pdfrwt beam="2">  1        4 0.23201169E-02 0.12500120E+03</pdfrwt>
<pdfrwt beam="1">  1       -4 0.10522974E+00 0.12500120E+03</pdfrwt>
<totfact> 0.99680716E+02</totfact>
</mgrwt>
</event>
<event>
 5    1  0.1451195E-002  0.1250087E+03  0.7818608E-02  0.1235056E+00
         -4   -1    0    0    0  501 -0.00000000000E+00  0.00000000000E+00  0.38261233095E+03  0.38261443869E+03  0.12700000000E+01 0.  1.
          4   -1    0    0  501    0  0.00000000000E+00 -0.00000000000E+00 -0.10169215178E+02  0.10248211422E+02  0.12700000000E+01 0.  1.
         25    2    1    2    0    0  0.00000000000E+00  0.00000000000E+00  0.37244311577E+03  0.39286265011E+03  0.12500874917E+03 0.  0.
    9000005    1    3    3    0    0  0.47951745521E+01 -0.45342711573E+02  0.51898433655E+02  0.69089815513E+02  0.10000000000E+01 0.  0.
    9000005    1    3    3    0    0 -0.47951745521E+01  0.45342711573E+02  0.32054468211E+03  0.32377283460E+03  0.10000000000E+01 0.  0.
<mgrwt>
<rscale>  0 0.12500875E+03</rscale>
<asrwt>0</asrwt>
<pdfrwt beam="2">  1        4 0.25524419E-02 0.12500875E+03</pdfrwt>
<pdfrwt beam="1">  1       -4 0.95663216E-01 0.12500875E+03</pdfrwt>
<totfact> 0.10715573E+03</totfact>
</mgrwt>
</event>
<event>
 5    1  0.1451195E-002  0.1249846E+03  0.7818608E-02  0.1235093E+00
         -4   -1    0    0    0  501 -0.00000000000E+00  0.00000000000E+00  0.17533104091E+03  0.17533564043E+03  0.12700000000E+01 0. -1.
          4   -1    0    0  501    0  0.00000000000E+00 -0.00000000000E+00 -0.22250797425E+02  0.22287011600E+02  0.12700000000E+01 0. -1.
         25    2    1    2    0    0  0.00000000000E+00  0.00000000000E+00  0.15308024349E+03  0.19762265203E+03  0.12498460566E+03 0.  0.
    9000005    1    3    3    0    0 -0.23148839948E+02 -0.35469565823E+02  0.39035590012E+01  0.42546406000E+02  0.10000000000E+01 0.  0.
    9000005    1    3    3    0    0  0.23148839948E+02  0.35469565823E+02  0.14917668448E+03  0.15507624604E+03  0.10000000000E+01 0.  0.
<mgrwt>
<rscale>  0 0.12498461E+03</rscale>
<asrwt>0</asrwt>
<pdfrwt beam="2">  1        4 0.55678011E-02 0.12498461E+03</pdfrwt>
<pdfrwt beam="1">  1       -4 0.43837862E-01 0.12498461E+03</pdfrwt>
<totfact> 0.16423525E+03</totfact>
</mgrwt>
</event>
<event>
 5    1  0.1451195E-002  0.1249995E+03  0.7818608E-02  0.1235070E+00
          4   -1    0    0  501    0  0.00000000000E+00  0.00000000000E+00  0.13954438905E+02  0.14012111374E+02  0.12700000000E+01 0.  1.
         -4   -1    0    0    0  501 -0.00000000000E+00 -0.00000000000E+00 -0.27929036483E+03  0.27929325231E+03  0.12700000000E+01 0.  1.
         25    2    1    2    0    0  0.00000000000E+00  0.00000000000E+00 -0.26533592592E+03  0.29330536368E+03  0.12499953112E+03 0.  0.
    9000005    1    3    3    0    0 -0.15184195487E+02 -0.59358013297E+02 -0.10380687782E+03  0.12054377387E+03  0.10000000000E+01 0.  0.
    9000005    1    3    3    0    0  0.15184195487E+02  0.59358013297E+02 -0.16152904810E+03  0.17276158982E+03  0.10000000000E+01 0.  0.
<mgrwt>
<rscale>  0 0.12499953E+03</rscale>
<asrwt>0</asrwt>
<pdfrwt beam="1">  1        4 0.34961806E-02 0.12499953E+03</pdfrwt>
<pdfrwt beam="2">  1       -4 0.69830143E-01 0.12499953E+03</pdfrwt>
<totfact> 0.13160925E+03</totfact>
</mgrwt>
</event>
<event>
 5    1  0.1451195E-002  0.1249971E+03  0.7818608E-02  0.1235074E+00
          4   -1    0    0  501    0  0.00000000000E+00  0.00000000000E+00  0.18459173664E+02  0.18502810391E+02  0.12700000000E+01 0. -1.
         -4   -1    0    0    0  501 -0.00000000000E+00 -0.00000000000E+00 -0.21131054245E+03  0.21131435884E+03  0.12700000000E+01 0. -1.
         25    2    1    2    0    0  0.00000000000E+00  0.00000000000E+00 -0.19285136879E+03  0.22981716923E+03  0.12499712329E+03 0.  0.
    9000005    1    3    3    0    0  0.49251357431E+02 -0.68746780871E+01 -0.26847824574E+02  0.56522235377E+02  0.10000000000E+01 0.  0.
    9000005    1    3    3    0    0 -0.49251357431E+02  0.68746780871E+01 -0.16600354422E+03  0.17329493386E+03  0.10000000000E+01 0.  0.
<mgrwt>
<rscale>  0 0.12499712E+03</rscale>
<asrwt>0</asrwt>
<pdfrwt beam="1">  1        4 0.46207257E-02 0.12499712E+03</pdfrwt>
<pdfrwt beam="2">  1       -4 0.52833560E-01 0.12499712E+03</pdfrwt>
<totfact> 0.15194855E+03</totfact>
</mgrwt>
</event>
<event>
 5    1  0.1451195E-002  0.1249902E+03  0.7818608E-02  0.1235085E+00
         -4   -1    0    0    0  501 -0.00000000000E+00  0.00000000000E+00  0.86773805177E+01  0.87698251208E+01  0.12700000000E+01 0. -1.
          4   -1    0    0  501    0  0.00000000000E+00 -0.00000000000E+00 -0.44761605525E+03  0.44761785691E+03  0.12700000000E+01 0. -1.
         25    2    1    2    0    0  0.00000000000E+00  0.00000000000E+00 -0.43893867474E+03  0.45638768203E+03  0.12499022412E+03 0.  0.
    9000005    1    3    3    0    0 -0.30869326531E+02 -0.34730827530E+02 -0.66917668078E+02  0.81474658652E+02  0.10000000000E+01 0.  0.
    9000005    1    3    3    0    0  0.30869326531E+02  0.34730827530E+02 -0.37202100666E+03  0.37491302338E+03  0.10000000000E+01 0.  0.
<mgrwt>
<rscale>  0 0.12499022E+03</rscale>
<asrwt>0</asrwt>
<pdfrwt beam="2">  1        4 0.11191572E+00 0.12499022E+03</pdfrwt>
<pdfrwt beam="1">  1       -4 0.21811274E-02 0.12499022E+03</pdfrwt>
<totfact> 0.94902482E+02</totfact>
</mgrwt>
</event>
<event>
 5    1  0.1451195E-002  0.1249972E+03  0.7818608E-02  0.1235074E+00
          4   -1    0    0  501    0  0.00000000000E+00  0.00000000000E+00  0.53387375285E+03  0.53387526341E+03  0.12700000000E+01 0.  1.
         -4   -1    0    0    0  501 -0.00000000000E+00 -0.00000000000E+00 -0.72598308338E+01  0.73700775936E+01  0.12700000000E+01 0.  1.
         25    2    1    2    0    0  0.00000000000E+00  0.00000000000E+00  0.52661392201E+03  0.54124534100E+03  0.12499718516E+03 0.  0.
    9000005    1    3    3    0    0  0.17352519945E+02  0.19572563905E+02  0.17563973397E+02  0.31522822966E+02  0.10000000000E+01 0.  0.
    9000005    1    3    3    0    0 -0.17352519945E+02 -0.19572563905E+02  0.50904994862E+03  0.50972251804E+03  0.10000000000E+01 0.  0.
<mgrwt>
<rscale>  0 0.12499719E+03</rscale>
<asrwt>0</asrwt>
<pdfrwt beam="1">  1        4 0.13348242E+00 0.12499719E+03</pdfrwt>
<pdfrwt beam="2">  1       -4 0.18289273E-02 0.12499719E+03</pdfrwt>
<totfact> 0.81405052E+02</totfact>
</mgrwt>
</event>
<event>
 5    1  0.1451195E-002  0.1249973E+03  0.7818608E-02  0.1235073E+00
         -4   -1    0    0    0  501 -0.00000000000E+00  0.00000000000E+00  0.13856982136E+02  0.13915058531E+02  0.12700000000E+01 0. -1.
          4   -1    0    0  501    0  0.00000000000E+00 -0.00000000000E+00 -0.28123660844E+03  0.28123947594E+03  0.12700000000E+01 0. -1.
         25    2    1    2    0    0  0.00000000000E+00  0.00000000000E+00 -0.26737962630E+03  0.29515453447E+03  0.12499733860E+03 0.  0.
    9000005    1    3    3    0    0  0.28710792521E+02  0.94266444754E+01 -0.45312715462E+01  0.30572923561E+02  0.10000000000E+01 0.  0.
    9000005    1    3    3    0    0 -0.28710792521E+02 -0.94266444754E+01 -0.26284835475E+03  0.26458161091E+03  0.10000000000E+01 0.  0.
<mgrwt>
<rscale>  0 0.12499734E+03</rscale>
<asrwt>0</asrwt>
<pdfrwt beam="2">  1        4 0.70316752E-01 0.12499734E+03</pdfrwt>
<pdfrwt beam="1">  1       -4 0.34718644E-02 0.12499734E+03</pdfrwt>
<totfact> 0.13108756E+03</totfact>
</mgrwt>
</event>
<event>
 5    1  0.1451195E-002  0.1250549E+03  0.7818608E-02  0.1234983E+00
          4   -1    0    0  501    0  0.00000000000E+00  0.00000000000E+00  0.11596840305E+03  0.11597535689E+03  0.12700000000E+01 0. -1.
         -4   -1    0    0    0  501 -0.00000000000E+00 -0.00000000000E+00 -0.33693416900E+02  0.33717343347E+02  0.12700000000E+01 0. -1.
         25    2    1    2    0    0  0.00000000000E+00  0.00000000000E+00  0.82274986147E+02  0.14969270024E+03  0.12505491257E+03 0.  0.
    9000005    1    3    3    0    0 -0.60118809431E+02  0.14497545104E+02  0.30151475257E+02  0.68808150110E+02  0.10000000000E+01 0.  0.
    9000005    1    3    3    0    0  0.60118809431E+02 -0.14497545104E+02  0.52123510890E+02  0.80884550125E+02  0.10000000000E+01 0.  0.
<mgrwt>
<rscale>  0 0.12505491E+03</rscale>
<asrwt>0</asrwt>
<pdfrwt beam="1">  1        4 0.28995960E-01 0.12505491E+03</pdfrwt>
<pdfrwt beam="2">  1       -4 0.84272144E-02 0.12505491E+03</pdfrwt>
<totfact> 0.18530210E+03</totfact>
</mgrwt>
</event>
<event>
 5    1  0.1451195E-002  0.1250017E+03  0.7818608E-02  0.1235067E+00
          4   -1    0    0  501    0  0.00000000000E+00  0.00000000000E+00  0.46414448965E+03  0.46414622715E+03  0.12700000000E+01 0. -1.
         -4   -1    0    0    0  501 -0.00000000000E+00 -0.00000000000E+00 -0.83665787332E+01  0.84624192580E+01  0.12700000000E+01 0. -1.
         25    2    1    2    0    0  0.00000000000E+00  0.00000000000E+00  0.45577791092E+03  0.47260864640E+03  0.12500171429E+03 0.  0.
    9000005    1    3    3    0    0  0.41160962335E+02 -0.14273789412E+02  0.58493518223E+02  0.72941466661E+02  0.10000000000E+01 0.  0.
    9000005    1    3    3    0    0 -0.41160962335E+02  0.14273789412E+02  0.39728439269E+03  0.39966717974E+03  0.10000000000E+01 0.  0.
<mgrwt>
<rscale>  0 0.12500171E+03</rscale>
<asrwt>0</asrwt>
<pdfrwt beam="1">  1        4 0.11604831E+00 0.12500171E+03</pdfrwt>
<pdfrwt beam="2">  1       -4 0.21038422E-02 0.12500171E+03</pdfrwt>
<totfact> 0.92091181E+02</totfact>
</mgrwt>
</event>
<event>
 5    1  0.1451195E-002  0.1250011E+03  0.7818608E-02  0.1235068E+00
         -4   -1    0    0    0  501 -0.00000000000E+00  0.00000000000E+00  0.14093721739E+03  0.14094293932E+03  0.12700000000E+01 0. -1.
          4   -1    0    0  501    0  0.00000000000E+00 -0.00000000000E+00 -0.27695890382E+02  0.27724993130E+02  0.12700000000E+01 0. -1.
         25    2    1    2    0    0  0.00000000000E+00  0.00000000000E+00  0.11324132700E+03  0.16866793245E+03  0.12500109318E+03 0.  0.
    9000005    1    3    3    0    0 -0.16599993585E+02  0.43874442442E+02  0.90794005937E+00  0.46929210964E+02  0.10000000000E+01 0.  0.
    9000005    1    3    3    0    0  0.16599993585E+02 -0.43874442442E+02  0.11233338695E+03  0.12173872149E+03  0.10000000000E+01 0.  0.
<mgrwt>
<rscale>  0 0.12500109E+03</rscale>
<asrwt>0</asrwt>
<pdfrwt beam="2">  1        4 0.69283257E-02 0.12500109E+03</pdfrwt>
<pdfrwt beam="1">  1       -4 0.35238657E-01 0.12500109E+03</pdfrwt>
<totfact> 0.17656849E+03</totfact>
</mgrwt>
</event>
<event>
 5    1  0.1451195E-002  0.1249995E+03  0.7818608E-02  0.1235070E+00
         -4   -1    0    0    0  501 -0.00000000000E+00  0.00000000000E+00  0.92154283453E+02  0.92163034123E+02  0.12700000000E+01 0.  1.
          4   -1    0    0  501    0  0.00000000000E+00 -0.00000000000E+00 -0.42367522890E+02  0.42386553244E+02  0.12700000000E+01 0.  1.
         25    2    1    2    0    0  0.00000000000E+00  0.00000000000E+00  0.49786760563E+02  0.13454958737E+03  0.12499947973E+03 0.  0.
    9000005    1    3    3    0    0  0.48365348107E+02  0.31558084184E+02 -0.80755267123E+00  0.57764796513E+02  0.10000000000E+01 0.  0.
    9000005    1    3    3    0    0 -0.48365348107E+02 -0.31558084184E+02  0.50594313234E+02  0.76784790854E+02  0.10000000000E+01 0.  0.
<mgrwt>
<rscale>  0 0.12499948E+03</rscale>
<asrwt>0</asrwt>
<pdfrwt beam="2">  1        4 0.10595353E-01 0.12499948E+03</pdfrwt>
<pdfrwt beam="1">  1       -4 0.23042043E-01 0.12499948E+03</pdfrwt>
<totfact> 0.19322990E+03</totfact>
</mgrwt>
</event>
<event>
 5    1  0.1451195E-002  0.1250004E+03  0.7818608E-02  0.1235069E+00
         -4   -1    0    0    0  501 -0.00000000000E+00  0.00000000000E+00  0.10226371131E+02  0.10304929233E+02  0.12700000000E+01 0. -1.
          4   -1    0    0  501    0  0.00000000000E+00 -0.00000000000E+00 -0.38043908070E+03  0.38044120048E+03  0.12700000000E+01 0. -1.
         25    2    1    2    0    0  0.00000000000E+00  0.00000000000E+00 -0.37021270957E+03  0.39074612972E+03  0.12500035024E+03 0.  0.
    9000005    1    3    3    0    0  0.16130030675E+02  0.60336730200E+02 -0.17842162980E+03  0.18903961723E+03  0.10000000000E+01 0.  0.
    9000005    1    3    3    0    0 -0.16130030675E+02 -0.60336730200E+02 -0.19179107977E+03  0.20170651249E+03  0.10000000000E+01 0.  0.
<mgrwt>
<rscale>  0 0.12500035E+03</rscale>
<asrwt>0</asrwt>
<pdfrwt beam="2">  1        4 0.95119808E-01 0.12500035E+03</pdfrwt>
<pdfrwt beam="1">  1       -4 0.25666788E-02 0.12500035E+03</pdfrwt>
<totfact> 0.10762247E+03</totfact>
</mgrwt>
</event>
<event>
 5    1  0.1451195E-002  0.1249957E+03  0.7818608E-02  0.1235076E+00
         -4   -1    0    0    0  501 -0.00000000000E+00  0.00000000000E+00  0.18892685098E+02  0.18935322818E+02  0.12700000000E+01 0. -1.
          4   -1    0    0  501    0  0.00000000000E+00 -0.00000000000E+00 -0.20646795621E+03  0.20647186211E+03  0.12700000000E+01 0. -1.
         25    2    1    2    0    0  0.00000000000E+00  0.00000000000E+00 -0.18757527111E+03  0.22540718492E+03  0.12499566666E+03 0.  0.
    9000005    1    3    3    0    0  0.26947496342E+02  0.36347866208E+02 -0.17151144350E+03  0.17738238410E+03  0.10000000000E+01 0.  0.
    9000005    1    3    3    0    0 -0.26947496342E+02 -0.36347866208E+02 -0.16063827613E+02  0.48024800827E+02  0.10000000000E+01 0.  0.
<mgrwt>
<rscale>  0 0.12499567E+03</rscale>
<asrwt>0</asrwt>
<pdfrwt beam="2">  1        4 0.51622800E-01 0.12499567E+03</pdfrwt>
<pdfrwt beam="1">  1       -4 0.47289899E-02 0.12499567E+03</pdfrwt>
<totfact> 0.15354359E+03</totfact>
</mgrwt>
</event>
<event>
 5    1  0.1451195E-002  0.1250533E+03  0.7818608E-02  0.1234986E+00
         -4   -1    0    0    0  501 -0.00000000000E+00  0.00000000000E+00  0.66424401473E+02  0.66436541233E+02  0.12700000000E+01 0.  1.
          4   -1    0    0  501    0  0.00000000000E+00 -0.00000000000E+00 -0.58833282776E+02  0.58846988557E+02  0.12700000000E+01 0.  1.
         25    2    1    2    0    0  0.00000000000E+00  0.00000000000E+00  0.75911186964E+01  0.12528352979E+03  0.12505333963E+03 0.  0.
    9000005    1    3    3    0    0 -0.11331493062E+02 -0.42885077499E+02  0.47934027098E+02  0.65316181463E+02  0.10000000000E+01 0.  0.
    9000005    1    3    3    0    0  0.11331493062E+02  0.42885077499E+02 -0.40342908401E+02  0.59967348327E+02  0.10000000000E+01 0.  0.
<mgrwt>
<rscale>  0 0.12505334E+03</rscale>
<asrwt>0</asrwt>
<pdfrwt beam="2">  1        4 0.14711551E-01 0.12505334E+03</pdfrwt>
<pdfrwt beam="1">  1       -4 0.16609331E-01 0.12505334E+03</pdfrwt>
<totfact> 0.19794972E+03</totfact>
</mgrwt>
</event>
<event>
 5    1  0.1451195E-002  0.1249942E+03  0.7818608E-02  0.1235078E+00
          4   -1    0    0  501    0  0.00000000000E+00  0.00000000000E+00  0.77144655700E+02  0.77155108730E+02  0.12700000000E+01 0.  1.
         -4   -1    0    0    0  501 -0.00000000000E+00 -0.00000000000E+00 -0.50608838714E+02  0.50624771170E+02  0.12700000000E+01 0.  1.
         25    2    1    2    0    0  0.00000000000E+00  0.00000000000E+00  0.26535816986E+02  0.12777987990E+03  0.12499419236E+03 0.  0.
    9000005    1    3    3    0    0  0.54561438261E+02  0.49129058440E+01 -0.17465361510E+02  0.57507617249E+02  0.10000000000E+01 0.  0.
    9000005    1    3    3    0    0 -0.54561438261E+02 -0.49129058440E+01  0.44001178496E+02  0.70272262650E+02  0.10000000000E+01 0.  0.
<mgrwt>
<rscale>  0 0.12499419E+03</rscale>
<asrwt>0</asrwt>
<pdfrwt beam="1">  1        4 0.19289462E-01 0.12499419E+03</pdfrwt>
<pdfrwt beam="2">  1       -4 0.12655508E-01 0.12499419E+03</pdfrwt>
<totfact> 0.19687188E+03</totfact>
</mgrwt>
</event>
<event>
 5    1  0.1451195E-002  0.1249936E+03  0.7818608E-02  0.1235079E+00
          4   -1    0    0  501    0  0.00000000000E+00  0.00000000000E+00  0.33504681950E+03  0.33504922647E+03  0.12700000000E+01 0. -1.
         -4   -1    0    0    0  501 -0.00000000000E+00 -0.00000000000E+00 -0.11620576753E+02  0.11689769206E+02  0.12700000000E+01 0. -1.
         25    2    1    2    0    0  0.00000000000E+00  0.00000000000E+00  0.32342624275E+03  0.34673899568E+03  0.12499358633E+03 0.  0.
    9000005    1    3    3    0    0  0.17841159176E+02 -0.55296220308E+02  0.97917699705E+02  0.11386331655E+03  0.10000000000E+01 0.  0.
    9000005    1    3    3    0    0 -0.17841159176E+02  0.55296220308E+02  0.22550854304E+03  0.23287567912E+03  0.10000000000E+01 0.  0.
<mgrwt>
<rscale>  0 0.12499359E+03</rscale>
<asrwt>0</asrwt>
<pdfrwt beam="1">  1        4 0.83770655E-01 0.12499359E+03</pdfrwt>
<pdfrwt beam="2">  1       -4 0.29140941E-02 0.12499359E+03</pdfrwt>
<totfact> 0.11757211E+03</totfact>
</mgrwt>
</event>
<event>
 5    1  0.1451195E-002  0.1249995E+03  0.7818608E-02  0.1235070E+00
          4   -1    0    0  501    0  0.00000000000E+00  0.00000000000E+00  0.36378653976E+03  0.36378875657E+03  0.12700000000E+01 0. -1.
         -4   -1    0    0    0  501 -0.00000000000E+00 -0.00000000000E+00 -0.10697863793E+02  0.10772984254E+02  0.12700000000E+01 0. -1.
         25    2    1    2    0    0  0.00000000000E+00  0.00000000000E+00  0.35308867596E+03  0.37456174082E+03  0.12499953838E+03 0.  0.
    9000005    1    3    3    0    0 -0.14273295284E+02  0.11975317628E+02  0.35528494295E+03  0.35577454361E+03  0.10000000000E+01 0.  0.
    9000005    1    3    3    0    0  0.14273295284E+02 -0.11975317628E+02 -0.21962669899E+01  0.18787197216E+02  0.10000000000E+01 0.  0.
<mgrwt>
<rscale>  0 0.12499954E+03</rscale>
<asrwt>0</asrwt>
<pdfrwt beam="1">  1        4 0.90956298E-01 0.12499954E+03</pdfrwt>
<pdfrwt beam="2">  1       -4 0.26841332E-02 0.12499954E+03</pdfrwt>
<totfact> 0.11112781E+03</totfact>
</mgrwt>
</event>
<event>
 5    1  0.1451195E-002  0.1250050E+03  0.7818608E-02  0.1235061E+00
          4   -1    0    0  501    0  0.00000000000E+00  0.00000000000E+00  0.86024924708E+01  0.86957332475E+01  0.12700000000E+01 0. -1.
         -4   -1    0    0    0  501 -0.00000000000E+00 -0.00000000000E+00 -0.45157789083E+03  0.45157967667E+03  0.12700000000E+01 0. -1.
         25    2    1    2    0    0  0.00000000000E+00  0.00000000000E+00 -0.44297539836E+03  0.46027540992E+03  0.12500499761E+03 0.  0.
    9000005    1    3    3    0    0 -0.22852889807E+02 -0.42483702127E+02 -0.36777439371E+03  0.37092603601E+03  0.10000000000E+01 0.  0.
    9000005    1    3    3    0    0  0.22852889807E+02  0.42483702127E+02 -0.75201004647E+02  0.89349373914E+02  0.10000000000E+01 0.  0.
<mgrwt>
<rscale>  0 0.12500500E+03</rscale>
<asrwt>0</asrwt>
<pdfrwt beam="1">  1        4 0.21625030E-02 0.12500500E+03</pdfrwt>
<pdfrwt beam="2">  1       -4 0.11290627E+00 0.12500500E+03</pdfrwt>
<totfact> 0.94190381E+02</totfact>
</mgrwt>
</event>
<event>
 5    1  0.1451195E-002  0.1249995E+03  0.7818608E-02  0.1235070E+00
          4   -1    0    0  501    0  0.00000000000E+00  0.00000000000E+00  0.11185179988E+03  0.11185900963E+03  0.12700000000E+01 0.  1.
         -4   -1    0    0    0  501 -0.00000000000E+00 -0.00000000000E+00 -0.34903253865E+02  0.34926351518E+02  0.12700000000E+01 0.  1.
         25    2    1    2    0    0  0.00000000000E+00  0.00000000000E+00  0.76948546011E+02  0.14678536115E+03  0.12499945406E+03 0.  0.
    9000005    1    3    3    0    0  0.21167248253E+02 -0.26719881149E+02 -0.23029855696E+02  0.41150682869E+02  0.10000000000E+01 0.  0.
    9000005    1    3    3    0    0 -0.21167248253E+02  0.26719881149E+02  0.99978401707E+02  0.10563467828E+03  0.10000000000E+01 0.  0.
<mgrwt>
<rscale>  0 0.12499945E+03</rscale>
<asrwt>0</asrwt>
<pdfrwt beam="1">  1        4 0.27966738E-01 0.12499945E+03</pdfrwt>
<pdfrwt beam="2">  1       -4 0.87296019E-02 0.12499945E+03</pdfrwt>
<totfact> 0.18698220E+03</totfact>
</mgrwt>
</event>
<event>
 5    1  0.1451195E-002  0.1249969E+03  0.7818608E-02  0.1235074E+00
          4   -1    0    0  501    0  0.00000000000E+00  0.00000000000E+00  0.45629053115E+01  0.47363493200E+01  0.12700000000E+01 0. -1.
         -4   -1    0    0    0  501 -0.00000000000E+00 -0.00000000000E+00 -0.83990569997E+03  0.83990666013E+03  0.12700000000E+01 0. -1.
         25    2    1    2    0    0  0.00000000000E+00  0.00000000000E+00 -0.83534279466E+03  0.84464300945E+03  0.12499691531E+03 0.  0.
    9000005    1    3    3    0    0  0.28494550609E+02 -0.16797856681E+01 -0.42029570084E+02  0.50815803209E+02  0.10000000000E+01 0.  0.
    9000005    1    3    3    0    0 -0.28494550609E+02  0.16797856681E+01 -0.79331322457E+03  0.79382720625E+03  0.10000000000E+01 0.  0.
<mgrwt>
<rscale>  0 0.12499692E+03</rscale>
<asrwt>0</asrwt>
<pdfrwt beam="1">  1        4 0.11625297E-02 0.12499692E+03</pdfrwt>
<pdfrwt beam="2">  1       -4 0.20999771E+00 0.12499692E+03</pdfrwt>
<totfact> 0.48675329E+02</totfact>
</mgrwt>
</event>
<event>
 5    1  0.1451195E-002  0.1250020E+03  0.7818608E-02  0.1235066E+00
         -4   -1    0    0    0  501 -0.00000000000E+00  0.00000000000E+00  0.42801532081E+03  0.42801720497E+03  0.12700000000E+01 0. -1.
          4   -1    0    0  501    0  0.00000000000E+00 -0.00000000000E+00 -0.90806215258E+01  0.91690014339E+01  0.12700000000E+01 0. -1.
         25    2    1    2    0    0  0.00000000000E+00  0.00000000000E+00  0.41893469929E+03  0.43718620641E+03  0.12500198720E+03 0.  0.
    9000005    1    3    3    0    0 -0.46584374087E+02  0.16048429342E+01  0.35505031672E+03  0.35809832006E+03  0.10000000000E+01 0.  0.
    9000005    1    3    3    0    0  0.46584374087E+02 -0.16048429342E+01  0.63884382572E+02  0.79087886345E+02  0.10000000000E+01 0.  0.
<mgrwt>
<rscale>  0 0.12500199E+03</rscale>
<asrwt>0</asrwt>
<pdfrwt beam="2">  1        4 0.22814388E-02 0.12500199E+03</pdfrwt>
<pdfrwt beam="1">  1       -4 0.10701510E+00 0.12500199E+03</pdfrwt>
<totfact> 0.98359463E+02</totfact>
</mgrwt>
</event>
<event>
 5    1  0.1451195E-002  0.1249933E+03  0.7818608E-02  0.1235080E+00
         -4   -1    0    0    0  501 -0.00000000000E+00  0.00000000000E+00  0.50583795216E+02  0.50599735557E+02  0.12700000000E+01 0. -1.
          4   -1    0    0  501    0  0.00000000000E+00 -0.00000000000E+00 -0.77181789106E+02  0.77192237108E+02  0.12700000000E+01 0. -1.
         25    2    1    2    0    0  0.00000000000E+00  0.00000000000E+00 -0.26597993890E+02  0.12779197266E+03  0.12499333982E+03 0.  0.
    9000005    1    3    3    0    0 -0.22039462717E+02  0.58016002815E+02 -0.20758891123E+02  0.65448652088E+02  0.10000000000E+01 0.  0.
    9000005    1    3    3    0    0  0.22039462717E+02 -0.58016002815E+02 -0.58391027671E+01  0.62343320577E+02  0.10000000000E+01 0.  0.
<mgrwt>
<rscale>  0 0.12499334E+03</rscale>
<asrwt>0</asrwt>
<pdfrwt beam="2">  1        4 0.19298746E-01 0.12499334E+03</pdfrwt>
<pdfrwt beam="1">  1       -4 0.12649247E-01 0.12499334E+03</pdfrwt>
<totfact> 0.19686921E+03</totfact>
</mgrwt>
</event>
<event>
 5    1  0.1451195E-002  0.1249988E+03  0.7818608E-02  0.1235071E+00
         -4   -1    0    0    0  501 -0.00000000000E+00  0.00000000000E+00  0.18621784732E+03  0.18622217795E+03  0.12700000000E+01 0.  1.
          4   -1    0    0  501    0  0.00000000000E+00 -0.00000000000E+00 -0.20952568685E+02  0.20991022712E+02  0.12700000000E+01 0.  1.
         25    2    1    2    0    0  0.00000000000E+00  0.00000000000E+00  0.16526527864E+03  0.20721320067E+03  0.12499879282E+03 0.  0.
    9000005    1    3    3    0    0 -0.47029621044E+02  0.12116445087E+01  0.15081965262E+03  0.15798993941E+03  0.10000000000E+01 0.  0.
    9000005    1    3    3    0    0  0.47029621044E+02 -0.12116445087E+01  0.14445626022E+02  0.49223261261E+02  0.10000000000E+01 0.  0.
<mgrwt>
<rscale>  0 0.12499879E+03</rscale>
<asrwt>0</asrwt>
<pdfrwt beam="2">  1        4 0.52434903E-02 0.12499879E+03</pdfrwt>
<pdfrwt beam="1">  1       -4 0.46559809E-01 0.12499879E+03</pdfrwt>
<totfact> 0.16037679E+03</totfact>
</mgrwt>
</event>
<event>
 5    1  0.1451195E-002  0.1250002E+03  0.7818608E-02  0.1235069E+00
          4   -1    0    0  501    0  0.00000000000E+00  0.00000000000E+00  0.38661263975E+01  0.40693775103E+01  0.12700000000E+01 0. -1.
         -4   -1    0    0    0  501 -0.00000000000E+00 -0.00000000000E+00 -0.98429844012E+03  0.98429925944E+03  0.12700000000E+01 0. -1.
         25    2    1    2    0    0  0.00000000000E+00  0.00000000000E+00 -0.98043231372E+03  0.98836863695E+03  0.12500016282E+03 0.  0.
    9000005    1    3    3    0    0  0.20719172038E+02  0.45584684469E+02 -0.19457565943E+03  0.20091773140E+03  0.10000000000E+01 0.  0.
    9000005    1    3    3    0    0 -0.20719172038E+02 -0.45584684469E+02 -0.78585665429E+03  0.78745090554E+03  0.10000000000E+01 0.  0.
<mgrwt>
<rscale>  0 0.12500016E+03</rscale>
<asrwt>0</asrwt>
<pdfrwt beam="1">  1        4 0.99204377E-03 0.12500016E+03</pdfrwt>
<pdfrwt beam="2">  1       -4 0.24609928E+00 0.12500016E+03</pdfrwt>
<totfact> 0.37897509E+02</totfact>
</mgrwt>
</event>
<event>
 5    1  0.1451195E-002  0.1250000E+03  0.7818608E-02  0.1235069E+00
         -4   -1    0    0    0  501 -0.00000000000E+00  0.00000000000E+00  0.52048218534E+01  0.53575246640E+01  0.12700000000E+01 0. -1.
          4   -1    0    0  501    0  0.00000000000E+00 -0.00000000000E+00 -0.73950193144E+03  0.73950302197E+03  0.12700000000E+01 0. -1.
         25    2    1    2    0    0  0.00000000000E+00  0.00000000000E+00 -0.73429710958E+03  0.74486054663E+03  0.12499995514E+03 0.  0.
    9000005    1    3    3    0    0 -0.50490959553E+02 -0.14005593116E+02 -0.57007935674E+03  0.57248315837E+03  0.10000000000E+01 0.  0.
    9000005    1    3    3    0    0  0.50490959553E+02  0.14005593116E+02 -0.16421775284E+03  0.17237738826E+03  0.10000000000E+01 0.  0.
<mgrwt>
<rscale>  0 0.12499996E+03</rscale>
<asrwt>0</asrwt>
<pdfrwt beam="2">  1        4 0.18489435E+00 0.12499996E+03</pdfrwt>
<pdfrwt beam="1">  1       -4 0.13204322E-02 0.12499996E+03</pdfrwt>
<totfact> 0.57563552E+02</totfact>
</mgrwt>
</event>
<event>
 5    1  0.1451195E-002  0.1250018E+03  0.7818608E-02  0.1235066E+00
          4   -1    0    0  501    0  0.00000000000E+00  0.00000000000E+00  0.17743768472E+02  0.17789160171E+02  0.12700000000E+01 0. -1.
         -4   -1    0    0    0  501 -0.00000000000E+00 -0.00000000000E+00 -0.21982554669E+03  0.21982921525E+03  0.12700000000E+01 0. -1.
         25    2    1    2    0    0  0.00000000000E+00  0.00000000000E+00 -0.20208177822E+03  0.23761837542E+03  0.12500178899E+03 0.  0.
    9000005    1    3    3    0    0 -0.19460325378E+02 -0.54483115399E+02 -0.56127351952E+02  0.80612615418E+02  0.10000000000E+01 0.  0.
    9000005    1    3    3    0    0  0.19460325378E+02  0.54483115399E+02 -0.14595442627E+03  0.15700576000E+03  0.10000000000E+01 0.  0.
<mgrwt>
<rscale>  0 0.12500179E+03</rscale>
<asrwt>0</asrwt>
<pdfrwt beam="1">  1        4 0.44420753E-02 0.12500179E+03</pdfrwt>
<pdfrwt beam="2">  1       -4 0.54962511E-01 0.12500179E+03</pdfrwt>
<totfact> 0.14918243E+03</totfact>
</mgrwt>
</event>
<event>
 5    1  0.1451195E-002  0.1250009E+03  0.7818608E-02  0.1235068E+00
          4   -1    0    0  501    0  0.00000000000E+00  0.00000000000E+00  0.22482113449E+03  0.22482472154E+03  0.12700000000E+01 0.  1.
         -4   -1    0    0    0  501 -0.00000000000E+00 -0.00000000000E+00 -0.17348234618E+02  0.17394658501E+02  0.12700000000E+01 0.  1.
         25    2    1    2    0    0  0.00000000000E+00  0.00000000000E+00  0.20747289988E+03  0.24221938004E+03  0.12500089553E+03 0.  0.
    9000005    1    3    3    0    0 -0.58227590862E+02  0.22578413564E+02  0.10809911151E+03  0.12484652581E+03  0.10000000000E+01 0.  0.
    9000005    1    3    3    0    0  0.58227590862E+02 -0.22578413564E+02  0.99373788363E+02  0.11737285423E+03  0.10000000000E+01 0.  0.
<mgrwt>
<rscale>  0 0.12500090E+03</rscale>
<asrwt>0</asrwt>
<pdfrwt beam="1">  1        4 0.56211535E-01 0.12500090E+03</pdfrwt>
<pdfrwt beam="2">  1       -4 0.43433101E-02 0.12500090E+03</pdfrwt>
<totfact> 0.14759991E+03</totfact>
</mgrwt>
</event>
<event>
 5    1  0.1451195E-002  0.1250016E+03  0.7818608E-02  0.1235067E+00
         -4   -1    0    0    0  501 -0.00000000000E+00  0.00000000000E+00  0.16932648368E+02  0.16980208502E+02  0.12700000000E+01 0.  1.
          4   -1    0    0  501    0  0.00000000000E+00 -0.00000000000E+00 -0.23032631123E+03  0.23032981254E+03  0.12700000000E+01 0.  1.
         25    2    1    2    0    0  0.00000000000E+00  0.00000000000E+00 -0.21339366286E+03  0.24731002104E+03  0.12500156462E+03 0.  0.
    9000005    1    3    3    0    0 -0.38605785818E+02 -0.48310219830E+02 -0.12450993581E+03  0.13902520690E+03  0.10000000000E+01 0.  0.
    9000005    1    3    3    0    0  0.38605785818E+02  0.48310219830E+02 -0.88883727046E+02  0.10828481413E+03  0.10000000000E+01 0.  0.
<mgrwt>
<rscale>  0 0.12500156E+03</rscale>
<asrwt>0</asrwt>
<pdfrwt beam="2">  1        4 0.57587951E-01 0.12500156E+03</pdfrwt>
<pdfrwt beam="1">  1       -4 0.42395455E-02 0.12500156E+03</pdfrwt>
<totfact> 0.14587366E+03</totfact>
</mgrwt>
</event>
<event>
 5    1  0.1451195E-002  0.1249999E+03  0.7818608E-02  0.1235069E+00
         -4   -1    0    0    0  501 -0.00000000000E+00  0.00000000000E+00  0.21462733285E+03  0.21463109026E+03  0.12700000000E+01 0.  1.
          4   -1    0    0  501    0  0.00000000000E+00 -0.00000000000E+00 -0.18174056633E+02  0.18218376286E+02  0.12700000000E+01 0.  1.
         25    2    1    2    0    0  0.00000000000E+00  0.00000000000E+00  0.19645327622E+03  0.23284946655E+03  0.12499993734E+03 0.  0.
    9000005    1    3    3    0    0 -0.20884054847E+02 -0.44560540340E+02  0.26479685852E+02  0.55892390046E+02  0.10000000000E+01 0.  0.
    9000005    1    3    3    0    0  0.20884054847E+02  0.44560540340E+02  0.16997359037E+03  0.17695707650E+03  0.10000000000E+01 0.  0.
<mgrwt>
<rscale>  0 0.12499994E+03</rscale>
<asrwt>0</asrwt>
<pdfrwt beam="2">  1        4 0.45495239E-02 0.12499994E+03</pdfrwt>
<pdfrwt beam="1">  1       -4 0.53662842E-01 0.12499994E+03</pdfrwt>
<totfact> 0.15086047E+03</totfact>
</mgrwt>
</event>
<event>
 5    1  0.1451195E-002  0.1249964E+03  0.7818608E-02  0.1235075E+00
          4   -1    0    0  501    0  0.00000000000E+00  0.00000000000E+00  0.68362168901E+03  0.68362286868E+03  0.12700000000E+01 0. -1.
         -4   -1    0    0    0  501 -0.00000000000E+00 -0.00000000000E+00 -0.56419530256E+01  0.57831249289E+01  0.12700000000E+01 0. -1.
         25    2    1    2    0    0  0.00000000000E+00  0.00000000000E+00  0.67797973599E+03  0.68940599361E+03  0.12499640643E+03 0.  0.
    9000005    1    3    3    0    0 -0.16370512188E+02  0.28814306948E+02  0.63119022558E+03  0.63206040757E+03  0.10000000000E+01 0.  0.
    9000005    1    3    3    0    0  0.16370512188E+02 -0.28814306948E+02  0.46789510408E+02  0.57345586041E+02  0.10000000000E+01 0.  0.
<mgrwt>
<rscale>  0 0.12499641E+03</rscale>
<asrwt>0</asrwt>
<pdfrwt beam="1">  1        4 0.17092320E+00 0.12499641E+03</pdfrwt>
<pdfrwt beam="2">  1       -4 0.14282824E-02 0.12499641E+03</pdfrwt>
<totfact> 0.63181103E+02</totfact>
</mgrwt>
</event>
<event>
 5    1  0.1451195E-002  0.1249985E+03  0.7818608E-02  0.1235072E+00
         -4   -1    0    0    0  501 -0.00000000000E+00  0.00000000000E+00  0.13929832560E+04  0.13929838349E+04  0.12700000000E+01 0. -1.
          4   -1    0    0  501    0  0.00000000000E+00 -0.00000000000E+00 -0.26597609873E+01  0.29474104753E+01  0.12700000000E+01 0. -1.
         25    2    1    2    0    0  0.00000000000E+00  0.00000000000E+00  0.13903234950E+04  0.13959312454E+04  0.12499848453E+03 0.  0.
    9000005    1    3    3    0    0  0.43193848142E+02  0.41131235496E+02  0.90339102183E+03  0.90535839609E+03  0.10000000000E+01 0.  0.
    9000005    1    3    3    0    0 -0.43193848142E+02 -0.41131235496E+02  0.48693247317E+03  0.49057284931E+03  0.10000000000E+01 0.  0.
<mgrwt>
<rscale>  0 0.12499848E+03</rscale>
<asrwt>0</asrwt>
<pdfrwt beam="2">  1        4 0.70096880E-03 0.12499848E+03</pdfrwt>
<pdfrwt beam="1">  1       -4 0.34828184E+00 0.12499848E+03</pdfrwt>
<totfact> 0.16248463E+02</totfact>
</mgrwt>
</event>
<event>
 5    1  0.1451195E-002  0.1250018E+03  0.7818608E-02  0.1235066E+00
         -4   -1    0    0    0  501 -0.00000000000E+00  0.00000000000E+00  0.10594364414E+03  0.10595125593E+03  0.12700000000E+01 0. -1.
          4   -1    0    0  501    0  0.00000000000E+00 -0.00000000000E+00 -0.36852195344E+02  0.36874072214E+02  0.12700000000E+01 0. -1.
         25    2    1    2    0    0  0.00000000000E+00  0.00000000000E+00  0.69091448792E+02  0.14282532814E+03  0.12500178424E+03 0.  0.
    9000005    1    3    3    0    0 -0.40275467075E+02 -0.32178541541E+02  0.74906520337E+02  0.90937113286E+02  0.10000000000E+01 0.  0.
    9000005    1    3    3    0    0  0.40275467075E+02  0.32178541541E+02 -0.58150715457E+01  0.51888214856E+02  0.10000000000E+01 0.  0.
<mgrwt>
<rscale>  0 0.12500178E+03</rscale>
<asrwt>0</asrwt>
<pdfrwt beam="2">  1        4 0.92167350E-02 0.12500178E+03</pdfrwt>
<pdfrwt beam="1">  1       -4 0.26489597E-01 0.12500178E+03</pdfrwt>
<totfact> 0.18895938E+03</totfact>
</mgrwt>
</event>
<event>
 5    1  0.1451195E-002  0.1250011E+03  0.7818608E-02  0.1235068E+00
         -4   -1    0    0    0  501 -0.00000000000E+00  0.00000000000E+00  0.93970023270E+01  0.94824339035E+01  0.12700000000E+01 0.  1.
          4   -1    0    0  501    0  0.00000000000E+00 -0.00000000000E+00 -0.41373081192E+03  0.41373276113E+03  0.12700000000E+01 0.  1.
         25    2    1    2    0    0  0.00000000000E+00  0.00000000000E+00 -0.40433380959E+03  0.42321519503E+03  0.12500108690E+03 0.  0.
    9000005    1    3    3    0    0  0.42317704529E+02 -0.76442378485E+01 -0.48645442609E+02  0.64935364598E+02  0.10000000000E+01 0.  0.
    9000005    1    3    3    0    0 -0.42317704529E+02  0.76442378485E+01 -0.35568836699E+03  0.35827983044E+03  0.10000000000E+01 0.  0.
<mgrwt>
<rscale>  0 0.12500109E+03</rscale>
<asrwt>0</asrwt>
<pdfrwt beam="2">  1        4 0.10344356E+00 0.12500109E+03</pdfrwt>
<pdfrwt beam="1">  1       -4 0.23601746E-02 0.12500109E+03</pdfrwt>
<totfact> 0.10102869E+03</totfact>
</mgrwt>
</event>
<event>
 5    1  0.1451195E-002  0.1249997E+03  0.7818608E-02  0.1235070E+00
          4   -1    0    0  501    0  0.00000000000E+00  0.00000000000E+00  0.35107581889E+02  0.35130545201E+02  0.12700000000E+01 0.  1.
         -4   -1    0    0    0  501 -0.00000000000E+00 -0.00000000000E+00 -0.11120155941E+03  0.11120881132E+03  0.12700000000E+01 0.  1.
         25    2    1    2    0    0  0.00000000000E+00  0.00000000000E+00 -0.76093977521E+02  0.14633935652E+03  0.12499965541E+03 0.  0.
    9000005    1    3    3    0    0  0.15191853041E+01 -0.59147001982E+02 -0.61594221420E+02  0.85413838924E+02  0.10000000000E+01 0.  0.
    9000005    1    3    3    0    0 -0.15191853041E+01  0.59147001982E+02 -0.14499756101E+02  0.60925517597E+02  0.10000000000E+01 0.  0.
<mgrwt>
<rscale>  0 0.12499966E+03</rscale>
<asrwt>0</asrwt>
<pdfrwt beam="1">  1        4 0.87806726E-02 0.12499966E+03</pdfrwt>
<pdfrwt beam="2">  1       -4 0.27804166E-01 0.12499966E+03</pdfrwt>
<totfact> 0.18720402E+03</totfact>
</mgrwt>
</event>
<event>
 5    1  0.1451195E-002  0.1249998E+03  0.7818608E-02  0.1235070E+00
         -4   -1    0    0    0  501 -0.00000000000E+00  0.00000000000E+00  0.21885776151E+03  0.21886144629E+03  0.12700000000E+01 0.  1.
          4   -1    0    0  501    0  0.00000000000E+00 -0.00000000000E+00 -0.17821866144E+02  0.17867059435E+02  0.12700000000E+01 0.  1.
         25    2    1    2    0    0  0.00000000000E+00  0.00000000000E+00  0.20103589536E+03  0.23672850573E+03  0.12499981679E+03 0.  0.
    9000005    1    3    3    0    0  0.18601165864E+02  0.39654936504E+01 -0.12216856283E+02  0.22626977015E+02  0.10000000000E+01 0.  0.
    9000005    1    3    3    0    0 -0.18601165864E+02 -0.39654936504E+01  0.21325275165E+03  0.21410152871E+03  0.10000000000E+01 0.  0.
<mgrwt>
<rscale>  0 0.12499982E+03</rscale>
<asrwt>0</asrwt>
<pdfrwt beam="2">  1        4 0.44615763E-02 0.12499982E+03</pdfrwt>
<pdfrwt beam="1">  1       -4 0.54720550E-01 0.12499982E+03</pdfrwt>
<totfact> 0.14949893E+03</totfact>
</mgrwt>
</event>
<event>
 5    1  0.1451195E-002  0.1249979E+03  0.7818608E-02  0.1235073E+00
         -4   -1    0    0    0  501 -0.00000000000E+00  0.00000000000E+00  0.14020427304E+03  0.14021002489E+03  0.12700000000E+01 0.  1.
          4   -1    0    0  501    0  0.00000000000E+00 -0.00000000000E+00 -0.27839399856E+02  0.27868352738E+02  0.12700000000E+01 0.  1.
         25    2    1    2    0    0  0.00000000000E+00  0.00000000000E+00  0.11236487319E+03  0.16807837763E+03  0.12499790518E+03 0.  0.
    9000005    1    3    3    0    0 -0.82957515116E+00  0.38321407918E+02  0.12254740494E+03  0.12840593817E+03  0.10000000000E+01 0.  0.
    9000005    1    3    3    0    0  0.82957515116E+00 -0.38321407918E+02 -0.10182531751E+02  0.39672439459E+02  0.10000000000E+01 0.  0.
<mgrwt>
<rscale>  0 0.12499791E+03</rscale>
<asrwt>0</asrwt>
<pdfrwt beam="2">  1        4 0.69641881E-02 0.12499791E+03</pdfrwt>
<pdfrwt beam="1">  1       -4 0.35055406E-01 0.12499791E+03</pdfrwt>
<totfact> 0.17684930E+03</totfact>
</mgrwt>
</event>
<event>
 5    1  0.1451195E-002  0.1250002E+03  0.7818608E-02  0.1235069E+00
          4   -1    0    0  501    0  0.00000000000E+00  0.00000000000E+00  0.12630747718E+02  0.12694435313E+02  0.12700000000E+01 0. -1.
         -4   -1    0    0    0  501 -0.00000000000E+00 -0.00000000000E+00 -0.30842362296E+03  0.30842623770E+03  0.12700000000E+01 0. -1.
         25    2    1    2    0    0  0.00000000000E+00  0.00000000000E+00 -0.29579287524E+03  0.32112067301E+03  0.12500024636E+03 0.  0.
    9000005    1    3    3    0    0  0.84331377233E+01 -0.61271909240E+02 -0.17085965585E+03  0.18171237347E+03  0.10000000000E+01 0.  0.
    9000005    1    3    3    0    0 -0.84331377233E+01  0.61271909240E+02 -0.12493321939E+03  0.13940829954E+03  0.10000000000E+01 0.  0.
<mgrwt>
<rscale>  0 0.12500025E+03</rscale>
<asrwt>0</asrwt>
<pdfrwt beam="1">  1        4 0.31659757E-02 0.12500025E+03</pdfrwt>
<pdfrwt beam="2">  1       -4 0.77114169E-01 0.12500025E+03</pdfrwt>
<totfact> 0.12399027E+03</totfact>
</mgrwt>
</event>
<event>
 5    1  0.1451195E-002  0.1250024E+03  0.7818608E-02  0.1235065E+00
         -4   -1    0    0    0  501 -0.00000000000E+00  0.00000000000E+00  0.45858287037E+02  0.45875869365E+02  0.12700000000E+01 0.  1.
          4   -1    0    0  501    0  0.00000000000E+00 -0.00000000000E+00 -0.85145568397E+02  0.85155039297E+02  0.12700000000E+01 0.  1.
         25    2    1    2    0    0  0.00000000000E+00  0.00000000000E+00 -0.39287281360E+02  0.13103090866E+03  0.12500243417E+03 0.  0.
    9000005    1    3    3    0    0  0.53655948125E+01  0.56245641320E+02 -0.47634249160E+02  0.73907939142E+02  0.10000000000E+01 0.  0.
    9000005    1    3    3    0    0 -0.53655948125E+01 -0.56245641320E+02  0.83469678005E+01  0.57122969519E+02  0.10000000000E+01 0.  0.
<mgrwt>
<rscale>  0 0.12500243E+03</rscale>
<asrwt>0</asrwt>
<pdfrwt beam="2">  1        4 0.21289773E-01 0.12500243E+03</pdfrwt>
<pdfrwt beam="1">  1       -4 0.11467954E-01 0.12500243E+03</pdfrwt>
<totfact> 0.19508013E+03</totfact>
</mgrwt>
</event>
<event>
 5    1  0.1451195E-002  0.1250021E+03  0.7818608E-02  0.1235066E+00
         -4   -1    0    0    0  501 -0.00000000000E+00  0.00000000000E+00  0.70623344009E+02  0.70634762115E+02  0.12700000000E+01 0. -1.
          4   -1    0    0  501    0  0.00000000000E+00 -0.00000000000E+00 -0.55289706144E+02  0.55304290119E+02  0.12700000000E+01 0. -1.
         25    2    1    2    0    0  0.00000000000E+00  0.00000000000E+00  0.15333637865E+02  0.12593905223E+03  0.12500209769E+03 0.  0.
    9000005    1    3    3    0    0 -0.38630614885E+02  0.31282322181E+02  0.45825144724E+02  0.67615471428E+02  0.10000000000E+01 0.  0.
    9000005    1    3    3    0    0  0.38630614885E+02 -0.31282322181E+02 -0.30491506859E+02  0.58323580806E+02  0.10000000000E+01 0.  0.
<mgrwt>
<rscale>  0 0.12500210E+03</rscale>
<asrwt>0</asrwt>
<pdfrwt beam="2">  1        4 0.13825677E-01 0.12500210E+03</pdfrwt>
<pdfrwt beam="1">  1       -4 0.17659086E-01 0.12500210E+03</pdfrwt>
<totfact> 0.19783243E+03</totfact>
</mgrwt>
</event>
<event>
 5    1  0.1451195E-002  0.1250022E+03  0.7818608E-02  0.1235066E+00
          4   -1    0    0  501    0  0.00000000000E+00  0.00000000000E+00  0.73599163346E+02  0.73610119856E+02  0.12700000000E+01 0.  1.
         -4   -1    0    0    0  501 -0.00000000000E+00 -0.00000000000E+00 -0.53054040405E+02  0.53069238767E+02  0.12700000000E+01 0.  1.
         25    2    1    2    0    0  0.00000000000E+00  0.00000000000E+00  0.20545122941E+02  0.12667935862E+03  0.12500223128E+03 0.  0.
    9000005    1    3    3    0    0 -0.15943868661E+02  0.60131444230E+02  0.16301490495E+02  0.64317463612E+02  0.10000000000E+01 0.  0.
    9000005    1    3    3    0    0  0.15943868661E+02 -0.60131444230E+02  0.42436324461E+01  0.62361895011E+02  0.10000000000E+01 0.  0.
<mgrwt>
<rscale>  0 0.12500223E+03</rscale>
<asrwt>0</asrwt>
<pdfrwt beam="1">  1        4 0.18403060E-01 0.12500223E+03</pdfrwt>
<pdfrwt beam="2">  1       -4 0.13266780E-01 0.12500223E+03</pdfrwt>
<totfact> 0.19743223E+03</totfact>
</mgrwt>
</event>
<event>
 5    1  0.1451195E-002  0.1250003E+03  0.7818608E-02  0.1235069E+00
         -4   -1    0    0    0  501 -0.00000000000E+00  0.00000000000E+00  0.45773218846E+02  0.45790833837E+02  0.12700000000E+01 0. -1.
          4   -1    0    0  501    0  0.00000000000E+00 -0.00000000000E+00 -0.85300870493E+02  0.85310324151E+02  0.12700000000E+01 0. -1.
         25    2    1    2    0    0  0.00000000000E+00  0.00000000000E+00 -0.39527651647E+02  0.13110115799E+03  0.12500031352E+03 0.  0.
    9000005    1    3    3    0    0 -0.54970049950E+02 -0.21937657605E+02 -0.40800240722E+02  0.71893162788E+02  0.10000000000E+01 0.  0.
    9000005    1    3    3    0    0  0.54970049950E+02  0.21937657605E+02  0.12725890753E+01  0.59207995200E+02  0.10000000000E+01 0.  0.
<mgrwt>
<rscale>  0 0.12500031E+03</rscale>
<asrwt>0</asrwt>
<pdfrwt beam="2">  1        4 0.21328601E-01 0.12500031E+03</pdfrwt>
<pdfrwt beam="1">  1       -4 0.11446688E-01 0.12500031E+03</pdfrwt>
<totfact> 0.19505224E+03</totfact>
</mgrwt>
</event>
<event>
 4    1  0.1451195E-002  0.1256051E+03  0.7818608E-02  0.1234127E+00
         -4   -1    0    0    0  501 -0.00000000000E+00  0.00000000000E+00  0.21181225825E+02  0.21219265479E+02  0.12700000000E+01 0.  1.
          4   -1    0    0  501    0  0.00000000000E+00 -0.00000000000E+00 -0.18600281153E+03  0.18600714717E+03  0.12700000000E+01 0.  1.
    9000005    1    1    2    0    0 -0.14643483617E+02 -0.50840027372E+02 -0.26608202851E+02  0.59229523505E+02  0.10000000000E+01 0.  0.
    9000005    1    1    2    0    0  0.14643483617E+02  0.50840027372E+02 -0.13821338286E+03  0.14799688914E+03  0.10000000000E+01 0.  0.
<mgrwt>
<rscale>  0 0.12560506E+03</rscale>
<asrwt>0</asrwt>
<pdfrwt beam="2">  1        4 0.46505995E-01 0.12560506E+03</pdfrwt>
<pdfrwt beam="1">  1       -4 0.53006039E-02 0.12560506E+03</pdfrwt>
<totfact> 0.15814555E+03</totfact>
</mgrwt>
</event>
<event>
 5    1  0.1451195E-002  0.1249969E+03  0.7818608E-02  0.1235074E+00
         -4   -1    0    0    0  501 -0.00000000000E+00  0.00000000000E+00  0.68907053520E+02  0.68918755972E+02  0.12700000000E+01 0.  1.
          4   -1    0    0  501    0  0.00000000000E+00 -0.00000000000E+00 -0.56662267569E+02  0.56676498358E+02  0.12700000000E+01 0.  1.
         25    2    1    2    0    0  0.00000000000E+00  0.00000000000E+00  0.12244785950E+02  0.12559525433E+03  0.12499693247E+03 0.  0.
    9000005    1    3    3    0    0 -0.16560581357E+02 -0.35294906429E+01 -0.54318246220E+02  0.56905026417E+02  0.10000000000E+01 0.  0.
    9000005    1    3    3    0    0  0.16560581357E+02  0.35294906429E+01  0.66563032170E+02  0.68690227913E+02  0.10000000000E+01 0.  0.
<mgrwt>
<rscale>  0 0.12499693E+03</rscale>
<asrwt>0</asrwt>
<pdfrwt beam="2">  1        4 0.14168809E-01 0.12499693E+03</pdfrwt>
<pdfrwt beam="1">  1       -4 0.17230005E-01 0.12499693E+03</pdfrwt>
<totfact> 0.19804229E+03</totfact>
</mgrwt>
</event>
<event>
 5    1  0.1451195E-002  0.1249987E+03  0.7818608E-02  0.1235071E+00
          4   -1    0    0  501    0  0.00000000000E+00  0.00000000000E+00  0.36075720122E+03  0.36075943665E+03  0.12700000000E+01 0. -1.
         -4   -1    0    0    0  501 -0.00000000000E+00 -0.00000000000E+00 -0.10788182993E+02  0.10862678872E+02  0.12700000000E+01 0. -1.
         25    2    1    2    0    0  0.00000000000E+00  0.00000000000E+00  0.34996901823E+03  0.37162211553E+03  0.12499873210E+03 0.  0.
    9000005    1    3    3    0    0 -0.46330849541E+02  0.11981574023E+02  0.29446333582E+03  0.29832827871E+03  0.10000000000E+01 0.  0.
    9000005    1    3    3    0    0  0.46330849541E+02 -0.11981574023E+02  0.55505682406E+02  0.73293836812E+02  0.10000000000E+01 0.  0.
<mgrwt>
<rscale>  0 0.12499873E+03</rscale>
<asrwt>0</asrwt>
<pdfrwt beam="1">  1        4 0.90198889E-01 0.12499873E+03</pdfrwt>
<pdfrwt beam="2">  1       -4 0.27066373E-02 0.12499873E+03</pdfrwt>
<totfact> 0.11178410E+03</totfact>
</mgrwt>
</event>
<event>
 5    1  0.1451195E-002  0.1249994E+03  0.7818608E-02  0.1235070E+00
          4   -1    0    0  501    0  0.00000000000E+00  0.00000000000E+00  0.89008792570E+01  0.89910261677E+01  0.12700000000E+01 0.  1.
         -4   -1    0    0    0  501 -0.00000000000E+00 -0.00000000000E+00 -0.43655449816E+03  0.43655634546E+03  0.12700000000E+01 0.  1.
         25    2    1    2    0    0  0.00000000000E+00  0.00000000000E+00 -0.42765361890E+03  0.44554737163E+03  0.12499937042E+03 0.  0.
    9000005    1    3    3    0    0 -0.47439130842E+01  0.23331100571E+02 -0.78809739859E+01  0.25098898704E+02  0.10000000000E+01 0.  0.
    9000005    1    3    3    0    0  0.47439130842E+01 -0.23331100571E+02 -0.41977264492E+03  0.42044847293E+03  0.10000000000E+01 0.  0.
<mgrwt>
<rscale>  0 0.12499937E+03</rscale>
<asrwt>0</asrwt>
<pdfrwt beam="1">  1        4 0.22367206E-02 0.12499937E+03</pdfrwt>
<pdfrwt beam="2">  1       -4 0.10915005E+00 0.12499937E+03</pdfrwt>
<totfact> 0.96823351E+02</totfact>
</mgrwt>
</event>
<event>
 5    1  0.1451195E-002  0.1249984E+03  0.7818608E-02  0.1235072E+00
         -4   -1    0    0    0  501 -0.00000000000E+00  0.00000000000E+00  0.20722262805E+02  0.20761143412E+02  0.12700000000E+01 0.  1.
          4   -1    0    0  501    0  0.00000000000E+00 -0.00000000000E+00 -0.18828253033E+03  0.18828681348E+03  0.12700000000E+01 0.  1.
         25    2    1    2    0    0  0.00000000000E+00  0.00000000000E+00 -0.16756026753E+03  0.20904795689E+03  0.12499842009E+03 0.  0.
    9000005    1    3    3    0    0 -0.20306808775E+02 -0.10176598366E+01 -0.18260424588E+03  0.18373544222E+03  0.10000000000E+01 0.  0.
    9000005    1    3    3    0    0  0.20306808775E+02  0.10176598366E+01  0.15043978352E+02  0.25312514668E+02  0.10000000000E+01 0.  0.
<mgrwt>
<rscale>  0 0.12499842E+03</rscale>
<asrwt>0</asrwt>
<pdfrwt beam="2">  1        4 0.47076023E-01 0.12499842E+03</pdfrwt>
<pdfrwt beam="1">  1       -4 0.51859617E-02 0.12499842E+03</pdfrwt>
<totfact> 0.15966630E+03</totfact>
</mgrwt>
</event>
<event>
 5    1  0.1451195E-002  0.1249983E+03  0.7818608E-02  0.1235072E+00
          4   -1    0    0  501    0  0.00000000000E+00  0.00000000000E+00  0.96064414426E+01  0.96900266867E+01  0.12700000000E+01 0.  1.
         -4   -1    0    0    0  501 -0.00000000000E+00 -0.00000000000E+00 -0.40477140878E+03  0.40477340114E+03  0.12700000000E+01 0.  1.
         25    2    1    2    0    0  0.00000000000E+00  0.00000000000E+00 -0.39516496734E+03  0.41446342782E+03  0.12499832635E+03 0.  0.
    9000005    1    3    3    0    0  0.52501876082E+02  0.32052814257E+02 -0.23410327416E+03  0.24205200447E+03  0.10000000000E+01 0.  0.
    9000005    1    3    3    0    0 -0.52501876082E+02 -0.32052814257E+02 -0.16106169317E+03  0.17241142335E+03  0.10000000000E+01 0.  0.
<mgrwt>
<rscale>  0 0.12499833E+03</rscale>
<asrwt>0</asrwt>
<pdfrwt beam="1">  1        4 0.24123089E-02 0.12499833E+03</pdfrwt>
<pdfrwt beam="2">  1       -4 0.10120349E+00 0.12499833E+03</pdfrwt>
<totfact> 0.10276459E+03</totfact>
</mgrwt>
</event>
<event>
 5    1  0.1451195E-002  0.1250018E+03  0.7818608E-02  0.1235066E+00
         -4   -1    0    0    0  501 -0.00000000000E+00  0.00000000000E+00  0.19532276666E+03  0.19532689542E+03  0.12700000000E+01 0.  1.
          4   -1    0    0  501    0  0.00000000000E+00 -0.00000000000E+00 -0.19975021390E+02  0.20015353595E+02  0.12700000000E+01 0.  1.
         25    2    1    2    0    0  0.00000000000E+00  0.00000000000E+00  0.17534774526E+03  0.21534224901E+03  0.12500180975E+03 0.  0.
    9000005    1    3    3    0    0  0.32805670940E+02 -0.37414950258E+02  0.22545463191E+02  0.54638708432E+02  0.10000000000E+01 0.  0.
    9000005    1    3    3    0    0 -0.32805670940E+02  0.37414950258E+02  0.15280228207E+03  0.16070354058E+03  0.10000000000E+01 0.  0.
<mgrwt>
<rscale>  0 0.12500181E+03</rscale>
<asrwt>0</asrwt>
<pdfrwt beam="2">  1        4 0.49993130E-02 0.12500181E+03</pdfrwt>
<pdfrwt beam="1">  1       -4 0.48836249E-01 0.12500181E+03</pdfrwt>
<totfact> 0.15724947E+03</totfact>
</mgrwt>
</event>
<event>
 5    1  0.1451195E-002  0.1250032E+03  0.7818608E-02  0.1235064E+00
          4   -1    0    0  501    0  0.00000000000E+00  0.00000000000E+00  0.33856179527E+03  0.33856417725E+03  0.12700000000E+01 0. -1.
         -4   -1    0    0    0  501 -0.00000000000E+00 -0.00000000000E+00 -0.11500985951E+02  0.11570893563E+02  0.12700000000E+01 0. -1.
         25    2    1    2    0    0  0.00000000000E+00  0.00000000000E+00  0.32706080932E+03  0.35013507081E+03  0.12500317924E+03 0.  0.
    9000005    1    3    3    0    0  0.95668754594E+01  0.60427091113E+02  0.19923533743E+03  0.20841947636E+03  0.10000000000E+01 0.  0.
    9000005    1    3    3    0    0 -0.95668754594E+01 -0.60427091113E+02  0.12782547189E+03  0.14171559445E+03  0.10000000000E+01 0.  0.
<mgrwt>
<rscale>  0 0.12500318E+03</rscale>
<asrwt>0</asrwt>
<pdfrwt beam="1">  1        4 0.84649483E-01 0.12500318E+03</pdfrwt>
<pdfrwt beam="2">  1       -4 0.28842828E-02 0.12500318E+03</pdfrwt>
<totfact> 0.11673252E+03</totfact>
</mgrwt>
</event>
<event>
 5    1  0.1451195E-002  0.1249996E+03  0.7818608E-02  0.1235070E+00
         -4   -1    0    0    0  501 -0.00000000000E+00  0.00000000000E+00  0.71554229778E+03  0.71554342483E+03  0.12700000000E+01 0. -1.
          4   -1    0    0  501    0  0.00000000000E+00 -0.00000000000E+00 -0.53841008750E+01  0.55318570329E+01  0.12700000000E+01 0. -1.
         25    2    1    2    0    0  0.00000000000E+00  0.00000000000E+00  0.71015819690E+03  0.72107528186E+03  0.12499958991E+03 0.  0.
    9000005    1    3    3    0    0  0.31170318803E+02 -0.53650321033E+02  0.31218962382E+03  0.31829751325E+03  0.10000000000E+01 0.  0.
    9000005    1    3    3    0    0 -0.31170318803E+02  0.53650321033E+02  0.39796857309E+03  0.40277776861E+03  0.10000000000E+01 0.  0.
<mgrwt>
<rscale>  0 0.12499959E+03</rscale>
<asrwt>0</asrwt>
<pdfrwt beam="2">  1        4 0.13646357E-02 0.12499959E+03</pdfrwt>
<pdfrwt beam="1">  1       -4 0.17890418E+00 0.12499959E+03</pdfrwt>
<totfact> 0.59905717E+02</totfact>
</mgrwt>
</event>
<event>
 5    1  0.1451195E-002  0.1250053E+03  0.7818608E-02  0.1235061E+00
         -4   -1    0    0    0  501 -0.00000000000E+00  0.00000000000E+00  0.24405127781E+02  0.24438149725E+02  0.12700000000E+01 0.  1.
          4   -1    0    0  501    0  0.00000000000E+00 -0.00000000000E+00 -0.15992841333E+03  0.15993345582E+03  0.12700000000E+01 0.  1.
         25    2    1    2    0    0  0.00000000000E+00  0.00000000000E+00 -0.13552328555E+03  0.18437160555E+03  0.12500531191E+03 0.  0.
    9000005    1    3    3    0    0  0.32623156401E+02  0.53294613598E+02 -0.66289811609E+02  0.91103925795E+02  0.10000000000E+01 0.  0.
    9000005    1    3    3    0    0 -0.32623156401E+02 -0.53294613598E+02 -0.69233473942E+02  0.93267679751E+02  0.10000000000E+01 0.  0.
<mgrwt>
<rscale>  0 0.12500531E+03</rscale>
<asrwt>0</asrwt>
<pdfrwt beam="2">  1        4 0.39986858E-01 0.12500531E+03</pdfrwt>
<pdfrwt beam="1">  1       -4 0.61060405E-02 0.12500531E+03</pdfrwt>
<totfact> 0.16965477E+03</totfact>
</mgrwt>
</event>
<event>
 5    1  0.1451195E-002  0.1249989E+03  0.7818608E-02  0.1235071E+00
         -4   -1    0    0    0  501 -0.00000000000E+00  0.00000000000E+00  0.21287472216E+02  0.21325322350E+02  0.12700000000E+01 0. -1.
          4   -1    0    0  501    0  0.00000000000E+00 -0.00000000000E+00 -0.18329367591E+03  0.18329807562E+03  0.12700000000E+01 0. -1.
         25    2    1    2    0    0  0.00000000000E+00  0.00000000000E+00 -0.16200620369E+03  0.20462339797E+03  0.12499889985E+03 0.  0.
    9000005    1    3    3    0    0 -0.14641032821E+02 -0.22971345658E+02 -0.17307099772E+03  0.17520448857E+03  0.10000000000E+01 0.  0.
    9000005    1    3    3    0    0  0.14641032821E+02  0.22971345658E+02  0.11064794032E+02  0.29418909402E+02  0.10000000000E+01 0.  0.
<mgrwt>
<rscale>  0 0.12499890E+03</rscale>
<asrwt>0</asrwt>
<pdfrwt beam="2">  1        4 0.45828695E-01 0.12499890E+03</pdfrwt>
<pdfrwt beam="1">  1       -4 0.53271498E-02 0.12499890E+03</pdfrwt>
<totfact> 0.16138983E+03</totfact>
</mgrwt>
</event>
<event>
 4    1  0.1451195E-002  0.1250625E+03  0.7818608E-02  0.1234972E+00
          4   -1    0    0  501    0  0.00000000000E+00  0.00000000000E+00  0.11064093538E+03  0.11064822403E+03  0.12700000000E+01 0. -1.
         -4   -1    0    0    0  501 -0.00000000000E+00 -0.00000000000E+00 -0.35321070610E+02  0.35343895216E+02  0.12700000000E+01 0. -1.
    9000005    1    1    2    0    0  0.45122636476E+02  0.42929608678E+02  0.44069819449E+02  0.76303031461E+02  0.10000000000E+01 0.  0.
    9000005    1    1    2    0    0 -0.45122636476E+02 -0.42929608678E+02  0.31250045316E+02  0.69689087784E+02  0.10000000000E+01 0.  0.
<mgrwt>
<rscale>  0 0.12506245E+03</rscale>
<asrwt>0</asrwt>
<pdfrwt beam="1">  1        4 0.27663998E-01 0.12506245E+03</pdfrwt>
<pdfrwt beam="2">  1       -4 0.88340318E-02 0.12506245E+03</pdfrwt>
<totfact> 0.18710400E+03</totfact>
</mgrwt>
</event>
<event>
 5    1  0.1451195E-002  0.1250143E+03  0.7818608E-02  0.1235047E+00
         -4   -1    0    0    0  501 -0.00000000000E+00  0.00000000000E+00  0.10338170504E+02  0.10415885434E+02  0.12700000000E+01 0. -1.
          4   -1    0    0  501    0  0.00000000000E+00 -0.00000000000E+00 -0.37643971555E+03  0.37644185785E+03  0.12700000000E+01 0. -1.
         25    2    1    2    0    0  0.00000000000E+00  0.00000000000E+00 -0.36610154505E+03  0.38685774329E+03  0.12501428821E+03 0.  0.
    9000005    1    3    3    0    0  0.13348177406E+02 -0.42174627369E+02 -0.31967497643E+03  0.32272273485E+03  0.10000000000E+01 0.  0.
    9000005    1    3    3    0    0 -0.13348177406E+02  0.42174627369E+02 -0.46426568617E+02  0.64135008438E+02  0.10000000000E+01 0.  0.
<mgrwt>
<rscale>  0 0.12501429E+03</rscale>
<asrwt>0</asrwt>
<pdfrwt beam="2">  1        4 0.94119865E-01 0.12501429E+03</pdfrwt>
<pdfrwt beam="1">  1       -4 0.25945260E-02 0.12501429E+03</pdfrwt>
<totfact> 0.10841484E+03</totfact>
</mgrwt>
</event>
<event>
 5    1  0.1451195E-002  0.1249994E+03  0.7818608E-02  0.1235070E+00
         -4   -1    0    0    0  501 -0.00000000000E+00  0.00000000000E+00  0.94787713284E+01  0.95634724810E+01  0.12700000000E+01 0. -1.
          4   -1    0    0  501    0  0.00000000000E+00 -0.00000000000E+00 -0.41018238523E+03  0.41018435130E+03  0.12700000000E+01 0. -1.
         25    2    1    2    0    0  0.00000000000E+00  0.00000000000E+00 -0.40070361390E+03  0.41974782378E+03  0.12499939751E+03 0.  0.
    9000005    1    3    3    0    0  0.38736370815E+02 -0.22197013334E+02 -0.34718502237E+03  0.35004521648E+03  0.10000000000E+01 0.  0.
    9000005    1    3    3    0    0 -0.38736370815E+02  0.22197013334E+02 -0.53518591533E+02  0.69702607301E+02  0.10000000000E+01 0.  0.
<mgrwt>
<rscale>  0 0.12499940E+03</rscale>
<asrwt>0</asrwt>
<pdfrwt beam="2">  1        4 0.10255637E+00 0.12499940E+03</pdfrwt>
<pdfrwt beam="1">  1       -4 0.23805276E-02 0.12499940E+03</pdfrwt>
<totfact> 0.10171236E+03</totfact>
</mgrwt>
</event>
<event>
 5    1  0.1451195E-002  0.1250154E+03  0.7818608E-02  0.1235045E+00
         -4   -1    0    0    0  501 -0.00000000000E+00  0.00000000000E+00  0.50051213079E+02  0.50067322983E+02  0.12700000000E+01 0.  1.
          4   -1    0    0  501    0  0.00000000000E+00 -0.00000000000E+00 -0.78030455999E+02  0.78040790382E+02  0.12700000000E+01 0.  1.
         25    2    1    2    0    0  0.00000000000E+00  0.00000000000E+00 -0.27979242920E+02  0.12810811336E+03  0.12501540175E+03 0.  0.
    9000005    1    3    3    0    0 -0.21105959780E+02 -0.29068190457E+02  0.38420440264E+02  0.52607522892E+02  0.10000000000E+01 0.  0.
    9000005    1    3    3    0    0  0.21105959780E+02  0.29068190457E+02 -0.66399683185E+02  0.75500590473E+02  0.10000000000E+01 0.  0.
<mgrwt>
<rscale>  0 0.12501540E+03</rscale>
<asrwt>0</asrwt>
<pdfrwt beam="2">  1        4 0.19510919E-01 0.12501540E+03</pdfrwt>
<pdfrwt beam="1">  1       -4 0.12516109E-01 0.12501540E+03</pdfrwt>
<totfact> 0.19659585E+03</totfact>
</mgrwt>
</event>
<event>
 5    1  0.1451195E-002  0.1249975E+03  0.7818608E-02  0.1235073E+00
         -4   -1    0    0    0  501 -0.00000000000E+00  0.00000000000E+00  0.26959468852E+03  0.26959767985E+03  0.12700000000E+01 0.  1.
          4   -1    0    0  501    0  0.00000000000E+00 -0.00000000000E+00 -0.14457845612E+02  0.14513517828E+02  0.12700000000E+01 0.  1.
         25    2    1    2    0    0  0.00000000000E+00  0.00000000000E+00  0.25513684291E+03  0.28411119767E+03  0.12499745611E+03 0.  0.
    9000005    1    3    3    0    0 -0.60711573889E+02  0.13696934721E+01  0.94061327065E+02  0.11196563988E+03  0.10000000000E+01 0.  0.
    9000005    1    3    3    0    0  0.60711573889E+02 -0.13696934721E+01  0.16107551584E+03  0.17214555779E+03  0.10000000000E+01 0.  0.
<mgrwt>
<rscale>  0 0.12499746E+03</rscale>
<asrwt>0</asrwt>
<pdfrwt beam="2">  1        4 0.36217943E-02 0.12499746E+03</pdfrwt>
<pdfrwt beam="1">  1       -4 0.67406006E-01 0.12499746E+03</pdfrwt>
<totfact> 0.13429135E+03</totfact>
</mgrwt>
</event>
<event>
 5    1  0.1451195E-002  0.1250004E+03  0.7818608E-02  0.1235069E+00
         -4   -1    0    0    0  501 -0.00000000000E+00  0.00000000000E+00  0.10007577050E+03  0.10008382857E+03  0.12700000000E+01 0. -1.
          4   -1    0    0  501    0  0.00000000000E+00 -0.00000000000E+00 -0.39013199228E+02  0.39033864963E+02  0.12700000000E+01 0. -1.
         25    2    1    2    0    0  0.00000000000E+00  0.00000000000E+00  0.61062571274E+02  0.13911769354E+03  0.12500038018E+03 0.  0.
    9000005    1    3    3    0    0 -0.14288294571E+02  0.60570219065E+02  0.36863010017E+02  0.72338014258E+02  0.10000000000E+01 0.  0.
    9000005    1    3    3    0    0  0.14288294571E+02 -0.60570219065E+02  0.24199561257E+02  0.66779679277E+02  0.10000000000E+01 0.  0.
<mgrwt>
<rscale>  0 0.12500038E+03</rscale>
<asrwt>0</asrwt>
<pdfrwt beam="2">  1        4 0.97568904E-02 0.12500038E+03</pdfrwt>
<pdfrwt beam="1">  1       -4 0.25022533E-01 0.12500038E+03</pdfrwt>
<totfact> 0.19085402E+03</totfact>
</mgrwt>
</event>
<event>
 5    1  0.1451195E-002  0.1249978E+03  0.7818608E-02  0.1235073E+00
         -4   -1    0    0    0  501 -0.00000000000E+00  0.00000000000E+00  0.29824378130E+03  0.29824648528E+03  0.12700000000E+01 0. -1.
          4   -1    0    0  501    0  0.00000000000E+00 -0.00000000000E+00 -0.13063495206E+02  0.13125083123E+02  0.12700000000E+01 0. -1.
         25    2    1    2    0    0  0.00000000000E+00  0.00000000000E+00  0.28518028609E+03  0.31137156841E+03  0.12499783212E+03 0.  0.
    9000005    1    3    3    0    0 -0.56008019755E+02 -0.15671002317E+02  0.19953783145E+03  0.20784326972E+03  0.10000000000E+01 0.  0.
    9000005    1    3    3    0    0  0.56008019755E+02  0.15671002317E+02  0.85642454646E+02  0.10352829868E+03  0.10000000000E+01 0.  0.
<mgrwt>
<rscale>  0 0.12499783E+03</rscale>
<asrwt>0</asrwt>
<pdfrwt beam="2">  1        4 0.32739104E-02 0.12499783E+03</pdfrwt>
<pdfrwt beam="1">  1       -4 0.74568980E-01 0.12499783E+03</pdfrwt>
<totfact> 0.12658855E+03</totfact>
</mgrwt>
</event>
<event>
 5    1  0.1451195E-002  0.1250022E+03  0.7818608E-02  0.1235066E+00
         -4   -1    0    0    0  501 -0.00000000000E+00  0.00000000000E+00  0.23013195600E+03  0.23013546027E+03  0.12700000000E+01 0.  1.
          4   -1    0    0  501    0  0.00000000000E+00 -0.00000000000E+00 -0.16947172299E+02  0.16994691787E+02  0.12700000000E+01 0.  1.
         25    2    1    2    0    0  0.00000000000E+00  0.00000000000E+00  0.21318478370E+03  0.24713015205E+03  0.12500224019E+03 0.  0.
    9000005    1    3    3    0    0  0.39740119438E+02  0.24346638018E+02  0.18890220029E+03  0.19456895217E+03  0.10000000000E+01 0.  0.
    9000005    1    3    3    0    0 -0.39740119438E+02 -0.24346638018E+02  0.24282583413E+02  0.52561199881E+02  0.10000000000E+01 0.  0.
<mgrwt>
<rscale>  0 0.12500224E+03</rscale>
<asrwt>0</asrwt>
<pdfrwt beam="2">  1        4 0.42431711E-02 0.12500224E+03</pdfrwt>
<pdfrwt beam="1">  1       -4 0.57539367E-01 0.12500224E+03</pdfrwt>
<totfact> 0.14593176E+03</totfact>
</mgrwt>
</event>
<event>
 5    1  0.1451195E-002  0.1250019E+03  0.7818608E-02  0.1235066E+00
         -4   -1    0    0    0  501 -0.00000000000E+00  0.00000000000E+00  0.53962834444E+02  0.53977776920E+02  0.12700000000E+01 0.  1.
          4   -1    0    0  501    0  0.00000000000E+00 -0.00000000000E+00 -0.72359505134E+02  0.72370649321E+02  0.12700000000E+01 0.  1.
         25    2    1    2    0    0  0.00000000000E+00  0.00000000000E+00 -0.18396670690E+02  0.12634842624E+03  0.12500194927E+03 0.  0.
    9000005    1    3    3    0    0  0.44246808371E+02  0.10763629940E+02  0.34061463711E+02  0.56875470026E+02  0.10000000000E+01 0.  0.
    9000005    1    3    3    0    0 -0.44246808371E+02 -0.10763629940E+02 -0.52458134401E+02  0.69472956216E+02  0.10000000000E+01 0.  0.
<mgrwt>
<rscale>  0 0.12500195E+03</rscale>
<asrwt>0</asrwt>
<pdfrwt beam="2">  1        4 0.18093137E-01 0.12500195E+03</pdfrwt>
<pdfrwt beam="1">  1       -4 0.13493969E-01 0.12500195E+03</pdfrwt>
<totfact> 0.19761202E+03</totfact>
</mgrwt>
</event>
<event>
 5    1  0.1451195E-002  0.1250061E+03  0.7818608E-02  0.1235060E+00
         -4   -1    0    0    0  501 -0.00000000000E+00  0.00000000000E+00  0.17717286227E+03  0.17717741398E+03  0.12700000000E+01 0. -1.
          4   -1    0    0  501    0  0.00000000000E+00 -0.00000000000E+00 -0.22026694527E+02  0.22063276542E+02  0.12700000000E+01 0. -1.
         25    2    1    2    0    0  0.00000000000E+00  0.00000000000E+00  0.15514616774E+03  0.19924069052E+03  0.12500607743E+03 0.  0.
    9000005    1    3    3    0    0  0.18711207676E+02 -0.23059879843E+02  0.16521679298E+03  0.16786737632E+03  0.10000000000E+01 0.  0.
    9000005    1    3    3    0    0 -0.18711207676E+02  0.23059879843E+02 -0.10070625239E+02  0.31373314198E+02  0.10000000000E+01 0.  0.
<mgrwt>
<rscale>  0 0.12500608E+03</rscale>
<asrwt>0</asrwt>
<pdfrwt beam="2">  1        4 0.55118154E-02 0.12500608E+03</pdfrwt>
<pdfrwt beam="1">  1       -4 0.44298357E-01 0.12500608E+03</pdfrwt>
<totfact> 0.16350192E+03</totfact>
</mgrwt>
</event>
<event>
 5    1  0.1451195E-002  0.1250014E+03  0.7818608E-02  0.1235067E+00
         -4   -1    0    0    0  501 -0.00000000000E+00  0.00000000000E+00  0.59079042644E+01  0.60428662733E+01  0.12700000000E+01 0. -1.
          4   -1    0    0  501    0  0.00000000000E+00 -0.00000000000E+00 -0.65360223700E+03  0.65360347085E+03  0.12700000000E+01 0. -1.
         25    2    1    2    0    0  0.00000000000E+00  0.00000000000E+00 -0.64769433273E+03  0.65964633712E+03  0.12500136570E+03 0.  0.
    9000005    1    3    3    0    0  0.81169472505E+01 -0.48993559412E+02 -0.12365867045E+03  0.13326184928E+03  0.10000000000E+01 0.  0.
    9000005    1    3    3    0    0 -0.81169472505E+01  0.48993559412E+02 -0.52403566228E+03  0.52638448784E+03  0.10000000000E+01 0.  0.
<mgrwt>
<rscale>  0 0.12500137E+03</rscale>
<asrwt>0</asrwt>
<pdfrwt beam="2">  1        4 0.16341734E+00 0.12500137E+03</pdfrwt>
<pdfrwt beam="1">  1       -4 0.14940028E-02 0.12500137E+03</pdfrwt>
<totfact> 0.66415959E+02</totfact>
</mgrwt>
</event>
<event>
 4    1  0.1451195E-002  0.1250879E+03  0.7818608E-02  0.1234932E+00
          4   -1    0    0  501    0  0.00000000000E+00  0.00000000000E+00  0.10457798741E+03  0.10458569860E+03  0.12700000000E+01 0. -1.
         -4   -1    0    0    0  501 -0.00000000000E+00 -0.00000000000E+00 -0.37385169646E+02  0.37406734814E+02  0.12700000000E+01 0. -1.
    9000005    1    1    2    0    0  0.70469777408E+01 -0.49281781173E+02  0.76558030512E+02  0.91326260664E+02  0.10000000000E+01 0.  0.
    9000005    1    1    2    0    0 -0.70469777408E+01  0.49281781173E+02 -0.93652127484E+01  0.50666172746E+02  0.10000000000E+01 0.  0.
<mgrwt>
<rscale>  0 0.12508787E+03</rscale>
<asrwt>0</asrwt>
<pdfrwt beam="1">  1        4 0.26148156E-01 0.12508787E+03</pdfrwt>
<pdfrwt beam="2">  1       -4 0.93499521E-02 0.12508787E+03</pdfrwt>
<totfact> 0.18900128E+03</totfact>
</mgrwt>
</event>
<event>
 5    1  0.1451195E-002  0.1250005E+03  0.7818608E-02  0.1235068E+00
          4   -1    0    0  501    0  0.00000000000E+00  0.00000000000E+00  0.48475225589E+02  0.48491859068E+02  0.12700000000E+01 0. -1.
         -4   -1    0    0    0  501 -0.00000000000E+00 -0.00000000000E+00 -0.80547637135E+02  0.80557648601E+02  0.12700000000E+01 0. -1.
         25    2    1    2    0    0  0.00000000000E+00  0.00000000000E+00 -0.32072411546E+02  0.12904950767E+03  0.12500054339E+03 0.  0.
    9000005    1    3    3    0    0 -0.40914540677E+02  0.46106976395E+02 -0.54356479733E+01  0.61890218775E+02  0.10000000000E+01 0.  0.
    9000005    1    3    3    0    0  0.40914540677E+02 -0.46106976395E+02 -0.26636763573E+02  0.67159288894E+02  0.10000000000E+01 0.  0.
<mgrwt>
<rscale>  0 0.12500054E+03</rscale>
<asrwt>0</asrwt>
<pdfrwt beam="1">  1        4 0.12122137E-01 0.12500054E+03</pdfrwt>
<pdfrwt beam="2">  1       -4 0.20140240E-01 0.12500054E+03</pdfrwt>
<totfact> 0.19615370E+03</totfact>
</mgrwt>
</event>
<event>
 5    1  0.1451195E-002  0.1250010E+03  0.7818608E-02  0.1235068E+00
         -4   -1    0    0    0  501 -0.00000000000E+00  0.00000000000E+00  0.33979400759E+02  0.34003125973E+02  0.12700000000E+01 0. -1.
          4   -1    0    0  501    0  0.00000000000E+00 -0.00000000000E+00 -0.11489388513E+03  0.11490090400E+03  0.12700000000E+01 0. -1.
         25    2    1    2    0    0  0.00000000000E+00  0.00000000000E+00 -0.80914484374E+02  0.14890402998E+03  0.12500102544E+03 0.  0.
    9000005    1    3    3    0    0  0.14717889084E+02 -0.55953012958E+01  0.31583559713E+02  0.35305026552E+02  0.10000000000E+01 0.  0.
    9000005    1    3    3    0    0 -0.14717889084E+02  0.55953012958E+01 -0.11249804409E+03  0.11359900343E+03  0.10000000000E+01 0.  0.
<mgrwt>
<rscale>  0 0.12500103E+03</rscale>
<asrwt>0</asrwt>
<pdfrwt beam="2">  1        4 0.28727313E-01 0.12500103E+03</pdfrwt>
<pdfrwt beam="1">  1       -4 0.84986935E-02 0.12500103E+03</pdfrwt>
<totfact> 0.18592358E+03</totfact>
</mgrwt>
</event>
<event>
 5    1  0.1451195E-002  0.1249969E+03  0.7818608E-02  0.1235074E+00
          4   -1    0    0  501    0  0.00000000000E+00  0.00000000000E+00  0.45341327475E+03  0.45341505336E+03  0.12700000000E+01 0.  1.
         -4   -1    0    0    0  501 -0.00000000000E+00 -0.00000000000E+00 -0.85661642176E+01  0.86597961525E+01  0.12700000000E+01 0.  1.
         25    2    1    2    0    0  0.00000000000E+00  0.00000000000E+00  0.44484711053E+03  0.46207484952E+03  0.12499685920E+03 0.  0.
    9000005    1    3    3    0    0  0.54635694886E+02  0.21654434554E+02  0.14391083565E+03  0.15545192926E+03  0.10000000000E+01 0.  0.
    9000005    1    3    3    0    0 -0.54635694886E+02 -0.21654434554E+02  0.30093627488E+03  0.30662292026E+03  0.10000000000E+01 0.  0.
<mgrwt>
<rscale>  0 0.12499686E+03</rscale>
<asrwt>0</asrwt>
<pdfrwt beam="1">  1        4 0.11336524E+00 0.12499686E+03</pdfrwt>
<pdfrwt beam="2">  1       -4 0.21534674E-02 0.12499686E+03</pdfrwt>
<totfact> 0.93895543E+02</totfact>
</mgrwt>
</event>
<event>
 5    1  0.1451195E-002  0.1250011E+03  0.7818608E-02  0.1235068E+00
          4   -1    0    0  501    0  0.00000000000E+00  0.00000000000E+00  0.30614789073E+03  0.30615052490E+03  0.12700000000E+01 0. -1.
         -4   -1    0    0    0  501 -0.00000000000E+00 -0.00000000000E+00 -0.12725278371E+02  0.12788495206E+02  0.12700000000E+01 0. -1.
         25    2    1    2    0    0  0.00000000000E+00  0.00000000000E+00  0.29342261236E+03  0.31893902011E+03  0.12500107641E+03 0.  0.
    9000005    1    3    3    0    0 -0.10692723302E+02  0.43788934697E+02  0.25715022819E+03  0.26107287295E+03  0.10000000000E+01 0.  0.
    9000005    1    3    3    0    0  0.10692723302E+02 -0.43788934697E+02  0.36272384170E+02  0.57866147158E+02  0.10000000000E+01 0.  0.
<mgrwt>
<rscale>  0 0.12500108E+03</rscale>
<asrwt>0</asrwt>
<pdfrwt beam="1">  1        4 0.76545201E-01 0.12500108E+03</pdfrwt>
<pdfrwt beam="2">  1       -4 0.31895511E-02 0.12500108E+03</pdfrwt>
<totfact> 0.12456071E+03</totfact>
</mgrwt>
</event>
<event>
 5    1  0.1451195E-002  0.1250020E+03  0.7818608E-02  0.1235066E+00
          4   -1    0    0  501    0  0.00000000000E+00  0.00000000000E+00  0.10618000038E+03  0.10618759523E+03  0.12700000000E+01 0.  1.
         -4   -1    0    0    0  501 -0.00000000000E+00 -0.00000000000E+00 -0.36770235491E+02  0.36792161096E+02  0.12700000000E+01 0.  1.
         25    2    1    2    0    0  0.00000000000E+00  0.00000000000E+00  0.69409764890E+02  0.14297975633E+03  0.12500198101E+03 0.  0.
    9000005    1    3    3    0    0 -0.62045628813E+02 -0.53908216804E+01  0.28799757569E+02  0.68623225290E+02  0.10000000000E+01 0.  0.
    9000005    1    3    3    0    0  0.62045628813E+02  0.53908216804E+01  0.40610007321E+02  0.74356531037E+02  0.10000000000E+01 0.  0.
<mgrwt>
<rscale>  0 0.12500198E+03</rscale>
<asrwt>0</asrwt>
<pdfrwt beam="1">  1        4 0.26548690E-01 0.12500198E+03</pdfrwt>
<pdfrwt beam="2">  1       -4 0.91962490E-02 0.12500198E+03</pdfrwt>
<totfact> 0.18888054E+03</totfact>
</mgrwt>
</event>
<event>
 5    1  0.1451195E-002  0.1249772E+03  0.7818608E-02  0.1235105E+00
          4   -1    0    0  501    0  0.00000000000E+00  0.00000000000E+00  0.13609282235E+02  0.13668411135E+02  0.12700000000E+01 0.  1.
         -4   -1    0    0    0  501 -0.00000000000E+00 -0.00000000000E+00 -0.28624130452E+03  0.28624412188E+03  0.12700000000E+01 0.  1.
         25    2    1    2    0    0  0.00000000000E+00  0.00000000000E+00 -0.27263202229E+03  0.29991253302E+03  0.12497722947E+03 0.  0.
    9000005    1    3    3    0    0  0.37891060685E+02 -0.25768493132E+02 -0.23824354770E+03  0.24261231572E+03  0.10000000000E+01 0.  0.
    9000005    1    3    3    0    0 -0.37891060685E+02  0.25768493132E+02 -0.34388474581E+02  0.57300217296E+02  0.10000000000E+01 0.  0.
<mgrwt>
<rscale>  0 0.12497723E+03</rscale>
<asrwt>0</asrwt>
<pdfrwt beam="1">  1        4 0.34100648E-02 0.12497723E+03</pdfrwt>
<pdfrwt beam="2">  1       -4 0.71568050E-01 0.12497723E+03</pdfrwt>
<totfact> 0.12980280E+03</totfact>
</mgrwt>
</event>
<event>
 5    1  0.1451195E-002  0.1250009E+03  0.7818608E-02  0.1235068E+00
          4   -1    0    0  501    0  0.00000000000E+00  0.00000000000E+00  0.62460726191E+02  0.62473636170E+02  0.12700000000E+01 0. -1.
         -4   -1    0    0    0  501 -0.00000000000E+00 -0.00000000000E+00 -0.62514411246E+02  0.62527310140E+02  0.12700000000E+01 0. -1.
         25    2    1    2    0    0  0.00000000000E+00  0.00000000000E+00 -0.53685054513E-01  0.12500094631E+03  0.12500093478E+03 0.  0.
    9000005    1    3    3    0    0  0.31033527190E+02 -0.51323697388E+02 -0.17579812576E+02  0.62508011755E+02  0.10000000000E+01 0.  0.
    9000005    1    3    3    0    0 -0.31033527190E+02  0.51323697388E+02  0.17526127522E+02  0.62492934555E+02  0.10000000000E+01 0.  0.
<mgrwt>
<rscale>  0 0.12500093E+03</rscale>
<asrwt>0</asrwt>
<pdfrwt beam="1">  1        4 0.15618408E-01 0.12500093E+03</pdfrwt>
<pdfrwt beam="2">  1       -4 0.15631829E-01 0.12500093E+03</pdfrwt>
<totfact> 0.19834570E+03</totfact>
</mgrwt>
</event>
<event>
 5    1  0.1451195E-002  0.1250019E+03  0.7818608E-02  0.1235066E+00
         -4   -1    0    0    0  501 -0.00000000000E+00  0.00000000000E+00  0.10335688904E+03  0.10336469132E+03  0.12700000000E+01 0.  1.
          4   -1    0    0  501    0  0.00000000000E+00 -0.00000000000E+00 -0.37775040915E+02  0.37796383638E+02  0.12700000000E+01 0.  1.
         25    2    1    2    0    0  0.00000000000E+00  0.00000000000E+00  0.65581848128E+02  0.14116107496E+03  0.12500188111E+03 0.  0.
    9000005    1    3    3    0    0 -0.25979400313E+02  0.21912443997E+02  0.92013475061E+02  0.98094668740E+02  0.10000000000E+01 0.  0.
    9000005    1    3    3    0    0  0.25979400313E+02 -0.21912443997E+02 -0.26431626933E+02  0.43066406222E+02  0.10000000000E+01 0.  0.
<mgrwt>
<rscale>  0 0.12500188E+03</rscale>
<asrwt>0</asrwt>
<pdfrwt beam="2">  1        4 0.94474034E-02 0.12500188E+03</pdfrwt>
<pdfrwt beam="1">  1       -4 0.25842865E-01 0.12500188E+03</pdfrwt>
<totfact> 0.18980268E+03</totfact>
</mgrwt>
</event>
<event>
 5    1  0.1451195E-002  0.1249999E+03  0.7818608E-02  0.1235069E+00
          4   -1    0    0  501    0  0.00000000000E+00  0.00000000000E+00  0.17245842321E+03  0.17246309935E+03  0.12700000000E+01 0.  1.
         -4   -1    0    0    0  501 -0.00000000000E+00 -0.00000000000E+00 -0.22627546746E+02  0.22663158909E+02  0.12700000000E+01 0.  1.
         25    2    1    2    0    0  0.00000000000E+00  0.00000000000E+00  0.14983087647E+03  0.19512625826E+03  0.12499986048E+03 0.  0.
    9000005    1    3    3    0    0 -0.56477989499E+02  0.90069332226E+01  0.35599220288E+02  0.67373530626E+02  0.10000000000E+01 0.  0.
    9000005    1    3    3    0    0  0.56477989499E+02 -0.90069332226E+01  0.11423165618E+03  0.12775272763E+03  0.10000000000E+01 0.  0.
<mgrwt>
<rscale>  0 0.12499986E+03</rscale>
<asrwt>0</asrwt>
<pdfrwt beam="1">  1        4 0.43119641E-01 0.12499986E+03</pdfrwt>
<pdfrwt beam="2">  1       -4 0.56619228E-02 0.12499986E+03</pdfrwt>
<totfact> 0.16519125E+03</totfact>
</mgrwt>
</event>
<event>
 5    1  0.1451195E-002  0.1250001E+03  0.7818608E-02  0.1235069E+00
          4   -1    0    0  501    0  0.00000000000E+00  0.00000000000E+00  0.84862037224E+01  0.85807082235E+01  0.12700000000E+01 0. -1.
         -4   -1    0    0    0  501 -0.00000000000E+00 -0.00000000000E+00 -0.45766230541E+03  0.45766406752E+03  0.12700000000E+01 0. -1.
         25    2    1    2    0    0  0.00000000000E+00  0.00000000000E+00 -0.44917610169E+03  0.46624477574E+03  0.12500008230E+03 0.  0.
    9000005    1    3    3    0    0  0.50649200984E+02  0.34566629317E+02 -0.26951222400E+03  0.27640193977E+03  0.10000000000E+01 0.  0.
    9000005    1    3    3    0    0 -0.50649200984E+02 -0.34566629317E+02 -0.17966387768E+03  0.18984283597E+03  0.10000000000E+01 0.  0.
<mgrwt>
<rscale>  0 0.12500008E+03</rscale>
<asrwt>0</asrwt>
<pdfrwt beam="1">  1        4 0.21335858E-02 0.12500008E+03</pdfrwt>
<pdfrwt beam="2">  1       -4 0.11442753E+00 0.12500008E+03</pdfrwt>
<totfact> 0.93171786E+02</totfact>
</mgrwt>
</event>
<event>
 5    1  0.1451195E-002  0.1249953E+03  0.7818608E-02  0.1235077E+00
          4   -1    0    0  501    0  0.00000000000E+00  0.00000000000E+00  0.58990769370E+02  0.59004438570E+02  0.12700000000E+01 0. -1.
         -4   -1    0    0    0  501 -0.00000000000E+00 -0.00000000000E+00 -0.66185586727E+02  0.66197770283E+02  0.12700000000E+01 0. -1.
         25    2    1    2    0    0  0.00000000000E+00  0.00000000000E+00 -0.71948173571E+01  0.12520220885E+03  0.12499531073E+03 0.  0.
    9000005    1    3    3    0    0 -0.23918690485E+02 -0.55741597377E+02  0.11451690350E+02  0.61736299245E+02  0.10000000000E+01 0.  0.
    9000005    1    3    3    0    0  0.23918690485E+02  0.55741597377E+02 -0.18646507707E+02  0.63465909607E+02  0.10000000000E+01 0.  0.
<mgrwt>
<rscale>  0 0.12499531E+03</rscale>
<asrwt>0</asrwt>
<pdfrwt beam="1">  1        4 0.14750924E-01 0.12499531E+03</pdfrwt>
<pdfrwt beam="2">  1       -4 0.16549628E-01 0.12499531E+03</pdfrwt>
<totfact> 0.19826268E+03</totfact>
</mgrwt>
</event>
<event>
 5    1  0.1451195E-002  0.1250059E+03  0.7818608E-02  0.1235060E+00
         -4   -1    0    0    0  501 -0.00000000000E+00  0.00000000000E+00  0.28151950388E+02  0.28180582155E+02  0.12700000000E+01 0. -1.
          4   -1    0    0  501    0  0.00000000000E+00 -0.00000000000E+00 -0.13866701941E+03  0.13867283502E+03  0.12700000000E+01 0. -1.
         25    2    1    2    0    0  0.00000000000E+00  0.00000000000E+00 -0.11051506902E+03  0.16685341717E+03  0.12500592923E+03 0.  0.
    9000005    1    3    3    0    0  0.24044023294E+02  0.39901938852E+02  0.34529368426E+00  0.46598272586E+02  0.10000000000E+01 0.  0.
    9000005    1    3    3    0    0 -0.24044023294E+02 -0.39901938852E+02 -0.11086036271E+03  0.12025514459E+03  0.10000000000E+01 0.  0.
<mgrwt>
<rscale>  0 0.12500593E+03</rscale>
<asrwt>0</asrwt>
<pdfrwt beam="2">  1        4 0.34671059E-01 0.12500593E+03</pdfrwt>
<pdfrwt beam="1">  1       -4 0.70422939E-02 0.12500593E+03</pdfrwt>
<totfact> 0.17737470E+03</totfact>
</mgrwt>
</event>
<event>
 5    1  0.1451195E-002  0.1250012E+03  0.7818608E-02  0.1235067E+00
          4   -1    0    0  501    0  0.00000000000E+00  0.00000000000E+00  0.29494218981E+03  0.29494492406E+03  0.12700000000E+01 0.  1.
         -4   -1    0    0    0  501 -0.00000000000E+00 -0.00000000000E+00 -0.13211123356E+02  0.13272026233E+02  0.12700000000E+01 0.  1.
         25    2    1    2    0    0  0.00000000000E+00  0.00000000000E+00  0.28173106645E+03  0.30821695029E+03  0.12500117857E+03 0.  0.
    9000005    1    3    3    0    0  0.53530972514E+02 -0.31777800207E+02  0.12737602303E+03  0.14177815363E+03  0.10000000000E+01 0.  0.
    9000005    1    3    3    0    0 -0.53530972514E+02  0.31777800207E+02  0.15435504342E+03  0.16643879666E+03  0.10000000000E+01 0.  0.
<mgrwt>
<rscale>  0 0.12500118E+03</rscale>
<asrwt>0</asrwt>
<pdfrwt beam="1">  1        4 0.73743499E-01 0.12500118E+03</pdfrwt>
<pdfrwt beam="2">  1       -4 0.33107356E-02 0.12500118E+03</pdfrwt>
<totfact> 0.12743502E+03</totfact>
</mgrwt>
</event>
<event>
 5    1  0.1451195E-002  0.1249979E+03  0.7818608E-02  0.1235073E+00
         -4   -1    0    0    0  501 -0.00000000000E+00  0.00000000000E+00  0.51729651403E+02  0.51745238759E+02  0.12700000000E+01 0.  1.
          4   -1    0    0  501    0  0.00000000000E+00 -0.00000000000E+00 -0.75477985685E+02  0.75488669501E+02  0.12700000000E+01 0.  1.
         25    2    1    2    0    0  0.00000000000E+00  0.00000000000E+00 -0.23748334282E+02  0.12723390826E+03  0.12499793610E+03 0.  0.
    9000005    1    3    3    0    0  0.11744933649E+02 -0.52697587075E+02  0.20155227876E+02  0.57638636006E+02  0.10000000000E+01 0.  0.
    9000005    1    3    3    0    0 -0.11744933649E+02  0.52697587075E+02 -0.43903562158E+02  0.69595272254E+02  0.10000000000E+01 0.  0.
<mgrwt>
<rscale>  0 0.12499794E+03</rscale>
<asrwt>0</asrwt>
<pdfrwt beam="2">  1        4 0.18872780E-01 0.12499794E+03</pdfrwt>
<pdfrwt beam="1">  1       -4 0.12935697E-01 0.12499794E+03</pdfrwt>
<totfact> 0.19715259E+03</totfact>
</mgrwt>
</event>
<event>
 5    1  0.1451195E-002  0.1249989E+03  0.7818608E-02  0.1235071E+00
         -4   -1    0    0    0  501 -0.00000000000E+00  0.00000000000E+00  0.26227871075E+02  0.26258600899E+02  0.12700000000E+01 0.  1.
          4   -1    0    0  501    0  0.00000000000E+00 -0.00000000000E+00 -0.14881183901E+03  0.14881725817E+03  0.12700000000E+01 0.  1.
         25    2    1    2    0    0  0.00000000000E+00  0.00000000000E+00 -0.12258396794E+03  0.17507585907E+03  0.12499890893E+03 0.  0.
    9000005    1    3    3    0    0 -0.57321038692E+02  0.23994427921E+02 -0.52027996530E+02  0.81051505050E+02  0.10000000000E+01 0.  0.
    9000005    1    3    3    0    0  0.57321038692E+02 -0.23994427921E+02 -0.70555971407E+02  0.94024354022E+02  0.10000000000E+01 0.  0.
<mgrwt>
<rscale>  0 0.12499891E+03</rscale>
<asrwt>0</asrwt>
<pdfrwt beam="2">  1        4 0.37207476E-01 0.12499891E+03</pdfrwt>
<pdfrwt beam="1">  1       -4 0.65614868E-02 0.12499891E+03</pdfrwt>
<totfact> 0.17370945E+03</totfact>
</mgrwt>
</event>
<event>
 5    1  0.1451195E-002  0.1249994E+03  0.7818608E-02  0.1235070E+00
         -4   -1    0    0    0  501 -0.00000000000E+00  0.00000000000E+00  0.83566458258E+01  0.84525989765E+01  0.12700000000E+01 0. -1.
          4   -1    0    0  501    0  0.00000000000E+00 -0.00000000000E+00 -0.46467261383E+03  0.46467434935E+03  0.12700000000E+01 0. -1.
         25    2    1    2    0    0  0.00000000000E+00  0.00000000000E+00 -0.45631596800E+03  0.47312694832E+03  0.12499938631E+03 0.  0.
    9000005    1    3    3    0    0  0.50386166432E+02  0.36956544290E+02 -0.23123228617E+03  0.23952854131E+03  0.10000000000E+01 0.  0.
    9000005    1    3    3    0    0 -0.50386166432E+02 -0.36956544290E+02 -0.22508368183E+03  0.23359840702E+03  0.10000000000E+01 0.  0.
<mgrwt>
<rscale>  0 0.12499939E+03</rscale>
<asrwt>0</asrwt>
<pdfrwt beam="2">  1        4 0.11618028E+00 0.12499939E+03</pdfrwt>
<pdfrwt beam="1">  1       -4 0.21013741E-02 0.12499939E+03</pdfrwt>
<totfact> 0.92009249E+02</totfact>
</mgrwt>
</event>
<event>
 5    1  0.1451195E-002  0.1250012E+03  0.7818608E-02  0.1235067E+00
         -4   -1    0    0    0  501 -0.00000000000E+00  0.00000000000E+00  0.11929624417E+02  0.11997034581E+02  0.12700000000E+01 0.  1.
          4   -1    0    0  501    0  0.00000000000E+00 -0.00000000000E+00 -0.32645633889E+03  0.32645880919E+03  0.12700000000E+01 0.  1.
         25    2    1    2    0    0  0.00000000000E+00  0.00000000000E+00 -0.31452671447E+03  0.33845584378E+03  0.12500121627E+03 0.  0.
    9000005    1    3    3    0    0  0.31643897412E+02  0.33584691951E+02 -0.27137143248E+03  0.27526845468E+03  0.10000000000E+01 0.  0.
    9000005    1    3    3    0    0 -0.31643897412E+02 -0.33584691951E+02 -0.43155281997E+02  0.63187389098E+02  0.10000000000E+01 0.  0.
<mgrwt>
<rscale>  0 0.12500122E+03</rscale>
<asrwt>0</asrwt>
<pdfrwt beam="2">  1        4 0.81622790E-01 0.12500122E+03</pdfrwt>
<pdfrwt beam="1">  1       -4 0.29911422E-02 0.12500122E+03</pdfrwt>
<totfact> 0.11957494E+03</totfact>
</mgrwt>
</event>
<event>
 5    1  0.1451195E-002  0.1250011E+03  0.7818608E-02  0.1235068E+00
         -4   -1    0    0    0  501 -0.00000000000E+00  0.00000000000E+00  0.12410090611E+03  0.12410740428E+03  0.12700000000E+01 0. -1.
          4   -1    0    0  501    0  0.00000000000E+00 -0.00000000000E+00 -0.31456801792E+02  0.31482428098E+02  0.12700000000E+01 0. -1.
         25    2    1    2    0    0  0.00000000000E+00  0.00000000000E+00  0.92644104316E+02  0.15558983238E+03  0.12500106349E+03 0.  0.
    9000005    1    3    3    0    0  0.40382083125E+02  0.44033814577E+02  0.23518843898E+02  0.64217018632E+02  0.10000000000E+01 0.  0.
    9000005    1    3    3    0    0 -0.40382083125E+02 -0.44033814577E+02  0.69125260417E+02  0.91372813744E+02  0.10000000000E+01 0.  0.
<mgrwt>
<rscale>  0 0.12500106E+03</rscale>
<asrwt>0</asrwt>
<pdfrwt beam="2">  1        4 0.78682160E-02 0.12500106E+03</pdfrwt>
<pdfrwt beam="1">  1       -4 0.31029242E-01 0.12500106E+03</pdfrwt>
<totfact> 0.18266848E+03</totfact>
</mgrwt>
</event>
<event>
 5    1  0.1451195E-002  0.1249992E+03  0.7818608E-02  0.1235071E+00
         -4   -1    0    0    0  501 -0.00000000000E+00  0.00000000000E+00  0.10745611118E+03  0.10746361584E+03  0.12700000000E+01 0.  1.
          4   -1    0    0  501    0  0.00000000000E+00 -0.00000000000E+00 -0.36331719770E+02  0.36353909851E+02  0.12700000000E+01 0.  1.
         25    2    1    2    0    0  0.00000000000E+00  0.00000000000E+00  0.71124391409E+02  0.14381752569E+03  0.12499920657E+03 0.  0.
    9000005    1    3    3    0    0 -0.47190540356E+02  0.75304677044E+01 -0.10768530580E+02  0.48996084474E+02  0.10000000000E+01 0.  0.
    9000005    1    3    3    0    0  0.47190540356E+02 -0.75304677044E+01  0.81892921989E+02  0.94821441219E+02  0.10000000000E+01 0.  0.
<mgrwt>
<rscale>  0 0.12499921E+03</rscale>
<asrwt>0</asrwt>
<pdfrwt beam="2">  1        4 0.90866418E-02 0.12499921E+03</pdfrwt>
<pdfrwt beam="1">  1       -4 0.26867739E-01 0.12499921E+03</pdfrwt>
<totfact> 0.18847065E+03</totfact>
</mgrwt>
</event>
<event>
 5    1  0.1451195E-002  0.1249990E+03  0.7818608E-02  0.1235071E+00
          4   -1    0    0  501    0  0.00000000000E+00  0.00000000000E+00  0.51682463747E+01  0.53219987401E+01  0.12700000000E+01 0.  1.
         -4   -1    0    0    0  501 -0.00000000000E+00 -0.00000000000E+00 -0.74457288272E+03  0.74457396582E+03  0.12700000000E+01 0.  1.
         25    2    1    2    0    0  0.00000000000E+00  0.00000000000E+00 -0.73940463635E+03  0.74989596456E+03  0.12499896567E+03 0.  0.
    9000005    1    3    3    0    0 -0.60512083695E+02 -0.24800566443E+01 -0.27728274387E+03  0.28382139278E+03  0.10000000000E+01 0.  0.
    9000005    1    3    3    0    0  0.60512083695E+02  0.24800566443E+01 -0.46212189248E+03  0.46607457178E+03  0.10000000000E+01 0.  0.
<mgrwt>
<rscale>  0 0.12499897E+03</rscale>
<asrwt>0</asrwt>
<pdfrwt beam="1">  1        4 0.13114186E-02 0.12499897E+03</pdfrwt>
<pdfrwt beam="2">  1       -4 0.18616221E+00 0.12499897E+03</pdfrwt>
<totfact> 0.57081681E+02</totfact>
</mgrwt>
</event>
<event>
 5    1  0.1451195E-002  0.1249824E+03  0.7818608E-02  0.1235097E+00
         -4   -1    0    0    0  501 -0.00000000000E+00  0.00000000000E+00  0.14367619969E+02  0.14423640441E+02  0.12700000000E+01 0.  1.
          4   -1    0    0  501    0  0.00000000000E+00 -0.00000000000E+00 -0.27121574812E+03  0.27121872157E+03  0.12700000000E+01 0.  1.
         25    2    1    2    0    0  0.00000000000E+00  0.00000000000E+00 -0.25684812815E+03  0.28564236201E+03  0.12498239092E+03 0.  0.
    9000005    1    3    3    0    0  0.51326864188E+02 -0.11864391946E+02 -0.20521482528E+03  0.21187103459E+03  0.10000000000E+01 0.  0.
    9000005    1    3    3    0    0 -0.51326864188E+02  0.11864391946E+02 -0.51633302871E+02  0.73771327418E+02  0.10000000000E+01 0.  0.
<mgrwt>
<rscale>  0 0.12498239E+03</rscale>
<asrwt>0</asrwt>
<pdfrwt beam="2">  1        4 0.67811295E-01 0.12498239E+03</pdfrwt>
<pdfrwt beam="1">  1       -4 0.35992801E-02 0.12498239E+03</pdfrwt>
<totfact> 0.13388623E+03</totfact>
</mgrwt>
</event>
<event>
 5    1  0.1451195E-002  0.1249942E+03  0.7818608E-02  0.1235078E+00
         -4   -1    0    0    0  501 -0.00000000000E+00  0.00000000000E+00  0.13229424875E+03  0.13230034449E+03  0.12700000000E+01 0.  1.
          4   -1    0    0  501    0  0.00000000000E+00 -0.00000000000E+00 -0.29503800250E+02  0.29531121367E+02  0.12700000000E+01 0.  1.
         25    2    1    2    0    0  0.00000000000E+00  0.00000000000E+00  0.10279044850E+03  0.16183146586E+03  0.12499418802E+03 0.  0.
    9000005    1    3    3    0    0 -0.56178157659E+02  0.26767692977E+02  0.44026507548E+02  0.76235347130E+02  0.10000000000E+01 0.  0.
    9000005    1    3    3    0    0  0.56178157659E+02 -0.26767692977E+02  0.58763940956E+02  0.85596118731E+02  0.10000000000E+01 0.  0.
<mgrwt>
<rscale>  0 0.12499419E+03</rscale>
<asrwt>0</asrwt>
<pdfrwt beam="2">  1        4 0.73801273E-02 0.12499419E+03</pdfrwt>
<pdfrwt beam="1">  1       -4 0.33077739E-01 0.12499419E+03</pdfrwt>
<totfact> 0.17974329E+03</totfact>
</mgrwt>
</event>
<event>
 5    1  0.1451195E-002  0.1249960E+03  0.7818608E-02  0.1235076E+00
         -4   -1    0    0    0  501 -0.00000000000E+00  0.00000000000E+00  0.94641858750E+02  0.94650379438E+02  0.12700000000E+01 0.  1.
          4   -1    0    0  501    0  0.00000000000E+00 -0.00000000000E+00 -0.41251223692E+02  0.41270768785E+02  0.12700000000E+01 0.  1.
         25    2    1    2    0    0  0.00000000000E+00  0.00000000000E+00  0.53390635058E+02  0.13592114822E+03  0.12499599442E+03 0.  0.
    9000005    1    3    3    0    0  0.13707434977E+02  0.47035075807E+02  0.68877730186E+02  0.84530076572E+02  0.10000000000E+01 0.  0.
    9000005    1    3    3    0    0 -0.13707434977E+02 -0.47035075807E+02 -0.15487095127E+02  0.51391071650E+02  0.10000000000E+01 0.  0.
<mgrwt>
<rscale>  0 0.12499599E+03</rscale>
<asrwt>0</asrwt>
<pdfrwt beam="2">  1        4 0.10316314E-01 0.12499599E+03</pdfrwt>
<pdfrwt beam="1">  1       -4 0.23663973E-01 0.12499599E+03</pdfrwt>
<totfact> 0.19252796E+03</totfact>
</mgrwt>
</event>
<event>
 5    1  0.1451195E-002  0.1250002E+03  0.7818608E-02  0.1235069E+00
          4   -1    0    0  501    0  0.00000000000E+00  0.00000000000E+00  0.39890355909E+02  0.39910567454E+02  0.12700000000E+01 0.  1.
         -4   -1    0    0    0  501 -0.00000000000E+00 -0.00000000000E+00 -0.97875792490E+02  0.97884031667E+02  0.12700000000E+01 0.  1.
         25    2    1    2    0    0  0.00000000000E+00  0.00000000000E+00 -0.57985436581E+02  0.13779459912E+03  0.12500016277E+03 0.  0.
    9000005    1    3    3    0    0 -0.36693402261E+02 -0.45685854888E+02 -0.52933305030E+02  0.78971753733E+02  0.10000000000E+01 0.  0.
    9000005    1    3    3    0    0  0.36693402261E+02  0.45685854888E+02 -0.50521315510E+01  0.58822845388E+02  0.10000000000E+01 0.  0.
<mgrwt>
<rscale>  0 0.12500016E+03</rscale>
<asrwt>0</asrwt>
<pdfrwt beam="1">  1        4 0.99761455E-02 0.12500016E+03</pdfrwt>
<pdfrwt beam="2">  1       -4 0.24472504E-01 0.12500016E+03</pdfrwt>
<totfact> 0.19153669E+03</totfact>
</mgrwt>
</event>
<event>
 5    1  0.1451195E-002  0.1249996E+03  0.7818608E-02  0.1235070E+00
          4   -1    0    0  501    0  0.00000000000E+00  0.00000000000E+00  0.37804144092E+03  0.37804357414E+03  0.12700000000E+01 0.  1.
         -4   -1    0    0    0  501 -0.00000000000E+00 -0.00000000000E+00 -0.10291603530E+02  0.10369667459E+02  0.12700000000E+01 0.  1.
         25    2    1    2    0    0  0.00000000000E+00  0.00000000000E+00  0.36774983739E+03  0.38841324160E+03  0.12499961341E+03 0.  0.
    9000005    1    3    3    0    0  0.25198788263E+02 -0.31061829207E+02  0.33307168594E+03  0.33546618926E+03  0.10000000000E+01 0.  0.
    9000005    1    3    3    0    0 -0.25198788263E+02  0.31061829207E+02  0.34678151446E+02  0.52947052338E+02  0.10000000000E+01 0.  0.
<mgrwt>
<rscale>  0 0.12499961E+03</rscale>
<asrwt>0</asrwt>
<pdfrwt beam="1">  1        4 0.94520378E-01 0.12499961E+03</pdfrwt>
<pdfrwt beam="2">  1       -4 0.25829257E-02 0.12499961E+03</pdfrwt>
<totfact> 0.10811920E+03</totfact>
</mgrwt>
</event>
<event>
 5    1  0.1451195E-002  0.1249983E+03  0.7818608E-02  0.1235072E+00
         -4   -1    0    0    0  501 -0.00000000000E+00  0.00000000000E+00  0.38530330545E+02  0.38551255127E+02  0.12700000000E+01 0. -1.
          4   -1    0    0  501    0  0.00000000000E+00 -0.00000000000E+00 -0.10132601290E+03  0.10133397155E+03  0.12700000000E+01 0. -1.
         25    2    1    2    0    0  0.00000000000E+00  0.00000000000E+00 -0.62795682353E+02  0.13988522668E+03  0.12499831567E+03 0.  0.
    9000005    1    3    3    0    0 -0.50775541857E+02 -0.20661056109E+02 -0.64972796584E+02  0.85014699825E+02  0.10000000000E+01 0.  0.
    9000005    1    3    3    0    0  0.50775541857E+02  0.20661056109E+02  0.21771142306E+01  0.54870526850E+02  0.10000000000E+01 0.  0.
<mgrwt>
<rscale>  0 0.12499832E+03</rscale>
<asrwt>0</asrwt>
<pdfrwt beam="2">  1        4 0.25335113E-01 0.12499832E+03</pdfrwt>
<pdfrwt beam="1">  1       -4 0.96361933E-02 0.12499832E+03</pdfrwt>
<totfact> 0.19046963E+03</totfact>
</mgrwt>
</event>
<event>
 5    1  0.1451195E-002  0.1250004E+03  0.7818608E-02  0.1235069E+00
          4   -1    0    0  501    0  0.00000000000E+00  0.00000000000E+00  0.12576178862E+03  0.12576820098E+03  0.12700000000E+01 0.  1.
         -4   -1    0    0    0  501 -0.00000000000E+00 -0.00000000000E+00 -0.31040724059E+02  0.31066693582E+02  0.12700000000E+01 0.  1.
         25    2    1    2    0    0  0.00000000000E+00  0.00000000000E+00  0.94721064566E+02  0.15683489456E+03  0.12500041632E+03 0.  0.
    9000005    1    3    3    0    0 -0.52639567705E+02  0.76031831366E+00  0.51136704435E+01  0.52902285371E+02  0.10000000000E+01 0.  0.
    9000005    1    3    3    0    0  0.52639567705E+02 -0.76031831366E+00  0.89607394123E+02  0.10393260919E+03  0.10000000000E+01 0.  0.
<mgrwt>
<rscale>  0 0.12500042E+03</rscale>
<asrwt>0</asrwt>
<pdfrwt beam="1">  1        4 0.31444495E-01 0.12500042E+03</pdfrwt>
<pdfrwt beam="2">  1       -4 0.77642288E-02 0.12500042E+03</pdfrwt>
<totfact> 0.18207558E+03</totfact>
</mgrwt>
</event>
<event>
 5    1  0.1451195E-002  0.1249961E+03  0.7818608E-02  0.1235075E+00
         -4   -1    0    0    0  501 -0.00000000000E+00  0.00000000000E+00  0.29282047094E+02  0.29309574921E+02  0.12700000000E+01 0. -1.
          4   -1    0    0  501    0  0.00000000000E+00 -0.00000000000E+00 -0.13329931094E+03  0.13330536072E+03  0.12700000000E+01 0. -1.
         25    2    1    2    0    0  0.00000000000E+00  0.00000000000E+00 -0.10401726385E+03  0.16261493564E+03  0.12499610440E+03 0.  0.
    9000005    1    3    3    0    0  0.44319189239E+02 -0.14381969324E+01 -0.10929147809E+03  0.11794865887E+03  0.10000000000E+01 0.  0.
    9000005    1    3    3    0    0 -0.44319189239E+02  0.14381969324E+01  0.52742142433E+01  0.44666276777E+02  0.10000000000E+01 0.  0.
<mgrwt>
<rscale>  0 0.12499610E+03</rscale>
<asrwt>0</asrwt>
<pdfrwt beam="2">  1        4 0.33329023E-01 0.12499610E+03</pdfrwt>
<pdfrwt beam="1">  1       -4 0.73247093E-02 0.12499610E+03</pdfrwt>
<totfact> 0.17937005E+03</totfact>
</mgrwt>
</event>
<event>
 5    1  0.1451195E-002  0.1250012E+03  0.7818608E-02  0.1235067E+00
          4   -1    0    0  501    0  0.00000000000E+00  0.00000000000E+00  0.30420349589E+03  0.30420614690E+03  0.12700000000E+01 0.  1.
         -4   -1    0    0    0  501 -0.00000000000E+00 -0.00000000000E+00 -0.12807038957E+02  0.12869854189E+02  0.12700000000E+01 0.  1.
         25    2    1    2    0    0  0.00000000000E+00  0.00000000000E+00  0.29139645693E+03  0.31707600109E+03  0.12500118141E+03 0.  0.
    9000005    1    3    3    0    0  0.57865051955E+01 -0.59681179548E+02  0.10103727376E+03  0.11749407441E+03  0.10000000000E+01 0.  0.
    9000005    1    3    3    0    0 -0.57865051955E+01  0.59681179548E+02  0.19035918318E+03  0.19958192667E+03  0.10000000000E+01 0.  0.
<mgrwt>
<rscale>  0 0.12500118E+03</rscale>
<asrwt>0</asrwt>
<pdfrwt beam="1">  1        4 0.76059057E-01 0.12500118E+03</pdfrwt>
<pdfrwt beam="2">  1       -4 0.32099430E-02 0.12500118E+03</pdfrwt>
<totfact> 0.12505275E+03</totfact>
</mgrwt>
</event>
<event>
 5    1  0.1451195E-002  0.1249976E+03  0.7818608E-02  0.1235073E+00
         -4   -1    0    0    0  501 -0.00000000000E+00  0.00000000000E+00  0.14701229782E+02  0.14755983773E+02  0.12700000000E+01 0.  1.
          4   -1    0    0  501    0  0.00000000000E+00 -0.00000000000E+00 -0.26514863211E+03  0.26515167359E+03  0.12700000000E+01 0.  1.
         25    2    1    2    0    0  0.00000000000E+00  0.00000000000E+00 -0.25044740233E+03  0.27990765737E+03  0.12499758126E+03 0.  0.
    9000005    1    3    3    0    0 -0.18347803612E+02  0.11128330653E+02 -0.25665041602E+03  0.25754789397E+03  0.10000000000E+01 0.  0.
    9000005    1    3    3    0    0  0.18347803612E+02 -0.11128330653E+02  0.62030136958E+01  0.22359763403E+02  0.10000000000E+01 0.  0.
<mgrwt>
<rscale>  0 0.12499758E+03</rscale>
<asrwt>0</asrwt>
<pdfrwt beam="2">  1        4 0.66294367E-01 0.12499758E+03</pdfrwt>
<pdfrwt beam="1">  1       -4 0.36825327E-02 0.12499758E+03</pdfrwt>
<totfact> 0.13554227E+03</totfact>
</mgrwt>
</event>
<event>
 5    1  0.1451195E-002  0.1249997E+03  0.7818608E-02  0.1235070E+00
         -4   -1    0    0    0  501 -0.00000000000E+00  0.00000000000E+00  0.13385638545E+03  0.13386241005E+03  0.12700000000E+01 0.  1.
          4   -1    0    0  501    0  0.00000000000E+00 -0.00000000000E+00 -0.29161739580E+02  0.29189380866E+02  0.12700000000E+01 0.  1.
         25    2    1    2    0    0  0.00000000000E+00  0.00000000000E+00  0.10469464587E+03  0.16305179092E+03  0.12499967059E+03 0.  0.
    9000005    1    3    3    0    0  0.11700214094E+01  0.24663852332E+02 -0.22535287727E+02  0.33444188656E+02  0.10000000000E+01 0.  0.
    9000005    1    3    3    0    0 -0.11700214094E+01 -0.24663852332E+02  0.12722993360E+03  0.12960760226E+03  0.10000000000E+01 0.  0.
<mgrwt>
<rscale>  0 0.12499967E+03</rscale>
<asrwt>0</asrwt>
<pdfrwt beam="2">  1        4 0.72946432E-02 0.12499967E+03</pdfrwt>
<pdfrwt beam="1">  1       -4 0.33468304E-01 0.12499967E+03</pdfrwt>
<totfact> 0.17915208E+03</totfact>
</mgrwt>
</event>
<event>
 5    1  0.1451195E-002  0.1249974E+03  0.7818608E-02  0.1235073E+00
          4   -1    0    0  501    0  0.00000000000E+00  0.00000000000E+00  0.30623965464E+03  0.30624228803E+03  0.12700000000E+01 0.  1.
         -4   -1    0    0    0  501 -0.00000000000E+00 -0.00000000000E+00 -0.12720700709E+02  0.12783940180E+02  0.12700000000E+01 0.  1.
         25    2    1    2    0    0  0.00000000000E+00  0.00000000000E+00  0.29351895393E+03  0.31902622821E+03  0.12499743183E+03 0.  0.
    9000005    1    3    3    0    0  0.57953672256E+02  0.45553713706E+01  0.88240274372E+02  0.10567272854E+03  0.10000000000E+01 0.  0.
    9000005    1    3    3    0    0 -0.57953672256E+02 -0.45553713706E+01  0.20527867956E+03  0.21335349966E+03  0.10000000000E+01 0.  0.
<mgrwt>
<rscale>  0 0.12499743E+03</rscale>
<asrwt>0</asrwt>
<pdfrwt beam="1">  1        4 0.76568145E-01 0.12499743E+03</pdfrwt>
<pdfrwt beam="2">  1       -4 0.31884094E-02 0.12499743E+03</pdfrwt>
<totfact> 0.12454812E+03</totfact>
</mgrwt>
</event>
<event>
 5    1  0.1451195E-002  0.1249976E+03  0.7818608E-02  0.1235073E+00
          4   -1    0    0  501    0  0.00000000000E+00  0.00000000000E+00  0.21689553678E+02  0.21726703357E+02  0.12700000000E+01 0. -1.
         -4   -1    0    0    0  501 -0.00000000000E+00 -0.00000000000E+00 -0.17989788632E+03  0.17990236909E+03  0.12700000000E+01 0. -1.
         25    2    1    2    0    0  0.00000000000E+00  0.00000000000E+00 -0.15820833264E+03  0.20162907244E+03  0.12499762532E+03 0.  0.
    9000005    1    3    3    0    0  0.59939270059E+01  0.55333384143E+02 -0.33269576639E+02  0.64850407025E+02  0.10000000000E+01 0.  0.
    9000005    1    3    3    0    0 -0.59939270059E+01 -0.55333384143E+02 -0.12493875600E+03  0.13677866542E+03  0.10000000000E+01 0.  0.
<mgrwt>
<rscale>  0 0.12499763E+03</rscale>
<asrwt>0</asrwt>
<pdfrwt beam="1">  1        4 0.54275930E-02 0.12499763E+03</pdfrwt>
<pdfrwt beam="2">  1       -4 0.44979671E-01 0.12499763E+03</pdfrwt>
<totfact> 0.16257911E+03</totfact>
</mgrwt>
</event>
<event>
 5    1  0.1451195E-002  0.1250066E+03  0.7818608E-02  0.1235059E+00
         -4   -1    0    0    0  501 -0.00000000000E+00  0.00000000000E+00  0.69625650685E+03  0.69625766511E+03  0.12700000000E+01 0.  1.
          4   -1    0    0  501    0  0.00000000000E+00 -0.00000000000E+00 -0.55379077733E+01  0.56816654694E+01  0.12700000000E+01 0.  1.
         25    2    1    2    0    0  0.00000000000E+00  0.00000000000E+00  0.69071859907E+03  0.70193933058E+03  0.12500656267E+03 0.  0.
    9000005    1    3    3    0    0 -0.44023998668E+02 -0.37920804365E+02  0.47457773537E+03  0.47812250185E+03  0.10000000000E+01 0.  0.
    9000005    1    3    3    0    0  0.44023998668E+02  0.37920804365E+02  0.21614086370E+03  0.22381682873E+03  0.10000000000E+01 0.  0.
<mgrwt>
<rscale>  0 0.12500656E+03</rscale>
<asrwt>0</asrwt>
<pdfrwt beam="2">  1        4 0.14025915E-02 0.12500656E+03</pdfrwt>
<pdfrwt beam="1">  1       -4 0.17408223E+00 0.12500656E+03</pdfrwt>
<totfact> 0.61854400E+02</totfact>
</mgrwt>
</event>
<event>
 5    1  0.1451195E-002  0.1250114E+03  0.7818608E-02  0.1235051E+00
          4   -1    0    0  501    0  0.00000000000E+00  0.00000000000E+00  0.19682231780E+01  0.23423924689E+01  0.12700000000E+01 0.  1.
         -4   -1    0    0    0  501 -0.00000000000E+00 -0.00000000000E+00 -0.18123425851E+04  0.18123430301E+04  0.12700000000E+01 0.  1.
         25    2    1    2    0    0  0.00000000000E+00  0.00000000000E+00 -0.18103743619E+04  0.18146854226E+04  0.12501140946E+03 0.  0.
    9000005    1    3    3    0    0  0.53463160122E+02  0.31777519610E+02 -0.99448560485E+03  0.99642899321E+03  0.10000000000E+01 0.  0.
    9000005    1    3    3    0    0 -0.53463160122E+02 -0.31777519610E+02 -0.81588875708E+03  0.81825642935E+03  0.10000000000E+01 0.  0.
<mgrwt>
<rscale>  0 0.12501141E+03</rscale>
<asrwt>0</asrwt>
<pdfrwt beam="1">  1        4 0.53888880E-03 0.12501141E+03</pdfrwt>
<pdfrwt beam="2">  1       -4 0.45312724E+00 0.12501141E+03</pdfrwt>
<totfact> 0.49047634E+01</totfact>
</mgrwt>
</event>
<event>
 5    1  0.1451195E-002  0.1250003E+03  0.7818608E-02  0.1235069E+00
         -4   -1    0    0    0  501 -0.00000000000E+00  0.00000000000E+00  0.74342034212E+01  0.75419016506E+01  0.12700000000E+01 0. -1.
          4   -1    0    0  501    0  0.00000000000E+00 -0.00000000000E+00 -0.52155825186E+03  0.52155979809E+03  0.12700000000E+01 0. -1.
         25    2    1    2    0    0  0.00000000000E+00  0.00000000000E+00 -0.51412404844E+03  0.52910169974E+03  0.12500028594E+03 0.  0.
    9000005    1    3    3    0    0  0.16458642935E+02  0.32596379720E+02 -0.47172223757E+03  0.47313452665E+03  0.10000000000E+01 0.  0.
    9000005    1    3    3    0    0 -0.16458642935E+02 -0.32596379720E+02 -0.42401810877E+02  0.55967173091E+02  0.10000000000E+01 0.  0.
<mgrwt>
<rscale>  0 0.12500029E+03</rscale>
<asrwt>0</asrwt>
<pdfrwt beam="2">  1        4 0.13040310E+00 0.12500029E+03</pdfrwt>
<pdfrwt beam="1">  1       -4 0.18722082E-02 0.12500029E+03</pdfrwt>
<totfact> 0.83156322E+02</totfact>
</mgrwt>
</event>
<event>
 5    1  0.1451195E-002  0.1249974E+03  0.7818608E-02  0.1235073E+00
          4   -1    0    0  501    0  0.00000000000E+00  0.00000000000E+00  0.31102639460E+01  0.33595597649E+01  0.12700000000E+01 0.  1.
         -4   -1    0    0    0  501 -0.00000000000E+00 -0.00000000000E+00 -0.12072285572E+04  0.12072292252E+04  0.12700000000E+01 0.  1.
         25    2    1    2    0    0  0.00000000000E+00  0.00000000000E+00 -0.12041182932E+04  0.12105887850E+04  0.12499736868E+03 0.  0.
    9000005    1    3    3    0    0 -0.18091526510E+02  0.48037810915E+02 -0.25689677719E+03  0.26197688589E+03  0.10000000000E+01 0.  0.
    9000005    1    3    3    0    0  0.18091526510E+02 -0.48037810915E+02 -0.94722151606E+03  0.94861189909E+03  0.10000000000E+01 0.  0.
<mgrwt>
<rscale>  0 0.12499737E+03</rscale>
<asrwt>0</asrwt>
<pdfrwt beam="1">  1        4 0.80881560E-03 0.12499737E+03</pdfrwt>
<pdfrwt beam="2">  1       -4 0.30183684E+00 0.12499737E+03</pdfrwt>
<totfact> 0.24655628E+02</totfact>
</mgrwt>
</event>
<event>
 5    1  0.1451195E-002  0.1249912E+03  0.7818608E-02  0.1235083E+00
         -4   -1    0    0    0  501 -0.00000000000E+00  0.00000000000E+00  0.17076164771E+02  0.17123326292E+02  0.12700000000E+01 0. -1.
          4   -1    0    0  501    0  0.00000000000E+00 -0.00000000000E+00 -0.22835795517E+03  0.22836148666E+03  0.12700000000E+01 0. -1.
         25    2    1    2    0    0  0.00000000000E+00  0.00000000000E+00 -0.21128179040E+03  0.24548481295E+03  0.12499119343E+03 0.  0.
    9000005    1    3    3    0    0  0.34641687629E+02 -0.51920226051E+02 -0.11151432830E+03  0.12779750315E+03  0.10000000000E+01 0.  0.
    9000005    1    3    3    0    0 -0.34641687629E+02  0.51920226051E+02 -0.99767462101E+02  0.11768730980E+03  0.10000000000E+01 0.  0.
<mgrwt>
<rscale>  0 0.12499119E+03</rscale>
<asrwt>0</asrwt>
<pdfrwt beam="2">  1        4 0.57095816E-01 0.12499119E+03</pdfrwt>
<pdfrwt beam="1">  1       -4 0.42753785E-02 0.12499119E+03</pdfrwt>
<totfact> 0.14652317E+03</totfact>
</mgrwt>
</event>
<event>
 4    1  0.1451195E-002  0.1250878E+03  0.7818608E-02  0.1234932E+00
          4   -1    0    0  501    0  0.00000000000E+00  0.00000000000E+00  0.12680533160E+02  0.12743971957E+02  0.12700000000E+01 0. -1.
         -4   -1    0    0    0  501 -0.00000000000E+00 -0.00000000000E+00 -0.30764915717E+03  0.30765177849E+03  0.12700000000E+01 0. -1.
    9000005    1    1    2    0    0  0.40827628351E+02 -0.39328260593E+02 -0.21511264757E+03  0.22245911638E+03  0.10000000000E+01 0.  0.
    9000005    1    1    2    0    0 -0.40827628351E+02  0.39328260593E+02 -0.79855976440E+02  0.97936634061E+02  0.10000000000E+01 0.  0.
<mgrwt>
<rscale>  0 0.12508776E+03</rscale>
<asrwt>0</asrwt>
<pdfrwt beam="1">  1        4 0.31783918E-02 0.12508776E+03</pdfrwt>
<pdfrwt beam="2">  1       -4 0.76920522E-01 0.12508776E+03</pdfrwt>
<totfact> 0.12393186E+03</totfact>
</mgrwt>
</event>
<event>
 5    1  0.1451195E-002  0.1250010E+03  0.7818608E-02  0.1235068E+00
         -4   -1    0    0    0  501 -0.00000000000E+00  0.00000000000E+00  0.13635696384E+03  0.13636287797E+03  0.12700000000E+01 0.  1.
          4   -1    0    0  501    0  0.00000000000E+00 -0.00000000000E+00 -0.28627073906E+02  0.28655230943E+02  0.12700000000E+01 0.  1.
         25    2    1    2    0    0  0.00000000000E+00  0.00000000000E+00  0.10772988993E+03  0.16501810891E+03  0.12500098833E+03 0.  0.
    9000005    1    3    3    0    0  0.50063042187E+01  0.60227396937E+02  0.74859206311E+02  0.96214880311E+02  0.10000000000E+01 0.  0.
    9000005    1    3    3    0    0 -0.50063042187E+01 -0.60227396937E+02  0.32870683620E+02  0.68803228597E+02  0.10000000000E+01 0.  0.
<mgrwt>
<rscale>  0 0.12500099E+03</rscale>
<asrwt>0</asrwt>
<pdfrwt beam="2">  1        4 0.71610275E-02 0.12500099E+03</pdfrwt>
<pdfrwt beam="1">  1       -4 0.34093499E-01 0.12500099E+03</pdfrwt>
<totfact> 0.17823711E+03</totfact>
</mgrwt>
</event>
<event>
 5    1  0.1451195E-002  0.1249997E+03  0.7818608E-02  0.1235070E+00
          4   -1    0    0  501    0  0.00000000000E+00  0.00000000000E+00  0.12987934875E+02  0.13049879398E+02  0.12700000000E+01 0. -1.
         -4   -1    0    0    0  501 -0.00000000000E+00 -0.00000000000E+00 -0.29997972694E+03  0.29998241528E+03  0.12700000000E+01 0. -1.
         25    2    1    2    0    0  0.00000000000E+00  0.00000000000E+00 -0.28699179207E+03  0.31303229468E+03  0.12499971519E+03 0.  0.
    9000005    1    3    3    0    0  0.49486300315E+02 -0.20751912696E+02 -0.22369869723E+03  0.23004704507E+03  0.10000000000E+01 0.  0.
    9000005    1    3    3    0    0 -0.49486300315E+02  0.20751912696E+02 -0.63293094835E+02  0.82985249612E+02  0.10000000000E+01 0.  0.
<mgrwt>
<rscale>  0 0.12499972E+03</rscale>
<asrwt>0</asrwt>
<pdfrwt beam="1">  1        4 0.32550638E-02 0.12499972E+03</pdfrwt>
<pdfrwt beam="2">  1       -4 0.75002988E-01 0.12499972E+03</pdfrwt>
<totfact> 0.12613590E+03</totfact>
</mgrwt>
</event>
<event>
 5    1  0.1451195E-002  0.1250198E+03  0.7818608E-02  0.1235038E+00
         -4   -1    0    0    0  501 -0.00000000000E+00  0.00000000000E+00  0.19210685910E+02  0.19252619383E+02  0.12700000000E+01 0.  1.
          4   -1    0    0  501    0  0.00000000000E+00 -0.00000000000E+00 -0.20313602311E+03  0.20313999307E+03  0.12700000000E+01 0.  1.
         25    2    1    2    0    0  0.00000000000E+00  0.00000000000E+00 -0.18392533720E+03  0.22239261245E+03  0.12501977607E+03 0.  0.
    9000005    1    3    3    0    0 -0.20357770281E+02  0.14638810820E+02 -0.19380532511E+03  0.19542322695E+03  0.10000000000E+01 0.  0.
    9000005    1    3    3    0    0  0.20357770281E+02 -0.14638810820E+02  0.98799879099E+01  0.26969385498E+02  0.10000000000E+01 0.  0.
<mgrwt>
<rscale>  0 0.12501978E+03</rscale>
<asrwt>0</asrwt>
<pdfrwt beam="2">  1        4 0.50789737E-01 0.12501978E+03</pdfrwt>
<pdfrwt beam="1">  1       -4 0.48084100E-02 0.12501978E+03</pdfrwt>
<totfact> 0.15455953E+03</totfact>
</mgrwt>
</event>
<event>
 5    1  0.1451195E-002  0.1249988E+03  0.7818608E-02  0.1235071E+00
          4   -1    0    0  501    0  0.00000000000E+00  0.00000000000E+00  0.79790608072E+03  0.79790709143E+03  0.12700000000E+01 0.  1.
         -4   -1    0    0    0  501 -0.00000000000E+00 -0.00000000000E+00 -0.48121383623E+01  0.49769042203E+01  0.12700000000E+01 0.  1.
         25    2    1    2    0    0  0.00000000000E+00  0.00000000000E+00  0.79309394236E+03  0.80288399565E+03  0.12499883624E+03 0.  0.
    9000005    1    3    3    0    0 -0.56608393555E+02 -0.23638372091E+02  0.47305895699E+03  0.47702102642E+03  0.10000000000E+01 0.  0.
    9000005    1    3    3    0    0  0.56608393555E+02  0.23638372091E+02  0.32003498537E+03  0.32586296923E+03  0.10000000000E+01 0.  0.
<mgrwt>
<rscale>  0 0.12499884E+03</rscale>
<asrwt>0</asrwt>
<pdfrwt beam="1">  1        4 0.19949730E+00 0.12499884E+03</pdfrwt>
<pdfrwt beam="2">  1       -4 0.12237563E-02 0.12499884E+03</pdfrwt>
<totfact> 0.52225522E+02</totfact>
</mgrwt>
</event>
<event>
 5    1  0.1451195E-002  0.1249991E+03  0.7818608E-02  0.1235071E+00
          4   -1    0    0  501    0  0.00000000000E+00  0.00000000000E+00  0.12856007169E+03  0.12856634448E+03  0.12700000000E+01 0. -1.
         -4   -1    0    0    0  501 -0.00000000000E+00 -0.00000000000E+00 -0.30363893795E+02  0.30390441695E+02  0.12700000000E+01 0. -1.
         25    2    1    2    0    0  0.00000000000E+00  0.00000000000E+00  0.98196177896E+02  0.15895678618E+03  0.12499908207E+03 0.  0.
    9000005    1    3    3    0    0 -0.32514942473E+02 -0.25885387832E+02  0.10844429992E+03  0.11613974760E+03  0.10000000000E+01 0.  0.
    9000005    1    3    3    0    0  0.32514942473E+02  0.25885387832E+02 -0.10248122026E+02  0.42817038575E+02  0.10000000000E+01 0.  0.
<mgrwt>
<rscale>  0 0.12499908E+03</rscale>
<asrwt>0</asrwt>
<pdfrwt beam="1">  1        4 0.32144120E-01 0.12499908E+03</pdfrwt>
<pdfrwt beam="2">  1       -4 0.75950761E-02 0.12499908E+03</pdfrwt>
<totfact> 0.18107346E+03</totfact>
</mgrwt>
</event>
<event>
 5    1  0.1451195E-002  0.1249983E+03  0.7818608E-02  0.1235072E+00
          4   -1    0    0  501    0  0.00000000000E+00  0.00000000000E+00  0.77462220170E+03  0.77462324278E+03  0.12700000000E+01 0.  1.
         -4   -1    0    0    0  501 -0.00000000000E+00 -0.00000000000E+00 -0.49616234912E+01  0.51215825356E+01  0.12700000000E+01 0.  1.
         25    2    1    2    0    0  0.00000000000E+00  0.00000000000E+00  0.76966057821E+03  0.77974482532E+03  0.12499834787E+03 0.  0.
    9000005    1    3    3    0    0  0.53860405561E+02  0.25679684400E+01  0.18780208163E+03  0.19539232230E+03  0.10000000000E+01 0.  0.
    9000005    1    3    3    0    0 -0.53860405561E+02 -0.25679684400E+01  0.58185849657E+03  0.58435250302E+03  0.10000000000E+01 0.  0.
<mgrwt>
<rscale>  0 0.12499835E+03</rscale>
<asrwt>0</asrwt>
<pdfrwt beam="1">  1        4 0.19367565E+00 0.12499835E+03</pdfrwt>
<pdfrwt beam="2">  1       -4 0.12605311E-02 0.12499835E+03</pdfrwt>
<totfact> 0.54299170E+02</totfact>
</mgrwt>
</event>
<event>
 5    1  0.1451195E-002  0.1250008E+03  0.7818608E-02  0.1235068E+00
          4   -1    0    0  501    0  0.00000000000E+00  0.00000000000E+00  0.10945702607E+04  0.10945709975E+04  0.12700000000E+01 0. -1.
         -4   -1    0    0    0  501 -0.00000000000E+00 -0.00000000000E+00 -0.34550496306E+01  0.36810688597E+01  0.12700000000E+01 0. -1.
         25    2    1    2    0    0  0.00000000000E+00  0.00000000000E+00  0.10911152111E+04  0.10982520663E+04  0.12500078951E+03 0.  0.
    9000005    1    3    3    0    0  0.61610746247E+02  0.29772742953E+01  0.63365899313E+03  0.63665490479E+03  0.10000000000E+01 0.  0.
    9000005    1    3    3    0    0 -0.61610746247E+02 -0.29772742953E+01  0.45745621795E+03  0.46159716156E+03  0.10000000000E+01 0.  0.
<mgrwt>
<rscale>  0 0.12500079E+03</rscale>
<asrwt>0</asrwt>
<pdfrwt beam="1">  1        4 0.27367070E+00 0.12500079E+03</pdfrwt>
<pdfrwt beam="2">  1       -4 0.89210760E-03 0.12500079E+03</pdfrwt>
<totfact> 0.30886426E+02</totfact>
</mgrwt>
</event>
<event>
 5    1  0.1451195E-002  0.1250134E+03  0.7818608E-02  0.1235048E+00
          4   -1    0    0  501    0  0.00000000000E+00  0.00000000000E+00  0.44194257596E+03  0.44194440074E+03  0.12700000000E+01 0. -1.
         -4   -1    0    0    0  501 -0.00000000000E+00 -0.00000000000E+00 -0.87932499061E+01  0.88844889505E+01  0.12700000000E+01 0. -1.
         25    2    1    2    0    0  0.00000000000E+00  0.00000000000E+00  0.43314932605E+03  0.45082888969E+03  0.12501339576E+03 0.  0.
    9000005    1    3    3    0    0 -0.36290907262E+02  0.50097508584E+02  0.24868785425E+03  0.25626829528E+03  0.10000000000E+01 0.  0.
    9000005    1    3    3    0    0  0.36290907262E+02 -0.50097508584E+02  0.18446147180E+03  0.19456059441E+03  0.10000000000E+01 0.  0.
<mgrwt>
<rscale>  0 0.12501340E+03</rscale>
<asrwt>0</asrwt>
<pdfrwt beam="1">  1        4 0.11049727E+00 0.12501340E+03</pdfrwt>
<pdfrwt beam="2">  1       -4 0.22099457E-02 0.12501340E+03</pdfrwt>
<totfact> 0.95839156E+02</totfact>
</mgrwt>
</event>
<event>
 5    1  0.1451195E-002  0.1249992E+03  0.7818608E-02  0.1235071E+00
         -4   -1    0    0    0  501 -0.00000000000E+00  0.00000000000E+00  0.60123778374E+02  0.60137190040E+02  0.12700000000E+01 0.  1.
          4   -1    0    0  501    0  0.00000000000E+00 -0.00000000000E+00 -0.64942447587E+02  0.64954864318E+02  0.12700000000E+01 0.  1.
         25    2    1    2    0    0  0.00000000000E+00  0.00000000000E+00 -0.48186692135E+01  0.12509205436E+03  0.12499920996E+03 0.  0.
    9000005    1    3    3    0    0  0.35327952692E+02  0.32774169675E+02 -0.42225695815E+02  0.64079792653E+02  0.10000000000E+01 0.  0.
    9000005    1    3    3    0    0 -0.35327952692E+02 -0.32774169675E+02  0.37407026602E+02  0.61012261706E+02  0.10000000000E+01 0.  0.
<mgrwt>
<rscale>  0 0.12499921E+03</rscale>
<asrwt>0</asrwt>
<pdfrwt beam="2">  1        4 0.16238840E-01 0.12499921E+03</pdfrwt>
<pdfrwt beam="1">  1       -4 0.15034173E-01 0.12499921E+03</pdfrwt>
<totfact> 0.19830430E+03</totfact>
</mgrwt>
</event>
<event>
 5    1  0.1451195E-002  0.1250180E+03  0.7818608E-02  0.1235041E+00
          4   -1    0    0  501    0  0.00000000000E+00  0.00000000000E+00  0.13955058396E+02  0.14012728315E+02  0.12700000000E+01 0. -1.
         -4   -1    0    0    0  501 -0.00000000000E+00 -0.00000000000E+00 -0.27936048066E+03  0.27936336742E+03  0.12700000000E+01 0. -1.
         25    2    1    2    0    0  0.00000000000E+00  0.00000000000E+00 -0.26540542227E+03  0.29337609574E+03  0.12501798023E+03 0.  0.
    9000005    1    3    3    0    0  0.40073736855E+02 -0.47853239296E+02 -0.14032016217E+03  0.15357924602E+03  0.10000000000E+01 0.  0.
    9000005    1    3    3    0    0 -0.40073736855E+02  0.47853239296E+02 -0.12508526010E+03  0.13979684971E+03  0.10000000000E+01 0.  0.
<mgrwt>
<rscale>  0 0.12501798E+03</rscale>
<asrwt>0</asrwt>
<pdfrwt beam="1">  1        4 0.34963351E-02 0.12501798E+03</pdfrwt>
<pdfrwt beam="2">  1       -4 0.69847672E-01 0.12501798E+03</pdfrwt>
<totfact> 0.13153335E+03</totfact>
</mgrwt>
</event>
<event>
 5    1  0.1451195E-002  0.1250101E+03  0.7818608E-02  0.1235053E+00
          4   -1    0    0  501    0  0.00000000000E+00  0.00000000000E+00  0.22594122104E+03  0.22594479030E+03  0.12700000000E+01 0.  1.
         -4   -1    0    0    0  501 -0.00000000000E+00 -0.00000000000E+00 -0.17264553423E+02  0.17311201717E+02  0.12700000000E+01 0.  1.
         25    2    1    2    0    0  0.00000000000E+00  0.00000000000E+00  0.20867666761E+03  0.24325599202E+03  0.12501010377E+03 0.  0.
    9000005    1    3    3    0    0 -0.58004019951E+02  0.23055320371E+02  0.98225825880E+02  0.11638439327E+03  0.10000000000E+01 0.  0.
    9000005    1    3    3    0    0  0.58004019951E+02 -0.23055320371E+02  0.11045084173E+03  0.12687159874E+03  0.10000000000E+01 0.  0.
<mgrwt>
<rscale>  0 0.12501010E+03</rscale>
<asrwt>0</asrwt>
<pdfrwt beam="1">  1        4 0.56491581E-01 0.12501010E+03</pdfrwt>
<pdfrwt beam="2">  1       -4 0.43224156E-02 0.12501010E+03</pdfrwt>
<totfact> 0.14721509E+03</totfact>
</mgrwt>
</event>
<event>
 5    1  0.1451195E-002  0.1249996E+03  0.7818608E-02  0.1235070E+00
          4   -1    0    0  501    0  0.00000000000E+00  0.00000000000E+00  0.45586444455E+02  0.45604131589E+02  0.12700000000E+01 0. -1.
         -4   -1    0    0    0  501 -0.00000000000E+00 -0.00000000000E+00 -0.85649247466E+02  0.85658662677E+02  0.12700000000E+01 0. -1.
         25    2    1    2    0    0  0.00000000000E+00  0.00000000000E+00 -0.40062803012E+02  0.13126279427E+03  0.12499957189E+03 0.  0.
    9000005    1    3    3    0    0  0.40580236092E+02  0.23383148576E+01  0.29812693144E+02  0.50418448510E+02  0.10000000000E+01 0.  0.
    9000005    1    3    3    0    0 -0.40580236092E+02 -0.23383148576E+01 -0.69875496156E+02  0.80844345756E+02  0.10000000000E+01 0.  0.
<mgrwt>
<rscale>  0 0.12499957E+03</rscale>
<asrwt>0</asrwt>
<pdfrwt beam="1">  1        4 0.11399999E-01 0.12499957E+03</pdfrwt>
<pdfrwt beam="2">  1       -4 0.21415699E-01 0.12499957E+03</pdfrwt>
<totfact> 0.19496929E+03</totfact>
</mgrwt>
</event>
<event>
 5    1  0.1451195E-002  0.1250014E+03  0.7818608E-02  0.1235067E+00
         -4   -1    0    0    0  501 -0.00000000000E+00  0.00000000000E+00  0.52855583638E+02  0.52870839048E+02  0.12700000000E+01 0. -1.
          4   -1    0    0  501    0  0.00000000000E+00 -0.00000000000E+00 -0.73874434117E+02  0.73885349807E+02  0.12700000000E+01 0. -1.
         25    2    1    2    0    0  0.00000000000E+00  0.00000000000E+00 -0.21018850479E+02  0.12675618886E+03  0.12500135734E+03 0.  0.
    9000005    1    3    3    0    0  0.19967315857E+02 -0.41608248260E+02  0.32217527159E+02  0.56293064245E+02  0.10000000000E+01 0.  0.
    9000005    1    3    3    0    0 -0.19967315857E+02  0.41608248260E+02 -0.53236377638E+02  0.70463124610E+02  0.10000000000E+01 0.  0.
<mgrwt>
<rscale>  0 0.12500136E+03</rscale>
<asrwt>0</asrwt>
<pdfrwt beam="2">  1        4 0.18471880E-01 0.12500136E+03</pdfrwt>
<pdfrwt beam="1">  1       -4 0.13217167E-01 0.12500136E+03</pdfrwt>
<totfact> 0.19739485E+03</totfact>
</mgrwt>
</event>
<event>
 5    1  0.1451195E-002  0.1250118E+03  0.7818608E-02  0.1235051E+00
         -4   -1    0    0    0  501 -0.00000000000E+00  0.00000000000E+00  0.61727931434E+02  0.61740994640E+02  0.12700000000E+01 0.  1.
          4   -1    0    0  501    0  0.00000000000E+00 -0.00000000000E+00 -0.63267537715E+02  0.63280283095E+02  0.12700000000E+01 0.  1.
         25    2    1    2    0    0  0.00000000000E+00  0.00000000000E+00 -0.15396062808E+01  0.12502127773E+03  0.12501179744E+03 0.  0.
    9000005    1    3    3    0    0  0.55990430222E+02 -0.23445053105E+02 -0.15650063980E+02  0.62693885619E+02  0.10000000000E+01 0.  0.
    9000005    1    3    3    0    0 -0.55990430222E+02  0.23445053105E+02  0.14110457699E+02  0.62327392116E+02  0.10000000000E+01 0.  0.
<mgrwt>
<rscale>  0 0.12501180E+03</rscale>
<asrwt>0</asrwt>
<pdfrwt beam="2">  1        4 0.15820111E-01 0.12501180E+03</pdfrwt>
<pdfrwt beam="1">  1       -4 0.15435209E-01 0.12501180E+03</pdfrwt>
<totfact> 0.19828427E+03</totfact>
</mgrwt>
</event>
<event>
 5    1  0.1451195E-002  0.1249867E+03  0.7818608E-02  0.1235090E+00
          4   -1    0    0  501    0  0.00000000000E+00  0.00000000000E+00  0.11235578933E+03  0.11236296675E+03  0.12700000000E+01 0. -1.
         -4   -1    0    0    0  501 -0.00000000000E+00 -0.00000000000E+00 -0.34739498006E+02  0.34762704465E+02  0.12700000000E+01 0. -1.
         25    2    1    2    0    0  0.00000000000E+00  0.00000000000E+00  0.77616291328E+02  0.14712567122E+03  0.12498669710E+03 0.  0.
    9000005    1    3    3    0    0  0.34969446150E+01 -0.24392046163E+02 -0.28784353080E+02  0.37904346979E+02  0.10000000000E+01 0.  0.
    9000005    1    3    3    0    0 -0.34969446150E+01  0.24392046163E+02  0.10640064441E+03  0.10922132424E+03  0.10000000000E+01 0.  0.
<mgrwt>
<rscale>  0 0.12498670E+03</rscale>
<asrwt>0</asrwt>
<pdfrwt beam="1">  1        4 0.28092745E-01 0.12498670E+03</pdfrwt>
<pdfrwt beam="2">  1       -4 0.86886726E-02 0.12498670E+03</pdfrwt>
<totfact> 0.18686807E+03</totfact>
</mgrwt>
</event>
<event>
 5    1  0.1451195E-002  0.1249996E+03  0.7818608E-02  0.1235070E+00
         -4   -1    0    0    0  501 -0.00000000000E+00  0.00000000000E+00  0.11879421478E+04  0.11879428267E+04  0.12700000000E+01 0.  1.
          4   -1    0    0  501    0  0.00000000000E+00 -0.00000000000E+00 -0.31648987692E+01  0.34102029587E+01  0.12700000000E+01 0.  1.
         25    2    1    2    0    0  0.00000000000E+00  0.00000000000E+00  0.11847772491E+04  0.11913530297E+04  0.12499964547E+03 0.  0.
    9000005    1    3    3    0    0 -0.45804471412E+02  0.28113183327E+02  0.89630581245E+03  0.89791620439E+03  0.10000000000E+01 0.  0.
    9000005    1    3    3    0    0  0.45804471412E+02 -0.28113183327E+02  0.28847143662E+03  0.29343682527E+03  0.10000000000E+01 0.  0.
<mgrwt>
<rscale>  0 0.12499965E+03</rscale>
<asrwt>0</asrwt>
<pdfrwt beam="2">  1        4 0.82197310E-03 0.12499965E+03</pdfrwt>
<pdfrwt beam="1">  1       -4 0.29701609E+00 0.12499965E+03</pdfrwt>
<totfact> 0.25657885E+02</totfact>
</mgrwt>
</event>
<event>
 5    1  0.1451195E-002  0.1250002E+03  0.7818608E-02  0.1235069E+00
          4   -1    0    0  501    0  0.00000000000E+00  0.00000000000E+00  0.20636348315E+02  0.20675390487E+02  0.12700000000E+01 0.  1.
         -4   -1    0    0    0  501 -0.00000000000E+00 -0.00000000000E+00 -0.18907025879E+03  0.18907452409E+03  0.12700000000E+01 0.  1.
         25    2    1    2    0    0  0.00000000000E+00  0.00000000000E+00 -0.16843391048E+03  0.20974991458E+03  0.12500017787E+03 0.  0.
    9000005    1    3    3    0    0 -0.62420973439E+02  0.12420205768E+00 -0.89213827640E+02  0.10888755849E+03  0.10000000000E+01 0.  0.
    9000005    1    3    3    0    0  0.62420973439E+02 -0.12420205768E+00 -0.79220082837E+02  0.10086235609E+03  0.10000000000E+01 0.  0.
<mgrwt>
<rscale>  0 0.12500018E+03</rscale>
<asrwt>0</asrwt>
<pdfrwt beam="1">  1        4 0.51645011E-02 0.12500018E+03</pdfrwt>
<pdfrwt beam="2">  1       -4 0.47272973E-01 0.12500018E+03</pdfrwt>
<totfact> 0.15938879E+03</totfact>
</mgrwt>
</event>
<event>
 5    1  0.1451195E-002  0.1250081E+03  0.7818608E-02  0.1235057E+00
          4   -1    0    0  501    0  0.00000000000E+00  0.00000000000E+00  0.29455120554E+02  0.29482486782E+02  0.12700000000E+01 0. -1.
         -4   -1    0    0    0  501 -0.00000000000E+00 -0.00000000000E+00 -0.13254227450E+03  0.13254835884E+03  0.12700000000E+01 0. -1.
         25    2    1    2    0    0  0.00000000000E+00  0.00000000000E+00 -0.10308715395E+03  0.16203084562E+03  0.12500813423E+03 0.  0.
    9000005    1    3    3    0    0  0.44387367525E+02  0.20958730690E+02 -0.10168096924E+03  0.11291380028E+03  0.10000000000E+01 0.  0.
    9000005    1    3    3    0    0 -0.44387367525E+02 -0.20958730690E+02 -0.14061847144E+01  0.49117045345E+02  0.10000000000E+01 0.  0.
<mgrwt>
<rscale>  0 0.12500813E+03</rscale>
<asrwt>0</asrwt>
<pdfrwt beam="1">  1        4 0.73679618E-02 0.12500813E+03</pdfrwt>
<pdfrwt beam="2">  1       -4 0.33139748E-01 0.12500813E+03</pdfrwt>
<totfact> 0.17959202E+03</totfact>
</mgrwt>
</event>
<event>
 5    1  0.1451195E-002  0.1249977E+03  0.7818608E-02  0.1235073E+00
         -4   -1    0    0    0  501 -0.00000000000E+00  0.00000000000E+00  0.16158840109E+03  0.16159339178E+03  0.12700000000E+01 0.  1.
          4   -1    0    0  501    0  0.00000000000E+00 -0.00000000000E+00 -0.24151142980E+02  0.24184511722E+02  0.12700000000E+01 0.  1.
         25    2    1    2    0    0  0.00000000000E+00  0.00000000000E+00  0.13743725811E+03  0.18577790350E+03  0.12499771803E+03 0.  0.
    9000005    1    3    3    0    0  0.39205856678E+02 -0.46121981914E+02  0.91780473013E+02  0.10994995061E+03  0.10000000000E+01 0.  0.
    9000005    1    3    3    0    0 -0.39205856678E+02  0.46121981914E+02  0.45656785097E+02  0.75827952887E+02  0.10000000000E+01 0.  0.
<mgrwt>
<rscale>  0 0.12499772E+03</rscale>
<asrwt>0</asrwt>
<pdfrwt beam="2">  1        4 0.60425808E-02 0.12499772E+03</pdfrwt>
<pdfrwt beam="1">  1       -4 0.40401894E-01 0.12499772E+03</pdfrwt>
<totfact> 0.16908709E+03</totfact>
</mgrwt>
</event>
<event>
 5    1  0.1451195E-002  0.1249970E+03  0.7818608E-02  0.1235074E+00
          4   -1    0    0  501    0  0.00000000000E+00  0.00000000000E+00  0.28035587720E+03  0.28035875371E+03  0.12700000000E+01 0.  1.
         -4   -1    0    0    0  501 -0.00000000000E+00 -0.00000000000E+00 -0.13900627836E+02  0.13958522638E+02  0.12700000000E+01 0.  1.
         25    2    1    2    0    0  0.00000000000E+00  0.00000000000E+00  0.26645524937E+03  0.29431727635E+03  0.12499703693E+03 0.  0.
    9000005    1    3    3    0    0 -0.61389208393E+01  0.46291011221E+02  0.35447576086E+02  0.58635098015E+02  0.10000000000E+01 0.  0.
    9000005    1    3    3    0    0  0.61389208393E+01 -0.46291011221E+02  0.23100767328E+03  0.23568217833E+03  0.10000000000E+01 0.  0.
<mgrwt>
<rscale>  0 0.12499704E+03</rscale>
<asrwt>0</asrwt>
<pdfrwt beam="1">  1        4 0.70096571E-01 0.12499704E+03</pdfrwt>
<pdfrwt beam="2">  1       -4 0.34827531E-02 0.12499704E+03</pdfrwt>
<totfact> 0.13132724E+03</totfact>
</mgrwt>
</event>
<event>
 5    1  0.1451195E-002  0.1250016E+03  0.7818608E-02  0.1235067E+00
          4   -1    0    0  501    0  0.00000000000E+00  0.00000000000E+00  0.27619815128E+03  0.27620107109E+03  0.12700000000E+01 0.  1.
         -4   -1    0    0    0  501 -0.00000000000E+00 -0.00000000000E+00 -0.14111774229E+02  0.14168806297E+02  0.12700000000E+01 0.  1.
         25    2    1    2    0    0  0.00000000000E+00  0.00000000000E+00  0.26208637705E+03  0.29036987739E+03  0.12500158662E+03 0.  0.
    9000005    1    3    3    0    0 -0.12032589181E+02  0.87872646951E+01  0.27202319510E+03  0.27243277684E+03  0.10000000000E+01 0.  0.
    9000005    1    3    3    0    0  0.12032589181E+02 -0.87872646951E+01 -0.99368180473E+01  0.17937100550E+02  0.10000000000E+01 0.  0.
<mgrwt>
<rscale>  0 0.12500159E+03</rscale>
<asrwt>0</asrwt>
<pdfrwt beam="1">  1        4 0.69057033E-01 0.12500159E+03</pdfrwt>
<pdfrwt beam="2">  1       -4 0.35354375E-02 0.12500159E+03</pdfrwt>
<totfact> 0.13244834E+03</totfact>
</mgrwt>
</event>
<event>
 5    1  0.1451195E-002  0.1249966E+03  0.7818608E-02  0.1235075E+00
         -4   -1    0    0    0  501 -0.00000000000E+00  0.00000000000E+00  0.88339528578E+02  0.88348657089E+02  0.12700000000E+01 0. -1.
          4   -1    0    0  501    0  0.00000000000E+00 -0.00000000000E+00 -0.44195652395E+02  0.44213895900E+02  0.12700000000E+01 0. -1.
         25    2    1    2    0    0  0.00000000000E+00  0.00000000000E+00  0.44143876183E+02  0.13256255299E+03  0.12499659455E+03 0.  0.
    9000005    1    3    3    0    0 -0.30387326337E+02  0.27557880700E+02  0.72065640715E+02  0.82929385397E+02  0.10000000000E+01 0.  0.
    9000005    1    3    3    0    0  0.30387326337E+02 -0.27557880700E+02 -0.27921764532E+02  0.49633167592E+02  0.10000000000E+01 0.  0.
<mgrwt>
<rscale>  0 0.12499659E+03</rscale>
<asrwt>0</asrwt>
<pdfrwt beam="2">  1        4 0.11052335E-01 0.12499659E+03</pdfrwt>
<pdfrwt beam="1">  1       -4 0.22088303E-01 0.12499659E+03</pdfrwt>
<totfact> 0.19429127E+03</totfact>
</mgrwt>
</event>
<event>
 5    1  0.1451195E-002  0.1250034E+03  0.7818608E-02  0.1235064E+00
          4   -1    0    0  501    0  0.00000000000E+00  0.00000000000E+00  0.11870736967E+02  0.11938479641E+02  0.12700000000E+01 0. -1.
         -4   -1    0    0    0  501 -0.00000000000E+00 -0.00000000000E+00 -0.32807786574E+03  0.32808032383E+03  0.12700000000E+01 0. -1.
         25    2    1    2    0    0  0.00000000000E+00  0.00000000000E+00 -0.31620712877E+03  0.34001880348E+03  0.12500335368E+03 0.  0.
    9000005    1    3    3    0    0  0.77649311204E+01 -0.19858723226E+02 -0.31789038247E+03  0.31860627475E+03  0.10000000000E+01 0.  0.
    9000005    1    3    3    0    0 -0.77649311204E+01  0.19858723226E+02  0.16832536961E+01  0.21412528727E+02  0.10000000000E+01 0.  0.
<mgrwt>
<rscale>  0 0.12500335E+03</rscale>
<asrwt>0</asrwt>
<pdfrwt beam="1">  1        4 0.29764604E-02 0.12500335E+03</pdfrwt>
<pdfrwt beam="2">  1       -4 0.82028212E-01 0.12500335E+03</pdfrwt>
<totfact> 0.11918303E+03</totfact>
</mgrwt>
</event>
<event>
 5    1  0.1451195E-002  0.1249997E+03  0.7818608E-02  0.1235070E+00
          4   -1    0    0  501    0  0.00000000000E+00  0.00000000000E+00  0.56352248234E+01  0.57765611578E+01  0.12700000000E+01 0.  1.
         -4   -1    0    0    0  501 -0.00000000000E+00 -0.00000000000E+00 -0.68445363662E+03  0.68445481486E+03  0.12700000000E+01 0.  1.
         25    2    1    2    0    0  0.00000000000E+00  0.00000000000E+00 -0.67881841180E+03  0.69023137602E+03  0.12499966497E+03 0.  0.
    9000005    1    3    3    0    0  0.57730761967E+02 -0.16203378081E+02 -0.24221201922E+03  0.24952565518E+03  0.10000000000E+01 0.  0.
    9000005    1    3    3    0    0 -0.57730761967E+02  0.16203378081E+02 -0.43660639257E+03  0.44070572083E+03  0.10000000000E+01 0.  0.
<mgrwt>
<rscale>  0 0.12499966E+03</rscale>
<asrwt>0</asrwt>
<pdfrwt beam="1">  1        4 0.14266229E-02 0.12499966E+03</pdfrwt>
<pdfrwt beam="2">  1       -4 0.17113094E+00 0.12499966E+03</pdfrwt>
<totfact> 0.63089302E+02</totfact>
</mgrwt>
</event>
<event>
 5    1  0.1451195E-002  0.1250035E+03  0.7818608E-02  0.1235064E+00
         -4   -1    0    0    0  501 -0.00000000000E+00  0.00000000000E+00  0.27858449188E+03  0.27858738668E+03  0.12700000000E+01 0.  1.
          4   -1    0    0  501    0  0.00000000000E+00 -0.00000000000E+00 -0.13990842826E+02  0.14048365847E+02  0.12700000000E+01 0.  1.
         25    2    1    2    0    0  0.00000000000E+00  0.00000000000E+00  0.26459364906E+03  0.29263575253E+03  0.12500353809E+03 0.  0.
    9000005    1    3    3    0    0 -0.42594206711E+01 -0.10669488575E+02 -0.11509076873E+02  0.16292314181E+02  0.10000000000E+01 0.  0.
    9000005    1    3    3    0    0  0.42594206711E+01  0.10669488575E+02  0.27610272593E+03  0.27634343835E+03  0.10000000000E+01 0.  0.
<mgrwt>
<rscale>  0 0.12500354E+03</rscale>
<asrwt>0</asrwt>
<pdfrwt beam="2">  1        4 0.35052631E-02 0.12500354E+03</pdfrwt>
<pdfrwt beam="1">  1       -4 0.69653672E-01 0.12500354E+03</pdfrwt>
<totfact> 0.13178923E+03</totfact>
</mgrwt>
</event>
<event>
 5    1  0.1451195E-002  0.1250004E+03  0.7818608E-02  0.1235069E+00
          4   -1    0    0  501    0  0.00000000000E+00  0.00000000000E+00  0.12607747449E+02  0.12671550644E+02  0.12700000000E+01 0.  1.
         -4   -1    0    0    0  501 -0.00000000000E+00 -0.00000000000E+00 -0.30898438874E+03  0.30898699873E+03  0.12700000000E+01 0.  1.
         25    2    1    2    0    0  0.00000000000E+00  0.00000000000E+00 -0.29637664129E+03  0.32165854937E+03  0.12500043553E+03 0.  0.
    9000005    1    3    3    0    0 -0.47889348933E+01  0.45797106318E+02 -0.39470976132E+02  0.60656960041E+02  0.10000000000E+01 0.  0.
    9000005    1    3    3    0    0  0.47889348933E+01 -0.45797106318E+02 -0.25690566516E+03  0.26100158933E+03  0.10000000000E+01 0.  0.
<mgrwt>
<rscale>  0 0.12500044E+03</rscale>
<asrwt>0</asrwt>
<pdfrwt beam="1">  1        4 0.31602395E-02 0.12500044E+03</pdfrwt>
<pdfrwt beam="2">  1       -4 0.77254374E-01 0.12500044E+03</pdfrwt>
<totfact> 0.12384912E+03</totfact>
</mgrwt>
</event>
<event>
 5    1  0.1451195E-002  0.1250262E+03  0.7818608E-02  0.1235028E+00
          4   -1    0    0  501    0  0.00000000000E+00  0.00000000000E+00  0.13657375198E+02  0.13716296778E+02  0.12700000000E+01 0. -1.
         -4   -1    0    0    0  501 -0.00000000000E+00 -0.00000000000E+00 -0.28546108662E+03  0.28546391168E+03  0.12700000000E+01 0. -1.
         25    2    1    2    0    0  0.00000000000E+00  0.00000000000E+00 -0.27180371142E+03  0.29918020846E+03  0.12502615564E+03 0.  0.
    9000005    1    3    3    0    0  0.21844710760E+02 -0.45337479667E+01  0.38167729824E+01  0.22656434292E+02  0.10000000000E+01 0.  0.
    9000005    1    3    3    0    0 -0.21844710760E+02  0.45337479667E+01 -0.27562048440E+03  0.27652377417E+03  0.10000000000E+01 0.  0.
<mgrwt>
<rscale>  0 0.12502616E+03</rscale>
<asrwt>0</asrwt>
<pdfrwt beam="1">  1        4 0.34220631E-02 0.12502616E+03</pdfrwt>
<pdfrwt beam="2">  1       -4 0.71372971E-01 0.12502616E+03</pdfrwt>
<totfact> 0.12986281E+03</totfact>
</mgrwt>
</event>
<event>
 5    1  0.1451195E-002  0.1249926E+03  0.7818608E-02  0.1235081E+00
         -4   -1    0    0    0  501 -0.00000000000E+00  0.00000000000E+00  0.64633745199E+02  0.64646221224E+02  0.12700000000E+01 0. -1.
          4   -1    0    0  501    0  0.00000000000E+00 -0.00000000000E+00 -0.60404596523E+02  0.60417945853E+02  0.12700000000E+01 0. -1.
         25    2    1    2    0    0  0.00000000000E+00  0.00000000000E+00  0.42291486764E+01  0.12506416708E+03  0.12499264054E+03 0.  0.
    9000005    1    3    3    0    0  0.50255635321E+02  0.36536278529E+02  0.87713144012E+01  0.62757186732E+02  0.10000000000E+01 0.  0.
    9000005    1    3    3    0    0 -0.50255635321E+02 -0.36536278529E+02 -0.45421657248E+01  0.62306980345E+02  0.10000000000E+01 0.  0.
<mgrwt>
<rscale>  0 0.12499264E+03</rscale>
<asrwt>0</asrwt>
<pdfrwt beam="2">  1        4 0.15104377E-01 0.12499264E+03</pdfrwt>
<pdfrwt beam="1">  1       -4 0.16161664E-01 0.12499264E+03</pdfrwt>
<totfact> 0.19834991E+03</totfact>
</mgrwt>
</event>
<event>
 5    1  0.1451195E-002  0.1249990E+03  0.7818608E-02  0.1235071E+00
         -4   -1    0    0    0  501 -0.00000000000E+00  0.00000000000E+00  0.14499222708E+03  0.14499778899E+03  0.12700000000E+01 0.  1.
          4   -1    0    0  501    0  0.00000000000E+00 -0.00000000000E+00 -0.26919617872E+02  0.26949558927E+02  0.12700000000E+01 0.  1.
         25    2    1    2    0    0  0.00000000000E+00  0.00000000000E+00  0.11807260920E+03  0.17194734792E+03  0.12499899764E+03 0.  0.
    9000005    1    3    3    0    0 -0.60791777933E+01  0.31696284649E+02 -0.14574801797E+02  0.35426483182E+02  0.10000000000E+01 0.  0.
    9000005    1    3    3    0    0  0.60791777933E+01 -0.31696284649E+02  0.13264741100E+03  0.13652086474E+03  0.10000000000E+01 0.  0.
<mgrwt>
<rscale>  0 0.12499900E+03</rscale>
<asrwt>0</asrwt>
<pdfrwt beam="2">  1        4 0.67343424E-02 0.12499900E+03</pdfrwt>
<pdfrwt beam="1">  1       -4 0.36252494E-01 0.12499900E+03</pdfrwt>
<totfact> 0.17509977E+03</totfact>
</mgrwt>
</event>
<event>
 5    1  0.1451195E-002  0.1249986E+03  0.7818608E-02  0.1235071E+00
          4   -1    0    0  501    0  0.00000000000E+00  0.00000000000E+00  0.20767078100E+02  0.20805874959E+02  0.12700000000E+01 0. -1.
         -4   -1    0    0    0  501 -0.00000000000E+00 -0.00000000000E+00 -0.18787750645E+03  0.18788179883E+03  0.12700000000E+01 0. -1.
         25    2    1    2    0    0  0.00000000000E+00  0.00000000000E+00 -0.16711042835E+03  0.20868767378E+03  0.12499859970E+03 0.  0.
    9000005    1    3    3    0    0  0.33157476513E+02 -0.52619032000E+02 -0.73402431005E+02  0.96213812182E+02  0.10000000000E+01 0.  0.
    9000005    1    3    3    0    0 -0.33157476513E+02  0.52619032000E+02 -0.93707997345E+02  0.11247386160E+03  0.10000000000E+01 0.  0.
<mgrwt>
<rscale>  0 0.12499860E+03</rscale>
<asrwt>0</asrwt>
<pdfrwt beam="1">  1        4 0.51971562E-02 0.12499860E+03</pdfrwt>
<pdfrwt beam="2">  1       -4 0.46974758E-01 0.12499860E+03</pdfrwt>
<totfact> 0.15980502E+03</totfact>
</mgrwt>
</event>
<event>
 5    1  0.1451195E-002  0.1250000E+03  0.7818608E-02  0.1235069E+00
         -4   -1    0    0    0  501 -0.00000000000E+00  0.00000000000E+00  0.76171151815E+01  0.77222628606E+01  0.12700000000E+01 0. -1.
          4   -1    0    0  501    0  0.00000000000E+00 -0.00000000000E+00 -0.50920449593E+03  0.50920607968E+03  0.12700000000E+01 0. -1.
         25    2    1    2    0    0  0.00000000000E+00  0.00000000000E+00 -0.50158738075E+03  0.51692834254E+03  0.12500004315E+03 0.  0.
    9000005    1    3    3    0    0 -0.48302300576E+01 -0.53094543355E+02 -0.38561686679E+03  0.38928617957E+03  0.10000000000E+01 0.  0.
    9000005    1    3    3    0    0  0.48302300576E+01  0.53094543355E+02 -0.11597051396E+03  0.12764216296E+03  0.10000000000E+01 0.  0.
<mgrwt>
<rscale>  0 0.12500004E+03</rscale>
<asrwt>0</asrwt>
<pdfrwt beam="2">  1        4 0.12731435E+00 0.12500004E+03</pdfrwt>
<pdfrwt beam="1">  1       -4 0.19176219E-02 0.12500004E+03</pdfrwt>
<totfact> 0.84975701E+02</totfact>
</mgrwt>
</event>
<event>
 5    1  0.1451195E-002  0.1250017E+03  0.7818608E-02  0.1235067E+00
         -4   -1    0    0    0  501 -0.00000000000E+00  0.00000000000E+00  0.62173880630E+02  0.62186850159E+02  0.12700000000E+01 0.  1.
          4   -1    0    0  501    0  0.00000000000E+00 -0.00000000000E+00 -0.62803558282E+02  0.62816397802E+02  0.12700000000E+01 0.  1.
         25    2    1    2    0    0  0.00000000000E+00  0.00000000000E+00 -0.62967765148E+00  0.12500324796E+03  0.12500166202E+03 0.  0.
    9000005    1    3    3    0    0 -0.57539751105E+02 -0.18093178293E+02  0.16030637554E+02  0.62419287070E+02  0.10000000000E+01 0.  0.
    9000005    1    3    3    0    0  0.57539751105E+02  0.18093178293E+02 -0.16660315205E+02  0.62583960890E+02  0.10000000000E+01 0.  0.
<mgrwt>
<rscale>  0 0.12500166E+03</rscale>
<asrwt>0</asrwt>
<pdfrwt beam="2">  1        4 0.15704116E-01 0.12500166E+03</pdfrwt>
<pdfrwt beam="1">  1       -4 0.15546696E-01 0.12500166E+03</pdfrwt>
<totfact> 0.19834108E+03</totfact>
</mgrwt>
</event>
<event>
 5    1  0.1451195E-002  0.1249781E+03  0.7818608E-02  0.1235104E+00
          4   -1    0    0  501    0  0.00000000000E+00  0.00000000000E+00  0.54104633526E+03  0.54104782580E+03  0.12700000000E+01 0.  1.
         -4   -1    0    0    0  501 -0.00000000000E+00 -0.00000000000E+00 -0.71598937845E+01  0.72716558640E+01  0.12700000000E+01 0.  1.
         25    2    1    2    0    0  0.00000000000E+00  0.00000000000E+00  0.53388644148E+03  0.54831948166E+03  0.12497808438E+03 0.  0.
    9000005    1    3    3    0    0 -0.31010610886E+02  0.52822200035E+02  0.32104048477E+03  0.32683303944E+03  0.10000000000E+01 0.  0.
    9000005    1    3    3    0    0  0.31010610886E+02 -0.52822200035E+02  0.21284595670E+03  0.22148644222E+03  0.10000000000E+01 0.  0.
<mgrwt>
<rscale>  0 0.12497808E+03</rscale>
<asrwt>0</asrwt>
<pdfrwt beam="1">  1        4 0.13527573E+00 0.12497808E+03</pdfrwt>
<pdfrwt beam="2">  1       -4 0.18041302E-02 0.12497808E+03</pdfrwt>
<totfact> 0.80441306E+02</totfact>
</mgrwt>
</event>
<event>
 5    1  0.1451195E-002  0.1250004E+03  0.7818608E-02  0.1235069E+00
         -4   -1    0    0    0  501 -0.00000000000E+00  0.00000000000E+00  0.38396883234E+03  0.38397093264E+03  0.12700000000E+01 0.  1.
          4   -1    0    0  501    0  0.00000000000E+00 -0.00000000000E+00 -0.10131647021E+02  0.10210933912E+02  0.12700000000E+01 0.  1.
         25    2    1    2    0    0  0.00000000000E+00  0.00000000000E+00  0.37383718532E+03  0.39418186655E+03  0.12500041115E+03 0.  0.
    9000005    1    3    3    0    0  0.54502487105E+02 -0.30014088973E+02  0.16855561643E+03  0.17967571474E+03  0.10000000000E+01 0.  0.
    9000005    1    3    3    0    0 -0.54502487105E+02  0.30014088973E+02  0.20528156889E+03  0.21450615181E+03  0.10000000000E+01 0.  0.
<mgrwt>
<rscale>  0 0.12500041E+03</rscale>
<asrwt>0</asrwt>
<pdfrwt beam="2">  1        4 0.25430852E-02 0.12500041E+03</pdfrwt>
<pdfrwt beam="1">  1       -4 0.96002381E-01 0.12500041E+03</pdfrwt>
<totfact> 0.10689932E+03</totfact>
</mgrwt>
</event>
<event>
 5    1  0.1451195E-002  0.1250017E+03  0.7818608E-02  0.1235067E+00
          4   -1    0    0  501    0  0.00000000000E+00  0.00000000000E+00  0.37095883753E+03  0.37096101149E+03  0.12700000000E+01 0.  1.
         -4   -1    0    0    0  501 -0.00000000000E+00 -0.00000000000E+00 -0.10489932927E+02  0.10566531731E+02  0.12700000000E+01 0.  1.
         25    2    1    2    0    0  0.00000000000E+00  0.00000000000E+00  0.36046890461E+03  0.38152754322E+03  0.12500174017E+03 0.  0.
    9000005    1    3    3    0    0  0.75175564434E+01 -0.60770467702E+02  0.14213777500E+03  0.15476986296E+03  0.10000000000E+01 0.  0.
    9000005    1    3    3    0    0 -0.75175564434E+01  0.60770467702E+02  0.21833112961E+03  0.22675768026E+03  0.10000000000E+01 0.  0.
<mgrwt>
<rscale>  0 0.12500174E+03</rscale>
<asrwt>0</asrwt>
<pdfrwt beam="1">  1        4 0.92749556E-01 0.12500174E+03</pdfrwt>
<pdfrwt beam="2">  1       -4 0.26323298E-02 0.12500174E+03</pdfrwt>
<totfact> 0.10959429E+03</totfact>
</mgrwt>
</event>
<event>
 5    1  0.1451195E-002  0.1249995E+03  0.7818608E-02  0.1235070E+00
          4   -1    0    0  501    0  0.00000000000E+00  0.00000000000E+00  0.39448199749E+02  0.39468637719E+02  0.12700000000E+01 0. -1.
         -4   -1    0    0    0  501 -0.00000000000E+00 -0.00000000000E+00 -0.98971278174E+02  0.98979426162E+02  0.12700000000E+01 0. -1.
         25    2    1    2    0    0  0.00000000000E+00  0.00000000000E+00 -0.59523078425E+02  0.13844806388E+03  0.12499947811E+03 0.  0.
    9000005    1    3    3    0    0 -0.56643293151E+02 -0.15243194482E+02 -0.53630014278E+02  0.79485823066E+02  0.10000000000E+01 0.  0.
    9000005    1    3    3    0    0  0.56643293151E+02  0.15243194482E+02 -0.58930641472E+01  0.58962240816E+02  0.10000000000E+01 0.  0.
<mgrwt>
<rscale>  0 0.12499948E+03</rscale>
<asrwt>0</asrwt>
<pdfrwt beam="1">  1        4 0.98656234E-02 0.12499948E+03</pdfrwt>
<pdfrwt beam="2">  1       -4 0.24746392E-01 0.12499948E+03</pdfrwt>
<totfact> 0.19120253E+03</totfact>
</mgrwt>
</event>
<event>
 5    1  0.1451195E-002  0.1249931E+03  0.7818608E-02  0.1235080E+00
          4   -1    0    0  501    0  0.00000000000E+00  0.00000000000E+00  0.27660994922E+03  0.27661286468E+03  0.12700000000E+01 0.  1.
         -4   -1    0    0    0  501 -0.00000000000E+00 -0.00000000000E+00 -0.14088763473E+02  0.14145888314E+02  0.12700000000E+01 0.  1.
         25    2    1    2    0    0  0.00000000000E+00  0.00000000000E+00  0.26252118574E+03  0.29075875299E+03  0.12499311772E+03 0.  0.
    9000005    1    3    3    0    0 -0.50228603159E+02  0.16630931551E+02  0.20859817585E+03  0.21520617887E+03  0.10000000000E+01 0.  0.
    9000005    1    3    3    0    0  0.50228603159E+02 -0.16630931551E+02  0.53923009899E+02  0.75552574119E+02  0.10000000000E+01 0.  0.
<mgrwt>
<rscale>  0 0.12499312E+03</rscale>
<asrwt>0</asrwt>
<pdfrwt beam="1">  1        4 0.69159988E-01 0.12499312E+03</pdfrwt>
<pdfrwt beam="2">  1       -4 0.35296961E-02 0.12499312E+03</pdfrwt>
<totfact> 0.13236158E+03</totfact>
</mgrwt>
</event>
<event>
 5    1  0.1451195E-002  0.1249984E+03  0.7818608E-02  0.1235072E+00
         -4   -1    0    0    0  501 -0.00000000000E+00  0.00000000000E+00  0.51285811008E+02  0.51301533221E+02  0.12700000000E+01 0.  1.
          4   -1    0    0  501    0  0.00000000000E+00 -0.00000000000E+00 -0.76131646120E+02  0.76142238218E+02  0.12700000000E+01 0.  1.
         25    2    1    2    0    0  0.00000000000E+00  0.00000000000E+00 -0.24845835111E+02  0.12744377144E+03  0.12499839741E+03 0.  0.
    9000005    1    3    3    0    0  0.40905731695E+02 -0.34019778319E+02  0.20998322576E+02  0.57206238763E+02  0.10000000000E+01 0.  0.
    9000005    1    3    3    0    0 -0.40905731695E+02  0.34019778319E+02 -0.45844157688E+02  0.70237532676E+02  0.10000000000E+01 0.  0.
<mgrwt>
<rscale>  0 0.12499840E+03</rscale>
<asrwt>0</asrwt>
<pdfrwt beam="2">  1        4 0.19036201E-01 0.12499840E+03</pdfrwt>
<pdfrwt beam="1">  1       -4 0.12824742E-01 0.12499840E+03</pdfrwt>
<totfact> 0.19703592E+03</totfact>
</mgrwt>
</event>
<event>
 5    1  0.1451195E-002  0.1249983E+03  0.7818608E-02  0.1235072E+00
         -4   -1    0    0    0  501 -0.00000000000E+00  0.00000000000E+00  0.24766899735E+02  0.24799439963E+02  0.12700000000E+01 0.  1.
          4   -1    0    0  501    0  0.00000000000E+00 -0.00000000000E+00 -0.15757761524E+03  0.15758273295E+03  0.12700000000E+01 0.  1.
         25    2    1    2    0    0  0.00000000000E+00  0.00000000000E+00 -0.13281071551E+03  0.18238217292E+03  0.12499828337E+03 0.  0.
    9000005    1    3    3    0    0 -0.56822104909E+01  0.25839602418E+02  0.16199175391E+02  0.31038457638E+02  0.10000000000E+01 0.  0.
    9000005    1    3    3    0    0  0.56822104909E+01 -0.25839602418E+02 -0.14900989090E+03  0.15134371528E+03  0.10000000000E+01 0.  0.
<mgrwt>
<rscale>  0 0.12499828E+03</rscale>
<asrwt>0</asrwt>
<pdfrwt beam="2">  1        4 0.39399108E-01 0.12499828E+03</pdfrwt>
<pdfrwt beam="1">  1       -4 0.61964326E-02 0.12499828E+03</pdfrwt>
<totfact> 0.17053278E+03</totfact>
</mgrwt>
</event>
<event>
 5    1  0.1451195E-002  0.1250045E+03  0.7818608E-02  0.1235062E+00
         -4   -1    0    0    0  501 -0.00000000000E+00  0.00000000000E+00  0.23167382186E+03  0.23167730280E+03  0.12700000000E+01 0. -1.
          4   -1    0    0  501    0  0.00000000000E+00 -0.00000000000E+00 -0.16834671273E+02  0.16882507423E+02  0.12700000000E+01 0. -1.
         25    2    1    2    0    0  0.00000000000E+00  0.00000000000E+00  0.21483915059E+03  0.24855981023E+03  0.12500447446E+03 0.  0.
    9000005    1    3    3    0    0  0.35294596165E+02  0.49872519783E+02  0.81299976897E+02  0.10170380028E+03  0.10000000000E+01 0.  0.
    9000005    1    3    3    0    0 -0.35294596165E+02 -0.49872519783E+02  0.13353917369E+03  0.14685600995E+03  0.10000000000E+01 0.  0.
<mgrwt>
<rscale>  0 0.12500447E+03</rscale>
<asrwt>0</asrwt>
<pdfrwt beam="2">  1        4 0.42150825E-02 0.12500447E+03</pdfrwt>
<pdfrwt beam="1">  1       -4 0.57924869E-01 0.12500447E+03</pdfrwt>
<totfact> 0.14544522E+03</totfact>
</mgrwt>
</event>
<event>
 5    1  0.1451195E-002  0.1250008E+03  0.7818608E-02  0.1235068E+00
          4   -1    0    0  501    0  0.00000000000E+00  0.00000000000E+00  0.13984204962E+03  0.13984781636E+03  0.12700000000E+01 0.  1.
         -4   -1    0    0    0  501 -0.00000000000E+00 -0.00000000000E+00 -0.27912864590E+02  0.27941741349E+02  0.12700000000E+01 0.  1.
         25    2    1    2    0    0  0.00000000000E+00  0.00000000000E+00  0.11192918503E+03  0.16778955771E+03  0.12500077286E+03 0.  0.
    9000005    1    3    3    0    0  0.48529901333E+02 -0.14640630867E+02  0.69051314297E+01  0.51168156461E+02  0.10000000000E+01 0.  0.
    9000005    1    3    3    0    0 -0.48529901333E+02  0.14640630867E+02  0.10502405360E+03  0.11662140125E+03  0.10000000000E+01 0.  0.
<mgrwt>
<rscale>  0 0.12500077E+03</rscale>
<asrwt>0</asrwt>
<pdfrwt beam="1">  1        4 0.34964842E-01 0.12500077E+03</pdfrwt>
<pdfrwt beam="2">  1       -4 0.69825467E-02 0.12500077E+03</pdfrwt>
<totfact> 0.17696893E+03</totfact>
</mgrwt>
</event>
<event>
 5    1  0.1451195E-002  0.1249954E+03  0.7818608E-02  0.1235076E+00
         -4   -1    0    0    0  501 -0.00000000000E+00  0.00000000000E+00  0.65259817698E+01  0.66484086863E+01  0.12700000000E+01 0.  1.
          4   -1    0    0  501    0  0.00000000000E+00 -0.00000000000E+00 -0.59283974752E+03  0.59284110784E+03  0.12700000000E+01 0.  1.
         25    2    1    2    0    0  0.00000000000E+00  0.00000000000E+00 -0.58631376575E+03  0.59948951652E+03  0.12499539396E+03 0.  0.
    9000005    1    3    3    0    0 -0.33672979523E+02 -0.19925652081E+01 -0.54544788238E+03  0.54649083456E+03  0.10000000000E+01 0.  0.
    9000005    1    3    3    0    0  0.33672979523E+02  0.19925652081E+01 -0.40865883373E+02  0.52998681964E+02  0.10000000000E+01 0.  0.
<mgrwt>
<rscale>  0 0.12499539E+03</rscale>
<asrwt>0</asrwt>
<pdfrwt beam="2">  1        4 0.14822523E+00 0.12499539E+03</pdfrwt>
<pdfrwt beam="1">  1       -4 0.16469709E-02 0.12499539E+03</pdfrwt>
<totfact> 0.73574914E+02</totfact>
</mgrwt>
</event>
<event>
 5    1  0.1451195E-002  0.1249846E+03  0.7818608E-02  0.1235093E+00
         -4   -1    0    0    0  501 -0.00000000000E+00  0.00000000000E+00  0.81457002677E+03  0.81457101680E+03  0.12700000000E+01 0.  1.
          4   -1    0    0  501    0  0.00000000000E+00 -0.00000000000E+00 -0.47091742263E+01  0.48774195938E+01  0.12700000000E+01 0.  1.
         25    2    1    2    0    0  0.00000000000E+00  0.00000000000E+00  0.80986085254E+03  0.81944843639E+03  0.12498455675E+03 0.  0.
    9000005    1    3    3    0    0 -0.48970363424E+02 -0.32919248735E+02  0.27016313315E+03  0.27653370852E+03  0.10000000000E+01 0.  0.
    9000005    1    3    3    0    0  0.48970363424E+02  0.32919248735E+02  0.53969771939E+03  0.54291472788E+03  0.10000000000E+01 0.  0.
<mgrwt>
<rscale>  0 0.12498456E+03</rscale>
<asrwt>0</asrwt>
<pdfrwt beam="2">  1        4 0.11984480E-02 0.12498456E+03</pdfrwt>
<pdfrwt beam="1">  1       -4 0.20366365E+00 0.12498456E+03</pdfrwt>
<totfact> 0.50804868E+02</totfact>
</mgrwt>
</event>
<event>
 5    1  0.1451195E-002  0.1249994E+03  0.7818608E-02  0.1235070E+00
         -4   -1    0    0    0  501 -0.00000000000E+00  0.00000000000E+00  0.24212303718E+02  0.24245588286E+02  0.12700000000E+01 0. -1.
          4   -1    0    0  501    0  0.00000000000E+00 -0.00000000000E+00 -0.16118507822E+03  0.16119008139E+03  0.12700000000E+01 0. -1.
         25    2    1    2    0    0  0.00000000000E+00  0.00000000000E+00 -0.13697277450E+03  0.18543566968E+03  0.12499938654E+03 0.  0.
    9000005    1    3    3    0    0  0.52999104219E+02  0.23785006023E+01 -0.19494071615E+02  0.56529471440E+02  0.10000000000E+01 0.  0.
    9000005    1    3    3    0    0 -0.52999104219E+02 -0.23785006023E+01 -0.11747870288E+03  0.12890619824E+03  0.10000000000E+01 0.  0.
<mgrwt>
<rscale>  0 0.12499939E+03</rscale>
<asrwt>0</asrwt>
<pdfrwt beam="2">  1        4 0.40301052E-01 0.12499939E+03</pdfrwt>
<pdfrwt beam="1">  1       -4 0.60578624E-02 0.12499939E+03</pdfrwt>
<totfact> 0.16922565E+03</totfact>
</mgrwt>
</event>
<event>
 5    1  0.1451195E-002  0.1249961E+03  0.7818608E-02  0.1235075E+00
          4   -1    0    0  501    0  0.00000000000E+00  0.00000000000E+00  0.18212271199E+03  0.18212713999E+03  0.12700000000E+01 0.  1.
         -4   -1    0    0    0  501 -0.00000000000E+00 -0.00000000000E+00 -0.21423603632E+02  0.21461213679E+02  0.12700000000E+01 0.  1.
         25    2    1    2    0    0  0.00000000000E+00  0.00000000000E+00  0.16069910835E+03  0.20358835367E+03  0.12499605724E+03 0.  0.
    9000005    1    3    3    0    0 -0.45303234522E+01 -0.52360202163E+02  0.13541239815E+03  0.14525712435E+03  0.10000000000E+01 0.  0.
    9000005    1    3    3    0    0  0.45303234522E+01  0.52360202163E+02  0.25286710202E+02  0.58331229320E+02  0.10000000000E+01 0.  0.
<mgrwt>
<rscale>  0 0.12499606E+03</rscale>
<asrwt>0</asrwt>
<pdfrwt beam="1">  1        4 0.45535933E-01 0.12499606E+03</pdfrwt>
<pdfrwt beam="2">  1       -4 0.53611556E-02 0.12499606E+03</pdfrwt>
<totfact> 0.16180834E+03</totfact>
</mgrwt>
</event>
<event>
 5    1  0.1451195E-002  0.1249933E+03  0.7818608E-02  0.1235080E+00
         -4   -1    0    0    0  501 -0.00000000000E+00  0.00000000000E+00  0.32836206184E+02  0.32860756786E+02  0.12700000000E+01 0. -1.
          4   -1    0    0  501    0  0.00000000000E+00 -0.00000000000E+00 -0.11887643518E+03  0.11888321892E+03  0.12700000000E+01 0. -1.
         25    2    1    2    0    0  0.00000000000E+00  0.00000000000E+00 -0.86040228998E+02  0.15174397571E+03  0.12499325245E+03 0.  0.
    9000005    1    3    3    0    0  0.24464918346E+02 -0.67399282425E+01 -0.11234538837E+03  0.11518005535E+03  0.10000000000E+01 0.  0.
    9000005    1    3    3    0    0 -0.24464918346E+02  0.67399282425E+01  0.26305159373E+02  0.36563920359E+02  0.10000000000E+01 0.  0.
<mgrwt>
<rscale>  0 0.12499325E+03</rscale>
<asrwt>0</asrwt>
<pdfrwt beam="2">  1        4 0.29723025E-01 0.12499325E+03</pdfrwt>
<pdfrwt beam="1">  1       -4 0.82129686E-02 0.12499325E+03</pdfrwt>
<totfact> 0.18456258E+03</totfact>
</mgrwt>
</event>
<event>
 5    1  0.1451195E-002  0.1250120E+03  0.7818608E-02  0.1235051E+00
         -4   -1    0    0    0  501 -0.00000000000E+00  0.00000000000E+00  0.24099478655E+02  0.24132918834E+02  0.12700000000E+01 0. -1.
          4   -1    0    0  501    0  0.00000000000E+00 -0.00000000000E+00 -0.16197126371E+03  0.16197624260E+03  0.12700000000E+01 0. -1.
         25    2    1    2    0    0  0.00000000000E+00  0.00000000000E+00 -0.13787178505E+03  0.18610916143E+03  0.12501196285E+03 0.  0.
    9000005    1    3    3    0    0 -0.91870456486E+01 -0.34024415608E+02 -0.14577423608E+03  0.14997730018E+03  0.10000000000E+01 0.  0.
    9000005    1    3    3    0    0  0.91870456486E+01  0.34024415608E+02  0.79024510289E+01  0.36131861251E+02  0.10000000000E+01 0.  0.
<mgrwt>
<rscale>  0 0.12501196E+03</rscale>
<asrwt>0</asrwt>
<pdfrwt beam="2">  1        4 0.40497615E-01 0.12501196E+03</pdfrwt>
<pdfrwt beam="1">  1       -4 0.60296725E-02 0.12501196E+03</pdfrwt>
<totfact> 0.16889111E+03</totfact>
</mgrwt>
</event>
<event>
 5    1  0.1451195E-002  0.1249989E+03  0.7818608E-02  0.1235071E+00
         -4   -1    0    0    0  501 -0.00000000000E+00  0.00000000000E+00  0.19695368687E+02  0.19736272387E+02  0.12700000000E+01 0. -1.
          4   -1    0    0  501    0  0.00000000000E+00 -0.00000000000E+00 -0.19808111593E+03  0.19808518720E+03  0.12700000000E+01 0. -1.
         25    2    1    2    0    0  0.00000000000E+00  0.00000000000E+00 -0.17838574725E+03  0.21782145959E+03  0.12499885374E+03 0.  0.
    9000005    1    3    3    0    0  0.22630623124E+02 -0.39331996224E+02 -0.16406388444E+03  0.17022664071E+03  0.10000000000E+01 0.  0.
    9000005    1    3    3    0    0 -0.22630623124E+02  0.39331996224E+02 -0.14321862806E+02  0.47594818880E+02  0.10000000000E+01 0.  0.
<mgrwt>
<rscale>  0 0.12499885E+03</rscale>
<asrwt>0</asrwt>
<pdfrwt beam="2">  1        4 0.49525895E-01 0.12499885E+03</pdfrwt>
<pdfrwt beam="1">  1       -4 0.49294647E-02 0.12499885E+03</pdfrwt>
<totfact> 0.15632881E+03</totfact>
</mgrwt>
</event>
<event>
 5    1  0.1451195E-002  0.1250106E+03  0.7818608E-02  0.1235053E+00
          4   -1    0    0  501    0  0.00000000000E+00  0.00000000000E+00  0.26238031187E+02  0.26268749124E+02  0.12700000000E+01 0. -1.
         -4   -1    0    0    0  501 -0.00000000000E+00 -0.00000000000E+00 -0.14878212322E+03  0.14878754347E+03  0.12700000000E+01 0. -1.
         25    2    1    2    0    0  0.00000000000E+00  0.00000000000E+00 -0.12254409204E+03  0.17505629259E+03  0.12501060388E+03 0.  0.
    9000005    1    3    3    0    0  0.61499592855E+02 -0.11389167795E+00 -0.76846596087E+02  0.98430748361E+02  0.10000000000E+01 0.  0.
    9000005    1    3    3    0    0 -0.61499592855E+02  0.11389167795E+00 -0.45697495950E+02  0.76625544231E+02  0.10000000000E+01 0.  0.
<mgrwt>
<rscale>  0 0.12501060E+03</rscale>
<asrwt>0</asrwt>
<pdfrwt beam="1">  1        4 0.65640255E-02 0.12501060E+03</pdfrwt>
<pdfrwt beam="2">  1       -4 0.37200046E-01 0.12501060E+03</pdfrwt>
<totfact> 0.17367097E+03</totfact>
</mgrwt>
</event>
<event>
 5    1  0.1451195E-002  0.1249986E+03  0.7818608E-02  0.1235072E+00
         -4   -1    0    0    0  501 -0.00000000000E+00  0.00000000000E+00  0.33351838309E+02  0.33376009626E+02  0.12700000000E+01 0.  1.
          4   -1    0    0  501    0  0.00000000000E+00 -0.00000000000E+00 -0.11704973812E+03  0.11705662772E+03  0.12700000000E+01 0.  1.
         25    2    1    2    0    0  0.00000000000E+00  0.00000000000E+00 -0.83697899812E+02  0.15043263735E+03  0.12499855978E+03 0.  0.
    9000005    1    3    3    0    0 -0.28320259581E+02  0.45152446495E+02 -0.81112114701E+02  0.97061607644E+02  0.10000000000E+01 0.  0.
    9000005    1    3    3    0    0  0.28320259581E+02 -0.45152446495E+02 -0.25857851111E+01  0.53371029706E+02  0.10000000000E+01 0.  0.
<mgrwt>
<rscale>  0 0.12499856E+03</rscale>
<asrwt>0</asrwt>
<pdfrwt beam="2">  1        4 0.29266316E-01 0.12499856E+03</pdfrwt>
<pdfrwt beam="1">  1       -4 0.83418425E-02 0.12499856E+03</pdfrwt>
<totfact> 0.18518149E+03</totfact>
</mgrwt>
</event>
<event>
 5    1  0.1451195E-002  0.1250000E+03  0.7818608E-02  0.1235069E+00
         -4   -1    0    0    0  501 -0.00000000000E+00  0.00000000000E+00  0.29821099902E+02  0.29848130584E+02  0.12700000000E+01 0. -1.
          4   -1    0    0  501    0  0.00000000000E+00 -0.00000000000E+00 -0.13089996893E+03  0.13090612959E+03  0.12700000000E+01 0. -1.
         25    2    1    2    0    0  0.00000000000E+00  0.00000000000E+00 -0.10107886902E+03  0.16075426018E+03  0.12499997761E+03 0.  0.
    9000005    1    3    3    0    0  0.51783900084E+02  0.18289471114E+01 -0.56140894685E+01  0.52129026041E+02  0.10000000000E+01 0.  0.
    9000005    1    3    3    0    0 -0.51783900084E+02 -0.18289471114E+01 -0.95464779556E+02  0.10862523414E+03  0.10000000000E+01 0.  0.
<mgrwt>
<rscale>  0 0.12499998E+03</rscale>
<asrwt>0</asrwt>
<pdfrwt beam="2">  1        4 0.32729140E-01 0.12499998E+03</pdfrwt>
<pdfrwt beam="1">  1       -4 0.74594242E-02 0.12499998E+03</pdfrwt>
<totfact> 0.18022325E+03</totfact>
</mgrwt>
</event>
<event>
 5    1  0.1451195E-002  0.1250020E+03  0.7818608E-02  0.1235066E+00
          4   -1    0    0  501    0  0.00000000000E+00  0.00000000000E+00  0.12292574815E+02  0.12358005324E+02  0.12700000000E+01 0.  1.
         -4   -1    0    0    0  501 -0.00000000000E+00 -0.00000000000E+00 -0.31687299927E+03  0.31687554428E+03  0.12700000000E+01 0.  1.
         25    2    1    2    0    0  0.00000000000E+00  0.00000000000E+00 -0.30458042445E+03  0.32923354961E+03  0.12500198089E+03 0.  0.
    9000005    1    3    3    0    0 -0.21771455252E+02  0.47568036403E+02 -0.24232931895E+03  0.24791372123E+03  0.10000000000E+01 0.  0.
    9000005    1    3    3    0    0  0.21771455252E+02 -0.47568036403E+02 -0.62251105501E+02  0.81319828376E+02  0.10000000000E+01 0.  0.
<mgrwt>
<rscale>  0 0.12500198E+03</rscale>
<asrwt>0</asrwt>
<pdfrwt beam="1">  1        4 0.30816417E-02 0.12500198E+03</pdfrwt>
<pdfrwt beam="2">  1       -4 0.79226720E-01 0.12500198E+03</pdfrwt>
<totfact> 0.12189005E+03</totfact>
</mgrwt>
</event>
<event>
 5    1  0.1451195E-002  0.1250010E+03  0.7818608E-02  0.1235068E+00
         -4   -1    0    0    0  501 -0.00000000000E+00  0.00000000000E+00  0.34506071696E+03  0.34506305408E+03  0.12700000000E+01 0.  1.
          4   -1    0    0  501    0  0.00000000000E+00 -0.00000000000E+00 -0.11282659938E+02  0.11353911893E+02  0.12700000000E+01 0.  1.
         25    2    1    2    0    0  0.00000000000E+00  0.00000000000E+00  0.33377805702E+03  0.35641696597E+03  0.12500104912E+03 0.  0.
    9000005    1    3    3    0    0 -0.40085214952E+02  0.20402530770E+02  0.29059219270E+03  0.29405426400E+03  0.10000000000E+01 0.  0.
    9000005    1    3    3    0    0  0.40085214952E+02 -0.20402530770E+02  0.43185864324E+02  0.62362701970E+02  0.10000000000E+01 0.  0.
<mgrwt>
<rscale>  0 0.12500105E+03</rscale>
<asrwt>0</asrwt>
<pdfrwt beam="2">  1        4 0.28298635E-02 0.12500105E+03</pdfrwt>
<pdfrwt beam="1">  1       -4 0.86274382E-01 0.12500105E+03</pdfrwt>
<totfact> 0.11525477E+03</totfact>
</mgrwt>
</event>
<event>
 5    1  0.1451195E-002  0.1250022E+03  0.7818608E-02  0.1235066E+00
         -4   -1    0    0    0  501 -0.00000000000E+00  0.00000000000E+00  0.17414725419E+02  0.17460972522E+02  0.12700000000E+01 0. -1.
          4   -1    0    0  501    0  0.00000000000E+00 -0.00000000000E+00 -0.22396960532E+03  0.22397320600E+03  0.12700000000E+01 0. -1.
         25    2    1    2    0    0  0.00000000000E+00  0.00000000000E+00 -0.20655487990E+03  0.24143417852E+03  0.12500217658E+03 0.  0.
    9000005    1    3    3    0    0 -0.20972882006E+02  0.52646839875E+02 -0.15415299071E+03  0.16424279611E+03  0.10000000000E+01 0.  0.
    9000005    1    3    3    0    0  0.20972882006E+02 -0.52646839875E+02 -0.52401889189E+02  0.77191382414E+02  0.10000000000E+01 0.  0.
<mgrwt>
<rscale>  0 0.12500218E+03</rscale>
<asrwt>0</asrwt>
<pdfrwt beam="2">  1        4 0.55998623E-01 0.12500218E+03</pdfrwt>
<pdfrwt beam="1">  1       -4 0.43599130E-02 0.12500218E+03</pdfrwt>
<totfact> 0.14786429E+03</totfact>
</mgrwt>
</event>
<event>
 5    1  0.1451195E-002  0.1249972E+03  0.7818608E-02  0.1235074E+00
         -4   -1    0    0    0  501 -0.00000000000E+00  0.00000000000E+00  0.10681989362E+02  0.10757220679E+02  0.12700000000E+01 0.  1.
          4   -1    0    0  501    0  0.00000000000E+00 -0.00000000000E+00 -0.36430971080E+03  0.36431192443E+03  0.12700000000E+01 0.  1.
         25    2    1    2    0    0  0.00000000000E+00  0.00000000000E+00 -0.35362772144E+03  0.37506914511E+03  0.12499719295E+03 0.  0.
    9000005    1    3    3    0    0 -0.21750318810E+02  0.10643298878E+02 -0.39531561593E+01  0.24555724851E+02  0.10000000000E+01 0.  0.
    9000005    1    3    3    0    0  0.21750318810E+02 -0.10643298878E+02 -0.34967456528E+03  0.35051342026E+03  0.10000000000E+01 0.  0.
<mgrwt>
<rscale>  0 0.12499719E+03</rscale>
<asrwt>0</asrwt>
<pdfrwt beam="2">  1        4 0.91087067E-01 0.12499719E+03</pdfrwt>
<pdfrwt beam="1">  1       -4 0.26801792E-02 0.12499719E+03</pdfrwt>
<totfact> 0.11102142E+03</totfact>
</mgrwt>
</event>
<event>
 5    1  0.1451195E-002  0.1249982E+03  0.7818608E-02  0.1235072E+00
          4   -1    0    0  501    0  0.00000000000E+00  0.00000000000E+00  0.50237741137E+02  0.50253791246E+02  0.12700000000E+01 0. -1.
         -4   -1    0    0    0  501 -0.00000000000E+00 -0.00000000000E+00 -0.77719397027E+02  0.77729772766E+02  0.12700000000E+01 0. -1.
         25    2    1    2    0    0  0.00000000000E+00  0.00000000000E+00 -0.27481655889E+02  0.12798356401E+03  0.12499820497E+03 0.  0.
    9000005    1    3    3    0    0 -0.28427422109E+01 -0.18383011672E+02  0.47342379174E+02  0.50875506556E+02  0.10000000000E+01 0.  0.
    9000005    1    3    3    0    0  0.28427422109E+01  0.18383011672E+02 -0.74824035064E+02  0.77108057456E+02  0.10000000000E+01 0.  0.
<mgrwt>
<rscale>  0 0.12499820E+03</rscale>
<asrwt>0</asrwt>
<pdfrwt beam="1">  1        4 0.12562739E-01 0.12499820E+03</pdfrwt>
<pdfrwt beam="2">  1       -4 0.19433152E-01 0.12499820E+03</pdfrwt>
<totfact> 0.19674253E+03</totfact>
</mgrwt>
</event>
<event>
 5    1  0.1451195E-002  0.1249997E+03  0.7818608E-02  0.1235070E+00
          4   -1    0    0  501    0  0.00000000000E+00  0.00000000000E+00  0.42798556980E+02  0.42817395759E+02  0.12700000000E+01 0. -1.
         -4   -1    0    0    0  501 -0.00000000000E+00 -0.00000000000E+00 -0.91226829182E+02  0.91235668807E+02  0.12700000000E+01 0. -1.
         25    2    1    2    0    0  0.00000000000E+00  0.00000000000E+00 -0.48428272202E+02  0.13405306457E+03  0.12499970628E+03 0.  0.
    9000005    1    3    3    0    0  0.53401875674E+02 -0.18741040773E+02  0.42050732838E+01  0.56759753136E+02  0.10000000000E+01 0.  0.
    9000005    1    3    3    0    0 -0.53401875674E+02  0.18741040773E+02 -0.52633345485E+02  0.77293311430E+02  0.10000000000E+01 0.  0.
<mgrwt>
<rscale>  0 0.12499971E+03</rscale>
<asrwt>0</asrwt>
<pdfrwt beam="1">  1        4 0.10703099E-01 0.12499971E+03</pdfrwt>
<pdfrwt beam="2">  1       -4 0.22810167E-01 0.12499971E+03</pdfrwt>
<totfact> 0.19348984E+03</totfact>
</mgrwt>
</event>
<event>
 5    1  0.1451195E-002  0.1249959E+03  0.7818608E-02  0.1235076E+00
         -4   -1    0    0    0  501 -0.00000000000E+00  0.00000000000E+00  0.35184852807E+02  0.35207765721E+02  0.12700000000E+01 0. -1.
          4   -1    0    0  501    0  0.00000000000E+00 -0.00000000000E+00 -0.11095080029E+03  0.11095806859E+03  0.12700000000E+01 0. -1.
         25    2    1    2    0    0  0.00000000000E+00  0.00000000000E+00 -0.75765947479E+02  0.14616583431E+03  0.12499588922E+03 0.  0.
    9000005    1    3    3    0    0 -0.25974285331E+02  0.10231632729E+02  0.27493252046E+02  0.39194753665E+02  0.10000000000E+01 0.  0.
    9000005    1    3    3    0    0  0.25974285331E+02 -0.10231632729E+02 -0.10325919953E+03  0.10697108064E+03  0.10000000000E+01 0.  0.
<mgrwt>
<rscale>  0 0.12499589E+03</rscale>
<asrwt>0</asrwt>
<pdfrwt beam="2">  1        4 0.27741472E-01 0.12499589E+03</pdfrwt>
<pdfrwt beam="1">  1       -4 0.87999861E-02 0.12499589E+03</pdfrwt>
<totfact> 0.18730721E+03</totfact>
</mgrwt>
</event>
<event>
 5    1  0.1451195E-002  0.1249726E+03  0.7818608E-02  0.1235112E+00
         -4   -1    0    0    0  501 -0.00000000000E+00  0.00000000000E+00  0.19098902133E+03  0.19099324377E+03  0.12700000000E+01 0.  1.
          4   -1    0    0  501    0  0.00000000000E+00 -0.00000000000E+00 -0.20419588160E+02  0.20459043981E+02  0.12700000000E+01 0.  1.
         25    2    1    2    0    0  0.00000000000E+00  0.00000000000E+00  0.17056943317E+03  0.21145228776E+03  0.12497255085E+03 0.  0.
    9000005    1    3    3    0    0  0.61140591706E+02  0.69941771662E+01  0.10354285889E+03  0.12045419916E+03  0.10000000000E+01 0.  0.
    9000005    1    3    3    0    0 -0.61140591706E+02 -0.69941771662E+01  0.67026574273E+02  0.90998088591E+02  0.10000000000E+01 0.  0.
<mgrwt>
<rscale>  0 0.12497255E+03</rscale>
<asrwt>0</asrwt>
<pdfrwt beam="2">  1        4 0.51103569E-02 0.12497255E+03</pdfrwt>
<pdfrwt beam="1">  1       -4 0.47752714E-01 0.12497255E+03</pdfrwt>
<totfact> 0.15883585E+03</totfact>
</mgrwt>
</event>
<event>
 5    1  0.1451195E-002  0.1249618E+03  0.7818608E-02  0.1235129E+00
         -4   -1    0    0    0  501 -0.00000000000E+00  0.00000000000E+00  0.27131130764E+02  0.27160838656E+02  0.12700000000E+01 0.  1.
          4   -1    0    0  501    0  0.00000000000E+00 -0.00000000000E+00 -0.14377740107E+03  0.14378300998E+03  0.12700000000E+01 0.  1.
         25    2    1    2    0    0  0.00000000000E+00  0.00000000000E+00 -0.11664627031E+03  0.17094384864E+03  0.12496178220E+03 0.  0.
    9000005    1    3    3    0    0 -0.18448121998E+02 -0.15832243811E+02  0.20401891438E+02  0.31752642782E+02  0.10000000000E+01 0.  0.
    9000005    1    3    3    0    0  0.18448121998E+02  0.15832243811E+02 -0.13704816175E+03  0.13919120586E+03  0.10000000000E+01 0.  0.
<mgrwt>
<rscale>  0 0.12496178E+03</rscale>
<asrwt>0</asrwt>
<pdfrwt beam="2">  1        4 0.35948763E-01 0.12496178E+03</pdfrwt>
<pdfrwt beam="1">  1       -4 0.67871977E-02 0.12496178E+03</pdfrwt>
<totfact> 0.17570140E+03</totfact>
</mgrwt>
</event>
<event>
 5    1  0.1451195E-002  0.1250037E+03  0.7818608E-02  0.1235063E+00
          4   -1    0    0  501    0  0.00000000000E+00  0.00000000000E+00  0.20855185989E+03  0.20855572676E+03  0.12700000000E+01 0. -1.
         -4   -1    0    0    0  501 -0.00000000000E+00 -0.00000000000E+00 -0.18705902652E+02  0.18748965146E+02  0.12700000000E+01 0. -1.
         25    2    1    2    0    0  0.00000000000E+00  0.00000000000E+00  0.18984595724E+03  0.22730469190E+03  0.12500374187E+03 0.  0.
    9000005    1    3    3    0    0 -0.23632140369E+02  0.57651814186E+02  0.86150503529E+02  0.10632553313E+03  0.10000000000E+01 0.  0.
    9000005    1    3    3    0    0  0.23632140369E+02 -0.57651814186E+02  0.10369545371E+03  0.12097915877E+03  0.10000000000E+01 0.  0.
<mgrwt>
<rscale>  0 0.12500374E+03</rscale>
<asrwt>0</asrwt>
<pdfrwt beam="1">  1        4 0.52143830E-01 0.12500374E+03</pdfrwt>
<pdfrwt beam="2">  1       -4 0.46823419E-02 0.12500374E+03</pdfrwt>
<totfact> 0.15282783E+03</totfact>
</mgrwt>
</event>
<event>
 5    1  0.1451195E-002  0.1250017E+03  0.7818608E-02  0.1235067E+00
         -4   -1    0    0    0  501 -0.00000000000E+00  0.00000000000E+00  0.44622434469E+03  0.44622615196E+03  0.12700000000E+01 0.  1.
          4   -1    0    0  501    0  0.00000000000E+00 -0.00000000000E+00 -0.87063470871E+01  0.87984873473E+01  0.12700000000E+01 0.  1.
         25    2    1    2    0    0  0.00000000000E+00  0.00000000000E+00  0.43751799760E+03  0.45502463931E+03  0.12500169659E+03 0.  0.
    9000005    1    3    3    0    0  0.28817314453E+02 -0.79488132236E+01  0.41852766488E+03  0.41959507565E+03  0.10000000000E+01 0.  0.
    9000005    1    3    3    0    0 -0.28817314453E+02  0.79488132236E+01  0.18990332729E+02  0.35429563659E+02  0.10000000000E+01 0.  0.
<mgrwt>
<rscale>  0 0.12500170E+03</rscale>
<asrwt>0</asrwt>
<pdfrwt beam="2">  1        4 0.21883301E-02 0.12500170E+03</pdfrwt>
<pdfrwt beam="1">  1       -4 0.11156784E+00 0.12500170E+03</pdfrwt>
<totfact> 0.95118131E+02</totfact>
</mgrwt>
</event>
<event>
 5    1  0.1451195E-002  0.1249761E+03  0.7818608E-02  0.1235107E+00
         -4   -1    0    0    0  501 -0.00000000000E+00  0.00000000000E+00  0.37000650295E+02  0.37022439442E+02  0.12700000000E+01 0. -1.
          4   -1    0    0  501    0  0.00000000000E+00 -0.00000000000E+00 -0.10547534750E+03  0.10548299308E+03  0.12700000000E+01 0. -1.
         25    2    1    2    0    0  0.00000000000E+00  0.00000000000E+00 -0.68474697204E+02  0.14250543253E+03  0.12497605428E+03 0.  0.
    9000005    1    3    3    0    0  0.37946115973E+02  0.16514186697E+02  0.19137718247E+02  0.45605683192E+02  0.10000000000E+01 0.  0.
    9000005    1    3    3    0    0 -0.37946115973E+02 -0.16514186697E+02 -0.87612415451E+02  0.96899749333E+02  0.10000000000E+01 0.  0.
<mgrwt>
<rscale>  0 0.12497605E+03</rscale>
<asrwt>0</asrwt>
<pdfrwt beam="2">  1        4 0.26372516E-01 0.12497605E+03</pdfrwt>
<pdfrwt beam="1">  1       -4 0.92538421E-02 0.12497605E+03</pdfrwt>
<totfact> 0.18923454E+03</totfact>
</mgrwt>
</event>
<event>
 5    1  0.1451195E-002  0.1249797E+03  0.7818608E-02  0.1235101E+00
          4   -1    0    0  501    0  0.00000000000E+00  0.00000000000E+00  0.15202970875E+03  0.15203501321E+03  0.12700000000E+01 0.  1.
         -4   -1    0    0    0  501 -0.00000000000E+00 -0.00000000000E+00 -0.25664192134E+02  0.25695596079E+02  0.12700000000E+01 0.  1.
         25    2    1    2    0    0  0.00000000000E+00  0.00000000000E+00  0.12636551661E+03  0.17773060929E+03  0.12497970111E+03 0.  0.
    9000005    1    3    3    0    0  0.84105697285E+01  0.15318451067E+02 -0.22125064805E+02  0.28211896761E+02  0.10000000000E+01 0.  0.
    9000005    1    3    3    0    0 -0.84105697285E+01 -0.15318451067E+02  0.14849058142E+03  0.14951871253E+03  0.10000000000E+01 0.  0.
<mgrwt>
<rscale>  0 0.12497970E+03</rscale>
<asrwt>0</asrwt>
<pdfrwt beam="1">  1        4 0.38012015E-01 0.12497970E+03</pdfrwt>
<pdfrwt beam="2">  1       -4 0.64206367E-02 0.12497970E+03</pdfrwt>
<totfact> 0.17262022E+03</totfact>
</mgrwt>
</event>
<event>
 5    1  0.1451195E-002  0.1249896E+03  0.7818608E-02  0.1235085E+00
          4   -1    0    0  501    0  0.00000000000E+00  0.00000000000E+00  0.37659410182E+03  0.37659624324E+03  0.12700000000E+01 0.  1.
         -4   -1    0    0    0  501 -0.00000000000E+00 -0.00000000000E+00 -0.10329795191E+02  0.10407572661E+02  0.12700000000E+01 0.  1.
         25    2    1    2    0    0  0.00000000000E+00  0.00000000000E+00  0.36626430662E+03  0.38700381590E+03  0.12498964443E+03 0.  0.
    9000005    1    3    3    0    0  0.27807002500E+02 -0.48262731318E+02  0.27082227017E+03  0.27649271716E+03  0.10000000000E+01 0.  0.
    9000005    1    3    3    0    0 -0.27807002500E+02  0.48262731318E+02  0.95442036450E+02  0.11051109874E+03  0.10000000000E+01 0.  0.
<mgrwt>
<rscale>  0 0.12498964E+03</rscale>
<asrwt>0</asrwt>
<pdfrwt beam="1">  1        4 0.94158502E-01 0.12498964E+03</pdfrwt>
<pdfrwt beam="2">  1       -4 0.25924390E-02 0.12498964E+03</pdfrwt>
<totfact> 0.10844448E+03</totfact>
</mgrwt>
</event>
<event>
 5    1  0.1451195E-002  0.1250014E+03  0.7818608E-02  0.1235067E+00
          4   -1    0    0  501    0  0.00000000000E+00  0.00000000000E+00  0.40689706925E+02  0.40709521609E+02  0.12700000000E+01 0.  1.
         -4   -1    0    0    0  501 -0.00000000000E+00 -0.00000000000E+00 -0.95955728845E+02  0.95964132873E+02  0.12700000000E+01 0.  1.
         25    2    1    2    0    0  0.00000000000E+00  0.00000000000E+00 -0.55266021920E+02  0.13667365448E+03  0.12500141860E+03 0.  0.
    9000005    1    3    3    0    0  0.33259652391E+02 -0.50315075477E+02 -0.97494511450E+01  0.61105344243E+02  0.10000000000E+01 0.  0.
    9000005    1    3    3    0    0 -0.33259652391E+02  0.50315075477E+02 -0.45516570775E+02  0.75568310240E+02  0.10000000000E+01 0.  0.
<mgrwt>
<rscale>  0 0.12500142E+03</rscale>
<asrwt>0</asrwt>
<pdfrwt beam="1">  1        4 0.10175954E-01 0.12500142E+03</pdfrwt>
<pdfrwt beam="2">  1       -4 0.23992459E-01 0.12500142E+03</pdfrwt>
<totfact> 0.19211193E+03</totfact>
</mgrwt>
</event>
<event>
 5    1  0.1451195E-002  0.1249997E+03  0.7818608E-02  0.1235070E+00
          4   -1    0    0  501    0  0.00000000000E+00  0.00000000000E+00  0.20613057718E+03  0.20613448947E+03  0.12700000000E+01 0.  1.
         -4   -1    0    0    0  501 -0.00000000000E+00 -0.00000000000E+00 -0.18924902446E+02  0.18967467744E+02  0.12700000000E+01 0.  1.
         25    2    1    2    0    0  0.00000000000E+00  0.00000000000E+00  0.18720567473E+03  0.22510195721E+03  0.12499970595E+03 0.  0.
    9000005    1    3    3    0    0  0.15502142752E+02 -0.41317658257E+02  0.13922584271E+02  0.46285026375E+02  0.10000000000E+01 0.  0.
    9000005    1    3    3    0    0 -0.15502142752E+02  0.41317658257E+02  0.17328309046E+03  0.17881693084E+03  0.10000000000E+01 0.  0.
<mgrwt>
<rscale>  0 0.12499971E+03</rscale>
<asrwt>0</asrwt>
<pdfrwt beam="1">  1        4 0.51538453E-01 0.12499971E+03</pdfrwt>
<pdfrwt beam="2">  1       -4 0.47370354E-02 0.12499971E+03</pdfrwt>
<totfact> 0.15364027E+03</totfact>
</mgrwt>
</event>
<event>
 5    1  0.1451195E-002  0.1249979E+03  0.7818608E-02  0.1235073E+00
          4   -1    0    0  501    0  0.00000000000E+00  0.00000000000E+00  0.72294584893E+02  0.72305739087E+02  0.12700000000E+01 0.  1.
         -4   -1    0    0    0  501 -0.00000000000E+00 -0.00000000000E+00 -0.54007816130E+02  0.54022746164E+02  0.12700000000E+01 0.  1.
         25    2    1    2    0    0  0.00000000000E+00  0.00000000000E+00  0.18286768763E+02  0.12632848525E+03  0.12499792108E+03 0.  0.
    9000005    1    3    3    0    0 -0.68676680941E+01  0.24137762246E+02 -0.48696259242E+02  0.54791624318E+02  0.10000000000E+01 0.  0.
    9000005    1    3    3    0    0  0.68676680941E+01 -0.24137762246E+02  0.66983028005E+02  0.71536860932E+02  0.10000000000E+01 0.  0.
<mgrwt>
<rscale>  0 0.12499792E+03</rscale>
<asrwt>0</asrwt>
<pdfrwt beam="1">  1        4 0.18076907E-01 0.12499792E+03</pdfrwt>
<pdfrwt beam="2">  1       -4 0.13505215E-01 0.12499792E+03</pdfrwt>
<totfact> 0.19764141E+03</totfact>
</mgrwt>
</event>
<event>
 5    1  0.1451195E-002  0.1250013E+03  0.7818608E-02  0.1235067E+00
          4   -1    0    0  501    0  0.00000000000E+00  0.00000000000E+00  0.13894843169E+02  0.13952761973E+02  0.12700000000E+01 0.  1.
         -4   -1    0    0    0  501 -0.00000000000E+00 -0.00000000000E+00 -0.28049140526E+03  0.28049428037E+03  0.12700000000E+01 0.  1.
         25    2    1    2    0    0  0.00000000000E+00  0.00000000000E+00 -0.26659656209E+03  0.29444704235E+03  0.12500133531E+03 0.  0.
    9000005    1    3    3    0    0  0.72816113294E+01  0.54466267302E+02 -0.63193923140E+02  0.83750033189E+02  0.10000000000E+01 0.  0.
    9000005    1    3    3    0    0 -0.72816113294E+01 -0.54466267302E+02 -0.20340263895E+03  0.21069700916E+03  0.10000000000E+01 0.  0.
<mgrwt>
<rscale>  0 0.12500134E+03</rscale>
<asrwt>0</asrwt>
<pdfrwt beam="1">  1        4 0.34813109E-02 0.12500134E+03</pdfrwt>
<pdfrwt beam="2">  1       -4 0.70130432E-01 0.12500134E+03</pdfrwt>
<totfact> 0.13127728E+03</totfact>
</mgrwt>
</event>
<event>
 5    1  0.1451195E-002  0.1249959E+03  0.7818608E-02  0.1235076E+00
          4   -1    0    0  501    0  0.00000000000E+00  0.00000000000E+00  0.61716704850E+02  0.61729770432E+02  0.12700000000E+01 0.  1.
         -4   -1    0    0    0  501 -0.00000000000E+00 -0.00000000000E+00 -0.63262982105E+02  0.63275728402E+02  0.12700000000E+01 0.  1.
         25    2    1    2    0    0  0.00000000000E+00  0.00000000000E+00 -0.15462772542E+01  0.12500549883E+03  0.12499593500E+03 0.  0.
    9000005    1    3    3    0    0 -0.35199026084E+02  0.30602403189E+02  0.40817510502E+02  0.61988286650E+02  0.10000000000E+01 0.  0.
    9000005    1    3    3    0    0  0.35199026084E+02 -0.30602403189E+02 -0.42363787757E+02  0.63017212183E+02  0.10000000000E+01 0.  0.
<mgrwt>
<rscale>  0 0.12499593E+03</rscale>
<asrwt>0</asrwt>
<pdfrwt beam="1">  1        4 0.15432403E-01 0.12499593E+03</pdfrwt>
<pdfrwt beam="2">  1       -4 0.15818972E-01 0.12499593E+03</pdfrwt>
<totfact> 0.19836644E+03</totfact>
</mgrwt>
</event>
<event>
 5    1  0.1451195E-002  0.1250007E+03  0.7818608E-02  0.1235068E+00
         -4   -1    0    0    0  501 -0.00000000000E+00  0.00000000000E+00  0.24184031143E+02  0.24217354569E+02  0.12700000000E+01 0.  1.
          4   -1    0    0  501    0  0.00000000000E+00 -0.00000000000E+00 -0.16137674818E+03  0.16138174541E+03  0.12700000000E+01 0.  1.
         25    2    1    2    0    0  0.00000000000E+00  0.00000000000E+00 -0.13719271704E+03  0.18559909998E+03  0.12500073722E+03 0.  0.
    9000005    1    3    3    0    0  0.20793109043E+02  0.58806429980E+02 -0.74298100534E+02  0.97014212019E+02  0.10000000000E+01 0.  0.
    9000005    1    3    3    0    0 -0.20793109043E+02 -0.58806429980E+02 -0.62894616503E+02  0.88584887965E+02  0.10000000000E+01 0.  0.
<mgrwt>
<rscale>  0 0.12500074E+03</rscale>
<asrwt>0</asrwt>
<pdfrwt beam="2">  1        4 0.40348974E-01 0.12500074E+03</pdfrwt>
<pdfrwt beam="1">  1       -4 0.60507983E-02 0.12500074E+03</pdfrwt>
<totfact> 0.16915105E+03</totfact>
</mgrwt>
</event>
<event>
 5    1  0.1451195E-002  0.1250293E+03  0.7818608E-02  0.1235023E+00
          4   -1    0    0  501    0  0.00000000000E+00  0.00000000000E+00  0.26149891358E+03  0.26150199752E+03  0.12700000000E+01 0.  1.
         -4   -1    0    0    0  501 -0.00000000000E+00 -0.00000000000E+00 -0.14914768912E+02  0.14968741821E+02  0.12700000000E+01 0.  1.
         25    2    1    2    0    0  0.00000000000E+00  0.00000000000E+00  0.24658414467E+03  0.27647073934E+03  0.12502931379E+03 0.  0.
    9000005    1    3    3    0    0  0.34948225886E+02  0.28833658506E+02  0.28071643597E+02  0.53308306385E+02  0.10000000000E+01 0.  0.
    9000005    1    3    3    0    0 -0.34948225886E+02 -0.28833658506E+02  0.21851250107E+03  0.22316243295E+03  0.10000000000E+01 0.  0.
<mgrwt>
<rscale>  0 0.12502931E+03</rscale>
<asrwt>0</asrwt>
<pdfrwt beam="1">  1        4 0.65381861E-01 0.12502931E+03</pdfrwt>
<pdfrwt beam="2">  1       -4 0.37358243E-02 0.12502931E+03</pdfrwt>
<totfact> 0.13647928E+03</totfact>
</mgrwt>
</event>
<event>
 5    1  0.1451195E-002  0.1250200E+03  0.7818608E-02  0.1235038E+00
         -4   -1    0    0    0  501 -0.00000000000E+00  0.00000000000E+00  0.11675607498E+02  0.11744475742E+02  0.12700000000E+01 0.  1.
          4   -1    0    0  501    0  0.00000000000E+00 -0.00000000000E+00 -0.33361799488E+03  0.33362041215E+03  0.12700000000E+01 0.  1.
         25    2    1    2    0    0  0.00000000000E+00  0.00000000000E+00 -0.32194238738E+03  0.34536488789E+03  0.12502001840E+03 0.  0.
    9000005    1    3    3    0    0 -0.20014690207E+02  0.20904314110E+01  0.24951648296E+01  0.20302304675E+02  0.10000000000E+01 0.  0.
    9000005    1    3    3    0    0  0.20014690207E+02 -0.20904314110E+01 -0.32443755221E+03  0.32506258322E+03  0.10000000000E+01 0.  0.
<mgrwt>
<rscale>  0 0.12502002E+03</rscale>
<asrwt>0</asrwt>
<pdfrwt beam="2">  1        4 0.83413378E-01 0.12502002E+03</pdfrwt>
<pdfrwt beam="1">  1       -4 0.29278137E-02 0.12502002E+03</pdfrwt>
<totfact> 0.11783262E+03</totfact>
</mgrwt>
</event>
<event>
 5    1  0.1451195E-002  0.1250003E+03  0.7818608E-02  0.1235069E+00
          4   -1    0    0  501    0  0.00000000000E+00  0.00000000000E+00  0.36052717237E+02  0.36075078935E+02  0.12700000000E+01 0. -1.
         -4   -1    0    0    0  501 -0.00000000000E+00 -0.00000000000E+00 -0.10828911009E+03  0.10829655703E+03  0.12700000000E+01 0. -1.
         25    2    1    2    0    0  0.00000000000E+00  0.00000000000E+00 -0.72236392853E+02  0.14437163596E+03  0.12500029127E+03 0.  0.
    9000005    1    3    3    0    0  0.48196534567E+02  0.16207526295E+02 -0.78075241949E+02  0.93179038728E+02  0.10000000000E+01 0.  0.
    9000005    1    3    3    0    0 -0.48196534567E+02 -0.16207526295E+02  0.58388490955E+01  0.51192597235E+02  0.10000000000E+01 0.  0.
<mgrwt>
<rscale>  0 0.12500029E+03</rscale>
<asrwt>0</asrwt>
<pdfrwt beam="1">  1        4 0.90169056E-02 0.12500029E+03</pdfrwt>
<pdfrwt beam="2">  1       -4 0.27076003E-01 0.12500029E+03</pdfrwt>
<totfact> 0.18818757E+03</totfact>
</mgrwt>
</event>
<event>
 5    1  0.1451195E-002  0.1249948E+03  0.7818608E-02  0.1235077E+00
          4   -1    0    0  501    0  0.00000000000E+00  0.00000000000E+00  0.24784837977E+02  0.24817354685E+02  0.12700000000E+01 0.  1.
         -4   -1    0    0    0  501 -0.00000000000E+00 -0.00000000000E+00 -0.15745499095E+03  0.15746011264E+03  0.12700000000E+01 0.  1.
         25    2    1    2    0    0  0.00000000000E+00  0.00000000000E+00 -0.13267015297E+03  0.18227746733E+03  0.12499482232E+03 0.  0.
    9000005    1    3    3    0    0  0.48032875564E+02  0.39759395267E+02 -0.60329554715E+02  0.86767631171E+02  0.10000000000E+01 0.  0.
    9000005    1    3    3    0    0 -0.48032875564E+02 -0.39759395267E+02 -0.72340598253E+02  0.95509836156E+02  0.10000000000E+01 0.  0.
<mgrwt>
<rscale>  0 0.12499482E+03</rscale>
<asrwt>0</asrwt>
<pdfrwt beam="1">  1        4 0.62009147E-02 0.12499482E+03</pdfrwt>
<pdfrwt beam="2">  1       -4 0.39368450E-01 0.12499482E+03</pdfrwt>
<totfact> 0.17059136E+03</totfact>
</mgrwt>
</event>
<event>
 5    1  0.1451195E-002  0.1250305E+03  0.7818608E-02  0.1235022E+00
         -4   -1    0    0    0  501 -0.00000000000E+00  0.00000000000E+00  0.35215630248E+01  0.37435686367E+01  0.12700000000E+01 0.  1.
          4   -1    0    0  501    0  0.00000000000E+00 -0.00000000000E+00 -0.10756439683E+04  0.10756447180E+04  0.12700000000E+01 0.  1.
         25    2    1    2    0    0  0.00000000000E+00  0.00000000000E+00 -0.10721224053E+04  0.10793882867E+04  0.12503048234E+03 0.  0.
    9000005    1    3    3    0    0  0.36798101817E+02 -0.42899919681E+02 -0.30559855861E+03  0.31078285415E+03  0.10000000000E+01 0.  0.
    9000005    1    3    3    0    0 -0.36798101817E+02  0.42899919681E+02 -0.76652384666E+03  0.76860543253E+03  0.10000000000E+01 0.  0.
<mgrwt>
<rscale>  0 0.12503048E+03</rscale>
<asrwt>0</asrwt>
<pdfrwt beam="2">  1        4 0.26893775E+00 0.12503048E+03</pdfrwt>
<pdfrwt beam="1">  1       -4 0.90823886E-03 0.12503048E+03</pdfrwt>
<totfact> 0.32001997E+02</totfact>
</mgrwt>
</event>
<event>
 5    1  0.1451195E-002  0.1250016E+03  0.7818608E-02  0.1235067E+00
         -4   -1    0    0    0  501 -0.00000000000E+00  0.00000000000E+00  0.45939799253E+02  0.45957350395E+02  0.12700000000E+01 0.  1.
          4   -1    0    0  501    0  0.00000000000E+00 -0.00000000000E+00 -0.84993456014E+02  0.85002943862E+02  0.12700000000E+01 0.  1.
         25    2    1    2    0    0  0.00000000000E+00  0.00000000000E+00 -0.39053656762E+02  0.13096029426E+03  0.12500164225E+03 0.  0.
    9000005    1    3    3    0    0  0.25858856271E+02 -0.42056381271E+01 -0.78967456027E+02  0.83205930985E+02  0.10000000000E+01 0.  0.
    9000005    1    3    3    0    0 -0.25858856271E+02  0.42056381271E+01  0.39913799266E+02  0.47754363272E+02  0.10000000000E+01 0.  0.
<mgrwt>
<rscale>  0 0.12500164E+03</rscale>
<asrwt>0</asrwt>
<pdfrwt beam="2">  1        4 0.21251744E-01 0.12500164E+03</pdfrwt>
<pdfrwt beam="1">  1       -4 0.11488330E-01 0.12500164E+03</pdfrwt>
<totfact> 0.19512149E+03</totfact>
</mgrwt>
</event>
<event>
 5    1  0.1451195E-002  0.1250011E+03  0.7818608E-02  0.1235068E+00
          4   -1    0    0  501    0  0.00000000000E+00  0.00000000000E+00  0.28700498379E+03  0.28700779366E+03  0.12700000000E+01 0. -1.
         -4   -1    0    0    0  501 -0.00000000000E+00 -0.00000000000E+00 -0.13578120318E+02  0.13637384330E+02  0.12700000000E+01 0. -1.
         25    2    1    2    0    0  0.00000000000E+00  0.00000000000E+00  0.27342686347E+03  0.30064517799E+03  0.12500109351E+03 0.  0.
    9000005    1    3    3    0    0  0.54781716829E+02 -0.27078158903E+02  0.16816979531E+03  0.17893111312E+03  0.10000000000E+01 0.  0.
    9000005    1    3    3    0    0 -0.54781716829E+02  0.27078158903E+02  0.10525706817E+03  0.12171406487E+03  0.10000000000E+01 0.  0.
<mgrwt>
<rscale>  0 0.12500109E+03</rscale>
<asrwt>0</asrwt>
<pdfrwt beam="1">  1        4 0.71759011E-01 0.12500109E+03</pdfrwt>
<pdfrwt beam="2">  1       -4 0.34022890E-02 0.12500109E+03</pdfrwt>
<totfact> 0.12952668E+03</totfact>
</mgrwt>
</event>
<event>
 5    1  0.1451195E-002  0.1250001E+03  0.7818608E-02  0.1235069E+00
         -4   -1    0    0    0  501 -0.00000000000E+00  0.00000000000E+00  0.48369103276E+03  0.48369270004E+03  0.12700000000E+01 0.  1.
          4   -1    0    0  501    0  0.00000000000E+00 -0.00000000000E+00 -0.80243139380E+01  0.81241931400E+01  0.12700000000E+01 0.  1.
         25    2    1    2    0    0  0.00000000000E+00  0.00000000000E+00  0.47566671882E+03  0.49181689318E+03  0.12500011609E+03 0.  0.
    9000005    1    3    3    0    0  0.42543242918E+02 -0.12018805041E+02  0.64050040019E+02  0.77831785403E+02  0.10000000000E+01 0.  0.
    9000005    1    3    3    0    0 -0.42543242918E+02  0.12018805041E+02  0.41161667880E+03  0.41398510778E+03  0.10000000000E+01 0.  0.
<mgrwt>
<rscale>  0 0.12500012E+03</rscale>
<asrwt>0</asrwt>
<pdfrwt beam="2">  1        4 0.20187718E-02 0.12500012E+03</pdfrwt>
<pdfrwt beam="1">  1       -4 0.12093545E+00 0.12500012E+03</pdfrwt>
<totfact> 0.88922651E+02</totfact>
</mgrwt>
</event>
<event>
 5    1  0.1451195E-002  0.1250044E+03  0.7818608E-02  0.1235062E+00
          4   -1    0    0  501    0  0.00000000000E+00  0.00000000000E+00  0.75331250026E+02  0.75341954650E+02  0.12700000000E+01 0. -1.
         -4   -1    0    0    0  501 -0.00000000000E+00 -0.00000000000E+00 -0.51835804212E+02  0.51851359657E+02  0.12700000000E+01 0. -1.
         25    2    1    2    0    0  0.00000000000E+00  0.00000000000E+00  0.23495445814E+02  0.12719331431E+03  0.12500441284E+03 0.  0.
    9000005    1    3    3    0    0  0.61845243471E+02 -0.32678085500E+00  0.26136236533E+01  0.61909385026E+02  0.10000000000E+01 0.  0.
    9000005    1    3    3    0    0 -0.61845243471E+02  0.32678085500E+00  0.20881822161E+02  0.65283929282E+02  0.10000000000E+01 0.  0.
<mgrwt>
<rscale>  0 0.12500441E+03</rscale>
<asrwt>0</asrwt>
<pdfrwt beam="1">  1        4 0.18836095E-01 0.12500441E+03</pdfrwt>
<pdfrwt beam="2">  1       -4 0.12962234E-01 0.12500441E+03</pdfrwt>
<totfact> 0.19714479E+03</totfact>
</mgrwt>
</event>
<event>
 5    1  0.1451195E-002  0.1250026E+03  0.7818608E-02  0.1235065E+00
          4   -1    0    0  501    0  0.00000000000E+00  0.00000000000E+00  0.43471145392E+02  0.43489692822E+02  0.12700000000E+01 0. -1.
         -4   -1    0    0    0  501 -0.00000000000E+00 -0.00000000000E+00 -0.89819922127E+02  0.89828900199E+02  0.12700000000E+01 0. -1.
         25    2    1    2    0    0  0.00000000000E+00  0.00000000000E+00 -0.46348776735E+02  0.13331859302E+03  0.12500255253E+03 0.  0.
    9000005    1    3    3    0    0  0.49090927261E+01 -0.53283097920E+02 -0.57605569490E+02  0.78629443288E+02  0.10000000000E+01 0.  0.
    9000005    1    3    3    0    0 -0.49090927261E+01  0.53283097920E+02  0.11256792755E+02  0.54689149733E+02  0.10000000000E+01 0.  0.
<mgrwt>
<rscale>  0 0.12500255E+03</rscale>
<asrwt>0</asrwt>
<pdfrwt beam="1">  1        4 0.10871227E-01 0.12500255E+03</pdfrwt>
<pdfrwt beam="2">  1       -4 0.22458421E-01 0.12500255E+03</pdfrwt>
<totfact> 0.19386419E+03</totfact>
</mgrwt>
</event>
<event>
 5    1  0.1451195E-002  0.1250000E+03  0.7818608E-02  0.1235069E+00
          4   -1    0    0  501    0  0.00000000000E+00  0.00000000000E+00  0.16479962193E+02  0.16528824940E+02  0.12700000000E+01 0.  1.
         -4   -1    0    0    0  501 -0.00000000000E+00 -0.00000000000E+00 -0.23662883896E+03  0.23663224701E+03  0.12700000000E+01 0.  1.
         25    2    1    2    0    0  0.00000000000E+00  0.00000000000E+00 -0.22014887676E+03  0.25316107195E+03  0.12500000165E+03 0.  0.
    9000005    1    3    3    0    0  0.35260985365E+02  0.21455331416E+02 -0.20510303534E+03  0.20921740712E+03  0.10000000000E+01 0.  0.
    9000005    1    3    3    0    0 -0.35260985365E+02 -0.21455331416E+02 -0.15045841425E+02  0.43943664836E+02  0.10000000000E+01 0.  0.
<mgrwt>
<rscale>  0 0.12500000E+03</rscale>
<asrwt>0</asrwt>
<pdfrwt beam="1">  1        4 0.41265252E-02 0.12500000E+03</pdfrwt>
<pdfrwt beam="2">  1       -4 0.59163733E-01 0.12500000E+03</pdfrwt>
<totfact> 0.14393421E+03</totfact>
</mgrwt>
</event>
<event>
 5    1  0.1451195E-002  0.1250077E+03  0.7818608E-02  0.1235057E+00
         -4   -1    0    0    0  501 -0.00000000000E+00  0.00000000000E+00  0.76353113325E+03  0.76353218946E+03  0.12700000000E+01 0. -1.
          4   -1    0    0  501    0  0.00000000000E+00 -0.00000000000E+00 -0.50367775433E+01  0.51944227803E+01  0.12700000000E+01 0. -1.
         25    2    1    2    0    0  0.00000000000E+00  0.00000000000E+00  0.75849435571E+03  0.76872661224E+03  0.12500766668E+03 0.  0.
    9000005    1    3    3    0    0 -0.61882205033E+02 -0.83895447294E+01  0.39423140008E+03  0.39914807849E+03  0.10000000000E+01 0.  0.
    9000005    1    3    3    0    0  0.61882205033E+02  0.83895447294E+01  0.36426295563E+03  0.36957853374E+03  0.10000000000E+01 0.  0.
<mgrwt>
<rscale>  0 0.12500767E+03</rscale>
<asrwt>0</asrwt>
<pdfrwt beam="2">  1        4 0.12790319E-02 0.12500767E+03</pdfrwt>
<pdfrwt beam="1">  1       -4 0.19090264E+00 0.12500767E+03</pdfrwt>
<totfact> 0.55300793E+02</totfact>
</mgrwt>
</event>
<event>
 5    1  0.1451195E-002  0.1249993E+03  0.7818608E-02  0.1235070E+00
         -4   -1    0    0    0  501 -0.00000000000E+00  0.00000000000E+00  0.27973417204E+03  0.27973705494E+03  0.12700000000E+01 0. -1.
          4   -1    0    0  501    0  0.00000000000E+00 -0.00000000000E+00 -0.13932154408E+02  0.13989918744E+02  0.12700000000E+01 0. -1.
         25    2    1    2    0    0  0.00000000000E+00  0.00000000000E+00  0.26580201763E+03  0.29372697369E+03  0.12499928997E+03 0.  0.
    9000005    1    3    3    0    0  0.37674713980E+02  0.42596855557E+02  0.72016874820E+02  0.91767676421E+02  0.10000000000E+01 0.  0.
    9000005    1    3    3    0    0 -0.37674713980E+02 -0.42596855557E+02  0.19378514281E+03  0.20195929726E+03  0.10000000000E+01 0.  0.
<mgrwt>
<rscale>  0 0.12499929E+03</rscale>
<asrwt>0</asrwt>
<pdfrwt beam="2">  1        4 0.34906196E-02 0.12499929E+03</pdfrwt>
<pdfrwt beam="1">  1       -4 0.69941122E-01 0.12499929E+03</pdfrwt>
<totfact> 0.13148922E+03</totfact>
</mgrwt>
</event>
<event>
 5    1  0.1451195E-002  0.1250018E+03  0.7818608E-02  0.1235066E+00
          4   -1    0    0  501    0  0.00000000000E+00  0.00000000000E+00  0.17658579017E+03  0.17659035702E+03  0.12700000000E+01 0.  1.
         -4   -1    0    0    0  501 -0.00000000000E+00 -0.00000000000E+00 -0.22098534575E+02  0.22134997862E+02  0.12700000000E+01 0.  1.
         25    2    1    2    0    0  0.00000000000E+00  0.00000000000E+00  0.15448725560E+03  0.19872535488E+03  0.12500181810E+03 0.  0.
    9000005    1    3    3    0    0 -0.32451383050E+02  0.14200184786E+02 -0.46049595833E+01  0.35734341502E+02  0.10000000000E+01 0.  0.
    9000005    1    3    3    0    0  0.32451383050E+02 -0.14200184786E+02  0.15909221518E+03  0.16299101338E+03  0.10000000000E+01 0.  0.
<mgrwt>
<rscale>  0 0.12500182E+03</rscale>
<asrwt>0</asrwt>
<pdfrwt beam="1">  1        4 0.44151576E-01 0.12500182E+03</pdfrwt>
<pdfrwt beam="2">  1       -4 0.55297625E-02 0.12500182E+03</pdfrwt>
<totfact> 0.16372519E+03</totfact>
</mgrwt>
</event>
<event>
 5    1  0.1451195E-002  0.1250153E+03  0.7818608E-02  0.1235045E+00
          4   -1    0    0  501    0  0.00000000000E+00  0.00000000000E+00  0.14838762578E+03  0.14839306044E+03  0.12700000000E+01 0. -1.
         -4   -1    0    0    0  501 -0.00000000000E+00 -0.00000000000E+00 -0.26309845237E+02  0.26340479426E+02  0.12700000000E+01 0. -1.
         25    2    1    2    0    0  0.00000000000E+00  0.00000000000E+00  0.12207778055E+03  0.17473353986E+03  0.12501530086E+03 0.  0.
    9000005    1    3    3    0    0 -0.52322629254E+02  0.11783034309E+01  0.10878944077E+03  0.12072774476E+03  0.10000000000E+01 0.  0.
    9000005    1    3    3    0    0  0.52322629254E+02 -0.11783034309E+01  0.13288339779E+02  0.54005795107E+02  0.10000000000E+01 0.  0.
<mgrwt>
<rscale>  0 0.12501530E+03</rscale>
<asrwt>0</asrwt>
<pdfrwt beam="1">  1        4 0.37101414E-01 0.12501530E+03</pdfrwt>
<pdfrwt beam="2">  1       -4 0.65819701E-02 0.12501530E+03</pdfrwt>
<totfact> 0.17379464E+03</totfact>
</mgrwt>
</event>
<event>
 5    1  0.1451195E-002  0.1249980E+03  0.7818608E-02  0.1235072E+00
          4   -1    0    0  501    0  0.00000000000E+00  0.00000000000E+00  0.35972205410E+02  0.35994617126E+02  0.12700000000E+01 0.  1.
         -4   -1    0    0    0  501 -0.00000000000E+00 -0.00000000000E+00 -0.10852739305E+03  0.10853482364E+03  0.12700000000E+01 0.  1.
         25    2    1    2    0    0  0.00000000000E+00  0.00000000000E+00 -0.72555187644E+02  0.14452944077E+03  0.12499801596E+03 0.  0.
    9000005    1    3    3    0    0 -0.73512623519E+01  0.30922946109E+02 -0.98488526304E+02  0.10349521471E+03  0.10000000000E+01 0.  0.
    9000005    1    3    3    0    0  0.73512623519E+01 -0.30922946109E+02  0.25933338660E+02  0.41034226059E+02  0.10000000000E+01 0.  0.
<mgrwt>
<rscale>  0 0.12499802E+03</rscale>
<asrwt>0</asrwt>
<pdfrwt beam="1">  1        4 0.89967819E-02 0.12499802E+03</pdfrwt>
<pdfrwt beam="2">  1       -4 0.27135578E-01 0.12499802E+03</pdfrwt>
<totfact> 0.18811840E+03</totfact>
</mgrwt>
</event>
<event>
 5    1  0.1451195E-002  0.1249996E+03  0.7818608E-02  0.1235070E+00
         -4   -1    0    0    0  501 -0.00000000000E+00  0.00000000000E+00  0.71173347653E+02  0.71184677538E+02  0.12700000000E+01 0.  1.
          4   -1    0    0  501    0  0.00000000000E+00 -0.00000000000E+00 -0.54860164263E+02  0.54874862396E+02  0.12700000000E+01 0.  1.
         25    2    1    2    0    0  0.00000000000E+00  0.00000000000E+00  0.16313183390E+02  0.12605953993E+03  0.12499955062E+03 0.  0.
    9000005    1    3    3    0    0  0.12626707935E+02  0.11724479317E+02  0.68735309152E+02  0.70869174489E+02  0.10000000000E+01 0.  0.
    9000005    1    3    3    0    0 -0.12626707935E+02 -0.11724479317E+02 -0.52422125762E+02  0.55190365445E+02  0.10000000000E+01 0.  0.
<mgrwt>
<rscale>  0 0.12499955E+03</rscale>
<asrwt>0</asrwt>
<pdfrwt beam="2">  1        4 0.13718295E-01 0.12499955E+03</pdfrwt>
<pdfrwt beam="1">  1       -4 0.17796590E-01 0.12499955E+03</pdfrwt>
<totfact> 0.19777911E+03</totfact>
</mgrwt>
</event>
<event>
 5    1  0.1451195E-002  0.1249982E+03  0.7818608E-02  0.1235072E+00
         -4   -1    0    0    0  501 -0.00000000000E+00  0.00000000000E+00  0.12812717755E+02  0.12875505282E+02  0.12700000000E+01 0. -1.
          4   -1    0    0  501    0  0.00000000000E+00 -0.00000000000E+00 -0.30405468001E+03  0.30405733232E+03  0.12700000000E+01 0. -1.
         25    2    1    2    0    0  0.00000000000E+00  0.00000000000E+00 -0.29124196226E+03  0.31693283760E+03  0.12499817187E+03 0.  0.
    9000005    1    3    3    0    0 -0.44343966633E+02  0.43707493253E+02 -0.13210807562E+03  0.14604888218E+03  0.10000000000E+01 0.  0.
    9000005    1    3    3    0    0  0.44343966633E+02 -0.43707493253E+02 -0.15913388664E+03  0.17088395542E+03  0.10000000000E+01 0.  0.
<mgrwt>
<rscale>  0 0.12499817E+03</rscale>
<asrwt>0</asrwt>
<pdfrwt beam="2">  1        4 0.76021826E-01 0.12499817E+03</pdfrwt>
<pdfrwt beam="1">  1       -4 0.32113604E-02 0.12499817E+03</pdfrwt>
<totfact> 0.12509935E+03</totfact>
</mgrwt>
</event>
<event>
 5    1  0.1451195E-002  0.1249935E+03  0.7818608E-02  0.1235080E+00
         -4   -1    0    0    0  501 -0.00000000000E+00  0.00000000000E+00  0.82468150679E+02  0.82477929026E+02  0.12700000000E+01 0.  1.
          4   -1    0    0  501    0  0.00000000000E+00 -0.00000000000E+00 -0.47340706139E+02  0.47357738098E+02  0.12700000000E+01 0.  1.
         25    2    1    2    0    0  0.00000000000E+00  0.00000000000E+00  0.35127444540E+02  0.12983566712E+03  0.12499345222E+03 0.  0.
    9000005    1    3    3    0    0 -0.17580473478E+02  0.19995590223E+02 -0.41159021285E+02  0.49030212208E+02  0.10000000000E+01 0.  0.
    9000005    1    3    3    0    0  0.17580473478E+02 -0.19995590223E+02  0.76286465824E+02  0.80805454915E+02  0.10000000000E+01 0.  0.
<mgrwt>
<rscale>  0 0.12499345E+03</rscale>
<asrwt>0</asrwt>
<pdfrwt beam="2">  1        4 0.11838528E-01 0.12499345E+03</pdfrwt>
<pdfrwt beam="1">  1       -4 0.20620389E-01 0.12499345E+03</pdfrwt>
<totfact> 0.19576212E+03</totfact>
</mgrwt>
</event>
<event>
 5    1  0.1451195E-002  0.1249997E+03  0.7818608E-02  0.1235070E+00
         -4   -1    0    0    0  501 -0.00000000000E+00  0.00000000000E+00  0.24595167478E+02  0.24627934612E+02  0.12700000000E+01 0. -1.
          4   -1    0    0  501    0  0.00000000000E+00 -0.00000000000E+00 -0.15868007553E+03  0.15868515769E+03  0.12700000000E+01 0. -1.
         25    2    1    2    0    0  0.00000000000E+00  0.00000000000E+00 -0.13408490806E+03  0.18331309230E+03  0.12499970896E+03 0.  0.
    9000005    1    3    3    0    0  0.38063435366E+02  0.20961240480E+02 -0.11795320810E+01  0.43480915471E+02  0.10000000000E+01 0.  0.
    9000005    1    3    3    0    0 -0.38063435366E+02 -0.20961240480E+02 -0.13290537598E+03  0.13983217683E+03  0.10000000000E+01 0.  0.
<mgrwt>
<rscale>  0 0.12499971E+03</rscale>
<asrwt>0</asrwt>
<pdfrwt beam="2">  1        4 0.39674747E-01 0.12499971E+03</pdfrwt>
<pdfrwt beam="1">  1       -4 0.61535235E-02 0.12499971E+03</pdfrwt>
<totfact> 0.17012857E+03</totfact>
</mgrwt>
</event>
<event>
 5    1  0.1451195E-002  0.1249857E+03  0.7818608E-02  0.1235092E+00
         -4   -1    0    0    0  501 -0.00000000000E+00  0.00000000000E+00  0.46567095416E+02  0.46584410219E+02  0.12700000000E+01 0. -1.
          4   -1    0    0  501    0  0.00000000000E+00 -0.00000000000E+00 -0.83827409203E+02  0.83837029013E+02  0.12700000000E+01 0. -1.
         25    2    1    2    0    0  0.00000000000E+00  0.00000000000E+00 -0.37260313788E+02  0.13042143923E+03  0.12498568249E+03 0.  0.
    9000005    1    3    3    0    0 -0.48033082569E+02 -0.88472838205E+01 -0.59298253848E+02  0.76829254595E+02  0.10000000000E+01 0.  0.
    9000005    1    3    3    0    0  0.48033082569E+02  0.88472838205E+01  0.22037940060E+02  0.53592184638E+02  0.10000000000E+01 0.  0.
<mgrwt>
<rscale>  0 0.12498568E+03</rscale>
<asrwt>0</asrwt>
<pdfrwt beam="2">  1        4 0.20960219E-01 0.12498568E+03</pdfrwt>
<pdfrwt beam="1">  1       -4 0.11645141E-01 0.12498568E+03</pdfrwt>
<totfact> 0.19548285E+03</totfact>
</mgrwt>
</event>
<event>
 5    1  0.1451195E-002  0.1250048E+03  0.7818608E-02  0.1235062E+00
          4   -1    0    0  501    0  0.00000000000E+00  0.00000000000E+00  0.14081100493E+03  0.14081673200E+03  0.12700000000E+01 0.  1.
         -4   -1    0    0    0  501 -0.00000000000E+00 -0.00000000000E+00 -0.27722398358E+02  0.27751473307E+02  0.12700000000E+01 0.  1.
         25    2    1    2    0    0  0.00000000000E+00  0.00000000000E+00  0.11308860657E+03  0.16856820530E+03  0.12500482751E+03 0.  0.
    9000005    1    3    3    0    0  0.18704087473E+02 -0.44056019747E+02  0.11073253954E+03  0.12063776804E+03  0.10000000000E+01 0.  0.
    9000005    1    3    3    0    0 -0.18704087473E+02  0.44056019747E+02  0.23560670304E+01  0.47930437261E+02  0.10000000000E+01 0.  0.
<mgrwt>
<rscale>  0 0.12500483E+03</rscale>
<asrwt>0</asrwt>
<pdfrwt beam="1">  1        4 0.35207101E-01 0.12500483E+03</pdfrwt>
<pdfrwt beam="2">  1       -4 0.69349499E-02 0.12500483E+03</pdfrwt>
<totfact> 0.17659842E+03</totfact>
</mgrwt>
</event>
<event>
 5    1  0.1451195E-002  0.1249943E+03  0.7818608E-02  0.1235078E+00
          4   -1    0    0  501    0  0.00000000000E+00  0.00000000000E+00  0.39658860377E+02  0.39679189841E+02  0.12700000000E+01 0. -1.
         -4   -1    0    0    0  501 -0.00000000000E+00 -0.00000000000E+00 -0.98437683325E+02  0.98445875477E+02  0.12700000000E+01 0. -1.
         25    2    1    2    0    0  0.00000000000E+00  0.00000000000E+00 -0.58778822948E+02  0.13812506532E+03  0.12499433444E+03 0.  0.
    9000005    1    3    3    0    0 -0.47009014806E+02  0.41047140554E+02 -0.32915317793E+02  0.70562974471E+02  0.10000000000E+01 0.  0.
    9000005    1    3    3    0    0  0.47009014806E+02 -0.41047140554E+02 -0.25863505155E+02  0.67562090847E+02  0.10000000000E+01 0.  0.
<mgrwt>
<rscale>  0 0.12499433E+03</rscale>
<asrwt>0</asrwt>
<pdfrwt beam="1">  1        4 0.99182805E-02 0.12499433E+03</pdfrwt>
<pdfrwt beam="2">  1       -4 0.24612986E-01 0.12499433E+03</pdfrwt>
<totfact> 0.19139204E+03</totfact>
</mgrwt>
</event>
<event>
 5    1  0.1451195E-002  0.1249837E+03  0.7818608E-02  0.1235095E+00
         -4   -1    0    0    0  501 -0.00000000000E+00  0.00000000000E+00  0.70948939380E+02  0.70960305094E+02  0.12700000000E+01 0. -1.
          4   -1    0    0  501    0  0.00000000000E+00 -0.00000000000E+00 -0.55019739795E+02  0.55034395310E+02  0.12700000000E+01 0. -1.
         25    2    1    2    0    0  0.00000000000E+00  0.00000000000E+00  0.15929199585E+02  0.12599470040E+03  0.12498369946E+03 0.  0.
    9000005    1    3    3    0    0 -0.40032736993E+02 -0.44116052385E+02  0.26968754418E+02  0.65399998655E+02  0.10000000000E+01 0.  0.
    9000005    1    3    3    0    0  0.40032736993E+02  0.44116052385E+02 -0.11039554833E+02  0.60594701749E+02  0.10000000000E+01 0.  0.
<mgrwt>
<rscale>  0 0.12498370E+03</rscale>
<asrwt>0</asrwt>
<pdfrwt beam="2">  1        4 0.13758188E-01 0.12498370E+03</pdfrwt>
<pdfrwt beam="1">  1       -4 0.17740487E-01 0.12498370E+03</pdfrwt>
<totfact> 0.19788751E+03</totfact>
</mgrwt>
</event>
<event>
 5    1  0.1451195E-002  0.1250012E+03  0.7818608E-02  0.1235067E+00
          4   -1    0    0  501    0  0.00000000000E+00  0.00000000000E+00  0.30028230459E+02  0.30055074855E+02  0.12700000000E+01 0.  1.
         -4   -1    0    0    0  501 -0.00000000000E+00 -0.00000000000E+00 -0.13000040101E+03  0.13000660430E+03  0.12700000000E+01 0.  1.
         25    2    1    2    0    0  0.00000000000E+00  0.00000000000E+00 -0.99972170550E+02  0.16006167916E+03  0.12500122500E+03 0.  0.
    9000005    1    3    3    0    0  0.18463581524E+02  0.59701452057E+02 -0.49474946992E+02  0.79711590125E+02  0.10000000000E+01 0.  0.
    9000005    1    3    3    0    0 -0.18463581524E+02 -0.59701452057E+02 -0.50497223558E+02  0.80350089033E+02  0.10000000000E+01 0.  0.
<mgrwt>
<rscale>  0 0.12500122E+03</rscale>
<asrwt>0</asrwt>
<pdfrwt beam="1">  1        4 0.75111889E-02 0.12500122E+03</pdfrwt>
<pdfrwt beam="2">  1       -4 0.32504230E-01 0.12500122E+03</pdfrwt>
<totfact> 0.18054338E+03</totfact>
</mgrwt>
</event>
<event>
 5    1  0.1451195E-002  0.1249981E+03  0.7818608E-02  0.1235072E+00
         -4   -1    0    0    0  501 -0.00000000000E+00  0.00000000000E+00  0.98649081580E+01  0.99463215797E+01  0.12700000000E+01 0.  1.
          4   -1    0    0  501    0  0.00000000000E+00 -0.00000000000E+00 -0.39425286140E+03  0.39425490691E+03  0.12700000000E+01 0.  1.
         25    2    1    2    0    0  0.00000000000E+00  0.00000000000E+00 -0.38438795325E+03  0.40420122849E+03  0.12499813804E+03 0.  0.
    9000005    1    3    3    0    0  0.49883694958E+02  0.27894331858E+02 -0.27391388568E+03  0.27981474861E+03  0.10000000000E+01 0.  0.
    9000005    1    3    3    0    0 -0.49883694958E+02 -0.27894331858E+02 -0.11047406756E+03  0.12438647988E+03  0.10000000000E+01 0.  0.
<mgrwt>
<rscale>  0 0.12499814E+03</rscale>
<asrwt>0</asrwt>
<pdfrwt beam="2">  1        4 0.98573595E-01 0.12499814E+03</pdfrwt>
<pdfrwt beam="1">  1       -4 0.24766607E-02 0.12499814E+03</pdfrwt>
<totfact> 0.10483619E+03</totfact>
</mgrwt>
</event>
<event>
 5    1  0.1451195E-002  0.1250088E+03  0.7818608E-02  0.1235056E+00
          4   -1    0    0  501    0  0.00000000000E+00  0.00000000000E+00  0.41687046316E+03  0.41687239769E+03  0.12700000000E+01 0. -1.
         -4   -1    0    0    0  501 -0.00000000000E+00 -0.00000000000E+00 -0.93267410397E+01  0.94128103360E+01  0.12700000000E+01 0. -1.
         25    2    1    2    0    0  0.00000000000E+00  0.00000000000E+00  0.40754372212E+03  0.42628520803E+03  0.12500877226E+03 0.  0.
    9000005    1    3    3    0    0 -0.31910561533E+02 -0.44055158952E+02  0.98852370953E+02  0.11283586403E+03  0.10000000000E+01 0.  0.
    9000005    1    3    3    0    0  0.31910561533E+02  0.44055158952E+02  0.30869135117E+03  0.31344934400E+03  0.10000000000E+01 0.  0.
<mgrwt>
<rscale>  0 0.12500877E+03</rscale>
<asrwt>0</asrwt>
<pdfrwt beam="1">  1        4 0.10422861E+00 0.12500877E+03</pdfrwt>
<pdfrwt beam="2">  1       -4 0.23426860E-02 0.12500877E+03</pdfrwt>
<totfact> 0.10041516E+03</totfact>
</mgrwt>
</event>
<event>
 5    1  0.1451195E-002  0.1249931E+03  0.7818608E-02  0.1235080E+00
          4   -1    0    0  501    0  0.00000000000E+00  0.00000000000E+00  0.51733461377E+01  0.53269513101E+01  0.12700000000E+01 0.  1.
         -4   -1    0    0    0  501 -0.00000000000E+00 -0.00000000000E+00 -0.74379067521E+03  0.74379175946E+03  0.12700000000E+01 0.  1.
         25    2    1    2    0    0  0.00000000000E+00  0.00000000000E+00 -0.73861732908E+03  0.74911871077E+03  0.12499313585E+03 0.  0.
    9000005    1    3    3    0    0  0.86953851746E+01  0.27937657882E+02 -0.38389649561E+02  0.48279267234E+02  0.10000000000E+01 0.  0.
    9000005    1    3    3    0    0 -0.86953851746E+01 -0.27937657882E+02 -0.70022767951E+03  0.70083944353E+03  0.10000000000E+01 0.  0.
<mgrwt>
<rscale>  0 0.12499314E+03</rscale>
<asrwt>0</asrwt>
<pdfrwt beam="1">  1        4 0.13126752E-02 0.12499314E+03</pdfrwt>
<pdfrwt beam="2">  1       -4 0.18596665E+00 0.12499314E+03</pdfrwt>
<totfact> 0.57163509E+02</totfact>
</mgrwt>
</event>
<event>
 5    1  0.1451195E-002  0.1249943E+03  0.7818608E-02  0.1235078E+00
          4   -1    0    0  501    0  0.00000000000E+00  0.00000000000E+00  0.12923351278E+03  0.12923975288E+03  0.12700000000E+01 0. -1.
         -4   -1    0    0    0  501 -0.00000000000E+00 -0.00000000000E+00 -0.30203215406E+02  0.30229904414E+02  0.12700000000E+01 0. -1.
         25    2    1    2    0    0  0.00000000000E+00  0.00000000000E+00  0.99030297370E+02  0.15946965729E+03  0.12499428707E+03 0.  0.
    9000005    1    3    3    0    0 -0.27562926737E+02 -0.17066815402E+02 -0.18641372023E+02  0.37409783068E+02  0.10000000000E+01 0.  0.
    9000005    1    3    3    0    0  0.27562926737E+02  0.17066815402E+02  0.11767166939E+03  0.12205987423E+03  0.10000000000E+01 0.  0.
<mgrwt>
<rscale>  0 0.12499429E+03</rscale>
<asrwt>0</asrwt>
<pdfrwt beam="1">  1        4 0.32312494E-01 0.12499429E+03</pdfrwt>
<pdfrwt beam="2">  1       -4 0.75549201E-02 0.12499429E+03</pdfrwt>
<totfact> 0.18085143E+03</totfact>
</mgrwt>
</event>
<event>
 5    1  0.1451195E-002  0.1249995E+03  0.7818608E-02  0.1235070E+00
         -4   -1    0    0    0  501 -0.00000000000E+00  0.00000000000E+00  0.24813473633E+03  0.24813798636E+03  0.12700000000E+01 0. -1.
          4   -1    0    0  501    0  0.00000000000E+00 -0.00000000000E+00 -0.15713363462E+02  0.15764602478E+02  0.12700000000E+01 0. -1.
         25    2    1    2    0    0  0.00000000000E+00  0.00000000000E+00  0.23242137287E+03  0.26390258884E+03  0.12499952731E+03 0.  0.
    9000005    1    3    3    0    0 -0.40262623521E+02 -0.40795393351E+01  0.21674372948E+03  0.22049164556E+03  0.10000000000E+01 0.  0.
    9000005    1    3    3    0    0  0.40262623521E+02  0.40795393351E+01  0.15677643394E+02  0.43410943279E+02  0.10000000000E+01 0.  0.
<mgrwt>
<rscale>  0 0.12499953E+03</rscale>
<asrwt>0</asrwt>
<pdfrwt beam="2">  1        4 0.39351520E-02 0.12499953E+03</pdfrwt>
<pdfrwt beam="1">  1       -4 0.62040495E-01 0.12499953E+03</pdfrwt>
<totfact> 0.14046839E+03</totfact>
</mgrwt>
</event>
<event>
 5    1  0.1451195E-002  0.1249980E+03  0.7818608E-02  0.1235072E+00
         -4   -1    0    0    0  501 -0.00000000000E+00  0.00000000000E+00  0.29435122310E+03  0.29435396284E+03  0.12700000000E+01 0.  1.
          4   -1    0    0  501    0  0.00000000000E+00 -0.00000000000E+00 -0.13237092563E+02  0.13297876504E+02  0.12700000000E+01 0.  1.
         25    2    1    2    0    0  0.00000000000E+00  0.00000000000E+00  0.28111413053E+03  0.30765183934E+03  0.12499799944E+03 0.  0.
    9000005    1    3    3    0    0  0.42950932220E+02  0.97027303559E+00  0.28863820207E+02  0.51767210909E+02  0.10000000000E+01 0.  0.
    9000005    1    3    3    0    0 -0.42950932220E+02 -0.97027303559E+00  0.25225031033E+03  0.25588462843E+03  0.10000000000E+01 0.  0.
<mgrwt>
<rscale>  0 0.12499800E+03</rscale>
<asrwt>0</asrwt>
<pdfrwt beam="2">  1        4 0.33172137E-02 0.12499800E+03</pdfrwt>
<pdfrwt beam="1">  1       -4 0.73595745E-01 0.12499800E+03</pdfrwt>
<totfact> 0.12759861E+03</totfact>
</mgrwt>
</event>
<event>
 4    1  0.1451195E-002  0.1264209E+03  0.7818608E-02  0.1232865E+00
         -4   -1    0    0    0  501 -0.00000000000E+00  0.00000000000E+00  0.10698587523E+02  0.10773702938E+02  0.12700000000E+01 0. -1.
          4   -1    0    0  501    0  0.00000000000E+00 -0.00000000000E+00 -0.37208367979E+03  0.37208584718E+03  0.12700000000E+01 0. -1.
    9000005    1    1    2    0    0 -0.42454076006E+02 -0.16135346290E+02 -0.47583104373E+02  0.65786395183E+02  0.10000000000E+01 0.  0.
    9000005    1    1    2    0    0  0.42454076006E+02  0.16135346290E+02 -0.31380198790E+03  0.31707315493E+03  0.10000000000E+01 0.  0.
<mgrwt>
<rscale>  0 0.12642092E+03</rscale>
<asrwt>0</asrwt>
<pdfrwt beam="2">  1        4 0.93030537E-01 0.12642092E+03</pdfrwt>
<pdfrwt beam="1">  1       -4 0.26843085E-02 0.12642092E+03</pdfrwt>
<totfact> 0.10584377E+03</totfact>
</mgrwt>
</event>
<event>
 5    1  0.1451195E-002  0.1249665E+03  0.7818608E-02  0.1235122E+00
         -4   -1    0    0    0  501 -0.00000000000E+00  0.00000000000E+00  0.49912487390E+02  0.49928642055E+02  0.12700000000E+01 0. -1.
          4   -1    0    0  501    0  0.00000000000E+00 -0.00000000000E+00 -0.78186023882E+02  0.78196337705E+02  0.12700000000E+01 0. -1.
         25    2    1    2    0    0  0.00000000000E+00  0.00000000000E+00 -0.28273536492E+02  0.12812497976E+03  0.12496646579E+03 0.  0.
    9000005    1    3    3    0    0  0.67090087347E+01 -0.14569304915E+02  0.47770472091E+02  0.50401323868E+02  0.10000000000E+01 0.  0.
    9000005    1    3    3    0    0 -0.67090087347E+01  0.14569304915E+02 -0.76044008583E+02  0.77723655892E+02  0.10000000000E+01 0.  0.
<mgrwt>
<rscale>  0 0.12496647E+03</rscale>
<asrwt>0</asrwt>
<pdfrwt beam="2">  1        4 0.19549814E-01 0.12496647E+03</pdfrwt>
<pdfrwt beam="1">  1       -4 0.12481430E-01 0.12496647E+03</pdfrwt>
<totfact> 0.19681137E+03</totfact>
</mgrwt>
</event>
<event>
 5    1  0.1451195E-002  0.1250005E+03  0.7818608E-02  0.1235069E+00
          4   -1    0    0  501    0  0.00000000000E+00  0.00000000000E+00  0.47839732774E+03  0.47839901347E+03  0.12700000000E+01 0. -1.
         -4   -1    0    0    0  501 -0.00000000000E+00 -0.00000000000E+00 -0.81142500782E+01  0.82130356344E+01  0.12700000000E+01 0. -1.
         25    2    1    2    0    0  0.00000000000E+00  0.00000000000E+00  0.47028307766E+03  0.48661204911E+03  0.12500045279E+03 0.  0.
    9000005    1    3    3    0    0  0.52392165138E+02  0.27909154259E+02  0.31116928484E+03  0.31678254954E+03  0.10000000000E+01 0.  0.
    9000005    1    3    3    0    0 -0.52392165138E+02 -0.27909154259E+02  0.15911379282E+03  0.16982949957E+03  0.10000000000E+01 0.  0.
<mgrwt>
<rscale>  0 0.12500045E+03</rscale>
<asrwt>0</asrwt>
<pdfrwt beam="1">  1        4 0.11961188E+00 0.12500045E+03</pdfrwt>
<pdfrwt beam="2">  1       -4 0.20411215E-02 0.12500045E+03</pdfrwt>
<totfact> 0.89774004E+02</totfact>
</mgrwt>
</event>
<event>
 5    1  0.1451195E-002  0.1249856E+03  0.7818608E-02  0.1235092E+00
          4   -1    0    0  501    0  0.00000000000E+00  0.00000000000E+00  0.16897174960E+03  0.16897652223E+03  0.12700000000E+01 0.  1.
         -4   -1    0    0    0  501 -0.00000000000E+00 -0.00000000000E+00 -0.23089888850E+02  0.23124789017E+02  0.12700000000E+01 0.  1.
         25    2    1    2    0    0  0.00000000000E+00  0.00000000000E+00  0.14588186075E+03  0.19210131125E+03  0.12498558511E+03 0.  0.
    9000005    1    3    3    0    0 -0.61304351189E+02 -0.59198630876E+00  0.91498120735E+02  0.11014299806E+03  0.10000000000E+01 0.  0.
    9000005    1    3    3    0    0  0.61304351189E+02  0.59198630876E+00  0.54383740019E+02  0.81958313190E+02  0.10000000000E+01 0.  0.
<mgrwt>
<rscale>  0 0.12498559E+03</rscale>
<asrwt>0</asrwt>
<pdfrwt beam="1">  1        4 0.42247896E-01 0.12498559E+03</pdfrwt>
<pdfrwt beam="2">  1       -4 0.57774314E-02 0.12498559E+03</pdfrwt>
<totfact> 0.16648834E+03</totfact>
</mgrwt>
</event>
<event>
 5    1  0.1451195E-002  0.1250025E+03  0.7818608E-02  0.1235065E+00
         -4   -1    0    0    0  501 -0.00000000000E+00  0.00000000000E+00  0.14270969565E+03  0.14271534652E+03  0.12700000000E+01 0.  1.
          4   -1    0    0  501    0  0.00000000000E+00 -0.00000000000E+00 -0.27352164659E+02  0.27381632741E+02  0.12700000000E+01 0.  1.
         25    2    1    2    0    0  0.00000000000E+00  0.00000000000E+00  0.11535753099E+03  0.17009697926E+03  0.12500248956E+03 0.  0.
    9000005    1    3    3    0    0 -0.27619779280E+02 -0.55791390219E+02  0.65116246288E+02  0.90092491144E+02  0.10000000000E+01 0.  0.
    9000005    1    3    3    0    0  0.27619779280E+02  0.55791390219E+02  0.50241284699E+02  0.80004488113E+02  0.10000000000E+01 0.  0.
<mgrwt>
<rscale>  0 0.12500249E+03</rscale>
<asrwt>0</asrwt>
<pdfrwt beam="2">  1        4 0.68424312E-02 0.12500249E+03</pdfrwt>
<pdfrwt beam="1">  1       -4 0.35681813E-01 0.12500249E+03</pdfrwt>
<totfact> 0.17591657E+03</totfact>
</mgrwt>
</event>
<event>
 5    1  0.1451195E-002  0.1249991E+03  0.7818608E-02  0.1235071E+00
          4   -1    0    0  501    0  0.00000000000E+00  0.00000000000E+00  0.57627727740E+02  0.57641720173E+02  0.12700000000E+01 0.  1.
         -4   -1    0    0    0  501 -0.00000000000E+00 -0.00000000000E+00 -0.67755095984E+02  0.67766997364E+02  0.12700000000E+01 0.  1.
         25    2    1    2    0    0  0.00000000000E+00  0.00000000000E+00 -0.10127368244E+02  0.12540871754E+03  0.12499913138E+03 0.  0.
    9000005    1    3    3    0    0 -0.51427923175E+02  0.31447338691E+02 -0.21592780422E+02  0.64039164261E+02  0.10000000000E+01 0.  0.
    9000005    1    3    3    0    0  0.51427923175E+02 -0.31447338691E+02  0.11465412178E+02  0.61369553276E+02  0.10000000000E+01 0.  0.
<mgrwt>
<rscale>  0 0.12499913E+03</rscale>
<asrwt>0</asrwt>
<pdfrwt beam="1">  1        4 0.14410169E-01 0.12499913E+03</pdfrwt>
<pdfrwt beam="2">  1       -4 0.16942011E-01 0.12499913E+03</pdfrwt>
<totfact> 0.19813309E+03</totfact>
</mgrwt>
</event>
<event>
 5    1  0.1451195E-002  0.1250044E+03  0.7818608E-02  0.1235062E+00
          4   -1    0    0  501    0  0.00000000000E+00  0.00000000000E+00  0.13565606744E+03  0.13566201212E+03  0.12700000000E+01 0.  1.
         -4   -1    0    0    0  501 -0.00000000000E+00 -0.00000000000E+00 -0.28776682112E+02  0.28804692905E+02  0.12700000000E+01 0.  1.
         25    2    1    2    0    0  0.00000000000E+00  0.00000000000E+00  0.10687938533E+03  0.16446670503E+03  0.12500437614E+03 0.  0.
    9000005    1    3    3    0    0  0.21209678866E+02  0.57606279032E+02  0.38029308964E+02  0.72218849352E+02  0.10000000000E+01 0.  0.
    9000005    1    3    3    0    0 -0.21209678866E+02 -0.57606279032E+02  0.68850076365E+02  0.92247855677E+02  0.10000000000E+01 0.  0.
<mgrwt>
<rscale>  0 0.12500438E+03</rscale>
<asrwt>0</asrwt>
<pdfrwt beam="1">  1        4 0.33918261E-01 0.12500438E+03</pdfrwt>
<pdfrwt beam="2">  1       -4 0.71984151E-02 0.12500438E+03</pdfrwt>
<totfact> 0.17847734E+03</totfact>
</mgrwt>
</event>
<event>
 5    1  0.1451195E-002  0.1250001E+03  0.7818608E-02  0.1235069E+00
         -4   -1    0    0    0  501 -0.00000000000E+00  0.00000000000E+00  0.79058665404E+01  0.80072233486E+01  0.12700000000E+01 0.  1.
          4   -1    0    0  501    0  0.00000000000E+00 -0.00000000000E+00 -0.49084651030E+03  0.49084815327E+03  0.12700000000E+01 0.  1.
         25    2    1    2    0    0  0.00000000000E+00  0.00000000000E+00 -0.48294064375E+03  0.49885537662E+03  0.12500008557E+03 0.  0.
    9000005    1    3    3    0    0  0.35117660033E+02  0.40845994442E+02 -0.36789936344E+03  0.37182332758E+03  0.10000000000E+01 0.  0.
    9000005    1    3    3    0    0 -0.35117660033E+02 -0.40845994442E+02 -0.11504128031E+03  0.12703204904E+03  0.10000000000E+01 0.  0.
<mgrwt>
<rscale>  0 0.12500009E+03</rscale>
<asrwt>0</asrwt>
<pdfrwt beam="2">  1        4 0.12272440E+00 0.12500009E+03</pdfrwt>
<pdfrwt beam="1">  1       -4 0.19893433E-02 0.12500009E+03</pdfrwt>
<totfact> 0.87789190E+02</totfact>
</mgrwt>
</event>
<event>
 5    1  0.1451195E-002  0.1250229E+03  0.7818608E-02  0.1235033E+00
         -4   -1    0    0    0  501 -0.00000000000E+00  0.00000000000E+00  0.23794520404E+03  0.23794859324E+03  0.12700000000E+01 0.  1.
          4   -1    0    0  501    0  0.00000000000E+00 -0.00000000000E+00 -0.16394554985E+02  0.16443671523E+02  0.12700000000E+01 0.  1.
         25    2    1    2    0    0  0.00000000000E+00  0.00000000000E+00  0.22155064905E+03  0.25439226476E+03  0.12502293500E+03 0.  0.
    9000005    1    3    3    0    0  0.38440370887E+02 -0.39578640405E+02  0.51015814809E+02  0.75151475374E+02  0.10000000000E+01 0.  0.
    9000005    1    3    3    0    0 -0.38440370887E+02  0.39578640405E+02  0.17053483425E+03  0.17924078939E+03  0.10000000000E+01 0.  0.
<mgrwt>
<rscale>  0 0.12502293E+03</rscale>
<asrwt>0</asrwt>
<pdfrwt beam="2">  1        4 0.41052020E-02 0.12502293E+03</pdfrwt>
<pdfrwt beam="1">  1       -4 0.59492864E-01 0.12502293E+03</pdfrwt>
<totfact> 0.14345442E+03</totfact>
</mgrwt>
</event>
<event>
 4    1  0.1451195E-002  0.1250976E+03  0.7818608E-02  0.1234917E+00
          4   -1    0    0  501    0  0.00000000000E+00  0.00000000000E+00  0.47844945371E+03  0.47845113926E+03  0.12700000000E+01 0.  1.
         -4   -1    0    0    0  501 -0.00000000000E+00 -0.00000000000E+00 -0.81261258243E+01  0.82247687453E+01  0.12700000000E+01 0.  1.
    9000005    1    1    2    0    0  0.19259195792E+02 -0.55478310606E+02  0.31883556453E+03  0.32420036517E+03  0.10000000000E+01 0.  0.
    9000005    1    1    2    0    0 -0.19259195792E+02  0.55478310606E+02  0.15148776336E+03  0.16247554283E+03  0.10000000000E+01 0.  0.
<mgrwt>
<rscale>  0 0.12509759E+03</rscale>
<asrwt>0</asrwt>
<pdfrwt beam="1">  1        4 0.11962490E+00 0.12509759E+03</pdfrwt>
<pdfrwt beam="2">  1       -4 0.20440726E-02 0.12509759E+03</pdfrwt>
<totfact> 0.89565907E+02</totfact>
</mgrwt>
</event>
<event>
 5    1  0.1451195E-002  0.1250198E+03  0.7818608E-02  0.1235038E+00
          4   -1    0    0  501    0  0.00000000000E+00  0.00000000000E+00  0.16618738852E+03  0.16619224110E+03  0.12700000000E+01 0.  1.
         -4   -1    0    0    0  501 -0.00000000000E+00 -0.00000000000E+00 -0.23490176988E+02  0.23524483308E+02  0.12700000000E+01 0.  1.
         25    2    1    2    0    0  0.00000000000E+00  0.00000000000E+00  0.14269721153E+03  0.18971672441E+03  0.12501976381E+03 0.  0.
    9000005    1    3    3    0    0  0.17641615775E+01 -0.62444727674E+02  0.68302615211E+02  0.92567291875E+02  0.10000000000E+01 0.  0.
    9000005    1    3    3    0    0 -0.17641615775E+01  0.62444727674E+02  0.74394596319E+02  0.97149432535E+02  0.10000000000E+01 0.  0.
<mgrwt>
<rscale>  0 0.12501976E+03</rscale>
<asrwt>0</asrwt>
<pdfrwt beam="1">  1        4 0.41551741E-01 0.12501976E+03</pdfrwt>
<pdfrwt beam="2">  1       -4 0.58774392E-02 0.12501976E+03</pdfrwt>
<totfact> 0.16734595E+03</totfact>
</mgrwt>
</event>
<event>
 5    1  0.1451195E-002  0.1249981E+03  0.7818608E-02  0.1235072E+00
         -4   -1    0    0    0  501 -0.00000000000E+00  0.00000000000E+00  0.46420476627E+02  0.46437846099E+02  0.12700000000E+01 0. -1.
          4   -1    0    0  501    0  0.00000000000E+00 -0.00000000000E+00 -0.84108856159E+02  0.84118443782E+02  0.12700000000E+01 0. -1.
         25    2    1    2    0    0  0.00000000000E+00  0.00000000000E+00 -0.37688379531E+02  0.13055628988E+03  0.12499812349E+03 0.  0.
    9000005    1    3    3    0    0 -0.22985667031E+02 -0.56333227812E+02 -0.39496770886E+01  0.60978466639E+02  0.10000000000E+01 0.  0.
    9000005    1    3    3    0    0  0.22985667031E+02  0.56333227812E+02 -0.33738702443E+02  0.69577823242E+02  0.10000000000E+01 0.  0.
<mgrwt>
<rscale>  0 0.12499812E+03</rscale>
<asrwt>0</asrwt>
<pdfrwt beam="2">  1        4 0.21030583E-01 0.12499812E+03</pdfrwt>
<pdfrwt beam="1">  1       -4 0.11608489E-01 0.12499812E+03</pdfrwt>
<totfact> 0.19535379E+03</totfact>
</mgrwt>
</event>
<event>
 5    1  0.1451195E-002  0.1250008E+03  0.7818608E-02  0.1235068E+00
         -4   -1    0    0    0  501 -0.00000000000E+00  0.00000000000E+00  0.45545300303E+01  0.47282812730E+01  0.12700000000E+01 0. -1.
          4   -1    0    0  501    0  0.00000000000E+00 -0.00000000000E+00 -0.84144642593E+03  0.84144738434E+03  0.12700000000E+01 0. -1.
         25    2    1    2    0    0  0.00000000000E+00  0.00000000000E+00 -0.83689189590E+03  0.84617566561E+03  0.12500084660E+03 0.  0.
    9000005    1    3    3    0    0  0.12637466565E+02  0.59873534763E+02 -0.33261720030E+03  0.33820075053E+03  0.10000000000E+01 0.  0.
    9000005    1    3    3    0    0 -0.12637466565E+02 -0.59873534763E+02 -0.50427469560E+03  0.50797491508E+03  0.10000000000E+01 0.  0.
<mgrwt>
<rscale>  0 0.12500085E+03</rscale>
<asrwt>0</asrwt>
<pdfrwt beam="2">  1        4 0.21038292E+00 0.12500085E+03</pdfrwt>
<pdfrwt beam="1">  1       -4 0.11604741E-02 0.12500085E+03</pdfrwt>
<totfact> 0.48544685E+02</totfact>
</mgrwt>
</event>
<event>
 5    1  0.1451195E-002  0.1249992E+03  0.7818608E-02  0.1235070E+00
         -4   -1    0    0    0  501 -0.00000000000E+00  0.00000000000E+00  0.10087850422E+03  0.10088649817E+03  0.12700000000E+01 0. -1.
          4   -1    0    0  501    0  0.00000000000E+00 -0.00000000000E+00 -0.38701900118E+02  0.38722731989E+02  0.12700000000E+01 0. -1.
         25    2    1    2    0    0  0.00000000000E+00  0.00000000000E+00  0.62176604100E+02  0.13960923016E+03  0.12499922819E+03 0.  0.
    9000005    1    3    3    0    0  0.60602176524E+02 -0.91154350801E+00  0.48090846118E+02  0.77376897013E+02  0.10000000000E+01 0.  0.
    9000005    1    3    3    0    0 -0.60602176524E+02  0.91154350801E+00  0.14085757982E+02  0.62232333147E+02  0.10000000000E+01 0.  0.
<mgrwt>
<rscale>  0 0.12499923E+03</rscale>
<asrwt>0</asrwt>
<pdfrwt beam="2">  1        4 0.96790783E-02 0.12499923E+03</pdfrwt>
<pdfrwt beam="1">  1       -4 0.25223229E-01 0.12499923E+03</pdfrwt>
<totfact> 0.19060694E+03</totfact>
</mgrwt>
</event>
<event>
 5    1  0.1451195E-002  0.1249991E+03  0.7818608E-02  0.1235071E+00
         -4   -1    0    0    0  501 -0.00000000000E+00  0.00000000000E+00  0.14948513545E+02  0.15002365054E+02  0.12700000000E+01 0.  1.
          4   -1    0    0  501    0  0.00000000000E+00 -0.00000000000E+00 -0.26078469844E+03  0.26078779082E+03  0.12700000000E+01 0.  1.
         25    2    1    2    0    0  0.00000000000E+00  0.00000000000E+00 -0.24583618489E+03  0.27579015587E+03  0.12499912109E+03 0.  0.
    9000005    1    3    3    0    0 -0.61389809485E+02  0.94037742410E+01 -0.10762332591E+03  0.12426149829E+03  0.10000000000E+01 0.  0.
    9000005    1    3    3    0    0  0.61389809485E+02 -0.94037742410E+01 -0.13821285898E+03  0.15152865757E+03  0.10000000000E+01 0.  0.
<mgrwt>
<rscale>  0 0.12499912E+03</rscale>
<asrwt>0</asrwt>
<pdfrwt beam="2">  1        4 0.65203278E-01 0.12499912E+03</pdfrwt>
<pdfrwt beam="1">  1       -4 0.37442472E-02 0.12499912E+03</pdfrwt>
<totfact> 0.13678057E+03</totfact>
</mgrwt>
</event>
<event>
 5    1  0.1451195E-002  0.1250118E+03  0.7818608E-02  0.1235051E+00
          4   -1    0    0  501    0  0.00000000000E+00  0.00000000000E+00  0.32366431300E+03  0.32366680462E+03  0.12700000000E+01 0. -1.
         -4   -1    0    0    0  501 -0.00000000000E+00 -0.00000000000E+00 -0.12035157320E+02  0.12101979661E+02  0.12700000000E+01 0. -1.
         25    2    1    2    0    0  0.00000000000E+00  0.00000000000E+00  0.31162915568E+03  0.33576878428E+03  0.12501178274E+03 0.  0.
    9000005    1    3    3    0    0 -0.73289798987E+01 -0.58820025724E+02  0.10260417810E+03  0.11849947989E+03  0.10000000000E+01 0.  0.
    9000005    1    3    3    0    0  0.73289798987E+01  0.58820025724E+02  0.20902497759E+03  0.21726930438E+03  0.10000000000E+01 0.  0.
<mgrwt>
<rscale>  0 0.12501178E+03</rscale>
<asrwt>0</asrwt>
<pdfrwt beam="1">  1        4 0.80924740E-01 0.12501178E+03</pdfrwt>
<pdfrwt beam="2">  1       -4 0.30174537E-02 0.12501178E+03</pdfrwt>
<totfact> 0.12021409E+03</totfact>
</mgrwt>
</event>
<event>
 5    1  0.1451195E-002  0.1249816E+03  0.7818608E-02  0.1235098E+00
         -4   -1    0    0    0  501 -0.00000000000E+00  0.00000000000E+00  0.19920377076E+03  0.19920781909E+03  0.12700000000E+01 0. -1.
          4   -1    0    0  501    0  0.00000000000E+00 -0.00000000000E+00 -0.19578723921E+02  0.19619870804E+02  0.12700000000E+01 0. -1.
         25    2    1    2    0    0  0.00000000000E+00  0.00000000000E+00  0.17962504684E+03  0.21882768989E+03  0.12498160029E+03 0.  0.
    9000005    1    3    3    0    0 -0.16907189881E+02  0.60116418405E+02  0.93427684685E+02  0.11238135565E+03  0.10000000000E+01 0.  0.
    9000005    1    3    3    0    0  0.16907189881E+02 -0.60116418405E+02  0.86197362156E+02  0.10644633425E+03  0.10000000000E+01 0.  0.
<mgrwt>
<rscale>  0 0.12498160E+03</rscale>
<asrwt>0</asrwt>
<pdfrwt beam="2">  1        4 0.49003303E-02 0.12498160E+03</pdfrwt>
<pdfrwt beam="1">  1       -4 0.49806593E-01 0.12498160E+03</pdfrwt>
<totfact> 0.15601537E+03</totfact>
</mgrwt>
</event>
<event>
 5    1  0.1451195E-002  0.1249977E+03  0.7818608E-02  0.1235073E+00
          4   -1    0    0  501    0  0.00000000000E+00  0.00000000000E+00  0.37858099170E+03  0.37858312188E+03  0.12700000000E+01 0.  1.
         -4   -1    0    0    0  501 -0.00000000000E+00 -0.00000000000E+00 -0.10276506262E+02  0.10354684010E+02  0.12700000000E+01 0.  1.
         25    2    1    2    0    0  0.00000000000E+00  0.00000000000E+00  0.36830448544E+03  0.38893780589E+03  0.12499769142E+03 0.  0.
    9000005    1    3    3    0    0  0.11256156026E+01  0.57461322871E+02  0.10780575431E+03  0.12217262909E+03  0.10000000000E+01 0.  0.
    9000005    1    3    3    0    0 -0.11256156026E+01 -0.57461322871E+02  0.26049873112E+03  0.26676517680E+03  0.10000000000E+01 0.  0.
<mgrwt>
<rscale>  0 0.12499769E+03</rscale>
<asrwt>0</asrwt>
<pdfrwt beam="1">  1        4 0.94655285E-01 0.12499769E+03</pdfrwt>
<pdfrwt beam="2">  1       -4 0.25791651E-02 0.12499769E+03</pdfrwt>
<totfact> 0.10801234E+03</totfact>
</mgrwt>
</event>
<event>
 5    1  0.1451195E-002  0.1250021E+03  0.7818608E-02  0.1235066E+00
         -4   -1    0    0    0  501 -0.00000000000E+00  0.00000000000E+00  0.11328725770E+03  0.11329437611E+03  0.12700000000E+01 0. -1.
          4   -1    0    0  501    0  0.00000000000E+00 -0.00000000000E+00 -0.34462217328E+02  0.34485610378E+02  0.12700000000E+01 0. -1.
         25    2    1    2    0    0  0.00000000000E+00  0.00000000000E+00  0.78825040377E+02  0.14777998649E+03  0.12500214965E+03 0.  0.
    9000005    1    3    3    0    0 -0.43258794842E+02  0.43761510878E+02  0.52308535566E+02  0.80768657649E+02  0.10000000000E+01 0.  0.
    9000005    1    3    3    0    0  0.43258794842E+02 -0.43761510878E+02  0.26516504811E+02  0.67011328840E+02  0.10000000000E+01 0.  0.
<mgrwt>
<rscale>  0 0.12500215E+03</rscale>
<asrwt>0</asrwt>
<pdfrwt beam="2">  1        4 0.86193683E-02 0.12500215E+03</pdfrwt>
<pdfrwt beam="1">  1       -4 0.28325628E-01 0.12500215E+03</pdfrwt>
<totfact> 0.18647547E+03</totfact>
</mgrwt>
</event>
<event>
 5    1  0.1451195E-002  0.1249973E+03  0.7818608E-02  0.1235073E+00
         -4   -1    0    0    0  501 -0.00000000000E+00  0.00000000000E+00  0.39247399845E+01  0.41251041133E+01  0.12700000000E+01 0. -1.
          4   -1    0    0  501    0  0.00000000000E+00 -0.00000000000E+00 -0.97027310546E+03  0.97027393662E+03  0.12700000000E+01 0. -1.
         25    2    1    2    0    0  0.00000000000E+00  0.00000000000E+00 -0.96634836548E+03  0.97439904073E+03  0.12499730845E+03 0.  0.
    9000005    1    3    3    0    0 -0.11840275509E+02 -0.55408362562E+02 -0.68865298856E+03  0.69098062015E+03  0.10000000000E+01 0.  0.
    9000005    1    3    3    0    0  0.11840275509E+02  0.55408362562E+02 -0.27769537692E+03  0.28341842058E+03  0.10000000000E+01 0.  0.
<mgrwt>
<rscale>  0 0.12499731E+03</rscale>
<asrwt>0</asrwt>
<pdfrwt beam="2">  1        4 0.24259263E+00 0.12499731E+03</pdfrwt>
<pdfrwt beam="1">  1       -4 0.10063377E-02 0.12499731E+03</pdfrwt>
<totfact> 0.38860215E+02</totfact>
</mgrwt>
</event>
<event>
 5    1  0.1451195E-002  0.1250050E+03  0.7818608E-02  0.1235061E+00
          4   -1    0    0  501    0  0.00000000000E+00  0.00000000000E+00  0.36185796755E+02  0.36208076265E+02  0.12700000000E+01 0.  1.
         -4   -1    0    0    0  501 -0.00000000000E+00 -0.00000000000E+00 -0.10789924302E+03  0.10790671686E+03  0.12700000000E+01 0.  1.
         25    2    1    2    0    0  0.00000000000E+00  0.00000000000E+00 -0.71713446263E+02  0.14411479313E+03  0.12500502079E+03 0.  0.
    9000005    1    3    3    0    0  0.32074518231E+02  0.52961146460E+02 -0.26080663837E+02  0.67192698862E+02  0.10000000000E+01 0.  0.
    9000005    1    3    3    0    0 -0.32074518231E+02 -0.52961146460E+02 -0.45632782426E+02  0.76922094264E+02  0.10000000000E+01 0.  0.
<mgrwt>
<rscale>  0 0.12500502E+03</rscale>
<asrwt>0</asrwt>
<pdfrwt beam="1">  1        4 0.90501686E-02 0.12500502E+03</pdfrwt>
<pdfrwt beam="2">  1       -4 0.26978529E-01 0.12500502E+03</pdfrwt>
<totfact> 0.18829574E+03</totfact>
</mgrwt>
</event>
<event>
 5    1  0.1451195E-002  0.1249989E+03  0.7818608E-02  0.1235071E+00
          4   -1    0    0  501    0  0.00000000000E+00  0.00000000000E+00  0.49991095593E+03  0.49991256912E+03  0.12700000000E+01 0. -1.
         -4   -1    0    0    0  501 -0.00000000000E+00 -0.00000000000E+00 -0.77605189857E+01  0.78637494191E+01  0.12700000000E+01 0. -1.
         25    2    1    2    0    0  0.00000000000E+00  0.00000000000E+00  0.49215043695E+03  0.50777631853E+03  0.12499894831E+03 0.  0.
    9000005    1    3    3    0    0 -0.52055365785E+02  0.81464594547E+01  0.10957784987E+03  0.12159124595E+03  0.10000000000E+01 0.  0.
    9000005    1    3    3    0    0  0.52055365785E+02 -0.81464594547E+01  0.38257258708E+03  0.38618507259E+03  0.10000000000E+01 0.  0.
<mgrwt>
<rscale>  0 0.12499895E+03</rscale>
<asrwt>0</asrwt>
<pdfrwt beam="1">  1        4 0.12499083E+00 0.12499895E+03</pdfrwt>
<pdfrwt beam="2">  1       -4 0.19532355E-02 0.12499895E+03</pdfrwt>
<totfact> 0.86385258E+02</totfact>
</mgrwt>
</event>
<event>
 5    1  0.1451195E-002  0.1250005E+03  0.7818608E-02  0.1235069E+00
          4   -1    0    0  501    0  0.00000000000E+00  0.00000000000E+00  0.34452500377E+02  0.34475900021E+02  0.12700000000E+01 0.  1.
         -4   -1    0    0    0  501 -0.00000000000E+00 -0.00000000000E+00 -0.11331616598E+03  0.11332328257E+03  0.12700000000E+01 0.  1.
         25    2    1    2    0    0  0.00000000000E+00  0.00000000000E+00 -0.78863665605E+02  0.14779918259E+03  0.12500048249E+03 0.  0.
    9000005    1    3    3    0    0  0.47467813250E+02 -0.20099953297E+02 -0.81203454411E+02  0.96188369493E+02  0.10000000000E+01 0.  0.
    9000005    1    3    3    0    0 -0.47467813250E+02  0.20099953297E+02  0.23397888061E+01  0.51610813101E+02  0.10000000000E+01 0.  0.
<mgrwt>
<rscale>  0 0.12500048E+03</rscale>
<asrwt>0</asrwt>
<pdfrwt beam="1">  1        4 0.86169399E-02 0.12500048E+03</pdfrwt>
<pdfrwt beam="2">  1       -4 0.28332855E-01 0.12500048E+03</pdfrwt>
<totfact> 0.18647318E+03</totfact>
</mgrwt>
</event>
<event>
 5    1  0.1451195E-002  0.1249987E+03  0.7818608E-02  0.1235071E+00
         -4   -1    0    0    0  501 -0.00000000000E+00  0.00000000000E+00  0.30958947323E+02  0.30984985385E+02  0.12700000000E+01 0.  1.
          4   -1    0    0  501    0  0.00000000000E+00 -0.00000000000E+00 -0.12609027962E+03  0.12609667527E+03  0.12700000000E+01 0.  1.
         25    2    1    2    0    0  0.00000000000E+00  0.00000000000E+00 -0.95131332300E+02  0.15708166066E+03  0.12499871091E+03 0.  0.
    9000005    1    3    3    0    0 -0.48446993627E+02  0.36727324538E+02 -0.65740113393E+02  0.89547585496E+02  0.10000000000E+01 0.  0.
    9000005    1    3    3    0    0  0.48446993627E+02 -0.36727324538E+02 -0.29391218907E+02  0.67534075163E+02  0.10000000000E+01 0.  0.
<mgrwt>
<rscale>  0 0.12499871E+03</rscale>
<asrwt>0</asrwt>
<pdfrwt beam="2">  1        4 0.31526623E-01 0.12499871E+03</pdfrwt>
<pdfrwt beam="1">  1       -4 0.77437914E-02 0.12499871E+03</pdfrwt>
<totfact> 0.18196512E+03</totfact>
</mgrwt>
</event>
<event>
 5    1  0.1451195E-002  0.1249958E+03  0.7818608E-02  0.1235076E+00
         -4   -1    0    0    0  501 -0.00000000000E+00  0.00000000000E+00  0.18047510387E+03  0.18047957230E+03  0.12700000000E+01 0.  1.
          4   -1    0    0  501    0  0.00000000000E+00 -0.00000000000E+00 -0.21619425824E+02  0.21656695800E+02  0.12700000000E+01 0.  1.
         25    2    1    2    0    0  0.00000000000E+00  0.00000000000E+00  0.15885567805E+03  0.20213626810E+03  0.12499577766E+03 0.  0.
    9000005    1    3    3    0    0 -0.47542059658E+02 -0.20512427991E+02  0.13600431314E+03  0.14553068519E+03  0.10000000000E+01 0.  0.
    9000005    1    3    3    0    0  0.47542059658E+02  0.20512427991E+02  0.22851364907E+02  0.56605582911E+02  0.10000000000E+01 0.  0.
<mgrwt>
<rscale>  0 0.12499578E+03</rscale>
<asrwt>0</asrwt>
<pdfrwt beam="2">  1        4 0.54100738E-02 0.12499578E+03</pdfrwt>
<pdfrwt beam="1">  1       -4 0.45123993E-01 0.12499578E+03</pdfrwt>
<totfact> 0.16238443E+03</totfact>
</mgrwt>
</event>
<event>
 5    1  0.1451195E-002  0.1250005E+03  0.7818608E-02  0.1235069E+00
         -4   -1    0    0    0  501 -0.00000000000E+00  0.00000000000E+00  0.80141982738E+02  0.80152044872E+02  0.12700000000E+01 0. -1.
          4   -1    0    0  501    0  0.00000000000E+00 -0.00000000000E+00 -0.48720579353E+02  0.48737129096E+02  0.12700000000E+01 0. -1.
         25    2    1    2    0    0  0.00000000000E+00  0.00000000000E+00  0.31421403385E+02  0.12888917397E+03  0.12500045830E+03 0.  0.
    9000005    1    3    3    0    0 -0.54318236017E+01 -0.37537715611E+02  0.66921607776E+02  0.76929099750E+02  0.10000000000E+01 0.  0.
    9000005    1    3    3    0    0  0.54318236017E+01  0.37537715611E+02 -0.35500204391E+02  0.51960074218E+02  0.10000000000E+01 0.  0.
<mgrwt>
<rscale>  0 0.12500046E+03</rscale>
<asrwt>0</asrwt>
<pdfrwt beam="2">  1        4 0.12183471E-01 0.12500046E+03</pdfrwt>
<pdfrwt beam="1">  1       -4 0.20038822E-01 0.12500046E+03</pdfrwt>
<totfact> 0.19624080E+03</totfact>
</mgrwt>
</event>
<event>
 5    1  0.1451195E-002  0.1250001E+03  0.7818608E-02  0.1235069E+00
         -4   -1    0    0    0  501 -0.00000000000E+00  0.00000000000E+00  0.51080002347E+02  0.51095787886E+02  0.12700000000E+01 0.  1.
          4   -1    0    0  501    0  0.00000000000E+00 -0.00000000000E+00 -0.76440434348E+02  0.76450983664E+02  0.12700000000E+01 0.  1.
         25    2    1    2    0    0  0.00000000000E+00  0.00000000000E+00 -0.25360432001E+02  0.12754677155E+03  0.12500010969E+03 0.  0.
    9000005    1    3    3    0    0  0.46291744495E+02  0.36822406172E+02 -0.33251347457E+02  0.67863593424E+02  0.10000000000E+01 0.  0.
    9000005    1    3    3    0    0 -0.46291744495E+02 -0.36822406172E+02  0.78909154558E+01  0.59683178127E+02  0.10000000000E+01 0.  0.
<mgrwt>
<rscale>  0 0.12500011E+03</rscale>
<asrwt>0</asrwt>
<pdfrwt beam="2">  1        4 0.19113400E-01 0.12500011E+03</pdfrwt>
<pdfrwt beam="1">  1       -4 0.12773293E-01 0.12500011E+03</pdfrwt>
<totfact> 0.19697181E+03</totfact>
</mgrwt>
</event>
<event>
 5    1  0.1451195E-002  0.1249953E+03  0.7818608E-02  0.1235077E+00
         -4   -1    0    0    0  501 -0.00000000000E+00  0.00000000000E+00  0.12629994470E+02  0.12693685844E+02  0.12700000000E+01 0. -1.
          4   -1    0    0  501    0  0.00000000000E+00 -0.00000000000E+00 -0.30841763282E+03  0.30842024761E+03  0.12700000000E+01 0. -1.
         25    2    1    2    0    0  0.00000000000E+00  0.00000000000E+00 -0.29578763835E+03  0.32111393345E+03  0.12499532494E+03 0.  0.
    9000005    1    3    3    0    0 -0.59512829206E+02  0.19057307560E+02 -0.14788977246E+03  0.16055323918E+03  0.10000000000E+01 0.  0.
    9000005    1    3    3    0    0  0.59512829206E+02 -0.19057307560E+02 -0.14789786589E+03  0.16056069427E+03  0.10000000000E+01 0.  0.
<mgrwt>
<rscale>  0 0.12499532E+03</rscale>
<asrwt>0</asrwt>
<pdfrwt beam="2">  1        4 0.77112672E-01 0.12499532E+03</pdfrwt>
<pdfrwt beam="1">  1       -4 0.31657879E-02 0.12499532E+03</pdfrwt>
<totfact> 0.12400600E+03</totfact>
</mgrwt>
</event>
<event>
 5    1  0.1451195E-002  0.1250035E+03  0.7818608E-02  0.1235064E+00
         -4   -1    0    0    0  501 -0.00000000000E+00  0.00000000000E+00  0.51397530672E+02  0.51413218720E+02  0.12700000000E+01 0.  1.
          4   -1    0    0  501    0  0.00000000000E+00 -0.00000000000E+00 -0.75972363286E+02  0.75982977589E+02  0.12700000000E+01 0.  1.
         25    2    1    2    0    0  0.00000000000E+00  0.00000000000E+00 -0.24574832614E+02  0.12739619631E+03  0.12500347370E+03 0.  0.
    9000005    1    3    3    0    0  0.87467506552E+01  0.60851332564E+02 -0.84409884678E+00  0.61490672664E+02  0.10000000000E+01 0.  0.
    9000005    1    3    3    0    0 -0.87467506552E+01 -0.60851332564E+02 -0.23730733767E+02  0.65905523645E+02  0.10000000000E+01 0.  0.
<mgrwt>
<rscale>  0 0.12500347E+03</rscale>
<asrwt>0</asrwt>
<pdfrwt beam="2">  1        4 0.18996378E-01 0.12500347E+03</pdfrwt>
<pdfrwt beam="1">  1       -4 0.12852671E-01 0.12500347E+03</pdfrwt>
<totfact> 0.19703856E+03</totfact>
</mgrwt>
</event>
<event>
 5    1  0.1451195E-002  0.1249980E+03  0.7818608E-02  0.1235072E+00
         -4   -1    0    0    0  501 -0.00000000000E+00  0.00000000000E+00  0.61394698066E+02  0.61407832160E+02  0.12700000000E+01 0. -1.
          4   -1    0    0  501    0  0.00000000000E+00 -0.00000000000E+00 -0.63596881748E+02  0.63609561137E+02  0.12700000000E+01 0. -1.
         25    2    1    2    0    0  0.00000000000E+00  0.00000000000E+00 -0.22021836819E+01  0.12501739330E+03  0.12499799604E+03 0.  0.
    9000005    1    3    3    0    0  0.19062923876E+02  0.27456969827E+02 -0.53909327944E+02  0.63438914699E+02  0.10000000000E+01 0.  0.
    9000005    1    3    3    0    0 -0.19062923876E+02 -0.27456969827E+02  0.51707144262E+02  0.61578478598E+02  0.10000000000E+01 0.  0.
<mgrwt>
<rscale>  0 0.12499800E+03</rscale>
<asrwt>0</asrwt>
<pdfrwt beam="2">  1        4 0.15902447E-01 0.12499800E+03</pdfrwt>
<pdfrwt beam="1">  1       -4 0.15351901E-01 0.12499800E+03</pdfrwt>
<totfact> 0.19835042E+03</totfact>
</mgrwt>
</event>
<event>
 5    1  0.1451195E-002  0.1250041E+03  0.7818608E-02  0.1235063E+00
         -4   -1    0    0    0  501 -0.00000000000E+00  0.00000000000E+00  0.22009432280E+03  0.22009798688E+03  0.12700000000E+01 0.  1.
          4   -1    0    0  501    0  0.00000000000E+00 -0.00000000000E+00 -0.17722698188E+02  0.17768143715E+02  0.12700000000E+01 0.  1.
         25    2    1    2    0    0  0.00000000000E+00  0.00000000000E+00  0.20237162461E+03  0.23786613059E+03  0.12500408648E+03 0.  0.
    9000005    1    3    3    0    0 -0.10631850323E+02  0.44721860046E+02  0.18174754922E+03  0.18747333852E+03  0.10000000000E+01 0.  0.
    9000005    1    3    3    0    0  0.10631850323E+02 -0.44721860046E+02  0.20624075385E+02  0.50392792072E+02  0.10000000000E+01 0.  0.
<mgrwt>
<rscale>  0 0.12500409E+03</rscale>
<asrwt>0</asrwt>
<pdfrwt beam="2">  1        4 0.44368133E-02 0.12500409E+03</pdfrwt>
<pdfrwt beam="1">  1       -4 0.55029719E-01 0.12500409E+03</pdfrwt>
<totfact> 0.14908848E+03</totfact>
</mgrwt>
</event>
<event>
 5    1  0.1451195E-002  0.1249974E+03  0.7818608E-02  0.1235073E+00
          4   -1    0    0  501    0  0.00000000000E+00  0.00000000000E+00  0.25490953776E+03  0.25491270141E+03  0.12700000000E+01 0.  1.
         -4   -1    0    0    0  501 -0.00000000000E+00 -0.00000000000E+00 -0.15293847511E+02  0.15346487275E+02  0.12700000000E+01 0.  1.
         25    2    1    2    0    0  0.00000000000E+00  0.00000000000E+00  0.23961569025E+03  0.27025918868E+03  0.12499740020E+03 0.  0.
    9000005    1    3    3    0    0  0.58236415142E+02 -0.21127252501E+02  0.10207759466E+03  0.11940969885E+03  0.10000000000E+01 0.  0.
    9000005    1    3    3    0    0 -0.58236415142E+02  0.21127252501E+02  0.13753809559E+03  0.15084948984E+03  0.10000000000E+01 0.  0.
<mgrwt>
<rscale>  0 0.12499740E+03</rscale>
<asrwt>0</asrwt>
<pdfrwt beam="1">  1        4 0.63734360E-01 0.12499740E+03</pdfrwt>
<pdfrwt beam="2">  1       -4 0.38304373E-02 0.12499740E+03</pdfrwt>
<totfact> 0.13848366E+03</totfact>
</mgrwt>
</event>
<event>
 5    1  0.1451195E-002  0.1250024E+03  0.7818608E-02  0.1235066E+00
          4   -1    0    0  501    0  0.00000000000E+00  0.00000000000E+00  0.47487234785E+02  0.47504214208E+02  0.12700000000E+01 0. -1.
         -4   -1    0    0    0  501 -0.00000000000E+00 -0.00000000000E+00 -0.82225511138E+02  0.82235318336E+02  0.12700000000E+01 0. -1.
         25    2    1    2    0    0  0.00000000000E+00  0.00000000000E+00 -0.34738276353E+02  0.12973953254E+03  0.12500239382E+03 0.  0.
    9000005    1    3    3    0    0 -0.44493261732E+02 -0.43882948801E+02 -0.17171992089E+02  0.64816979622E+02  0.10000000000E+01 0.  0.
    9000005    1    3    3    0    0  0.44493261732E+02  0.43882948801E+02 -0.17566284264E+02  0.64922552922E+02  0.10000000000E+01 0.  0.
<mgrwt>
<rscale>  0 0.12500239E+03</rscale>
<asrwt>0</asrwt>
<pdfrwt beam="1">  1        4 0.11875157E-01 0.12500239E+03</pdfrwt>
<pdfrwt beam="2">  1       -4 0.20559726E-01 0.12500239E+03</pdfrwt>
<totfact> 0.19577301E+03</totfact>
</mgrwt>
</event>
<event>
 5    1  0.1451195E-002  0.1249950E+03  0.7818608E-02  0.1235077E+00
         -4   -1    0    0    0  501 -0.00000000000E+00  0.00000000000E+00  0.65431018656E+02  0.65443342690E+02  0.12700000000E+01 0.  1.
          4   -1    0    0  501    0  0.00000000000E+00 -0.00000000000E+00 -0.59670782047E+02  0.59684295507E+02  0.12700000000E+01 0.  1.
         25    2    1    2    0    0  0.00000000000E+00  0.00000000000E+00  0.57602366090E+01  0.12512763820E+03  0.12499498196E+03 0.  0.
    9000005    1    3    3    0    0 -0.32251827103E+02 -0.23397103952E+02 -0.45309640952E+02  0.60345409006E+02  0.10000000000E+01 0.  0.
    9000005    1    3    3    0    0  0.32251827103E+02  0.23397103952E+02  0.51069877561E+02  0.64782229191E+02  0.10000000000E+01 0.  0.
<mgrwt>
<rscale>  0 0.12499498E+03</rscale>
<asrwt>0</asrwt>
<pdfrwt beam="2">  1        4 0.14920925E-01 0.12499498E+03</pdfrwt>
<pdfrwt beam="1">  1       -4 0.16360984E-01 0.12499498E+03</pdfrwt>
<totfact> 0.19830463E+03</totfact>
</mgrwt>
</event>
<event>
 5    1  0.1451195E-002  0.1249995E+03  0.7818608E-02  0.1235070E+00
          4   -1    0    0  501    0  0.00000000000E+00  0.00000000000E+00  0.23150513774E+03  0.23150862122E+03  0.12700000000E+01 0.  1.
         -4   -1    0    0    0  501 -0.00000000000E+00 -0.00000000000E+00 -0.16845634452E+02  0.16893439558E+02  0.12700000000E+01 0.  1.
         25    2    1    2    0    0  0.00000000000E+00  0.00000000000E+00  0.21465950329E+03  0.24840206078E+03  0.12499952579E+03 0.  0.
    9000005    1    3    3    0    0  0.61568508621E+02 -0.10419599617E+02  0.10247382345E+03  0.12000472408E+03  0.10000000000E+01 0.  0.
    9000005    1    3    3    0    0 -0.61568508621E+02  0.10419599617E+02  0.11218567984E+03  0.12839733670E+03  0.10000000000E+01 0.  0.
<mgrwt>
<rscale>  0 0.12499953E+03</rscale>
<asrwt>0</asrwt>
<pdfrwt beam="1">  1        4 0.57882695E-01 0.12499953E+03</pdfrwt>
<pdfrwt beam="2">  1       -4 0.42178197E-02 0.12499953E+03</pdfrwt>
<totfact> 0.14551455E+03</totfact>
</mgrwt>
</event>
<event>
 5    1  0.1451195E-002  0.1250009E+03  0.7818608E-02  0.1235068E+00
         -4   -1    0    0    0  501 -0.00000000000E+00  0.00000000000E+00  0.43066695035E+02  0.43085416573E+02  0.12700000000E+01 0. -1.
          4   -1    0    0  501    0  0.00000000000E+00 -0.00000000000E+00 -0.90660713829E+02  0.90669608646E+02  0.12700000000E+01 0. -1.
         25    2    1    2    0    0  0.00000000000E+00  0.00000000000E+00 -0.47594018794E+02  0.13375502522E+03  0.12500086458E+03 0.  0.
    9000005    1    3    3    0    0  0.53709375289E+02 -0.29670515807E+02 -0.36469899600E+02  0.71386904114E+02  0.10000000000E+01 0.  0.
    9000005    1    3    3    0    0 -0.53709375289E+02  0.29670515807E+02 -0.11124119194E+02  0.62368121104E+02  0.10000000000E+01 0.  0.
<mgrwt>
<rscale>  0 0.12500086E+03</rscale>
<asrwt>0</asrwt>
<pdfrwt beam="2">  1        4 0.22668630E-01 0.12500086E+03</pdfrwt>
<pdfrwt beam="1">  1       -4 0.10770126E-01 0.12500086E+03</pdfrwt>
<totfact> 0.19364157E+03</totfact>
</mgrwt>
</event>
<event>
 5    1  0.1451195E-002  0.1249994E+03  0.7818608E-02  0.1235070E+00
          4   -1    0    0  501    0  0.00000000000E+00  0.00000000000E+00  0.86782133720E+01  0.87706491966E+01  0.12700000000E+01 0.  1.
         -4   -1    0    0    0  501 -0.00000000000E+00 -0.00000000000E+00 -0.44763926213E+03  0.44764106369E+03  0.12700000000E+01 0.  1.
         25    2    1    2    0    0  0.00000000000E+00  0.00000000000E+00 -0.43896104876E+03  0.45641171289E+03  0.12499939733E+03 0.  0.
    9000005    1    3    3    0    0 -0.24290599823E+02  0.34830657754E+02 -0.52076586513E+02  0.67202520951E+02  0.10000000000E+01 0.  0.
    9000005    1    3    3    0    0  0.24290599823E+02 -0.34830657754E+02 -0.38688446225E+03  0.38920919194E+03  0.10000000000E+01 0.  0.
<mgrwt>
<rscale>  0 0.12499940E+03</rscale>
<asrwt>0</asrwt>
<pdfrwt beam="1">  1        4 0.21813345E-02 0.12499940E+03</pdfrwt>
<pdfrwt beam="2">  1       -4 0.11192152E+00 0.12499940E+03</pdfrwt>
<totfact> 0.94878475E+02</totfact>
</mgrwt>
</event>
<event>
 5    1  0.1451195E-002  0.1250007E+03  0.7818608E-02  0.1235068E+00
          4   -1    0    0  501    0  0.00000000000E+00  0.00000000000E+00  0.10413831498E+04  0.10413839242E+04  0.12700000000E+01 0.  1.
         -4   -1    0    0    0  501 -0.00000000000E+00 -0.00000000000E+00 -0.36427692180E+01  0.38578060573E+01  0.12700000000E+01 0.  1.
         25    2    1    2    0    0  0.00000000000E+00  0.00000000000E+00  0.10377403806E+04  0.10452417303E+04  0.12500070874E+03 0.  0.
    9000005    1    3    3    0    0  0.49565413854E+02 -0.21510559107E+02  0.78142009454E+03  0.78328653668E+03  0.10000000000E+01 0.  0.
    9000005    1    3    3    0    0 -0.49565413854E+02  0.21510559107E+02  0.25632028608E+03  0.26195519361E+03  0.10000000000E+01 0.  0.
<mgrwt>
<rscale>  0 0.12500071E+03</rscale>
<asrwt>0</asrwt>
<pdfrwt beam="1">  1        4 0.26037266E+00 0.12500071E+03</pdfrwt>
<pdfrwt beam="2">  1       -4 0.93766907E-03 0.12500071E+03</pdfrwt>
<totfact> 0.34149230E+02</totfact>
</mgrwt>
</event>
<event>
 5    1  0.1451195E-002  0.1249986E+03  0.7818608E-02  0.1235071E+00
          4   -1    0    0  501    0  0.00000000000E+00  0.00000000000E+00  0.64760467438E+03  0.64760591966E+03  0.12700000000E+01 0.  1.
         -4   -1    0    0    0  501 -0.00000000000E+00 -0.00000000000E+00 -0.59635910019E+01  0.60973205294E+01  0.12700000000E+01 0.  1.
         25    2    1    2    0    0  0.00000000000E+00  0.00000000000E+00  0.64164108338E+03  0.65370324019E+03  0.12499858542E+03 0.  0.
    9000005    1    3    3    0    0 -0.17298801123E+02  0.32051951597E+02  0.58638277041E+03  0.58751368456E+03  0.10000000000E+01 0.  0.
    9000005    1    3    3    0    0  0.17298801123E+02 -0.32051951597E+02  0.55258312977E+02  0.66189555630E+02  0.10000000000E+01 0.  0.
<mgrwt>
<rscale>  0 0.12499859E+03</rscale>
<asrwt>0</asrwt>
<pdfrwt beam="1">  1        4 0.16191801E+00 0.12499859E+03</pdfrwt>
<pdfrwt beam="2">  1       -4 0.15077699E-02 0.12499859E+03</pdfrwt>
<totfact> 0.67090922E+02</totfact>
</mgrwt>
</event>
<event>
 5    1  0.1451195E-002  0.1250014E+03  0.7818608E-02  0.1235067E+00
         -4   -1    0    0    0  501 -0.00000000000E+00  0.00000000000E+00  0.13563402431E+02  0.13622730472E+02  0.12700000000E+01 0.  1.
          4   -1    0    0  501    0  0.00000000000E+00 -0.00000000000E+00 -0.28731656610E+03  0.28731937292E+03  0.12700000000E+01 0.  1.
         25    2    1    2    0    0  0.00000000000E+00  0.00000000000E+00 -0.27375316367E+03  0.30094210339E+03  0.12500141989E+03 0.  0.
    9000005    1    3    3    0    0 -0.52772337781E+02  0.20705697044E+01 -0.21730800562E+03  0.22363581153E+03  0.10000000000E+01 0.  0.
    9000005    1    3    3    0    0  0.52772337781E+02 -0.20705697044E+01 -0.56445158051E+02  0.77306291860E+02  0.10000000000E+01 0.  0.
<mgrwt>
<rscale>  0 0.12500142E+03</rscale>
<asrwt>0</asrwt>
<pdfrwt beam="2">  1        4 0.71836889E-01 0.12500142E+03</pdfrwt>
<pdfrwt beam="1">  1       -4 0.33986184E-02 0.12500142E+03</pdfrwt>
<totfact> 0.12944274E+03</totfact>
</mgrwt>
</event>
<event>
 4    1  0.1451195E-002  0.1248127E+03  0.7818608E-02  0.1235362E+00
          4   -1    0    0  501    0  0.00000000000E+00  0.00000000000E+00  0.25482209761E+03  0.25482526235E+03  0.12700000000E+01 0.  1.
         -4   -1    0    0    0  501 -0.00000000000E+00 -0.00000000000E+00 -0.15253765244E+02  0.15306542853E+02  0.12700000000E+01 0.  1.
    9000005    1    1    2    0    0  0.35204475117E+02 -0.44228508118E+02  0.62602635760E+02  0.84354051490E+02  0.10000000000E+01 0.  0.
    9000005    1    1    2    0    0 -0.35204475117E+02  0.44228508118E+02  0.17696569661E+03  0.18577775371E+03  0.10000000000E+01 0.  0.
<mgrwt>
<rscale>  0 0.12481268E+03</rscale>
<asrwt>0</asrwt>
<pdfrwt beam="1">  1        4 0.63712517E-01 0.12481268E+03</pdfrwt>
<pdfrwt beam="2">  1       -4 0.38204341E-02 0.12481268E+03</pdfrwt>
<totfact> 0.13911233E+03</totfact>
</mgrwt>
</event>
<event>
 5    1  0.1451195E-002  0.1249989E+03  0.7818608E-02  0.1235071E+00
          4   -1    0    0  501    0  0.00000000000E+00  0.00000000000E+00  0.24965838463E+03  0.24966161482E+03  0.12700000000E+01 0. -1.
         -4   -1    0    0    0  501 -0.00000000000E+00 -0.00000000000E+00 -0.15616995151E+02  0.15668549312E+02  0.12700000000E+01 0. -1.
         25    2    1    2    0    0  0.00000000000E+00  0.00000000000E+00  0.23404138948E+03  0.26533016413E+03  0.12499889604E+03 0.  0.
    9000005    1    3    3    0    0  0.68953727900E+00 -0.52172432428E+02  0.44020232305E+02  0.68273120767E+02  0.10000000000E+01 0.  0.
    9000005    1    3    3    0    0 -0.68953727900E+00  0.52172432428E+02  0.19002115717E+03  0.19705704337E+03  0.10000000000E+01 0.  0.
<mgrwt>
<rscale>  0 0.12499890E+03</rscale>
<asrwt>0</asrwt>
<pdfrwt beam="1">  1        4 0.62421443E-01 0.12499890E+03</pdfrwt>
<pdfrwt beam="2">  1       -4 0.39110969E-02 0.12499890E+03</pdfrwt>
<totfact> 0.14001933E+03</totfact>
</mgrwt>
</event>
<event>
 5    1  0.1451195E-002  0.1249737E+03  0.7818608E-02  0.1235110E+00
         -4   -1    0    0    0  501 -0.00000000000E+00  0.00000000000E+00  0.17833094974E+02  0.17878259881E+02  0.12700000000E+01 0. -1.
          4   -1    0    0  501    0  0.00000000000E+00 -0.00000000000E+00 -0.21862882869E+03  0.21863251733E+03  0.12700000000E+01 0. -1.
         25    2    1    2    0    0  0.00000000000E+00  0.00000000000E+00 -0.20079573371E+03  0.23651077721E+03  0.12497368146E+03 0.  0.
    9000005    1    3    3    0    0  0.21951282711E+02 -0.48436245504E+02 -0.38329084295E+02  0.65559495072E+02  0.10000000000E+01 0.  0.
    9000005    1    3    3    0    0 -0.21951282711E+02  0.48436245504E+02 -0.16246664942E+03  0.17095128214E+03  0.10000000000E+01 0.  0.
<mgrwt>
<rscale>  0 0.12497368E+03</rscale>
<asrwt>0</asrwt>
<pdfrwt beam="2">  1        4 0.54663306E-01 0.12497368E+03</pdfrwt>
<pdfrwt beam="1">  1       -4 0.44643811E-02 0.12497368E+03</pdfrwt>
<totfact> 0.14966497E+03</totfact>
</mgrwt>
</event>
<event>
 5    1  0.1451195E-002  0.1250077E+03  0.7818608E-02  0.1235057E+00
          4   -1    0    0  501    0  0.00000000000E+00  0.00000000000E+00  0.58229134879E+03  0.58229273375E+03  0.12700000000E+01 0. -1.
         -4   -1    0    0    0  501 -0.00000000000E+00 -0.00000000000E+00 -0.66477361150E+01  0.67679609525E+01  0.12700000000E+01 0. -1.
         25    2    1    2    0    0  0.00000000000E+00  0.00000000000E+00  0.57564361267E+03  0.58906069470E+03  0.12500773267E+03 0.  0.
    9000005    1    3    3    0    0 -0.33508150994E+02  0.52138208714E+02  0.32567932702E+03  0.33152558429E+03  0.10000000000E+01 0.  0.
    9000005    1    3    3    0    0  0.33508150994E+02 -0.52138208714E+02  0.24996428565E+03  0.25753511041E+03  0.10000000000E+01 0.  0.
<mgrwt>
<rscale>  0 0.12500773E+03</rscale>
<asrwt>0</asrwt>
<pdfrwt beam="1">  1        4 0.14558803E+00 0.12500773E+03</pdfrwt>
<pdfrwt beam="2">  1       -4 0.16771354E-02 0.12500773E+03</pdfrwt>
<totfact> 0.74883650E+02</totfact>
</mgrwt>
</event>
<event>
 5    1  0.1451195E-002  0.1250025E+03  0.7818608E-02  0.1235065E+00
         -4   -1    0    0    0  501 -0.00000000000E+00  0.00000000000E+00  0.58781623926E+02  0.58795341749E+02  0.12700000000E+01 0. -1.
          4   -1    0    0  501    0  0.00000000000E+00 -0.00000000000E+00 -0.66428757327E+02  0.66440896292E+02  0.12700000000E+01 0. -1.
         25    2    1    2    0    0  0.00000000000E+00  0.00000000000E+00 -0.76471334012E+01  0.12523623804E+03  0.12500254665E+03 0.  0.
    9000005    1    3    3    0    0  0.45673028532E+02 -0.36223075343E+02 -0.26388382283E+02  0.63995964264E+02  0.10000000000E+01 0.  0.
    9000005    1    3    3    0    0 -0.45673028532E+02  0.36223075343E+02  0.18741248881E+02  0.61240273776E+02  0.10000000000E+01 0.  0.
<mgrwt>
<rscale>  0 0.12500255E+03</rscale>
<asrwt>0</asrwt>
<pdfrwt beam="2">  1        4 0.16610421E-01 0.12500255E+03</pdfrwt>
<pdfrwt beam="1">  1       -4 0.14698638E-01 0.12500255E+03</pdfrwt>
<totfact> 0.19821068E+03</totfact>
</mgrwt>
</event>
<event>
 5    1  0.1451195E-002  0.1249821E+03  0.7818608E-02  0.1235097E+00
          4   -1    0    0  501    0  0.00000000000E+00  0.00000000000E+00  0.13805011329E+02  0.13863305443E+02  0.12700000000E+01 0. -1.
         -4   -1    0    0    0  501 -0.00000000000E+00 -0.00000000000E+00 -0.28222220110E+03  0.28222505858E+03  0.12700000000E+01 0. -1.
         25    2    1    2    0    0  0.00000000000E+00  0.00000000000E+00 -0.26841718977E+03  0.29608836403E+03  0.12498212492E+03 0.  0.
    9000005    1    3    3    0    0 -0.38261250316E+02 -0.25520750001E+02 -0.34008857970E+02  0.57208691445E+02  0.10000000000E+01 0.  0.
    9000005    1    3    3    0    0  0.38261250316E+02  0.25520750001E+02 -0.23440833180E+03  0.23887967258E+03  0.10000000000E+01 0.  0.
<mgrwt>
<rscale>  0 0.12498212E+03</rscale>
<asrwt>0</asrwt>
<pdfrwt beam="1">  1        4 0.34588977E-02 0.12498212E+03</pdfrwt>
<pdfrwt beam="2">  1       -4 0.70563175E-01 0.12498212E+03</pdfrwt>
<totfact> 0.13086761E+03</totfact>
</mgrwt>
</event>
<event>
 5    1  0.1451195E-002  0.1250005E+03  0.7818608E-02  0.1235068E+00
         -4   -1    0    0    0  501 -0.00000000000E+00  0.00000000000E+00  0.32415558295E+03  0.32415807079E+03  0.12700000000E+01 0.  1.
          4   -1    0    0  501    0  0.00000000000E+00 -0.00000000000E+00 -0.12014635865E+02  0.12081571709E+02  0.12700000000E+01 0.  1.
         25    2    1    2    0    0  0.00000000000E+00  0.00000000000E+00  0.31214094709E+03  0.33623964250E+03  0.12500050536E+03 0.  0.
    9000005    1    3    3    0    0  0.48981000573E+02 -0.26225116683E+02  0.23302184321E+03  0.23955599466E+03  0.10000000000E+01 0.  0.
    9000005    1    3    3    0    0 -0.48981000573E+02  0.26225116683E+02  0.79119103871E+02  0.96683647839E+02  0.10000000000E+01 0.  0.
<mgrwt>
<rscale>  0 0.12500051E+03</rscale>
<asrwt>0</asrwt>
<pdfrwt beam="2">  1        4 0.30123371E-02 0.12500051E+03</pdfrwt>
<pdfrwt beam="1">  1       -4 0.81047568E-01 0.12500051E+03</pdfrwt>
<totfact> 0.12012758E+03</totfact>
</mgrwt>
</event>
<event>
 5    1  0.1451195E-002  0.1250045E+03  0.7818608E-02  0.1235062E+00
          4   -1    0    0  501    0  0.00000000000E+00  0.00000000000E+00  0.60711813140E+02  0.60725094934E+02  0.12700000000E+01 0.  1.
         -4   -1    0    0    0  501 -0.00000000000E+00 -0.00000000000E+00 -0.64318945419E+02  0.64331482494E+02  0.12700000000E+01 0.  1.
         25    2    1    2    0    0  0.00000000000E+00  0.00000000000E+00 -0.36071322788E+01  0.12505657743E+03  0.12500454454E+03 0.  0.
    9000005    1    3    3    0    0 -0.56798313687E+02 -0.24126458532E+02  0.80696654181E+01  0.62243505195E+02  0.10000000000E+01 0.  0.
    9000005    1    3    3    0    0  0.56798313687E+02  0.24126458532E+02 -0.11676797697E+02  0.62813072234E+02  0.10000000000E+01 0.  0.
<mgrwt>
<rscale>  0 0.12500454E+03</rscale>
<asrwt>0</asrwt>
<pdfrwt beam="1">  1        4 0.15181181E-01 0.12500454E+03</pdfrwt>
<pdfrwt beam="2">  1       -4 0.16082964E-01 0.12500454E+03</pdfrwt>
<totfact> 0.19829879E+03</totfact>
</mgrwt>
</event>
<event>
 5    1  0.1451195E-002  0.1250021E+03  0.7818608E-02  0.1235066E+00
          4   -1    0    0  501    0  0.00000000000E+00  0.00000000000E+00  0.10279498634E+02  0.10357653797E+02  0.12700000000E+01 0.  1.
         -4   -1    0    0    0  501 -0.00000000000E+00 -0.00000000000E+00 -0.37849858939E+03  0.37850072004E+03  0.12700000000E+01 0.  1.
         25    2    1    2    0    0  0.00000000000E+00  0.00000000000E+00 -0.36821909075E+03  0.38885837383E+03  0.12500214440E+03 0.  0.
    9000005    1    3    3    0    0 -0.75355544981E+01 -0.61752389377E+02 -0.16564224781E+03  0.17694207084E+03  0.10000000000E+01 0.  0.
    9000005    1    3    3    0    0  0.75355544981E+01  0.61752389377E+02 -0.20257684295E+03  0.21191630299E+03  0.10000000000E+01 0.  0.
<mgrwt>
<rscale>  0 0.12500214E+03</rscale>
<asrwt>0</asrwt>
<pdfrwt beam="1">  1        4 0.25799117E-02 0.12500214E+03</pdfrwt>
<pdfrwt beam="2">  1       -4 0.94634637E-01 0.12500214E+03</pdfrwt>
<totfact> 0.10801831E+03</totfact>
</mgrwt>
</event>
<event>
 5    1  0.1451195E-002  0.1250024E+03  0.7818608E-02  0.1235066E+00
          4   -1    0    0  501    0  0.00000000000E+00  0.00000000000E+00  0.70311991102E+02  0.70323459761E+02  0.12700000000E+01 0.  1.
         -4   -1    0    0    0  501 -0.00000000000E+00 -0.00000000000E+00 -0.55534787603E+02  0.55549307234E+02  0.12700000000E+01 0.  1.
         25    2    1    2    0    0  0.00000000000E+00  0.00000000000E+00  0.14777203499E+02  0.12587276699E+03  0.12500235089E+03 0.  0.
    9000005    1    3    3    0    0 -0.18832610724E+02  0.53182209860E+02  0.34452922661E+02  0.66113679010E+02  0.10000000000E+01 0.  0.
    9000005    1    3    3    0    0  0.18832610724E+02 -0.53182209860E+02 -0.19675719162E+02  0.59759087985E+02  0.10000000000E+01 0.  0.
<mgrwt>
<rscale>  0 0.12500235E+03</rscale>
<asrwt>0</asrwt>
<pdfrwt beam="1">  1        4 0.17581246E-01 0.12500235E+03</pdfrwt>
<pdfrwt beam="2">  1       -4 0.13886945E-01 0.12500235E+03</pdfrwt>
<totfact> 0.19786709E+03</totfact>
</mgrwt>
</event>
<event>
 5    1  0.1451195E-002  0.1250004E+03  0.7818608E-02  0.1235069E+00
         -4   -1    0    0    0  501 -0.00000000000E+00  0.00000000000E+00  0.47606521853E+02  0.47623458746E+02  0.12700000000E+01 0.  1.
          4   -1    0    0  501    0  0.00000000000E+00 -0.00000000000E+00 -0.82016935091E+02  0.82026767227E+02  0.12700000000E+01 0.  1.
         25    2    1    2    0    0  0.00000000000E+00  0.00000000000E+00 -0.34410413238E+02  0.12965022597E+03  0.12500041822E+03 0.  0.
    9000005    1    3    3    0    0  0.54492430934E+02 -0.19912538766E+02  0.68824136616E+01  0.58432027579E+02  0.10000000000E+01 0.  0.
    9000005    1    3    3    0    0 -0.54492430934E+02  0.19912538766E+02 -0.41292826899E+02  0.71218198394E+02  0.10000000000E+01 0.  0.
<mgrwt>
<rscale>  0 0.12500042E+03</rscale>
<asrwt>0</asrwt>
<pdfrwt beam="2">  1        4 0.20507580E-01 0.12500042E+03</pdfrwt>
<pdfrwt beam="1">  1       -4 0.11904977E-01 0.12500042E+03</pdfrwt>
<totfact> 0.19583013E+03</totfact>
</mgrwt>
</event>
<event>
 5    1  0.1451195E-002  0.1249993E+03  0.7818608E-02  0.1235070E+00
          4   -1    0    0  501    0  0.00000000000E+00  0.00000000000E+00  0.52238362984E+03  0.52238517362E+03  0.12700000000E+01 0.  1.
         -4   -1    0    0    0  501 -0.00000000000E+00 -0.00000000000E+00 -0.74221682290E+01  0.75300385935E+01  0.12700000000E+01 0.  1.
         25    2    1    2    0    0  0.00000000000E+00  0.00000000000E+00  0.51496146161E+03  0.52991521222E+03  0.12499930079E+03 0.  0.
    9000005    1    3    3    0    0  0.22040923326E+02 -0.17133144760E+02  0.49449992623E+03  0.49528832410E+03  0.10000000000E+01 0.  0.
    9000005    1    3    3    0    0 -0.22040923326E+02  0.17133144760E+02  0.20461535375E+02  0.34626888112E+02  0.10000000000E+01 0.  0.
<mgrwt>
<rscale>  0 0.12499930E+03</rscale>
<asrwt>0</asrwt>
<pdfrwt beam="1">  1        4 0.13060959E+00 0.12499930E+03</pdfrwt>
<pdfrwt beam="2">  1       -4 0.18692188E-02 0.12499930E+03</pdfrwt>
<totfact> 0.83038650E+02</totfact>
</mgrwt>
</event>
<event>
 5    1  0.1451195E-002  0.1250018E+03  0.7818608E-02  0.1235067E+00
          4   -1    0    0  501    0  0.00000000000E+00  0.00000000000E+00  0.10249068662E+03  0.10249855484E+03  0.12700000000E+01 0. -1.
         -4   -1    0    0    0  501 -0.00000000000E+00 -0.00000000000E+00 -0.38094379241E+02  0.38115543151E+02  0.12700000000E+01 0. -1.
         25    2    1    2    0    0  0.00000000000E+00  0.00000000000E+00  0.64396307383E+02  0.14061409799E+03  0.12500176059E+03 0.  0.
    9000005    1    3    3    0    0 -0.56081551732E+01  0.60965697301E+02  0.46297218370E+02  0.76763924344E+02  0.10000000000E+01 0.  0.
    9000005    1    3    3    0    0  0.56081551732E+01 -0.60965697301E+02  0.18099089013E+02  0.63850173649E+02  0.10000000000E+01 0.  0.
<mgrwt>
<rscale>  0 0.12500176E+03</rscale>
<asrwt>0</asrwt>
<pdfrwt beam="1">  1        4 0.25626300E-01 0.12500176E+03</pdfrwt>
<pdfrwt beam="2">  1       -4 0.95272240E-02 0.12500176E+03</pdfrwt>
<totfact> 0.19008190E+03</totfact>
</mgrwt>
</event>
<event>
 5    1  0.1451195E-002  0.1249942E+03  0.7818608E-02  0.1235078E+00
         -4   -1    0    0    0  501 -0.00000000000E+00  0.00000000000E+00  0.25193676092E+03  0.25193996190E+03  0.12700000000E+01 0.  1.
          4   -1    0    0  501    0  0.00000000000E+00 -0.00000000000E+00 -0.15474134665E+02  0.15526163197E+02  0.12700000000E+01 0.  1.
         25    2    1    2    0    0  0.00000000000E+00  0.00000000000E+00  0.23646262625E+03  0.26746612510E+03  0.12499421770E+03 0.  0.
    9000005    1    3    3    0    0  0.56125966360E+02  0.24793391805E+02  0.92907803821E+02  0.11134494325E+03  0.10000000000E+01 0.  0.
    9000005    1    3    3    0    0 -0.56125966360E+02 -0.24793391805E+02  0.14355482243E+03  0.15612118184E+03  0.10000000000E+01 0.  0.
<mgrwt>
<rscale>  0 0.12499422E+03</rscale>
<asrwt>0</asrwt>
<pdfrwt beam="2">  1        4 0.38754374E-02 0.12499422E+03</pdfrwt>
<pdfrwt beam="1">  1       -4 0.62991093E-01 0.12499422E+03</pdfrwt>
<totfact> 0.13936354E+03</totfact>
</mgrwt>
</event>
<event>
 5    1  0.1451195E-002  0.1249922E+03  0.7818608E-02  0.1235082E+00
         -4   -1    0    0    0  501 -0.00000000000E+00  0.00000000000E+00  0.48516370419E+02  0.48532989797E+02  0.12700000000E+01 0.  1.
          4   -1    0    0  501    0  0.00000000000E+00 -0.00000000000E+00 -0.80468533985E+02  0.80478555291E+02  0.12700000000E+01 0.  1.
         25    2    1    2    0    0  0.00000000000E+00  0.00000000000E+00 -0.31952163566E+02  0.12901154509E+03  0.12499215179E+03 0.  0.
    9000005    1    3    3    0    0  0.24724446512E+02  0.42746500343E+02 -0.55498375068E+02  0.74294220382E+02  0.10000000000E+01 0.  0.
    9000005    1    3    3    0    0 -0.24724446512E+02 -0.42746500343E+02  0.23546211502E+02  0.54717324706E+02  0.10000000000E+01 0.  0.
<mgrwt>
<rscale>  0 0.12499215E+03</rscale>
<asrwt>0</asrwt>
<pdfrwt beam="2">  1        4 0.20120463E-01 0.12499215E+03</pdfrwt>
<pdfrwt beam="1">  1       -4 0.12132423E-01 0.12499215E+03</pdfrwt>
<totfact> 0.19621266E+03</totfact>
</mgrwt>
</event>
<event>
 4    1  0.1451195E-002  0.1249289E+03  0.7818608E-02  0.1235180E+00
         -4   -1    0    0    0  501 -0.00000000000E+00  0.00000000000E+00  0.50725972403E+03  0.50726131384E+03  0.12700000000E+01 0. -1.
          4   -1    0    0  501    0  0.00000000000E+00 -0.00000000000E+00 -0.76378991040E+01  0.77427645401E+01  0.12700000000E+01 0. -1.
    9000005    1    1    2    0    0  0.30069474436E+02 -0.47631838715E+02  0.13859510379E+03  0.14960804840E+03  0.10000000000E+01 0.  0.
    9000005    1    1    2    0    0 -0.30069474436E+02  0.47631838715E+02  0.36102672113E+03  0.36539602998E+03  0.10000000000E+01 0.  0.
<mgrwt>
<rscale>  0 0.12492891E+03</rscale>
<asrwt>0</asrwt>
<pdfrwt beam="2">  1        4 0.19227819E-02 0.12492891E+03</pdfrwt>
<pdfrwt beam="1">  1       -4 0.12682823E+00 0.12492891E+03</pdfrwt>
<totfact> 0.85406315E+02</totfact>
</mgrwt>
</event>
<event>
 5    1  0.1451195E-002  0.1249997E+03  0.7818608E-02  0.1235070E+00
          4   -1    0    0  501    0  0.00000000000E+00  0.00000000000E+00  0.26537438759E+02  0.26567810521E+02  0.12700000000E+01 0.  1.
         -4   -1    0    0    0  501 -0.00000000000E+00 -0.00000000000E+00 -0.14707960563E+03  0.14708508861E+03  0.12700000000E+01 0.  1.
         25    2    1    2    0    0  0.00000000000E+00  0.00000000000E+00 -0.12054216687E+03  0.17365289913E+03  0.12499966153E+03 0.  0.
    9000005    1    3    3    0    0  0.15590901997E+02  0.47937694360E+01  0.23534801433E+02  0.28652108631E+02  0.10000000000E+01 0.  0.
    9000005    1    3    3    0    0 -0.15590901997E+02 -0.47937694360E+01 -0.14407696830E+03  0.14500079050E+03  0.10000000000E+01 0.  0.
<mgrwt>
<rscale>  0 0.12499966E+03</rscale>
<asrwt>0</asrwt>
<pdfrwt beam="1">  1        4 0.66388419E-02 0.12499966E+03</pdfrwt>
<pdfrwt beam="2">  1       -4 0.36774381E-01 0.12499966E+03</pdfrwt>
<totfact> 0.17433671E+03</totfact>
</mgrwt>
</event>
<event>
 5    1  0.1451195E-002  0.1250294E+03  0.7818608E-02  0.1235023E+00
         -4   -1    0    0    0  501 -0.00000000000E+00  0.00000000000E+00  0.56930938598E+03  0.56931080252E+03  0.12700000000E+01 0.  1.
          4   -1    0    0  501    0  0.00000000000E+00 -0.00000000000E+00 -0.68044298425E+01  0.69219336519E+01  0.12700000000E+01 0.  1.
         25    2    1    2    0    0  0.00000000000E+00  0.00000000000E+00  0.56250495614E+03  0.57623273617E+03  0.12502935878E+03 0.  0.
    9000005    1    3    3    0    0  0.37546117592E+02 -0.27376064134E+02  0.47393723446E+03  0.47621073280E+03  0.10000000000E+01 0.  0.
    9000005    1    3    3    0    0 -0.37546117592E+02  0.27376064134E+02  0.88567721680E+02  0.10002200337E+03  0.10000000000E+01 0.  0.
<mgrwt>
<rscale>  0 0.12502936E+03</rscale>
<asrwt>0</asrwt>
<pdfrwt beam="2">  1        4 0.17159725E-02 0.12502936E+03</pdfrwt>
<pdfrwt beam="1">  1       -4 0.14234221E+00 0.12502936E+03</pdfrwt>
<totfact> 0.76526285E+02</totfact>
</mgrwt>
</event>
<event>
 5    1  0.1451195E-002  0.1249951E+03  0.7818608E-02  0.1235077E+00
          4   -1    0    0  501    0  0.00000000000E+00  0.00000000000E+00  0.43191420983E+03  0.43191607698E+03  0.12700000000E+01 0. -1.
         -4   -1    0    0    0  501 -0.00000000000E+00 -0.00000000000E+00 -0.89968543434E+01  0.90860490906E+01  0.12700000000E+01 0. -1.
         25    2    1    2    0    0  0.00000000000E+00  0.00000000000E+00  0.42291735548E+03  0.44100212607E+03  0.12499514241E+03 0.  0.
    9000005    1    3    3    0    0 -0.24199528433E+02 -0.14831991506E+02  0.40787711270E+03  0.40886470160E+03  0.10000000000E+01 0.  0.
    9000005    1    3    3    0    0  0.24199528433E+02  0.14831991506E+02  0.15040242782E+02  0.32137424467E+02  0.10000000000E+01 0.  0.
<mgrwt>
<rscale>  0 0.12499514E+03</rscale>
<asrwt>0</asrwt>
<pdfrwt beam="1">  1        4 0.10798993E+00 0.12499514E+03</pdfrwt>
<pdfrwt beam="2">  1       -4 0.22605964E-02 0.12499514E+03</pdfrwt>
<totfact> 0.97665971E+02</totfact>
</mgrwt>
</event>
<event>
 5    1  0.1451195E-002  0.1250007E+03  0.7818608E-02  0.1235068E+00
         -4   -1    0    0    0  501 -0.00000000000E+00  0.00000000000E+00  0.26082204279E+02  0.26113105523E+02  0.12700000000E+01 0.  1.
          4   -1    0    0  501    0  0.00000000000E+00 -0.00000000000E+00 -0.14964621113E+03  0.14965160008E+03  0.12700000000E+01 0.  1.
         25    2    1    2    0    0  0.00000000000E+00  0.00000000000E+00 -0.12356400685E+03  0.17576470560E+03  0.12500067178E+03 0.  0.
    9000005    1    3    3    0    0 -0.35370971948E+02 -0.22998458180E+02  0.30403922396E+01  0.42311685386E+02  0.10000000000E+01 0.  0.
    9000005    1    3    3    0    0  0.35370971948E+02  0.22998458180E+02 -0.12660439909E+03  0.13345302022E+03  0.10000000000E+01 0.  0.
<mgrwt>
<rscale>  0 0.12500067E+03</rscale>
<asrwt>0</asrwt>
<pdfrwt beam="2">  1        4 0.37416087E-01 0.12500067E+03</pdfrwt>
<pdfrwt beam="1">  1       -4 0.65250878E-02 0.12500067E+03</pdfrwt>
<totfact> 0.17339856E+03</totfact>
</mgrwt>
</event>
<event>
 5    1  0.1451195E-002  0.1249960E+03  0.7818608E-02  0.1235076E+00
         -4   -1    0    0    0  501 -0.00000000000E+00  0.00000000000E+00  0.86308370122E+02  0.86317713438E+02  0.12700000000E+01 0.  1.
          4   -1    0    0  501    0  0.00000000000E+00 -0.00000000000E+00 -0.45235632120E+02  0.45253456368E+02  0.12700000000E+01 0.  1.
         25    2    1    2    0    0  0.00000000000E+00  0.00000000000E+00  0.41072738002E+02  0.13157116981E+03  0.12499601160E+03 0.  0.
    9000005    1    3    3    0    0  0.23499302723E+02 -0.57684534642E+02  0.15244176596E+02  0.64133514526E+02  0.10000000000E+01 0.  0.
    9000005    1    3    3    0    0 -0.23499302723E+02  0.57684534642E+02  0.25828561406E+02  0.67437655280E+02  0.10000000000E+01 0.  0.
<mgrwt>
<rscale>  0 0.12499601E+03</rscale>
<asrwt>0</asrwt>
<pdfrwt beam="2">  1        4 0.11312304E-01 0.12499601E+03</pdfrwt>
<pdfrwt beam="1">  1       -4 0.21580488E-01 0.12499601E+03</pdfrwt>
<totfact> 0.19482098E+03</totfact>
</mgrwt>
</event>
<event>
 5    1  0.1451195E-002  0.1250012E+03  0.7818608E-02  0.1235067E+00
          4   -1    0    0  501    0  0.00000000000E+00  0.00000000000E+00  0.16396282299E+02  0.16445393678E+02  0.12700000000E+01 0.  1.
         -4   -1    0    0    0  501 -0.00000000000E+00 -0.00000000000E+00 -0.23783756849E+03  0.23784095923E+03  0.12700000000E+01 0.  1.
         25    2    1    2    0    0  0.00000000000E+00  0.00000000000E+00 -0.22144128619E+03  0.25428635291E+03  0.12500122417E+03 0.  0.
    9000005    1    3    3    0    0 -0.47650770354E+01 -0.56086954723E+01 -0.23696289764E+03  0.23707926582E+03  0.10000000000E+01 0.  0.
    9000005    1    3    3    0    0  0.47650770354E+01  0.56086954723E+01  0.15521611447E+02  0.17207087085E+02  0.10000000000E+01 0.  0.
<mgrwt>
<rscale>  0 0.12500122E+03</rscale>
<asrwt>0</asrwt>
<pdfrwt beam="1">  1        4 0.41056341E-02 0.12500122E+03</pdfrwt>
<pdfrwt beam="2">  1       -4 0.59465944E-01 0.12500122E+03</pdfrwt>
<totfact> 0.14356075E+03</totfact>
</mgrwt>
</event>
<event>
 5    1  0.1451195E-002  0.1249858E+03  0.7818608E-02  0.1235091E+00
          4   -1    0    0  501    0  0.00000000000E+00  0.00000000000E+00  0.46421179252E+03  0.46421352976E+03  0.12700000000E+01 0. -1.
         -4   -1    0    0    0  501 -0.00000000000E+00 -0.00000000000E+00 -0.83632000834E+01  0.84590788881E+01  0.12700000000E+01 0. -1.
         25    2    1    2    0    0  0.00000000000E+00  0.00000000000E+00  0.45584859243E+03  0.47267260865E+03  0.12498582216E+03 0.  0.
    9000005    1    3    3    0    0  0.24724618510E+02 -0.46189322351E+02  0.35670609177E+03  0.36053432037E+03  0.10000000000E+01 0.  0.
    9000005    1    3    3    0    0 -0.24724618510E+02  0.46189322351E+02  0.99142500666E+02  0.11213828828E+03  0.10000000000E+01 0.  0.
<mgrwt>
<rscale>  0 0.12498582E+03</rscale>
<asrwt>0</asrwt>
<pdfrwt beam="1">  1        4 0.11606514E+00 0.12498582E+03</pdfrwt>
<pdfrwt beam="2">  1       -4 0.21030022E-02 0.12498582E+03</pdfrwt>
<totfact> 0.92113689E+02</totfact>
</mgrwt>
</event>
<event>
 5    1  0.1451195E-002  0.1249982E+03  0.7818608E-02  0.1235072E+00
          4   -1    0    0  501    0  0.00000000000E+00  0.00000000000E+00  0.12481949406E+02  0.12546392349E+02  0.12700000000E+01 0. -1.
         -4   -1    0    0    0  501 -0.00000000000E+00 -0.00000000000E+00 -0.31207121469E+03  0.31207379886E+03  0.12700000000E+01 0. -1.
         25    2    1    2    0    0  0.00000000000E+00  0.00000000000E+00 -0.29958926528E+03  0.32462019121E+03  0.12499816267E+03 0.  0.
    9000005    1    3    3    0    0 -0.85882427405E+01  0.47904420743E+01  0.10472632838E+02  0.14400773840E+02  0.10000000000E+01 0.  0.
    9000005    1    3    3    0    0  0.85882427405E+01 -0.47904420743E+01 -0.31006189812E+03  0.31021941737E+03  0.10000000000E+01 0.  0.
<mgrwt>
<rscale>  0 0.12499816E+03</rscale>
<asrwt>0</asrwt>
<pdfrwt beam="1">  1        4 0.31288668E-02 0.12499816E+03</pdfrwt>
<pdfrwt beam="2">  1       -4 0.78026156E-01 0.12499816E+03</pdfrwt>
<totfact> 0.12308562E+03</totfact>
</mgrwt>
</event>
<event>
 5    1  0.1451195E-002  0.1250129E+03  0.7818608E-02  0.1235049E+00
          4   -1    0    0  501    0  0.00000000000E+00  0.00000000000E+00  0.82360738128E+02  0.82370529226E+02  0.12700000000E+01 0.  1.
         -4   -1    0    0    0  501 -0.00000000000E+00 -0.00000000000E+00 -0.47417235351E+02  0.47434239831E+02  0.12700000000E+01 0.  1.
         25    2    1    2    0    0  0.00000000000E+00  0.00000000000E+00  0.34943502777E+02  0.12980476906E+03  0.12501291807E+03 0.  0.
    9000005    1    3    3    0    0 -0.59249385770E+01 -0.56915690107E+02  0.43565828685E+02  0.71926921987E+02  0.10000000000E+01 0.  0.
    9000005    1    3    3    0    0  0.59249385770E+01  0.56915690107E+02 -0.86223259087E+01  0.57877847071E+02  0.10000000000E+01 0.  0.
<mgrwt>
<rscale>  0 0.12501292E+03</rscale>
<asrwt>0</asrwt>
<pdfrwt beam="1">  1        4 0.20593534E-01 0.12501292E+03</pdfrwt>
<pdfrwt beam="2">  1       -4 0.11857658E-01 0.12501292E+03</pdfrwt>
<totfact> 0.19568982E+03</totfact>
</mgrwt>
</event>
<event>
 5    1  0.1451195E-002  0.1250003E+03  0.7818608E-02  0.1235069E+00
          4   -1    0    0  501    0  0.00000000000E+00  0.00000000000E+00  0.48478903728E+02  0.48495535946E+02  0.12700000000E+01 0. -1.
         -4   -1    0    0    0  501 -0.00000000000E+00 -0.00000000000E+00 -0.80541196766E+02  0.80551209032E+02  0.12700000000E+01 0. -1.
         25    2    1    2    0    0  0.00000000000E+00  0.00000000000E+00 -0.32062293038E+02  0.12904674498E+03  0.12500028702E+03 0.  0.
    9000005    1    3    3    0    0 -0.30280478511E+02  0.45334401669E+02 -0.47567565445E+02  0.72358749547E+02  0.10000000000E+01 0.  0.
    9000005    1    3    3    0    0  0.30280478511E+02 -0.45334401669E+02  0.15505272407E+02  0.56687995431E+02  0.10000000000E+01 0.  0.
<mgrwt>
<rscale>  0 0.12500029E+03</rscale>
<asrwt>0</asrwt>
<pdfrwt beam="1">  1        4 0.12123057E-01 0.12500029E+03</pdfrwt>
<pdfrwt beam="2">  1       -4 0.20138630E-01 0.12500029E+03</pdfrwt>
<totfact> 0.19615637E+03</totfact>
</mgrwt>
</event>
<event>
 5    1  0.1451195E-002  0.1249957E+03  0.7818608E-02  0.1235076E+00
          4   -1    0    0  501    0  0.00000000000E+00  0.00000000000E+00  0.95528565856E+02  0.95537007460E+02  0.12700000000E+01 0.  1.
         -4   -1    0    0    0  501 -0.00000000000E+00 -0.00000000000E+00 -0.40867959386E+02  0.40887687687E+02  0.12700000000E+01 0.  1.
         25    2    1    2    0    0  0.00000000000E+00  0.00000000000E+00  0.54660606470E+02  0.13642469515E+03  0.12499566211E+03 0.  0.
    9000005    1    3    3    0    0  0.41951188331E+02 -0.38996457708E+02  0.54602061692E+02  0.79139187873E+02  0.10000000000E+01 0.  0.
    9000005    1    3    3    0    0 -0.41951188331E+02  0.38996457708E+02  0.58544777695E-01  0.57285507274E+02  0.10000000000E+01 0.  0.
<mgrwt>
<rscale>  0 0.12499566E+03</rscale>
<asrwt>0</asrwt>
<pdfrwt beam="1">  1        4 0.23885662E-01 0.12499566E+03</pdfrwt>
<pdfrwt beam="2">  1       -4 0.10220511E-01 0.12499566E+03</pdfrwt>
<totfact> 0.19226717E+03</totfact>
</mgrwt>
</event>
<event>
 5    1  0.1451195E-002  0.1250019E+03  0.7818608E-02  0.1235066E+00
         -4   -1    0    0    0  501 -0.00000000000E+00  0.00000000000E+00  0.98239056963E+02  0.98247265676E+02  0.12700000000E+01 0. -1.
          4   -1    0    0  501    0  0.00000000000E+00 -0.00000000000E+00 -0.39743918437E+02  0.39764204415E+02  0.12700000000E+01 0. -1.
         25    2    1    2    0    0  0.00000000000E+00  0.00000000000E+00  0.58495138525E+02  0.13801147009E+03  0.12500193857E+03 0.  0.
    9000005    1    3    3    0    0 -0.12451627151E+01 -0.62362212436E+02  0.33491467782E+02  0.70804479974E+02  0.10000000000E+01 0.  0.
    9000005    1    3    3    0    0  0.12451627151E+01  0.62362212436E+02  0.25003670743E+02  0.67206990118E+02  0.10000000000E+01 0.  0.
<mgrwt>
<rscale>  0 0.12500194E+03</rscale>
<asrwt>0</asrwt>
<pdfrwt beam="2">  1        4 0.99395415E-02 0.12500194E+03</pdfrwt>
<pdfrwt beam="1">  1       -4 0.24563326E-01 0.12500194E+03</pdfrwt>
<totfact> 0.19141673E+03</totfact>
</mgrwt>
</event>
<event>
 5    1  0.1451195E-002  0.1250038E+03  0.7818608E-02  0.1235063E+00
         -4   -1    0    0    0  501 -0.00000000000E+00  0.00000000000E+00  0.11592262990E+02  0.11661623439E+02  0.12700000000E+01 0. -1.
          4   -1    0    0  501    0  0.00000000000E+00 -0.00000000000E+00 -0.33591545853E+03  0.33591785928E+03  0.12700000000E+01 0. -1.
         25    2    1    2    0    0  0.00000000000E+00  0.00000000000E+00 -0.32432319554E+03  0.34757948272E+03  0.12500384650E+03 0.  0.
    9000005    1    3    3    0    0 -0.12560607705E+02  0.57779170984E+02 -0.21841460733E+03  0.22627890349E+03  0.10000000000E+01 0.  0.
    9000005    1    3    3    0    0  0.12560607705E+02 -0.57779170984E+02 -0.10590858821E+03  0.12130057923E+03  0.10000000000E+01 0.  0.
<mgrwt>
<rscale>  0 0.12500385E+03</rscale>
<asrwt>0</asrwt>
<pdfrwt beam="2">  1        4 0.83987803E-01 0.12500385E+03</pdfrwt>
<pdfrwt beam="1">  1       -4 0.29070370E-02 0.12500385E+03</pdfrwt>
<totfact> 0.11734240E+03</totfact>
</mgrwt>
</event>
<event>
 5    1  0.1451195E-002  0.1249990E+03  0.7818608E-02  0.1235071E+00
          4   -1    0    0  501    0  0.00000000000E+00  0.00000000000E+00  0.10344945798E+03  0.10345725328E+03  0.12700000000E+01 0. -1.
         -4   -1    0    0    0  501 -0.00000000000E+00 -0.00000000000E+00 -0.37739509076E+02  0.37760871882E+02  0.12700000000E+01 0. -1.
         25    2    1    2    0    0  0.00000000000E+00  0.00000000000E+00  0.65709948906E+02  0.14121812516E+03  0.12499904595E+03 0.  0.
    9000005    1    3    3    0    0 -0.15588743813E+02  0.59093664122E+02  0.47590370473E+02  0.77465562896E+02  0.10000000000E+01 0.  0.
    9000005    1    3    3    0    0  0.15588743813E+02 -0.59093664122E+02  0.18119578433E+02  0.63752562267E+02  0.10000000000E+01 0.  0.
<mgrwt>
<rscale>  0 0.12499905E+03</rscale>
<asrwt>0</asrwt>
<pdfrwt beam="1">  1        4 0.25866009E-01 0.12499905E+03</pdfrwt>
<pdfrwt beam="2">  1       -4 0.94385221E-02 0.12499905E+03</pdfrwt>
<totfact> 0.18978620E+03</totfact>
</mgrwt>
</event>
<event>
 5    1  0.1451195E-002  0.1250000E+03  0.7818608E-02  0.1235069E+00
         -4   -1    0    0    0  501 -0.00000000000E+00  0.00000000000E+00  0.11240016391E+04  0.11240023565E+04  0.12700000000E+01 0.  1.
          4   -1    0    0  501    0  0.00000000000E+00 -0.00000000000E+00 -0.33585381539E+01  0.35906376218E+01  0.12700000000E+01 0.  1.
         25    2    1    2    0    0  0.00000000000E+00  0.00000000000E+00  0.11206431009E+04  0.11275929942E+04  0.12500000351E+03 0.  0.
    9000005    1    3    3    0    0  0.27508519134E+02  0.30420485236E+02  0.98564991938E+03  0.98650336448E+03  0.10000000000E+01 0.  0.
    9000005    1    3    3    0    0 -0.27508519134E+02 -0.30420485236E+02  0.13499318153E+03  0.14108962970E+03  0.10000000000E+01 0.  0.
<mgrwt>
<rscale>  0 0.12500000E+03</rscale>
<asrwt>0</asrwt>
<pdfrwt beam="2">  1        4 0.86873612E-03 0.12500000E+03</pdfrwt>
<pdfrwt beam="1">  1       -4 0.28102969E+00 0.12500000E+03</pdfrwt>
<totfact> 0.29171990E+02</totfact>
</mgrwt>
</event>
<event>
 5    1  0.1451195E-002  0.1249995E+03  0.7818608E-02  0.1235070E+00
          4   -1    0    0  501    0  0.00000000000E+00  0.00000000000E+00  0.58491042102E+03  0.58491179978E+03  0.12700000000E+01 0.  1.
         -4   -1    0    0    0  501 -0.00000000000E+00 -0.00000000000E+00 -0.66165417133E+01  0.67373232254E+01  0.12700000000E+01 0.  1.
         25    2    1    2    0    0  0.00000000000E+00  0.00000000000E+00  0.57829387931E+03  0.59164912300E+03  0.12499949562E+03 0.  0.
    9000005    1    3    3    0    0  0.40149513593E+02  0.43349547364E+02  0.38545958055E+03  0.38996314561E+03  0.10000000000E+01 0.  0.
    9000005    1    3    3    0    0 -0.40149513593E+02 -0.43349547364E+02  0.19283429876E+03  0.20168597739E+03  0.10000000000E+01 0.  0.
<mgrwt>
<rscale>  0 0.12499950E+03</rscale>
<asrwt>0</asrwt>
<pdfrwt beam="1">  1        4 0.14624288E+00 0.12499950E+03</pdfrwt>
<pdfrwt beam="2">  1       -4 0.16694054E-02 0.12499950E+03</pdfrwt>
<totfact> 0.74564596E+02</totfact>
</mgrwt>
</event>
<event>
 4    1  0.1451195E-002  0.1278290E+03  0.7818608E-02  0.1230713E+00
          4   -1    0    0  501    0  0.00000000000E+00  0.00000000000E+00  0.33672014136E+02  0.33695955780E+02  0.12700000000E+01 0.  1.
         -4   -1    0    0    0  501 -0.00000000000E+00 -0.00000000000E+00 -0.12124894378E+03  0.12125559479E+03  0.12700000000E+01 0.  1.
    9000005    1    1    2    0    0 -0.43315685909E+02  0.46476359947E+02 -0.35410795610E+02  0.72740807842E+02  0.10000000000E+01 0.  0.
    9000005    1    1    2    0    0  0.43315685909E+02 -0.46476359947E+02 -0.52166134030E+02  0.82210742725E+02  0.10000000000E+01 0.  0.
<mgrwt>
<rscale>  0 0.12782904E+03</rscale>
<asrwt>0</asrwt>
<pdfrwt beam="1">  1        4 0.84218279E-02 0.12782904E+03</pdfrwt>
<pdfrwt beam="2">  1       -4 0.30316059E-01 0.12782904E+03</pdfrwt>
<totfact> 0.17143810E+03</totfact>
</mgrwt>
</event>
<event>
 5    1  0.1451195E-002  0.1249989E+03  0.7818608E-02  0.1235071E+00
          4   -1    0    0  501    0  0.00000000000E+00  0.00000000000E+00  0.10578205996E+02  0.10654170174E+02  0.12700000000E+01 0. -1.
         -4   -1    0    0    0  501 -0.00000000000E+00 -0.00000000000E+00 -0.36786852718E+03  0.36787071939E+03  0.12700000000E+01 0. -1.
         25    2    1    2    0    0  0.00000000000E+00  0.00000000000E+00 -0.35729032118E+03  0.37852488957E+03  0.12499887364E+03 0.  0.
    9000005    1    3    3    0    0 -0.58022762685E+02  0.32023416632E+01 -0.24824719197E+03  0.25495992685E+03  0.10000000000E+01 0.  0.
    9000005    1    3    3    0    0  0.58022762685E+02 -0.32023416632E+01 -0.10904312921E+03  0.12356496271E+03  0.10000000000E+01 0.  0.
<mgrwt>
<rscale>  0 0.12499887E+03</rscale>
<asrwt>0</asrwt>
<pdfrwt beam="1">  1        4 0.26543223E-02 0.12499887E+03</pdfrwt>
<pdfrwt beam="2">  1       -4 0.91976859E-01 0.12499887E+03</pdfrwt>
<totfact> 0.11025636E+03</totfact>
</mgrwt>
</event>
<event>
 5    1  0.1451195E-002  0.1250015E+03  0.7818608E-02  0.1235067E+00
         -4   -1    0    0    0  501 -0.00000000000E+00  0.00000000000E+00  0.61576482524E+01  0.62872515458E+01  0.12700000000E+01 0.  1.
          4   -1    0    0  501    0  0.00000000000E+00 -0.00000000000E+00 -0.62765161909E+03  0.62765290396E+03  0.12700000000E+01 0.  1.
         25    2    1    2    0    0  0.00000000000E+00  0.00000000000E+00 -0.62149397084E+03  0.63394015550E+03  0.12500145988E+03 0.  0.
    9000005    1    3    3    0    0  0.13283223809E+02 -0.36809853254E+02 -0.63650080150E+02  0.74724440677E+02  0.10000000000E+01 0.  0.
    9000005    1    3    3    0    0 -0.13283223809E+02  0.36809853254E+02 -0.55784389069E+03  0.55921571483E+03  0.10000000000E+01 0.  0.
<mgrwt>
<rscale>  0 0.12500146E+03</rscale>
<asrwt>0</asrwt>
<pdfrwt beam="2">  1        4 0.15692905E+00 0.12500146E+03</pdfrwt>
<pdfrwt beam="1">  1       -4 0.15557752E-02 0.12500146E+03</pdfrwt>
<totfact> 0.69376793E+02</totfact>
</mgrwt>
</event>
<event>
 5    1  0.1451195E-002  0.1250003E+03  0.7818608E-02  0.1235069E+00
          4   -1    0    0  501    0  0.00000000000E+00  0.00000000000E+00  0.24994823190E+03  0.24995145835E+03  0.12700000000E+01 0.  1.
         -4   -1    0    0    0  501 -0.00000000000E+00 -0.00000000000E+00 -0.15599175454E+02  0.15650788314E+02  0.12700000000E+01 0.  1.
         25    2    1    2    0    0  0.00000000000E+00  0.00000000000E+00  0.23434905645E+03  0.26560224666E+03  0.12500029270E+03 0.  0.
    9000005    1    3    3    0    0 -0.57882783579E+02  0.18575726763E+02  0.14795089019E+03  0.15995605699E+03  0.10000000000E+01 0.  0.
    9000005    1    3    3    0    0  0.57882783579E+02 -0.18575726763E+02  0.86398166253E+02  0.10564618967E+03  0.10000000000E+01 0.  0.
<mgrwt>
<rscale>  0 0.12500029E+03</rscale>
<asrwt>0</asrwt>
<pdfrwt beam="1">  1        4 0.62493913E-01 0.12500029E+03</pdfrwt>
<pdfrwt beam="2">  1       -4 0.39066488E-02 0.12500029E+03</pdfrwt>
<totfact> 0.13992912E+03</totfact>
</mgrwt>
</event>
<event>
 5    1  0.1451195E-002  0.1250026E+03  0.7818608E-02  0.1235065E+00
          4   -1    0    0  501    0  0.00000000000E+00  0.00000000000E+00  0.30732939996E+02  0.30759169378E+02  0.12700000000E+01 0.  1.
         -4   -1    0    0    0  501 -0.00000000000E+00 -0.00000000000E+00 -0.12702461074E+03  0.12703095935E+03  0.12700000000E+01 0.  1.
         25    2    1    2    0    0  0.00000000000E+00  0.00000000000E+00 -0.96291670745E+02  0.15779012873E+03  0.12500255545E+03 0.  0.
    9000005    1    3    3    0    0  0.15496627225E+02  0.54693669472E+02 -0.80913686602E+02  0.98891696391E+02  0.10000000000E+01 0.  0.
    9000005    1    3    3    0    0 -0.15496627225E+02 -0.54693669472E+02 -0.15377984143E+02  0.58898432339E+02  0.10000000000E+01 0.  0.
<mgrwt>
<rscale>  0 0.12500256E+03</rscale>
<asrwt>0</asrwt>
<pdfrwt beam="1">  1        4 0.76873076E-02 0.12500256E+03</pdfrwt>
<pdfrwt beam="2">  1       -4 0.31760224E-01 0.12500256E+03</pdfrwt>
<totfact> 0.18161174E+03</totfact>
</mgrwt>
</event>
<event>
 5    1  0.1451195E-002  0.1249996E+03  0.7818608E-02  0.1235070E+00
          4   -1    0    0  501    0  0.00000000000E+00  0.00000000000E+00  0.10585039954E+03  0.10585801804E+03  0.12700000000E+01 0.  1.
         -4   -1    0    0    0  501 -0.00000000000E+00 -0.00000000000E+00 -0.36883411656E+02  0.36905270022E+02  0.12700000000E+01 0.  1.
         25    2    1    2    0    0  0.00000000000E+00  0.00000000000E+00  0.68966987889E+02  0.14276328806E+03  0.12499964400E+03 0.  0.
    9000005    1    3    3    0    0 -0.22736009420E+02 -0.34764625997E+02 -0.18838742935E+02  0.45622402178E+02  0.10000000000E+01 0.  0.
    9000005    1    3    3    0    0  0.22736009420E+02  0.34764625997E+02  0.87805730824E+02  0.97140885886E+02  0.10000000000E+01 0.  0.
<mgrwt>
<rscale>  0 0.12499964E+03</rscale>
<asrwt>0</asrwt>
<pdfrwt beam="1">  1        4 0.26466284E-01 0.12499964E+03</pdfrwt>
<pdfrwt beam="2">  1       -4 0.92245376E-02 0.12499964E+03</pdfrwt>
<totfact> 0.18900015E+03</totfact>
</mgrwt>
</event>
<event>
 5    1  0.1451195E-002  0.1250000E+03  0.7818608E-02  0.1235069E+00
         -4   -1    0    0    0  501 -0.00000000000E+00  0.00000000000E+00  0.81044909748E+01  0.82033940513E+01  0.12700000000E+01 0. -1.
          4   -1    0    0  501    0  0.00000000000E+00 -0.00000000000E+00 -0.47896262802E+03  0.47896431176E+03  0.12700000000E+01 0. -1.
         25    2    1    2    0    0  0.00000000000E+00  0.00000000000E+00 -0.47085813704E+03  0.48716770581E+03  0.12499995345E+03 0.  0.
    9000005    1    3    3    0    0 -0.30717379509E+02 -0.53791920590E+02 -0.26759548379E+03  0.27467338981E+03  0.10000000000E+01 0.  0.
    9000005    1    3    3    0    0  0.30717379509E+02  0.53791920590E+02 -0.20326265325E+03  0.21249431600E+03  0.10000000000E+01 0.  0.
<mgrwt>
<rscale>  0 0.12499995E+03</rscale>
<asrwt>0</asrwt>
<pdfrwt beam="2">  1        4 0.11975314E+00 0.12499995E+03</pdfrwt>
<pdfrwt beam="1">  1       -4 0.20386977E-02 0.12499995E+03</pdfrwt>
<totfact> 0.89683549E+02</totfact>
</mgrwt>
</event>
<event>
 5    1  0.1451195E-002  0.1249999E+03  0.7818608E-02  0.1235069E+00
         -4   -1    0    0    0  501 -0.00000000000E+00  0.00000000000E+00  0.31067851398E+02  0.31093798264E+02  0.12700000000E+01 0. -1.
          4   -1    0    0  501    0  0.00000000000E+00 -0.00000000000E+00 -0.12565102806E+03  0.12565744607E+03  0.12700000000E+01 0. -1.
         25    2    1    2    0    0  0.00000000000E+00  0.00000000000E+00 -0.94583176664E+02  0.15675124434E+03  0.12499990117E+03 0.  0.
    9000005    1    3    3    0    0  0.27489383529E+02 -0.47670116577E+02 -0.84431014733E+02  0.10078542787E+03  0.10000000000E+01 0.  0.
    9000005    1    3    3    0    0 -0.27489383529E+02  0.47670116577E+02 -0.10152161931E+02  0.55965816470E+02  0.10000000000E+01 0.  0.
<mgrwt>
<rscale>  0 0.12499990E+03</rscale>
<asrwt>0</asrwt>
<pdfrwt beam="2">  1        4 0.31416801E-01 0.12499990E+03</pdfrwt>
<pdfrwt beam="1">  1       -4 0.77710088E-02 0.12499990E+03</pdfrwt>
<totfact> 0.18211768E+03</totfact>
</mgrwt>
</event>
<event>
 5    1  0.1451195E-002  0.1250019E+03  0.7818608E-02  0.1235066E+00
          4   -1    0    0  501    0  0.00000000000E+00  0.00000000000E+00  0.51474462781E+02  0.51490127390E+02  0.12700000000E+01 0.  1.
         -4   -1    0    0    0  501 -0.00000000000E+00 -0.00000000000E+00 -0.75856944944E+02  0.75867575394E+02  0.12700000000E+01 0.  1.
         25    2    1    2    0    0  0.00000000000E+00  0.00000000000E+00 -0.24382482163E+02  0.12735770278E+03  0.12500191607E+03 0.  0.
    9000005    1    3    3    0    0  0.30091653473E+02 -0.47546602019E+01 -0.67783790293E+02  0.74321979447E+02  0.10000000000E+01 0.  0.
    9000005    1    3    3    0    0 -0.30091653473E+02  0.47546602019E+01  0.43401308131E+02  0.53035723337E+02  0.10000000000E+01 0.  0.
<mgrwt>
<rscale>  0 0.12500192E+03</rscale>
<asrwt>0</asrwt>
<pdfrwt beam="1">  1        4 0.12871903E-01 0.12500192E+03</pdfrwt>
<pdfrwt beam="2">  1       -4 0.18967523E-01 0.12500192E+03</pdfrwt>
<totfact> 0.19706676E+03</totfact>
</mgrwt>
</event>
<event>
 5    1  0.1451195E-002  0.1249994E+03  0.7818608E-02  0.1235070E+00
          4   -1    0    0  501    0  0.00000000000E+00  0.00000000000E+00  0.35827940391E+03  0.35828165480E+03  0.12700000000E+01 0. -1.
         -4   -1    0    0    0  501 -0.00000000000E+00 -0.00000000000E+00 -0.10863422511E+02  0.10937405938E+02  0.12700000000E+01 0. -1.
         25    2    1    2    0    0  0.00000000000E+00  0.00000000000E+00  0.34741598139E+03  0.36921906073E+03  0.12499940272E+03 0.  0.
    9000005    1    3    3    0    0 -0.15378727412E+02  0.55282467465E+02  0.24681333836E+03  0.25339786988E+03  0.10000000000E+01 0.  0.
    9000005    1    3    3    0    0  0.15378727412E+02 -0.55282467465E+02  0.10060264303E+03  0.11582119085E+03  0.10000000000E+01 0.  0.
<mgrwt>
<rscale>  0 0.12499940E+03</rscale>
<asrwt>0</asrwt>
<pdfrwt beam="1">  1        4 0.89579383E-01 0.12499940E+03</pdfrwt>
<pdfrwt beam="2">  1       -4 0.27253848E-02 0.12499940E+03</pdfrwt>
<totfact> 0.11232144E+03</totfact>
</mgrwt>
</event>
<event>
 5    1  0.1451195E-002  0.1249997E+03  0.7818608E-02  0.1235070E+00
         -4   -1    0    0    0  501 -0.00000000000E+00  0.00000000000E+00  0.31647735802E+02  0.31673207627E+02  0.12700000000E+01 0.  1.
          4   -1    0    0  501    0  0.00000000000E+00 -0.00000000000E+00 -0.12335003291E+03  0.12335657063E+03  0.12700000000E+01 0.  1.
         25    2    1    2    0    0  0.00000000000E+00  0.00000000000E+00 -0.91702297104E+02  0.15502977826E+03  0.12499968341E+03 0.  0.
    9000005    1    3    3    0    0 -0.55025908613E+02 -0.29455371081E+01 -0.82405743408E+02  0.99137446780E+02  0.10000000000E+01 0.  0.
    9000005    1    3    3    0    0  0.55025908613E+02  0.29455371081E+01 -0.92965536957E+01  0.55892331479E+02  0.10000000000E+01 0.  0.
<mgrwt>
<rscale>  0 0.12499968E+03</rscale>
<asrwt>0</asrwt>
<pdfrwt beam="2">  1        4 0.30841508E-01 0.12499968E+03</pdfrwt>
<pdfrwt beam="1">  1       -4 0.79159354E-02 0.12499968E+03</pdfrwt>
<totfact> 0.18294334E+03</totfact>
</mgrwt>
</event>
<event>
 5    1  0.1451195E-002  0.1249988E+03  0.7818608E-02  0.1235071E+00
          4   -1    0    0  501    0  0.00000000000E+00  0.00000000000E+00  0.54440492979E+03  0.54440641113E+03  0.12700000000E+01 0.  1.
         -4   -1    0    0    0  501 -0.00000000000E+00 -0.00000000000E+00 -0.71174313402E+01  0.72298498520E+01  0.12700000000E+01 0.  1.
         25    2    1    2    0    0  0.00000000000E+00  0.00000000000E+00  0.53728749845E+03  0.55163626099E+03  0.12499883375E+03 0.  0.
    9000005    1    3    3    0    0 -0.19994233065E+02 -0.50069128265E+02  0.12919367899E+03  0.13999533439E+03  0.10000000000E+01 0.  0.
    9000005    1    3    3    0    0  0.19994233065E+02  0.50069128265E+02  0.40809381947E+03  0.41164092660E+03  0.10000000000E+01 0.  0.
<mgrwt>
<rscale>  0 0.12499883E+03</rscale>
<asrwt>0</asrwt>
<pdfrwt beam="1">  1        4 0.13611549E+00 0.12499883E+03</pdfrwt>
<pdfrwt beam="2">  1       -4 0.17935950E-02 0.12499883E+03</pdfrwt>
<totfact> 0.79941332E+02</totfact>
</mgrwt>
</event>
<event>
 5    1  0.1451195E-002  0.1249940E+03  0.7818608E-02  0.1235079E+00
          4   -1    0    0  501    0  0.00000000000E+00  0.00000000000E+00  0.12574825680E+02  0.12638795073E+02  0.12700000000E+01 0. -1.
         -4   -1    0    0    0  501 -0.00000000000E+00 -0.00000000000E+00 -0.30975756724E+03  0.30976017072E+03  0.12700000000E+01 0. -1.
         25    2    1    2    0    0  0.00000000000E+00  0.00000000000E+00 -0.29718274156E+03  0.32239896579E+03  0.12499404490E+03 0.  0.
    9000005    1    3    3    0    0 -0.12862332473E+00 -0.15889996302E+02 -0.30447182362E+03  0.30488784807E+03  0.10000000000E+01 0.  0.
    9000005    1    3    3    0    0  0.12862332473E+00  0.15889996302E+02  0.72890820566E+01  0.17511117716E+02  0.10000000000E+01 0.  0.
<mgrwt>
<rscale>  0 0.12499404E+03</rscale>
<asrwt>0</asrwt>
<pdfrwt beam="1">  1        4 0.31520290E-02 0.12499404E+03</pdfrwt>
<pdfrwt beam="2">  1       -4 0.77447689E-01 0.12499404E+03</pdfrwt>
<totfact> 0.12367404E+03</totfact>
</mgrwt>
</event>
