<event>
 8    3  0.1560846E-003  0.1519639E+03  0.7818608E-02  0.1207499E+00
          1   -1    0    0  501    0  0.00000000000E+00  0.00000000000E+00  0.33988531634E+03  0.33988531637E+03  0.50400000000E-02 0. -1.
         -1   -1    0    0    0  501 -0.00000000000E+00 -0.00000000000E+00 -0.60630508937E+02  0.60630509147E+02  0.50400000000E-02 0.  1.
         25    2    1    2    0    0 -0.75782364810E+02 -0.41540577689E+02  0.20776757049E+03  0.25741092346E+03  0.12499773501E+03 0.  0.
         23    2    1    2    0    0  0.75782364810E+02  0.41540577689E+02  0.71487236908E+02  0.14310490206E+03  0.88881952850E+02 0.  0.
        -13    1    4    4    0    0  0.80251531856E+02  0.32993992357E+02  0.88252229551E+02  0.12376339960E+03  0.10566000000E+00 0. -1.
         13    1    4    4    0    0 -0.44691670467E+01  0.85465853323E+01 -0.16764992643E+02  0.19341502457E+02  0.10566000000E+00 0.  1.
    9000005    1    3    3    0    0  0.55512781464E+01 -0.45116832773E+01 -0.15401875836E+02  0.17011459500E+02  0.10000000000E+01 0.  0.
    9000005    1    3    3    0    0 -0.81333642956E+02 -0.37028894412E+02  0.22316944633E+03  0.24039946396E+03  0.10000000000E+01 0.  0.
<mgrwt>
<rscale>  0 0.14442239E+03</rscale>
<asrwt>0</asrwt>
<pdfrwt beam="1">  1        1 0.52290048E-01 0.15196388E+03</pdfrwt>
<pdfrwt beam="2">  1       -1 0.93277707E-02 0.15196388E+03</pdfrwt>
<totfact> 0.49046093E+03</totfact>
</mgrwt>
</event>
<event>
 8    3  0.1560846E-003  0.1327595E+03  0.7818608E-02  0.1236003E+00
          1   -1    0    0  501    0  0.00000000000E+00  0.00000000000E+00  0.38503817776E+02  0.38503818105E+02  0.50400000000E-02 0. -1.
         -1   -1    0    0    0  501 -0.00000000000E+00 -0.00000000000E+00 -0.35996092946E+03  0.35996092950E+03  0.50400000000E-02 0.  1.
         25    2    1    2    0    0  0.10212634491E+02  0.43534692783E+02 -0.17094203157E+03  0.21643998091E+03  0.12500207918E+03 0.  0.
         23    2    1    2    0    0 -0.10212634491E+02 -0.43534692783E+02 -0.15051508012E+03  0.18202476669E+03  0.92079633839E+02 0.  0.
        -13    1    4    4    0    0  0.37598865570E+02 -0.39129425180E+02 -0.76190868406E+02  0.93540612568E+02  0.10566000000E+00 0.  1.
         13    1    4    4    0    0 -0.47811500061E+02 -0.44052676033E+01 -0.74324211710E+02  0.88484154124E+02  0.10566000000E+00 0. -1.
    9000005    1    3    3    0    0  0.37923047141E+01  0.75683139403E+02 -0.16701799688E+03  0.18340755286E+03  0.10000000000E+01 0.  0.
    9000005    1    3    3    0    0  0.64203297769E+01 -0.32148446620E+02 -0.39240346901E+01  0.33032428048E+02  0.10000000000E+01 0.  0.
<mgrwt>
<rscale>  0 0.12440424E+03</rscale>
<asrwt>0</asrwt>
<pdfrwt beam="1">  1        1 0.59236646E-02 0.13275951E+03</pdfrwt>
<pdfrwt beam="2">  1       -1 0.55378602E-01 0.13275951E+03</pdfrwt>
<totfact> 0.42614920E+03</totfact>
</mgrwt>
</event>
<event>
 8    3  0.1560846E-003  0.1388427E+03  0.7818608E-02  0.1226411E+00
          1   -1    0    0  501    0  0.00000000000E+00  0.00000000000E+00  0.78664561032E+02  0.78664561193E+02  0.50400000000E-02 0. -1.
         -1   -1    0    0    0  501 -0.00000000000E+00 -0.00000000000E+00 -0.19870587595E+03  0.19870587601E+03  0.50400000000E-02 0.  1.
         25    2    1    2    0    0  0.14005675778E+02 -0.58777421451E+02 -0.85157038609E+02  0.16287727923E+03  0.12500537044E+03 0.  0.
         23    2    1    2    0    0 -0.14005675778E+02  0.58777421451E+02 -0.34884276307E+02  0.11449315797E+03  0.90778996817E+02 0.  0.
        -13    1    4    4    0    0  0.20277912574E+02 -0.14376061019E+00  0.18854094231E+02  0.27689392170E+02  0.10566000000E+00 0. -1.
         13    1    4    4    0    0 -0.34283588352E+02  0.58921182061E+02 -0.53738370538E+02  0.86803765804E+02  0.10566000000E+00 0.  1.
    9000005    1    3    3    0    0  0.64205499670E+02 -0.51436830131E+02 -0.74573294407E+02  0.11104174855E+03  0.10000000000E+01 0.  0.
    9000005    1    3    3    0    0 -0.50199823892E+02 -0.73405913196E+01 -0.10583744201E+02  0.51835530682E+02  0.10000000000E+01 0.  0.
<mgrwt>
<rscale>  0 0.13070675E+03</rscale>
<asrwt>0</asrwt>
<pdfrwt beam="1">  1        1 0.12102240E-01 0.13884267E+03</pdfrwt>
<pdfrwt beam="2">  1       -1 0.30570134E-01 0.13884267E+03</pdfrwt>
<totfact> 0.46948766E+03</totfact>
</mgrwt>
</event>
<event>
 8    3  0.1560846E-003  0.1427122E+03  0.7818608E-02  0.1220238E+00
          1   -1    0    0  501    0  0.00000000000E+00  0.00000000000E+00  0.10659277458E+04  0.10659277458E+04  0.50400000000E-02 0. -1.
         -1   -1    0    0    0  501 -0.00000000000E+00 -0.00000000000E+00 -0.15589399789E+02  0.15589400604E+02  0.50400000000E-02 0.  1.
         25    2    1    2    0    0  0.62240070759E+02  0.29456264402E+02  0.62711718063E+03  0.64315061715E+03  0.12500104073E+03 0.  0.
         23    2    1    2    0    0 -0.62240070759E+02 -0.29456264402E+02  0.42322116540E+03  0.43836652928E+03  0.91145823983E+02 0.  0.
        -13    1    4    4    0    0 -0.24671973260E+02  0.22208185910E+02  0.27459377217E+03  0.27659295122E+03  0.10566000000E+00 0. -1.
         13    1    4    4    0    0 -0.37568097499E+02 -0.51664450312E+02  0.14862739322E+03  0.16177357805E+03  0.10566000000E+00 0.  1.
    9000005    1    3    3    0    0  0.34914139887E+02 -0.31427796022E+02  0.47135898105E+03  0.47369504171E+03  0.10000000000E+01 0.  0.
    9000005    1    3    3    0    0  0.27325930872E+02  0.60884060424E+02  0.15575819957E+03  0.16945557544E+03  0.10000000000E+01 0.  0.
<mgrwt>
<rscale>  0 0.13498736E+03</rscale>
<asrwt>0</asrwt>
<pdfrwt beam="1">  1        1 0.16398889E+00 0.14271215E+03</pdfrwt>
<pdfrwt beam="2">  1       -1 0.23983692E-02 0.14271215E+03</pdfrwt>
<totfact> 0.72999103E+03</totfact>
</mgrwt>
</event>
<event>
 8    3  0.1560846E-003  0.1503932E+03  0.7818608E-02  0.1209562E+00
          1   -1    0    0  501    0  0.00000000000E+00  0.00000000000E+00  0.42308068091E+02  0.42308068391E+02  0.50400000000E-02 0. -1.
         -1   -1    0    0    0  501 -0.00000000000E+00 -0.00000000000E+00 -0.52503630269E+03  0.52503630271E+03  0.50400000000E-02 0.  1.
         25    2    1    2    0    0 -0.84691317513E+01 -0.83241809146E+02 -0.14822555119E+03  0.21116091451E+03  0.12496876733E+03 0.  0.
         23    2    1    2    0    0  0.84691317513E+01  0.83241809146E+02 -0.33450268341E+03  0.35618345659E+03  0.89295490144E+02 0.  0.
        -13    1    4    4    0    0  0.45396899979E+02  0.24929106138E+02 -0.17204080462E+03  0.17966743856E+03  0.10566000000E+00 0.  1.
         13    1    4    4    0    0 -0.36927768227E+02  0.58312703008E+02 -0.16246187879E+03  0.17651601803E+03  0.10566000000E+00 0. -1.
    9000005    1    3    3    0    0 -0.60522967416E+02 -0.34919819956E+02 -0.36691685076E+02  0.78928468655E+02  0.10000000000E+01 0.  0.
    9000005    1    3    3    0    0  0.52053835664E+02 -0.48321989190E+02 -0.11153386611E+03  0.13223244585E+03  0.10000000000E+01 0.  0.
<mgrwt>
<rscale>  0 0.14283696E+03</rscale>
<asrwt>0</asrwt>
<pdfrwt beam="1">  1        1 0.65089340E-02 0.15039321E+03</pdfrwt>
<pdfrwt beam="2">  1       -1 0.80774811E-01 0.15039321E+03</pdfrwt>
<totfact> 0.18045290E+03</totfact>
</mgrwt>
</event>
<event>
 8    3  0.1560846E-003  0.1296429E+03  0.7818608E-02  0.1242645E+00
         -1   -1    0    0    0  501 -0.00000000000E+00  0.00000000000E+00  0.10255309544E+02  0.10255310783E+02  0.50400000000E-02 0.  1.
          1   -1    0    0  501    0  0.00000000000E+00 -0.00000000000E+00 -0.17311203586E+04  0.17311203586E+04  0.50400000000E-02 0. -1.
         25    2    1    2    0    0 -0.31719186920E+02  0.13263952397E+02 -0.49301853095E+03  0.50977893573E+03  0.12500100879E+03 0.  0.
         23    2    1    2    0    0  0.31719186920E+02 -0.13263952397E+02 -0.12278465181E+04  0.12315967336E+04  0.89673870742E+02 0.  0.
        -13    1    4    4    0    0  0.25414766407E+02 -0.38797548036E+02 -0.31744208757E+03  0.32081248449E+03  0.10566000000E+00 0.  1.
         13    1    4    4    0    0  0.63044205133E+01  0.25533595639E+02 -0.91040443050E+03  0.91078424913E+03  0.10566000000E+00 0. -1.
    9000005    1    3    3    0    0 -0.44695086448E-01 -0.37317071320E+02 -0.48160236679E+02  0.60934179296E+02  0.10000000000E+01 0.  0.
    9000005    1    3    3    0    0 -0.31674491834E+02  0.50581023717E+02 -0.44485829428E+03  0.44884475643E+03  0.10000000000E+01 0.  0.
<mgrwt>
<rscale>  0 0.12027442E+03</rscale>
<asrwt>0</asrwt>
<pdfrwt beam="2">  1        1 0.26632598E+00 0.12964294E+03</pdfrwt>
<pdfrwt beam="1">  1       -1 0.15777414E-02 0.12964294E+03</pdfrwt>
<totfact> 0.48205302E+03</totfact>
</mgrwt>
</event>
<event>
 8    3  0.1560846E-003  0.1399113E+03  0.7818608E-02  0.1224526E+00
         -1   -1    0    0    0  501 -0.00000000000E+00  0.00000000000E+00  0.21572084252E+03  0.21572084257E+03  0.50400000000E-02 0.  1.
          1   -1    0    0  501    0  0.00000000000E+00 -0.00000000000E+00 -0.81534969953E+02  0.81534970109E+02  0.50400000000E-02 0. -1.
         25    2    1    2    0    0 -0.85057198215E+01  0.62251914136E+02  0.12222658383E+03  0.18578079846E+03  0.12501007639E+03 0.  0.
         23    2    1    2    0    0  0.85057198215E+01 -0.62251914136E+02  0.11959288729E+02  0.11147501422E+03  0.91301731228E+02 0.  0.
        -13    1    4    4    0    0 -0.14755986941E+02 -0.47284327212E+01  0.40362110170E+02  0.43234341998E+02  0.10566000000E+00 0.  1.
         13    1    4    4    0    0  0.23261706762E+02 -0.57523481415E+02 -0.28402821441E+02  0.68240672223E+02  0.10566000000E+00 0. -1.
    9000005    1    3    3    0    0  0.20098245469E+02 -0.17533586335E+01 -0.19237858814E+02  0.27894604303E+02  0.10000000000E+01 0.  0.
    9000005    1    3    3    0    0 -0.28603965291E+02  0.64005272769E+02  0.14146444265E+03  0.15788619416E+03  0.10000000000E+01 0.  0.
<mgrwt>
<rscale>  0 0.13199440E+03</rscale>
<asrwt>0</asrwt>
<pdfrwt beam="2">  1        1 0.12543842E-01 0.13991128E+03</pdfrwt>
<pdfrwt beam="1">  1       -1 0.33187822E-01 0.13991128E+03</pdfrwt>
<totfact> 0.38990149E+03</totfact>
</mgrwt>
</event>
<event>
 8    3  0.1560846E-003  0.1347438E+03  0.7818608E-02  0.1233669E+00
         -1   -1    0    0    0  501 -0.00000000000E+00  0.00000000000E+00  0.32666459569E+02  0.32666459958E+02  0.50400000000E-02 0.  1.
          1   -1    0    0  501    0  0.00000000000E+00 -0.00000000000E+00 -0.65632760601E+03  0.65632760603E+03  0.50400000000E-02 0. -1.
         25    2    1    2    0    0 -0.18919918294E+02  0.46638254465E+02 -0.13907253469E+03  0.19364156443E+03  0.12499118162E+03 0.  0.
         23    2    1    2    0    0  0.18919918294E+02 -0.46638254465E+02 -0.48458861175E+03  0.49535250156E+03  0.89525907270E+02 0.  0.
        -13    1    4    4    0    0 -0.62619819257E+01 -0.11465537695E+02 -0.40118925572E+03  0.40140191958E+03  0.10566000000E+00 0. -1.
         13    1    4    4    0    0  0.25181900219E+02 -0.35172716770E+02 -0.83399356029E+02  0.93950581977E+02  0.10566000000E+00 0.  1.
    9000005    1    3    3    0    0  0.28948447887E+02 -0.34419919585E+01 -0.11751377931E+03  0.12107992514E+03  0.10000000000E+01 0.  0.
    9000005    1    3    3    0    0 -0.47868366181E+02  0.50080246423E+02 -0.21558755373E+02  0.72561639286E+02  0.10000000000E+01 0.  0.
<mgrwt>
<rscale>  0 0.12590057E+03</rscale>
<asrwt>0</asrwt>
<pdfrwt beam="2">  1        1 0.10097347E+00 0.13474378E+03</pdfrwt>
<pdfrwt beam="1">  1       -1 0.50256097E-02 0.13474378E+03</pdfrwt>
<totfact> 0.52303216E+03</totfact>
</mgrwt>
</event>
<event>
 8    3  0.1560846E-003  0.1332250E+03  0.7818608E-02  0.1234999E+00
          1   -1    0    0  501    0  0.00000000000E+00  0.00000000000E+00  0.80854375509E+02  0.80854375666E+02  0.50400000000E-02 0. -1.
         -1   -1    0    0    0  501 -0.00000000000E+00 -0.00000000000E+00 -0.19734391783E+03  0.19734391789E+03  0.50400000000E-02 0.  1.
         25    2    1    2    0    0 -0.16845927653E+01  0.46046140774E+02 -0.11307893338E+03  0.17474479748E+03  0.12500325651E+03 0.  0.
         23    2    1    2    0    0  0.16845927653E+01 -0.46046140774E+02 -0.34106089386E+01  0.10345349608E+03  0.92562998354E+02 0.  0.
        -13    1    4    4    0    0  0.41297752175E+02 -0.47392814452E+02 -0.87187222826E+01  0.63463457822E+02  0.10566000000E+00 0.  1.
         13    1    4    4    0    0 -0.39613159410E+02  0.13466736776E+01  0.53081133440E+01  0.39990038256E+02  0.10566000000E+00 0. -1.
    9000005    1    3    3    0    0  0.51573519305E+02  0.53644005668E+02 -0.88379906899E+02  0.11554010205E+03  0.10000000000E+01 0.  0.
    9000005    1    3    3    0    0 -0.53258112070E+02 -0.75978648940E+01 -0.24699026480E+02  0.59204695433E+02  0.10000000000E+01 0.  0.
<mgrwt>
<rscale>  0 0.12504506E+03</rscale>
<asrwt>0</asrwt>
<pdfrwt beam="1">  1        1 0.12439135E-01 0.13322499E+03</pdfrwt>
<pdfrwt beam="2">  1       -1 0.30360603E-01 0.13322499E+03</pdfrwt>
<totfact> 0.45700737E+03</totfact>
</mgrwt>
</event>
<event>
 8    3  0.1560846E-003  0.1284788E+03  0.7818608E-02  0.1244087E+00
          1   -1    0    0  501    0  0.00000000000E+00  0.00000000000E+00  0.43956238315E+03  0.43956238318E+03  0.50400000000E-02 0. -1.
         -1   -1    0    0    0  501 -0.00000000000E+00 -0.00000000000E+00 -0.28620062913E+02  0.28620063357E+02  0.50400000000E-02 0.  1.
         25    2    1    2    0    0 -0.28914024078E+02 -0.68379575385E+01  0.23663614733E+03  0.26926470066E+03  0.12499613733E+03 0.  0.
         23    2    1    2    0    0  0.28914024078E+02  0.68379575385E+01  0.17430617290E+03  0.19891774587E+03  0.91119971787E+02 0.  0.
        -13    1    4    4    0    0  0.38154914277E+02 -0.30619678660E+01  0.18014710078E+03  0.18416884160E+03  0.10566000000E+00 0. -1.
         13    1    4    4    0    0 -0.92408901995E+01  0.98999254044E+01 -0.58409278809E+01  0.14748904272E+02  0.10566000000E+00 0.  1.
    9000005    1    3    3    0    0 -0.51746513095E+01  0.10090881687E+02 -0.13371075743E+02  0.17560995869E+02  0.10000000000E+01 0.  0.
    9000005    1    3    3    0    0 -0.23739372769E+02 -0.16928839226E+02  0.25000722308E+03  0.25170370480E+03  0.10000000000E+01 0.  0.
<mgrwt>
<rscale>  0 0.11940220E+03</rscale>
<asrwt>0</asrwt>
<pdfrwt beam="1">  1        1 0.67624980E-01 0.12847884E+03</pdfrwt>
<pdfrwt beam="2">  1       -1 0.44030868E-02 0.12847884E+03</pdfrwt>
<totfact> 0.10787933E+04</totfact>
</mgrwt>
</event>
<event>
 8    3  0.1560846E-003  0.1514614E+03  0.7818608E-02  0.1204180E+00
         -1   -1    0    0    0  501 -0.00000000000E+00  0.00000000000E+00  0.25891559839E+03  0.25891559844E+03  0.50400000000E-02 0.  1.
          1   -1    0    0  501    0  0.00000000000E+00 -0.00000000000E+00 -0.87807779465E+02  0.87807779610E+02  0.50400000000E-02 0. -1.
         25    2    1    2    0    0 -0.81343690874E+02 -0.26421044024E+02  0.14512011169E+03  0.20976271085E+03  0.12500272171E+03 0.  0.
         23    2    1    2    0    0  0.81343690874E+02  0.26421044024E+02  0.25987707235E+02  0.13696066720E+03  0.10376895402E+03 0.  0.
        -13    1    4    4    0    0  0.10640563915E+03  0.23864586755E+02  0.17944334821E+02  0.11051555935E+03  0.10566000000E+00 0. -1.
         13    1    4    4    0    0 -0.25061948272E+02  0.25564572690E+01  0.80433724137E+01  0.26445107842E+02  0.10566000000E+00 0.  1.
    9000005    1    3    3    0    0 -0.83413452264E+02  0.30839242888E+02  0.60501935852E+02  0.10756554821E+03  0.10000000000E+01 0.  0.
    9000005    1    3    3    0    0  0.20697613898E+01 -0.57260286912E+02  0.84618175839E+02  0.10219716264E+03  0.10000000000E+01 0.  0.
<mgrwt>
<rscale>  0 0.14702284E+03</rscale>
<asrwt>0</asrwt>
<pdfrwt beam="2">  1        1 0.13508889E-01 0.15146137E+03</pdfrwt>
<pdfrwt beam="1">  1       -1 0.39833169E-01 0.15146137E+03</pdfrwt>
<totfact> 0.25914761E+03</totfact>
</mgrwt>
</event>
<event>
 8    3  0.1560846E-003  0.1471379E+03  0.7818608E-02  0.1213831E+00
         -1   -1    0    0    0  501 -0.00000000000E+00  0.00000000000E+00  0.10201322001E+02  0.10201323246E+02  0.50400000000E-02 0.  1.
          1   -1    0    0  501    0  0.00000000000E+00 -0.00000000000E+00 -0.17716155960E+04  0.17716155960E+04  0.50400000000E-02 0. -1.
         25    2    1    2    0    0  0.75526518656E+02 -0.17890539937E+02 -0.10894534543E+04  0.10993445238E+04  0.12500090604E+03 0.  0.
         23    2    1    2    0    0 -0.75526518656E+02  0.17890539937E+02 -0.67196081967E+03  0.68247239541E+03  0.90625056621E+02 0.  0.
        -13    1    4    4    0    0 -0.27318800758E+02 -0.37161332847E+02 -0.26611582222E+03  0.27008317892E+03  0.10566000000E+00 0. -1.
         13    1    4    4    0    0 -0.48207717898E+02  0.55051872784E+02 -0.40584499745E+03  0.41238921650E+03  0.10566000000E+00 0.  1.
    9000005    1    3    3    0    0  0.24375225680E+02  0.44515458294E+02 -0.20397255082E+03  0.21019414631E+03  0.10000000000E+01 0.  0.
    9000005    1    3    3    0    0  0.51151292976E+02 -0.62405998231E+02 -0.88548090351E+03  0.88915037754E+03  0.10000000000E+01 0.  0.
<mgrwt>
<rscale>  0 0.13962768E+03</rscale>
<asrwt>0</asrwt>
<pdfrwt beam="2">  1        1 0.27255600E+00 0.14713787E+03</pdfrwt>
<pdfrwt beam="1">  1       -1 0.15694357E-02 0.14713787E+03</pdfrwt>
<totfact> 0.45911452E+03</totfact>
</mgrwt>
</event>
<event>
 8    3  0.1560846E-003  0.1266683E+03  0.7818608E-02  0.1247220E+00
          1   -1    0    0  501    0  0.00000000000E+00  0.00000000000E+00  0.38474900047E+03  0.38474900050E+03  0.50400000000E-02 0. -1.
         -1   -1    0    0    0  501 -0.00000000000E+00 -0.00000000000E+00 -0.32512329903E+02  0.32512330293E+02  0.50400000000E-02 0.  1.
         25    2    1    2    0    0  0.77000539372E+01  0.19005180582E+02  0.16720909611E+03  0.20977068529E+03  0.12499748343E+03 0.  0.
         23    2    1    2    0    0 -0.77000539372E+01 -0.19005180582E+02  0.18502757445E+03  0.20749064551E+03  0.91633383361E+02 0.  0.
        -13    1    4    4    0    0 -0.87638743044E+01 -0.32968317707E+02  0.15644544518E+02  0.37529700271E+02  0.10566000000E+00 0.  1.
         13    1    4    4    0    0  0.10638203673E+01  0.13963137125E+02  0.16938302993E+03  0.16996094524E+03  0.10566000000E+00 0. -1.
    9000005    1    3    3    0    0  0.54667021306E+02  0.13889244054E+02  0.28439846849E+02  0.63176096806E+02  0.10000000000E+01 0.  0.
    9000005    1    3    3    0    0 -0.46966967368E+02  0.51159365276E+01  0.13876924926E+03  0.14659458848E+03  0.10000000000E+01 0.  0.
<mgrwt>
<rscale>  0 0.11753496E+03</rscale>
<asrwt>0</asrwt>
<pdfrwt beam="1">  1        1 0.59192157E-01 0.12666830E+03</pdfrwt>
<pdfrwt beam="2">  1       -1 0.50018967E-02 0.12666830E+03</pdfrwt>
<totfact> 0.10565097E+04</totfact>
</mgrwt>
</event>
<event>
 8    3  0.1560846E-003  0.1377771E+03  0.7818608E-02  0.1227517E+00
         -1   -1    0    0    0  501 -0.00000000000E+00  0.00000000000E+00  0.20093946767E+02  0.20093947399E+02  0.50400000000E-02 0.  1.
          1   -1    0    0  501    0  0.00000000000E+00 -0.00000000000E+00 -0.32475357883E+04  0.32475357883E+04  0.50400000000E-02 0. -1.
         25    2    1    2    0    0 -0.53588084527E+02  0.22030449591E+02 -0.30857408023E+04  0.30888151192E+04  0.12500207199E+03 0.  0.
         23    2    1    2    0    0  0.53588084527E+02 -0.22030449591E+02 -0.14170103928E+03  0.17881461656E+03  0.92403782671E+02 0.  0.
        -13    1    4    4    0    0  0.63642345492E+02  0.19037278093E+02 -0.93534374028E+02  0.11472339075E+03  0.10566000000E+00 0. -1.
         13    1    4    4    0    0 -0.10054260965E+02 -0.41067727683E+02 -0.48166665248E+02  0.64091225809E+02  0.10566000000E+00 0.  1.
    9000005    1    3    3    0    0 -0.23676998764E+02  0.23915522971E+02 -0.19271460104E+03  0.19563350930E+03  0.10000000000E+01 0.  0.
    9000005    1    3    3    0    0 -0.29911085763E+02 -0.18850733803E+01 -0.28930262012E+04  0.28931816099E+04  0.10000000000E+01 0.  0.
<mgrwt>
<rscale>  0 0.12995879E+03</rscale>
<asrwt>0</asrwt>
<pdfrwt beam="2">  1        1 0.49962047E+00 0.13777714E+03</pdfrwt>
<pdfrwt beam="1">  1       -1 0.30913790E-02 0.13777714E+03</pdfrwt>
<totfact> 0.18261854E+02</totfact>
</mgrwt>
</event>
<event>
 8    3  0.1560846E-003  0.1908662E+03  0.7818608E-02  0.1165540E+00
         -1   -1    0    0    0  501 -0.00000000000E+00  0.00000000000E+00  0.29442239600E+03  0.29442239604E+03  0.50400000000E-02 0.  1.
          1   -1    0    0  501    0  0.00000000000E+00 -0.00000000000E+00 -0.11072950278E+03  0.11072950289E+03  0.50400000000E-02 0. -1.
         25    2    1    2    0    0  0.32101579988E+01 -0.14418726613E+03  0.14957412046E+03  0.24249187689E+03  0.12501847869E+03 0.  0.
         23    2    1    2    0    0 -0.32101579988E+01  0.14418726613E+03  0.34118772755E+02  0.16266002204E+03  0.67036701049E+02 0.  0.
        -13    1    4    4    0    0  0.25616328205E+02  0.75623637100E+02 -0.22309710790E+01  0.79875648072E+02  0.10566000000E+00 0. -1.
         13    1    4    4    0    0 -0.28826486203E+02  0.68563629034E+02  0.36349743834E+02  0.82784373972E+02  0.10566000000E+00 0.  1.
    9000005    1    3    3    0    0  0.39059703413E+02 -0.12576736014E+03  0.15318385914E+03  0.20201332631E+03  0.10000000000E+01 0.  0.
    9000005    1    3    3    0    0 -0.35849545415E+02 -0.18419905999E+02 -0.36097386750E+01  0.40478550576E+02  0.10000000000E+01 0.  0.
<mgrwt>
<rscale>  0 0.18235779E+03</rscale>
<asrwt>0</asrwt>
<pdfrwt beam="2">  1        1 0.17035308E-01 0.19086616E+03</pdfrwt>
<pdfrwt beam="1">  1       -1 0.45295753E-01 0.19086616E+03</pdfrwt>
<totfact> 0.15369982E+03</totfact>
</mgrwt>
</event>
<event>
 8    3  0.1560846E-003  0.1924442E+03  0.7818608E-02  0.1160034E+00
          1   -1    0    0  501    0  0.00000000000E+00  0.00000000000E+00  0.40732683036E+02  0.40732683348E+02  0.50400000000E-02 0. -1.
         -1   -1    0    0    0  501 -0.00000000000E+00 -0.00000000000E+00 -0.87108364049E+03  0.87108364050E+03  0.50400000000E-02 0.  1.
         25    2    1    2    0    0 -0.89564333344E+02 -0.11572942378E+03 -0.52608151467E+03  0.56017543932E+03  0.12497877180E+03 0.  0.
         23    2    1    2    0    0  0.89564333344E+02  0.11572942378E+03 -0.30426944278E+03  0.35164088453E+03  0.98266721378E+02 0.  0.
        -13    1    4    4    0    0  0.10015982421E+02  0.75782885253E+02 -0.20242891998E+03  0.21638124782E+03  0.10566000000E+00 0.  1.
         13    1    4    4    0    0  0.79548350923E+02  0.39946538523E+02 -0.10184052280E+03  0.13525963671E+03  0.10566000000E+00 0. -1.
    9000005    1    3    3    0    0  0.33046925877E+01  0.10765255605E+01 -0.21623610279E+03  0.21626634516E+03  0.10000000000E+01 0.  0.
    9000005    1    3    3    0    0 -0.92869025932E+02 -0.11680594934E+03 -0.30984541188E+03  0.34390909416E+03  0.10000000000E+01 0.  0.
<mgrwt>
<rscale>  0 0.18826679E+03</rscale>
<asrwt>0</asrwt>
<pdfrwt beam="1">  1        1 0.62665673E-02 0.19244418E+03</pdfrwt>
<pdfrwt beam="2">  1       -1 0.13401285E+00 0.19244418E+03</pdfrwt>
<totfact> 0.61233040E+02</totfact>
</mgrwt>
</event>
<event>
 8    3  0.1560846E-003  0.1306158E+03  0.7818608E-02  0.1239849E+00
         -1   -1    0    0    0  501 -0.00000000000E+00  0.00000000000E+00  0.37190925684E+03  0.37190925687E+03  0.50400000000E-02 0.  1.
          1   -1    0    0  501    0  0.00000000000E+00 -0.00000000000E+00 -0.44339036410E+02  0.44339036696E+02  0.50400000000E-02 0. -1.
         25    2    1    2    0    0 -0.37481478054E+02 -0.55346843782E+01  0.89699566960E+02  0.15845033478E+03  0.12500000941E+03 0.  0.
         23    2    1    2    0    0  0.37481478054E+02  0.55346843782E+01  0.23787065347E+03  0.25779795879E+03  0.91879518087E+02 0.  0.
        -13    1    4    4    0    0  0.67125703518E+02  0.10975677342E+02  0.14502803563E+03  0.16018572923E+03  0.10566000000E+00 0. -1.
         13    1    4    4    0    0 -0.29644225463E+02 -0.54409929634E+01  0.92842617839E+02  0.97612229556E+02  0.10566000000E+00 0.  1.
    9000005    1    3    3    0    0  0.17122824648E+02  0.38879390990E+02 -0.23616615326E+01  0.42560258609E+02  0.10000000000E+01 0.  0.
    9000005    1    3    3    0    0 -0.54604302702E+02 -0.44414075368E+02  0.92061228493E+02  0.11589007618E+03  0.10000000000E+01 0.  0.
<mgrwt>
<rscale>  0 0.12199074E+03</rscale>
<asrwt>0</asrwt>
<pdfrwt beam="2">  1        1 0.68213902E-02 0.13061583E+03</pdfrwt>
<pdfrwt beam="1">  1       -1 0.57216809E-01 0.13061583E+03</pdfrwt>
<totfact> 0.33087156E+03</totfact>
</mgrwt>
</event>
<event>
 8    3  0.1560846E-003  0.2825580E+03  0.7818608E-02  0.1096060E+00
          1   -1    0    0  501    0  0.00000000000E+00  0.00000000000E+00  0.21111732786E+04  0.21111732786E+04  0.50400000000E-02 0. -1.
         -1   -1    0    0    0  501 -0.00000000000E+00 -0.00000000000E+00 -0.38697474022E+02  0.38697474350E+02  0.50400000000E-02 0.  1.
         25    2    1    2    0    0  0.18730181532E+03  0.17067881220E+03  0.13351770774E+04  0.13647479102E+04  0.12500321402E+03 0.  0.
         23    2    1    2    0    0 -0.18730181532E+03 -0.17067881220E+03  0.73729872718E+03  0.78512284272E+03  0.92710506997E+02 0.  0.
        -13    1    4    4    0    0 -0.15402556093E+02 -0.35249537798E+02  0.45742947274E+02  0.59767859578E+02  0.10566000000E+00 0.  1.
         13    1    4    4    0    0 -0.17189925923E+03 -0.13542927440E+03  0.69155577990E+03  0.72535498314E+03  0.10566000000E+00 0. -1.
    9000005    1    3    3    0    0  0.33455728757E+02  0.24401910554E+02  0.54433259622E+03  0.54590632377E+03  0.10000000000E+01 0.  0.
    9000005    1    3    3    0    0  0.15384608657E+03  0.14627690165E+03  0.79084448115E+03  0.81884158643E+03  0.10000000000E+01 0.  0.
<mgrwt>
<rscale>  0 0.27932091E+03</rscale>
<asrwt>0</asrwt>
<pdfrwt beam="1">  1        1 0.32479594E+00 0.28255801E+03</pdfrwt>
<pdfrwt beam="2">  1       -1 0.59534566E-02 0.28255801E+03</pdfrwt>
<totfact> 0.38539348E+02</totfact>
</mgrwt>
</event>
<event>
 8    3  0.1560846E-003  0.1343924E+03  0.7818608E-02  0.1231124E+00
          1   -1    0    0  501    0  0.00000000000E+00  0.00000000000E+00  0.60204335499E+03  0.60204335501E+03  0.50400000000E-02 0. -1.
         -1   -1    0    0    0  501 -0.00000000000E+00 -0.00000000000E+00 -0.27309325536E+02  0.27309326001E+02  0.50400000000E-02 0.  1.
         25    2    1    2    0    0 -0.47654185941E+02 -0.12827245166E+02  0.21593083881E+03  0.25433724847E+03  0.12500339657E+03 0.  0.
         23    2    1    2    0    0  0.47654185941E+02  0.12827245166E+02  0.35880319064E+03  0.37501543254E+03  0.97269652886E+02 0.  0.
        -13    1    4    4    0    0  0.29761266471E+02 -0.12024570046E+02  0.33418698803E+03  0.33572500264E+03  0.10566000000E+00 0. -1.
         13    1    4    4    0    0  0.17892919470E+02  0.24851815212E+02  0.24616202611E+02  0.39290429898E+02  0.10566000000E+00 0.  1.
    9000005    1    3    3    0    0 -0.54105123796E+02  0.47172933892E+01  0.20573636174E+02  0.58085211399E+02  0.10000000000E+01 0.  0.
    9000005    1    3    3    0    0  0.64509378547E+01 -0.17544538555E+02  0.19535720264E+03  0.19625203707E+03  0.10000000000E+01 0.  0.
<mgrwt>
<rscale>  0 0.12755866E+03</rscale>
<asrwt>0</asrwt>
<pdfrwt beam="1">  1        1 0.92622059E-01 0.13439237E+03</pdfrwt>
<pdfrwt beam="2">  1       -1 0.42014345E-02 0.13439237E+03</pdfrwt>
<totfact> 0.76719581E+03</totfact>
</mgrwt>
</event>
<event>
 8    3  0.1560846E-003  0.1824658E+03  0.7818608E-02  0.1171261E+00
          1   -1    0    0  501    0  0.00000000000E+00  0.00000000000E+00  0.36423968279E+02  0.36423968627E+02  0.50400000000E-02 0. -1.
         -1   -1    0    0    0  501 -0.00000000000E+00 -0.00000000000E+00 -0.80333840915E+03  0.80333840916E+03  0.50400000000E-02 0.  1.
         25    2    1    2    0    0 -0.10800940174E+03 -0.77477096332E+02 -0.40888399109E+03  0.44774978939E+03  0.12500009764E+03 0.  0.
         23    2    1    2    0    0  0.10800940174E+03  0.77477096332E+02 -0.35803044978E+03  0.39201258840E+03  0.88427004792E+02 0.  0.
        -13    1    4    4    0    0  0.65763150312E+02  0.81296907064E+02 -0.31364792470E+03  0.33061913264E+03  0.10566000000E+00 0.  1.
         13    1    4    4    0    0  0.42246251425E+02 -0.38198107328E+01 -0.44382525081E+02  0.61393455760E+02  0.10566000000E+00 0. -1.
    9000005    1    3    3    0    0 -0.12834709389E+03 -0.90296738576E+02 -0.33265827800E+03  0.36781654045E+03  0.10000000000E+01 0.  0.
    9000005    1    3    3    0    0  0.20337692157E+02  0.12819642245E+02 -0.76225713085E+02  0.79933248933E+02  0.10000000000E+01 0.  0.
<mgrwt>
<rscale>  0 0.17647295E+03</rscale>
<asrwt>0</asrwt>
<pdfrwt beam="1">  1        1 0.56036881E-02 0.18246577E+03</pdfrwt>
<pdfrwt beam="2">  1       -1 0.12359051E+00 0.18246577E+03</pdfrwt>
<totfact> 0.86859563E+02</totfact>
</mgrwt>
</event>
<event>
 8    3  0.1560846E-003  0.1276669E+03  0.7818608E-02  0.1243941E+00
          1   -1    0    0  501    0  0.00000000000E+00  0.00000000000E+00  0.78257538739E+03  0.78257538741E+03  0.50400000000E-02 0. -1.
         -1   -1    0    0    0  501 -0.00000000000E+00 -0.00000000000E+00 -0.16279123923E+02  0.16279124703E+02  0.50400000000E-02 0.  1.
         25    2    1    2    0    0 -0.22757648988E+02 -0.12486354012E+02  0.44557982537E+03  0.46350860803E+03  0.12500011726E+03 0.  0.
         23    2    1    2    0    0  0.22757648988E+02  0.12486354012E+02  0.32071643810E+03  0.33534590408E+03  0.94467042371E+02 0.  0.
        -13    1    4    4    0    0 -0.26647735760E+02  0.61521259204E+01  0.23197117755E+03  0.23357780043E+03  0.10566000000E+00 0. -1.
         13    1    4    4    0    0  0.49405384748E+02  0.63342280914E+01  0.88745260544E+02  0.10176810365E+03  0.10566000000E+00 0.  1.
    9000005    1    3    3    0    0 -0.58906441506E+02  0.20627536283E+02  0.13078444071E+03  0.14491733518E+03  0.10000000000E+01 0.  0.
    9000005    1    3    3    0    0  0.36148792518E+02 -0.33113890295E+02  0.31479538466E+03  0.31859127285E+03  0.10000000000E+01 0.  0.
<mgrwt>
<rscale>  0 0.11948972E+03</rscale>
<asrwt>0</asrwt>
<pdfrwt beam="1">  1        1 0.12039619E+00 0.12766695E+03</pdfrwt>
<pdfrwt beam="2">  1       -1 0.25044812E-02 0.12766695E+03</pdfrwt>
<totfact> 0.11203031E+04</totfact>
</mgrwt>
</event>
<event>
 8    3  0.1560846E-003  0.1316448E+03  0.7818608E-02  0.1239229E+00
          1   -1    0    0  501    0  0.00000000000E+00  0.00000000000E+00  0.15461274662E+04  0.15461274663E+04  0.50400000000E-02 0. -1.
         -1   -1    0    0    0  501 -0.00000000000E+00 -0.00000000000E+00 -0.19378003350E+02  0.19378004006E+02  0.50400000000E-02 0.  1.
         25    2    1    2    0    0  0.17555807228E+02  0.37382699826E+02  0.13946157334E+04  0.14008152644E+04  0.12499875376E+03 0.  0.
         23    2    1    2    0    0 -0.17555807228E+02 -0.37382699826E+02  0.13213372947E+03  0.16469020586E+03  0.89206887789E+02 0.  0.
        -13    1    4    4    0    0  0.10479788572E+02  0.10657619400E+02 -0.57460165898E+01  0.16013703209E+02  0.10566000000E+00 0.  1.
         13    1    4    4    0    0 -0.28035595800E+02 -0.48040319226E+02  0.13787974606E+03  0.14867650265E+03  0.10566000000E+00 0. -1.
    9000005    1    3    3    0    0  0.24075009523E+02  0.58829119664E+02  0.33596757987E+03  0.34192935839E+03  0.10000000000E+01 0.  0.
    9000005    1    3    3    0    0 -0.65192022948E+01 -0.21446419839E+02  0.10586481536E+04  0.10588859060E+04  0.10000000000E+01 0.  0.
<mgrwt>
<rscale>  0 0.12237562E+03</rscale>
<asrwt>0</asrwt>
<pdfrwt beam="1">  1        1 0.23786579E+00 0.13164483E+03</pdfrwt>
<pdfrwt beam="2">  1       -1 0.29812310E-02 0.13164483E+03</pdfrwt>
<totfact> 0.25268291E+03</totfact>
</mgrwt>
</event>
<event>
 8    3  0.1560846E-003  0.1987813E+03  0.7818608E-02  0.1155446E+00
         -1   -1    0    0    0  501 -0.00000000000E+00  0.00000000000E+00  0.25902906194E+02  0.25902906684E+02  0.50400000000E-02 0.  1.
          1   -1    0    0  501    0  0.00000000000E+00 -0.00000000000E+00 -0.13769665091E+04  0.13769665091E+04  0.50400000000E-02 0. -1.
         25    2    1    2    0    0  0.12049572788E+03 -0.96800685621E+02 -0.66459438580E+03  0.69368559889E+03  0.12499767715E+03 0.  0.
         23    2    1    2    0    0 -0.12049572788E+03  0.96800685621E+02 -0.68646921710E+03  0.70918381690E+03  0.88386124215E+02 0.  0.
        -13    1    4    4    0    0 -0.60691418967E+01  0.49071537581E+02 -0.13037830757E+03  0.13943946548E+03  0.10566000000E+00 0.  1.
         13    1    4    4    0    0 -0.11442658598E+03  0.47729148040E+02 -0.55609090953E+03  0.56974435142E+03  0.10566000000E+00 0. -1.
    9000005    1    3    3    0    0  0.60130948703E+02  0.15255610786E+02 -0.32824857152E+03  0.33406075699E+03  0.10000000000E+01 0.  0.
    9000005    1    3    3    0    0  0.60364779174E+02 -0.11205629641E+03 -0.33634581427E+03  0.35962484190E+03  0.10000000000E+01 0.  0.
<mgrwt>
<rscale>  0 0.19338242E+03</rscale>
<asrwt>0</asrwt>
<pdfrwt beam="2">  1        1 0.21184094E+00 0.19878132E+03</pdfrwt>
<pdfrwt beam="1">  1       -1 0.39850636E-02 0.19878132E+03</pdfrwt>
<totfact> 0.21374526E+03</totfact>
</mgrwt>
</event>
<event>
 8    3  0.1560846E-003  0.1778622E+03  0.7818608E-02  0.1175784E+00
          1   -1    0    0  501    0  0.00000000000E+00  0.00000000000E+00  0.28230943128E+03  0.28230943133E+03  0.50400000000E-02 0. -1.
         -1   -1    0    0    0  501 -0.00000000000E+00 -0.00000000000E+00 -0.10297172044E+03  0.10297172056E+03  0.50400000000E-02 0.  1.
         25    2    1    2    0    0 -0.11382130273E+03 -0.55275962064E+02  0.55032985994E+02  0.18618158042E+03  0.12499692157E+03 0.  0.
         23    2    1    2    0    0  0.11382130273E+03  0.55275962064E+02  0.12430472485E+03  0.19909957147E+03  0.90433698385E+02 0.  0.
        -13    1    4    4    0    0  0.11883283340E+03  0.68460783078E+02  0.95780766342E+02  0.16727847285E+03  0.10566000000E+00 0.  1.
         13    1    4    4    0    0 -0.50115306667E+01 -0.13184821014E+02  0.28523958510E+02  0.31821098628E+02  0.10566000000E+00 0. -1.
    9000005    1    3    3    0    0 -0.12283917458E+01  0.29396298687E+02  0.31909672018E+02  0.43415187332E+02  0.10000000000E+01 0.  0.
    9000005    1    3    3    0    0 -0.11259291098E+03 -0.84672260751E+02  0.23123313976E+02  0.14276639308E+03  0.10000000000E+01 0.  0.
<mgrwt>
<rscale>  0 0.17199462E+03</rscale>
<asrwt>0</asrwt>
<pdfrwt beam="1">  1        1 0.43432219E-01 0.17786217E+03</pdfrwt>
<pdfrwt beam="2">  1       -1 0.15841803E-01 0.17786217E+03</pdfrwt>
<totfact> 0.27358193E+03</totfact>
</mgrwt>
</event>
<event>
 8    3  0.1560846E-003  0.1545500E+03  0.7818608E-02  0.1201446E+00
          1   -1    0    0  501    0  0.00000000000E+00  0.00000000000E+00  0.18704287268E+03  0.18704287275E+03  0.50400000000E-02 0. -1.
         -1   -1    0    0    0  501 -0.00000000000E+00 -0.00000000000E+00 -0.13202781240E+03  0.13202781250E+03  0.50400000000E-02 0.  1.
         25    2    1    2    0    0 -0.72556126316E+02  0.54738335325E+02 -0.33639017895E+02  0.15816855790E+03  0.12500012945E+03 0.  0.
         23    2    1    2    0    0  0.72556126316E+02 -0.54738335325E+02  0.88654078175E+02  0.16090212734E+03  0.98839628624E+02 0.  0.
        -13    1    4    4    0    0  0.81875576027E+02 -0.29045063055E+02  0.23122456641E+02  0.89899303683E+02  0.10566000000E+00 0.  1.
         13    1    4    4    0    0 -0.93194497103E+01 -0.25693272270E+02  0.65531621534E+02  0.71002823661E+02  0.10566000000E+00 0. -1.
    9000005    1    3    3    0    0 -0.56018615772E+02  0.52135478618E+02  0.37396353943E+02  0.85180283704E+02  0.10000000000E+01 0.  0.
    9000005    1    3    3    0    0 -0.16537510545E+02  0.26028567073E+01 -0.71035371838E+02  0.72988274197E+02  0.10000000000E+01 0.  0.
<mgrwt>
<rscale>  0 0.14921109E+03</rscale>
<asrwt>0</asrwt>
<pdfrwt beam="1">  1        1 0.28775826E-01 0.15455002E+03</pdfrwt>
<pdfrwt beam="2">  1       -1 0.20311971E-01 0.15455002E+03</pdfrwt>
<totfact> 0.30543551E+03</totfact>
</mgrwt>
</event>
<event>
 8    3  0.1560846E-003  0.1788337E+03  0.7818608E-02  0.1174285E+00
         -1   -1    0    0    0  501 -0.00000000000E+00  0.00000000000E+00  0.45143542339E+02  0.45143542621E+02  0.50400000000E-02 0.  1.
          1   -1    0    0  501    0  0.00000000000E+00 -0.00000000000E+00 -0.10616206666E+04  0.10616206666E+04  0.50400000000E-02 0. -1.
         25    2    1    2    0    0 -0.11185063065E+03  0.62014580469E+02 -0.17389329958E+03  0.24944013800E+03  0.12500052414E+03 0.  0.
         23    2    1    2    0    0  0.11185063065E+03 -0.62014580469E+02 -0.84258382471E+03  0.85732407127E+03  0.93277487906E+02 0.  0.
        -13    1    4    4    0    0  0.10802139942E+03 -0.43029098042E+02 -0.46759012398E+03  0.48183053163E+03  0.10566000000E+00 0.  1.
         13    1    4    4    0    0  0.38292312294E+01 -0.18985482427E+02 -0.37499370074E+03  0.37549353964E+03  0.10566000000E+00 0. -1.
    9000005    1    3    3    0    0 -0.89123440239E+02  0.88953717643E+02 -0.80106012692E+02  0.14924384326E+03  0.10000000000E+01 0.  0.
    9000005    1    3    3    0    0 -0.22727190408E+02 -0.26939137174E+02 -0.93787286893E+02  0.10019629473E+03  0.10000000000E+01 0.  0.
<mgrwt>
<rscale>  0 0.17346160E+03</rscale>
<asrwt>0</asrwt>
<pdfrwt beam="2">  1        1 0.16332624E+00 0.17883373E+03</pdfrwt>
<pdfrwt beam="1">  1       -1 0.69451612E-02 0.17883373E+03</pdfrwt>
<totfact> 0.15381143E+03</totfact>
</mgrwt>
</event>
<event>
 8    3  0.1560846E-003  0.1481527E+03  0.7818608E-02  0.1212582E+00
          1   -1    0    0  501    0  0.00000000000E+00  0.00000000000E+00  0.23208484233E+03  0.23208484239E+03  0.50400000000E-02 0. -1.
         -1   -1    0    0    0  501 -0.00000000000E+00 -0.00000000000E+00 -0.79793214429E+02  0.79793214588E+02  0.50400000000E-02 0.  1.
         25    2    1    2    0    0 -0.11858782903E+02 -0.78620614684E+02  0.11036003590E+03  0.18473919092E+03  0.12500959704E+03 0.  0.
         23    2    1    2    0    0  0.11858782903E+02  0.78620614684E+02  0.41931592010E+02  0.12713886606E+03  0.89912185325E+02 0.  0.
        -13    1    4    4    0    0 -0.38447060243E+00  0.36264707622E+02 -0.27068778685E+02  0.45254908906E+02  0.10566000000E+00 0.  1.
         13    1    4    4    0    0  0.12243253506E+02  0.42355907062E+02  0.69000370695E+02  0.81883957157E+02  0.10566000000E+00 0. -1.
    9000005    1    3    3    0    0  0.17762162397E+02 -0.63548867152E+02  0.13023613946E+03  0.14600138681E+03  0.10000000000E+01 0.  0.
    9000005    1    3    3    0    0 -0.29620945300E+02 -0.15071747532E+02 -0.19876103562E+02  0.38737804106E+02  0.10000000000E+01 0.  0.
<mgrwt>
<rscale>  0 0.14055629E+03</rscale>
<asrwt>0</asrwt>
<pdfrwt beam="1">  1        1 0.35705360E-01 0.14815273E+03</pdfrwt>
<pdfrwt beam="2">  1       -1 0.12275879E-01 0.14815273E+03</pdfrwt>
<totfact> 0.51583101E+03</totfact>
</mgrwt>
</event>
<event>
 8    3  0.1560846E-003  0.1459147E+03  0.7818608E-02  0.1219926E+00
         -1   -1    0    0    0  501 -0.00000000000E+00  0.00000000000E+00  0.52760080950E+02  0.52760081191E+02  0.50400000000E-02 0.  1.
          1   -1    0    0  501    0  0.00000000000E+00 -0.00000000000E+00 -0.31384431826E+03  0.31384431830E+03  0.50400000000E-02 0. -1.
         25    2    1    2    0    0 -0.17805402733E+02 -0.73131303043E+02 -0.18100277747E+03  0.23249326300E+03  0.12500356810E+03 0.  0.
         23    2    1    2    0    0  0.17805402733E+02  0.73131303043E+02 -0.80081459840E+02  0.13411113649E+03  0.76860502664E+02 0.  0.
        -13    1    4    4    0    0  0.20793421154E+02  0.67911310115E+02 -0.20077940133E+02  0.73806823864E+02  0.10566000000E+00 0.  1.
         13    1    4    4    0    0 -0.29880184211E+01  0.52199929281E+01 -0.60003519707E+02  0.60304312628E+02  0.10566000000E+00 0. -1.
    9000005    1    3    3    0    0 -0.43728373824E+02 -0.75916579824E+00 -0.13720830017E+03  0.14401341828E+03  0.10000000000E+01 0.  0.
    9000005    1    3    3    0    0  0.25922971091E+02 -0.72372137245E+02 -0.43794477306E+02  0.88479844722E+02  0.10000000000E+01 0.  0.
<mgrwt>
<rscale>  0 0.13520850E+03</rscale>
<asrwt>0</asrwt>
<pdfrwt beam="2">  1        1 0.48283740E-01 0.14591474E+03</pdfrwt>
<pdfrwt beam="1">  1       -1 0.81169358E-02 0.14591474E+03</pdfrwt>
<totfact> 0.66742363E+03</totfact>
</mgrwt>
</event>
<event>
 8    3  0.1560846E-003  0.1455022E+03  0.7818608E-02  0.1222542E+00
          1   -1    0    0  501    0  0.00000000000E+00  0.00000000000E+00  0.51862151536E+03  0.51862151539E+03  0.50400000000E-02 0. -1.
         -1   -1    0    0    0  501 -0.00000000000E+00 -0.00000000000E+00 -0.45775125077E+02  0.45775125354E+02  0.50400000000E-02 0.  1.
         25    2    1    2    0    0 -0.66185562924E+02  0.34108881727E+02  0.97247095912E+02  0.17500827067E+03  0.12500781010E+03 0.  0.
         23    2    1    2    0    0  0.66185562924E+02 -0.34108881727E+02  0.37559929437E+03  0.38938837007E+03  0.70742690525E+02 0.  0.
        -13    1    4    4    0    0  0.57153804485E+02 -0.30023754905E+02  0.37377390255E+03  0.37930848213E+03  0.10566000000E+00 0. -1.
         13    1    4    4    0    0  0.90317584389E+01 -0.40851268223E+01  0.18253918281E+01  0.10079887947E+02  0.10566000000E+00 0.  1.
    9000005    1    3    3    0    0  0.22952917190E+02 -0.28471434254E+02  0.24501233975E+02  0.44031459688E+02  0.10000000000E+01 0.  0.
    9000005    1    3    3    0    0 -0.89138480113E+02  0.62580315981E+02  0.72745861937E+02  0.13097681098E+03  0.10000000000E+01 0.  0.
<mgrwt>
<rscale>  0 0.13336778E+03</rscale>
<asrwt>0</asrwt>
<pdfrwt beam="1">  1        1 0.79787930E-01 0.14550222E+03</pdfrwt>
<pdfrwt beam="2">  1       -1 0.70423266E-02 0.14550222E+03</pdfrwt>
<totfact> 0.43673102E+03</totfact>
</mgrwt>
</event>
<event>
 8    3  0.1560846E-003  0.1583865E+03  0.7818608E-02  0.1198958E+00
         -1   -1    0    0    0  501 -0.00000000000E+00  0.00000000000E+00  0.16600901313E+02  0.16600902078E+02  0.50400000000E-02 0.  1.
          1   -1    0    0  501    0  0.00000000000E+00 -0.00000000000E+00 -0.16010989190E+04  0.16010989190E+04  0.50400000000E-02 0. -1.
         25    2    1    2    0    0 -0.96891580351E+02 -0.85229535468E+01 -0.48176800960E+03  0.50713578859E+03  0.12500269565E+03 0.  0.
         23    2    1    2    0    0  0.96891580351E+02  0.85229535468E+01 -0.11027300081E+04  0.11105640325E+04  0.88760241369E+02 0.  0.
        -13    1    4    4    0    0  0.40281885091E+02  0.37175471411E+02 -0.76255607902E+03  0.76452366265E+03  0.10566000000E+00 0.  1.
         13    1    4    4    0    0  0.56609695261E+02 -0.28652517864E+02 -0.34017392908E+03  0.34604036985E+03  0.10566000000E+00 0. -1.
    9000005    1    3    3    0    0  0.14182966508E+02 -0.20861884561E+02 -0.20499751379E+02  0.32520986655E+02  0.10000000000E+01 0.  0.
    9000005    1    3    3    0    0 -0.11107454686E+03  0.12338931014E+02 -0.46126825822E+03  0.47461480194E+03  0.10000000000E+01 0.  0.
<mgrwt>
<rscale>  0 0.15124001E+03</rscale>
<asrwt>0</asrwt>
<pdfrwt beam="2">  1        1 0.24632279E+00 0.15838653E+03</pdfrwt>
<pdfrwt beam="1">  1       -1 0.25539861E-02 0.15838653E+03</pdfrwt>
<totfact> 0.29230735E+03</totfact>
</mgrwt>
</event>
<event>
 8    3  0.1560846E-003  0.1339080E+03  0.7818608E-02  0.1235171E+00
         -1   -1    0    0    0  501 -0.00000000000E+00  0.00000000000E+00  0.39817201883E+02  0.39817202202E+02  0.50400000000E-02 0.  1.
          1   -1    0    0  501    0  0.00000000000E+00 -0.00000000000E+00 -0.36050545344E+03  0.36050545348E+03  0.50400000000E-02 0. -1.
         25    2    1    2    0    0 -0.12700018180E+02 -0.46330255104E+02 -0.14450097784E+03  0.19700733302E+03  0.12499429453E+03 0.  0.
         23    2    1    2    0    0  0.12700018180E+02  0.46330255104E+02 -0.17618727372E+03  0.20331532266E+03  0.89372154561E+02 0.  0.
        -13    1    4    4    0    0  0.21102106360E+01  0.11274262784E+02 -0.16446452832E+03  0.16486404772E+03  0.10566000000E+00 0. -1.
         13    1    4    4    0    0  0.10589807544E+02  0.35055992321E+02 -0.11722745397E+02  0.38451274948E+02  0.10566000000E+00 0.  1.
    9000005    1    3    3    0    0 -0.64419458451E+02 -0.49814129155E+02 -0.97397030882E+02  0.12695863781E+03  0.10000000000E+01 0.  0.
    9000005    1    3    3    0    0  0.51719440271E+02  0.34838740503E+01 -0.47103946962E+02  0.70048695203E+02  0.10000000000E+01 0.  0.
<mgrwt>
<rscale>  0 0.12493499E+03</rscale>
<asrwt>0</asrwt>
<pdfrwt beam="2">  1        1 0.55462375E-01 0.13390802E+03</pdfrwt>
<pdfrwt beam="1">  1       -1 0.61257236E-02 0.13390802E+03</pdfrwt>
<totfact> 0.85202643E+03</totfact>
</mgrwt>
</event>
<event>
 8    3  0.1560846E-003  0.1304512E+03  0.7818608E-02  0.1240995E+00
         -1   -1    0    0    0  501 -0.00000000000E+00  0.00000000000E+00  0.30304841926E+02  0.30304842345E+02  0.50400000000E-02 0.  1.
          1   -1    0    0  501    0  0.00000000000E+00 -0.00000000000E+00 -0.44342016846E+03  0.44342016849E+03  0.50400000000E-02 0. -1.
         25    2    1    2    0    0  0.37307836038E+02  0.59368688565E+00 -0.27840267463E+03  0.30745009412E+03  0.12500113616E+03 0.  0.
         23    2    1    2    0    0 -0.37307836038E+02 -0.59368688565E+00 -0.13471265191E+03  0.16627491671E+03  0.90042335876E+02 0.  0.
        -13    1    4    4    0    0  0.18420950717E+02 -0.21615469557E+02 -0.81852049379E+02  0.86639073754E+02  0.10566000000E+00 0. -1.
         13    1    4    4    0    0 -0.55728786755E+02  0.21021782672E+02 -0.52860602527E+02  0.79635842957E+02  0.10566000000E+00 0.  1.
    9000005    1    3    3    0    0  0.70988245857E+02 -0.15724230406E+02 -0.91706075561E+02  0.11703668983E+03  0.10000000000E+01 0.  0.
    9000005    1    3    3    0    0 -0.33680409819E+02  0.16317917292E+02 -0.18669659907E+03  0.19041340429E+03  0.10000000000E+01 0.  0.
<mgrwt>
<rscale>  0 0.12128319E+03</rscale>
<asrwt>0</asrwt>
<pdfrwt beam="2">  1        1 0.68218483E-01 0.13045118E+03</pdfrwt>
<pdfrwt beam="1">  1       -1 0.46622837E-02 0.13045118E+03</pdfrwt>
<totfact> 0.98178541E+03</totfact>
</mgrwt>
</event>
<event>
 8    3  0.1560846E-003  0.1535153E+03  0.7818608E-02  0.1205147E+00
          1   -1    0    0  501    0  0.00000000000E+00  0.00000000000E+00  0.26336647082E+04  0.26336647082E+04  0.50400000000E-02 0. -1.
         -1   -1    0    0    0  501 -0.00000000000E+00 -0.00000000000E+00 -0.77573359364E+01  0.77573375737E+01  0.50400000000E-02 0.  1.
         25    2    1    2    0    0  0.86215981346E+02  0.22597766067E+02  0.11694888786E+04  0.11795215922E+04  0.12499237927E+03 0.  0.
         23    2    1    2    0    0 -0.86215981346E+02 -0.22597766067E+02  0.14564184937E+04  0.14619004536E+04  0.89745489894E+02 0.  0.
        -13    1    4    4    0    0 -0.74706286565E+02  0.22379230987E+02  0.10344956218E+04  0.10374309914E+04  0.10566000000E+00 0. -1.
         13    1    4    4    0    0 -0.11509694781E+02 -0.44976997054E+02  0.42192287188E+03  0.42446946217E+03  0.10566000000E+00 0.  1.
    9000005    1    3    3    0    0  0.54507083536E+02  0.74687015952E+02  0.68866896797E+03  0.69484899076E+03  0.10000000000E+01 0.  0.
    9000005    1    3    3    0    0  0.31708897810E+02 -0.52089249885E+02  0.48081991060E+03  0.48467260144E+03  0.10000000000E+01 0.  0.
<mgrwt>
<rscale>  0 0.14625891E+03</rscale>
<asrwt>0</asrwt>
<pdfrwt beam="1">  1        1 0.40517942E+00 0.15351531E+03</pdfrwt>
<pdfrwt beam="2">  1       -1 0.11934357E-02 0.15351531E+03</pdfrwt>
<totfact> 0.18929043E+03</totfact>
</mgrwt>
</event>
<event>
 8    3  0.1560846E-003  0.1401099E+03  0.7818608E-02  0.1224168E+00
         -1   -1    0    0    0  501 -0.00000000000E+00  0.00000000000E+00  0.19844607272E+04  0.19844607272E+04  0.50400000000E-02 0.  1.
          1   -1    0    0  501    0  0.00000000000E+00 -0.00000000000E+00 -0.81953691580E+01  0.81953707077E+01  0.50400000000E-02 0. -1.
         25    2    1    2    0    0  0.34221939043E+02  0.53289867570E+02  0.92922513676E+03  0.93972875555E+03  0.12497931080E+03 0.  0.
         23    2    1    2    0    0 -0.34221939043E+02 -0.53289867570E+02  0.10470402213E+04  0.10529273424E+04  0.91388249863E+02 0.  0.
        -13    1    4    4    0    0 -0.19798119150E+02 -0.31392075597E+02  0.12211192043E+03  0.12762742733E+03  0.10566000000E+00 0. -1.
         13    1    4    4    0    0 -0.14423819894E+02 -0.21897791973E+02  0.92492830084E+03  0.92529991502E+03  0.10566000000E+00 0.  1.
    9000005    1    3    3    0    0  0.43130741128E+02  0.68632580577E+02  0.90979016206E+03  0.91339467424E+03  0.10000000000E+01 0.  0.
    9000005    1    3    3    0    0 -0.89088020845E+01 -0.15342713007E+02  0.19434974697E+02  0.26334081310E+02  0.10000000000E+01 0.  0.
<mgrwt>
<rscale>  0 0.13224097E+03</rscale>
<asrwt>0</asrwt>
<pdfrwt beam="2">  1        1 0.12608261E-02 0.14010988E+03</pdfrwt>
<pdfrwt beam="1">  1       -1 0.30530166E+00 0.14010988E+03</pdfrwt>
<totfact> 0.41562064E+02</totfact>
</mgrwt>
</event>
<event>
 8    3  0.1560846E-003  0.2000274E+03  0.7818608E-02  0.1153875E+00
          1   -1    0    0  501    0  0.00000000000E+00  0.00000000000E+00  0.85905984423E+03  0.85905984424E+03  0.50400000000E-02 0. -1.
         -1   -1    0    0    0  501 -0.00000000000E+00 -0.00000000000E+00 -0.52134210467E+02  0.52134210711E+02  0.50400000000E-02 0.  1.
         25    2    1    2    0    0 -0.52122562545E+02 -0.14721264172E+03  0.22205193427E+03  0.29886118758E+03  0.12499049772E+03 0.  0.
         23    2    1    2    0    0  0.52122562545E+02  0.14721264172E+03  0.58487369950E+03  0.61233286737E+03  0.92119339430E+02 0.  0.
        -13    1    4    4    0    0  0.33921277638E+02  0.33971173108E+01  0.77721054174E+02  0.84869116341E+02  0.10566000000E+00 0.  1.
         13    1    4    4    0    0  0.18201284908E+02  0.14381552441E+03  0.50715264532E+03  0.52746375103E+03  0.10566000000E+00 0. -1.
    9000005    1    3    3    0    0  0.64634008064E+01  0.11224975241E+02  0.71225423849E+02  0.72400529153E+02  0.10000000000E+01 0.  0.
    9000005    1    3    3    0    0 -0.58585963352E+02 -0.15843761696E+03  0.15082651042E+03  0.22646065843E+03  0.10000000000E+01 0.  0.
<mgrwt>
<rscale>  0 0.19517497E+03</rscale>
<asrwt>0</asrwt>
<pdfrwt beam="1">  1        1 0.13216304E+00 0.20002737E+03</pdfrwt>
<pdfrwt beam="2">  1       -1 0.80206484E-02 0.20002737E+03</pdfrwt>
<totfact> 0.17609260E+03</totfact>
</mgrwt>
</event>
<event>
 8    3  0.1560846E-003  0.1367567E+03  0.7818608E-02  0.1229370E+00
          1   -1    0    0  501    0  0.00000000000E+00  0.00000000000E+00  0.10730421659E+03  0.10730421671E+03  0.50400000000E-02 0.  1.
         -1   -1    0    0    0  501 -0.00000000000E+00 -0.00000000000E+00 -0.14011264331E+03  0.14011264340E+03  0.50400000000E-02 0. -1.
         25    2    1    2    0    0 -0.32137356019E+02  0.45186934186E+02 -0.30231225765E+02  0.14005831249E+03  0.12501094038E+03 0.  0.
         23    2    1    2    0    0  0.32137356019E+02 -0.45186934186E+02 -0.25772009573E+01  0.10735854762E+03  0.91894216953E+02 0.  0.
        -13    1    4    4    0    0  0.11807930089E+02  0.27269482714E+02  0.93766441568E+01  0.31160624515E+02  0.10566000000E+00 0. -1.
         13    1    4    4    0    0  0.20329425930E+02 -0.72456416900E+02 -0.11953845114E+02  0.76197923106E+02  0.10566000000E+00 0.  1.
    9000005    1    3    3    0    0 -0.15043030281E+01  0.50400653693E+02 -0.72051197605E+02  0.87948075002E+02  0.10000000000E+01 0.  0.
    9000005    1    3    3    0    0 -0.30633052990E+02 -0.52137195063E+01  0.41819971840E+02  0.52110237491E+02  0.10000000000E+01 0.  0.
<mgrwt>
<rscale>  0 0.12871803E+03</rscale>
<asrwt>0</asrwt>
<pdfrwt beam="1">  1        1 0.16508341E-01 0.13675673E+03</pdfrwt>
<pdfrwt beam="2">  1       -1 0.21555792E-01 0.13675673E+03</pdfrwt>
<totfact> 0.55747132E+03</totfact>
</mgrwt>
</event>
<event>
 8    3  0.1560846E-003  0.2059357E+03  0.7818608E-02  0.1148774E+00
         -1   -1    0    0    0  501 -0.00000000000E+00  0.00000000000E+00  0.23608298935E+02  0.23608299473E+02  0.50400000000E-02 0.  1.
          1   -1    0    0  501    0  0.00000000000E+00 -0.00000000000E+00 -0.19489604045E+04  0.19489604045E+04  0.50400000000E-02 0. -1.
         25    2    1    2    0    0  0.15172557346E+03 -0.61348844679E+02 -0.60756532288E+03  0.64151782066E+03  0.12500064908E+03 0.  0.
         23    2    1    2    0    0 -0.15172557346E+03  0.61348844679E+02 -0.13177867826E+04  0.13310508833E+04  0.91378985458E+02 0.  0.
        -13    1    4    4    0    0 -0.60047819678E+02  0.61700407705E+02 -0.85115429608E+03  0.85549770768E+03  0.10566000000E+00 0. -1.
         13    1    4    4    0    0 -0.91677753782E+02 -0.35156302560E+00 -0.46663248657E+03  0.47555317559E+03  0.10566000000E+00 0.  1.
    9000005    1    3    3    0    0  0.15743504374E+03 -0.63251545275E+02 -0.61126995327E+03  0.63438041170E+03  0.10000000000E+01 0.  0.
    9000005    1    3    3    0    0 -0.57094702834E+01  0.19027005961E+01  0.37046303821E+01  0.71374089657E+01  0.10000000000E+01 0.  0.
<mgrwt>
<rscale>  0 0.20114781E+03</rscale>
<asrwt>0</asrwt>
<pdfrwt beam="2">  1        1 0.29983993E+00 0.20593565E+03</pdfrwt>
<pdfrwt beam="1">  1       -1 0.36320476E-02 0.20593565E+03</pdfrwt>
<totfact> 0.10400177E+03</totfact>
</mgrwt>
</event>
<event>
 8    3  0.1560846E-003  0.1293391E+03  0.7818608E-02  0.1243439E+00
         -1   -1    0    0    0  501 -0.00000000000E+00  0.00000000000E+00  0.47936590715E+02  0.47936590980E+02  0.50400000000E-02 0.  1.
          1   -1    0    0  501    0  0.00000000000E+00 -0.00000000000E+00 -0.34154971721E+03  0.34154971725E+03  0.50400000000E-02 0. -1.
         25    2    1    2    0    0  0.19590961848E+02 -0.26853026814E+02 -0.25661994401E+03  0.28737153580E+03  0.12499485227E+03 0.  0.
         23    2    1    2    0    0 -0.19590961848E+02  0.26853026814E+02 -0.36993182489E+02  0.10211477242E+03  0.89185426845E+02 0.  0.
        -13    1    4    4    0    0  0.18104400284E+02  0.10816302395E+01  0.21358321649E+02  0.28020140994E+02  0.10566000000E+00 0.  1.
         13    1    4    4    0    0 -0.37695362132E+02  0.25771396575E+02 -0.58351504138E+02  0.74094631431E+02  0.10566000000E+00 0. -1.
    9000005    1    3    3    0    0  0.34665106914E+02 -0.72455984713E+02 -0.17711901937E+03  0.19448312621E+03  0.10000000000E+01 0.  0.
    9000005    1    3    3    0    0 -0.15074145067E+02  0.45602957898E+02 -0.79500924635E+02  0.92888409591E+02  0.10000000000E+01 0.  0.
<mgrwt>
<rscale>  0 0.11979316E+03</rscale>
<asrwt>0</asrwt>
<pdfrwt beam="2">  1        1 0.52546109E-01 0.12933910E+03</pdfrwt>
<pdfrwt beam="1">  1       -1 0.73748603E-02 0.12933910E+03</pdfrwt>
<totfact> 0.68884919E+03</totfact>
</mgrwt>
</event>
<event>
 8    3  0.1560846E-003  0.1356302E+03  0.7818608E-02  0.1237658E+00
          1   -1    0    0  501    0  0.00000000000E+00  0.00000000000E+00  0.94307257948E+03  0.94307257949E+03  0.50400000000E-02 0. -1.
         -1   -1    0    0    0  501 -0.00000000000E+00 -0.00000000000E+00 -0.14262588443E+02  0.14262589333E+02  0.50400000000E-02 0.  1.
         25    2    1    2    0    0  0.43822067211E+02 -0.29171326338E+02  0.63039632089E+03  0.64482173169E+03  0.12499681763E+03 0.  0.
         23    2    1    2    0    0 -0.43822067211E+02  0.29171326338E+02  0.29841367015E+03  0.31251343714E+03  0.76436836688E+02 0.  0.
        -13    1    4    4    0    0  0.23279984759E+01  0.14167590457E+01  0.20247612739E+03  0.20249449402E+03  0.10566000000E+00 0. -1.
         13    1    4    4    0    0 -0.46150065687E+02  0.27754567292E+02  0.95937542759E+02  0.11001894311E+03  0.10566000000E+00 0.  1.
    9000005    1    3    3    0    0  0.73972053237E+02 -0.40001418374E+02  0.57251027174E+03  0.57865446459E+03  0.10000000000E+01 0.  0.
    9000005    1    3    3    0    0 -0.30149986026E+02  0.10830092036E+02  0.57886049142E+02  0.66167267106E+02  0.10000000000E+01 0.  0.
<mgrwt>
<rscale>  0 0.12335802E+03</rscale>
<asrwt>0</asrwt>
<pdfrwt beam="1">  1        1 0.14508810E+00 0.13563017E+03</pdfrwt>
<pdfrwt beam="2">  1       -1 0.21942443E-02 0.13563017E+03</pdfrwt>
<totfact> 0.10185196E+04</totfact>
</mgrwt>
</event>
<event>
 8    3  0.1560846E-003  0.1666771E+03  0.7818608E-02  0.1190869E+00
         -1   -1    0    0    0  501 -0.00000000000E+00  0.00000000000E+00  0.26621633148E+02  0.26621633625E+02  0.50400000000E-02 0.  1.
          1   -1    0    0  501    0  0.00000000000E+00 -0.00000000000E+00 -0.88190207283E+03  0.88190207285E+03  0.50400000000E-02 0. -1.
         25    2    1    2    0    0 -0.99340633718E+02 -0.47830346671E+02 -0.55153807347E+03  0.57617315109E+03  0.12499979990E+03 0.  0.
         23    2    1    2    0    0  0.99340633718E+02  0.47830346671E+02 -0.30374236621E+03  0.33235055538E+03  0.77724919180E+02 0.  0.
        -13    1    4    4    0    0  0.45997089294E+02  0.53712074408E+02 -0.10576348768E+03  0.12722674896E+03  0.10566000000E+00 0.  1.
         13    1    4    4    0    0  0.53343544424E+02 -0.58817277376E+01 -0.19797887853E+03  0.20512380642E+03  0.10566000000E+00 0. -1.
    9000005    1    3    3    0    0 -0.49046381883E+02  0.27016028565E+02 -0.90719460443E+02  0.10661347888E+03  0.10000000000E+01 0.  0.
    9000005    1    3    3    0    0 -0.50294251835E+02 -0.74846375235E+02 -0.46081861303E+03  0.46955967221E+03  0.10000000000E+01 0.  0.
<mgrwt>
<rscale>  0 0.15809142E+03</rscale>
<asrwt>0</asrwt>
<pdfrwt beam="2">  1        1 0.13567722E+00 0.16667709E+03</pdfrwt>
<pdfrwt beam="1">  1       -1 0.40956366E-02 0.16667709E+03</pdfrwt>
<totfact> 0.46059188E+03</totfact>
</mgrwt>
</event>
<event>
 8    3  0.1560846E-003  0.2212121E+03  0.7818608E-02  0.1136312E+00
         -1   -1    0    0    0  501 -0.00000000000E+00  0.00000000000E+00  0.66927948341E+02  0.66927948531E+02  0.50400000000E-02 0.  1.
          1   -1    0    0  501    0  0.00000000000E+00 -0.00000000000E+00 -0.70040239322E+03  0.70040239324E+03  0.50400000000E-02 0. -1.
         25    2    1    2    0    0 -0.12566075419E+03 -0.13236137801E+03 -0.40164786775E+03  0.45853657986E+03  0.12499850347E+03 0.  0.
         23    2    1    2    0    0  0.12566075419E+03  0.13236137801E+03 -0.23182657712E+03  0.30879376190E+03  0.91103600341E+02 0.  0.
        -13    1    4    4    0    0  0.60165629081E+02  0.61490144407E+02 -0.41751325555E+02  0.95624918989E+02  0.10566000000E+00 0. -1.
         13    1    4    4    0    0  0.65495125111E+02  0.70871233604E+02 -0.19007525157E+03  0.21316884291E+03  0.10566000000E+00 0.  1.
    9000005    1    3    3    0    0  0.13412674474E+01 -0.11336232192E+01 -0.13688086120E+03  0.13689577883E+03  0.10000000000E+01 0.  0.
    9000005    1    3    3    0    0 -0.12700202164E+03 -0.13122775479E+03 -0.26476700656E+03  0.32164080103E+03  0.10000000000E+01 0.  0.
<mgrwt>
<rscale>  0 0.21677360E+03</rscale>
<asrwt>0</asrwt>
<pdfrwt beam="2">  1        1 0.10775421E+00 0.22121208E+03</pdfrwt>
<pdfrwt beam="1">  1       -1 0.10296608E-01 0.22121208E+03</pdfrwt>
<totfact> 0.16363656E+03</totfact>
</mgrwt>
</event>
<event>
 8    3  0.1560846E-003  0.1273395E+03  0.7818608E-02  0.1244356E+00
          1   -1    0    0  501    0  0.00000000000E+00  0.00000000000E+00  0.13732244770E+04  0.13732244770E+04  0.50400000000E-02 0. -1.
         -1   -1    0    0    0  501 -0.00000000000E+00 -0.00000000000E+00 -0.97011280982E+01  0.97011294074E+01  0.50400000000E-02 0.  1.
         25    2    1    2    0    0  0.20745431008E+02  0.12740163209E+02  0.91668932159E+03  0.92549157638E+03  0.12499064350E+03 0.  0.
         23    2    1    2    0    0 -0.20745431008E+02 -0.12740163209E+02  0.44683402727E+03  0.45743402999E+03  0.94829105272E+02 0.  0.
        -13    1    4    4    0    0  0.80832541327E+01 -0.49591708806E+02  0.26163771646E+03  0.26641881018E+03  0.10566000000E+00 0. -1.
         13    1    4    4    0    0 -0.28828685141E+02  0.36851545597E+02  0.18519631081E+03  0.19101521982E+03  0.10566000000E+00 0.  1.
    9000005    1    3    3    0    0  0.54479709402E+02 -0.34054834226E+02  0.34794649714E+03  0.35382981127E+03  0.10000000000E+01 0.  0.
    9000005    1    3    3    0    0 -0.33734278394E+02  0.46794997435E+02  0.56874282445E+03  0.57166176511E+03  0.10000000000E+01 0.  0.
<mgrwt>
<rscale>  0 0.11924021E+03</rscale>
<asrwt>0</asrwt>
<pdfrwt beam="1">  1        1 0.21126520E+00 0.12733949E+03</pdfrwt>
<pdfrwt beam="2">  1       -1 0.14924821E-02 0.12733949E+03</pdfrwt>
<totfact> 0.88739999E+03</totfact>
</mgrwt>
</event>
<event>
 8    3  0.1560846E-003  0.1269628E+03  0.7818608E-02  0.1245294E+00
          1   -1    0    0  501    0  0.00000000000E+00  0.00000000000E+00  0.61262035155E+03  0.61262035157E+03  0.50400000000E-02 0. -1.
         -1   -1    0    0    0  501 -0.00000000000E+00 -0.00000000000E+00 -0.21227512333E+02  0.21227512931E+02  0.50400000000E-02 0.  1.
         25    2    1    2    0    0  0.11081054305E+02  0.19226264866E+02  0.39381227795E+03  0.41377248555E+03  0.12500848176E+03 0.  0.
         23    2    1    2    0    0 -0.11081054305E+02 -0.19226264866E+02  0.19758056127E+03  0.22007537895E+03  0.94353882820E+02 0.  0.
        -13    1    4    4    0    0  0.34708493610E+02 -0.20901272787E+02  0.14391695515E+03  0.14951135032E+03  0.10566000000E+00 0. -1.
         13    1    4    4    0    0 -0.45789547915E+02  0.16750079206E+01  0.53663606120E+02  0.70564028624E+02  0.10566000000E+00 0.  1.
    9000005    1    3    3    0    0  0.34472482304E+02  0.29360689299E+02  0.44383772551E+02  0.63413889473E+02  0.10000000000E+01 0.  0.
    9000005    1    3    3    0    0 -0.23391427999E+02 -0.10134424432E+02  0.34942850540E+03  0.35035859608E+03  0.10000000000E+01 0.  0.
<mgrwt>
<rscale>  0 0.11867796E+03</rscale>
<asrwt>0</asrwt>
<pdfrwt beam="1">  1        1 0.94249287E-01 0.12696283E+03</pdfrwt>
<pdfrwt beam="2">  1       -1 0.32657711E-02 0.12696283E+03</pdfrwt>
<totfact> 0.10791092E+04</totfact>
</mgrwt>
</event>
<event>
 8    3  0.1560846E-003  0.1271419E+03  0.7818608E-02  0.1245302E+00
         -1   -1    0    0    0  501 -0.00000000000E+00  0.00000000000E+00  0.70397129450E+02  0.70397129630E+02  0.50400000000E-02 0.  1.
          1   -1    0    0  501    0  0.00000000000E+00 -0.00000000000E+00 -0.34317264511E+03  0.34317264515E+03  0.50400000000E-02 0. -1.
         25    2    1    2    0    0 -0.21685359378E+02  0.83827141465E+01 -0.31353445040E+01  0.12718059873E+03  0.12499819839E+03 0.  0.
         23    2    1    2    0    0  0.21685359378E+02 -0.83827141465E+01 -0.26964017116E+03  0.28638917605E+03  0.93661163485E+02 0.  0.
        -13    1    4    4    0    0  0.37702339834E+02  0.34113222664E+02 -0.13221694096E+03  0.14165630600E+03  0.10566000000E+00 0.  1.
         13    1    4    4    0    0 -0.16016980457E+02 -0.42495936811E+02 -0.13742323020E+03  0.14473287004E+03  0.10566000000E+00 0. -1.
    9000005    1    3    3    0    0 -0.55012264544E+02  0.31582965776E+02 -0.37740961962E+02  0.73818786141E+02  0.10000000000E+01 0.  0.
    9000005    1    3    3    0    0  0.33326905167E+02 -0.23200251629E+02  0.34605617458E+02  0.53361812594E+02  0.10000000000E+01 0.  0.
<mgrwt>
<rscale>  0 0.11867315E+03</rscale>
<asrwt>0</asrwt>
<pdfrwt beam="2">  1        1 0.52795791E-01 0.12714195E+03</pdfrwt>
<pdfrwt beam="1">  1       -1 0.10830328E-01 0.12714195E+03</pdfrwt>
<totfact> 0.38219050E+03</totfact>
</mgrwt>
</event>
<event>
 8    3  0.1560846E-003  0.1978566E+03  0.7818608E-02  0.1156318E+00
         -1   -1    0    0    0  501 -0.00000000000E+00  0.00000000000E+00  0.36678395148E+02  0.36678395495E+02  0.50400000000E-02 0.  1.
          1   -1    0    0  501    0  0.00000000000E+00 -0.00000000000E+00 -0.10048403651E+04  0.10048403651E+04  0.50400000000E-02 0. -1.
         25    2    1    2    0    0 -0.54541443550E+01 -0.15327227450E+03 -0.39671278090E+03  0.44331507428E+03  0.12500034692E+03 0.  0.
         23    2    1    2    0    0  0.54541443550E+01  0.15327227450E+03 -0.57144918908E+03  0.59820368635E+03  0.88155186180E+02 0.  0.
        -13    1    4    4    0    0  0.43146519976E+02  0.45703410515E+02 -0.21097054495E+03  0.22013406351E+03  0.10566000000E+00 0.  1.
         13    1    4    4    0    0 -0.37692375621E+02  0.10756886399E+03 -0.36047864413E+03  0.37806962284E+03  0.10566000000E+00 0. -1.
    9000005    1    3    3    0    0  0.12855888595E+02 -0.16625367623E+03 -0.29237126141E+03  0.33658210474E+03  0.10000000000E+01 0.  0.
    9000005    1    3    3    0    0 -0.18310032950E+02  0.12981401726E+02 -0.10434151949E+03  0.10673296954E+03  0.10000000000E+01 0.  0.
<mgrwt>
<rscale>  0 0.19239536E+03</rscale>
<asrwt>0</asrwt>
<pdfrwt beam="2">  1        1 0.15459080E+00 0.19785658E+03</pdfrwt>
<pdfrwt beam="1">  1       -1 0.56428308E-02 0.19785658E+03</pdfrwt>
<totfact> 0.23151348E+03</totfact>
</mgrwt>
</event>
<event>
 8    3  0.1560846E-003  0.1577405E+03  0.7818608E-02  0.1199478E+00
          1   -1    0    0  501    0  0.00000000000E+00  0.00000000000E+00  0.19712366349E+03  0.19712366356E+03  0.50400000000E-02 0. -1.
         -1   -1    0    0    0  501 -0.00000000000E+00 -0.00000000000E+00 -0.11208515923E+03  0.11208515934E+03  0.50400000000E-02 0.  1.
         25    2    1    2    0    0  0.72774593771E+02  0.62933239370E+02  0.81056212064E+02  0.17734759149E+03  0.12500129831E+03 0.  0.
         23    2    1    2    0    0 -0.72774593771E+02 -0.62933239370E+02  0.39822921974E+01  0.13186123141E+03  0.90082137966E+02 0.  0.
        -13    1    4    4    0    0 -0.45050391801E+02 -0.39377875773E+01 -0.33854565120E+02  0.56490589622E+02  0.10566000000E+00 0.  1.
         13    1    4    4    0    0 -0.27724201970E+02 -0.58995451793E+02  0.37836857317E+02  0.75370641783E+02  0.10566000000E+00 0. -1.
    9000005    1    3    3    0    0  0.18467409686E+02  0.92654509621E+02  0.60117307107E+02  0.11198657950E+03  0.10000000000E+01 0.  0.
    9000005    1    3    3    0    0  0.54307184085E+02 -0.29721270251E+02  0.20938904956E+02  0.65361011998E+02  0.10000000000E+01 0.  0.
<mgrwt>
<rscale>  0 0.15081242E+03</rscale>
<asrwt>0</asrwt>
<pdfrwt beam="1">  1        1 0.30326717E-01 0.15774048E+03</pdfrwt>
<pdfrwt beam="2">  1       -1 0.17243871E-01 0.15774048E+03</pdfrwt>
<totfact> 0.37218288E+03</totfact>
</mgrwt>
</event>
<event>
 8    3  0.1560846E-003  0.1628740E+03  0.7818608E-02  0.1189432E+00
          1   -1    0    0  501    0  0.00000000000E+00  0.00000000000E+00  0.82500938088E+03  0.82500938090E+03  0.50400000000E-02 0. -1.
         -1   -1    0    0    0  501 -0.00000000000E+00 -0.00000000000E+00 -0.34061708204E+02  0.34061708577E+02  0.50400000000E-02 0.  1.
         25    2    1    2    0    0  0.56444161841E+02  0.87845011363E+02  0.56721450180E+03  0.59013576365E+03  0.12500095624E+03 0.  0.
         23    2    1    2    0    0 -0.56444161841E+02 -0.87845011363E+02  0.22373317088E+03  0.26893532583E+03  0.10661607898E+03 0.  0.
        -13    1    4    4    0    0  0.22286484903E+02 -0.62742737749E+02  0.98194019756E+02  0.11863985515E+03  0.10566000000E+00 0.  1.
         13    1    4    4    0    0 -0.78730646744E+02 -0.25102273614E+02  0.12553915113E+03  0.15029547068E+03  0.10566000000E+00 0. -1.
    9000005    1    3    3    0    0  0.45480510749E+02  0.11256035392E+03  0.33443965610E+03  0.35579375164E+03  0.10000000000E+01 0.  0.
    9000005    1    3    3    0    0  0.10963651091E+02 -0.24715342562E+02  0.23277484570E+03  0.23434201201E+03  0.10000000000E+01 0.  0.
<mgrwt>
<rscale>  0 0.15935034E+03</rscale>
<asrwt>0</asrwt>
<pdfrwt beam="1">  1        1 0.12692451E+00 0.16287397E+03</pdfrwt>
<pdfrwt beam="2">  1       -1 0.52402632E-02 0.16287397E+03</pdfrwt>
<totfact> 0.35443798E+03</totfact>
</mgrwt>
</event>
<event>
 8    3  0.1560846E-003  0.1448890E+03  0.7818608E-02  0.1217742E+00
         -1   -1    0    0    0  501 -0.00000000000E+00  0.00000000000E+00  0.51060153814E+02  0.51060154063E+02  0.50400000000E-02 0.  1.
          1   -1    0    0  501    0  0.00000000000E+00 -0.00000000000E+00 -0.33113998210E+03  0.33113998213E+03  0.50400000000E-02 0. -1.
         25    2    1    2    0    0 -0.27165273001E+02  0.68040729196E+02 -0.15011218941E+03  0.20863000449E+03  0.12500126589E+03 0.  0.
         23    2    1    2    0    0  0.27165273001E+02 -0.68040729196E+02 -0.12996763887E+03  0.17357013171E+03  0.88698988625E+02 0.  0.
        -13    1    4    4    0    0  0.28978639676E+02 -0.89157154825E+02 -0.10874747813E+03  0.14357849762E+03  0.10566000000E+00 0. -1.
         13    1    4    4    0    0 -0.18133666745E+01  0.21116425629E+02 -0.21220160737E+02  0.29991634096E+02  0.10566000000E+00 0.  1.
    9000005    1    3    3    0    0  0.32841958262E+02  0.43534508184E+01 -0.10514062279E+03  0.11024108725E+03  0.10000000000E+01 0.  0.
    9000005    1    3    3    0    0 -0.60007231263E+02  0.63687278377E+02 -0.44971566625E+02  0.98388917240E+02  0.10000000000E+01 0.  0.
<mgrwt>
<rscale>  0 0.13677035E+03</rscale>
<asrwt>0</asrwt>
<pdfrwt beam="2">  1        1 0.50944611E-01 0.14488896E+03</pdfrwt>
<pdfrwt beam="1">  1       -1 0.78554085E-02 0.14488896E+03</pdfrwt>
<totfact> 0.65571654E+03</totfact>
</mgrwt>
</event>
<event>
 8    3  0.1560846E-003  0.2231031E+03  0.7818608E-02  0.1134724E+00
          1   -1    0    0  501    0  0.00000000000E+00  0.00000000000E+00  0.91126580542E+03  0.91126580544E+03  0.50400000000E-02 0. -1.
         -1   -1    0    0    0  501 -0.00000000000E+00 -0.00000000000E+00 -0.50724306180E+02  0.50724306430E+02  0.50400000000E-02 0.  1.
         25    2    1    2    0    0 -0.59281862665E+02  0.17502369020E+03  0.43128023480E+03  0.48556940563E+03  0.12500950116E+03 0.  0.
         23    2    1    2    0    0  0.59281862665E+02 -0.17502369020E+03  0.42926126444E+03  0.47642070624E+03  0.92540935881E+02 0.  0.
        -13    1    4    4    0    0  0.43570530767E+02 -0.35273841171E+02  0.64321330990E+02  0.85322211684E+02  0.10566000000E+00 0.  1.
         13    1    4    4    0    0  0.15711331898E+02 -0.13974984903E+03  0.36493993345E+03  0.39109849456E+03  0.10566000000E+00 0. -1.
    9000005    1    3    3    0    0  0.30726286762E+02  0.10050014069E+03  0.17978427342E+03  0.20824929278E+03  0.10000000000E+01 0.  0.
    9000005    1    3    3    0    0 -0.90008149428E+02  0.74523549506E+02  0.25149596139E+03  0.27732011284E+03  0.10000000000E+01 0.  0.
<mgrwt>
<rscale>  0 0.21887557E+03</rscale>
<asrwt>0</asrwt>
<pdfrwt beam="1">  1        1 0.14019473E+00 0.22310313E+03</pdfrwt>
<pdfrwt beam="2">  1       -1 0.78037398E-02 0.22310313E+03</pdfrwt>
<totfact> 0.16716867E+03</totfact>
</mgrwt>
</event>
<event>
 8    3  0.1560846E-003  0.1865894E+03  0.7818608E-02  0.1166411E+00
          1   -1    0    0  501    0  0.00000000000E+00  0.00000000000E+00  0.45357423644E+03  0.45357423646E+03  0.50400000000E-02 0. -1.
         -1   -1    0    0    0  501 -0.00000000000E+00 -0.00000000000E+00 -0.70963460286E+02  0.70963460465E+02  0.50400000000E-02 0.  1.
         25    2    1    2    0    0 -0.70931709133E+02  0.11898625575E+03  0.24683495062E+03  0.30942383245E+03  0.12500631513E+03 0.  0.
         23    2    1    2    0    0  0.70931709133E+02 -0.11898625575E+03  0.13577582553E+03  0.21511386448E+03  0.93004642217E+02 0.  0.
        -13    1    4    4    0    0  0.18564403506E+02  0.14159841995E+02  0.24656461397E+02  0.33957185625E+02  0.10566000000E+00 0.  1.
         13    1    4    4    0    0  0.52367305627E+02 -0.13314609775E+03  0.11111936413E+03  0.18115667885E+03  0.10566000000E+00 0. -1.
    9000005    1    3    3    0    0  0.24075233719E+02  0.51812124189E+02  0.33016004073E+02  0.65993708917E+02  0.10000000000E+01 0.  0.
    9000005    1    3    3    0    0 -0.95006942852E+02  0.67174131563E+02  0.21381894655E+03  0.24343012353E+03  0.10000000000E+01 0.  0.
<mgrwt>
<rscale>  0 0.18144574E+03</rscale>
<asrwt>0</asrwt>
<pdfrwt beam="1">  1        1 0.69780656E-01 0.18658943E+03</pdfrwt>
<pdfrwt beam="2">  1       -1 0.10917455E-01 0.18658943E+03</pdfrwt>
<totfact> 0.26939390E+03</totfact>
</mgrwt>
</event>
<event>
 8    3  0.1560846E-003  0.1714449E+03  0.7818608E-02  0.1182858E+00
          1   -1    0    0  501    0  0.00000000000E+00  0.00000000000E+00  0.16206174969E+03  0.16206174977E+03  0.50400000000E-02 0. -1.
         -1   -1    0    0    0  501 -0.00000000000E+00 -0.00000000000E+00 -0.15752847493E+03  0.15752847501E+03  0.50400000000E-02 0.  1.
         25    2    1    2    0    0 -0.11217754684E+03  0.34424139230E+02  0.40773596569E+01  0.17149342333E+03  0.12499818402E+03 0.  0.
         23    2    1    2    0    0  0.11217754684E+03 -0.34424139230E+02  0.45591510814E+00  0.14809680145E+03  0.90352816035E+02 0.  0.
        -13    1    4    4    0    0  0.40999539214E+01 -0.32714267850E+02  0.19552000847E+02  0.38331773300E+02  0.10566000000E+00 0. -1.
         13    1    4    4    0    0  0.10807759292E+03 -0.17098713798E+01 -0.19096085739E+02  0.10976502815E+03  0.10566000000E+00 0.  1.
    9000005    1    3    3    0    0 -0.65266427257E+02 -0.44432182535E+02 -0.59573730027E+01  0.79185956235E+02  0.10000000000E+01 0.  0.
    9000005    1    3    3    0    0 -0.46911119580E+02  0.78856321765E+02  0.10034732660E+02  0.92307467098E+02  0.10000000000E+01 0.  0.
<mgrwt>
<rscale>  0 0.16528347E+03</rscale>
<asrwt>0</asrwt>
<pdfrwt beam="1">  1        1 0.24932577E-01 0.17144495E+03</pdfrwt>
<pdfrwt beam="2">  1       -1 0.24235150E-01 0.17144495E+03</pdfrwt>
<totfact> 0.27552857E+03</totfact>
</mgrwt>
</event>
<event>
 8    3  0.1560846E-003  0.1312270E+03  0.7818608E-02  0.1238868E+00
         -1   -1    0    0    0  501 -0.00000000000E+00  0.00000000000E+00  0.71228137873E+03  0.71228137875E+03  0.50400000000E-02 0.  1.
          1   -1    0    0  501    0  0.00000000000E+00 -0.00000000000E+00 -0.18801636408E+02  0.18801637084E+02  0.50400000000E-02 0. -1.
         25    2    1    2    0    0 -0.13981946256E+02  0.37425161522E+02  0.41018310806E+03  0.43066310047E+03  0.12499754573E+03 0.  0.
         23    2    1    2    0    0  0.13981946256E+02 -0.37425161522E+02  0.28329663427E+03  0.30041991536E+03  0.91646085691E+02 0.  0.
        -13    1    4    4    0    0  0.39240434974E+02  0.73253620339E+01  0.18759176150E+03  0.19179195190E+03  0.10566000000E+00 0.  1.
         13    1    4    4    0    0 -0.25258488718E+02 -0.44750523556E+02  0.95704872765E+02  0.10862796346E+03  0.10566000000E+00 0. -1.
    9000005    1    3    3    0    0 -0.50908513198E+02  0.60443399307E+02  0.18281902839E+03  0.19917047566E+03  0.10000000000E+01 0.  0.
    9000005    1    3    3    0    0  0.36926566942E+02 -0.23018237785E+02  0.22736407967E+03  0.23149262481E+03  0.10000000000E+01 0.  0.
<mgrwt>
<rscale>  0 0.12260015E+03</rscale>
<asrwt>0</asrwt>
<pdfrwt beam="2">  1        1 0.28925600E-02 0.13122699E+03</pdfrwt>
<pdfrwt beam="1">  1       -1 0.10958173E+00 0.13122699E+03</pdfrwt>
<totfact> 0.28266445E+03</totfact>
</mgrwt>
</event>
<event>
 8    3  0.1560846E-003  0.1698761E+03  0.7818608E-02  0.1184334E+00
          1   -1    0    0  501    0  0.00000000000E+00  0.00000000000E+00  0.32067499121E+04  0.32067499121E+04  0.50400000000E-02 0. -1.
         -1   -1    0    0    0  501 -0.00000000000E+00 -0.00000000000E+00 -0.16478174979E+02  0.16478175749E+02  0.50400000000E-02 0.  1.
         25    2    1    2    0    0  0.81590597966E+01  0.11472708616E+03  0.28144428509E+04  0.28195649425E+04  0.12501611740E+03 0.  0.
         23    2    1    2    0    0 -0.81590597966E+01 -0.11472708616E+03  0.37582888625E+03  0.40366314536E+03  0.92020153335E+02 0.  0.
        -13    1    4    4    0    0 -0.37900325772E+02 -0.99283999120E+02  0.22067046612E+03  0.24492695432E+03  0.10566000000E+00 0.  1.
         13    1    4    4    0    0  0.29741265975E+02 -0.15443087039E+02  0.15515842014E+03  0.15873619103E+03  0.10566000000E+00 0. -1.
    9000005    1    3    3    0    0 -0.96133693421E+01  0.10894335496E+03  0.27566098571E+04  0.27587787109E+04  0.10000000000E+01 0.  0.
    9000005    1    3    3    0    0  0.17772429139E+02  0.57837311981E+01  0.57832993838E+02  0.60786231667E+02  0.10000000000E+01 0.  0.
<mgrwt>
<rscale>  0 0.16392614E+03</rscale>
<asrwt>0</asrwt>
<pdfrwt beam="1">  1        1 0.49334574E+00 0.16987614E+03</pdfrwt>
<pdfrwt beam="2">  1       -1 0.25351060E-02 0.16987614E+03</pdfrwt>
<totfact> 0.25711582E+02</totfact>
</mgrwt>
</event>
<event>
 8    3  0.1560846E-003  0.1567342E+03  0.7818608E-02  0.1200497E+00
          1   -1    0    0  501    0  0.00000000000E+00  0.00000000000E+00  0.23529351712E+02  0.23529352252E+02  0.50400000000E-02 0. -1.
         -1   -1    0    0    0  501 -0.00000000000E+00 -0.00000000000E+00 -0.88222389687E+03  0.88222389689E+03  0.50400000000E-02 0.  1.
         25    2    1    2    0    0  0.21286198648E+02 -0.92123209843E+02 -0.46452495263E+03  0.49025406713E+03  0.12500332267E+03 0.  0.
         23    2    1    2    0    0 -0.21286198648E+02  0.92123209843E+02 -0.39416959253E+03  0.41549918201E+03  0.91269461096E+02 0.  0.
        -13    1    4    4    0    0 -0.33361043948E+02  0.51592278918E+02 -0.34594058020E+03  0.35135397918E+03  0.10566000000E+00 0.  1.
         13    1    4    4    0    0  0.12074845300E+02  0.40530930925E+02 -0.48229012336E+02  0.64145202826E+02  0.10566000000E+00 0. -1.
    9000005    1    3    3    0    0  0.38381320765E+02  0.12297036711E+02 -0.22228544413E+03  0.22591184468E+03  0.10000000000E+01 0.  0.
    9000005    1    3    3    0    0 -0.17095122118E+02 -0.10442024655E+03 -0.24223950850E+03  0.26434222245E+03  0.10000000000E+01 0.  0.
<mgrwt>
<rscale>  0 0.14998027E+03</rscale>
<asrwt>0</asrwt>
<pdfrwt beam="1">  1        1 0.36199010E-02 0.15673423E+03</pdfrwt>
<pdfrwt beam="2">  1       -1 0.13572673E+00 0.15673423E+03</pdfrwt>
<totfact> 0.12580020E+03</totfact>
</mgrwt>
</event>
<event>
 8    3  0.1560846E-003  0.1552871E+03  0.7818608E-02  0.1198849E+00
         -1   -1    0    0    0  501 -0.00000000000E+00  0.00000000000E+00  0.26587176773E+02  0.26587177251E+02  0.50400000000E-02 0.  1.
          1   -1    0    0  501    0  0.00000000000E+00 -0.00000000000E+00 -0.99214585186E+03  0.99214585187E+03  0.50400000000E-02 0. -1.
         25    2    1    2    0    0  0.91873452940E+02  0.69683450582E+01 -0.71520671830E+03  0.73187070474E+03  0.12499915745E+03 0.  0.
         23    2    1    2    0    0 -0.91873452940E+02 -0.69683450582E+01 -0.25035195678E+03  0.28686232438E+03  0.10547322739E+03 0.  0.
        -13    1    4    4    0    0 -0.86619344832E+02  0.71342097195E+01 -0.25633367294E+03  0.27066726972E+03  0.10566000000E+00 0. -1.
         13    1    4    4    0    0 -0.52541081077E+01 -0.14102554778E+02  0.59817161622E+01  0.16195054663E+02  0.10566000000E+00 0.  1.
    9000005    1    3    3    0    0 -0.28858421572E+02  0.12128860429E+02 -0.21522716114E+03  0.21749401978E+03  0.10000000000E+01 0.  0.
    9000005    1    3    3    0    0  0.12073187451E+03 -0.51605153708E+01 -0.49997955717E+03  0.51437668496E+03  0.10000000000E+01 0.  0.
<mgrwt>
<rscale>  0 0.15132893E+03</rscale>
<asrwt>0</asrwt>
<pdfrwt beam="2">  1        1 0.15263779E+00 0.15528708E+03</pdfrwt>
<pdfrwt beam="1">  1       -1 0.40903357E-02 0.15528708E+03</pdfrwt>
<totfact> 0.37969792E+03</totfact>
</mgrwt>
</event>
<event>
 8    3  0.1560846E-003  0.1397296E+03  0.7818608E-02  0.1222158E+00
         -1   -1    0    0    0  501 -0.00000000000E+00  0.00000000000E+00  0.66906699160E+01  0.66906718143E+01  0.50400000000E-02 0.  1.
          1   -1    0    0  501    0  0.00000000000E+00 -0.00000000000E+00 -0.26555674081E+04  0.26555674081E+04  0.50400000000E-02 0. -1.
         25    2    1    2    0    0  0.59970409871E+02  0.17372736164E+02 -0.17926580247E+04  0.17980954255E+04  0.12500441582E+03 0.  0.
         23    2    1    2    0    0 -0.59970409871E+02 -0.17372736164E+02 -0.85621871353E+03  0.86416265438E+03  0.98834942204E+02 0.  0.
        -13    1    4    4    0    0 -0.37936056105E+02  0.68695832126E+01 -0.78300773856E+03  0.78395629045E+03  0.10566000000E+00 0. -1.
         13    1    4    4    0    0 -0.22034353766E+02 -0.24242319376E+02 -0.73210974977E+02  0.80206363936E+02  0.10566000000E+00 0.  1.
    9000005    1    3    3    0    0 -0.28584251816E+02  0.11051017316E+01 -0.98811251523E+03  0.98852699683E+03  0.10000000000E+01 0.  0.
    9000005    1    3    3    0    0  0.88554661687E+02  0.16267634432E+02 -0.80454550943E+03  0.80956842872E+03  0.10000000000E+01 0.  0.
<mgrwt>
<rscale>  0 0.13363615E+03</rscale>
<asrwt>0</asrwt>
<pdfrwt beam="2">  1        1 0.40854799E+00 0.13972962E+03</pdfrwt>
<pdfrwt beam="1">  1       -1 0.10293361E-02 0.13972962E+03</pdfrwt>
<totfact> 0.22637102E+03</totfact>
</mgrwt>
</event>
<event>
 8    3  0.1560846E-003  0.1326073E+03  0.7818608E-02  0.1236781E+00
          1   -1    0    0  501    0  0.00000000000E+00  0.00000000000E+00  0.77997992503E+03  0.77997992505E+03  0.50400000000E-02 0. -1.
         -1   -1    0    0    0  501 -0.00000000000E+00 -0.00000000000E+00 -0.20552326589E+02  0.20552327207E+02  0.50400000000E-02 0.  1.
         25    2    1    2    0    0  0.86992023846E+01 -0.43406432836E+02  0.57622358471E+03  0.59128530642E+03  0.12499959793E+03 0.  0.
         23    2    1    2    0    0 -0.86992023846E+01  0.43406432836E+02  0.18320401374E+03  0.20924694583E+03  0.90888828568E+02 0.  0.
        -13    1    4    4    0    0 -0.35338727264E+02 -0.87653209174E+01  0.37785949736E+02  0.52473285174E+02  0.10566000000E+00 0.  1.
         13    1    4    4    0    0  0.26639524879E+02  0.52171753753E+02  0.14541806400E+03  0.15677366066E+03  0.10566000000E+00 0. -1.
    9000005    1    3    3    0    0  0.22675793563E+02  0.46516732029E+01  0.49720530693E+03  0.49774486126E+03  0.10000000000E+01 0.  0.
    9000005    1    3    3    0    0 -0.13976591178E+02 -0.48058106039E+02  0.79018277783E+02  0.93540445160E+02  0.10000000000E+01 0.  0.
<mgrwt>
<rscale>  0 0.12391103E+03</rscale>
<asrwt>0</asrwt>
<pdfrwt beam="1">  1        1 0.11999689E+00 0.13260729E+03</pdfrwt>
<pdfrwt beam="2">  1       -1 0.31618971E-02 0.13260729E+03</pdfrwt>
<totfact> 0.80449626E+03</totfact>
</mgrwt>
</event>
<event>
 8    3  0.1560846E-003  0.1325862E+03  0.7818608E-02  0.1236968E+00
         -1   -1    0    0    0  501 -0.00000000000E+00  0.00000000000E+00  0.54930247778E+02  0.54930248009E+02  0.50400000000E-02 0.  1.
          1   -1    0    0  501    0  0.00000000000E+00 -0.00000000000E+00 -0.25777574092E+03  0.25777574097E+03  0.50400000000E-02 0. -1.
         25    2    1    2    0    0 -0.39576373534E+02  0.19686621275E+02 -0.14517539276E+03  0.19660875932E+03  0.12500102870E+03 0.  0.
         23    2    1    2    0    0  0.39576373534E+02 -0.19686621275E+02 -0.57670100374E+02  0.11609722966E+03  0.90547633086E+02 0.  0.
        -13    1    4    4    0    0 -0.18721082321E+02 -0.13462363964E+02 -0.52378965678E+02  0.57230074055E+02  0.10566000000E+00 0. -1.
         13    1    4    4    0    0  0.58297455855E+02 -0.62242573108E+01 -0.52911346956E+01  0.58867155602E+02  0.10566000000E+00 0.  1.
    9000005    1    3    3    0    0 -0.39453285562E+02  0.43581421282E+02 -0.15862458770E+03  0.16917051115E+03  0.10000000000E+01 0.  0.
    9000005    1    3    3    0    0 -0.12308797164E+00 -0.23894800008E+02  0.13449194930E+02  0.27438248164E+02  0.10000000000E+01 0.  0.
<mgrwt>
<rscale>  0 0.12379316E+03</rscale>
<asrwt>0</asrwt>
<pdfrwt beam="2">  1        1 0.39657806E-01 0.13258623E+03</pdfrwt>
<pdfrwt beam="1">  1       -1 0.84508075E-02 0.13258623E+03</pdfrwt>
<totfact> 0.79609337E+03</totfact>
</mgrwt>
</event>
<event>
 8    3  0.1560846E-003  0.1828342E+03  0.7818608E-02  0.1175059E+00
          1   -1    0    0  501    0  0.00000000000E+00  0.00000000000E+00  0.58816177715E+03  0.58816177718E+03  0.50400000000E-02 0. -1.
         -1   -1    0    0    0  501 -0.00000000000E+00 -0.00000000000E+00 -0.56362163413E+02  0.56362163639E+02  0.50400000000E-02 0.  1.
         25    2    1    2    0    0 -0.16999680458E+02  0.13233739472E+03  0.42898085089E+03  0.46631845509E+03  0.12500462372E+03 0.  0.
         23    2    1    2    0    0  0.16999680458E+02 -0.13233739472E+03  0.10281876285E+03  0.17820548572E+03  0.58166330223E+02 0.  0.
        -13    1    4    4    0    0  0.21242484764E+01 -0.50659365745E+02  0.66181974606E+01  0.51134093039E+02  0.10566000000E+00 0.  1.
         13    1    4    4    0    0  0.14875431982E+02 -0.81678028973E+02  0.96200565389E+02  0.12707139268E+03  0.10566000000E+00 0. -1.
    9000005    1    3    3    0    0 -0.25641949181E+02  0.14461383060E+03  0.42648451912E+03  0.45106619759E+03  0.10000000000E+01 0.  0.
    9000005    1    3    3    0    0  0.86422687234E+01 -0.12276435882E+02  0.24963317740E+01  0.15252257504E+02  0.10000000000E+01 0.  0.
<mgrwt>
<rscale>  0 0.17270219E+03</rscale>
<asrwt>0</asrwt>
<pdfrwt beam="1">  1        1 0.90486428E-01 0.18283416E+03</pdfrwt>
<pdfrwt beam="2">  1       -1 0.86711020E-02 0.18283416E+03</pdfrwt>
<totfact> 0.27153102E+03</totfact>
</mgrwt>
</event>
<event>
 8    3  0.1560846E-003  0.1641922E+03  0.7818608E-02  0.1191425E+00
         -1   -1    0    0    0  501 -0.00000000000E+00  0.00000000000E+00  0.67910433155E+02  0.67910433342E+02  0.50400000000E-02 0.  1.
          1   -1    0    0  501    0  0.00000000000E+00 -0.00000000000E+00 -0.35116412587E+03  0.35116412591E+03  0.50400000000E-02 0. -1.
         25    2    1    2    0    0 -0.91279713975E+02  0.54813499423E+02 -0.11439196632E+03  0.20011145657E+03  0.12499026839E+03 0.  0.
         23    2    1    2    0    0  0.91279713975E+02 -0.54813499423E+02 -0.16886172640E+03  0.21896310267E+03  0.89966948306E+02 0.  0.
        -13    1    4    4    0    0  0.92382823047E+02 -0.58457304423E+02 -0.94507268845E+02  0.14451116726E+03  0.10566000000E+00 0.  1.
         13    1    4    4    0    0 -0.11031090717E+01  0.36438050004E+01 -0.74354457553E+02  0.74451935412E+02  0.10566000000E+00 0. -1.
    9000005    1    3    3    0    0 -0.20574578988E+02 -0.10726062259E+02 -0.99961106619E+02  0.10262350875E+03  0.10000000000E+01 0.  0.
    9000005    1    3    3    0    0 -0.70705134987E+02  0.65539561682E+02 -0.14430859697E+02  0.97487947823E+02  0.10000000000E+01 0.  0.
<mgrwt>
<rscale>  0 0.15760682E+03</rscale>
<asrwt>0</asrwt>
<pdfrwt beam="2">  1        1 0.54025249E-01 0.16419218E+03</pdfrwt>
<pdfrwt beam="1">  1       -1 0.10447759E-01 0.16419218E+03</pdfrwt>
<totfact> 0.39731215E+03</totfact>
</mgrwt>
</event>
<event>
 8    3  0.1560846E-003  0.1267484E+03  0.7818608E-02  0.1248335E+00
         -1   -1    0    0    0  501 -0.00000000000E+00  0.00000000000E+00  0.48587586397E+01  0.48587612537E+01  0.50400000000E-02 0.  1.
          1   -1    0    0  501    0  0.00000000000E+00 -0.00000000000E+00 -0.27624173077E+04  0.27624173077E+04  0.50400000000E-02 0. -1.
         25    2    1    2    0    0  0.95643268761E+01 -0.18664855466E+02 -0.11188089941E+04  0.11259656846E+04  0.12500121820E+03 0.  0.
         23    2    1    2    0    0 -0.95643268761E+01  0.18664855466E+02 -0.16387495550E+04  0.16413103843E+04  0.89217826565E+02 0.  0.
        -13    1    4    4    0    0 -0.34683457131E+02 -0.21494575909E+02 -0.53957950204E+03  0.54112014302E+03  0.10566000000E+00 0.  1.
         13    1    4    4    0    0  0.25119130255E+02  0.40159431375E+02 -0.10991700530E+04  0.11001902413E+04  0.10566000000E+00 0. -1.
    9000005    1    3    3    0    0  0.40729969242E+02 -0.52736943993E+02 -0.89291091248E+03  0.89539433395E+03  0.10000000000E+01 0.  0.
    9000005    1    3    3    0    0 -0.31165642365E+02  0.34072088526E+02 -0.22589808158E+03  0.23057135065E+03  0.10000000000E+01 0.  0.
<mgrwt>
<rscale>  0 0.11687986E+03</rscale>
<asrwt>0</asrwt>
<pdfrwt beam="2">  1        1 0.42498602E+00 0.12674840E+03</pdfrwt>
<pdfrwt beam="1">  1       -1 0.74750374E-03 0.12674840E+03</pdfrwt>
<totfact> 0.30302472E+03</totfact>
</mgrwt>
</event>
<event>
 8    3  0.1560846E-003  0.1299374E+03  0.7818608E-02  0.1241395E+00
         -1   -1    0    0    0  501 -0.00000000000E+00  0.00000000000E+00  0.25912578058E+02  0.25912578548E+02  0.50400000000E-02 0.  1.
          1   -1    0    0  501    0  0.00000000000E+00 -0.00000000000E+00 -0.50159384010E+03  0.50159384012E+03  0.50400000000E-02 0. -1.
         25    2    1    2    0    0 -0.31001674331E+02 -0.17227212543E+02 -0.25921068940E+03  0.28995502180E+03  0.12500340997E+03 0.  0.
         23    2    1    2    0    0  0.31001674331E+02  0.17227212543E+02 -0.21647057264E+03  0.23755139687E+03  0.91177171885E+02 0.  0.
        -13    1    4    4    0    0  0.39174442534E+02  0.25157038245E+02 -0.22058370362E+03  0.22544332988E+03  0.10566000000E+00 0. -1.
         13    1    4    4    0    0 -0.81727682032E+01 -0.79298257027E+01  0.41131309787E+01  0.12108066991E+02  0.10566000000E+00 0.  1.
    9000005    1    3    3    0    0 -0.72331550186E+02 -0.16397284818E+01 -0.92219288677E+02  0.11721748618E+03  0.10000000000E+01 0.  0.
    9000005    1    3    3    0    0  0.41329875855E+02 -0.15587484061E+02 -0.16699140072E+03  0.17273753562E+03  0.10000000000E+01 0.  0.
<mgrwt>
<rscale>  0 0.12103786E+03</rscale>
<asrwt>0</asrwt>
<pdfrwt beam="2">  1        1 0.77168276E-01 0.12993742E+03</pdfrwt>
<pdfrwt beam="1">  1       -1 0.39865509E-02 0.12993742E+03</pdfrwt>
<totfact> 0.10540996E+04</totfact>
</mgrwt>
</event>
<event>
 8    3  0.1560846E-003  0.1909049E+03  0.7818608E-02  0.1162293E+00
          1   -1    0    0  501    0  0.00000000000E+00  0.00000000000E+00  0.40756437299E+03  0.40756437302E+03  0.50400000000E-02 0. -1.
         -1   -1    0    0    0  501 -0.00000000000E+00 -0.00000000000E+00 -0.12205810393E+03  0.12205810404E+03  0.50400000000E-02 0.  1.
         25    2    1    2    0    0  0.47569198373E+02  0.13622268047E+03  0.30222716084E+03  0.35747157489E+03  0.12500089118E+03 0.  0.
         23    2    1    2    0    0 -0.47569198373E+02 -0.13622268047E+03 -0.16720891785E+02  0.17215090217E+03  0.92395333144E+02 0.  0.
        -13    1    4    4    0    0 -0.61039692224E+02 -0.72533547915E+02 -0.40168593650E+02  0.10295866491E+03  0.10566000000E+00 0.  1.
         13    1    4    4    0    0  0.13470493851E+02 -0.63689132553E+02  0.23447701865E+02  0.69192237258E+02  0.10566000000E+00 0. -1.
    9000005    1    3    3    0    0  0.96720673835E+01  0.23623801943E+01  0.15346381514E+03  0.15378970149E+03  0.10000000000E+01 0.  0.
    9000005    1    3    3    0    0  0.37897130989E+02  0.13386030027E+03  0.14876334570E+03  0.20368187340E+03  0.10000000000E+01 0.  0.
<mgrwt>
<rscale>  0 0.18581275E+03</rscale>
<asrwt>0</asrwt>
<pdfrwt beam="1">  1        1 0.62702212E-01 0.19090487E+03</pdfrwt>
<pdfrwt beam="2">  1       -1 0.18778170E-01 0.19090487E+03</pdfrwt>
<totfact> 0.13161112E+03</totfact>
</mgrwt>
</event>
<event>
 8    3  0.1560846E-003  0.2049077E+03  0.7818608E-02  0.1150077E+00
          1   -1    0    0  501    0  0.00000000000E+00  0.00000000000E+00  0.85895625827E+02  0.85895625975E+02  0.50400000000E-02 0. -1.
         -1   -1    0    0    0  501 -0.00000000000E+00 -0.00000000000E+00 -0.57884330029E+03  0.57884330031E+03  0.50400000000E-02 0.  1.
         25    2    1    2    0    0  0.13939920710E+03  0.83245440765E+02 -0.41816337758E+03  0.46566914943E+03  0.12500081613E+03 0.  0.
         23    2    1    2    0    0 -0.13939920710E+03 -0.83245440765E+02 -0.74784296884E+02  0.19906977686E+03  0.87602184057E+02 0.  0.
        -13    1    4    4    0    0 -0.92618451603E+02 -0.77685593801E+01 -0.21113902269E+02  0.95311783769E+02  0.10566000000E+00 0.  1.
         13    1    4    4    0    0 -0.46780755493E+02 -0.75476881385E+02 -0.53670394615E+02  0.10375799309E+03  0.10566000000E+00 0. -1.
    9000005    1    3    3    0    0  0.64534146399E+02  0.86979007911E+02 -0.34225363259E+03  0.35898266378E+03  0.10000000000E+01 0.  0.
    9000005    1    3    3    0    0  0.74865060697E+02 -0.37335671456E+01 -0.75909744986E+02  0.10668648565E+03  0.10000000000E+01 0.  0.
<mgrwt>
<rscale>  0 0.19960025E+03</rscale>
<asrwt>0</asrwt>
<pdfrwt beam="1">  1        1 0.13214712E-01 0.20490765E+03</pdfrwt>
<pdfrwt beam="2">  1       -1 0.89052813E-01 0.20490765E+03</pdfrwt>
<totfact> 0.57337982E+02</totfact>
</mgrwt>
</event>
<event>
 8    3  0.1560846E-003  0.1425233E+03  0.7818608E-02  0.1220645E+00
          1   -1    0    0  501    0  0.00000000000E+00  0.00000000000E+00  0.23286225147E+03  0.23286225153E+03  0.50400000000E-02 0. -1.
         -1   -1    0    0    0  501 -0.00000000000E+00 -0.00000000000E+00 -0.71307642374E+02  0.71307642552E+02  0.50400000000E-02 0.  1.
         25    2    1    2    0    0  0.38717211138E+02 -0.56465618984E+02  0.10595957292E+03  0.17759596401E+03  0.12500202708E+03 0.  0.
         23    2    1    2    0    0 -0.38717211138E+02  0.56465618984E+02  0.55595036179E+02  0.12657393007E+03  0.90789664384E+02 0.  0.
        -13    1    4    4    0    0 -0.38056140484E+01  0.57793563669E+02 -0.33907489646E+01  0.58017988955E+02  0.10566000000E+00 0.  1.
         13    1    4    4    0    0 -0.34911597090E+02 -0.13279446853E+01  0.58985785144E+02  0.68555941111E+02  0.10566000000E+00 0. -1.
    9000005    1    3    3    0    0  0.54983129079E+02 -0.61218689918E+02  0.12652339274E+03  0.15093058467E+03  0.10000000000E+01 0.  0.
    9000005    1    3    3    0    0 -0.16265917941E+02  0.47530709339E+01 -0.20563819822E+02  0.26665379342E+02  0.10000000000E+01 0.  0.
<mgrwt>
<rscale>  0 0.13469916E+03</rscale>
<asrwt>0</asrwt>
<pdfrwt beam="1">  1        1 0.35824961E-01 0.14252332E+03</pdfrwt>
<pdfrwt beam="2">  1       -1 0.10970407E-01 0.14252332E+03</pdfrwt>
<totfact> 0.60953325E+03</totfact>
</mgrwt>
</event>
<event>
 8    3  0.1560846E-003  0.1401528E+03  0.7818608E-02  0.1224202E+00
         -1   -1    0    0    0  501 -0.00000000000E+00  0.00000000000E+00  0.10075866078E+03  0.10075866090E+03  0.50400000000E-02 0.  1.
          1   -1    0    0  501    0  0.00000000000E+00 -0.00000000000E+00 -0.20271175706E+03  0.20271175712E+03  0.50400000000E-02 0. -1.
         25    2    1    2    0    0 -0.37439075467E+02  0.51159240090E+02 -0.12760116997E+03  0.18953855380E+03  0.12499541023E+03 0.  0.
         23    2    1    2    0    0  0.37439075467E+02 -0.51159240090E+02  0.25648073686E+02  0.11393186423E+03  0.91124605810E+02 0.  0.
        -13    1    4    4    0    0  0.51349063720E+02  0.27920495638E+01  0.27238664314E+02  0.58193452238E+02  0.10566000000E+00 0.  1.
         13    1    4    4    0    0 -0.13909988253E+02 -0.53951289653E+02 -0.15905906273E+01  0.55738411989E+02  0.10566000000E+00 0. -1.
    9000005    1    3    3    0    0 -0.28643762809E+02  0.72825086487E+02 -0.21887576458E+02  0.81265148575E+02  0.10000000000E+01 0.  0.
    9000005    1    3    3    0    0 -0.87953126576E+01 -0.21665846398E+02 -0.10571359351E+03  0.10827340522E+03  0.10000000000E+01 0.  0.
<mgrwt>
<rscale>  0 0.13221761E+03</rscale>
<asrwt>0</asrwt>
<pdfrwt beam="2">  1        1 0.31186424E-01 0.14015279E+03</pdfrwt>
<pdfrwt beam="1">  1       -1 0.15501332E-01 0.14015279E+03</pdfrwt>
<totfact> 0.42274603E+03</totfact>
</mgrwt>
</event>
<event>
 8    3  0.1560846E-003  0.1254305E+03  0.7818608E-02  0.1249762E+00
         -1   -1    0    0    0  501 -0.00000000000E+00  0.00000000000E+00  0.84950306944E+01  0.84950321895E+01  0.50400000000E-02 0.  1.
          1   -1    0    0  501    0  0.00000000000E+00 -0.00000000000E+00 -0.19240390734E+04  0.19240390734E+04  0.50400000000E-02 0. -1.
         25    2    1    2    0    0 -0.92711268053E+01 -0.46782391065E+01 -0.55987900537E+03  0.57375718666E+03  0.12499987549E+03 0.  0.
         23    2    1    2    0    0  0.92711268053E+01  0.46782391065E+01 -0.13556650373E+04  0.13587769189E+04  0.91319123268E+02 0.  0.
        -13    1    4    4    0    0  0.38344785075E+00  0.26202902817E+02 -0.11724742920E+03  0.12014037609E+03  0.10566000000E+00 0.  1.
         13    1    4    4    0    0  0.88876789545E+01 -0.21524663710E+02 -0.12384176081E+04  0.12386365428E+04  0.10566000000E+00 0. -1.
    9000005    1    3    3    0    0  0.28083940949E+02 -0.48255043566E+02 -0.15346022399E+03  0.16330430894E+03  0.10000000000E+01 0.  0.
    9000005    1    3    3    0    0 -0.37355067755E+02  0.43576804460E+02 -0.40641878138E+03  0.41045287772E+03  0.10000000000E+01 0.  0.
<mgrwt>
<rscale>  0 0.11604871E+03</rscale>
<asrwt>0</asrwt>
<pdfrwt beam="2">  1        1 0.29600567E+00 0.12543049E+03</pdfrwt>
<pdfrwt beam="1">  1       -1 0.13069294E-02 0.12543049E+03</pdfrwt>
<totfact> 0.47577521E+03</totfact>
</mgrwt>
</event>
<event>
 8    3  0.1560846E-003  0.1572254E+03  0.7818608E-02  0.1198823E+00
         -1   -1    0    0    0  501 -0.00000000000E+00  0.00000000000E+00  0.12599826112E+02  0.12599827120E+02  0.50400000000E-02 0.  1.
          1   -1    0    0  501    0  0.00000000000E+00 -0.00000000000E+00 -0.20066582725E+04  0.20066582725E+04  0.50400000000E-02 0. -1.
         25    2    1    2    0    0 -0.81871651927E+02 -0.48909084861E+02 -0.66380524514E+03  0.68217097687E+03  0.12499908896E+03 0.  0.
         23    2    1    2    0    0  0.81871651927E+02  0.48909084861E+02 -0.13302532012E+04  0.13370871227E+04  0.95568448954E+02 0.  0.
        -13    1    4    4    0    0  0.46780444849E+02 -0.22987589670E+02 -0.39619186614E+03  0.39960586240E+03  0.10566000000E+00 0. -1.
         13    1    4    4    0    0  0.35091207078E+02  0.71896674531E+02 -0.93406133508E+03  0.93748126033E+03  0.10566000000E+00 0.  1.
    9000005    1    3    3    0    0 -0.28550205328E+02 -0.31586985610E+02 -0.57862983602E+03  0.58019508703E+03  0.10000000000E+01 0.  0.
    9000005    1    3    3    0    0 -0.53321446599E+02 -0.17322099251E+02 -0.85175409124E+02  0.10197588984E+03  0.10000000000E+01 0.  0.
<mgrwt>
<rscale>  0 0.15135113E+03</rscale>
<asrwt>0</asrwt>
<pdfrwt beam="2">  1        1 0.30871640E+00 0.15722544E+03</pdfrwt>
<pdfrwt beam="1">  1       -1 0.19384365E-02 0.15722544E+03</pdfrwt>
<totfact> 0.23986403E+03</totfact>
</mgrwt>
</event>
<event>
 8    3  0.1560846E-003  0.1334990E+03  0.7818608E-02  0.1235877E+00
          1   -1    0    0  501    0  0.00000000000E+00  0.00000000000E+00  0.94284831129E+02  0.94284831264E+02  0.50400000000E-02 0. -1.
         -1   -1    0    0    0  501 -0.00000000000E+00 -0.00000000000E+00 -0.15895521596E+03  0.15895521604E+03  0.50400000000E-02 0.  1.
         25    2    1    2    0    0 -0.64685863124E+01  0.46425144175E+02 -0.24449225628E+00  0.13349918798E+03  0.12499934717E+03 0.  0.
         23    2    1    2    0    0  0.64685863124E+01 -0.46425144175E+02 -0.64425892570E+02  0.11974085932E+03  0.89387030027E+02 0.  0.
        -13    1    4    4    0    0 -0.86313197374E+01 -0.56157918893E+02 -0.42903811946E+01  0.56979207345E+02  0.10566000000E+00 0. -1.
         13    1    4    4    0    0  0.15099906050E+02  0.97327747180E+01 -0.60135511375E+02  0.62761651977E+02  0.10566000000E+00 0.  1.
    9000005    1    3    3    0    0  0.47414481320E+02  0.52091724731E+02  0.23601941026E+02  0.74294901874E+02  0.10000000000E+01 0.  0.
    9000005    1    3    3    0    0 -0.53883067632E+02 -0.56665805560E+01 -0.23846433283E+02  0.59204286103E+02  0.10000000000E+01 0.  0.
<mgrwt>
<rscale>  0 0.12448447E+03</rscale>
<asrwt>0</asrwt>
<pdfrwt beam="1">  1        1 0.14505359E-01 0.13349896E+03</pdfrwt>
<pdfrwt beam="2">  1       -1 0.24454649E-01 0.13349896E+03</pdfrwt>
<totfact> 0.53569845E+03</totfact>
</mgrwt>
</event>
<event>
 8    3  0.1560846E-003  0.1353942E+03  0.7818608E-02  0.1232319E+00
         -1   -1    0    0    0  501 -0.00000000000E+00  0.00000000000E+00  0.16084050643E+02  0.16084051433E+02  0.50400000000E-02 0.  1.
          1   -1    0    0  501    0  0.00000000000E+00 -0.00000000000E+00 -0.94645076642E+03  0.94645076644E+03  0.50400000000E-02 0. -1.
         25    2    1    2    0    0  0.10241526402E+02 -0.51007703277E+02 -0.40730287572E+03  0.42921699819E+03  0.12499969725E+03 0.  0.
         23    2    1    2    0    0 -0.10241526402E+02  0.51007703277E+02 -0.52306384006E+03  0.53331781968E+03  0.90141230018E+02 0.  0.
        -13    1    4    4    0    0  0.34715645035E+02  0.46625718535E+02 -0.26159213582E+03  0.26797311493E+03  0.10566000000E+00 0.  1.
         13    1    4    4    0    0 -0.44957171437E+02  0.43819847421E+01 -0.26147170424E+03  0.26534470475E+03  0.10566000000E+00 0. -1.
    9000005    1    3    3    0    0  0.30840053979E+02  0.31378946913E+02 -0.82614709444E+02  0.93605221303E+02  0.10000000000E+01 0.  0.
    9000005    1    3    3    0    0 -0.20598527577E+02 -0.82386650190E+02 -0.32468816628E+03  0.33561177689E+03  0.10000000000E+01 0.  0.
<mgrwt>
<rscale>  0 0.12677666E+03</rscale>
<asrwt>0</asrwt>
<pdfrwt beam="2">  1        1 0.14560777E+00 0.13539424E+03</pdfrwt>
<pdfrwt beam="1">  1       -1 0.24744701E-02 0.13539424E+03</pdfrwt>
<totfact> 0.85084737E+03</totfact>
</mgrwt>
</event>
<event>
 8    3  0.1560846E-003  0.1595054E+03  0.7818608E-02  0.1197230E+00
          1   -1    0    0  501    0  0.00000000000E+00  0.00000000000E+00  0.74295495798E+03  0.74295495800E+03  0.50400000000E-02 0. -1.
         -1   -1    0    0    0  501 -0.00000000000E+00 -0.00000000000E+00 -0.29001964288E+02  0.29001964726E+02  0.50400000000E-02 0.  1.
         25    2    1    2    0    0  0.39714425026E+02  0.90772004564E+02  0.37389201592E+03  0.40649379127E+03  0.12500068163E+03 0.  0.
         23    2    1    2    0    0 -0.39714425026E+02 -0.90772004564E+02  0.34006097778E+03  0.36546313145E+03  0.90027992746E+02 0.  0.
        -13    1    4    4    0    0 -0.32143931440E+02 -0.64386820652E+02  0.96599137465E+02  0.12045870465E+03  0.10566000000E+00 0.  1.
         13    1    4    4    0    0 -0.75704935864E+01 -0.26385183912E+02  0.24346184031E+03  0.24500442681E+03  0.10566000000E+00 0. -1.
    9000005    1    3    3    0    0 -0.16050539937E+02  0.59856365789E+02  0.31032349935E+03  0.31645233228E+03  0.10000000000E+01 0.  0.
    9000005    1    3    3    0    0  0.55764964963E+02  0.30915638775E+02  0.63568516565E+02  0.90041458987E+02  0.10000000000E+01 0.  0.
<mgrwt>
<rscale>  0 0.15267020E+03</rscale>
<asrwt>0</asrwt>
<pdfrwt beam="1">  1        1 0.11430076E+00 0.15950537E+03</pdfrwt>
<pdfrwt beam="2">  1       -1 0.44618407E-02 0.15950537E+03</pdfrwt>
<totfact> 0.52630698E+03</totfact>
</mgrwt>
</event>
<event>
 8    3  0.1560846E-003  0.1590583E+03  0.7818608E-02  0.1197097E+00
         -1   -1    0    0    0  501 -0.00000000000E+00  0.00000000000E+00  0.63600936703E+03  0.63600936705E+03  0.50400000000E-02 0.  1.
          1   -1    0    0  501    0  0.00000000000E+00 -0.00000000000E+00 -0.43618952705E+02  0.43618952996E+02  0.50400000000E-02 0. -1.
         25    2    1    2    0    0  0.60268999198E+02  0.77733692354E+02  0.15628987131E+03  0.22299345045E+03  0.12499870350E+03 0.  0.
         23    2    1    2    0    0 -0.60268999198E+02 -0.77733692354E+02  0.43610054301E+03  0.45663486960E+03  0.93042148108E+02 0.  0.
        -13    1    4    4    0    0 -0.60103810062E+02 -0.90801886425E+02  0.42710750343E+03  0.44077010018E+03  0.10566000000E+00 0.  1.
         13    1    4    4    0    0 -0.16518913602E+00  0.13068194071E+02  0.89930395867E+01  0.15864769421E+02  0.10566000000E+00 0. -1.
    9000005    1    3    3    0    0 -0.43803218792E+01 -0.30857790063E+02  0.44018727842E+02  0.53944775726E+02  0.10000000000E+01 0.  0.
    9000005    1    3    3    0    0  0.64649321077E+02  0.10859148242E+03  0.11227114347E+03  0.16904867472E+03  0.10000000000E+01 0.  0.
<mgrwt>
<rscale>  0 0.15278043E+03</rscale>
<asrwt>0</asrwt>
<pdfrwt beam="2">  1        1 0.67106087E-02 0.15905834E+03</pdfrwt>
<pdfrwt beam="1">  1       -1 0.97847587E-01 0.15905834E+03</pdfrwt>
<totfact> 0.11550620E+03</totfact>
</mgrwt>
</event>
<event>
 8    3  0.1560846E-003  0.2174082E+03  0.7818608E-02  0.1139481E+00
          1   -1    0    0  501    0  0.00000000000E+00  0.00000000000E+00  0.19494617161E+04  0.19494617161E+04  0.50400000000E-02 0. -1.
         -1   -1    0    0    0  501 -0.00000000000E+00 -0.00000000000E+00 -0.23678385762E+02  0.23678386298E+02  0.50400000000E-02 0.  1.
         25    2    1    2    0    0  0.87336793938E+02  0.15496041041E+03  0.75969450353E+03  0.79019116647E+03  0.12500358598E+03 0.  0.
         23    2    1    2    0    0 -0.87336793938E+02 -0.15496041041E+03  0.11660888268E+04  0.11829489359E+04  0.89244544096E+02 0.  0.
        -13    1    4    4    0    0 -0.56334931822E+02 -0.24633234807E+02  0.27075987600E+03  0.27765327734E+03  0.10566000000E+00 0. -1.
         13    1    4    4    0    0 -0.31001862116E+02 -0.13032717560E+03  0.89532895082E+03  0.90529565861E+03  0.10566000000E+00 0.  1.
    9000005    1    3    3    0    0  0.63387526111E+01 -0.18644419053E+02  0.31035829417E+02  0.36769781806E+02  0.10000000000E+01 0.  0.
    9000005    1    3    3    0    0  0.80998041327E+02  0.17360482946E+03  0.72865867411E+03  0.75342138467E+03  0.10000000000E+01 0.  0.
<mgrwt>
<rscale>  0 0.21265509E+03</rscale>
<asrwt>0</asrwt>
<pdfrwt beam="1">  1        1 0.29991722E+00 0.21740824E+03</pdfrwt>
<pdfrwt beam="2">  1       -1 0.36428283E-02 0.21740824E+03</pdfrwt>
<totfact> 0.10334870E+03</totfact>
</mgrwt>
</event>
<event>
 8    3  0.1560846E-003  0.1497209E+03  0.7818608E-02  0.1209915E+00
          1   -1    0    0  501    0  0.00000000000E+00  0.00000000000E+00  0.24546332426E+03  0.24546332431E+03  0.50400000000E-02 0.  1.
         -1   -1    0    0    0  501 -0.00000000000E+00 -0.00000000000E+00 -0.85000467892E+02  0.85000468042E+02  0.50400000000E-02 0. -1.
         25    2    1    2    0    0  0.27999367037E+01 -0.82360423211E+02  0.33095291742E+02  0.15333508414E+03  0.12500108293E+03 0.  0.
         23    2    1    2    0    0 -0.27999367037E+01  0.82360423211E+02  0.12736756462E+03  0.17712870822E+03  0.91438524696E+02 0.  0.
        -13    1    4    4    0    0 -0.11909128905E+02  0.59488564370E+02  0.15546094222E+02  0.62629137402E+02  0.10566000000E+00 0. -1.
         13    1    4    4    0    0  0.91091922014E+01  0.22871858841E+02  0.11182147040E+03  0.11449957081E+03  0.10566000000E+00 0.  1.
    9000005    1    3    3    0    0  0.34684563751E+02  0.21327143055E+02  0.14711182820E+02  0.43304559731E+02  0.10000000000E+01 0.  0.
    9000005    1    3    3    0    0 -0.31884627047E+02 -0.10368756627E+03  0.18384108922E+02  0.11003052441E+03  0.10000000000E+01 0.  0.
<mgrwt>
<rscale>  0 0.14256761E+03</rscale>
<asrwt>0</asrwt>
<pdfrwt beam="1">  1        1 0.37763588E-01 0.14972091E+03</pdfrwt>
<pdfrwt beam="2">  1       -1 0.13076995E-01 0.14972091E+03</pdfrwt>
<totfact> 0.43646475E+03</totfact>
</mgrwt>
</event>
<event>
 8    3  0.1560846E-003  0.3681058E+03  0.7818608E-02  0.1056381E+00
         -1   -1    0    0    0  501 -0.00000000000E+00  0.00000000000E+00  0.25311890442E+03  0.25311890447E+03  0.50400000000E-02 0.  1.
          1   -1    0    0  501    0  0.00000000000E+00 -0.00000000000E+00 -0.86168350659E+03  0.86168350661E+03  0.50400000000E-02 0. -1.
         25    2    1    2    0    0  0.31526227884E+03  0.14312425800E+03 -0.65718672741E+03  0.75325708790E+03  0.12500795210E+03 0.  0.
         23    2    1    2    0    0 -0.31526227884E+03 -0.14312425800E+03  0.48622125242E+02  0.36154532318E+03  0.92065476478E+02 0.  0.
        -13    1    4    4    0    0 -0.69616622581E+02 -0.32794627690E+02 -0.27479399640E+02  0.81713464702E+02  0.10566000000E+00 0. -1.
         13    1    4    4    0    0 -0.24564565626E+03 -0.11032963031E+03  0.76101524882E+02  0.27983185848E+03  0.10566000000E+00 0.  1.
    9000005    1    3    3    0    0  0.28342155270E+03  0.84071194998E+02 -0.47932473621E+03  0.56315978648E+03  0.10000000000E+01 0.  0.
    9000005    1    3    3    0    0  0.31840726141E+02  0.59053063005E+02 -0.17786199121E+03  0.19009730142E+03  0.10000000000E+01 0.  0.
<mgrwt>
<rscale>  0 0.36561948E+03</rscale>
<asrwt>0</asrwt>
<pdfrwt beam="2">  1        1 0.13256669E+00 0.36810575E+03</pdfrwt>
<pdfrwt beam="1">  1       -1 0.38941370E-01 0.36810575E+03</pdfrwt>
<totfact> 0.13222802E+02</totfact>
</mgrwt>
</event>
<event>
 8    3  0.1560846E-003  0.1382888E+03  0.7818608E-02  0.1227263E+00
         -1   -1    0    0    0  501 -0.00000000000E+00  0.00000000000E+00  0.10712845380E+02  0.10712846565E+02  0.50400000000E-02 0.  1.
          1   -1    0    0  501    0  0.00000000000E+00 -0.00000000000E+00 -0.14304038301E+04  0.14304038301E+04  0.50400000000E-02 0. -1.
         25    2    1    2    0    0  0.53816265030E+02 -0.24545558549E+02 -0.85471458154E+03  0.86582955633E+03  0.12500051954E+03 0.  0.
         23    2    1    2    0    0 -0.53816265030E+02  0.24545558549E+02 -0.56497640321E+03  0.57528712037E+03  0.90874968292E+02 0.  0.
        -13    1    4    4    0    0 -0.23899735110E+02  0.49962121736E+02 -0.18034655068E+03  0.18865921778E+03  0.10566000000E+00 0.  1.
         13    1    4    4    0    0 -0.29916529920E+02 -0.25416563187E+02 -0.38462985253E+03  0.38662790260E+03  0.10566000000E+00 0. -1.
    9000005    1    3    3    0    0  0.65380084825E+01 -0.70355374364E+02 -0.51135682744E+03  0.51621645579E+03  0.10000000000E+01 0.  0.
    9000005    1    3    3    0    0  0.47278256547E+02  0.45809815815E+02 -0.34335775410E+03  0.34961310054E+03  0.10000000000E+01 0.  0.
<mgrwt>
<rscale>  0 0.13012991E+03</rscale>
<asrwt>0</asrwt>
<pdfrwt beam="2">  1        1 0.22006198E+00 0.13828885E+03</pdfrwt>
<pdfrwt beam="1">  1       -1 0.16481313E-02 0.13828885E+03</pdfrwt>
<totfact> 0.70854442E+03</totfact>
</mgrwt>
</event>
<event>
 8    3  0.1560846E-003  0.1542884E+03  0.7818608E-02  0.1203782E+00
          1   -1    0    0  501    0  0.00000000000E+00  0.00000000000E+00  0.27393350198E+04  0.27393350198E+04  0.50400000000E-02 0. -1.
         -1   -1    0    0    0  501 -0.00000000000E+00 -0.00000000000E+00 -0.81044678279E+01  0.81044693951E+01  0.50400000000E-02 0.  1.
         25    2    1    2    0    0  0.34270260171E+02  0.83692609796E+02  0.19127446557E+04  0.19189572783E+04  0.12500405713E+03 0.  0.
         23    2    1    2    0    0 -0.34270260171E+02 -0.83692609796E+02  0.81848589625E+03  0.82848221089E+03  0.91020369931E+02 0.  0.
        -13    1    4    4    0    0 -0.21774270981E+02 -0.84924144581E+02  0.38669814002E+03  0.39651190633E+03  0.10566000000E+00 0.  1.
         13    1    4    4    0    0 -0.12495989190E+02  0.12315347856E+01  0.43178775623E+03  0.43197030456E+03  0.10566000000E+00 0. -1.
    9000005    1    3    3    0    0 -0.27894429643E+02 -0.18425610304E+02  0.52968562262E+03  0.53074048379E+03  0.10000000000E+01 0.  0.
    9000005    1    3    3    0    0  0.62164689815E+02  0.10211822010E+03  0.13830590331E+04  0.13882167945E+04  0.10000000000E+01 0.  0.
<mgrwt>
<rscale>  0 0.14733830E+03</rscale>
<asrwt>0</asrwt>
<pdfrwt beam="1">  1        1 0.42143665E+00 0.15428842E+03</pdfrwt>
<pdfrwt beam="2">  1       -1 0.12468399E-02 0.15428842E+03</pdfrwt>
<totfact> 0.15117466E+03</totfact>
</mgrwt>
</event>
<event>
 8    3  0.1560846E-003  0.1377746E+03  0.7818608E-02  0.1226690E+00
         -1   -1    0    0    0  501 -0.00000000000E+00  0.00000000000E+00  0.33505246375E+03  0.33505246378E+03  0.50400000000E-02 0.  1.
          1   -1    0    0  501    0  0.00000000000E+00 -0.00000000000E+00 -0.53631917439E+02  0.53631917676E+02  0.50400000000E-02 0. -1.
         25    2    1    2    0    0 -0.53307796727E+02 -0.22698114018E+02  0.81609650043E+02  0.16013114137E+03  0.12499968753E+03 0.  0.
         23    2    1    2    0    0  0.53307796727E+02  0.22698114018E+02  0.19981089626E+03  0.22855324009E+03  0.94632255172E+02 0.  0.
        -13    1    4    4    0    0  0.24517061526E+02  0.38428840356E+02  0.27693094928E+02  0.53336486083E+02  0.10566000000E+00 0. -1.
         13    1    4    4    0    0  0.28790735201E+02 -0.15730726339E+02  0.17211780134E+03  0.17521675401E+03  0.10566000000E+00 0.  1.
    9000005    1    3    3    0    0  0.11149057628E+02 -0.51247848534E+02  0.22763344279E+00  0.52456603801E+02  0.10000000000E+01 0.  0.
    9000005    1    3    3    0    0 -0.64456854355E+02  0.28549734516E+02  0.81382016600E+02  0.10767453757E+03  0.10000000000E+01 0.  0.
<mgrwt>
<rscale>  0 0.13051753E+03</rscale>
<asrwt>0</asrwt>
<pdfrwt beam="2">  1        1 0.82510643E-02 0.13777463E+03</pdfrwt>
<pdfrwt beam="1">  1       -1 0.51546533E-01 0.13777463E+03</pdfrwt>
<totfact> 0.31186666E+03</totfact>
</mgrwt>
</event>
<event>
 8    3  0.1560846E-003  0.1562908E+03  0.7818608E-02  0.1200868E+00
         -1   -1    0    0    0  501 -0.00000000000E+00  0.00000000000E+00  0.13449733908E+03  0.13449733917E+03  0.50400000000E-02 0.  1.
          1   -1    0    0  501    0  0.00000000000E+00 -0.00000000000E+00 -0.15413755465E+03  0.15413755474E+03  0.50400000000E-02 0. -1.
         25    2    1    2    0    0 -0.59423345798E+02  0.72598907752E+02 -0.53169549128E+01  0.15638122933E+03  0.12500033378E+03 0.  0.
         23    2    1    2    0    0  0.59423345798E+02 -0.72598907752E+02 -0.14323260663E+02  0.13225366458E+03  0.92109394558E+02 0.  0.
        -13    1    4    4    0    0 -0.12245797928E+02 -0.54606003527E+02 -0.16449201175E+02  0.58329774313E+02  0.10566000000E+00 0.  1.
         13    1    4    4    0    0  0.71669143726E+02 -0.17992904225E+02  0.21259405124E+01  0.73923890266E+02  0.10566000000E+00 0. -1.
    9000005    1    3    3    0    0  0.97658781530E+01  0.72954444766E+02  0.29028838822E+02  0.79128988813E+02  0.10000000000E+01 0.  0.
    9000005    1    3    3    0    0 -0.69189223951E+02 -0.35553701392E+00 -0.34345793735E+02  0.77252240516E+02  0.10000000000E+01 0.  0.
<mgrwt>
<rscale>  0 0.14967922E+03</rscale>
<asrwt>0</asrwt>
<pdfrwt beam="2">  1        1 0.23713470E-01 0.15629082E+03</pdfrwt>
<pdfrwt beam="1">  1       -1 0.20691898E-01 0.15629082E+03</pdfrwt>
<totfact> 0.37827793E+03</totfact>
</mgrwt>
</event>
<event>
 8    3  0.1560846E-003  0.1295008E+03  0.7818608E-02  0.1242372E+00
          1   -1    0    0  501    0  0.00000000000E+00  0.00000000000E+00  0.35793476479E+04  0.35793476479E+04  0.50400000000E-02 0. -1.
         -1   -1    0    0    0  501 -0.00000000000E+00 -0.00000000000E+00 -0.37204427722E+01  0.37204461859E+01  0.50400000000E-02 0.  1.
         25    2    1    2    0    0  0.30413682759E+02  0.14908641977E+02  0.23805034892E+04  0.23840233462E+04  0.12499277445E+03 0.  0.
         23    2    1    2    0    0 -0.30413682759E+02 -0.14908641977E+02  0.11951237159E+04  0.11990447478E+04  0.90776380431E+02 0.  0.
        -13    1    4    4    0    0 -0.17395195650E+02  0.38183503806E+02  0.47546028350E+03  0.47730814485E+03  0.10566000000E+00 0.  1.
         13    1    4    4    0    0 -0.13018487109E+02 -0.53092145784E+02  0.71966343241E+03  0.72173660297E+03  0.10566000000E+00 0. -1.
    9000005    1    3    3    0    0  0.67355316867E+02  0.39235148666E+01  0.20749972393E+04  0.20760940912E+04  0.10000000000E+01 0.  0.
    9000005    1    3    3    0    0 -0.36941634107E+02  0.10985127111E+02  0.30550624992E+03  0.30792925500E+03  0.10000000000E+01 0.  0.
<mgrwt>
<rscale>  0 0.12044082E+03</rscale>
<asrwt>0</asrwt>
<pdfrwt beam="1">  1        1 0.55066672E+00 0.12950079E+03</pdfrwt>
<pdfrwt beam="2">  1       -1 0.57237831E-03 0.12950079E+03</pdfrwt>
<totfact> 0.11736686E+03</totfact>
</mgrwt>
</event>
<event>
 8    3  0.1560846E-003  0.1342997E+03  0.7818608E-02  0.1233931E+00
         -1   -1    0    0    0  501 -0.00000000000E+00  0.00000000000E+00  0.14230799590E+02  0.14230800482E+02  0.50400000000E-02 0.  1.
          1   -1    0    0  501    0  0.00000000000E+00 -0.00000000000E+00 -0.12441938815E+04  0.12441938815E+04  0.50400000000E-02 0. -1.
         25    2    1    2    0    0  0.38534813706E+02  0.30463625833E+02 -0.96126131356E+03  0.97059761502E+03  0.12499381169E+03 0.  0.
         23    2    1    2    0    0 -0.38534813706E+02 -0.30463625833E+02 -0.26870176838E+03  0.28782706700E+03  0.90723843639E+02 0.  0.
        -13    1    4    4    0    0 -0.12876235187E+02 -0.44223069041E+00 -0.23655289282E+03  0.23690351468E+03  0.10566000000E+00 0. -1.
         13    1    4    4    0    0 -0.25658578519E+02 -0.30021395143E+02 -0.32148875556E+02  0.50923552326E+02  0.10566000000E+00 0.  1.
    9000005    1    3    3    0    0  0.77489474831E+02  0.47924153304E+02 -0.69159854785E+03  0.69757501000E+03  0.10000000000E+01 0.  0.
    9000005    1    3    3    0    0 -0.38954661124E+02 -0.17460527470E+02 -0.26966276571E+03  0.27302260502E+03  0.10000000000E+01 0.  0.
<mgrwt>
<rscale>  0 0.12573128E+03</rscale>
<asrwt>0</asrwt>
<pdfrwt beam="2">  1        1 0.19141436E+00 0.13429973E+03</pdfrwt>
<pdfrwt beam="1">  1       -1 0.21893548E-02 0.13429973E+03</pdfrwt>
<totfact> 0.62489310E+03</totfact>
</mgrwt>
</event>
<event>
 8    3  0.1560846E-003  0.1265734E+03  0.7818608E-02  0.1247331E+00
         -1   -1    0    0    0  501 -0.00000000000E+00  0.00000000000E+00  0.25326572053E+02  0.25326572555E+02  0.50400000000E-02 0.  1.
          1   -1    0    0  501    0  0.00000000000E+00 -0.00000000000E+00 -0.52641105579E+03  0.52641105581E+03  0.50400000000E-02 0. -1.
         25    2    1    2    0    0  0.68743793646E+01  0.18689933637E+02 -0.20314265864E+03  0.23934861997E+03  0.12499700561E+03 0.  0.
         23    2    1    2    0    0 -0.68743793646E+01 -0.18689933637E+02 -0.29794182510E+03  0.31238900840E+03  0.91765956188E+02 0.  0.
        -13    1    4    4    0    0 -0.25615806827E+02 -0.35550333716E+02 -0.66879033061E+02  0.79955062466E+02  0.10566000000E+00 0.  1.
         13    1    4    4    0    0  0.18741427462E+02  0.16860400079E+02 -0.23106279204E+03  0.23243394593E+03  0.10566000000E+00 0. -1.
    9000005    1    3    3    0    0 -0.25740012777E+02  0.23183507225E+02 -0.20347909835E+03  0.20640922152E+03  0.10000000000E+01 0.  0.
    9000005    1    3    3    0    0  0.32614392142E+02 -0.44935735878E+01  0.33643970928E+00  0.32939398447E+02  0.10000000000E+01 0.  0.
<mgrwt>
<rscale>  0 0.11746957E+03</rscale>
<asrwt>0</asrwt>
<pdfrwt beam="2">  1        1 0.80986308E-01 0.12657339E+03</pdfrwt>
<pdfrwt beam="1">  1       -1 0.38963961E-02 0.12657339E+03</pdfrwt>
<totfact> 0.10213199E+04</totfact>
</mgrwt>
</event>
<event>
 8    3  0.1560846E-003  0.1325496E+03  0.7818608E-02  0.1236419E+00
         -1   -1    0    0    0  501 -0.00000000000E+00  0.00000000000E+00  0.63286998855E+02  0.63286999056E+02  0.50400000000E-02 0.  1.
          1   -1    0    0  501    0  0.00000000000E+00 -0.00000000000E+00 -0.22142564989E+03  0.22142564995E+03  0.50400000000E-02 0. -1.
         25    2    1    2    0    0  0.35051182632E+02 -0.26788844357E+02 -0.69868225781E+02  0.14983642964E+03  0.12499263614E+03 0.  0.
         23    2    1    2    0    0 -0.35051182632E+02  0.26788844357E+02 -0.88270425257E+02  0.13487621936E+03  0.91943999199E+02 0.  0.
        -13    1    4    4    0    0 -0.23977255178E+01  0.25351315515E+01 -0.93766103137E+02  0.93831067569E+02  0.10566000000E+00 0. -1.
         13    1    4    4    0    0 -0.32653457114E+02  0.24253712806E+02  0.54956778802E+01  0.41045151794E+02  0.10566000000E+00 0.  1.
    9000005    1    3    3    0    0  0.35046110482E+02 -0.27720656349E+02 -0.10529235171E+03  0.11438594309E+03  0.10000000000E+01 0.  0.
    9000005    1    3    3    0    0  0.50721494549E-02  0.93181199202E+00  0.35424125926E+02  0.35450486554E+02  0.10000000000E+01 0.  0.
<mgrwt>
<rscale>  0 0.12414022E+03</rscale>
<asrwt>0</asrwt>
<pdfrwt beam="2">  1        1 0.34065484E-01 0.13254956E+03</pdfrwt>
<pdfrwt beam="1">  1       -1 0.97364615E-02 0.13254956E+03</pdfrwt>
<totfact> 0.77494914E+03</totfact>
</mgrwt>
</event>
<event>
 8    3  0.1560846E-003  0.1287971E+03  0.7818608E-02  0.1244330E+00
          1   -1    0    0  501    0  0.00000000000E+00  0.00000000000E+00  0.10680245359E+03  0.10680245370E+03  0.50400000000E-02 0. -1.
         -1   -1    0    0    0  501 -0.00000000000E+00 -0.00000000000E+00 -0.16715866744E+03  0.16715866752E+03  0.50400000000E-02 0.  1.
         25    2    1    2    0    0 -0.10080985656E+02 -0.29357594344E+02 -0.10790519319E+03  0.16802447431E+03  0.12500079452E+03 0.  0.
         23    2    1    2    0    0  0.10080985656E+02  0.29357594344E+02  0.47548979338E+02  0.10593664691E+03  0.89432505867E+02 0.  0.
        -13    1    4    4    0    0  0.11066733896E+02  0.15862429639E+02  0.73859704061E+02  0.76350221488E+02  0.10566000000E+00 0. -1.
         13    1    4    4    0    0 -0.98574823911E+00  0.13495164705E+02 -0.26310724723E+02  0.29586425426E+02  0.10566000000E+00 0.  1.
    9000005    1    3    3    0    0 -0.46337964132E+02 -0.53534808580E+02 -0.10180449070E+03  0.12400942294E+03  0.10000000000E+01 0.  0.
    9000005    1    3    3    0    0  0.36256978475E+02  0.24177214236E+02 -0.61007024885E+01  0.44015051371E+02  0.10000000000E+01 0.  0.
<mgrwt>
<rscale>  0 0.11925543E+03</rscale>
<asrwt>0</asrwt>
<pdfrwt beam="1">  1        1 0.16431147E-01 0.12879710E+03</pdfrwt>
<pdfrwt beam="2">  1       -1 0.25716718E-01 0.12879710E+03</pdfrwt>
<totfact> 0.41894922E+03</totfact>
</mgrwt>
</event>
<event>
 8    3  0.1560846E-003  0.1449152E+03  0.7818608E-02  0.1216711E+00
         -1   -1    0    0    0  501 -0.00000000000E+00  0.00000000000E+00  0.57938164063E+02  0.57938164283E+02  0.50400000000E-02 0.  1.
          1   -1    0    0  501    0  0.00000000000E+00 -0.00000000000E+00 -0.30648983094E+03  0.30648983098E+03  0.50400000000E-02 0. -1.
         25    2    1    2    0    0 -0.50637606103E+02  0.53016155573E+02 -0.10522491700E+03  0.17908850686E+03  0.12500212089E+03 0.  0.
         23    2    1    2    0    0  0.50637606103E+02 -0.53016155573E+02 -0.14332674988E+03  0.18533948841E+03  0.91832939782E+02 0.  0.
        -13    1    4    4    0    0  0.95337755335E+01 -0.48704444440E+02 -0.17057431483E+02  0.52478404291E+02  0.10566000000E+00 0.  1.
         13    1    4    4    0    0  0.41103830570E+02 -0.43117111329E+01 -0.12626931840E+03  0.13286108412E+03  0.10566000000E+00 0. -1.
    9000005    1    3    3    0    0 -0.85249216646E+02  0.58190141670E+02 -0.99951564439E+02  0.14368311230E+03  0.10000000000E+01 0.  0.
    9000005    1    3    3    0    0  0.34611610542E+02 -0.51739860971E+01 -0.52733525574E+01  0.35405394556E+02  0.10000000000E+01 0.  0.
<mgrwt>
<rscale>  0 0.13751575E+03</rscale>
<asrwt>0</asrwt>
<pdfrwt beam="2">  1        1 0.47152281E-01 0.14491518E+03</pdfrwt>
<pdfrwt beam="1">  1       -1 0.89135639E-02 0.14491518E+03</pdfrwt>
<totfact> 0.59618591E+03</totfact>
</mgrwt>
</event>
<event>
 8    3  0.1560846E-003  0.1470253E+03  0.7818608E-02  0.1216768E+00
         -1   -1    0    0    0  501 -0.00000000000E+00  0.00000000000E+00  0.22824988217E+02  0.22824988774E+02  0.50400000000E-02 0.  1.
          1   -1    0    0  501    0  0.00000000000E+00 -0.00000000000E+00 -0.75862366572E+03  0.75862366574E+03  0.50400000000E-02 0. -1.
         25    2    1    2    0    0  0.47905955908E+01 -0.77255594602E+02 -0.35034058808E+03  0.37994072367E+03  0.12500019656E+03 0.  0.
         23    2    1    2    0    0 -0.47905955908E+01  0.77255594602E+02 -0.38545808942E+03  0.40150793084E+03  0.81481919020E+02 0.  0.
        -13    1    4    4    0    0  0.19058379926E+02  0.65493334810E+02 -0.35308608921E+03  0.35961423263E+03  0.10566000000E+00 0. -1.
         13    1    4    4    0    0 -0.23848975517E+02  0.11762259792E+02 -0.32372000209E+02  0.41893698216E+02  0.10566000000E+00 0.  1.
    9000005    1    3    3    0    0  0.67416736441E+01 -0.84382930401E+02 -0.35880683428E+03  0.36865874930E+03  0.10000000000E+01 0.  0.
    9000005    1    3    3    0    0 -0.19510780533E+01  0.71273357992E+01  0.84662461942E+01  0.11281974374E+02  0.10000000000E+01 0.  0.
<mgrwt>
<rscale>  0 0.13747455E+03</rscale>
<asrwt>0</asrwt>
<pdfrwt beam="2">  1        1 0.11671131E+00 0.14702526E+03</pdfrwt>
<pdfrwt beam="1">  1       -1 0.35115373E-02 0.14702526E+03</pdfrwt>
<totfact> 0.72327863E+03</totfact>
</mgrwt>
</event>
<event>
 8    3  0.1560846E-003  0.1763411E+03  0.7818608E-02  0.1177304E+00
          1   -1    0    0  501    0  0.00000000000E+00  0.00000000000E+00  0.14422853336E+03  0.14422853345E+03  0.50400000000E-02 0. -1.
         -1   -1    0    0    0  501 -0.00000000000E+00 -0.00000000000E+00 -0.19321651382E+03  0.19321651388E+03  0.50400000000E-02 0.  1.
         25    2    1    2    0    0 -0.10472130552E+03 -0.67127559218E+02 -0.23604662840E+01  0.17635693349E+03  0.12499414048E+03 0.  0.
         23    2    1    2    0    0  0.10472130552E+03  0.67127559218E+02 -0.46627514172E+02  0.16108811384E+03  0.91118572784E+02 0.  0.
        -13    1    4    4    0    0  0.65927104560E+02  0.44412916379E+02  0.18819312788E+02  0.81688848411E+02  0.10566000000E+00 0. -1.
         13    1    4    4    0    0  0.38794200959E+02  0.22714642839E+02 -0.65446826959E+02  0.79399265428E+02  0.10566000000E+00 0.  1.
    9000005    1    3    3    0    0 -0.10389930423E+03 -0.92843624460E+02  0.21813935789E+02  0.14103847637E+03  0.10000000000E+01 0.  0.
    9000005    1    3    3    0    0 -0.82200128405E+00  0.25716065242E+02 -0.24174402073E+02  0.35318457118E+02  0.10000000000E+01 0.  0.
<mgrwt>
<rscale>  0 0.17052218E+03</rscale>
<asrwt>0</asrwt>
<pdfrwt beam="1">  1        1 0.22189005E-01 0.17634114E+03</pdfrwt>
<pdfrwt beam="2">  1       -1 0.29725618E-01 0.17634114E+03</pdfrwt>
<totfact> 0.22752099E+03</totfact>
</mgrwt>
</event>
<event>
 8    3  0.1560846E-003  0.1989927E+03  0.7818608E-02  0.1152793E+00
         -1   -1    0    0    0  501 -0.00000000000E+00  0.00000000000E+00  0.53437914264E+02  0.53437914502E+02  0.50400000000E-02 0.  1.
          1   -1    0    0  501    0  0.00000000000E+00 -0.00000000000E+00 -0.71450618238E+03  0.71450618240E+03  0.50400000000E-02 0. -1.
         25    2    1    2    0    0  0.11273804656E+03  0.10614630450E+03 -0.38569054251E+03  0.43399917668E+03  0.12498474176E+03 0.  0.
         23    2    1    2    0    0 -0.11273804656E+03 -0.10614630450E+03 -0.27537772560E+03  0.33394492022E+03  0.10821004059E+03 0.  0.
        -13    1    4    4    0    0 -0.81788763739E+02 -0.43604212291E+01 -0.10654271135E+03  0.13438666472E+03  0.10566000000E+00 0.  1.
         13    1    4    4    0    0 -0.30949282819E+02 -0.10178588327E+03 -0.16883501425E+03  0.19955825550E+03  0.10566000000E+00 0. -1.
    9000005    1    3    3    0    0  0.92996298647E+02  0.10972418684E+03 -0.38797704302E+03  0.41378121592E+03  0.10000000000E+01 0.  0.
    9000005    1    3    3    0    0  0.19741747912E+02 -0.35778823470E+01  0.22865005030E+01  0.20217960759E+02  0.10000000000E+01 0.  0.
<mgrwt>
<rscale>  0 0.19642220E+03</rscale>
<asrwt>0</asrwt>
<pdfrwt beam="2">  1        1 0.10992402E+00 0.19899269E+03</pdfrwt>
<pdfrwt beam="1">  1       -1 0.82212181E-02 0.19899269E+03</pdfrwt>
<totfact> 0.22423263E+03</totfact>
</mgrwt>
</event>
<event>
 8    3  0.1560846E-003  0.1312536E+03  0.7818608E-02  0.1239474E+00
         -1   -1    0    0    0  501 -0.00000000000E+00  0.00000000000E+00  0.91385985249E+02  0.91385985388E+02  0.50400000000E-02 0.  1.
          1   -1    0    0  501    0  0.00000000000E+00 -0.00000000000E+00 -0.14848184307E+03  0.14848184315E+03  0.50400000000E-02 0. -1.
         25    2    1    2    0    0 -0.17723716498E+02 -0.35771721777E+02 -0.51574729750E+02  0.14102286542E+03  0.12503499358E+03 0.  0.
         23    2    1    2    0    0  0.17723716498E+02  0.35771721777E+02 -0.55211280709E+01  0.98844963118E+02  0.90255734849E+02 0.  0.
        -13    1    4    4    0    0  0.15759613147E+02  0.44273778774E+02 -0.40964633228E+02  0.62342964583E+02  0.10566000000E+00 0. -1.
         13    1    4    4    0    0  0.19641033512E+01 -0.85020569967E+01  0.35443505157E+02  0.36501998535E+02  0.10566000000E+00 0.  1.
    9000005    1    3    3    0    0 -0.25563308026E+02 -0.56419832079E+02  0.20799105859E+02  0.65347402195E+02  0.10000000000E+01 0.  0.
    9000005    1    3    3    0    0  0.78395915272E+01  0.20648110302E+02 -0.72373835609E+02  0.75675463230E+02  0.10000000000E+01 0.  0.
<mgrwt>
<rscale>  0 0.12222282E+03</rscale>
<asrwt>0</asrwt>
<pdfrwt beam="2">  1        1 0.22843361E-01 0.13125356E+03</pdfrwt>
<pdfrwt beam="1">  1       -1 0.14059382E-01 0.13125356E+03</pdfrwt>
<totfact> 0.72409365E+03</totfact>
</mgrwt>
</event>
<event>
 8    3  0.1560846E-003  0.1706282E+03  0.7818608E-02  0.1183696E+00
         -1   -1    0    0    0  501 -0.00000000000E+00  0.00000000000E+00  0.79457429308E+01  0.79457445292E+01  0.50400000000E-02 0.  1.
          1   -1    0    0  501    0  0.00000000000E+00 -0.00000000000E+00 -0.37353006684E+04  0.37353006684E+04  0.50400000000E-02 0. -1.
         25    2    1    2    0    0 -0.21919098855E+02 -0.11404484401E+03 -0.12614891270E+04  0.12729763595E+04  0.12500928354E+03 0.  0.
         23    2    1    2    0    0  0.21919098855E+02  0.11404484401E+03 -0.24658657984E+04  0.24702700534E+04  0.90847825949E+02 0.  0.
        -13    1    4    4    0    0  0.57238005912E+02  0.65536577094E+02 -0.15505697149E+04  0.15530092350E+04  0.10566000000E+00 0. -1.
         13    1    4    4    0    0 -0.35318907057E+02  0.48508266913E+02 -0.91529608355E+03  0.91726081835E+03  0.10566000000E+00 0.  1.
    9000005    1    3    3    0    0 -0.97098561478E+01  0.19373877320E+02 -0.55845649011E+02  0.59911308968E+02  0.10000000000E+01 0.  0.
    9000005    1    3    3    0    0 -0.12209242707E+02 -0.13341872133E+03 -0.12056434780E+04  0.12130650505E+04  0.10000000000E+01 0.  0.
<mgrwt>
<rscale>  0 0.16451126E+03</rscale>
<asrwt>0</asrwt>
<pdfrwt beam="2">  1        1 0.57466024E+00 0.17062823E+03</pdfrwt>
<pdfrwt beam="1">  1       -1 0.12224251E-02 0.17062823E+03</pdfrwt>
<totfact> 0.29849838E+02</totfact>
</mgrwt>
</event>
<event>
 8    3  0.1560846E-003  0.1557870E+03  0.7818608E-02  0.1201583E+00
          1   -1    0    0  501    0  0.00000000000E+00  0.00000000000E+00  0.17788930079E+03  0.17788930086E+03  0.50400000000E-02 0. -1.
         -1   -1    0    0    0  501 -0.00000000000E+00 -0.00000000000E+00 -0.12403296480E+03  0.12403296490E+03  0.50400000000E-02 0.  1.
         25    2    1    2    0    0  0.45151571113E+02 -0.81278933234E+02 -0.10665827327E+02  0.15615170993E+03  0.12499866911E+03 0.  0.
         23    2    1    2    0    0 -0.45151571113E+02  0.81278933234E+02  0.64522163321E+02  0.14577055583E+03  0.91875002180E+02 0.  0.
        -13    1    4    4    0    0  0.59327475441E+01 -0.17249219356E+02  0.19039961905E+01  0.18340376969E+02  0.10566000000E+00 0.  1.
         13    1    4    4    0    0 -0.51084318657E+02  0.98528152591E+02  0.62618167130E+02  0.12743017886E+03  0.10566000000E+00 0. -1.
    9000005    1    3    3    0    0 -0.17791942544E+02 -0.90368600263E+02 -0.39445256769E+01  0.92193255804E+02  0.10000000000E+01 0.  0.
    9000005    1    3    3    0    0  0.62943513657E+02  0.90896670284E+01 -0.67213016503E+01  0.63958454125E+02  0.10000000000E+01 0.  0.
<mgrwt>
<rscale>  0 0.14910024E+03</rscale>
<asrwt>0</asrwt>
<pdfrwt beam="1">  1        1 0.27367585E-01 0.15578702E+03</pdfrwt>
<pdfrwt beam="2">  1       -1 0.19081995E-01 0.15578702E+03</pdfrwt>
<totfact> 0.35976238E+03</totfact>
</mgrwt>
</event>
<event>
 8    3  0.1560846E-003  0.1567569E+03  0.7818608E-02  0.1200236E+00
         -1   -1    0    0    0  501 -0.00000000000E+00  0.00000000000E+00  0.24267873362E+03  0.24267873368E+03  0.50400000000E-02 0.  1.
          1   -1    0    0  501    0  0.00000000000E+00 -0.00000000000E+00 -0.16886482369E+03  0.16886482376E+03  0.50400000000E-02 0. -1.
         25    2    1    2    0    0 -0.18275538870E+02  0.92808710687E+02  0.18242460943E+03  0.24052328714E+03  0.12500104572E+03 0.  0.
         23    2    1    2    0    0  0.18275538870E+02 -0.92808710687E+02 -0.10861069949E+03  0.17102027030E+03  0.92218201608E+02 0.  0.
        -13    1    4    4    0    0 -0.34424846117E+01 -0.91438822624E+02 -0.41509642546E+02  0.10047870706E+03  0.10566000000E+00 0.  1.
         13    1    4    4    0    0  0.21718023482E+02 -0.13698880634E+01 -0.67101056946E+02  0.70541563242E+02  0.10566000000E+00 0. -1.
    9000005    1    3    3    0    0  0.46693404364E+02  0.47758498235E+02  0.12847959735E+03  0.14480730334E+03  0.10000000000E+01 0.  0.
    9000005    1    3    3    0    0 -0.64968943235E+02  0.45050212453E+02  0.53945012082E+02  0.95715983804E+02  0.10000000000E+01 0.  0.
<mgrwt>
<rscale>  0 0.15019293E+03</rscale>
<asrwt>0</asrwt>
<pdfrwt beam="2">  1        1 0.25979204E-01 0.15675686E+03</pdfrwt>
<pdfrwt beam="1">  1       -1 0.37335190E-01 0.15675686E+03</pdfrwt>
<totfact> 0.12568182E+03</totfact>
</mgrwt>
</event>
<event>
 8    3  0.1560846E-003  0.1396335E+03  0.7818608E-02  0.1225607E+00
          1   -1    0    0  501    0  0.00000000000E+00  0.00000000000E+00  0.11875232454E+04  0.11875232455E+04  0.50400000000E-02 0. -1.
         -1   -1    0    0    0  501 -0.00000000000E+00 -0.00000000000E+00 -0.20871623664E+02  0.20871624272E+02  0.50400000000E-02 0.  1.
         25    2    1    2    0    0  0.30969835640E+02  0.53963915254E+02  0.99704689488E+03  0.10067770467E+04  0.12500510524E+03 0.  0.
         23    2    1    2    0    0 -0.30969835640E+02 -0.53963915254E+02  0.16960472690E+03  0.20161782301E+03  0.89513955892E+02 0.  0.
        -13    1    4    4    0    0 -0.41461713523E+02  0.11013122261E+02  0.74271848555E+02  0.85771097708E+02  0.10566000000E+00 0.  1.
         13    1    4    4    0    0  0.10491877883E+02 -0.64977037515E+02  0.95332878346E+02  0.11584672530E+03  0.10566000000E+00 0. -1.
    9000005    1    3    3    0    0 -0.20104657178E+02  0.52007920014E+02  0.18750097841E+03  0.19561860313E+03  0.10000000000E+01 0.  0.
    9000005    1    3    3    0    0  0.51074492818E+02  0.19559952407E+01  0.80954591647E+03  0.81115844359E+03  0.10000000000E+01 0.  0.
<mgrwt>
<rscale>  0 0.13125397E+03</rscale>
<asrwt>0</asrwt>
<pdfrwt beam="1">  1        1 0.18269587E+00 0.13963349E+03</pdfrwt>
<pdfrwt beam="2">  1       -1 0.32110193E-02 0.13963349E+03</pdfrwt>
<totfact> 0.39218744E+03</totfact>
</mgrwt>
</event>
<event>
 8    3  0.1560846E-003  0.1291708E+03  0.7818608E-02  0.1243657E+00
          1   -1    0    0  501    0  0.00000000000E+00  0.00000000000E+00  0.82294567200E+02  0.82294567354E+02  0.50400000000E-02 0. -1.
         -1   -1    0    0    0  501 -0.00000000000E+00 -0.00000000000E+00 -0.26379272570E+03  0.26379272575E+03  0.50400000000E-02 0.  1.
         25    2    1    2    0    0 -0.27221897963E+02  0.17860184675E+02 -0.21020417047E+03  0.24672024066E+03  0.12500026377E+03 0.  0.
         23    2    1    2    0    0  0.27221897963E+02 -0.17860184675E+02  0.28706011966E+02  0.99367052449E+02  0.89385446601E+02 0.  0.
        -13    1    4    4    0    0  0.27287280390E+02 -0.33694216856E+02  0.54167637584E+02  0.69383283621E+02  0.10566000000E+00 0. -1.
         13    1    4    4    0    0 -0.65382426975E-01  0.15834032181E+02 -0.25461625618E+02  0.29983768827E+02  0.10566000000E+00 0.  1.
    9000005    1    3    3    0    0  0.24067808848E+02 -0.91994188490E+01  0.28223683369E+01  0.25939438947E+02  0.10000000000E+01 0.  0.
    9000005    1    3    3    0    0 -0.51289706811E+02  0.27059603524E+02 -0.21302653880E+03  0.22078080171E+03  0.10000000000E+01 0.  0.
<mgrwt>
<rscale>  0 0.11966107E+03</rscale>
<asrwt>0</asrwt>
<pdfrwt beam="1">  1        1 0.12660703E-01 0.12917075E+03</pdfrwt>
<pdfrwt beam="2">  1       -1 0.40583496E-01 0.12917075E+03</pdfrwt>
<totfact> 0.27090545E+03</totfact>
</mgrwt>
</event>
<event>
 8    3  0.1560846E-003  0.1348694E+03  0.7818608E-02  0.1232167E+00
         -1   -1    0    0    0  501 -0.00000000000E+00  0.00000000000E+00  0.93941999333E+02  0.93941999468E+02  0.50400000000E-02 0.  1.
          1   -1    0    0  501    0  0.00000000000E+00 -0.00000000000E+00 -0.20695090191E+03  0.20695090197E+03  0.50400000000E-02 0. -1.
         25    2    1    2    0    0 -0.51712495508E+01  0.50344375133E+02  0.14123279224E+02  0.13560682416E+03  0.12501378249E+03 0.  0.
         23    2    1    2    0    0  0.51712495508E+01 -0.50344375133E+02 -0.12713218180E+03  0.16528607728E+03  0.92712446657E+02 0.  0.
        -13    1    4    4    0    0  0.28091314787E+02 -0.39635954032E+01 -0.36900158460E+00  0.28372158557E+02  0.10566000000E+00 0.  1.
         13    1    4    4    0    0 -0.22920065236E+02 -0.46380779729E+02 -0.12676318022E+03  0.13691391873E+03  0.10566000000E+00 0. -1.
    9000005    1    3    3    0    0  0.43005766188E+01  0.73843596420E+02  0.51717324591E+02  0.90261028990E+02  0.10000000000E+01 0.  0.
    9000005    1    3    3    0    0 -0.94718261696E+01 -0.23499221288E+02 -0.37594045367E+02  0.45345795165E+02  0.10000000000E+01 0.  0.
<mgrwt>
<rscale>  0 0.12687554E+03</rscale>
<asrwt>0</asrwt>
<pdfrwt beam="2">  1        1 0.31838600E-01 0.13486936E+03</pdfrwt>
<pdfrwt beam="1">  1       -1 0.14452615E-01 0.13486936E+03</pdfrwt>
<totfact> 0.45885088E+03</totfact>
</mgrwt>
</event>
<event>
 8    3  0.1560846E-003  0.1321250E+03  0.7818608E-02  0.1237718E+00
         -1   -1    0    0    0  501 -0.00000000000E+00  0.00000000000E+00  0.29801033016E+02  0.29801033442E+02  0.50400000000E-02 0.  1.
          1   -1    0    0  501    0  0.00000000000E+00 -0.00000000000E+00 -0.48610388799E+03  0.48610388801E+03  0.50400000000E-02 0. -1.
         25    2    1    2    0    0  0.17308092133E+02 -0.39135036273E+02 -0.19064924133E+03  0.23195720909E+03  0.12500356999E+03 0.  0.
         23    2    1    2    0    0 -0.17308092133E+02  0.39135036273E+02 -0.26565361364E+03  0.28394771236E+03  0.90682632297E+02 0.  0.
        -13    1    4    4    0    0 -0.51575898405E+02  0.64440135686E+01 -0.11956662986E+03  0.13037556806E+03  0.10566000000E+00 0. -1.
         13    1    4    4    0    0  0.34267806273E+02  0.32691022704E+02 -0.14608698378E+03  0.15357214430E+03  0.10566000000E+00 0.  1.
    9000005    1    3    3    0    0  0.66890450626E+02 -0.56240838469E+01 -0.13235279090E+03  0.14840560624E+03  0.10000000000E+01 0.  0.
    9000005    1    3    3    0    0 -0.49582358493E+02 -0.33510952426E+02 -0.58296450436E+02  0.83551602855E+02  0.10000000000E+01 0.  0.
<mgrwt>
<rscale>  0 0.12332002E+03</rscale>
<asrwt>0</asrwt>
<pdfrwt beam="2">  1        1 0.74785208E-01 0.13212499E+03</pdfrwt>
<pdfrwt beam="1">  1       -1 0.45847747E-02 0.13212499E+03</pdfrwt>
<totfact> 0.89503115E+03</totfact>
</mgrwt>
</event>
<event>
 8    3  0.1560846E-003  0.2390261E+03  0.7818608E-02  0.1123251E+00
         -1   -1    0    0    0  501 -0.00000000000E+00  0.00000000000E+00  0.12690265391E+03  0.12690265401E+03  0.50400000000E-02 0.  1.
          1   -1    0    0  501    0  0.00000000000E+00 -0.00000000000E+00 -0.42459198279E+03  0.42459198282E+03  0.50400000000E-02 0. -1.
         25    2    1    2    0    0  0.16341979073E+03  0.12166423464E+03 -0.18170878940E+03  0.30025249964E+03  0.12500106158E+03 0.  0.
         23    2    1    2    0    0 -0.16341979073E+03 -0.12166423464E+03 -0.11598053947E+03  0.25124213719E+03  0.90348834911E+02 0.  0.
        -13    1    4    4    0    0 -0.90556592636E+02 -0.11484543537E+03 -0.97467288678E+02  0.17575509672E+03  0.10566000000E+00 0. -1.
         13    1    4    4    0    0 -0.72863198098E+02 -0.68187992662E+01 -0.18513250796E+02  0.75487040474E+02  0.10566000000E+00 0.  1.
    9000005    1    3    3    0    0  0.12636716188E+03  0.62365610173E+02 -0.47139061679E+02  0.14859751031E+03  0.10000000000E+01 0.  0.
    9000005    1    3    3    0    0  0.37052628857E+02  0.59298624464E+02 -0.13456972773E+03  0.15165498933E+03  0.10000000000E+01 0.  0.
<mgrwt>
<rscale>  0 0.23488052E+03</rscale>
<asrwt>0</asrwt>
<pdfrwt beam="2">  1        1 0.65321843E-01 0.23902611E+03</pdfrwt>
<pdfrwt beam="1">  1       -1 0.19523485E-01 0.23902611E+03</pdfrwt>
<totfact> 0.11756736E+03</totfact>
</mgrwt>
</event>
<event>
 8    3  0.1560846E-003  0.1258635E+03  0.7818608E-02  0.1248670E+00
         -1   -1    0    0    0  501 -0.00000000000E+00  0.00000000000E+00  0.75854941640E+02  0.75854941808E+02  0.50400000000E-02 0.  1.
          1   -1    0    0  501    0  0.00000000000E+00 -0.00000000000E+00 -0.20584030618E+03  0.20584030624E+03  0.50400000000E-02 0. -1.
         25    2    1    2    0    0  0.54373753538E+01  0.13716080717E+02 -0.50520356686E+01  0.12596482238E+03  0.12499566989E+03 0.  0.
         23    2    1    2    0    0 -0.54373753538E+01 -0.13716080717E+02 -0.12493332887E+03  0.15573042567E+03  0.91792880414E+02 0.  0.
        -13    1    4    4    0    0 -0.41755023665E+02 -0.88248183009E+01 -0.25397150271E+02  0.49662720679E+02  0.10566000000E+00 0.  1.
         13    1    4    4    0    0  0.36317648312E+02 -0.48912624157E+01 -0.99536178602E+02  0.10606770499E+03  0.10566000000E+00 0. -1.
    9000005    1    3    3    0    0  0.18273329752E+02  0.21415819302E+02 -0.61453497282E+02  0.67602398069E+02  0.10000000000E+01 0.  0.
    9000005    1    3    3    0    0 -0.12835954398E+02 -0.76997385851E+01  0.56401461613E+02  0.58362424313E+02  0.10000000000E+01 0.  0.
<mgrwt>
<rscale>  0 0.11668413E+03</rscale>
<asrwt>0</asrwt>
<pdfrwt beam="2">  1        1 0.31667739E-01 0.12586347E+03</pdfrwt>
<pdfrwt beam="1">  1       -1 0.11669991E-01 0.12586347E+03</pdfrwt>
<totfact> 0.64056688E+03</totfact>
</mgrwt>
</event>
<event>
 8    3  0.1560846E-003  0.1504270E+03  0.7818608E-02  0.1209557E+00
          1   -1    0    0  501    0  0.00000000000E+00  0.00000000000E+00  0.10604641271E+03  0.10604641283E+03  0.50400000000E-02 0. -1.
         -1   -1    0    0    0  501 -0.00000000000E+00 -0.00000000000E+00 -0.17669502110E+03  0.17669502117E+03  0.50400000000E-02 0.  1.
         25    2    1    2    0    0 -0.15064575962E+02  0.82287995318E+02 -0.26670849591E+02  0.15277307313E+03  0.12502008652E+03 0.  0.
         23    2    1    2    0    0  0.15064575962E+02 -0.82287995318E+02 -0.43977758797E+02  0.12996836086E+03  0.89215895077E+02 0.  0.
        -13    1    4    4    0    0 -0.33987839479E+02 -0.53515671261E+02 -0.34937470101E+02  0.72386036527E+02  0.10566000000E+00 0. -1.
         13    1    4    4    0    0  0.49052415441E+02 -0.28772324058E+02 -0.90402886958E+01  0.57582324337E+02  0.10566000000E+00 0.  1.
    9000005    1    3    3    0    0 -0.28173160985E+01  0.31986939849E+01 -0.64216882348E+02  0.64365960660E+02  0.10000000000E+01 0.  0.
    9000005    1    3    3    0    0 -0.12247259864E+02  0.79089301333E+02  0.37546032757E+02  0.88407112470E+02  0.10000000000E+01 0.  0.
<mgrwt>
<rscale>  0 0.14284088E+03</rscale>
<asrwt>0</asrwt>
<pdfrwt beam="1">  1        1 0.16314833E-01 0.15042698E+03</pdfrwt>
<pdfrwt beam="2">  1       -1 0.27183849E-01 0.15042698E+03</pdfrwt>
<totfact> 0.38916612E+03</totfact>
</mgrwt>
</event>
<event>
 8    3  0.1560846E-003  0.1430449E+03  0.7818608E-02  0.1221272E+00
          1   -1    0    0  501    0  0.00000000000E+00  0.00000000000E+00  0.17047043164E+04  0.17047043164E+04  0.50400000000E-02 0. -1.
         -1   -1    0    0    0  501 -0.00000000000E+00 -0.00000000000E+00 -0.13482494770E+02  0.13482495712E+02  0.50400000000E-02 0.  1.
         25    2    1    2    0    0  0.26626053295E+02 -0.64284688228E+02  0.45415300116E+03  0.47614788125E+03  0.12498155264E+03 0.  0.
         23    2    1    2    0    0 -0.26626053295E+02  0.64284688228E+02  0.12370688204E+04  0.12420389308E+04  0.86486827684E+02 0.  0.
        -13    1    4    4    0    0 -0.10351139912E+02  0.24066465616E+02  0.80482868915E+02  0.84639495613E+02  0.10566000000E+00 0.  1.
         13    1    4    4    0    0 -0.16274913383E+02  0.40218222612E+02  0.11565859515E+04  0.11573994352E+04  0.10566000000E+00 0. -1.
    9000005    1    3    3    0    0  0.39449996633E+02  0.18342848475E+02  0.65763493763E+02  0.78858096835E+02  0.10000000000E+01 0.  0.
    9000005    1    3    3    0    0 -0.12823943338E+02 -0.82627536703E+02  0.38838950740E+03  0.39728978442E+03  0.10000000000E+01 0.  0.
<mgrwt>
<rscale>  0 0.13425704E+03</rscale>
<asrwt>0</asrwt>
<pdfrwt beam="1">  1        1 0.26226209E+00 0.14304495E+03</pdfrwt>
<pdfrwt beam="2">  1       -1 0.20742309E-02 0.14304495E+03</pdfrwt>
<totfact> 0.33866934E+03</totfact>
</mgrwt>
</event>
<event>
 8    3  0.1560846E-003  0.2887490E+03  0.7818608E-02  0.1092672E+00
          1   -1    0    0  501    0  0.00000000000E+00  0.00000000000E+00  0.10823030162E+04  0.10823030162E+04  0.50400000000E-02 0. -1.
         -1   -1    0    0    0  501 -0.00000000000E+00 -0.00000000000E+00 -0.83219501104E+02  0.83219501256E+02  0.50400000000E-02 0.  1.
         25    2    1    2    0    0 -0.13624084735E+02 -0.25992412050E+03  0.31283424847E+03  0.42572437679E+03  0.12501925399E+03 0.  0.
         23    2    1    2    0    0  0.13624084735E+02  0.25992412050E+03  0.68624926659E+03  0.73979814065E+03  0.92828168707E+02 0.  0.
        -13    1    4    4    0    0  0.51763441605E+02  0.10940333339E+03  0.30603100481E+03  0.32909501715E+03  0.10566000000E+00 0. -1.
         13    1    4    4    0    0 -0.38139356870E+02  0.15052078711E+03  0.38021826178E+03  0.41070312349E+03  0.10566000000E+00 0.  1.
    9000005    1    3    3    0    0 -0.20715249104E+02 -0.25304278625E+03  0.23088149877E+03  0.34317202639E+03  0.10000000000E+01 0.  0.
    9000005    1    3    3    0    0  0.70911643692E+01 -0.68813342512E+01  0.81952749698E+02  0.82552350398E+02  0.10000000000E+01 0.  0.
<mgrwt>
<rscale>  0 0.28559519E+03</rscale>
<asrwt>0</asrwt>
<pdfrwt beam="1">  1        1 0.16650816E+00 0.28874899E+03</pdfrwt>
<pdfrwt beam="2">  1       -1 0.12803000E-01 0.28874899E+03</pdfrwt>
<totfact> 0.57598283E+02</totfact>
</mgrwt>
</event>
<event>
 8    3  0.1560846E-003  0.1924648E+03  0.7818608E-02  0.1160921E+00
         -1   -1    0    0    0  501 -0.00000000000E+00  0.00000000000E+00  0.29413571782E+03  0.29413571786E+03  0.50400000000E-02 0.  1.
          1   -1    0    0  501    0  0.00000000000E+00 -0.00000000000E+00 -0.12298644523E+03  0.12298644533E+03  0.50400000000E-02 0. -1.
         25    2    1    2    0    0 -0.12113766342E+03  0.82107801838E+02  0.31358930790E+02  0.19500272847E+03  0.12500662761E+03 0.  0.
         23    2    1    2    0    0  0.12113766342E+03 -0.82107801838E+02  0.13979034180E+03  0.22211943473E+03  0.91540586624E+02 0.  0.
        -13    1    4    4    0    0  0.76667435579E+02 -0.10848509740E+02  0.10670995215E+03  0.13184312987E+03  0.10566000000E+00 0.  1.
         13    1    4    4    0    0  0.44470227845E+02 -0.71259292098E+02  0.33080389650E+02  0.90276304856E+02  0.10566000000E+00 0. -1.
    9000005    1    3    3    0    0  0.95849666398E+01  0.76814048614E+01  0.42414543647E+02  0.44168643616E+02  0.10000000000E+01 0.  0.
    9000005    1    3    3    0    0 -0.13072263006E+03  0.74426396976E+02 -0.11055612857E+02  0.15083408485E+03  0.10000000000E+01 0.  0.
<mgrwt>
<rscale>  0 0.18729777E+03</rscale>
<asrwt>0</asrwt>
<pdfrwt beam="2">  1        1 0.18920992E-01 0.19246475E+03</pdfrwt>
<pdfrwt beam="1">  1       -1 0.45251649E-01 0.19246475E+03</pdfrwt>
<totfact> 0.13446403E+03</totfact>
</mgrwt>
</event>
<event>
 8    3  0.1560846E-003  0.1334012E+03  0.7818608E-02  0.1235542E+00
         -1   -1    0    0    0  501 -0.00000000000E+00  0.00000000000E+00  0.58129049811E+02  0.58129050030E+02  0.50400000000E-02 0.  1.
          1   -1    0    0  501    0  0.00000000000E+00 -0.00000000000E+00 -0.23981058463E+03  0.23981058468E+03  0.50400000000E-02 0. -1.
         25    2    1    2    0    0 -0.46419812634E+02 -0.37832281777E+01 -0.90167622846E+02  0.16101580223E+03  0.12500710595E+03 0.  0.
         23    2    1    2    0    0  0.46419812634E+02  0.37832281777E+01 -0.91513911972E+02  0.13692383248E+03  0.90577193583E+02 0.  0.
        -13    1    4    4    0    0  0.10923849870E+02 -0.38098654738E+02 -0.64580406695E+02  0.75772541740E+02  0.10566000000E+00 0.  1.
         13    1    4    4    0    0  0.35495962764E+02  0.41881882916E+02 -0.26933505277E+02  0.61151290744E+02  0.10566000000E+00 0. -1.
    9000005    1    3    3    0    0 -0.29914314974E+01 -0.41059492981E+02 -0.95029579897E+02  0.10356858443E+03  0.10000000000E+01 0.  0.
    9000005    1    3    3    0    0 -0.43428381137E+02  0.37276264803E+02  0.48619570512E+01  0.57447217793E+02  0.10000000000E+01 0.  0.
<mgrwt>
<rscale>  0 0.12469806E+03</rscale>
<asrwt>0</asrwt>
<pdfrwt beam="2">  1        1 0.36893936E-01 0.13340123E+03</pdfrwt>
<pdfrwt beam="1">  1       -1 0.89429309E-02 0.13340123E+03</pdfrwt>
<totfact> 0.79930928E+03</totfact>
</mgrwt>
</event>
<event>
 8    3  0.1560846E-003  0.1375718E+03  0.7818608E-02  0.1228261E+00
         -1   -1    0    0    0  501 -0.00000000000E+00  0.00000000000E+00  0.48035501196E+02  0.48035501460E+02  0.50400000000E-02 0.  1.
          1   -1    0    0  501    0  0.00000000000E+00 -0.00000000000E+00 -0.13146495857E+04  0.13146495858E+04  0.50400000000E-02 0. -1.
         25    2    1    2    0    0 -0.18434957968E+02  0.54418625222E+02 -0.12451052860E+04  0.12526823933E+04  0.12499908270E+03 0.  0.
         23    2    1    2    0    0  0.18434957968E+02 -0.54418625222E+02 -0.21508798509E+02  0.11000269393E+03  0.91305694302E+02 0.  0.
        -13    1    4    4    0    0 -0.14877804656E+02 -0.66891473337E+02 -0.27669988021E+02  0.73901675744E+02  0.10566000000E+00 0.  1.
         13    1    4    4    0    0  0.33312762625E+02  0.12472848115E+02  0.61611895129E+01  0.36101018186E+02  0.10566000000E+00 0. -1.
    9000005    1    3    3    0    0  0.49558053309E+02 -0.12934368845E+01 -0.46953569171E+03  0.47214662915E+03  0.10000000000E+01 0.  0.
    9000005    1    3    3    0    0 -0.67993011277E+02  0.55712062107E+02 -0.77556959433E+03  0.78053576414E+03  0.10000000000E+01 0.  0.
<mgrwt>
<rscale>  0 0.12945885E+03</rscale>
<asrwt>0</asrwt>
<pdfrwt beam="2">  1        1 0.20225376E+00 0.13757182E+03</pdfrwt>
<pdfrwt beam="1">  1       -1 0.73900781E-02 0.13757182E+03</pdfrwt>
<totfact> 0.93713549E+02</totfact>
</mgrwt>
</event>
<event>
 8    3  0.1560846E-003  0.1265107E+03  0.7818608E-02  0.1249176E+00
         -1   -1    0    0    0  501 -0.00000000000E+00  0.00000000000E+00  0.15845407929E+03  0.15845407937E+03  0.50400000000E-02 0.  1.
          1   -1    0    0  501    0  0.00000000000E+00 -0.00000000000E+00 -0.74562000275E+02  0.74562000445E+02  0.50400000000E-02 0. -1.
         25    2    1    2    0    0 -0.49234508724E+01  0.18903334946E+02  0.54395054203E+02  0.13770901420E+03  0.12499349675E+03 0.  0.
         23    2    1    2    0    0  0.49234508724E+01 -0.18903334946E+02  0.29497024808E+02  0.95307065613E+02  0.88497377604E+02 0.  0.
        -13    1    4    4    0    0  0.38711485678E+02  0.16021331446E+02  0.11041974156E+02  0.43326649328E+02  0.10566000000E+00 0.  1.
         13    1    4    4    0    0 -0.33788034805E+02 -0.34924666392E+02  0.18455050652E+02  0.51980416286E+02  0.10566000000E+00 0. -1.
    9000005    1    3    3    0    0  0.28383112029E+02 -0.22755131943E+00 -0.32221938882E+02  0.42952370987E+02  0.10000000000E+01 0.  0.
    9000005    1    3    3    0    0 -0.33306562901E+02  0.19130886265E+02  0.86616993085E+02  0.94756643211E+02  0.10000000000E+01 0.  0.
<mgrwt>
<rscale>  0 0.11638861E+03</rscale>
<asrwt>0</asrwt>
<pdfrwt beam="2">  1        1 0.11471077E-01 0.12651067E+03</pdfrwt>
<pdfrwt beam="1">  1       -1 0.24377551E-01 0.12651067E+03</pdfrwt>
<totfact> 0.72854246E+03</totfact>
</mgrwt>
</event>
<event>
 8    3  0.1560846E-003  0.1305990E+03  0.7818608E-02  0.1240072E+00
          1   -1    0    0  501    0  0.00000000000E+00  0.00000000000E+00  0.68152883387E+03  0.68152883389E+03  0.50400000000E-02 0. -1.
         -1   -1    0    0    0  501 -0.00000000000E+00 -0.00000000000E+00 -0.19958416348E+02  0.19958416985E+02  0.50400000000E-02 0.  1.
         25    2    1    2    0    0 -0.12293819233E+02 -0.35773853388E+02  0.43644635147E+03  0.45556725570E+03  0.12500080071E+03 0.  0.
         23    2    1    2    0    0  0.12293819233E+02  0.35773853388E+02  0.22512406605E+03  0.24591999517E+03  0.91459785328E+02 0.  0.
        -13    1    4    4    0    0  0.22692585599E+02  0.47299171770E+02  0.58512526751E+02  0.78586843950E+02  0.10566000000E+00 0.  1.
         13    1    4    4    0    0 -0.10398766365E+02 -0.11525318382E+02  0.16661153929E+03  0.16733315122E+03  0.10566000000E+00 0. -1.
    9000005    1    3    3    0    0 -0.21984403765E+02  0.43744601817E+02  0.20041286831E+03  0.20630856013E+03  0.10000000000E+01 0.  0.
    9000005    1    3    3    0    0  0.96905845322E+01 -0.79518455205E+02  0.23603348316E+03  0.24925869558E+03  0.10000000000E+01 0.  0.
<mgrwt>
<rscale>  0 0.12185264E+03</rscale>
<asrwt>0</asrwt>
<pdfrwt beam="1">  1        1 0.10485059E+00 0.13059903E+03</pdfrwt>
<pdfrwt beam="2">  1       -1 0.30705257E-02 0.13059903E+03</pdfrwt>
<totfact> 0.10200062E+04</totfact>
</mgrwt>
</event>
<event>
 8    3  0.1560846E-003  0.1250441E+03  0.7818608E-02  0.1250180E+00
          1   -1    0    0  501    0  0.00000000000E+00  0.00000000000E+00  0.12275514128E+02  0.12275515162E+02  0.50400000000E-02 0. -1.
         -1   -1    0    0    0  501 -0.00000000000E+00 -0.00000000000E+00 -0.11910227152E+04  0.11910227153E+04  0.50400000000E-02 0.  1.
         25    2    1    2    0    0 -0.18812585753E+01 -0.28077787987E+01 -0.39878278982E+03  0.41792791081E+03  0.12499840970E+03 0.  0.
         23    2    1    2    0    0  0.18812585753E+01  0.28077787987E+01 -0.77996441130E+03  0.78537031960E+03  0.91927325984E+02 0.  0.
        -13    1    4    4    0    0 -0.79668202384E+01 -0.33975561956E+01 -0.76999627035E+03  0.77004498644E+03  0.10566000000E+00 0.  1.
         13    1    4    4    0    0  0.98480788137E+01  0.62053349944E+01 -0.99681409473E+01  0.15325333167E+02  0.10566000000E+00 0. -1.
    9000005    1    3    3    0    0  0.35305456163E+02 -0.41977114551E+02 -0.30331854052E+03  0.30823966390E+03  0.10000000000E+01 0.  0.
    9000005    1    3    3    0    0 -0.37186714739E+02  0.39169335752E+02 -0.95464249297E+02  0.10968824691E+03  0.10000000000E+01 0.  0.
<mgrwt>
<rscale>  0 0.11580622E+03</rscale>
<asrwt>0</asrwt>
<pdfrwt beam="1">  1        1 0.18885417E-02 0.12504409E+03</pdfrwt>
<pdfrwt beam="2">  1       -1 0.18323417E+00 0.12504409E+03</pdfrwt>
<totfact> 0.13849932E+03</totfact>
</mgrwt>
</event>
<event>
 8    3  0.1560846E-003  0.1466497E+03  0.7818608E-02  0.1212412E+00
          1   -1    0    0  501    0  0.00000000000E+00  0.00000000000E+00  0.11616293733E+03  0.11616293744E+03  0.50400000000E-02 0. -1.
         -1   -1    0    0    0  501 -0.00000000000E+00 -0.00000000000E+00 -0.17272616185E+03  0.17272616193E+03  0.50400000000E-02 0.  1.
         25    2    1    2    0    0 -0.76652174324E+02  0.13954410446E+01 -0.72630784996E+02  0.16365010695E+03  0.12501449312E+03 0.  0.
         23    2    1    2    0    0  0.76652174324E+02 -0.13954410446E+01  0.16067560470E+02  0.12523899242E+03  0.97719678864E+02 0.  0.
        -13    1    4    4    0    0  0.40516219735E+02 -0.36278887499E+01 -0.40935521507E+02  0.57710083378E+02  0.10566000000E+00 0.  1.
         13    1    4    4    0    0  0.36135954589E+02  0.22324477052E+01  0.57003081977E+02  0.67528909037E+02  0.10566000000E+00 0. -1.
    9000005    1    3    3    0    0 -0.19462101237E+02 -0.39510191093E+02  0.19141688201E+02  0.48033663320E+02  0.10000000000E+01 0.  0.
    9000005    1    3    3    0    0 -0.57190073087E+02  0.40905632137E+02 -0.91772473197E+02  0.11561644363E+03  0.10000000000E+01 0.  0.
<mgrwt>
<rscale>  0 0.14068401E+03</rscale>
<asrwt>0</asrwt>
<pdfrwt beam="1">  1        1 0.17871221E-01 0.14664967E+03</pdfrwt>
<pdfrwt beam="2">  1       -1 0.26573256E-01 0.14664967E+03</pdfrwt>
<totfact> 0.35890100E+03</totfact>
</mgrwt>
</event>
<event>
 8    3  0.1560846E-003  0.1682102E+03  0.7818608E-02  0.1186261E+00
          1   -1    0    0  501    0  0.00000000000E+00  0.00000000000E+00  0.94597556287E+03  0.94597556288E+03  0.50400000000E-02 0. -1.
         -1   -1    0    0    0  501 -0.00000000000E+00 -0.00000000000E+00 -0.41110912685E+02  0.41110912994E+02  0.50400000000E-02 0.  1.
         25    2    1    2    0    0 -0.11206588007E+03  0.10520975329E+02  0.77217176393E+03  0.79028091265E+03  0.12500094199E+03 0.  0.
         23    2    1    2    0    0  0.11206588007E+03 -0.10520975329E+02  0.13269288626E+03  0.19680556323E+03  0.91954201949E+02 0.  0.
        -13    1    4    4    0    0  0.55563074892E+02 -0.42112075365E+02  0.31099127907E+02  0.76340350429E+02  0.10566000000E+00 0.  1.
         13    1    4    4    0    0  0.56502805175E+02  0.31591100036E+02  0.10159375835E+03  0.12046521280E+03  0.10566000000E+00 0. -1.
    9000005    1    3    3    0    0 -0.10206160383E+03  0.52243271237E+02  0.41528951305E+03  0.43082747129E+03  0.10000000000E+01 0.  0.
    9000005    1    3    3    0    0 -0.10004276239E+02 -0.41722295908E+02  0.35688225087E+03  0.35945344136E+03  0.10000000000E+01 0.  0.
<mgrwt>
<rscale>  0 0.16217690E+03</rscale>
<asrwt>0</asrwt>
<pdfrwt beam="1">  1        1 0.14553471E+00 0.16821025E+03</pdfrwt>
<pdfrwt beam="2">  1       -1 0.63247557E-02 0.16821025E+03</pdfrwt>
<totfact> 0.21539917E+03</totfact>
</mgrwt>
</event>
<event>
 8    3  0.1560846E-003  0.1830889E+03  0.7818608E-02  0.1170091E+00
          1   -1    0    0  501    0  0.00000000000E+00  0.00000000000E+00  0.11486219921E+02  0.11486221027E+02  0.50400000000E-02 0. -1.
         -1   -1    0    0    0  501 -0.00000000000E+00 -0.00000000000E+00 -0.26004680571E+04  0.26004680571E+04  0.50400000000E-02 0.  1.
         25    2    1    2    0    0  0.27016009311E+02  0.13102729925E+03 -0.13215989200E+04  0.13342208369E+04  0.12499407349E+03 0.  0.
         23    2    1    2    0    0 -0.27016009311E+02 -0.13102729925E+03 -0.12673829172E+04  0.12777334412E+04  0.91898150876E+02 0.  0.
        -13    1    4    4    0    0 -0.22627100534E+02 -0.51875330188E+02 -0.21352325839E+03  0.22089642052E+03  0.10566000000E+00 0. -1.
         13    1    4    4    0    0 -0.43889087772E+01 -0.79151969066E+02 -0.10538596588E+04  0.10568370207E+04  0.10566000000E+00 0.  1.
    9000005    1    3    3    0    0 -0.29960513002E+02  0.89778781977E+02 -0.10264258888E+04  0.10307807561E+04  0.10000000000E+01 0.  0.
    9000005    1    3    3    0    0  0.56976522313E+02  0.41248517277E+02 -0.29517303115E+03  0.30344008073E+03  0.10000000000E+01 0.  0.
<mgrwt>
<rscale>  0 0.17765614E+03</rscale>
<asrwt>0</asrwt>
<pdfrwt beam="1">  1        1 0.17671129E-02 0.18308888E+03</pdfrwt>
<pdfrwt beam="2">  1       -1 0.40007154E+00 0.18308888E+03</pdfrwt>
<totfact> 0.64233329E+01</totfact>
</mgrwt>
</event>
<event>
 8    3  0.1560846E-003  0.1256873E+03  0.7818608E-02  0.1250996E+00
         -1   -1    0    0    0  501 -0.00000000000E+00  0.00000000000E+00  0.48458940847E+02  0.48458941109E+02  0.50400000000E-02 0.  1.
          1   -1    0    0  501    0  0.00000000000E+00 -0.00000000000E+00 -0.26395634733E+03  0.26395634738E+03  0.50400000000E-02 0. -1.
         25    2    1    2    0    0  0.11515454653E+02  0.62819827024E+01 -0.75999111173E+02  0.14687808219E+03  0.12500094850E+03 0.  0.
         23    2    1    2    0    0 -0.11515454653E+02 -0.62819827024E+01 -0.13949829531E+03  0.16553720630E+03  0.88151706008E+02 0.  0.
        -13    1    4    4    0    0 -0.19597253701E+02  0.27251102883E+02 -0.15761316633E+02  0.37082411289E+02  0.10566000000E+00 0.  1.
         13    1    4    4    0    0  0.80817990485E+01 -0.33533085585E+02 -0.12373697868E+03  0.12845479501E+03  0.10566000000E+00 0. -1.
    9000005    1    3    3    0    0  0.40530830192E+02 -0.16565019142E+02 -0.95528460117E+02  0.10508965100E+03  0.10000000000E+01 0.  0.
    9000005    1    3    3    0    0 -0.29015375539E+02  0.22847001844E+02  0.19529348945E+02  0.41788431188E+02  0.10000000000E+01 0.  0.
<mgrwt>
<rscale>  0 0.11533611E+03</rscale>
<asrwt>0</asrwt>
<pdfrwt beam="2">  1        1 0.40608668E-01 0.12568733E+03</pdfrwt>
<pdfrwt beam="1">  1       -1 0.74552218E-02 0.12568733E+03</pdfrwt>
<totfact> 0.93006403E+03</totfact>
</mgrwt>
</event>
<event>
 8    3  0.1560846E-003  0.1402946E+03  0.7818608E-02  0.1224426E+00
         -1   -1    0    0    0  501 -0.00000000000E+00  0.00000000000E+00  0.15738491056E+02  0.15738491863E+02  0.50400000000E-02 0.  1.
          1   -1    0    0  501    0  0.00000000000E+00 -0.00000000000E+00 -0.13580201830E+04  0.13580201830E+04  0.50400000000E-02 0. -1.
         25    2    1    2    0    0 -0.63140063780E+02  0.84267907346E+01 -0.10829731069E+04  0.10920225876E+04  0.12499961311E+03 0.  0.
         23    2    1    2    0    0  0.63140063780E+02 -0.84267907346E+01 -0.25930858504E+03  0.28173608719E+03  0.89869917619E+02 0.  0.
        -13    1    4    4    0    0  0.70965923961E+02  0.26836277567E+01 -0.10458952273E+03  0.12642129429E+03  0.10566000000E+00 0.  1.
         13    1    4    4    0    0 -0.78258601810E+01 -0.11110418491E+02 -0.15471906230E+03  0.15531479289E+03  0.10566000000E+00 0. -1.
    9000005    1    3    3    0    0 -0.96083650078E+02  0.15809589680E+02 -0.59821633563E+03  0.60609058329E+03  0.10000000000E+01 0.  0.
    9000005    1    3    3    0    0  0.32943586298E+02 -0.73827989450E+01 -0.48475677123E+03  0.48593200435E+03  0.10000000000E+01 0.  0.
<mgrwt>
<rscale>  0 0.13206342E+03</rscale>
<asrwt>0</asrwt>
<pdfrwt beam="2">  1        1 0.20892609E+00 0.14029462E+03</pdfrwt>
<pdfrwt beam="1">  1       -1 0.24213075E-02 0.14029462E+03</pdfrwt>
<totfact> 0.45400200E+03</totfact>
</mgrwt>
</event>
<event>
 8    3  0.1560846E-003  0.1331350E+03  0.7818608E-02  0.1235660E+00
          1   -1    0    0  501    0  0.00000000000E+00  0.00000000000E+00  0.31113992448E+03  0.31113992453E+03  0.50400000000E-02 0. -1.
         -1   -1    0    0    0  501 -0.00000000000E+00 -0.00000000000E+00 -0.45008816339E+02  0.45008816621E+02  0.50400000000E-02 0.  1.
         25    2    1    2    0    0 -0.44380514724E+02  0.11462260261E+02  0.13167319760E+03  0.18725050696E+03  0.12499563150E+03 0.  0.
         23    2    1    2    0    0  0.44380514724E+02 -0.11462260261E+02  0.13445791055E+03  0.16889823418E+03  0.91360113310E+02 0.  0.
        -13    1    4    4    0    0  0.36957782128E+00  0.12319797960E+02  0.11430214917E+03  0.11496480539E+03  0.10566000000E+00 0. -1.
         13    1    4    4    0    0  0.44010936903E+02 -0.23782058221E+02  0.20155761373E+02  0.53933428788E+02  0.10566000000E+00 0.  1.
    9000005    1    3    3    0    0 -0.72710760244E+02  0.30880411213E+01  0.25628976263E+02  0.77163690150E+02  0.10000000000E+01 0.  0.
    9000005    1    3    3    0    0  0.28330245520E+02  0.83742191400E+01  0.10604422134E+03  0.11008681681E+03  0.10000000000E+01 0.  0.
<mgrwt>
<rscale>  0 0.12462255E+03</rscale>
<asrwt>0</asrwt>
<pdfrwt beam="1">  1        1 0.47867681E-01 0.13313497E+03</pdfrwt>
<pdfrwt beam="2">  1       -1 0.69244333E-02 0.13313497E+03</pdfrwt>
<totfact> 0.85169914E+03</totfact>
</mgrwt>
</event>
<event>
 8    3  0.1560846E-003  0.1256735E+03  0.7818608E-02  0.1250392E+00
         -1   -1    0    0    0  501 -0.00000000000E+00  0.00000000000E+00  0.25385276066E+02  0.25385276567E+02  0.50400000000E-02 0.  1.
          1   -1    0    0  501    0  0.00000000000E+00 -0.00000000000E+00 -0.45907765344E+03  0.45907765346E+03  0.50400000000E-02 0. -1.
         25    2    1    2    0    0  0.11227938137E+02  0.66005431489E+01 -0.25188906122E+03  0.28149942309E+03  0.12499676905E+03 0.  0.
         23    2    1    2    0    0 -0.11227938137E+02 -0.66005431489E+01 -0.18180331615E+03  0.20296350694E+03  0.89286648618E+02 0.  0.
        -13    1    4    4    0    0  0.59946255074E+01 -0.34753793013E+02 -0.26293198252E+02  0.43989829531E+02  0.10566000000E+00 0.  1.
         13    1    4    4    0    0 -0.17222563644E+02  0.28153249864E+02 -0.15551011790E+03  0.15897367741E+03  0.10566000000E+00 0. -1.
    9000005    1    3    3    0    0 -0.46889365788E+02 -0.28918224397E+02 -0.14069024479E+03  0.15109474281E+03  0.10000000000E+01 0.  0.
    9000005    1    3    3    0    0  0.58117303924E+02  0.35518767546E+02 -0.11119881643E+03  0.13040468028E+03  0.10000000000E+01 0.  0.
<mgrwt>
<rscale>  0 0.11568376E+03</rscale>
<asrwt>0</asrwt>
<pdfrwt beam="2">  1        1 0.70627325E-01 0.12567349E+03</pdfrwt>
<pdfrwt beam="1">  1       -1 0.39054275E-02 0.12567349E+03</pdfrwt>
<totfact> 0.12148873E+04</totfact>
</mgrwt>
</event>
<event>
 8    3  0.1560846E-003  0.1424995E+03  0.7818608E-02  0.1221161E+00
         -1   -1    0    0    0  501 -0.00000000000E+00  0.00000000000E+00  0.33540668672E+03  0.33540668676E+03  0.50400000000E-02 0.  1.
          1   -1    0    0  501    0  0.00000000000E+00 -0.00000000000E+00 -0.50302425417E+02  0.50302425669E+02  0.50400000000E-02 0. -1.
         25    2    1    2    0    0  0.22822072864E+02  0.64522759828E+02  0.12226706649E+03  0.18776407601E+03  0.12498831605E+03 0.  0.
         23    2    1    2    0    0 -0.22822072864E+02 -0.64522759828E+02  0.16283719482E+03  0.19794503642E+03  0.89343449003E+02 0.  0.
        -13    1    4    4    0    0 -0.42539039357E+02 -0.71736274800E+02  0.15406564387E+03  0.17519102938E+03  0.10566000000E+00 0.  1.
         13    1    4    4    0    0  0.19716966493E+02  0.72135149726E+01  0.87715509487E+01  0.22754007032E+02  0.10566000000E+00 0. -1.
    9000005    1    3    3    0    0  0.52140656582E+02  0.86693278623E+02  0.10889053965E+03  0.14863553496E+03  0.10000000000E+01 0.  0.
    9000005    1    3    3    0    0 -0.29318583719E+02 -0.22170518796E+02  0.13376526842E+02  0.39128541057E+02  0.10000000000E+01 0.  0.
<mgrwt>
<rscale>  0 0.13433563E+03</rscale>
<asrwt>0</asrwt>
<pdfrwt beam="2">  1        1 0.77388345E-02 0.14249952E+03</pdfrwt>
<pdfrwt beam="1">  1       -1 0.51601030E-01 0.14249952E+03</pdfrwt>
<totfact> 0.33984932E+03</totfact>
</mgrwt>
</event>
<event>
 8    3  0.1560846E-003  0.1309270E+03  0.7818608E-02  0.1238568E+00
          1   -1    0    0  501    0  0.00000000000E+00  0.00000000000E+00  0.17008294616E+03  0.17008294623E+03  0.50400000000E-02 0. -1.
         -1   -1    0    0    0  501 -0.00000000000E+00 -0.00000000000E+00 -0.79981969235E+02  0.79981969394E+02  0.50400000000E-02 0.  1.
         25    2    1    2    0    0 -0.23481451515E+02 -0.31053725742E+02  0.62558257422E+02  0.14510481982E+03  0.12500464277E+03 0.  0.
         23    2    1    2    0    0  0.23481451515E+02  0.31053725742E+02  0.27542719498E+02  0.10496009581E+03  0.93500309446E+02 0.  0.
        -13    1    4    4    0    0  0.56846476770E+00 -0.19489915275E+02 -0.22822701681E+02  0.30017775162E+02  0.10566000000E+00 0.  1.
         13    1    4    4    0    0  0.22912986747E+02  0.50543641017E+02  0.50365421179E+02  0.74942320644E+02  0.10566000000E+00 0. -1.
    9000005    1    3    3    0    0 -0.55677899157E+00 -0.76500780888E+02  0.53586909520E+02  0.93408973612E+02  0.10000000000E+01 0.  0.
    9000005    1    3    3    0    0 -0.22924672524E+02  0.45447055146E+02  0.89713479024E+01  0.51695846206E+02  0.10000000000E+01 0.  0.
<mgrwt>
<rscale>  0 0.12278768E+03</rscale>
<asrwt>0</asrwt>
<pdfrwt beam="1">  1        1 0.26166607E-01 0.13092698E+03</pdfrwt>
<pdfrwt beam="2">  1       -1 0.12304918E-01 0.13092698E+03</pdfrwt>
<totfact> 0.75066621E+03</totfact>
</mgrwt>
</event>
<event>
 8    3  0.1560846E-003  0.1358169E+03  0.7818608E-02  0.1231588E+00
          1   -1    0    0  501    0  0.00000000000E+00  0.00000000000E+00  0.39351488016E+02  0.39351488339E+02  0.50400000000E-02 0. -1.
         -1   -1    0    0    0  501 -0.00000000000E+00 -0.00000000000E+00 -0.37819903494E+03  0.37819903497E+03  0.50400000000E-02 0.  1.
         25    2    1    2    0    0  0.26388310191E+02 -0.46096044561E+02 -0.15578581804E+03  0.20667716478E+03  0.12500016440E+03 0.  0.
         23    2    1    2    0    0 -0.26388310191E+02  0.46096044561E+02 -0.18306172889E+03  0.21087335853E+03  0.90193062468E+02 0.  0.
        -13    1    4    4    0    0 -0.15045072711E+02  0.27472454774E+02 -0.18622316365E+03  0.18883899975E+03  0.10566000000E+00 0.  1.
         13    1    4    4    0    0 -0.11343237480E+02  0.18623589787E+02  0.31614347623E+01  0.22034358781E+02  0.10566000000E+00 0. -1.
    9000005    1    3    3    0    0 -0.37975429331E+02 -0.56384894152E+02 -0.59195031351E+02  0.90146776193E+02  0.10000000000E+01 0.  0.
    9000005    1    3    3    0    0  0.64363739522E+02  0.10288849591E+02 -0.96590786686E+02  0.11653038858E+03  0.10000000000E+01 0.  0.
<mgrwt>
<rscale>  0 0.12725409E+03</rscale>
<asrwt>0</asrwt>
<pdfrwt beam="1">  1        1 0.60540754E-02 0.13581690E+03</pdfrwt>
<pdfrwt beam="2">  1       -1 0.58184465E-01 0.13581690E+03</pdfrwt>
<totfact> 0.37765655E+03</totfact>
</mgrwt>
</event>
<event>
 8    3  0.1560846E-003  0.1257774E+03  0.7818608E-02  0.1249759E+00
         -1   -1    0    0    0  501 -0.00000000000E+00  0.00000000000E+00  0.11028943192E+02  0.11028944344E+02  0.50400000000E-02 0.  1.
          1   -1    0    0  501    0  0.00000000000E+00 -0.00000000000E+00 -0.12364038328E+04  0.12364038329E+04  0.50400000000E-02 0. -1.
         25    2    1    2    0    0 -0.76219651623E+01  0.11769567235E+02 -0.46855055045E+03  0.48513870922E+03  0.12499332699E+03 0.  0.
         23    2    1    2    0    0  0.76219651623E+01 -0.11769567235E+02 -0.75682433920E+03  0.76229406797E+03  0.90069687460E+02 0.  0.
        -13    1    4    4    0    0  0.34930524543E+02  0.26576671279E+02 -0.34086546682E+03  0.34367970356E+03  0.10566000000E+00 0.  1.
         13    1    4    4    0    0 -0.27308559380E+02 -0.38346238514E+02 -0.41595887238E+03  0.41861436442E+03  0.10566000000E+00 0. -1.
    9000005    1    3    3    0    0  0.63502016694E+01 -0.41684760749E+02 -0.36795794131E+03  0.37036737290E+03  0.10000000000E+01 0.  0.
    9000005    1    3    3    0    0 -0.13972166832E+02  0.53454327984E+02 -0.10059260915E+03  0.11477133632E+03  0.10000000000E+01 0.  0.
<mgrwt>
<rscale>  0 0.11605038E+03</rscale>
<asrwt>0</asrwt>
<pdfrwt beam="2">  1        1 0.19021586E+00 0.12577738E+03</pdfrwt>
<pdfrwt beam="1">  1       -1 0.16967616E-02 0.12577738E+03</pdfrwt>
<totfact> 0.91019038E+03</totfact>
</mgrwt>
</event>
<event>
 8    3  0.1560846E-003  0.1450933E+03  0.7818608E-02  0.1212499E+00
         -1   -1    0    0    0  501 -0.00000000000E+00  0.00000000000E+00  0.18976188051E+02  0.18976188721E+02  0.50400000000E-02 0.  1.
          1   -1    0    0  501    0  0.00000000000E+00 -0.00000000000E+00 -0.11231965025E+04  0.11231965025E+04  0.50400000000E-02 0. -1.
         25    2    1    2    0    0  0.10025549789E+02  0.72984804832E+02 -0.38061951217E+03  0.40733679944E+03  0.12499904698E+03 0.  0.
         23    2    1    2    0    0 -0.10025549789E+02 -0.72984804832E+02 -0.72360080230E+03  0.73483589182E+03  0.10468224983E+03 0.  0.
        -13    1    4    4    0    0  0.42208260628E+02 -0.44201533335E+02 -0.24385444754E+03  0.25139672942E+03  0.10566000000E+00 0.  1.
         13    1    4    4    0    0 -0.52233810417E+02 -0.28783271497E+02 -0.47974635476E+03  0.48343916240E+03  0.10566000000E+00 0. -1.
    9000005    1    3    3    0    0 -0.40494507099E+02  0.43728116189E+02 -0.73092007856E+02  0.94315400985E+02  0.10000000000E+01 0.  0.
    9000005    1    3    3    0    0  0.50520056888E+02  0.29256688644E+02 -0.30752750431E+03  0.31302139845E+03  0.10000000000E+01 0.  0.
<mgrwt>
<rscale>  0 0.14061882E+03</rscale>
<asrwt>0</asrwt>
<pdfrwt beam="2">  1        1 0.17279941E+00 0.14509326E+03</pdfrwt>
<pdfrwt beam="1">  1       -1 0.29194145E-02 0.14509326E+03</pdfrwt>
<totfact> 0.50001060E+03</totfact>
</mgrwt>
</event>
<event>
 8    3  0.1560846E-003  0.1433582E+03  0.7818608E-02  0.1219192E+00
          1   -1    0    0  501    0  0.00000000000E+00  0.00000000000E+00  0.92351203843E+03  0.92351203844E+03  0.50400000000E-02 0. -1.
         -1   -1    0    0    0  501 -0.00000000000E+00 -0.00000000000E+00 -0.21584966623E+02  0.21584967211E+02  0.50400000000E-02 0.  1.
         25    2    1    2    0    0 -0.52588078906E+01 -0.69994922476E+02  0.30313184583E+03  0.33532148814E+03  0.12499856086E+03 0.  0.
         23    2    1    2    0    0  0.52588078906E+01  0.69994922476E+02  0.59879522597E+03  0.60977551751E+03  0.91342842520E+02 0.  0.
        -13    1    4    4    0    0  0.27602053121E+02  0.42851541863E+02  0.12957634933E+03  0.13924140708E+03  0.10566000000E+00 0.  1.
         13    1    4    4    0    0 -0.22343245230E+02  0.27143380613E+02  0.46921887664E+03  0.47053411043E+03  0.10566000000E+00 0. -1.
    9000005    1    3    3    0    0 -0.58072332357E+02 -0.10192110265E+02  0.17193488490E+03  0.18176600217E+03  0.10000000000E+01 0.  0.
    9000005    1    3    3    0    0  0.52813524466E+02 -0.59802812211E+02  0.13119696093E+03  0.15355548597E+03  0.10000000000E+01 0.  0.
<mgrwt>
<rscale>  0 0.13573059E+03</rscale>
<asrwt>0</asrwt>
<pdfrwt beam="1">  1        1 0.14207877E+00 0.14335824E+03</pdfrwt>
<pdfrwt beam="2">  1       -1 0.33207642E-02 0.14335824E+03</pdfrwt>
<totfact> 0.57868965E+03</totfact>
</mgrwt>
</event>
<event>
 8    3  0.1560846E-003  0.1277038E+03  0.7818608E-02  0.1246535E+00
          1   -1    0    0  501    0  0.00000000000E+00  0.00000000000E+00  0.25782065294E+02  0.25782065787E+02  0.50400000000E-02 0. -1.
         -1   -1    0    0    0  501 -0.00000000000E+00 -0.00000000000E+00 -0.59492482141E+03  0.59492482143E+03  0.50400000000E-02 0.  1.
         25    2    1    2    0    0  0.52738802590E+01  0.25540738944E+02 -0.45990710388E+03  0.47730786281E+03  0.12501243354E+03 0.  0.
         23    2    1    2    0    0 -0.52738802590E+01 -0.25540738944E+02 -0.10923565224E+03  0.14339902441E+03  0.89166750101E+02 0.  0.
        -13    1    4    4    0    0  0.35263648936E+02  0.95734949936E+01 -0.27903196618E+02  0.45975822866E+02  0.10566000000E+00 0. -1.
         13    1    4    4    0    0 -0.40537529195E+02 -0.35114233937E+02 -0.81332455619E+02  0.97423201545E+02  0.10566000000E+00 0.  1.
    9000005    1    3    3    0    0  0.21102098727E+02 -0.27345759262E+02 -0.37131060383E+03  0.37291507564E+03  0.10000000000E+01 0.  0.
    9000005    1    3    3    0    0 -0.15828218468E+02  0.52886498206E+02 -0.88596500048E+02  0.10439278717E+03  0.10000000000E+01 0.  0.
<mgrwt>
<rscale>  0 0.11793956E+03</rscale>
<asrwt>0</asrwt>
<pdfrwt beam="1">  1        1 0.39664721E-02 0.12770377E+03</pdfrwt>
<pdfrwt beam="2">  1       -1 0.91526885E-01 0.12770377E+03</pdfrwt>
<totfact> 0.27119091E+03</totfact>
</mgrwt>
</event>
<event>
 8    3  0.1560846E-003  0.1392537E+03  0.7818608E-02  0.1224462E+00
         -1   -1    0    0    0  501 -0.00000000000E+00  0.00000000000E+00  0.34195679259E+03  0.34195679263E+03  0.50400000000E-02 0.  1.
          1   -1    0    0  501    0  0.00000000000E+00 -0.00000000000E+00 -0.46774435447E+02  0.46774435719E+02  0.50400000000E-02 0. -1.
         25    2    1    2    0    0 -0.61369669002E+02 -0.55894669454E+00  0.18132876286E+03  0.22863009117E+03  0.12500019860E+03 0.  0.
         23    2    1    2    0    0  0.61369669002E+02  0.55894669454E+00  0.11385359428E+03  0.16010113718E+03  0.94356687632E+02 0.  0.
        -13    1    4    4    0    0  0.39163629174E+01  0.38047182694E+02  0.18115486576E+02  0.42321484229E+02  0.10566000000E+00 0. -1.
         13    1    4    4    0    0  0.57453306085E+02 -0.37488235999E+02  0.95738107705E+02  0.11777965295E+03  0.10566000000E+00 0.  1.
    9000005    1    3    3    0    0 -0.80366705787E+02  0.42777311257E+02  0.13111931199E+03  0.15963076061E+03  0.10000000000E+01 0.  0.
    9000005    1    3    3    0    0  0.18997036785E+02 -0.43336257951E+02  0.50209450874E+02  0.68999330554E+02  0.10000000000E+01 0.  0.
<mgrwt>
<rscale>  0 0.13203864E+03</rscale>
<asrwt>0</asrwt>
<pdfrwt beam="2">  1        1 0.71960670E-02 0.13925372E+03</pdfrwt>
<pdfrwt beam="1">  1       -1 0.52608738E-01 0.13925372E+03</pdfrwt>
<totfact> 0.36122501E+03</totfact>
</mgrwt>
</event>
<event>
 8    3  0.1560846E-003  0.1269531E+03  0.7818608E-02  0.1247078E+00
          1   -1    0    0  501    0  0.00000000000E+00  0.00000000000E+00  0.34418342309E+03  0.34418342313E+03  0.50400000000E-02 0. -1.
         -1   -1    0    0    0  501 -0.00000000000E+00 -0.00000000000E+00 -0.55812650941E+02  0.55812651169E+02  0.50400000000E-02 0.  1.
         25    2    1    2    0    0  0.17390995002E+02 -0.13796940252E+02  0.37684354293E+02  0.13242807540E+03  0.12499712928E+03 0.  0.
         23    2    1    2    0    0 -0.17390995002E+02  0.13796940252E+02  0.25068641786E+03  0.26756799889E+03  0.90863368127E+02 0.  0.
        -13    1    4    4    0    0  0.71390790590E+01  0.14435148232E+02  0.42867306973E+00  0.16110086248E+02  0.10566000000E+00 0.  1.
         13    1    4    4    0    0 -0.24530074061E+02 -0.63820797972E+00  0.25025774479E+03  0.25145791265E+03  0.10566000000E+00 0. -1.
    9000005    1    3    3    0    0  0.36758353925E+02  0.41850092181E+02  0.46848792863E+02  0.72790220439E+02  0.10000000000E+01 0.  0.
    9000005    1    3    3    0    0 -0.19367358924E+02 -0.55647032433E+02 -0.91644385700E+01  0.59637854963E+02  0.10000000000E+01 0.  0.
<mgrwt>
<rscale>  0 0.11761886E+03</rscale>
<asrwt>0</asrwt>
<pdfrwt beam="1">  1        1 0.52951295E-01 0.12695308E+03</pdfrwt>
<pdfrwt beam="2">  1       -1 0.85865618E-02 0.12695308E+03</pdfrwt>
<totfact> 0.54196499E+03</totfact>
</mgrwt>
</event>
<event>
 8    3  0.1560846E-003  0.1252575E+03  0.7818608E-02  0.1250342E+00
         -1   -1    0    0    0  501 -0.00000000000E+00  0.00000000000E+00  0.10601623844E+02  0.10601625042E+02  0.50400000000E-02 0. -1.
          1   -1    0    0  501    0  0.00000000000E+00 -0.00000000000E+00 -0.11165971522E+04  0.11165971522E+04  0.50400000000E-02 0.  1.
         25    2    1    2    0    0  0.42419619615E+01  0.67665655981E+01 -0.58260950496E+03  0.59592221196E+03  0.12500266713E+03 0.  0.
         23    2    1    2    0    0 -0.42419619615E+01 -0.67665655981E+01 -0.52338602343E+03  0.53127656533E+03  0.90873971458E+02 0.  0.
        -13    1    4    4    0    0 -0.20831515149E+02 -0.43272022221E+02 -0.35206819295E+03  0.35532864166E+03  0.10566000000E+00 0.  1.
         13    1    4    4    0    0  0.16589553188E+02  0.36505456623E+02 -0.17131783048E+03  0.17594792367E+03  0.10566000000E+00 0. -1.
    9000005    1    3    3    0    0 -0.33415972476E+02  0.44045166303E+02 -0.44562817138E+03  0.44904573377E+03  0.10000000000E+01 0.  0.
    9000005    1    3    3    0    0  0.37657934437E+02 -0.37278600705E+02 -0.13698133358E+03  0.14687647819E+03  0.10000000000E+01 0.  0.
<mgrwt>
<rscale>  0 0.11571254E+03</rscale>
<asrwt>0</asrwt>
<pdfrwt beam="2">  1        1 0.17178408E+00 0.12525752E+03</pdfrwt>
<pdfrwt beam="1">  1       -1 0.16310200E-02 0.12525752E+03</pdfrwt>
<totfact> 0.11638414E+04</totfact>
</mgrwt>
</event>
<event>
 8    3  0.1560846E-003  0.1552872E+03  0.7818608E-02  0.1202989E+00
          1   -1    0    0  501    0  0.00000000000E+00  0.00000000000E+00  0.12516457743E+03  0.12516457753E+03  0.50400000000E-02 0. -1.
         -1   -1    0    0    0  501 -0.00000000000E+00 -0.00000000000E+00 -0.23852965892E+03  0.23852965898E+03  0.50400000000E-02 0.  1.
         25    2    1    2    0    0 -0.33260551928E+02 -0.85925471927E+02 -0.16415010434E+03  0.22596320939E+03  0.12499865680E+03 0.  0.
         23    2    1    2    0    0  0.33260551928E+02  0.85925471927E+02  0.50785022848E+02  0.13773102712E+03  0.88889067070E+02 0.  0.
        -13    1    4    4    0    0  0.16344199821E+02  0.16000962330E+01  0.49030362049E+02  0.51707646847E+02  0.10566000000E+00 0. -1.
         13    1    4    4    0    0  0.16916352107E+02  0.84325375694E+02  0.17546607993E+01  0.86023380270E+02  0.10566000000E+00 0.  1.
    9000005    1    3    3    0    0  0.28921663109E+02 -0.41950014797E+02 -0.71500137537E+01  0.51462501252E+02  0.10000000000E+01 0.  0.
    9000005    1    3    3    0    0 -0.62182215037E+02 -0.43975457130E+02 -0.15700009059E+03  0.17450070814E+03  0.10000000000E+01 0.  0.
<mgrwt>
<rscale>  0 0.14797096E+03</rscale>
<asrwt>0</asrwt>
<pdfrwt beam="1">  1        1 0.19256089E-01 0.15528720E+03</pdfrwt>
<pdfrwt beam="2">  1       -1 0.36696871E-01 0.15528720E+03</pdfrwt>
<totfact> 0.18926680E+03</totfact>
</mgrwt>
</event>
<event>
 8    3  0.1560846E-003  0.1354247E+03  0.7818608E-02  0.1232037E+00
          1   -1    0    0  501    0  0.00000000000E+00  0.00000000000E+00  0.79919958368E+02  0.79919958527E+02  0.50400000000E-02 0. -1.
         -1   -1    0    0    0  501 -0.00000000000E+00 -0.00000000000E+00 -0.22092245591E+03  0.22092245596E+03  0.50400000000E-02 0.  1.
         25    2    1    2    0    0  0.28765890020E+02 -0.43438138725E+02 -0.13765895513E+02  0.13612252266E+03  0.12500197188E+03 0.  0.
         23    2    1    2    0    0 -0.28765890020E+02  0.43438138725E+02 -0.12723660202E+03  0.16471989183E+03  0.90714615932E+02 0.  0.
        -13    1    4    4    0    0 -0.48555688806E+02  0.45823486173E+02 -0.12843399269E+03  0.14475064229E+03  0.10566000000E+00 0.  1.
         13    1    4    4    0    0  0.19789798787E+02 -0.23853474477E+01  0.11973906700E+01  0.19969249533E+02  0.10566000000E+00 0. -1.
    9000005    1    3    3    0    0  0.66301697022E+02 -0.32985757975E+02 -0.44574508352E+02  0.86439933202E+02  0.10000000000E+01 0.  0.
    9000005    1    3    3    0    0 -0.37535807002E+02 -0.10452380750E+02  0.30808612839E+02  0.49682589463E+02  0.10000000000E+01 0.  0.
<mgrwt>
<rscale>  0 0.12696026E+03</rscale>
<asrwt>0</asrwt>
<pdfrwt beam="1">  1        1 0.12295378E-01 0.13542467E+03</pdfrwt>
<pdfrwt beam="2">  1       -1 0.33988070E-01 0.13542467E+03</pdfrwt>
<totfact> 0.38359827E+03</totfact>
</mgrwt>
</event>
<event>
 8    3  0.1560846E-003  0.2072319E+03  0.7818608E-02  0.1148951E+00
          1   -1    0    0  501    0  0.00000000000E+00  0.00000000000E+00  0.37278956473E+04  0.37278956473E+04  0.50400000000E-02 0. -1.
         -1   -1    0    0    0  501 -0.00000000000E+00 -0.00000000000E+00 -0.28803799212E+02  0.28803799653E+02  0.50400000000E-02 0.  1.
         25    2    1    2    0    0  0.66668059720E+02  0.15124469088E+03  0.38230793441E+03  0.43486136002E+03  0.12500183609E+03 0.  0.
         23    2    1    2    0    0 -0.66668059720E+02 -0.15124469088E+03  0.33167839137E+04  0.33218380869E+04  0.78950358036E+02 0.  0.
        -13    1    4    4    0    0 -0.13890246402E+01 -0.44725036021E+02  0.42332864050E+03  0.42568698273E+03  0.10566000000E+00 0.  1.
         13    1    4    4    0    0 -0.65279035080E+02 -0.10651965485E+03  0.28934552732E+04  0.28961511042E+04  0.10566000000E+00 0. -1.
    9000005    1    3    3    0    0  0.81982731401E+01 -0.10093512152E+02  0.12437166740E+03  0.12505359780E+03  0.10000000000E+01 0.  0.
    9000005    1    3    3    0    0  0.58469786580E+02  0.16133820303E+03  0.25793626701E+03  0.30980776223E+03  0.10000000000E+01 0.  0.
<mgrwt>
<rscale>  0 0.20093630E+03</rscale>
<asrwt>0</asrwt>
<pdfrwt beam="1">  1        1 0.57352261E+00 0.20723186E+03</pdfrwt>
<pdfrwt beam="2">  1       -1 0.44313522E-02 0.20723186E+03</pdfrwt>
<totfact> 0.45377143E+01</totfact>
</mgrwt>
</event>
<event>
 8    3  0.1560846E-003  0.1506447E+03  0.7818608E-02  0.1208709E+00
          1   -1    0    0  501    0  0.00000000000E+00  0.00000000000E+00  0.64607647958E+02  0.64607648154E+02  0.50400000000E-02 0. -1.
         -1   -1    0    0    0  501 -0.00000000000E+00 -0.00000000000E+00 -0.29193278023E+03  0.29193278027E+03  0.50400000000E-02 0.  1.
         25    2    1    2    0    0  0.42592797780E+02  0.72491745647E+02 -0.12716199323E+03  0.19713952843E+03  0.12499848615E+03 0.  0.
         23    2    1    2    0    0 -0.42592797780E+02 -0.72491745647E+02 -0.10016313904E+03  0.15940089999E+03  0.91141608971E+02 0.  0.
        -13    1    4    4    0    0  0.11698769721E+02  0.95046995631E+01 -0.43197602365E+02  0.45751989475E+02  0.10566000000E+00 0. -1.
         13    1    4    4    0    0 -0.54291567501E+02 -0.81996445210E+02 -0.56965536674E+02  0.11364891052E+03  0.10566000000E+00 0.  1.
    9000005    1    3    3    0    0  0.77225948973E+02  0.83120732198E+02 -0.10541065961E+03  0.15487191635E+03  0.10000000000E+01 0.  0.
    9000005    1    3    3    0    0 -0.34633151193E+02 -0.10628986551E+02 -0.21751333621E+02  0.42267612080E+02  0.10000000000E+01 0.  0.
<mgrwt>
<rscale>  0 0.14348971E+03</rscale>
<asrwt>0</asrwt>
<pdfrwt beam="1">  1        1 0.99396383E-02 0.15064469E+03</pdfrwt>
<pdfrwt beam="2">  1       -1 0.44912735E-01 0.15064469E+03</pdfrwt>
<totfact> 0.31379514E+03</totfact>
</mgrwt>
</event>
<event>
 8    3  0.1560846E-003  0.1717104E+03  0.7818608E-02  0.1182695E+00
         -1   -1    0    0    0  501 -0.00000000000E+00  0.00000000000E+00  0.33847660149E+02  0.33847660524E+02  0.50400000000E-02 0.  1.
          1   -1    0    0  501    0  0.00000000000E+00 -0.00000000000E+00 -0.92525306804E+03  0.92525306806E+03  0.50400000000E-02 0. -1.
         25    2    1    2    0    0 -0.69614002828E+02  0.94939474261E+02 -0.26731421843E+03  0.31771269136E+03  0.12499939885E+03 0.  0.
         23    2    1    2    0    0  0.69614002828E+02 -0.94939474261E+02 -0.62409118947E+03  0.64138803723E+03  0.89605738448E+02 0.  0.
        -13    1    4    4    0    0  0.49961721593E+01 -0.21530297218E+02 -0.34408745602E+03  0.34479661250E+03  0.10566000000E+00 0. -1.
         13    1    4    4    0    0  0.64617830669E+02 -0.73409177043E+02 -0.28000373344E+03  0.29659142473E+03  0.10566000000E+00 0.  1.
    9000005    1    3    3    0    0 -0.69979956465E+02 -0.46275049033E+01 -0.13481793241E+03  0.15197198099E+03  0.10000000000E+01 0.  0.
    9000005    1    3    3    0    0  0.36595363672E+00  0.99566979165E+02 -0.13249628602E+03  0.16574071036E+03  0.10000000000E+01 0.  0.
<mgrwt>
<rscale>  0 0.16543417E+03</rscale>
<asrwt>0</asrwt>
<pdfrwt beam="2">  1        1 0.14234661E+00 0.17171040E+03</pdfrwt>
<pdfrwt beam="1">  1       -1 0.52073331E-02 0.17171040E+03</pdfrwt>
<totfact> 0.29884205E+03</totfact>
</mgrwt>
</event>
<event>
 8    3  0.1560846E-003  0.1558110E+03  0.7818608E-02  0.1201661E+00
          1   -1    0    0  501    0  0.00000000000E+00  0.00000000000E+00  0.33355120712E+03  0.33355120716E+03  0.50400000000E-02 0.  1.
         -1   -1    0    0    0  501 -0.00000000000E+00 -0.00000000000E+00 -0.62887074858E+02  0.62887075059E+02  0.50400000000E-02 0. -1.
         25    2    1    2    0    0 -0.48793390704E+02 -0.79196083225E+02  0.11680424710E+03  0.19473134896E+03  0.12499700617E+03 0.  0.
         23    2    1    2    0    0  0.48793390704E+02  0.79196083225E+02  0.15385988516E+03  0.20170693326E+03  0.91433079832E+02 0.  0.
        -13    1    4    4    0    0  0.15381680784E+02  0.92901523980E+02  0.10675257276E+03  0.14234961263E+03  0.10566000000E+00 0.  1.
         13    1    4    4    0    0  0.33411709920E+02 -0.13705440755E+02  0.47107312403E+02  0.59357320626E+02  0.10566000000E+00 0. -1.
    9000005    1    3    3    0    0 -0.95388855622E+01 -0.34940399104E+02  0.12928340191E+03  0.13426473788E+03  0.10000000000E+01 0.  0.
    9000005    1    3    3    0    0 -0.39254505142E+02 -0.44255684121E+02 -0.12479154812E+02  0.60466611082E+02  0.10000000000E+01 0.  0.
<mgrwt>
<rscale>  0 0.14903752E+03</rscale>
<asrwt>0</asrwt>
<pdfrwt beam="1">  1        1 0.51315571E-01 0.15581099E+03</pdfrwt>
<pdfrwt beam="2">  1       -1 0.96749346E-02 0.15581099E+03</pdfrwt>
<totfact> 0.47551446E+03</totfact>
</mgrwt>
</event>
<event>
 8    3  0.1560846E-003  0.1456381E+03  0.7818608E-02  0.1215577E+00
          1   -1    0    0  501    0  0.00000000000E+00  0.00000000000E+00  0.10875382955E+03  0.10875382967E+03  0.50400000000E-02 0. -1.
         -1   -1    0    0    0  501 -0.00000000000E+00 -0.00000000000E+00 -0.26252917443E+03  0.26252917448E+03  0.50400000000E-02 0.  1.
         25    2    1    2    0    0 -0.57251572653E+02  0.48100455456E+02  0.33672353702E+02  0.14948000066E+03  0.12497618496E+03 0.  0.
         23    2    1    2    0    0  0.57251572653E+02 -0.48100455456E+02 -0.18744769858E+03  0.22180300348E+03  0.92024650311E+02 0.  0.
        -13    1    4    4    0    0  0.80193416889E+02 -0.24240238839E+02 -0.11630415564E+03  0.14333611225E+03  0.10566000000E+00 0. -1.
         13    1    4    4    0    0 -0.22941844236E+02 -0.23860216617E+02 -0.71143542939E+02  0.78466891234E+02  0.10566000000E+00 0.  1.
    9000005    1    3    3    0    0  0.50547329292E+01  0.89915376742E+01 -0.42402240463E+02  0.43650292909E+02  0.10000000000E+01 0.  0.
    9000005    1    3    3    0    0 -0.62306305582E+02  0.39108917782E+02  0.76074594165E+02  0.10582970775E+03  0.10000000000E+01 0.  0.
<mgrwt>
<rscale>  0 0.13834200E+03</rscale>
<asrwt>0</asrwt>
<pdfrwt beam="1">  1        1 0.16731359E-01 0.14563806E+03</pdfrwt>
<pdfrwt beam="2">  1       -1 0.40389103E-01 0.14563806E+03</pdfrwt>
<totfact> 0.19129371E+03</totfact>
</mgrwt>
</event>
<event>
 8    3  0.1560846E-003  0.1392858E+03  0.7818608E-02  0.1224448E+00
          1   -1    0    0  501    0  0.00000000000E+00  0.00000000000E+00  0.37111296567E+03  0.37111296570E+03  0.50400000000E-02 0. -1.
         -1   -1    0    0    0  501 -0.00000000000E+00 -0.00000000000E+00 -0.45543924066E+02  0.45543924345E+02  0.50400000000E-02 0.  1.
         25    2    1    2    0    0  0.56512195025E+02  0.24123408448E+02  0.23068775935E+03  0.26947611461E+03  0.12499986804E+03 0.  0.
         23    2    1    2    0    0 -0.56512195025E+02 -0.24123408448E+02  0.94881282257E+02  0.14718077544E+03  0.94255800432E+02 0.  0.
        -13    1    4    4    0    0 -0.35124834417E+02  0.10609849460E+02 -0.70744589273E+01  0.37368195455E+02  0.10566000000E+00 0.  1.
         13    1    4    4    0    0 -0.21387360608E+02 -0.34733257908E+02  0.10195574118E+03  0.10981257999E+03  0.10566000000E+00 0. -1.
    9000005    1    3    3    0    0  0.13751067544E+02  0.10448684385E+02  0.22329733396E+03  0.22396643993E+03  0.10000000000E+01 0.  0.
    9000005    1    3    3    0    0  0.42761127481E+02  0.13674724063E+02  0.73904253896E+01  0.45509674675E+02  0.10000000000E+01 0.  0.
<mgrwt>
<rscale>  0 0.13204840E+03</rscale>
<asrwt>0</asrwt>
<pdfrwt beam="1">  1        1 0.57094303E-01 0.13928580E+03</pdfrwt>
<pdfrwt beam="2">  1       -1 0.70067575E-02 0.13928580E+03</pdfrwt>
<totfact> 0.67380435E+03</totfact>
</mgrwt>
</event>
<event>
 8    3  0.1560846E-003  0.1266427E+03  0.7818608E-02  0.1246900E+00
          1   -1    0    0  501    0  0.00000000000E+00  0.00000000000E+00  0.32391982809E+02  0.32391983201E+02  0.50400000000E-02 0. -1.
         -1   -1    0    0    0  501 -0.00000000000E+00 -0.00000000000E+00 -0.39098418221E+03  0.39098418224E+03  0.50400000000E-02 0.  1.
         25    2    1    2    0    0 -0.49110055051E+01 -0.19748810944E+02 -0.16572450704E+03  0.20857366869E+03  0.12499691808E+03 0.  0.
         23    2    1    2    0    0  0.49110055051E+01  0.19748810944E+02 -0.19286769236E+03  0.21480249675E+03  0.92347346174E+02 0.  0.
        -13    1    4    4    0    0 -0.36639441219E+02  0.19091999349E+02 -0.14794952714E+03  0.15360998287E+03  0.10566000000E+00 0. -1.
         13    1    4    4    0    0  0.41550446724E+02  0.65681159438E+00 -0.44918165220E+02  0.61192513882E+02  0.10566000000E+00 0.  1.
    9000005    1    3    3    0    0 -0.26697170304E+02 -0.59504815942E+02 -0.44007128971E+02  0.78684111628E+02  0.10000000000E+01 0.  0.
    9000005    1    3    3    0    0  0.21786164799E+02  0.39756004998E+02 -0.12171737807E+03  0.12988955706E+03  0.10000000000E+01 0.  0.
<mgrwt>
<rscale>  0 0.11772409E+03</rscale>
<asrwt>0</asrwt>
<pdfrwt beam="1">  1        1 0.49833823E-02 0.12664266E+03</pdfrwt>
<pdfrwt beam="2">  1       -1 0.60151409E-01 0.12664266E+03</pdfrwt>
<totfact> 0.46007051E+03</totfact>
</mgrwt>
</event>
<event>
 8    3  0.1560846E-003  0.1295024E+03  0.7818608E-02  0.1241563E+00
          1   -1    0    0  501    0  0.00000000000E+00  0.00000000000E+00  0.98815988590E+01  0.98816001443E+01  0.50400000000E-02 0. -1.
         -1   -1    0    0    0  501 -0.00000000000E+00 -0.00000000000E+00 -0.13931807787E+04  0.13931807787E+04  0.50400000000E-02 0.  1.
         25    2    1    2    0    0  0.33095912157E+02 -0.70442906148E+01 -0.94516069334E+03  0.95399141344E+03  0.12500367697E+03 0.  0.
         23    2    1    2    0    0 -0.33095912157E+02  0.70442906148E+01 -0.43813848653E+03  0.44907096544E+03  0.92490200507E+02 0.  0.
        -13    1    4    4    0    0 -0.16874970517E+02  0.37931222980E+02 -0.89145848036E+02  0.98338881897E+02  0.10566000000E+00 0. -1.
         13    1    4    4    0    0 -0.16220941641E+02 -0.30886932365E+02 -0.34899263850E+03  0.35073208355E+03  0.10566000000E+00 0.  1.
    9000005    1    3    3    0    0 -0.13499951042E+02  0.48988366757E+02 -0.53472886885E+03  0.53713878276E+03  0.10000000000E+01 0.  0.
    9000005    1    3    3    0    0  0.46595863199E+02 -0.56032657371E+02 -0.41043182448E+03  0.41685263068E+03  0.10000000000E+01 0.  0.
<mgrwt>
<rscale>  0 0.12093487E+03</rscale>
<asrwt>0</asrwt>
<pdfrwt beam="1">  1        1 0.15202472E-02 0.12950244E+03</pdfrwt>
<pdfrwt beam="2">  1       -1 0.21433535E+00 0.12950244E+03</pdfrwt>
<totfact> 0.11706528E+03</totfact>
</mgrwt>
</event>
<event>
 8    3  0.1560846E-003  0.1345945E+03  0.7818608E-02  0.1233701E+00
         -1   -1    0    0    0  501 -0.00000000000E+00  0.00000000000E+00  0.12636739642E+03  0.12636739652E+03  0.50400000000E-02 0.  1.
          1   -1    0    0  501    0  0.00000000000E+00 -0.00000000000E+00 -0.14974702232E+03  0.14974702241E+03  0.50400000000E-02 0. -1.
         25    2    1    2    0    0  0.11047401135E+02 -0.48682060386E+02  0.56315384068E+02  0.14590100983E+03  0.12499477634E+03 0.  0.
         23    2    1    2    0    0 -0.11047401135E+02  0.48682060386E+02 -0.79695009976E+02  0.13021340910E+03  0.90068025502E+02 0.  0.
        -13    1    4    4    0    0  0.38447815057E+02  0.14993345513E+02 -0.44816093572E+02  0.60922313642E+02  0.10566000000E+00 0. -1.
         13    1    4    4    0    0 -0.49495216192E+02  0.33688714873E+02 -0.34878916404E+02  0.69291095454E+02  0.10566000000E+00 0.  1.
    9000005    1    3    3    0    0  0.60210614084E+02 -0.44687603150E+02  0.60552339365E+02  0.96384053278E+02  0.10000000000E+01 0.  0.
    9000005    1    3    3    0    0 -0.49163212949E+02 -0.39944572364E+01 -0.42369552970E+01  0.49516956553E+02  0.10000000000E+01 0.  0.
<mgrwt>
<rscale>  0 0.12587962E+03</rscale>
<asrwt>0</asrwt>
<pdfrwt beam="2">  1        1 0.23038003E-01 0.13459451E+03</pdfrwt>
<pdfrwt beam="1">  1       -1 0.19441138E-01 0.13459451E+03</pdfrwt>
<totfact> 0.43019636E+03</totfact>
</mgrwt>
</event>
<event>
 8    3  0.1560846E-003  0.1259712E+03  0.7818608E-02  0.1244408E+00
         -1   -1    0    0    0  501 -0.00000000000E+00  0.00000000000E+00  0.10891324507E+03  0.10891324519E+03  0.50400000000E-02 0.  1.
          1   -1    0    0  501    0  0.00000000000E+00 -0.00000000000E+00 -0.13524954807E+03  0.13524954817E+03  0.50400000000E-02 0. -1.
         25    2    1    2    0    0 -0.15398667300E+02  0.25763981946E+01 -0.57457098378E+02  0.13845595839E+03  0.12499990991E+03 0.  0.
         23    2    1    2    0    0  0.15398667300E+02 -0.25763981946E+01  0.31120795377E+02  0.10570683497E+03  0.99808187402E+02 0.  0.
        -13    1    4    4    0    0 -0.31087989445E+01 -0.34538154987E+02  0.52584327244E+02  0.62989454804E+02  0.10566000000E+00 0.  1.
         13    1    4    4    0    0  0.18507466244E+02  0.31961756793E+02 -0.21463531867E+02  0.42717380167E+02  0.10566000000E+00 0. -1.
    9000005    1    3    3    0    0 -0.14435647022E+01 -0.10415255048E+02  0.38857383135E+02  0.40267327213E+02  0.10000000000E+01 0.  0.
    9000005    1    3    3    0    0 -0.13955102598E+02  0.12991653243E+02 -0.96314481513E+02  0.98188631173E+02  0.10000000000E+01 0.  0.
<mgrwt>
<rscale>  0 0.11920851E+03</rscale>
<asrwt>0</asrwt>
<pdfrwt beam="2">  1        1 0.20807623E-01 0.12597116E+03</pdfrwt>
<pdfrwt beam="1">  1       -1 0.16755884E-01 0.12597116E+03</pdfrwt>
<totfact> 0.61691529E+03</totfact>
</mgrwt>
</event>
<event>
 8    3  0.1560846E-003  0.1301435E+03  0.7818608E-02  0.1241832E+00
          1   -1    0    0  501    0  0.00000000000E+00  0.00000000000E+00  0.11384082723E+04  0.11384082723E+04  0.50400000000E-02 0. -1.
         -1   -1    0    0    0  501 -0.00000000000E+00 -0.00000000000E+00 -0.11309598033E+02  0.11309599156E+02  0.50400000000E-02 0.  1.
         25    2    1    2    0    0 -0.18276985148E+02  0.31277776224E+02  0.61860630589E+03  0.63214799454E+03  0.12499991138E+03 0.  0.
         23    2    1    2    0    0  0.18276985148E+02 -0.31277776224E+02  0.50849236839E+03  0.51756987694E+03  0.89452452913E+02 0.  0.
        -13    1    4    4    0    0  0.37004327465E+02 -0.40655013233E+02  0.47428233020E+03  0.47745773662E+03  0.10566000000E+00 0. -1.
         13    1    4    4    0    0 -0.18727342318E+02  0.93772370094E+01  0.34210038195E+02  0.40112140326E+02  0.10566000000E+00 0.  1.
    9000005    1    3    3    0    0 -0.52519178887E+02  0.11356670932E+02  0.11448504659E+03  0.12647159372E+03  0.10000000000E+01 0.  0.
    9000005    1    3    3    0    0  0.34242193740E+02  0.19921105291E+02  0.50412125930E+03  0.50567640082E+03  0.10000000000E+01 0.  0.
<mgrwt>
<rscale>  0 0.12077008E+03</rscale>
<asrwt>0</asrwt>
<pdfrwt beam="1">  1        1 0.17513969E+00 0.13014348E+03</pdfrwt>
<pdfrwt beam="2">  1       -1 0.17399386E-02 0.13014348E+03</pdfrwt>
<totfact> 0.10265497E+04</totfact>
</mgrwt>
</event>
<event>
 8    3  0.1560846E-003  0.1714325E+03  0.7818608E-02  0.1182894E+00
          1   -1    0    0  501    0  0.00000000000E+00  0.00000000000E+00  0.67015641280E+03  0.67015641282E+03  0.50400000000E-02 0. -1.
         -1   -1    0    0    0  501 -0.00000000000E+00 -0.00000000000E+00 -0.41346211954E+02  0.41346212262E+02  0.50400000000E-02 0.  1.
         25    2    1    2    0    0 -0.99072058721E+02 -0.62839251043E+02  0.23568774842E+03  0.29144092498E+03  0.12500021484E+03 0.  0.
         23    2    1    2    0    0  0.99072058721E+02  0.62839251043E+02  0.39312245242E+03  0.42006170009E+03  0.90235940703E+02 0.  0.
        -13    1    4    4    0    0 -0.10439093317E+02 -0.11402623995E+02  0.34241716233E+02  0.37569945407E+02  0.10566000000E+00 0. -1.
         13    1    4    4    0    0  0.10951115204E+03  0.74241875039E+02  0.35888073619E+03  0.38249175469E+03  0.10566000000E+00 0.  1.
    9000005    1    3    3    0    0 -0.32271122525E+02 -0.14784148796E+02 -0.61007802905E+01  0.36030763589E+02  0.10000000000E+01 0.  0.
    9000005    1    3    3    0    0 -0.66800936196E+02 -0.48055102248E+02  0.24178852871E+03  0.25541016140E+03  0.10000000000E+01 0.  0.
<mgrwt>
<rscale>  0 0.16525007E+03</rscale>
<asrwt>0</asrwt>
<pdfrwt beam="1">  1        1 0.10310097E+00 0.17143249E+03</pdfrwt>
<pdfrwt beam="2">  1       -1 0.63609564E-02 0.17143249E+03</pdfrwt>
<totfact> 0.36108334E+03</totfact>
</mgrwt>
</event>
<event>
 8    3  0.1560846E-003  0.1892147E+03  0.7818608E-02  0.1164235E+00
          1   -1    0    0  501    0  0.00000000000E+00  0.00000000000E+00  0.51953600137E+03  0.51953600139E+03  0.50400000000E-02 0. -1.
         -1   -1    0    0    0  501 -0.00000000000E+00 -0.00000000000E+00 -0.62206898101E+02  0.62206898305E+02  0.50400000000E-02 0.  1.
         25    2    1    2    0    0 -0.90370523502E+02  0.10958861395E+03  0.21061206425E+03  0.28312478032E+03  0.12500281516E+03 0.  0.
         23    2    1    2    0    0  0.90370523502E+02 -0.10958861395E+03  0.24671703902E+03  0.29861811938E+03  0.90149808952E+02 0.  0.
        -13    1    4    4    0    0  0.64873437863E+02 -0.23143253130E+02  0.60244748841E+02  0.91507453426E+02  0.10566000000E+00 0.  1.
         13    1    4    4    0    0  0.25497085639E+02 -0.86445360821E+02  0.18647229018E+03  0.20711066595E+03  0.10566000000E+00 0. -1.
    9000005    1    3    3    0    0 -0.89285361815E+02  0.12909649090E+03  0.14161777812E+03  0.21141044174E+03  0.10000000000E+01 0.  0.
    9000005    1    3    3    0    0 -0.10851616872E+01 -0.19507876951E+02  0.68994286130E+02  0.71714338578E+02  0.10000000000E+01 0.  0.
<mgrwt>
<rscale>  0 0.18373679E+03</rscale>
<asrwt>0</asrwt>
<pdfrwt beam="1">  1        1 0.79928612E-01 0.18921469E+03</pdfrwt>
<pdfrwt beam="2">  1       -1 0.95702925E-02 0.18921469E+03</pdfrwt>
<totfact> 0.27627148E+03</totfact>
</mgrwt>
</event>
<event>
 8    3  0.1560846E-003  0.1577149E+03  0.7818608E-02  0.1199285E+00
         -1   -1    0    0    0  501 -0.00000000000E+00  0.00000000000E+00  0.10893842096E+03  0.10893842108E+03  0.50400000000E-02 0.  1.
          1   -1    0    0  501    0  0.00000000000E+00 -0.00000000000E+00 -0.20420665314E+03  0.20420665320E+03  0.50400000000E-02 0. -1.
         25    2    1    2    0    0  0.92214041989E+02  0.27288196250E+02 -0.87816025238E+02  0.18051496117E+03  0.12500368683E+03 0.  0.
         23    2    1    2    0    0 -0.92214041989E+02 -0.27288196250E+02 -0.74522069382E+01  0.13263011311E+03  0.91033709799E+02 0.  0.
        -13    1    4    4    0    0 -0.29869589913E+02 -0.38397873058E+02  0.31805468003E+02  0.58122181789E+02  0.10566000000E+00 0.  1.
         13    1    4    4    0    0 -0.62344452076E+02  0.11109676807E+02 -0.39257674942E+02  0.74507931318E+02  0.10566000000E+00 0. -1.
    9000005    1    3    3    0    0 -0.26035890341E+02 -0.17329566162E+02 -0.15995589442E+02  0.35143140593E+02  0.10000000000E+01 0.  0.
    9000005    1    3    3    0    0  0.11824993233E+03  0.44617762412E+02 -0.71820435796E+02  0.14537182057E+03  0.10000000000E+01 0.  0.
<mgrwt>
<rscale>  0 0.15097098E+03</rscale>
<asrwt>0</asrwt>
<pdfrwt beam="2">  1        1 0.31416408E-01 0.15771492E+03</pdfrwt>
<pdfrwt beam="1">  1       -1 0.16759757E-01 0.15771492E+03</pdfrwt>
<totfact> 0.37261690E+03</totfact>
</mgrwt>
</event>
<event>
 8    3  0.1560846E-003  0.1504704E+03  0.7818608E-02  0.1208798E+00
         -1   -1    0    0    0  501 -0.00000000000E+00  0.00000000000E+00  0.65236234203E+03  0.65236234205E+03  0.50400000000E-02 0. -1.
          1   -1    0    0  501    0  0.00000000000E+00 -0.00000000000E+00 -0.32309627530E+02  0.32309627923E+02  0.50400000000E-02 0.  1.
         25    2    1    2    0    0  0.64649230880E+02 -0.53263732777E+02  0.22598236023E+03  0.27149470826E+03  0.12499920479E+03 0.  0.
         23    2    1    2    0    0 -0.64649230880E+02  0.53263732777E+02  0.39407035427E+03  0.41317726171E+03  0.91692187209E+02 0.  0.
        -13    1    4    4    0    0 -0.27908618468E+01  0.60237548638E+02  0.22745199389E+03  0.23530994850E+03  0.10566000000E+00 0.  1.
         13    1    4    4    0    0 -0.61858369033E+02 -0.69738158609E+01  0.16661836038E+03  0.17786731321E+03  0.10566000000E+00 0. -1.
    9000005    1    3    3    0    0  0.18728293735E+02  0.37489106785E+02  0.10725339428E+03  0.11515412584E+03  0.10000000000E+01 0.  0.
    9000005    1    3    3    0    0  0.45920937145E+02 -0.90752839562E+02  0.11872896595E+03  0.15634058242E+03  0.10000000000E+01 0.  0.
<mgrwt>
<rscale>  0 0.14342109E+03</rscale>
<asrwt>0</asrwt>
<pdfrwt beam="2">  1        1 0.49707124E-02 0.15047043E+03</pdfrwt>
<pdfrwt beam="1">  1       -1 0.10036343E+00 0.15047043E+03</pdfrwt>
<totfact> 0.16421617E+03</totfact>
</mgrwt>
</event>
<event>
 8    3  0.1560846E-003  0.1786919E+03  0.7818608E-02  0.1174641E+00
         -1   -1    0    0    0  501 -0.00000000000E+00  0.00000000000E+00  0.58656037799E+02  0.58656038016E+02  0.50400000000E-02 0.  1.
          1   -1    0    0  501    0  0.00000000000E+00 -0.00000000000E+00 -0.48261342659E+03  0.48261342662E+03  0.50400000000E-02 0. -1.
         25    2    1    2    0    0  0.11466704405E+03 -0.56188905007E+02 -0.21197948448E+03  0.27724735793E+03  0.12500028641E+03 0.  0.
         23    2    1    2    0    0 -0.11466704405E+03  0.56188905007E+02 -0.21197790431E+03  0.26402210670E+03  0.92018024728E+02 0.  0.
        -13    1    4    4    0    0 -0.60181109655E+02 -0.18000761205E+02 -0.10978870582E+03  0.12648859417E+03  0.10566000000E+00 0.  1.
         13    1    4    4    0    0 -0.54485934394E+02  0.74189666212E+02 -0.10218919849E+03  0.13753351254E+03  0.10566000000E+00 0. -1.
    9000005    1    3    3    0    0  0.11321279052E+03 -0.29016250392E+02 -0.21977812970E+03  0.24892268884E+03  0.10000000000E+01 0.  0.
    9000005    1    3    3    0    0  0.14542535301E+01 -0.27172654615E+02  0.77986452162E+01  0.28324669096E+02  0.10000000000E+01 0.  0.
<mgrwt>
<rscale>  0 0.17311156E+03</rscale>
<asrwt>0</asrwt>
<pdfrwt beam="2">  1        1 0.74248217E-01 0.17869190E+03</pdfrwt>
<pdfrwt beam="1">  1       -1 0.90240062E-02 0.17869190E+03</pdfrwt>
<totfact> 0.33250608E+03</totfact>
</mgrwt>
</event>
<event>
 8    3  0.1560846E-003  0.1461283E+03  0.7818608E-02  0.1214989E+00
         -1   -1    0    0    0  501 -0.00000000000E+00  0.00000000000E+00  0.16449127441E+03  0.16449127449E+03  0.50400000000E-02 0.  1.
          1   -1    0    0  501    0  0.00000000000E+00 -0.00000000000E+00 -0.14944526843E+03  0.14944526852E+03  0.50400000000E-02 0. -1.
         25    2    1    2    0    0 -0.73779806806E+02  0.16865198769E+02  0.91688491857E+02  0.17251163154E+03  0.12500235460E+03 0.  0.
         23    2    1    2    0    0  0.73779806806E+02 -0.16865198769E+02 -0.76642485877E+02  0.14142491147E+03  0.91646277179E+02 0.  0.
        -13    1    4    4    0    0  0.44609481420E+02  0.10148420899E+02 -0.88764420577E+02  0.99860551789E+02  0.10566000000E+00 0. -1.
         13    1    4    4    0    0  0.29170325386E+02 -0.27013619669E+02  0.12121934699E+02  0.41564359680E+02  0.10566000000E+00 0.  1.
    9000005    1    3    3    0    0  0.10317923783E+02  0.49066086340E+02  0.10449184330E+02  0.51226222124E+02  0.10000000000E+01 0.  0.
    9000005    1    3    3    0    0 -0.84097730589E+02 -0.32200887570E+02  0.81239307527E+02  0.12128540942E+03  0.10000000000E+01 0.  0.
<mgrwt>
<rscale>  0 0.13877357E+03</rscale>
<asrwt>0</asrwt>
<pdfrwt beam="2">  1        1 0.22991580E-01 0.14612831E+03</pdfrwt>
<pdfrwt beam="1">  1       -1 0.25306350E-01 0.14612831E+03</pdfrwt>
<totfact> 0.28227794E+03</totfact>
</mgrwt>
</event>
<event>
 8    3  0.1560846E-003  0.1561974E+03  0.7818608E-02  0.1200835E+00
          1   -1    0    0  501    0  0.00000000000E+00  0.00000000000E+00  0.50603201365E+03  0.50603201368E+03  0.50400000000E-02 0. -1.
         -1   -1    0    0    0  501 -0.00000000000E+00 -0.00000000000E+00 -0.41625667116E+02  0.41625667421E+02  0.50400000000E-02 0.  1.
         25    2    1    2    0    0 -0.55313200016E+02 -0.75589735884E+02  0.21754341728E+03  0.26781105951E+03  0.12499706767E+03 0.  0.
         23    2    1    2    0    0  0.55313200016E+02  0.75589735884E+02  0.24686292925E+03  0.27984662159E+03  0.92733313906E+02 0.  0.
        -13    1    4    4    0    0  0.39917093106E+02  0.93701643097E+02  0.15899159913E+03  0.18881660944E+03  0.10566000000E+00 0.  1.
         13    1    4    4    0    0  0.15396106910E+02 -0.18111907212E+02  0.87871330121E+02  0.91030012150E+02  0.10566000000E+00 0. -1.
    9000005    1    3    3    0    0  0.23081634868E+02 -0.58772061068E+01  0.12703641218E+03  0.12925383336E+03  0.10000000000E+01 0.  0.
    9000005    1    3    3    0    0 -0.78394834884E+02 -0.69712529778E+02  0.90507005102E+02  0.13855722615E+03  0.10000000000E+01 0.  0.
<mgrwt>
<rscale>  0 0.14970598E+03</rscale>
<asrwt>0</asrwt>
<pdfrwt beam="1">  1        1 0.77851084E-01 0.15619739E+03</pdfrwt>
<pdfrwt beam="2">  1       -1 0.64039484E-02 0.15619739E+03</pdfrwt>
<totfact> 0.52201472E+03</totfact>
</mgrwt>
</event>
<event>
 8    3  0.1560846E-003  0.1320594E+03  0.7818608E-02  0.1237901E+00
         -1   -1    0    0    0  501 -0.00000000000E+00  0.00000000000E+00  0.43088232306E+02  0.43088232601E+02  0.50400000000E-02 0.  1.
          1   -1    0    0  501    0  0.00000000000E+00 -0.00000000000E+00 -0.35677342731E+03  0.35677342734E+03  0.50400000000E-02 0. -1.
         25    2    1    2    0    0  0.41958102526E+02  0.73710535184E+01 -0.24557040398E+03  0.27882704492E+03  0.12499953148E+03 0.  0.
         23    2    1    2    0    0 -0.41958102526E+02 -0.73710535184E+01 -0.68114791023E+02  0.12103461503E+03  0.90525899503E+02 0.  0.
        -13    1    4    4    0    0  0.37580219183E+00 -0.10700965892E+02 -0.76923995083E+02  0.77665720121E+02  0.10566000000E+00 0. -1.
         13    1    4    4    0    0 -0.42333904718E+02  0.33299123732E+01  0.88092040599E+01  0.43368894905E+02  0.10566000000E+00 0.  1.
    9000005    1    3    3    0    0 -0.35691242804E+02 -0.28477093766E+02 -0.70838793323E+02  0.84284899725E+02  0.10000000000E+01 0.  0.
    9000005    1    3    3    0    0  0.77649345330E+02  0.35848147285E+02 -0.17473161066E+03  0.19454214519E+03  0.10000000000E+01 0.  0.
<mgrwt>
<rscale>  0 0.12320548E+03</rscale>
<asrwt>0</asrwt>
<pdfrwt beam="2">  1        1 0.54888218E-01 0.13205945E+03</pdfrwt>
<pdfrwt beam="1">  1       -1 0.66289591E-02 0.13205945E+03</pdfrwt>
<totfact> 0.76649533E+03</totfact>
</mgrwt>
</event>
<event>
 8    3  0.1560846E-003  0.1372213E+03  0.7818608E-02  0.1229144E+00
          1   -1    0    0  501    0  0.00000000000E+00  0.00000000000E+00  0.57448257403E+02  0.57448257624E+02  0.50400000000E-02 0. -1.
         -1   -1    0    0    0  501 -0.00000000000E+00 -0.00000000000E+00 -0.25952056860E+03  0.25952056865E+03  0.50400000000E-02 0.  1.
         25    2    1    2    0    0  0.50250558042E+02  0.26071643572E+02 -0.10662121445E+03  0.17377508136E+03  0.12499938540E+03 0.  0.
         23    2    1    2    0    0 -0.50250558042E+02 -0.26071643572E+02 -0.95451096746E+02  0.14319374491E+03  0.90491367153E+02 0.  0.
        -13    1    4    4    0    0 -0.23789266849E+02 -0.38371699755E+02 -0.18896358807E+01  0.45187370438E+02  0.10566000000E+00 0. -1.
         13    1    4    4    0    0 -0.26461291193E+02  0.12300056183E+02 -0.93561460866E+02  0.98006374471E+02  0.10566000000E+00 0.  1.
    9000005    1    3    3    0    0  0.64596646215E+02 -0.28709847573E+02 -0.90592669971E+02  0.11491307107E+03  0.10000000000E+01 0.  0.
    9000005    1    3    3    0    0 -0.14346088173E+02  0.54781491145E+02 -0.16028544481E+02  0.58862010296E+02  0.10000000000E+01 0.  0.
<mgrwt>
<rscale>  0 0.12886903E+03</rscale>
<asrwt>0</asrwt>
<pdfrwt beam="1">  1        1 0.88381936E-02 0.13722134E+03</pdfrwt>
<pdfrwt beam="2">  1       -1 0.39926241E-01 0.13722134E+03</pdfrwt>
<totfact> 0.44968526E+03</totfact>
</mgrwt>
</event>
<event>
 8    3  0.1560846E-003  0.2015155E+03  0.7818608E-02  0.1152594E+00
          1   -1    0    0  501    0  0.00000000000E+00  0.00000000000E+00  0.43075572621E+02  0.43075572916E+02  0.50400000000E-02 0. -1.
         -1   -1    0    0    0  501 -0.00000000000E+00 -0.00000000000E+00 -0.87273105381E+03  0.87273105382E+03  0.50400000000E-02 0.  1.
         25    2    1    2    0    0  0.15680135403E+03 -0.19964522425E+02 -0.49607105810E+03  0.53543906038E+03  0.12499298348E+03 0.  0.
         23    2    1    2    0    0 -0.15680135403E+03  0.19964522425E+02 -0.33358442309E+03  0.38036756635E+03  0.91736968716E+02 0.  0.
        -13    1    4    4    0    0 -0.15778006163E+03  0.41199545062E+00 -0.31922422915E+03  0.35608824360E+03  0.10566000000E+00 0.  1.
         13    1    4    4    0    0  0.97870760143E+00  0.19552526974E+02 -0.14360193933E+02  0.24279322755E+02  0.10566000000E+00 0. -1.
    9000005    1    3    3    0    0  0.91382092000E+02  0.48903721706E+02 -0.30354868877E+03  0.32075702204E+03  0.10000000000E+01 0.  0.
    9000005    1    3    3    0    0  0.65419262026E+02 -0.68868244131E+02 -0.19252236933E+03  0.21468203834E+03  0.10000000000E+01 0.  0.
<mgrwt>
<rscale>  0 0.19665325E+03</rscale>
<asrwt>0</asrwt>
<pdfrwt beam="1">  1        1 0.66270118E-02 0.20151549E+03</pdfrwt>
<pdfrwt beam="2">  1       -1 0.13426630E+00 0.20151549E+03</pdfrwt>
<totfact> 0.56482484E+02</totfact>
</mgrwt>
</event>
<event>
 8    3  0.1560846E-003  0.1522830E+03  0.7818608E-02  0.1206184E+00
         -1   -1    0    0    0  501 -0.00000000000E+00  0.00000000000E+00  0.78963630812E+02  0.78963630973E+02  0.50400000000E-02 0.  1.
          1   -1    0    0  501    0  0.00000000000E+00 -0.00000000000E+00 -0.24860284896E+03  0.24860284901E+03  0.50400000000E-02 0. -1.
         25    2    1    2    0    0  0.44210505411E+02 -0.74903708659E+02 -0.77347236481E+02  0.17080016155E+03  0.12499986334E+03 0.  0.
         23    2    1    2    0    0 -0.44210505411E+02  0.74903708659E+02 -0.92291981668E+02  0.15676631844E+03  0.92156032664E+02 0.  0.
        -13    1    4    4    0    0 -0.63333768932E+02  0.50998872157E+02 -0.28772816466E+02  0.86255071618E+02  0.10566000000E+00 0.  1.
         13    1    4    4    0    0  0.19123263521E+02  0.23904836502E+02 -0.63519165202E+02  0.70511246819E+02  0.10566000000E+00 0. -1.
    9000005    1    3    3    0    0  0.21524509624E+02 -0.52351571089E+02 -0.11084879814E+03  0.12446866095E+03  0.10000000000E+01 0.  0.
    9000005    1    3    3    0    0  0.22685995787E+02 -0.22552137571E+02  0.33501561660E+02  0.46331500596E+02  0.10000000000E+01 0.  0.
<mgrwt>
<rscale>  0 0.14544523E+03</rscale>
<asrwt>0</asrwt>
<pdfrwt beam="2">  1        1 0.38246592E-01 0.15228296E+03</pdfrwt>
<pdfrwt beam="1">  1       -1 0.12148251E-01 0.15228296E+03</pdfrwt>
<totfact> 0.48212342E+03</totfact>
</mgrwt>
</event>
<event>
 8    3  0.1560846E-003  0.1256616E+03  0.7818608E-02  0.1253387E+00
         -1   -1    0    0    0  501 -0.00000000000E+00  0.00000000000E+00  0.30045339380E+02  0.30045339803E+02  0.50400000000E-02 0.  1.
          1   -1    0    0  501    0  0.00000000000E+00 -0.00000000000E+00 -0.37938629985E+03  0.37938629988E+03  0.50400000000E-02 0. -1.
         25    2    1    2    0    0 -0.49680255584E+01  0.11680280753E+02 -0.17480708479E+03  0.21528669590E+03  0.12501893578E+03 0.  0.
         23    2    1    2    0    0  0.49680255584E+01 -0.11680280753E+02 -0.17453387568E+03  0.19414494378E+03  0.84077792555E+02 0.  0.
        -13    1    4    4    0    0  0.30062403000E+02 -0.18092049810E+02 -0.26782375082E+02  0.44140425004E+02  0.10566000000E+00 0.  1.
         13    1    4    4    0    0 -0.25094377442E+02  0.64117690574E+01 -0.14775150060E+03  0.15000451878E+03  0.10566000000E+00 0. -1.
    9000005    1    3    3    0    0 -0.61390989720E+02  0.89202124261E+01 -0.55360563362E+02  0.83151763567E+02  0.10000000000E+01 0.  0.
    9000005    1    3    3    0    0  0.56422964161E+02  0.27600683268E+01 -0.11944652143E+03  0.13213493234E+03  0.10000000000E+01 0.  0.
<mgrwt>
<rscale>  0 0.11397135E+03</rscale>
<asrwt>0</asrwt>
<pdfrwt beam="2">  1        1 0.58367120E-01 0.12566163E+03</pdfrwt>
<pdfrwt beam="1">  1       -1 0.46223602E-02 0.12566163E+03</pdfrwt>
<totfact> 0.12071497E+04</totfact>
</mgrwt>
</event>
<event>
 8    3  0.1560846E-003  0.1317264E+03  0.7818608E-02  0.1239846E+00
          1   -1    0    0  501    0  0.00000000000E+00  0.00000000000E+00  0.12424556292E+03  0.12424556302E+03  0.50400000000E-02 0. -1.
         -1   -1    0    0    0  501 -0.00000000000E+00 -0.00000000000E+00 -0.11104958033E+03  0.11104958044E+03  0.50400000000E-02 0.  1.
         25    2    1    2    0    0 -0.18248510210E+02  0.37327857263E+02  0.34315095810E+02  0.13612258896E+03  0.12500182547E+03 0.  0.
         23    2    1    2    0    0  0.18248510210E+02 -0.37327857263E+02 -0.21119113222E+02  0.99172554504E+02  0.87537429542E+02 0.  0.
        -13    1    4    4    0    0  0.11275547486E+02 -0.50541251661E+02  0.19931748082E+02  0.55487312390E+02  0.10566000000E+00 0. -1.
         13    1    4    4    0    0  0.69729627242E+01  0.13213394398E+02 -0.41050861304E+02  0.43685242114E+02  0.10566000000E+00 0.  1.
    9000005    1    3    3    0    0 -0.15770960113E+02  0.37736397288E+02  0.80266665477E+02  0.90091600330E+02  0.10000000000E+01 0.  0.
    9000005    1    3    3    0    0 -0.24775500972E+01 -0.40854002506E+00 -0.45951569666E+02  0.46030988630E+02  0.10000000000E+01 0.  0.
<mgrwt>
<rscale>  0 0.12199245E+03</rscale>
<asrwt>0</asrwt>
<pdfrwt beam="1">  1        1 0.19114702E-01 0.13172636E+03</pdfrwt>
<pdfrwt beam="2">  1       -1 0.17084551E-01 0.13172636E+03</pdfrwt>
<totfact> 0.66844940E+03</totfact>
</mgrwt>
</event>
<event>
 8    3  0.1560846E-003  0.1565722E+03  0.7818608E-02  0.1201693E+00
         -1   -1    0    0    0  501 -0.00000000000E+00  0.00000000000E+00  0.19132203513E+02  0.19132204176E+02  0.50400000000E-02 0.  1.
          1   -1    0    0  501    0  0.00000000000E+00 -0.00000000000E+00 -0.11962982238E+04  0.11962982238E+04  0.50400000000E-02 0. -1.
         25    2    1    2    0    0 -0.50313457242E+02 -0.79740583289E+02 -0.43702438532E+03  0.46422534576E+03  0.12499941475E+03 0.  0.
         23    2    1    2    0    0  0.50313457242E+02  0.79740583289E+02 -0.74014163500E+03  0.75120508225E+03  0.87232053376E+02 0.  0.
        -13    1    4    4    0    0  0.66730020761E+01  0.68126821356E+02 -0.60176590974E+03  0.60564677332E+03  0.10566000000E+00 0. -1.
         13    1    4    4    0    0  0.43640455166E+02  0.11613761933E+02 -0.13837572526E+03  0.14555830893E+03  0.10566000000E+00 0.  1.
    9000005    1    3    3    0    0 -0.76223035443E+02 -0.86634276033E+02 -0.41082960813E+03  0.42672873800E+03  0.10000000000E+01 0.  0.
    9000005    1    3    3    0    0  0.25909578201E+02  0.68936927444E+01 -0.26194777183E+02  0.37496607765E+02  0.10000000000E+01 0.  0.
<mgrwt>
<rscale>  0 0.14901146E+03</rscale>
<asrwt>0</asrwt>
<pdfrwt beam="2">  1        1 0.18404582E+00 0.15657221E+03</pdfrwt>
<pdfrwt beam="1">  1       -1 0.29434169E-02 0.15657221E+03</pdfrwt>
<totfact> 0.44066089E+03</totfact>
</mgrwt>
</event>
<event>
 8    3  0.1560846E-003  0.1283323E+03  0.7818608E-02  0.1246336E+00
         -1   -1    0    0    0  501 -0.00000000000E+00  0.00000000000E+00  0.43137801206E+01  0.43137830649E+01  0.50400000000E-02 0.  1.
          1   -1    0    0  501    0  0.00000000000E+00 -0.00000000000E+00 -0.28180877787E+04  0.28180877787E+04  0.50400000000E-02 0. -1.
         25    2    1    2    0    0  0.25993757581E+02 -0.12927406757E+02 -0.15700976458E+04  0.15753335496E+04  0.12500552809E+03 0.  0.
         23    2    1    2    0    0 -0.25993757581E+02  0.12927406757E+02 -0.12436763529E+04  0.12470680122E+04  0.87206439497E+02 0.  0.
        -13    1    4    4    0    0  0.13612413820E+02  0.10626232091E+02 -0.53239532161E+02  0.55970291827E+02  0.10566000000E+00 0.  1.
         13    1    4    4    0    0 -0.39606171400E+02  0.23011746659E+01 -0.11904368207E+04  0.11910977204E+04  0.10566000000E+00 0. -1.
    9000005    1    3    3    0    0  0.44167990356E+02 -0.24291807289E+02 -0.15199731020E+04  0.15208090393E+04  0.10000000000E+01 0.  0.
    9000005    1    3    3    0    0 -0.18174232775E+02  0.11364400532E+02 -0.50124543792E+02  0.54524510330E+02  0.10000000000E+01 0.  0.
<mgrwt>
<rscale>  0 0.11805778E+03</rscale>
<asrwt>0</asrwt>
<pdfrwt beam="2">  1        1 0.43355050E+00 0.12833228E+03</pdfrwt>
<pdfrwt beam="1">  1       -1 0.66366096E-03 0.12833228E+03</pdfrwt>
<totfact> 0.32919729E+03</totfact>
</mgrwt>
</event>
<event>
 8    3  0.1560846E-003  0.1374122E+03  0.7818608E-02  0.1228174E+00
         -1   -1    0    0    0  501 -0.00000000000E+00  0.00000000000E+00  0.41576381973E+02  0.41576382278E+02  0.50400000000E-02 0.  1.
          1   -1    0    0  501    0  0.00000000000E+00 -0.00000000000E+00 -0.36816940444E+03  0.36816940448E+03  0.50400000000E-02 0. -1.
         25    2    1    2    0    0 -0.56016958297E+02 -0.11013993643E+02 -0.15931771653E+03  0.21039067452E+03  0.12499157352E+03 0.  0.
         23    2    1    2    0    0  0.56016958297E+02  0.11013993643E+02 -0.16727530594E+03  0.19935511224E+03  0.92207511219E+02 0.  0.
        -13    1    4    4    0    0  0.55024488682E+02 -0.26857159301E+02 -0.60578791793E+02  0.86132470878E+02  0.10566000000E+00 0.  1.
         13    1    4    4    0    0  0.99246961549E+00  0.37871152944E+02 -0.10669651415E+03  0.11322264136E+03  0.10566000000E+00 0. -1.
    9000005    1    3    3    0    0 -0.48409986221E+02 -0.66718310490E+01 -0.18073622019E+03  0.18722879421E+03  0.10000000000E+01 0.  0.
    9000005    1    3    3    0    0 -0.76069720766E+01 -0.43421625941E+01  0.21418503659E+02  0.23161880302E+02  0.10000000000E+01 0.  0.
<mgrwt>
<rscale>  0 0.12951689E+03</rscale>
<asrwt>0</asrwt>
<pdfrwt beam="2">  1        1 0.56641445E-01 0.13741216E+03</pdfrwt>
<pdfrwt beam="1">  1       -1 0.63963667E-02 0.13741216E+03</pdfrwt>
<totfact> 0.77939508E+03</totfact>
</mgrwt>
</event>
<event>
 8    3  0.1560846E-003  0.1436854E+03  0.7818608E-02  0.1218635E+00
         -1   -1    0    0    0  501 -0.00000000000E+00  0.00000000000E+00  0.54704108289E+02  0.54704108522E+02  0.50400000000E-02 0.  1.
          1   -1    0    0  501    0  0.00000000000E+00 -0.00000000000E+00 -0.34752745606E+03  0.34752745610E+03  0.50400000000E-02 0. -1.
         25    2    1    2    0    0 -0.69683440758E+02  0.12860195221E+02 -0.22816091182E+03  0.26963472109E+03  0.12499725835E+03 0.  0.
         23    2    1    2    0    0  0.69683440758E+02 -0.12860195221E+02 -0.64662435947E+02  0.13259684353E+03  0.91539749586E+02 0.  0.
        -13    1    4    4    0    0 -0.21952542530E+02  0.32559794952E+01 -0.17625849928E+02  0.28340735271E+02  0.10566000000E+00 0.  1.
         13    1    4    4    0    0  0.91635983288E+02 -0.16116174717E+02 -0.47036586019E+02  0.10425610826E+03  0.10566000000E+00 0. -1.
    9000005    1    3    3    0    0  0.29299195608E+02 -0.71058790959E+00 -0.11498792787E+03  0.11866832498E+03  0.10000000000E+01 0.  0.
    9000005    1    3    3    0    0 -0.98982636366E+02  0.13570783131E+02 -0.11317298396E+03  0.15096639611E+03  0.10000000000E+01 0.  0.
<mgrwt>
<rscale>  0 0.13612888E+03</rscale>
<asrwt>0</asrwt>
<pdfrwt beam="2">  1        1 0.53465761E-01 0.14368535E+03</pdfrwt>
<pdfrwt beam="1">  1       -1 0.84160169E-02 0.14368535E+03</pdfrwt>
<totfact> 0.55598903E+03</totfact>
</mgrwt>
</event>
<event>
 8    3  0.1560846E-003  0.1716979E+03  0.7818608E-02  0.1182483E+00
         -1   -1    0    0    0  501 -0.00000000000E+00  0.00000000000E+00  0.20742247950E+02  0.20742248562E+02  0.50400000000E-02 0.  1.
          1   -1    0    0  501    0  0.00000000000E+00 -0.00000000000E+00 -0.12665072854E+04  0.12665072855E+04  0.50400000000E-02 0. -1.
         25    2    1    2    0    0 -0.11476750319E+03 -0.26133185806E+02 -0.76437312875E+03  0.78341972423E+03  0.12500264462E+03 0.  0.
         23    2    1    2    0    0  0.11476750319E+03  0.26133185806E+02 -0.48139190874E+03  0.50382980978E+03  0.90839332023E+02 0.  0.
        -13    1    4    4    0    0  0.63905989428E+02 -0.30933947836E+02 -0.19951846192E+03  0.21177467371E+03  0.10566000000E+00 0.  1.
         13    1    4    4    0    0  0.50861513760E+02  0.57067133642E+02 -0.28187344681E+03  0.29205513607E+03  0.10566000000E+00 0. -1.
    9000005    1    3    3    0    0 -0.78342758672E+02 -0.49082879669E+02 -0.23860101816E+03  0.25588701175E+03  0.10000000000E+01 0.  0.
    9000005    1    3    3    0    0 -0.36424744516E+02  0.22949693864E+02 -0.52577211059E+03  0.52753271248E+03  0.10000000000E+01 0.  0.
<mgrwt>
<rscale>  0 0.16562975E+03</rscale>
<asrwt>0</asrwt>
<pdfrwt beam="2">  1        1 0.19484721E+00 0.17169795E+03</pdfrwt>
<pdfrwt beam="1">  1       -1 0.31911161E-02 0.17169795E+03</pdfrwt>
<totfact> 0.35135700E+03</totfact>
</mgrwt>
</event>
<event>
 8    3  0.1560846E-003  0.1259837E+03  0.7818608E-02  0.1253373E+00
         -1   -1    0    0    0  501 -0.00000000000E+00  0.00000000000E+00  0.35219346146E+03  0.35219346150E+03  0.50400000000E-02 0.  1.
          1   -1    0    0  501    0  0.00000000000E+00 -0.00000000000E+00 -0.32351279127E+02  0.32351279520E+02  0.50400000000E-02 0. -1.
         25    2    1    2    0    0 -0.14162787567E+02  0.58565648977E+01  0.15861333889E+03  0.20255882871E+03  0.12504800642E+03 0.  0.
         23    2    1    2    0    0  0.14162787567E+02 -0.58565648977E+01  0.16122884344E+03  0.18198591231E+03  0.83001496478E+02 0.  0.
        -13    1    4    4    0    0  0.49105367314E+02 -0.55395617452E+01  0.97306157835E+02  0.10913534423E+03  0.10566000000E+00 0. -1.
         13    1    4    4    0    0 -0.34942579748E+02 -0.31700315251E+00  0.63922685607E+02  0.72850568081E+02  0.10566000000E+00 0.  1.
    9000005    1    3    3    0    0 -0.48121477540E+02  0.50401242130E+02  0.81303628856E+02  0.10708520847E+03  0.10000000000E+01 0.  0.
    9000005    1    3    3    0    0  0.33958689973E+02 -0.44544677233E+02  0.77309710037E+02  0.95473620233E+02  0.10000000000E+01 0.  0.
<mgrwt>
<rscale>  0 0.11397962E+03</rscale>
<asrwt>0</asrwt>
<pdfrwt beam="2">  1        1 0.49771196E-02 0.12598368E+03</pdfrwt>
<pdfrwt beam="1">  1       -1 0.54183613E-01 0.12598368E+03</pdfrwt>
<totfact> 0.56034942E+03</totfact>
</mgrwt>
</event>
<event>
 8    3  0.1560846E-003  0.1292418E+03  0.7818608E-02  0.1256175E+00
         -1   -1    0    0    0  501 -0.00000000000E+00  0.00000000000E+00  0.66264079057E+02  0.66264079249E+02  0.50400000000E-02 0.  1.
          1   -1    0    0  501    0  0.00000000000E+00 -0.00000000000E+00 -0.17757561222E+03  0.17757561229E+03  0.50400000000E-02 0. -1.
         25    2    1    2    0    0 -0.32691410189E+02 -0.15537817649E+01 -0.27632920075E+02  0.13216285574E+03  0.12502919510E+03 0.  0.
         23    2    1    2    0    0  0.32691410189E+02  0.15537817649E+01 -0.83678613084E+02  0.11167683580E+03  0.66320907925E+02 0.  0.
        -13    1    4    4    0    0  0.12332727447E+02  0.30164738208E+02 -0.62988786819E+02  0.70919715358E+02  0.10566000000E+00 0. -1.
         13    1    4    4    0    0  0.20358682742E+02 -0.28610956443E+02 -0.20689826265E+02  0.40757120439E+02  0.10566000000E+00 0.  1.
    9000005    1    3    3    0    0 -0.73653149055E+02 -0.25606425254E+02 -0.16304518145E+01  0.78000857388E+02  0.10000000000E+01 0.  0.
    9000005    1    3    3    0    0  0.40961738867E+02  0.24052643489E+02 -0.26002468260E+02  0.54161998352E+02  0.10000000000E+01 0.  0.
<mgrwt>
<rscale>  0 0.11240788E+03</rscale>
<asrwt>0</asrwt>
<pdfrwt beam="2">  1        1 0.27319325E-01 0.12924180E+03</pdfrwt>
<pdfrwt beam="1">  1       -1 0.10194474E-01 0.12924180E+03</pdfrwt>
<totfact> 0.94847765E+03</totfact>
</mgrwt>
</event>
<event>
 8    3  0.1560846E-003  0.1542070E+03  0.7818608E-02  0.1202125E+00
          1   -1    0    0  501    0  0.00000000000E+00  0.00000000000E+00  0.30387123711E+03  0.30387123715E+03  0.50400000000E-02 0. -1.
         -1   -1    0    0    0  501 -0.00000000000E+00 -0.00000000000E+00 -0.70708751560E+02  0.70708751739E+02  0.50400000000E-02 0.  1.
         25    2    1    2    0    0 -0.90298150458E+02 -0.16606025572E+01  0.87931505861E+02  0.17751546431E+03  0.12499310688E+03 0.  0.
         23    2    1    2    0    0  0.90298150458E+02  0.16606025572E+01  0.14523097969E+03  0.19706452458E+03  0.97907485979E+02 0.  0.
        -13    1    4    4    0    0  0.33487148567E+02  0.79946192315E+01  0.13458462890E+03  0.13891845290E+03  0.10566000000E+00 0. -1.
         13    1    4    4    0    0  0.56811001891E+02 -0.63340166743E+01  0.10646350789E+02  0.58146071684E+02  0.10566000000E+00 0.  1.
    9000005    1    3    3    0    0  0.11357579046E+02  0.33101195027E+02 -0.51200882441E+01  0.35382185032E+02  0.10000000000E+01 0.  0.
    9000005    1    3    3    0    0 -0.10165572950E+03 -0.34761797585E+02  0.93051594105E+02  0.14213327928E+03  0.10000000000E+01 0.  0.
<mgrwt>
<rscale>  0 0.14866356E+03</rscale>
<asrwt>0</asrwt>
<pdfrwt beam="1">  1        1 0.46749421E-01 0.15420697E+03</pdfrwt>
<pdfrwt beam="2">  1       -1 0.10878269E-01 0.15420697E+03</pdfrwt>
<totfact> 0.44594381E+03</totfact>
</mgrwt>
</event>
<event>
 8    3  0.1560846E-003  0.1378660E+03  0.7818608E-02  0.1227717E+00
          1   -1    0    0  501    0  0.00000000000E+00  0.00000000000E+00  0.29975239656E+03  0.29975239660E+03  0.50400000000E-02 0. -1.
         -1   -1    0    0    0  501 -0.00000000000E+00 -0.00000000000E+00 -0.55159501957E+02  0.55159502187E+02  0.50400000000E-02 0.  1.
         25    2    1    2    0    0 -0.55621934854E+02  0.17005706594E+02  0.18649029259E+03  0.23191738922E+03  0.12499620993E+03 0.  0.
         23    2    1    2    0    0  0.55621934854E+02 -0.17005706594E+02  0.58102602010E+02  0.12299450957E+03  0.91480835869E+02 0.  0.
        -13    1    4    4    0    0  0.44986246999E+02 -0.18770010796E+02  0.82779435956E+02  0.96065196120E+02  0.10566000000E+00 0. -1.
         13    1    4    4    0    0  0.10635687854E+02  0.17643042021E+01 -0.24676833946E+02  0.26929313454E+02  0.10566000000E+00 0.  1.
    9000005    1    3    3    0    0 -0.64570321191E+02 -0.35441758604E+02  0.61113224260E+02  0.95714527691E+02  0.10000000000E+01 0.  0.
    9000005    1    3    3    0    0  0.89483863372E+01  0.52447465199E+02  0.12537706833E+03  0.13620286152E+03  0.10000000000E+01 0.  0.
<mgrwt>
<rscale>  0 0.12982423E+03</rscale>
<asrwt>0</asrwt>
<pdfrwt beam="1">  1        1 0.46115754E-01 0.13786604E+03</pdfrwt>
<pdfrwt beam="2">  1       -1 0.84860772E-02 0.13786604E+03</pdfrwt>
<totfact> 0.65823429E+03</totfact>
</mgrwt>
</event>
<event>
 8    3  0.1560846E-003  0.1360403E+03  0.7818608E-02  0.1231094E+00
          1   -1    0    0  501    0  0.00000000000E+00  0.00000000000E+00  0.36212478676E+03  0.36212478680E+03  0.50400000000E-02 0. -1.
         -1   -1    0    0    0  501 -0.00000000000E+00 -0.00000000000E+00 -0.45812731320E+02  0.45812731597E+02  0.50400000000E-02 0.  1.
         25    2    1    2    0    0  0.89934394740E+01  0.52920333457E+02  0.24685427373E+03  0.28185811488E+03  0.12500208326E+03 0.  0.
         23    2    1    2    0    0 -0.89934394740E+01 -0.52920333457E+02  0.69457781711E+02  0.12607940351E+03  0.90499662447E+02 0.  0.
        -13    1    4    4    0    0 -0.41131954088E+02 -0.22411337106E+01  0.11779022553E+02  0.42844099521E+02  0.10566000000E+00 0.  1.
         13    1    4    4    0    0  0.32138514614E+02 -0.50679199746E+02  0.57678759158E+02  0.83235303991E+02  0.10566000000E+00 0. -1.
    9000005    1    3    3    0    0 -0.51334799899E+02  0.51962194204E+02  0.10719181539E+03  0.12971667817E+03  0.10000000000E+01 0.  0.
    9000005    1    3    3    0    0  0.60328239373E+02  0.95813925299E+00  0.13966245834E+03  0.15214143672E+03  0.10000000000E+01 0.  0.
<mgrwt>
<rscale>  0 0.12757840E+03</rscale>
<asrwt>0</asrwt>
<pdfrwt beam="1">  1        1 0.55711502E-01 0.13604030E+03</pdfrwt>
<pdfrwt beam="2">  1       -1 0.70481130E-02 0.13604030E+03</pdfrwt>
<totfact> 0.68769785E+03</totfact>
</mgrwt>
</event>
<event>
 8    3  0.1560846E-003  0.1307045E+03  0.7818608E-02  0.1241876E+00
         -1   -1    0    0    0  501 -0.00000000000E+00  0.00000000000E+00  0.85993802859E+01  0.85993817628E+01  0.50400000000E-02 0.  1.
          1   -1    0    0  501    0  0.00000000000E+00 -0.00000000000E+00 -0.15048542633E+04  0.15048542633E+04  0.50400000000E-02 0. -1.
         25    2    1    2    0    0 -0.14113172312E+02  0.35492971201E+02 -0.95321587491E+03  0.96213520898E+03  0.12499889417E+03 0.  0.
         23    2    1    2    0    0  0.14113172312E+02 -0.35492971201E+02 -0.54303900809E+03  0.55131843607E+03  0.87187848996E+02 0.  0.
        -13    1    4    4    0    0  0.40527328480E+02  0.10730844388E+02 -0.24548827993E+03  0.24904241029E+03  0.10566000000E+00 0. -1.
         13    1    4    4    0    0 -0.26414156168E+02 -0.46223815589E+02 -0.29755072815E+03  0.30227602578E+03  0.10566000000E+00 0.  1.
    9000005    1    3    3    0    0 -0.37492496023E+01 -0.11470452652E+02 -0.82661168210E+03  0.82670036963E+03  0.10000000000E+01 0.  0.
    9000005    1    3    3    0    0 -0.10363922710E+02  0.46963423853E+02 -0.12660419281E+03  0.13543483936E+03  0.10000000000E+01 0.  0.
<mgrwt>
<rscale>  0 0.12074322E+03</rscale>
<asrwt>0</asrwt>
<pdfrwt beam="2">  1        1 0.23151583E+00 0.13070446E+03</pdfrwt>
<pdfrwt beam="1">  1       -1 0.13229829E-02 0.13070446E+03</pdfrwt>
<totfact> 0.86647598E+03</totfact>
</mgrwt>
</event>
<event>
 8    3  0.1560846E-003  0.1614269E+03  0.7818608E-02  0.1194628E+00
          1   -1    0    0  501    0  0.00000000000E+00  0.00000000000E+00  0.42459960302E+03  0.42459960305E+03  0.50400000000E-02 0. -1.
         -1   -1    0    0    0  501 -0.00000000000E+00 -0.00000000000E+00 -0.52505254883E+02  0.52505255125E+02  0.50400000000E-02 0.  1.
         25    2    1    2    0    0  0.49709885256E+02 -0.89234557363E+02  0.18790222697E+03  0.24772136996E+03  0.12499900526E+03 0.  0.
         23    2    1    2    0    0 -0.49709885256E+02  0.89234557363E+02  0.18419212118E+03  0.22938348822E+03  0.90863459345E+02 0.  0.
        -13    1    4    4    0    0 -0.36714534168E+02  0.47518704429E+02  0.26299020470E+02  0.65556341657E+02  0.10566000000E+00 0.  1.
         13    1    4    4    0    0 -0.12995351088E+02  0.41715852935E+02  0.15789310071E+03  0.16382714656E+03  0.10566000000E+00 0. -1.
    9000005    1    3    3    0    0  0.28416893257E+02 -0.54428031156E+02  0.64618854872E+01  0.61746954273E+02  0.10000000000E+01 0.  0.
    9000005    1    3    3    0    0  0.21292991999E+02 -0.34806526207E+02  0.18144034148E+03  0.18597441569E+03  0.10000000000E+01 0.  0.
<mgrwt>
<rscale>  0 0.15485782E+03</rscale>
<asrwt>0</asrwt>
<pdfrwt beam="1">  1        1 0.65323017E-01 0.16142686E+03</pdfrwt>
<pdfrwt beam="2">  1       -1 0.80777314E-02 0.16142686E+03</pdfrwt>
<totfact> 0.46239899E+03</totfact>
</mgrwt>
</event>
<event>
 8    3  0.1560846E-003  0.1444201E+03  0.7818608E-02  0.1217503E+00
         -1   -1    0    0    0  501 -0.00000000000E+00  0.00000000000E+00  0.18875982954E+03  0.18875982960E+03  0.50400000000E-02 0.  1.
          1   -1    0    0  501    0  0.00000000000E+00 -0.00000000000E+00 -0.92542641222E+02  0.92542641359E+02  0.50400000000E-02 0. -1.
         25    2    1    2    0    0  0.44792899432E+02 -0.56790362659E+02  0.31511939597E+02  0.14781800015E+03  0.12500243878E+03 0.  0.
         23    2    1    2    0    0 -0.44792899432E+02  0.56790362659E+02  0.64705248719E+02  0.13348447081E+03  0.91650344276E+02 0.  0.
        -13    1    4    4    0    0 -0.72061507523E+02  0.28672765358E+02  0.44372040305E+02  0.89352545933E+02  0.10566000000E+00 0. -1.
         13    1    4    4    0    0  0.27268608091E+02  0.28117597301E+02  0.20333208414E+02  0.44131924880E+02  0.10566000000E+00 0.  1.
    9000005    1    3    3    0    0  0.53050199869E+02 -0.61367529712E+02  0.70630558638E+02  0.10756381000E+03  0.10000000000E+01 0.  0.
    9000005    1    3    3    0    0 -0.82573004366E+01  0.45771670536E+01 -0.39118619041E+02  0.40254190147E+02  0.10000000000E+01 0.  0.
<mgrwt>
<rscale>  0 0.13694241E+03</rscale>
<asrwt>0</asrwt>
<pdfrwt beam="2">  1        1 0.14237329E-01 0.14442008E+03</pdfrwt>
<pdfrwt beam="1">  1       -1 0.29039974E-01 0.14442008E+03</pdfrwt>
<totfact> 0.41487502E+03</totfact>
</mgrwt>
</event>
<event>
 8    3  0.1560846E-003  0.1422972E+03  0.7818608E-02  0.1222477E+00
          1   -1    0    0  501    0  0.00000000000E+00  0.00000000000E+00  0.45007817950E+02  0.45007818232E+02  0.50400000000E-02 0. -1.
         -1   -1    0    0    0  501 -0.00000000000E+00 -0.00000000000E+00 -0.36176808910E+03  0.36176808913E+03  0.50400000000E-02 0.  1.
         25    2    1    2    0    0  0.58600412092E+02  0.34482884311E+02 -0.20883136498E+03  0.25270347254E+03  0.12500171370E+03 0.  0.
         23    2    1    2    0    0 -0.58600412092E+02 -0.34482884311E+02 -0.10792890617E+03  0.15407243483E+03  0.86409425281E+02 0.  0.
        -13    1    4    4    0    0 -0.25650242526E+02  0.16459484962E+02 -0.25033855336E+00  0.30478245033E+02  0.10566000000E+00 0. -1.
         13    1    4    4    0    0 -0.32950169566E+02 -0.50942369273E+02 -0.10767856762E+03  0.12359418979E+03  0.10566000000E+00 0.  1.
    9000005    1    3    3    0    0  0.66875630191E+02 -0.20522483940E+02 -0.17278972252E+03  0.18641569266E+03  0.10000000000E+01 0.  0.
    9000005    1    3    3    0    0 -0.82752180988E+01  0.55005368251E+02 -0.36041642457E+02  0.66287779884E+02  0.10000000000E+01 0.  0.
<mgrwt>
<rscale>  0 0.13341331E+03</rscale>
<asrwt>0</asrwt>
<pdfrwt beam="1">  1        1 0.69242800E-02 0.14229725E+03</pdfrwt>
<pdfrwt beam="2">  1       -1 0.55656627E-01 0.14229725E+03</pdfrwt>
<totfact> 0.34314287E+03</totfact>
</mgrwt>
</event>
<event>
 8    3  0.1560846E-003  0.2001876E+03  0.7818608E-02  0.1153904E+00
         -1   -1    0    0    0  501 -0.00000000000E+00  0.00000000000E+00  0.14546148975E+04  0.14546148975E+04  0.50400000000E-02 0.  1.
          1   -1    0    0  501    0  0.00000000000E+00 -0.00000000000E+00 -0.24971472045E+02  0.24971472554E+02  0.50400000000E-02 0. -1.
         25    2    1    2    0    0 -0.13397103858E+03 -0.80625552349E+02  0.72533186813E+03  0.75245026769E+03  0.12500547010E+03 0.  0.
         23    2    1    2    0    0  0.13397103858E+03  0.80625552349E+02  0.70431155734E+03  0.72713610238E+03  0.90683089494E+02 0.  0.
        -13    1    4    4    0    0  0.61129538207E+02  0.87689229022E+02  0.44848383812E+03  0.46104661971E+03  0.10566000000E+00 0. -1.
         13    1    4    4    0    0  0.72841500376E+02 -0.70636766726E+01  0.25582771921E+03  0.26608948267E+03  0.10566000000E+00 0.  1.
    9000005    1    3    3    0    0 -0.12447077157E+03 -0.79682636803E+02  0.39130761369E+03  0.41828811137E+03  0.10000000000E+01 0.  0.
    9000005    1    3    3    0    0 -0.95002670163E+01 -0.94291554640E+00  0.33402425444E+03  0.33416215632E+03  0.10000000000E+01 0.  0.
<mgrwt>
<rscale>  0 0.19514172E+03</rscale>
<asrwt>0</asrwt>
<pdfrwt beam="2">  1        1 0.38417659E-02 0.20018763E+03</pdfrwt>
<pdfrwt beam="1">  1       -1 0.22378685E+00 0.20018763E+03</pdfrwt>
<totfact> 0.28110528E+02</totfact>
</mgrwt>
</event>
<event>
 8    3  0.1560846E-003  0.1308951E+03  0.7818608E-02  0.1239800E+00
         -1   -1    0    0    0  501 -0.00000000000E+00  0.00000000000E+00  0.17291933818E+02  0.17291934553E+02  0.50400000000E-02 0.  1.
          1   -1    0    0  501    0  0.00000000000E+00 -0.00000000000E+00 -0.80255930687E+03  0.80255930689E+03  0.50400000000E-02 0. -1.
         25    2    1    2    0    0  0.84336215167E+00  0.38827726608E+02 -0.53476114138E+03  0.55054790697E+03  0.12500086372E+03 0.  0.
         23    2    1    2    0    0 -0.84336215167E+00 -0.38827726608E+02 -0.25050623167E+03  0.26930333447E+03  0.90898901172E+02 0.  0.
        -13    1    4    4    0    0  0.24556365822E+02 -0.22842258009E+02 -0.23119649614E+03  0.23361638394E+03  0.10566000000E+00 0. -1.
         13    1    4    4    0    0 -0.25399727974E+02 -0.15985468598E+02 -0.19309735532E+02  0.35686950525E+02  0.10566000000E+00 0.  1.
    9000005    1    3    3    0    0 -0.33225589258E+02 -0.33704242118E+02 -0.26260473610E+03  0.26683733461E+03  0.10000000000E+01 0.  0.
    9000005    1    3    3    0    0  0.34068951410E+02  0.72531968726E+02 -0.27215640528E+03  0.28371057237E+03  0.10000000000E+01 0.  0.
<mgrwt>
<rscale>  0 0.12202094E+03</rscale>
<asrwt>0</asrwt>
<pdfrwt beam="2">  1        1 0.12347063E+00 0.13089507E+03</pdfrwt>
<pdfrwt beam="1">  1       -1 0.26602982E-02 0.13089507E+03</pdfrwt>
<totfact> 0.99007557E+03</totfact>
</mgrwt>
</event>
<event>
 8    3  0.1560846E-003  0.1903055E+03  0.7818608E-02  0.1163207E+00
         -1   -1    0    0    0  501 -0.00000000000E+00  0.00000000000E+00  0.21018063092E+03  0.21018063098E+03  0.50400000000E-02 0.  1.
          1   -1    0    0  501    0  0.00000000000E+00 -0.00000000000E+00 -0.24848157996E+03  0.24848158001E+03  0.50400000000E-02 0. -1.
         25    2    1    2    0    0  0.93349314582E+02  0.10897876826E+03  0.12153719169E+03  0.22580404769E+03  0.12500285007E+03 0.  0.
         23    2    1    2    0    0 -0.93349314582E+02 -0.10897876826E+03 -0.15983814073E+03  0.23285816331E+03  0.89912326865E+02 0.  0.
        -13    1    4    4    0    0 -0.44477118056E+02 -0.98855968207E+02 -0.66945135294E+02  0.12740635300E+03  0.10566000000E+00 0.  1.
         13    1    4    4    0    0 -0.48872196526E+02 -0.10122800050E+02 -0.92893005437E+02  0.10545181031E+03  0.10566000000E+00 0. -1.
    9000005    1    3    3    0    0  0.85180304073E+02  0.13215913708E+03  0.12512568139E+03  0.20094565897E+03  0.10000000000E+01 0.  0.
    9000005    1    3    3    0    0  0.81690105094E+01 -0.23180368826E+02 -0.35884896926E+01  0.24858388723E+02  0.10000000000E+01 0.  0.
<mgrwt>
<rscale>  0 0.18483143E+03</rscale>
<asrwt>0</asrwt>
<pdfrwt beam="2">  1        1 0.38227935E-01 0.19030549E+03</pdfrwt>
<pdfrwt beam="1">  1       -1 0.32335482E-01 0.19030549E+03</pdfrwt>
<totfact> 0.99660946E+02</totfact>
</mgrwt>
</event>
<event>
 8    3  0.1560846E-003  0.1590758E+03  0.7818608E-02  0.1197123E+00
          1   -1    0    0  501    0  0.00000000000E+00  0.00000000000E+00  0.81820599079E+03  0.81820599081E+03  0.50400000000E-02 0. -1.
         -1   -1    0    0    0  501 -0.00000000000E+00 -0.00000000000E+00 -0.28201604196E+02  0.28201604647E+02  0.50400000000E-02 0.  1.
         25    2    1    2    0    0  0.47785689102E+02  0.85989536269E+02  0.52942437417E+03  0.55280672396E+03  0.12500973426E+03 0.  0.
         23    2    1    2    0    0 -0.47785689102E+02 -0.85989536269E+02  0.26058001243E+03  0.29360087150E+03  0.92853952181E+02 0.  0.
        -13    1    4    4    0    0 -0.31392474871E+02 -0.58485718965E+02  0.25179684871E+03  0.26039917624E+03  0.10566000000E+00 0. -1.
         13    1    4    4    0    0 -0.16393214230E+02 -0.27503817304E+02  0.87831637197E+01  0.33201695259E+02  0.10566000000E+00 0.  1.
    9000005    1    3    3    0    0 -0.61544742181E+01 -0.28490733786E+02  0.61416527956E+02  0.67989626935E+02  0.10000000000E+01 0.  0.
    9000005    1    3    3    0    0  0.53940163320E+02  0.11448027005E+03  0.46800784621E+03  0.48481709702E+03  0.10000000000E+01 0.  0.
<mgrwt>
<rscale>  0 0.15275944E+03</rscale>
<asrwt>0</asrwt>
<pdfrwt beam="1">  1        1 0.12587784E+00 0.15907579E+03</pdfrwt>
<pdfrwt beam="2">  1       -1 0.43387084E-02 0.15907579E+03</pdfrwt>
<totfact> 0.47459657E+03</totfact>
</mgrwt>
</event>
<event>
 8    3  0.1560846E-003  0.1628577E+03  0.7818608E-02  0.1192933E+00
         -1   -1    0    0    0  501 -0.00000000000E+00  0.00000000000E+00  0.19835341167E+02  0.19835341808E+02  0.50400000000E-02 0.  1.
          1   -1    0    0  501    0  0.00000000000E+00 -0.00000000000E+00 -0.13514850213E+04  0.13514850213E+04  0.50400000000E-02 0. -1.
         25    2    1    2    0    0  0.70305445943E+02 -0.77201554430E+02 -0.44291787770E+03  0.47190980671E+03  0.12497873237E+03 0.  0.
         23    2    1    2    0    0 -0.70305445943E+02  0.77201554430E+02 -0.88873180238E+03  0.89941055636E+03  0.90510753999E+02 0.  0.
        -13    1    4    4    0    0 -0.18916990599E+01  0.52338273970E+02 -0.19641346690E+03  0.20327600595E+03  0.10566000000E+00 0.  1.
         13    1    4    4    0    0 -0.68413746883E+02  0.24863280460E+02 -0.69231833548E+03  0.69613455041E+03  0.10566000000E+00 0. -1.
    9000005    1    3    3    0    0  0.52093734572E+02 -0.84006064710E+01 -0.35447754989E+03  0.35838479425E+03  0.10000000000E+01 0.  0.
    9000005    1    3    3    0    0  0.18211711372E+02 -0.68800947959E+02 -0.88440327811E+02  0.11352501246E+03  0.10000000000E+01 0.  0.
<mgrwt>
<rscale>  0 0.15630450E+03</rscale>
<asrwt>0</asrwt>
<pdfrwt beam="2">  1        1 0.20792070E+00 0.16285767E+03</pdfrwt>
<pdfrwt beam="1">  1       -1 0.30515921E-02 0.16285767E+03</pdfrwt>
<totfact> 0.32854914E+03</totfact>
</mgrwt>
</event>
<event>
 8    3  0.1560846E-003  0.1717460E+03  0.7818608E-02  0.1182522E+00
          1   -1    0    0  501    0  0.00000000000E+00  0.00000000000E+00  0.35347631455E+03  0.35347631459E+03  0.50400000000E-02 0. -1.
         -1   -1    0    0    0  501 -0.00000000000E+00 -0.00000000000E+00 -0.15691844922E+03  0.15691844930E+03  0.50400000000E-02 0.  1.
         25    2    1    2    0    0 -0.91853981497E+02 -0.73716728906E+02 -0.85361286276E+02  0.19178952622E+03  0.12500145253E+03 0.  0.
         23    2    1    2    0    0  0.91853981497E+02  0.73716728906E+02  0.28191915161E+03  0.31860523767E+03  0.90330390167E+02 0.  0.
        -13    1    4    4    0    0  0.72882250117E+02  0.23050535156E+01  0.11657385256E+03  0.13750130879E+03  0.10566000000E+00 0. -1.
         13    1    4    4    0    0  0.18971731380E+02  0.71411675390E+02  0.16534529905E+03  0.18110392888E+03  0.10566000000E+00 0.  1.
    9000005    1    3    3    0    0  0.31235406874E+00 -0.31229515933E+02 -0.84715644102E+02  0.90294632101E+02  0.10000000000E+01 0.  0.
    9000005    1    3    3    0    0 -0.92166335566E+02 -0.42487212972E+02 -0.64564217326E+00  0.10149489412E+03  0.10000000000E+01 0.  0.
<mgrwt>
<rscale>  0 0.16559373E+03</rscale>
<asrwt>0</asrwt>
<pdfrwt beam="1">  1        1 0.54380971E-01 0.17174596E+03</pdfrwt>
<pdfrwt beam="2">  1       -1 0.24141300E-01 0.17174596E+03</pdfrwt>
<totfact> 0.10457598E+03</totfact>
</mgrwt>
</event>
<event>
 8    3  0.1560846E-003  0.1296630E+03  0.7818608E-02  0.1240709E+00
         -1   -1    0    0    0  501 -0.00000000000E+00  0.00000000000E+00  0.26912106086E+02  0.26912106558E+02  0.50400000000E-02 0.  1.
          1   -1    0    0  501    0  0.00000000000E+00 -0.00000000000E+00 -0.53099502506E+03  0.53099502508E+03  0.50400000000E-02 0. -1.
         25    2    1    2    0    0  0.56266284105E+01 -0.33995752325E+02 -0.35982210482E+03  0.38247149176E+03  0.12500049909E+03 0.  0.
         23    2    1    2    0    0 -0.56266284105E+01  0.33995752325E+02 -0.14426081416E+03  0.17543563988E+03  0.93696910918E+02 0.  0.
        -13    1    4    4    0    0 -0.38224785951E+02  0.17658907384E+01 -0.11463863363E+03  0.12085644425E+03  0.10566000000E+00 0. -1.
         13    1    4    4    0    0  0.32598157540E+02  0.32229861586E+02 -0.29622180526E+02  0.54579195634E+02  0.10566000000E+00 0.  1.
    9000005    1    3    3    0    0 -0.27518056783E+02  0.80859494692E+01 -0.12948615570E+02  0.31484800668E+02  0.10000000000E+01 0.  0.
    9000005    1    3    3    0    0  0.33144685193E+02 -0.42081701794E+02 -0.34687348925E+03  0.35098669109E+03  0.10000000000E+01 0.  0.
<mgrwt>
<rscale>  0 0.12145903E+03</rscale>
<asrwt>0</asrwt>
<pdfrwt beam="2">  1        1 0.81691534E-01 0.12966301E+03</pdfrwt>
<pdfrwt beam="1">  1       -1 0.41403244E-02 0.12966301E+03</pdfrwt>
<totfact> 0.92530359E+03</totfact>
</mgrwt>
</event>
<event>
 8    3  0.1560846E-003  0.1585893E+03  0.7818608E-02  0.1197984E+00
         -1   -1    0    0    0  501 -0.00000000000E+00  0.00000000000E+00  0.20868375529E+02  0.20868376137E+02  0.50400000000E-02 0.  1.
          1   -1    0    0  501    0  0.00000000000E+00 -0.00000000000E+00 -0.11666441325E+04  0.11666441325E+04  0.50400000000E-02 0. -1.
         25    2    1    2    0    0 -0.91709760108E+02  0.33397934925E+02 -0.40933368952E+03  0.43898135038E+03  0.12499781776E+03 0.  0.
         23    2    1    2    0    0  0.91709760108E+02 -0.33397934925E+02 -0.73644206743E+03  0.74853115825E+03  0.91792559821E+02 0.  0.
        -13    1    4    4    0    0  0.91644850025E+02 -0.18414630072E+02 -0.36475830314E+03  0.37654549262E+03  0.10566000000E+00 0.  1.
         13    1    4    4    0    0  0.64910083115E-01 -0.14983304852E+02 -0.37168376429E+03  0.37198566563E+03  0.10566000000E+00 0. -1.
    9000005    1    3    3    0    0 -0.22024329799E+02 -0.26712744093E+02 -0.26861139024E+03  0.27083522808E+03  0.10000000000E+01 0.  0.
    9000005    1    3    3    0    0 -0.69685430309E+02  0.60110679018E+02 -0.14072229928E+03  0.16814612230E+03  0.10000000000E+01 0.  0.
<mgrwt>
<rscale>  0 0.15204403E+03</rscale>
<asrwt>0</asrwt>
<pdfrwt beam="2">  1        1 0.17948366E+00 0.15858927E+03</pdfrwt>
<pdfrwt beam="1">  1       -1 0.32105203E-02 0.15858927E+03</pdfrwt>
<totfact> 0.40698979E+03</totfact>
</mgrwt>
</event>
<event>
 8    3  0.1560846E-003  0.1384099E+03  0.7818608E-02  0.1226927E+00
         -1   -1    0    0    0  501 -0.00000000000E+00  0.00000000000E+00  0.68392518880E+02  0.68392519066E+02  0.50400000000E-02 0.  1.
          1   -1    0    0  501    0  0.00000000000E+00 -0.00000000000E+00 -0.28760082503E+03  0.28760082507E+03  0.50400000000E-02 0. -1.
         25    2    1    2    0    0  0.37906398442E+02  0.45782414974E+02 -0.20328735230E+03  0.24593301186E+03  0.12499749660E+03 0.  0.
         23    2    1    2    0    0 -0.37906398442E+02 -0.45782414974E+02 -0.15920953850E+02  0.11006033227E+03  0.91251714532E+02 0.  0.
        -13    1    4    4    0    0 -0.38577093703E+02 -0.43887437714E+02 -0.49403046257E+02  0.76517785457E+02  0.10566000000E+00 0. -1.
         13    1    4    4    0    0  0.67069526034E+00 -0.18949772597E+01  0.33482092407E+02  0.33542546817E+02  0.10566000000E+00 0.  1.
    9000005    1    3    3    0    0  0.62372109783E+02  0.66360803181E+02 -0.19112013545E+03  0.21171193271E+03  0.10000000000E+01 0.  0.
    9000005    1    3    3    0    0 -0.24465711341E+02 -0.20578388206E+02 -0.12167216847E+02  0.34221079153E+02  0.10000000000E+01 0.  0.
<mgrwt>
<rscale>  0 0.13035720E+03</rscale>
<asrwt>0</asrwt>
<pdfrwt beam="2">  1        1 0.44246280E-01 0.13840989E+03</pdfrwt>
<pdfrwt beam="1">  1       -1 0.10521926E-01 0.13840989E+03</pdfrwt>
<totfact> 0.49953843E+03</totfact>
</mgrwt>
</event>
<event>
 8    3  0.1560846E-003  0.1269586E+03  0.7818608E-02  0.1245981E+00
         -1   -1    0    0    0  501 -0.00000000000E+00  0.00000000000E+00  0.12341955252E+03  0.12341955262E+03  0.50400000000E-02 0.  1.
          1   -1    0    0  501    0  0.00000000000E+00 -0.00000000000E+00 -0.13101108207E+03  0.13101108217E+03  0.50400000000E-02 0. -1.
         25    2    1    2    0    0  0.73074603901E+01  0.20985486787E+02 -0.65289214612E+02  0.14276261621E+03  0.12499877363E+03 0.  0.
         23    2    1    2    0    0 -0.73074603901E+01 -0.20985486787E+02  0.57697685059E+02  0.11166801857E+03  0.92988891153E+02 0.  0.
        -13    1    4    4    0    0  0.33612974448E+02  0.16204400094E+02  0.99718929879E+01  0.38624661131E+02  0.10566000000E+00 0. -1.
         13    1    4    4    0    0 -0.40920434838E+02 -0.37189886881E+02  0.47725792072E+02  0.73043357443E+02  0.10566000000E+00 0.  1.
    9000005    1    3    3    0    0  0.58300405318E+02 -0.58440252614E+00 -0.65084668335E+02  0.87385884666E+02  0.10000000000E+01 0.  0.
    9000005    1    3    3    0    0 -0.50992944928E+02  0.21569889314E+02 -0.20454627710E+00  0.55376731545E+02  0.10000000000E+01 0.  0.
<mgrwt>
<rscale>  0 0.11826851E+03</rscale>
<asrwt>0</asrwt>
<pdfrwt beam="2">  1        1 0.20155551E-01 0.12695859E+03</pdfrwt>
<pdfrwt beam="1">  1       -1 0.18987623E-01 0.12695859E+03</pdfrwt>
<totfact> 0.52703783E+03</totfact>
</mgrwt>
</event>
<event>
 8    3  0.1560846E-003  0.1549091E+03  0.7818608E-02  0.1202068E+00
          1   -1    0    0  501    0  0.00000000000E+00  0.00000000000E+00  0.51581445002E+02  0.51581445248E+02  0.50400000000E-02 0. -1.
         -1   -1    0    0    0  501 -0.00000000000E+00 -0.00000000000E+00 -0.40251838444E+03  0.40251838447E+03  0.50400000000E-02 0.  1.
         25    2    1    2    0    0 -0.15907961961E+02 -0.90109176606E+02 -0.16494513094E+03  0.22628237579E+03  0.12499636158E+03 0.  0.
         23    2    1    2    0    0  0.15907961961E+02  0.90109176606E+02 -0.18599180849E+03  0.22781745393E+03  0.94525724143E+02 0.  0.
        -13    1    4    4    0    0  0.22478773094E+02 -0.89637215658E+01 -0.75422618161E+02  0.79210012236E+02  0.10566000000E+00 0.  1.
         13    1    4    4    0    0 -0.65708111335E+01  0.99072898172E+02 -0.11056919033E+03  0.14860744169E+03  0.10566000000E+00 0. -1.
    9000005    1    3    3    0    0 -0.26918232308E+02 -0.11930076083E+03 -0.11830013067E+03  0.17015635069E+03  0.10000000000E+01 0.  0.
    9000005    1    3    3    0    0  0.11010270347E+02  0.29191584223E+02 -0.46645000274E+02  0.56126025097E+02  0.10000000000E+01 0.  0.
<mgrwt>
<rscale>  0 0.14870925E+03</rscale>
<asrwt>0</asrwt>
<pdfrwt beam="1">  1        1 0.79356072E-02 0.15490906E+03</pdfrwt>
<pdfrwt beam="2">  1       -1 0.61925903E-01 0.15490906E+03</pdfrwt>
<totfact> 0.23424832E+03</totfact>
</mgrwt>
</event>
<event>
 8    3  0.1560846E-003  0.1528996E+03  0.7818608E-02  0.1209440E+00
          1   -1    0    0  501    0  0.00000000000E+00  0.00000000000E+00  0.15011718058E+03  0.15011718067E+03  0.50400000000E-02 0. -1.
         -1   -1    0    0    0  501 -0.00000000000E+00 -0.00000000000E+00 -0.16387041915E+03  0.16387041922E+03  0.50400000000E-02 0.  1.
         25    2    1    2    0    0 -0.31503438658E+02 -0.82225799348E+02 -0.87234068273E+02  0.17603432776E+03  0.12499901263E+03 0.  0.
         23    2    1    2    0    0  0.31503438658E+02  0.82225799348E+02  0.73480829712E+02  0.13795327213E+03  0.76668926107E+02 0.  0.
        -13    1    4    4    0    0  0.48504002882E+02  0.24136343104E+02  0.47630727018E+02  0.72138052887E+02  0.10566000000E+00 0.  1.
         13    1    4    4    0    0 -0.17000564224E+02  0.58089456244E+02  0.25850102694E+02  0.65815219243E+02  0.10566000000E+00 0. -1.
    9000005    1    3    3    0    0  0.88875990245E+01 -0.56964100872E+02 -0.10925784480E+03  0.12354017506E+03  0.10000000000E+01 0.  0.
    9000005    1    3    3    0    0 -0.40391037683E+02 -0.25261698476E+02  0.22023776527E+02  0.52494152698E+02  0.10000000000E+01 0.  0.
<mgrwt>
<rscale>  0 0.14293004E+03</rscale>
<asrwt>0</asrwt>
<pdfrwt beam="1">  1        1 0.23094951E-01 0.15289965E+03</pdfrwt>
<pdfrwt beam="2">  1       -1 0.25210834E-01 0.15289965E+03</pdfrwt>
<totfact> 0.28302200E+03</totfact>
</mgrwt>
</event>
<event>
 8    3  0.1560846E-003  0.1844770E+03  0.7818608E-02  0.1168926E+00
         -1   -1    0    0    0  501 -0.00000000000E+00  0.00000000000E+00  0.45154186090E+02  0.45154186371E+02  0.50400000000E-02 0.  1.
          1   -1    0    0  501    0  0.00000000000E+00 -0.00000000000E+00 -0.66926152121E+03  0.66926152123E+03  0.50400000000E-02 0. -1.
         25    2    1    2    0    0  0.13183592970E+03  0.32051918528E+02 -0.34471242737E+03  0.39097110721E+03  0.12499484487E+03 0.  0.
         23    2    1    2    0    0 -0.13183592970E+03 -0.32051918528E+02 -0.27939490775E+03  0.32344460040E+03  0.90259942421E+02 0.  0.
        -13    1    4    4    0    0 -0.92267683715E+02 -0.63640091397E+02 -0.18418748762E+03  0.21561175397E+03  0.10566000000E+00 0.  1.
         13    1    4    4    0    0 -0.39568245988E+02  0.31588172869E+02 -0.95207420133E+02  0.10783284643E+03  0.10566000000E+00 0. -1.
    9000005    1    3    3    0    0  0.46182444509E+02  0.67347188994E+02 -0.22654269516E+03  0.24081331935E+03  0.10000000000E+01 0.  0.
    9000005    1    3    3    0    0  0.85653485195E+02 -0.35295270466E+02 -0.11816973221E+03  0.15015778786E+03  0.10000000000E+01 0.  0.
<mgrwt>
<rscale>  0 0.17884412E+03</rscale>
<asrwt>0</asrwt>
<pdfrwt beam="2">  1        1 0.10296330E+00 0.18447696E+03</pdfrwt>
<pdfrwt beam="1">  1       -1 0.69467984E-02 0.18447696E+03</pdfrwt>
<totfact> 0.31757128E+03</totfact>
</mgrwt>
</event>
<event>
 8    3  0.1560846E-003  0.1336281E+03  0.7818608E-02  0.1237466E+00
          1   -1    0    0  501    0  0.00000000000E+00  0.00000000000E+00  0.57137963273E+03  0.57137963275E+03  0.50400000000E-02 0. -1.
         -1   -1    0    0    0  501 -0.00000000000E+00 -0.00000000000E+00 -0.26068319163E+02  0.26068319651E+02  0.50400000000E-02 0.  1.
         25    2    1    2    0    0  0.43183986353E+02 -0.19226012278E+02  0.21568604852E+03  0.25372610930E+03  0.12498788257E+03 0.  0.
         23    2    1    2    0    0 -0.43183986353E+02  0.19226012278E+02  0.32962526504E+03  0.34372184310E+03  0.85190338901E+02 0.  0.
        -13    1    4    4    0    0  0.79502565248E+01  0.36392335777E+02  0.19799643532E+03  0.20147011750E+03  0.10566000000E+00 0. -1.
         13    1    4    4    0    0 -0.51134242877E+02 -0.17166323499E+02  0.13162882973E+03  0.14225172560E+03  0.10566000000E+00 0.  1.
    9000005    1    3    3    0    0 -0.19086421498E+02  0.42071592906E+02  0.77362830732E+02  0.90112807048E+02  0.10000000000E+01 0.  0.
    9000005    1    3    3    0    0  0.62270407851E+02 -0.61297605184E+02  0.13832321779E+03  0.16361330225E+03  0.10000000000E+01 0.  0.
<mgrwt>
<rscale>  0 0.12347880E+03</rscale>
<asrwt>0</asrwt>
<pdfrwt beam="1">  1        1 0.87904555E-01 0.13362809E+03</pdfrwt>
<pdfrwt beam="2">  1       -1 0.40105109E-02 0.13362809E+03</pdfrwt>
<totfact> 0.88129619E+03</totfact>
</mgrwt>
</event>
<event>
 8    3  0.1560846E-003  0.1458522E+03  0.7818608E-02  0.1219665E+00
         -1   -1    0    0    0  501 -0.00000000000E+00  0.00000000000E+00  0.60421767506E+02  0.60421767716E+02  0.50400000000E-02 0.  1.
          1   -1    0    0  501    0  0.00000000000E+00 -0.00000000000E+00 -0.44494409663E+03  0.44494409666E+03  0.50400000000E-02 0. -1.
         25    2    1    2    0    0  0.52218189260E+02  0.54047757633E+02 -0.50699787232E+02  0.15441290427E+03  0.12499990874E+03 0.  0.
         23    2    1    2    0    0 -0.52218189260E+02 -0.54047757633E+02 -0.33382254189E+03  0.35095296010E+03  0.77990969571E+02 0.  0.
        -13    1    4    4    0    0 -0.40319739852E+02 -0.51292208325E+02 -0.11840926566E+03  0.13519370331E+03  0.10566000000E+00 0.  1.
         13    1    4    4    0    0 -0.11898449407E+02 -0.27555493084E+01 -0.21541327623E+03  0.21575925679E+03  0.10566000000E+00 0. -1.
    9000005    1    3    3    0    0  0.72209402015E+02  0.55049478683E+01  0.11151664816E+02  0.73279341008E+02  0.10000000000E+01 0.  0.
    9000005    1    3    3    0    0 -0.19991212756E+02  0.48542809765E+02 -0.61851452048E+02  0.81133563263E+02  0.10000000000E+01 0.  0.
<mgrwt>
<rscale>  0 0.13539398E+03</rscale>
<asrwt>0</asrwt>
<pdfrwt beam="2">  1        1 0.68452936E-01 0.14585224E+03</pdfrwt>
<pdfrwt beam="1">  1       -1 0.92956568E-02 0.14585224E+03</pdfrwt>
<totfact> 0.35020333E+03</totfact>
</mgrwt>
</event>
<event>
 8    3  0.1560846E-003  0.1702068E+03  0.7818608E-02  0.1183678E+00
          1   -1    0    0  501    0  0.00000000000E+00  0.00000000000E+00  0.38603341292E+03  0.38603341296E+03  0.50400000000E-02 0. -1.
         -1   -1    0    0    0  501 -0.00000000000E+00 -0.00000000000E+00 -0.65822148376E+02  0.65822148569E+02  0.50400000000E-02 0.  1.
         25    2    1    2    0    0  0.93436515832E+02  0.67949288801E+02  0.17050819461E+03  0.24092198367E+03  0.12499147751E+03 0.  0.
         23    2    1    2    0    0 -0.93436515832E+02 -0.67949288801E+02  0.14970306994E+03  0.21093357785E+03  0.93458422719E+02 0.  0.
        -13    1    4    4    0    0 -0.77222493946E+01 -0.50368069628E+02  0.94824970042E+02  0.10764925305E+03  0.10566000000E+00 0. -1.
         13    1    4    4    0    0 -0.85714266437E+02 -0.17581219174E+02  0.54878099896E+02  0.10328432481E+03  0.10566000000E+00 0.  1.
    9000005    1    3    3    0    0  0.14248516840E+02 -0.23612041448E+02  0.93400851602E+02  0.97392339603E+02  0.10000000000E+01 0.  0.
    9000005    1    3    3    0    0  0.79187998992E+02  0.91561330249E+02  0.77107343009E+02  0.14352964407E+03  0.10000000000E+01 0.  0.
<mgrwt>
<rscale>  0 0.16452709E+03</rscale>
<asrwt>0</asrwt>
<pdfrwt beam="1">  1        1 0.59389757E-01 0.17020681E+03</pdfrwt>
<pdfrwt beam="2">  1       -1 0.10126484E-01 0.17020681E+03</pdfrwt>
<totfact> 0.37054250E+03</totfact>
</mgrwt>
</event>
<event>
 8    3  0.1560846E-003  0.1267525E+03  0.7818608E-02  0.1246665E+00
         -1   -1    0    0    0  501 -0.00000000000E+00  0.00000000000E+00  0.43433315583E+02  0.43433315875E+02  0.50400000000E-02 0.  1.
          1   -1    0    0  501    0  0.00000000000E+00 -0.00000000000E+00 -0.28467759621E+03  0.28467759625E+03  0.50400000000E-02 0. -1.
         25    2    1    2    0    0  0.33198504723E+01  0.20744279716E+02 -0.12350638769E+03  0.17697463903E+03  0.12499939406E+03 0.  0.
         23    2    1    2    0    0 -0.33198504723E+01 -0.20744279716E+02 -0.11773789294E+03  0.15113627309E+03  0.92404626846E+02 0.  0.
        -13    1    4    4    0    0 -0.76070309604E+01 -0.37869647462E+01 -0.12967935342E+03  0.12995750802E+03  0.10566000000E+00 0. -1.
         13    1    4    4    0    0  0.42871804881E+01 -0.16957314969E+02  0.11941460485E+02  0.21178765074E+02  0.10566000000E+00 0.  1.
    9000005    1    3    3    0    0 -0.55816097337E+02  0.11419304187E+02 -0.94722054114E+02  0.11054005955E+03  0.10000000000E+01 0.  0.
    9000005    1    3    3    0    0  0.59135947810E+02  0.93249755283E+01 -0.28784333572E+02  0.66434579484E+02  0.10000000000E+01 0.  0.
<mgrwt>
<rscale>  0 0.11786278E+03</rscale>
<asrwt>0</asrwt>
<pdfrwt beam="2">  1        1 0.43796552E-01 0.12675250E+03</pdfrwt>
<pdfrwt beam="1">  1       -1 0.66820488E-02 0.12675250E+03</pdfrwt>
<totfact> 0.99891176E+03</totfact>
</mgrwt>
</event>
<event>
 8    3  0.1560846E-003  0.1261687E+03  0.7818608E-02  0.1248785E+00
          1   -1    0    0  501    0  0.00000000000E+00  0.00000000000E+00  0.74811722593E+03  0.74811722595E+03  0.50400000000E-02 0. -1.
         -1   -1    0    0    0  501 -0.00000000000E+00 -0.00000000000E+00 -0.16366776108E+02  0.16366776884E+02  0.50400000000E-02 0.  1.
         25    2    1    2    0    0 -0.31561909108E+01  0.16849314296E+02  0.48396961453E+03  0.50014510392E+03  0.12499870497E+03 0.  0.
         23    2    1    2    0    0  0.31561909108E+01 -0.16849314296E+02  0.24778083529E+03  0.26433889892E+03  0.90475688507E+02 0.  0.
        -13    1    4    4    0    0  0.45838565611E+02 -0.17916862124E+02  0.12455310604E+03  0.13392414060E+03  0.10566000000E+00 0.  1.
         13    1    4    4    0    0 -0.42682374701E+02  0.10675478275E+01  0.12322772925E+03  0.13041475832E+03  0.10566000000E+00 0. -1.
    9000005    1    3    3    0    0  0.10550671722E+02  0.67726048359E+02  0.20260636407E+03  0.21388892693E+03  0.10000000000E+01 0.  0.
    9000005    1    3    3    0    0 -0.13706862633E+02 -0.50876734063E+02  0.28136325047E+03  0.28625617699E+03  0.10000000000E+01 0.  0.
<mgrwt>
<rscale>  0 0.11661685E+03</rscale>
<asrwt>0</asrwt>
<pdfrwt beam="1">  1        1 0.11509492E+00 0.12616869E+03</pdfrwt>
<pdfrwt beam="2">  1       -1 0.25179665E-02 0.12616869E+03</pdfrwt>
<totfact> 0.11869803E+04</totfact>
</mgrwt>
</event>
<event>
 8    3  0.1560846E-003  0.1329441E+03  0.7818608E-02  0.1237339E+00
          1   -1    0    0  501    0  0.00000000000E+00  0.00000000000E+00  0.67458360948E+03  0.67458360950E+03  0.50400000000E-02 0. -1.
         -1   -1    0    0    0  501 -0.00000000000E+00 -0.00000000000E+00 -0.20318457067E+02  0.20318457692E+02  0.50400000000E-02 0.  1.
         25    2    1    2    0    0  0.40996749195E+02 -0.19199128245E+02  0.41884456716E+03  0.43943704396E+03  0.12499921681E+03 0.  0.
         23    2    1    2    0    0 -0.40996749195E+02  0.19199128245E+02  0.23542058525E+03  0.25546502322E+03  0.88262031246E+02 0.  0.
        -13    1    4    4    0    0 -0.58702975266E+02  0.14541896590E+02  0.22770067799E+03  0.23559523760E+03  0.10566000000E+00 0. -1.
         13    1    4    4    0    0  0.17706226071E+02  0.46572316556E+01  0.77199072669E+01  0.19869785621E+02  0.10566000000E+00 0.  1.
    9000005    1    3    3    0    0  0.33481575836E+02  0.18116363403E+02  0.29334188934E+02  0.48069878134E+02  0.10000000000E+01 0.  0.
    9000005    1    3    3    0    0  0.75151733590E+01 -0.37315491648E+02  0.38951037822E+03  0.39136716583E+03  0.10000000000E+01 0.  0.
<mgrwt>
<rscale>  0 0.12355880E+03</rscale>
<asrwt>0</asrwt>
<pdfrwt beam="1">  1        1 0.10378209E+00 0.13294414E+03</pdfrwt>
<pdfrwt beam="2">  1       -1 0.31259167E-02 0.13294414E+03</pdfrwt>
<totfact> 0.10094759E+04</totfact>
</mgrwt>
</event>
<event>
 8    3  0.1560846E-003  0.1419111E+03  0.7818608E-02  0.1218170E+00
          1   -1    0    0  501    0  0.00000000000E+00  0.00000000000E+00  0.53092296437E+03  0.53092296440E+03  0.50400000000E-02 0. -1.
         -1   -1    0    0    0  501 -0.00000000000E+00 -0.00000000000E+00 -0.32857131433E+02  0.32857131819E+02  0.50400000000E-02 0.  1.
         25    2    1    2    0    0  0.55606161483E+02 -0.37717630518E+02  0.24510526153E+03  0.28322315471E+03  0.12499640508E+03 0.  0.
         23    2    1    2    0    0 -0.55606161483E+02  0.37717630518E+02  0.25296057141E+03  0.28055694151E+03  0.10103703230E+03 0.  0.
        -13    1    4    4    0    0 -0.34270166762E+02 -0.12096927524E+02  0.20216532759E+02  0.41587249804E+02  0.10566000000E+00 0.  1.
         13    1    4    4    0    0 -0.21335994721E+02  0.49814558042E+02  0.23274403865E+03  0.23896969171E+03  0.10566000000E+00 0. -1.
    9000005    1    3    3    0    0  0.64761017861E+02 -0.25962510314E+02  0.25561144129E+03  0.26496462083E+03  0.10000000000E+01 0.  0.
    9000005    1    3    3    0    0 -0.91548563780E+01 -0.11755120204E+02 -0.10506179752E+02  0.18258533876E+02  0.10000000000E+01 0.  0.
<mgrwt>
<rscale>  0 0.13646221E+03</rscale>
<asrwt>0</asrwt>
<pdfrwt beam="1">  1        1 0.81680450E-01 0.14191112E+03</pdfrwt>
<pdfrwt beam="2">  1       -1 0.50549437E-02 0.14191112E+03</pdfrwt>
<totfact> 0.69342390E+03</totfact>
</mgrwt>
</event>
<event>
 8    3  0.1560846E-003  0.1678288E+03  0.7818608E-02  0.1186667E+00
          1   -1    0    0  501    0  0.00000000000E+00  0.00000000000E+00  0.36568122918E+03  0.36568122921E+03  0.50400000000E-02 0. -1.
         -1   -1    0    0    0  501 -0.00000000000E+00 -0.00000000000E+00 -0.68086471737E+02  0.68086471924E+02  0.50400000000E-02 0.  1.
         25    2    1    2    0    0  0.11151276150E+03 -0.10358000868E+02  0.13106397337E+03  0.21294194420E+03  0.12499648926E+03 0.  0.
         23    2    1    2    0    0 -0.11151276150E+03  0.10358000868E+02  0.16653078407E+03  0.22082575693E+03  0.92136467936E+02 0.  0.
        -13    1    4    4    0    0 -0.60161061802E+01 -0.54426294281E+00 -0.11847659280E+02  0.13299171034E+02  0.10566000000E+00 0.  1.
         13    1    4    4    0    0 -0.10549665532E+03  0.10902263810E+02  0.17837844335E+03  0.20752658590E+03  0.10566000000E+00 0. -1.
    9000005    1    3    3    0    0  0.51512361549E+02  0.12109902533E+01 -0.15772043837E+02  0.53895707218E+02  0.10000000000E+01 0.  0.
    9000005    1    3    3    0    0  0.60000399947E+02 -0.11568991121E+02  0.14683601721E+03  0.15904623698E+03  0.10000000000E+01 0.  0.
<mgrwt>
<rscale>  0 0.16181124E+03</rscale>
<asrwt>0</asrwt>
<pdfrwt beam="1">  1        1 0.56258651E-01 0.16782880E+03</pdfrwt>
<pdfrwt beam="2">  1       -1 0.10474842E-01 0.16782880E+03</pdfrwt>
<totfact> 0.37643927E+03</totfact>
</mgrwt>
</event>
<event>
 8    3  0.1560846E-003  0.1385399E+03  0.7818608E-02  0.1226017E+00
         -1   -1    0    0    0  501 -0.00000000000E+00  0.00000000000E+00  0.46415856513E+02  0.46415856787E+02  0.50400000000E-02 0.  1.
          1   -1    0    0  501    0  0.00000000000E+00 -0.00000000000E+00 -0.33871414671E+03  0.33871414675E+03  0.50400000000E-02 0. -1.
         25    2    1    2    0    0 -0.44875084998E+02  0.39425177451E+02 -0.18364348408E+03  0.23003961464E+03  0.12500070875E+03 0.  0.
         23    2    1    2    0    0  0.44875084998E+02 -0.39425177451E+02 -0.10865480612E+03  0.15509038889E+03  0.93161386660E+02 0.  0.
        -13    1    4    4    0    0  0.60947849226E+01 -0.54483300407E+02 -0.97765003781E+02  0.11208739249E+03  0.10566000000E+00 0. -1.
         13    1    4    4    0    0  0.38780300076E+02  0.15058122957E+02 -0.10889802336E+02  0.43002996406E+02  0.10566000000E+00 0.  1.
    9000005    1    3    3    0    0 -0.75378104712E+02  0.10237763589E+02 -0.52941538095E+02  0.92684825776E+02  0.10000000000E+01 0.  0.
    9000005    1    3    3    0    0  0.30503019714E+02  0.29187413862E+02 -0.13070194598E+03  0.13735478886E+03  0.10000000000E+01 0.  0.
<mgrwt>
<rscale>  0 0.13097413E+03</rscale>
<asrwt>0</asrwt>
<pdfrwt beam="2">  1        1 0.52109867E-01 0.13853987E+03</pdfrwt>
<pdfrwt beam="1">  1       -1 0.71409012E-02 0.13853987E+03</pdfrwt>
<totfact> 0.73383959E+03</totfact>
</mgrwt>
</event>
<event>
 8    3  0.1560846E-003  0.1350580E+03  0.7818608E-02  0.1230582E+00
          1   -1    0    0  501    0  0.00000000000E+00  0.00000000000E+00  0.45785252431E+03  0.45785252434E+03  0.50400000000E-02 0. -1.
         -1   -1    0    0    0  501 -0.00000000000E+00 -0.00000000000E+00 -0.46624870740E+02  0.46624871013E+02  0.50400000000E-02 0.  1.
         25    2    1    2    0    0  0.53834700025E+01  0.50860394082E+02  0.82523745136E+02  0.15827452027E+03  0.12499957528E+03 0.  0.
         23    2    1    2    0    0 -0.53834700025E+01 -0.50860394082E+02  0.32870390844E+03  0.34620287508E+03  0.95887485418E+02 0.  0.
        -13    1    4    4    0    0  0.37620565606E+02  0.46835662324E+01  0.13179353025E+03  0.13713784499E+03  0.10566000000E+00 0.  1.
         13    1    4    4    0    0 -0.43004035609E+02 -0.55543960314E+02  0.19691037819E+03  0.20906503009E+03  0.10566000000E+00 0. -1.
    9000005    1    3    3    0    0  0.58136995731E+02  0.51346731510E+02  0.28188156547E+02  0.82534655018E+02  0.10000000000E+01 0.  0.
    9000005    1    3    3    0    0 -0.52753525728E+02 -0.48633742826E+00  0.54335588589E+02  0.75739865251E+02  0.10000000000E+01 0.  0.
<mgrwt>
<rscale>  0 0.12791521E+03</rscale>
<asrwt>0</asrwt>
<pdfrwt beam="1">  1        1 0.70438847E-01 0.13505797E+03</pdfrwt>
<pdfrwt beam="2">  1       -1 0.71730573E-02 0.13505797E+03</pdfrwt>
<totfact> 0.49769507E+03</totfact>
</mgrwt>
</event>
<event>
 8    3  0.1560846E-003  0.1509277E+03  0.7818608E-02  0.1208393E+00
          1   -1    0    0  501    0  0.00000000000E+00  0.00000000000E+00  0.14405605014E+04  0.14405605014E+04  0.50400000000E-02 0. -1.
         -1   -1    0    0    0  501 -0.00000000000E+00 -0.00000000000E+00 -0.13205255084E+02  0.13205256046E+02  0.50400000000E-02 0.  1.
         25    2    1    2    0    0  0.79044477275E+02 -0.30096125112E+02  0.83711811174E+03  0.85061501549E+03  0.12500146175E+03 0.  0.
         23    2    1    2    0    0 -0.79044477275E+02  0.30096125112E+02  0.59023713458E+03  0.60315074197E+03  0.90868786539E+02 0.  0.
        -13    1    4    4    0    0 -0.64594777850E+02  0.37655541161E+02  0.21630262808E+03  0.22886079433E+03  0.10566000000E+00 0.  1.
         13    1    4    4    0    0 -0.14449699425E+02 -0.75594160489E+01  0.37393450650E+03  0.37428994764E+03  0.10566000000E+00 0. -1.
    9000005    1    3    3    0    0  0.12978022299E+02 -0.26632854680E+02  0.67312602114E+03  0.67377843416E+03  0.10000000000E+01 0.  0.
    9000005    1    3    3    0    0  0.66066454976E+02 -0.34632704315E+01  0.16399209061E+03  0.17683658133E+03  0.10000000000E+01 0.  0.
<mgrwt>
<rscale>  0 0.14373263E+03</rscale>
<asrwt>0</asrwt>
<pdfrwt beam="1">  1        1 0.22162464E+00 0.15092770E+03</pdfrwt>
<pdfrwt beam="2">  1       -1 0.20315783E-02 0.15092770E+03</pdfrwt>
<totfact> 0.51763505E+03</totfact>
</mgrwt>
</event>
<event>
 8    3  0.1560846E-003  0.1405537E+03  0.7818608E-02  0.1223109E+00
         -1   -1    0    0    0  501 -0.00000000000E+00  0.00000000000E+00  0.72891927186E+01  0.72891944610E+01  0.50400000000E-02 0.  1.
          1   -1    0    0  501    0  0.00000000000E+00 -0.00000000000E+00 -0.27127654591E+04  0.27127654591E+04  0.50400000000E-02 0. -1.
         25    2    1    2    0    0 -0.10766106877E+02  0.63360032804E+02 -0.20632908036E+04  0.20680726003E+04  0.12499974835E+03 0.  0.
         23    2    1    2    0    0  0.10766106877E+02 -0.63360032804E+02 -0.64218546280E+03  0.65198205328E+03  0.92455537180E+02 0.  0.
        -13    1    4    4    0    0 -0.10904896549E+02 -0.81578473283E+02 -0.41890333139E+03  0.42691214118E+03  0.10566000000E+00 0.  1.
         13    1    4    4    0    0  0.21671003426E+02  0.18218440479E+02 -0.22328213141E+03  0.22506991210E+03  0.10566000000E+00 0. -1.
    9000005    1    3    3    0    0  0.16353109900E+02  0.97309124421E+01 -0.16791508346E+04  0.16792589557E+04  0.10000000000E+01 0.  0.
    9000005    1    3    3    0    0 -0.27119216777E+02  0.53629120362E+02 -0.38413996901E+03  0.38881364464E+03  0.10000000000E+01 0.  0.
<mgrwt>
<rscale>  0 0.13297343E+03</rscale>
<asrwt>0</asrwt>
<pdfrwt beam="2">  1        1 0.41734773E+00 0.14055369E+03</pdfrwt>
<pdfrwt beam="1">  1       -1 0.11214166E-02 0.14055369E+03</pdfrwt>
<totfact> 0.18352406E+03</totfact>
</mgrwt>
</event>
<event>
 8    3  0.1560846E-003  0.1298559E+03  0.7818608E-02  0.1241841E+00
         -1   -1    0    0    0  501 -0.00000000000E+00  0.00000000000E+00  0.18447243301E+03  0.18447243308E+03  0.50400000000E-02 0.  1.
          1   -1    0    0  501    0  0.00000000000E+00 -0.00000000000E+00 -0.12226246918E+03  0.12226246928E+03  0.50400000000E-02 0. -1.
         25    2    1    2    0    0  0.23786654081E+02  0.25923473341E+02 -0.66174508295E+02  0.14574502326E+03  0.12499885949E+03 0.  0.
         23    2    1    2    0    0 -0.23786654081E+02 -0.25923473341E+02  0.12838447213E+03  0.16098987911E+03  0.90539146828E+02 0.  0.
        -13    1    4    4    0    0 -0.23731028540E+01  0.22002236803E+02  0.97725975614E+02  0.10020033690E+03  0.10566000000E+00 0.  1.
         13    1    4    4    0    0 -0.21413551227E+02 -0.47925710143E+02  0.30658496518E+02  0.60789542206E+02  0.10566000000E+00 0. -1.
    9000005    1    3    3    0    0  0.37303203407E+01  0.45251898226E+02 -0.95215897888E+02  0.10549273337E+03  0.10000000000E+01 0.  0.
    9000005    1    3    3    0    0  0.20056333740E+02 -0.19328424886E+02  0.29041389593E+02  0.40252289887E+02  0.10000000000E+01 0.  0.
<mgrwt>
<rscale>  0 0.12076467E+03</rscale>
<asrwt>0</asrwt>
<pdfrwt beam="2">  1        1 0.18809611E-01 0.12985587E+03</pdfrwt>
<pdfrwt beam="1">  1       -1 0.28380374E-01 0.12985587E+03</pdfrwt>
<totfact> 0.29947019E+03</totfact>
</mgrwt>
</event>
<event>
 8    3  0.1560846E-003  0.1525485E+03  0.7818608E-02  0.1203205E+00
         -1   -1    0    0    0  501 -0.00000000000E+00  0.00000000000E+00  0.25986653491E+02  0.25986653980E+02  0.50400000000E-02 0.  1.
          1   -1    0    0  501    0  0.00000000000E+00 -0.00000000000E+00 -0.80126728638E+03  0.80126728639E+03  0.50400000000E-02 0. -1.
         25    2    1    2    0    0  0.15881890506E+02  0.85986697813E+02 -0.36800714111E+03  0.39837207302E+03  0.12500042404E+03 0.  0.
         23    2    1    2    0    0 -0.15881890506E+02 -0.85986697813E+02 -0.40727349177E+03  0.42888186735E+03  0.10208825785E+03 0.  0.
        -13    1    4    4    0    0  0.72169054692E+01 -0.79315938644E+02 -0.39285526963E+03  0.40084707294E+03  0.10566000000E+00 0. -1.
         13    1    4    4    0    0 -0.23098795975E+02 -0.66707591688E+01 -0.14418222142E+02  0.28034794402E+02  0.10566000000E+00 0.  1.
    9000005    1    3    3    0    0  0.69514671497E+02  0.63142748566E+02 -0.21416527116E+03  0.23385264510E+03  0.10000000000E+01 0.  0.
    9000005    1    3    3    0    0 -0.53632780991E+02  0.22843949248E+02 -0.15384186995E+03  0.16451942792E+03  0.10000000000E+01 0.  0.
<mgrwt>
<rscale>  0 0.14779837E+03</rscale>
<asrwt>0</asrwt>
<pdfrwt beam="2">  1        1 0.12327187E+00 0.15254853E+03</pdfrwt>
<pdfrwt beam="1">  1       -1 0.39979473E-02 0.15254853E+03</pdfrwt>
<totfact> 0.55181840E+03</totfact>
</mgrwt>
</event>
<event>
 8    3  0.1560846E-003  0.1273609E+03  0.7818608E-02  0.1246315E+00
         -1   -1    0    0    0  501 -0.00000000000E+00  0.00000000000E+00  0.29005006837E+02  0.29005007275E+02  0.50400000000E-02 0.  1.
          1   -1    0    0  501    0  0.00000000000E+00 -0.00000000000E+00 -0.44061444690E+03  0.44061444692E+03  0.50400000000E-02 0. -1.
         25    2    1    2    0    0  0.24065081036E+02  0.41852564662E+01 -0.18854331804E+03  0.22752887719E+03  0.12499665069E+03 0.  0.
         23    2    1    2    0    0 -0.24065081036E+02 -0.41852564662E+01 -0.22306612202E+03  0.24209057701E+03  0.90844417470E+02 0.  0.
        -13    1    4    4    0    0 -0.55226112606E+02 -0.11315816437E+02 -0.17888603175E+03  0.18755851016E+03  0.10566000000E+00 0. -1.
         13    1    4    4    0    0  0.31161031570E+02  0.71305599711E+01 -0.44180090272E+02  0.54532066846E+02  0.10566000000E+00 0.  1.
    9000005    1    3    3    0    0  0.11020971743E+02 -0.16379522212E+02 -0.19973364311E+03  0.20070943864E+03  0.10000000000E+01 0.  0.
    9000005    1    3    3    0    0  0.13044109293E+02  0.20564778678E+02  0.11190325074E+02  0.26819438559E+02  0.10000000000E+01 0.  0.
<mgrwt>
<rscale>  0 0.11807042E+03</rscale>
<asrwt>0</asrwt>
<pdfrwt beam="2">  1        1 0.67786833E-01 0.12736093E+03</pdfrwt>
<pdfrwt beam="1">  1       -1 0.44623091E-02 0.12736093E+03</pdfrwt>
<totfact> 0.10538853E+04</totfact>
</mgrwt>
</event>
<event>
 8    3  0.1560846E-003  0.1269341E+03  0.7818608E-02  0.1245942E+00
          1   -1    0    0  501    0  0.00000000000E+00  0.00000000000E+00  0.39719455145E+02  0.39719455465E+02  0.50400000000E-02 0. -1.
         -1   -1    0    0    0  501 -0.00000000000E+00 -0.00000000000E+00 -0.31563333296E+03  0.31563333300E+03  0.50400000000E-02 0.  1.
         25    2    1    2    0    0 -0.23420770889E+01  0.21820832398E+02 -0.13840067257E+03  0.18779511898E+03  0.12502250395E+03 0.  0.
         23    2    1    2    0    0  0.23420770889E+01 -0.21820832398E+02 -0.13751320524E+03  0.16755766948E+03  0.93188287542E+02 0.  0.
        -13    1    4    4    0    0 -0.19065778821E+02 -0.31640683529E+02 -0.13912872949E+03  0.14394947485E+03  0.10566000000E+00 0.  1.
         13    1    4    4    0    0  0.21407855910E+02  0.98198511309E+01  0.16155242534E+01  0.23608194627E+02  0.10566000000E+00 0. -1.
    9000005    1    3    3    0    0 -0.92730007562E+01  0.72422366323E+02 -0.61473191012E+02  0.95451248814E+02  0.10000000000E+01 0.  0.
    9000005    1    3    3    0    0  0.69309236673E+01 -0.50601533925E+02 -0.76927481561E+02  0.92343870169E+02  0.10000000000E+01 0.  0.
<mgrwt>
<rscale>  0 0.11829172E+03</rscale>
<asrwt>0</asrwt>
<pdfrwt beam="1">  1        1 0.61106857E-02 0.12693408E+03</pdfrwt>
<pdfrwt beam="2">  1       -1 0.48558973E-01 0.12693408E+03</pdfrwt>
<totfact> 0.51850292E+03</totfact>
</mgrwt>
</event>
<event>
 8    3  0.1560846E-003  0.1285133E+03  0.7818608E-02  0.1243760E+00
         -1   -1    0    0    0  501 -0.00000000000E+00  0.00000000000E+00  0.15134802029E+02  0.15134802868E+02  0.50400000000E-02 0.  1.
          1   -1    0    0  501    0  0.00000000000E+00 -0.00000000000E+00 -0.90387588984E+03  0.90387588986E+03  0.50400000000E-02 0. -1.
         25    2    1    2    0    0 -0.16641891055E+02  0.24776706902E+02 -0.62815494424E+03  0.64116636952E+03  0.12499936674E+03 0.  0.
         23    2    1    2    0    0  0.16641891055E+02 -0.24776706902E+02 -0.26058614357E+03  0.27784432321E+03  0.91659652915E+02 0.  0.
        -13    1    4    4    0    0  0.89114650092E+01 -0.63789613113E+01 -0.25740262989E+03  0.25763584842E+03  0.10566000000E+00 0. -1.
         13    1    4    4    0    0  0.77304260461E+01 -0.18397745590E+02 -0.31835136876E+01  0.20208474784E+02  0.10566000000E+00 0.  1.
    9000005    1    3    3    0    0 -0.25904029190E+02  0.35837273493E+02 -0.69862995656E+02  0.82687163827E+02  0.10000000000E+01 0.  0.
    9000005    1    3    3    0    0  0.92621381343E+01 -0.11060566592E+02 -0.55829194858E+03  0.55847920569E+03  0.10000000000E+01 0.  0.
<mgrwt>
<rscale>  0 0.11959878E+03</rscale>
<asrwt>0</asrwt>
<pdfrwt beam="2">  1        1 0.13905779E+00 0.12851334E+03</pdfrwt>
<pdfrwt beam="1">  1       -1 0.23284319E-02 0.12851334E+03</pdfrwt>
<totfact> 0.99773581E+03</totfact>
</mgrwt>
</event>
<event>
 8    3  0.1560846E-003  0.1256528E+03  0.7818608E-02  0.1248473E+00
          1   -1    0    0  501    0  0.00000000000E+00  0.00000000000E+00  0.34453416295E+03  0.34453416299E+03  0.50400000000E-02 0.  1.
         -1   -1    0    0    0  501 -0.00000000000E+00 -0.00000000000E+00 -0.37680819680E+02  0.37680820017E+02  0.50400000000E-02 0. -1.
         25    2    1    2    0    0 -0.16719159783E+01 -0.12688949445E+02  0.22503445107E+03  0.25773848736E+03  0.12499927583E+03 0.  0.
         23    2    1    2    0    0  0.16719159783E+01  0.12688949445E+02  0.81818892200E+02  0.12447649564E+03  0.92931491460E+02 0.  0.
        -13    1    4    4    0    0 -0.28246173349E+02 -0.21485991289E+02  0.68493028031E+02  0.77141429748E+02  0.10566000000E+00 0.  1.
         13    1    4    4    0    0  0.29918089328E+02  0.34174940734E+02  0.13325864168E+02  0.47335065893E+02  0.10566000000E+00 0. -1.
    9000005    1    3    3    0    0 -0.66209139331E+01 -0.55113673664E+02  0.41549014691E+02  0.69344604317E+02  0.10000000000E+01 0.  0.
    9000005    1    3    3    0    0  0.49489979548E+01  0.42424724219E+02  0.18348543638E+03  0.18839388304E+03  0.10000000000E+01 0.  0.
<mgrwt>
<rscale>  0 0.11679919E+03</rscale>
<asrwt>0</asrwt>
<pdfrwt beam="1">  1        1 0.53005255E-01 0.12565279E+03</pdfrwt>
<pdfrwt beam="2">  1       -1 0.57970493E-02 0.12565279E+03</pdfrwt>
<totfact> 0.97401947E+03</totfact>
</mgrwt>
</event>
<event>
 8    3  0.1560846E-003  0.3278655E+03  0.7818608E-02  0.1073310E+00
          1   -1    0    0  501    0  0.00000000000E+00  0.00000000000E+00  0.13080455814E+04  0.13080455814E+04  0.50400000000E-02 0. -1.
         -1   -1    0    0    0  501 -0.00000000000E+00 -0.00000000000E+00 -0.81813694508E+02  0.81813694663E+02  0.50400000000E-02 0.  1.
         25    2    1    2    0    0 -0.29972512495E+03 -0.45117823725E+02  0.50619158730E+03  0.60309676717E+03  0.12500007593E+03 0.  0.
         23    2    1    2    0    0  0.29972512495E+03  0.45117823725E+02  0.72004029960E+03  0.78676250890E+03  0.93093736764E+02 0.  0.
        -13    1    4    4    0    0  0.25967366611E+03  0.69040969448E+02  0.64004370730E+03  0.69415634172E+03  0.10566000000E+00 0.  1.
         13    1    4    4    0    0  0.40051458844E+02 -0.23923145724E+02  0.79996592297E+02  0.92606167181E+02  0.10566000000E+00 0. -1.
    9000005    1    3    3    0    0 -0.16418200750E+02 -0.17359816852E+02  0.18781228617E+01  0.23988495211E+02  0.10000000000E+01 0.  0.
    9000005    1    3    3    0    0 -0.28330692420E+03 -0.27758006873E+02  0.50431346444E+03  0.57910827196E+03  0.10000000000E+01 0.  0.
<mgrwt>
<rscale>  0 0.32513419E+03</rscale>
<asrwt>0</asrwt>
<pdfrwt beam="1">  1        1 0.20123777E+00 0.32786550E+03</pdfrwt>
<pdfrwt beam="2">  1       -1 0.12586723E-01 0.32786550E+03</pdfrwt>
<totfact> 0.40830399E+02</totfact>
</mgrwt>
</event>
<event>
 8    3  0.1560846E-003  0.2304437E+03  0.7818608E-02  0.1129192E+00
          1   -1    0    0  501    0  0.00000000000E+00  0.00000000000E+00  0.45565921505E+03  0.45565921508E+03  0.50400000000E-02 0.  1.
         -1   -1    0    0    0  501 -0.00000000000E+00 -0.00000000000E+00 -0.10940148389E+03  0.10940148401E+03  0.50400000000E-02 0. -1.
         25    2    1    2    0    0 -0.90495341337E+02 -0.17114214187E+03  0.20128982485E+03  0.30597698239E+03  0.12500112255E+03 0.  0.
         23    2    1    2    0    0  0.90495341337E+02  0.17114214187E+03  0.14496790631E+03  0.25908371669E+03  0.92895849569E+02 0.  0.
        -13    1    4    4    0    0  0.79970523793E+02  0.57627501313E+02  0.85594651243E+02  0.13054757397E+03  0.10566000000E+00 0. -1.
         13    1    4    4    0    0  0.10524817544E+02  0.11351464056E+03  0.59373255069E+02  0.12853614272E+03  0.10566000000E+00 0.  1.
    9000005    1    3    3    0    0 -0.71040716287E+02 -0.18330471382E+03  0.14234056242E+03  0.24271225183E+03  0.10000000000E+01 0.  0.
    9000005    1    3    3    0    0 -0.19454625050E+02  0.12162571948E+02  0.58949262429E+02  0.63264730563E+02  0.10000000000E+01 0.  0.
<mgrwt>
<rscale>  0 0.22641048E+03</rscale>
<asrwt>0</asrwt>
<pdfrwt beam="1">  1        1 0.70101417E-01 0.23044375E+03</pdfrwt>
<pdfrwt beam="2">  1       -1 0.16830998E-01 0.23044375E+03</pdfrwt>
<totfact> 0.13620441E+03</totfact>
</mgrwt>
</event>
<event>
 8    3  0.1560846E-003  0.1430157E+03  0.7818608E-02  0.1219866E+00
         -1   -1    0    0    0  501 -0.00000000000E+00  0.00000000000E+00  0.17755226122E+02  0.17755226838E+02  0.50400000000E-02 0.  1.
          1   -1    0    0  501    0  0.00000000000E+00 -0.00000000000E+00 -0.97154778511E+03  0.97154778512E+03  0.50400000000E-02 0. -1.
         25    2    1    2    0    0 -0.28043474541E+02  0.63580340594E+02 -0.42983204910E+03  0.45300009621E+03  0.12499840224E+03 0.  0.
         23    2    1    2    0    0  0.28043474541E+02 -0.63580340594E+02 -0.52396050989E+03  0.53630291575E+03  0.90869716309E+02 0.  0.
        -13    1    4    4    0    0  0.24146844264E+02 -0.79696648636E+02 -0.50159973187E+03  0.50846526732E+03  0.10566000000E+00 0. -1.
         13    1    4    4    0    0  0.38966302772E+01  0.16116308043E+02 -0.22360778014E+02  0.27837648425E+02  0.10566000000E+00 0.  1.
    9000005    1    3    3    0    0 -0.16929307134E+02  0.60055439601E+01 -0.36552275558E+03  0.36596523448E+03  0.10000000000E+01 0.  0.
    9000005    1    3    3    0    0 -0.11114167407E+02  0.57574796634E+02 -0.64309293515E+02  0.87034861734E+02  0.10000000000E+01 0.  0.
<mgrwt>
<rscale>  0 0.13525071E+03</rscale>
<asrwt>0</asrwt>
<pdfrwt beam="2">  1        1 0.14946885E+00 0.14301572E+03</pdfrwt>
<pdfrwt beam="1">  1       -1 0.27315741E-02 0.14301572E+03</pdfrwt>
<totfact> 0.70796697E+03</totfact>
</mgrwt>
</event>
<event>
 8    3  0.1560846E-003  0.1320360E+03  0.7818608E-02  0.1235137E+00
         -1   -1    0    0    0  501 -0.00000000000E+00  0.00000000000E+00  0.65978060579E+02  0.65978060772E+02  0.50400000000E-02 0.  1.
          1   -1    0    0  501    0  0.00000000000E+00 -0.00000000000E+00 -0.27249949256E+03  0.27249949261E+03  0.50400000000E-02 0. -1.
         25    2    1    2    0    0  0.35893834307E+02  0.22813906166E+02 -0.18986228460E+03  0.23126000584E+03  0.12499864612E+03 0.  0.
         23    2    1    2    0    0 -0.35893834307E+02 -0.22813906166E+02 -0.16659147384E+02  0.10721754754E+03  0.97001204389E+02 0.  0.
        -13    1    4    4    0    0 -0.65014297666E+02 -0.77772784976E+01  0.83275287199E+01  0.66005332061E+02  0.10566000000E+00 0.  1.
         13    1    4    4    0    0  0.29120463359E+02 -0.15036627669E+02 -0.24986676103E+02  0.41212215478E+02  0.10566000000E+00 0. -1.
    9000005    1    3    3    0    0  0.12355215670E+02 -0.45962131080E+02 -0.12527277032E+03  0.13401281965E+03  0.10000000000E+01 0.  0.
    9000005    1    3    3    0    0  0.23538618638E+02  0.68776037246E+02 -0.64589514281E+02  0.97247186189E+02  0.10000000000E+01 0.  0.
<mgrwt>
<rscale>  0 0.12495656E+03</rscale>
<asrwt>0</asrwt>
<pdfrwt beam="2">  1        1 0.41922998E-01 0.13203599E+03</pdfrwt>
<pdfrwt beam="1">  1       -1 0.10150471E-01 0.13203599E+03</pdfrwt>
<totfact> 0.56257653E+03</totfact>
</mgrwt>
</event>
<event>
 8    3  0.1560846E-003  0.1476771E+03  0.7818608E-02  0.1212950E+00
          1   -1    0    0  501    0  0.00000000000E+00  0.00000000000E+00  0.17768438134E+03  0.17768438141E+03  0.50400000000E-02 0. -1.
         -1   -1    0    0    0  501 -0.00000000000E+00 -0.00000000000E+00 -0.12283457527E+03  0.12283457538E+03  0.50400000000E-02 0.  1.
         25    2    1    2    0    0  0.53037835709E+02  0.58057569185E+02 -0.33348114575E+02  0.15139555673E+03  0.12499929798E+03 0.  0.
         23    2    1    2    0    0 -0.53037835709E+02 -0.58057569185E+02  0.88197920641E+02  0.14912340005E+03  0.90968246559E+02 0.  0.
        -13    1    4    4    0    0 -0.44775049256E+01 -0.45039834588E+01 -0.18883875032E+02  0.19923499131E+02  0.10566000000E+00 0.  1.
         13    1    4    4    0    0 -0.48560330783E+02 -0.53553585727E+02  0.10708179567E+03  0.12919990092E+03  0.10566000000E+00 0. -1.
    9000005    1    3    3    0    0 -0.37205870517E+02 -0.40713812667E+01 -0.14846387774E+02  0.40277390386E+02  0.10000000000E+01 0.  0.
    9000005    1    3    3    0    0  0.90243706226E+02  0.62128950452E+02 -0.18501726800E+02  0.11111816635E+03  0.10000000000E+01 0.  0.
<mgrwt>
<rscale>  0 0.14028194E+03</rscale>
<asrwt>0</asrwt>
<pdfrwt beam="1">  1        1 0.27336059E-01 0.14767707E+03</pdfrwt>
<pdfrwt beam="2">  1       -1 0.18897627E-01 0.14767707E+03</pdfrwt>
<totfact> 0.36493511E+03</totfact>
</mgrwt>
</event>
<event>
 8    3  0.1560846E-003  0.1327410E+03  0.7818608E-02  0.1237840E+00
          1   -1    0    0  501    0  0.00000000000E+00  0.00000000000E+00  0.61361241628E+03  0.61361241630E+03  0.50400000000E-02 0. -1.
         -1   -1    0    0    0  501 -0.00000000000E+00 -0.00000000000E+00 -0.21821700378E+02  0.21821700960E+02  0.50400000000E-02 0.  1.
         25    2    1    2    0    0  0.17745588396E+02  0.41014421427E+02  0.34619331530E+03  0.37076946327E+03  0.12499237843E+03 0.  0.
         23    2    1    2    0    0 -0.17745588396E+02 -0.41014421427E+02  0.24559740060E+03  0.26466465399E+03  0.87932970016E+02 0.  0.
        -13    1    4    4    0    0  0.11136403044E+02 -0.45497834171E+02  0.22259677459E+03  0.22747177321E+03  0.10566000000E+00 0. -1.
         13    1    4    4    0    0 -0.28881991440E+02  0.44834127441E+01  0.23000626013E+02  0.37192880775E+02  0.10566000000E+00 0.  1.
    9000005    1    3    3    0    0 -0.21398329763E+02  0.39878336262E+02  0.35264067374E+02  0.57382267883E+02  0.10000000000E+01 0.  0.
    9000005    1    3    3    0    0  0.39143918158E+02  0.11360851642E+01  0.31092924792E+03  0.31338719539E+03  0.10000000000E+01 0.  0.
<mgrwt>
<rscale>  0 0.12324352E+03</rscale>
<asrwt>0</asrwt>
<pdfrwt beam="1">  1        1 0.94401896E-01 0.13274104E+03</pdfrwt>
<pdfrwt beam="2">  1       -1 0.33571852E-02 0.13274104E+03</pdfrwt>
<totfact> 0.10374873E+04</totfact>
</mgrwt>
</event>
<event>
 8    3  0.1560846E-003  0.1279854E+03  0.7818608E-02  0.1246560E+00
          1   -1    0    0  501    0  0.00000000000E+00  0.00000000000E+00  0.51425209772E+02  0.51425210019E+02  0.50400000000E-02 0. -1.
         -1   -1    0    0    0  501 -0.00000000000E+00 -0.00000000000E+00 -0.25176596239E+03  0.25176596244E+03  0.50400000000E-02 0.  1.
         25    2    1    2    0    0 -0.40749169222E+01 -0.27176655711E+02 -0.77675922604E+02  0.14971244498E+03  0.12500036666E+03 0.  0.
         23    2    1    2    0    0  0.40749169222E+01  0.27176655711E+02 -0.12266483002E+03  0.15347872748E+03  0.88056139499E+02 0.  0.
        -13    1    4    4    0    0  0.44003929886E+02  0.15972762865E+02 -0.86937760386E+02  0.98740368360E+02  0.10566000000E+00 0.  1.
         13    1    4    4    0    0 -0.39929012963E+02  0.11203892846E+02 -0.35727069629E+02  0.54738359123E+02  0.10566000000E+00 0. -1.
    9000005    1    3    3    0    0 -0.59920833818E+02  0.25334152467E+01 -0.58050835032E+02  0.83473492597E+02  0.10000000000E+01 0.  0.
    9000005    1    3    3    0    0  0.55845916896E+02 -0.29710070958E+02 -0.19625087572E+02  0.66238952381E+02  0.10000000000E+01 0.  0.
<mgrwt>
<rscale>  0 0.11792491E+03</rscale>
<asrwt>0</asrwt>
<pdfrwt beam="1">  1        1 0.79115709E-02 0.12798542E+03</pdfrwt>
<pdfrwt beam="2">  1       -1 0.38733224E-01 0.12798542E+03</pdfrwt>
<totfact> 0.54727853E+03</totfact>
</mgrwt>
</event>
<event>
 8    3  0.1560846E-003  0.1356882E+03  0.7818608E-02  0.1231337E+00
          1   -1    0    0  501    0  0.00000000000E+00  0.00000000000E+00  0.18702780698E+04  0.18702780699E+04  0.50400000000E-02 0. -1.
         -1   -1    0    0    0  501 -0.00000000000E+00 -0.00000000000E+00 -0.83330152485E+01  0.83330167726E+01  0.50400000000E-02 0.  1.
         25    2    1    2    0    0 -0.29970792409E+02  0.43450998942E+02  0.12805869295E+04  0.12877554828E+04  0.12500024646E+03 0.  0.
         23    2    1    2    0    0  0.29970792409E+02 -0.43450998942E+02  0.58135812509E+03  0.59085560387E+03  0.91361027353E+02 0.  0.
        -13    1    4    4    0    0  0.40933358721E+02 -0.14464806984E+02  0.10680020247E+03  0.11528688091E+03  0.10566000000E+00 0.  1.
         13    1    4    4    0    0 -0.10962566312E+02 -0.28986191958E+02  0.47455792261E+03  0.47556872296E+03  0.10566000000E+00 0. -1.
    9000005    1    3    3    0    0  0.25189321254E+02 -0.13796121506E+02  0.89115127148E+02  0.93634079055E+02  0.10000000000E+01 0.  0.
    9000005    1    3    3    0    0 -0.55160113663E+02  0.57247120449E+02  0.11914718024E+04  0.11941214037E+04  0.10000000000E+01 0.  0.
<mgrwt>
<rscale>  0 0.12741881E+03</rscale>
<asrwt>0</asrwt>
<pdfrwt beam="1">  1        1 0.28773520E+00 0.13568824E+03</pdfrwt>
<pdfrwt beam="2">  1       -1 0.12820019E-02 0.13568824E+03</pdfrwt>
<totfact> 0.53003320E+03</totfact>
</mgrwt>
</event>
<event>
 8    3  0.1560846E-003  0.1808240E+03  0.7818608E-02  0.1172533E+00
         -1   -1    0    0    0  501 -0.00000000000E+00  0.00000000000E+00  0.35670151106E+02  0.35670151462E+02  0.50400000000E-02 0.  1.
          1   -1    0    0  501    0  0.00000000000E+00 -0.00000000000E+00 -0.85656518546E+03  0.85656518548E+03  0.50400000000E-02 0. -1.
         25    2    1    2    0    0 -0.11655723649E+03  0.59049105016E+02 -0.33230875958E+03  0.37832055050E+03  0.12499976421E+03 0.  0.
         23    2    1    2    0    0  0.11655723649E+03 -0.59049105016E+02 -0.48858627478E+03  0.51391478644E+03  0.91211148671E+02 0.  0.
        -13    1    4    4    0    0  0.12123743324E+03 -0.70068819952E+02 -0.47745980929E+03  0.49757013114E+03  0.10566000000E+00 0. -1.
         13    1    4    4    0    0 -0.46801967425E+01  0.11019714937E+02 -0.11126465487E+02  0.16344655307E+02  0.10566000000E+00 0.  1.
    9000005    1    3    3    0    0  0.14699109691E+02  0.18006565548E+02 -0.57233171297E+01  0.23959478031E+02  0.10000000000E+01 0.  0.
    9000005    1    3    3    0    0 -0.13125634618E+03  0.41042539468E+02 -0.32658544245E+03  0.35436107247E+03  0.10000000000E+01 0.  0.
<mgrwt>
<rscale>  0 0.17519791E+03</rscale>
<asrwt>0</asrwt>
<pdfrwt beam="2">  1        1 0.13177924E+00 0.18082402E+03</pdfrwt>
<pdfrwt beam="1">  1       -1 0.54877162E-02 0.18082402E+03</pdfrwt>
<totfact> 0.31303728E+03</totfact>
</mgrwt>
</event>
<event>
 8    3  0.1560846E-003  0.1313472E+03  0.7818608E-02  0.1238738E+00
         -1   -1    0    0    0  501 -0.00000000000E+00  0.00000000000E+00  0.10643701112E+04  0.10643701112E+04  0.50400000000E-02 0.  1.
          1   -1    0    0  501    0  0.00000000000E+00 -0.00000000000E+00 -0.12680070522E+02  0.12680071524E+02  0.50400000000E-02 0. -1.
         25    2    1    2    0    0 -0.29375273628E+02  0.27653560496E+02  0.54627128656E+03  0.56184020198E+03  0.12499787171E+03 0.  0.
         23    2    1    2    0    0  0.29375273628E+02 -0.27653560496E+02  0.50541875410E+03  0.51520998074E+03  0.91463550917E+02 0.  0.
        -13    1    4    4    0    0  0.19309115495E+01 -0.57951311787E+02  0.25787651482E+03  0.26431494664E+03  0.10566000000E+00 0. -1.
         13    1    4    4    0    0  0.27444362079E+02  0.30297751290E+02  0.24754223928E+03  0.25089503410E+03  0.10566000000E+00 0.  1.
    9000005    1    3    3    0    0 -0.44393812133E+02  0.38139052400E+02  0.10520857720E+03  0.12039619010E+03  0.10000000000E+01 0.  0.
    9000005    1    3    3    0    0  0.15018538505E+02 -0.10485491904E+02  0.44106270936E+03  0.44144401188E+03  0.10000000000E+01 0.  0.
<mgrwt>
<rscale>  0 0.12268142E+03</rscale>
<asrwt>0</asrwt>
<pdfrwt beam="2">  1        1 0.19507804E-02 0.13134723E+03</pdfrwt>
<pdfrwt beam="1">  1       -1 0.16374922E+00 0.13134723E+03</pdfrwt>
<totfact> 0.18144690E+03</totfact>
</mgrwt>
</event>
<event>
 8    3  0.1560846E-003  0.1319262E+03  0.7818608E-02  0.1238649E+00
          1   -1    0    0  501    0  0.00000000000E+00  0.00000000000E+00  0.22993095357E+03  0.22993095363E+03  0.50400000000E-02 0. -1.
         -1   -1    0    0    0  501 -0.00000000000E+00 -0.00000000000E+00 -0.78117791179E+02  0.78117791342E+02  0.50400000000E-02 0.  1.
         25    2    1    2    0    0 -0.39227456152E+02  0.15546257182E+02  0.16173546822E+03  0.20871723798E+03  0.12499617723E+03 0.  0.
         23    2    1    2    0    0  0.39227456152E+02 -0.15546257182E+02 -0.99223058265E+01  0.99331506988E+02  0.89374586428E+02 0.  0.
        -13    1    4    4    0    0  0.28276656705E+02 -0.39239568627E+02 -0.37618572937E+02  0.61273821934E+02  0.10566000000E+00 0.  1.
         13    1    4    4    0    0  0.10950799447E+02  0.23693311446E+02  0.27696267111E+02  0.38057685055E+02  0.10566000000E+00 0. -1.
    9000005    1    3    3    0    0  0.24140224774E+02  0.52672142413E+02  0.80665416335E+02  0.99322779014E+02  0.10000000000E+01 0.  0.
    9000005    1    3    3    0    0 -0.63367680926E+02 -0.37125885232E+02  0.81070051883E+02  0.10939445897E+03  0.10000000000E+01 0.  0.
<mgrwt>
<rscale>  0 0.12273704E+03</rscale>
<asrwt>0</asrwt>
<pdfrwt beam="1">  1        1 0.35373993E-01 0.13192621E+03</pdfrwt>
<pdfrwt beam="2">  1       -1 0.12018122E-01 0.13192621E+03</pdfrwt>
<totfact> 0.53552370E+03</totfact>
</mgrwt>
</event>
<event>
 8    3  0.1560846E-003  0.1261429E+03  0.7818608E-02  0.1249257E+00
         -1   -1    0    0    0  501 -0.00000000000E+00  0.00000000000E+00  0.25272072001E+03  0.25272072006E+03  0.50400000000E-02 0.  1.
          1   -1    0    0  501    0  0.00000000000E+00 -0.00000000000E+00 -0.58964970130E+02  0.58964970345E+02  0.50400000000E-02 0. -1.
         25    2    1    2    0    0 -0.19524828307E+01  0.16812305910E+02  0.17936982183E+03  0.21928419454E+03  0.12500223666E+03 0.  0.
         23    2    1    2    0    0  0.19524828307E+01 -0.16812305910E+02  0.14385928047E+02  0.92401495869E+02  0.89691781640E+02 0.  0.
        -13    1    4    4    0    0  0.39437957510E+02 -0.32037798407E+02  0.84272480561E+01  0.51505365673E+02  0.10566000000E+00 0. -1.
         13    1    4    4    0    0 -0.37485474679E+02  0.15225492497E+02  0.59586799913E+01  0.40896130195E+02  0.10566000000E+00 0.  1.
    9000005    1    3    3    0    0 -0.82533152182E+01  0.60812401733E+02  0.40662114818E+02  0.73625219851E+02  0.10000000000E+01 0.  0.
    9000005    1    3    3    0    0  0.63008323875E+01 -0.44000095823E+02  0.13870770702E+03  0.14565897469E+03  0.10000000000E+01 0.  0.
<mgrwt>
<rscale>  0 0.11634152E+03</rscale>
<asrwt>0</asrwt>
<pdfrwt beam="2">  1        1 0.90715338E-02 0.12614288E+03</pdfrwt>
<pdfrwt beam="1">  1       -1 0.38880111E-01 0.12614288E+03</pdfrwt>
<totfact> 0.45248946E+03</totfact>
</mgrwt>
</event>
<event>
 8    3  0.1560846E-003  0.1535534E+03  0.7818608E-02  0.1204348E+00
          1   -1    0    0  501    0  0.00000000000E+00  0.00000000000E+00  0.45327271935E+02  0.45327272215E+02  0.50400000000E-02 0. -1.
         -1   -1    0    0    0  501 -0.00000000000E+00 -0.00000000000E+00 -0.47401061612E+03  0.47401061615E+03  0.50400000000E-02 0.  1.
         25    2    1    2    0    0 -0.43465635518E+02 -0.77865655385E+02 -0.16163331358E+03  0.22294388180E+03  0.12500529834E+03 0.  0.
         23    2    1    2    0    0  0.43465635518E+02  0.77865655385E+02 -0.26705003061E+03  0.29639400657E+03  0.92635665493E+02 0.  0.
        -13    1    4    4    0    0 -0.17732693501E+02  0.62513985165E+02 -0.14863982817E+03  0.16222286042E+03  0.10566000000E+00 0.  1.
         13    1    4    4    0    0  0.61198329019E+02  0.15351670220E+02 -0.11841020244E+03  0.13417114615E+03  0.10566000000E+00 0. -1.
    9000005    1    3    3    0    0 -0.83898823001E+02 -0.30600383486E+02 -0.11269432167E+03  0.14379292788E+03  0.10000000000E+01 0.  0.
    9000005    1    3    3    0    0  0.40433187482E+02 -0.47265271899E+02 -0.48938991907E+02  0.79150953920E+02  0.10000000000E+01 0.  0.
<mgrwt>
<rscale>  0 0.14688951E+03</rscale>
<asrwt>0</asrwt>
<pdfrwt beam="1">  1        1 0.69734268E-02 0.15355340E+03</pdfrwt>
<pdfrwt beam="2">  1       -1 0.72924707E-01 0.15355340E+03</pdfrwt>
<totfact> 0.20240121E+03</totfact>
</mgrwt>
</event>
<event>
 8    3  0.1560846E-003  0.1346894E+03  0.7818608E-02  0.1234946E+00
          1   -1    0    0  501    0  0.00000000000E+00  0.00000000000E+00  0.19857476387E+04  0.19857476387E+04  0.50400000000E-02 0. -1.
         -1   -1    0    0    0  501 -0.00000000000E+00 -0.00000000000E+00 -0.70647418298E+01  0.70647436276E+01  0.50400000000E-02 0.  1.
         25    2    1    2    0    0  0.48905636356E+02 -0.11292572467E+02  0.10035608581E+04  0.10125589483E+04  0.12498777771E+03 0.  0.
         23    2    1    2    0    0 -0.48905636356E+02  0.11292572467E+02  0.97512203882E+03  0.98025343400E+03  0.86686335824E+02 0.  0.
        -13    1    4    4    0    0 -0.55680852498E+02  0.36525496240E+02  0.83954756759E+03  0.84218442079E+03  0.10566000000E+00 0. -1.
         13    1    4    4    0    0  0.67752161421E+01 -0.25232923773E+02  0.13557447123E+03  0.13806901321E+03  0.10566000000E+00 0.  1.
    9000005    1    3    3    0    0 -0.26364186032E+02 -0.15216891275E+02  0.66548770376E+03  0.66618428977E+03  0.10000000000E+01 0.  0.
    9000005    1    3    3    0    0  0.75269822388E+02  0.39243188076E+01  0.33807315430E+03  0.34637465857E+03  0.10000000000E+01 0.  0.
<mgrwt>
<rscale>  0 0.12507866E+03</rscale>
<asrwt>0</asrwt>
<pdfrwt beam="1">  1        1 0.30549955E+00 0.13468938E+03</pdfrwt>
<pdfrwt beam="2">  1       -1 0.10868838E-02 0.13468938E+03</pdfrwt>
<totfact> 0.56667723E+03</totfact>
</mgrwt>
</event>
<event>
 8    3  0.1560846E-003  0.1507633E+03  0.7818608E-02  0.1206909E+00
          1   -1    0    0  501    0  0.00000000000E+00  0.00000000000E+00  0.13225847644E+03  0.13225847654E+03  0.50400000000E-02 0. -1.
         -1   -1    0    0    0  501 -0.00000000000E+00 -0.00000000000E+00 -0.15910975404E+03  0.15910975412E+03  0.50400000000E-02 0.  1.
         25    2    1    2    0    0 -0.77931126224E+02  0.32120779794E+02 -0.53660938025E+02  0.16002829148E+03  0.12499821148E+03 0.  0.
         23    2    1    2    0    0  0.77931126224E+02 -0.32120779794E+02  0.26809660428E+02  0.13133993918E+03  0.97089735823E+02 0.  0.
        -13    1    4    4    0    0  0.53169738438E+02 -0.46676774065E+02 -0.22527151072E+02  0.74251101151E+02  0.10566000000E+00 0.  1.
         13    1    4    4    0    0  0.24761387786E+02  0.14555994271E+02  0.49336811500E+02  0.57088838028E+02  0.10566000000E+00 0. -1.
    9000005    1    3    3    0    0 -0.65563955246E+02  0.45691124529E+02 -0.89351798520E+02  0.11987933511E+03  0.10000000000E+01 0.  0.
    9000005    1    3    3    0    0 -0.12367170979E+02 -0.13570344736E+02  0.35690860495E+02  0.40148956365E+02  0.10000000000E+01 0.  0.
<mgrwt>
<rscale>  0 0.14488065E+03</rscale>
<asrwt>0</asrwt>
<pdfrwt beam="1">  1        1 0.20347458E-01 0.15076325E+03</pdfrwt>
<pdfrwt beam="2">  1       -1 0.24478424E-01 0.15076325E+03</pdfrwt>
<totfact> 0.34866756E+03</totfact>
</mgrwt>
</event>
<event>
 8    3  0.1560846E-003  0.1373230E+03  0.7818608E-02  0.1225736E+00
          1   -1    0    0  501    0  0.00000000000E+00  0.00000000000E+00  0.84460594261E+03  0.84460594262E+03  0.50400000000E-02 0. -1.
         -1   -1    0    0    0  501 -0.00000000000E+00 -0.00000000000E+00 -0.18746724924E+02  0.18746725601E+02  0.50400000000E-02 0.  1.
         25    2    1    2    0    0  0.17834598400E+02 -0.53984779450E+02  0.45811509920E+03  0.47825418095E+03  0.12500075267E+03 0.  0.
         23    2    1    2    0    0 -0.17834598400E+02  0.53984779450E+02  0.36774411848E+03  0.38509848727E+03  0.99159865416E+02 0.  0.
        -13    1    4    4    0    0 -0.31572600628E+01  0.32531572109E+02  0.35435479869E+03  0.35585896924E+03  0.10566000000E+00 0. -1.
         13    1    4    4    0    0 -0.14677338337E+02  0.21453207342E+02  0.13389319794E+02  0.29239518027E+02  0.10566000000E+00 0.  1.
    9000005    1    3    3    0    0  0.29125666011E+02 -0.24121737531E+02  0.43981973144E+03  0.44144372100E+03  0.10000000000E+01 0.  0.
    9000005    1    3    3    0    0 -0.11291067612E+02 -0.29863041919E+02  0.18295367759E+02  0.36810459953E+02  0.10000000000E+01 0.  0.
<mgrwt>
<rscale>  0 0.13116612E+03</rscale>
<asrwt>0</asrwt>
<pdfrwt beam="1">  1        1 0.12993936E+00 0.13732304E+03</pdfrwt>
<pdfrwt beam="2">  1       -1 0.28841119E-02 0.13732304E+03</pdfrwt>
<totfact> 0.81678587E+03</totfact>
</mgrwt>
</event>
<event>
 8    3  0.1560846E-003  0.1327450E+03  0.7818608E-02  0.1236486E+00
          1   -1    0    0  501    0  0.00000000000E+00  0.00000000000E+00  0.29866011894E+02  0.29866012320E+02  0.50400000000E-02 0. -1.
         -1   -1    0    0    0  501 -0.00000000000E+00 -0.00000000000E+00 -0.48101585036E+03  0.48101585039E+03  0.50400000000E-02 0.  1.
         25    2    1    2    0    0  0.15794363202E+02  0.41794450713E+02 -0.30871105432E+03  0.33604129717E+03  0.12500000130E+03 0.  0.
         23    2    1    2    0    0 -0.15794363202E+02 -0.41794450713E+02 -0.14243878414E+03  0.17484056554E+03  0.91017460463E+02 0.  0.
        -13    1    4    4    0    0  0.55063324985E+01  0.20386104077E+02 -0.84896741719E+02  0.87483603353E+02  0.10566000000E+00 0.  1.
         13    1    4    4    0    0 -0.21300695701E+02 -0.62180554791E+02 -0.57542042425E+02  0.87356962184E+02  0.10566000000E+00 0. -1.
    9000005    1    3    3    0    0 -0.16884934703E+02 -0.34129941744E+02 -0.41479224720E+02  0.56315894974E+02  0.10000000000E+01 0.  0.
    9000005    1    3    3    0    0  0.32679297905E+02  0.75924392457E+02 -0.26723182960E+03  0.27972540220E+03  0.10000000000E+01 0.  0.
<mgrwt>
<rscale>  0 0.12409806E+03</rscale>
<asrwt>0</asrwt>
<pdfrwt beam="1">  1        1 0.45947714E-02 0.13274501E+03</pdfrwt>
<pdfrwt beam="2">  1       -1 0.74002433E-01 0.13274501E+03</pdfrwt>
<totfact> 0.34442276E+03</totfact>
</mgrwt>
</event>
<event>
 8    3  0.1560846E-003  0.1426518E+03  0.7818608E-02  0.1221054E+00
         -1   -1    0    0    0  501 -0.00000000000E+00  0.00000000000E+00  0.16677086541E+02  0.16677087302E+02  0.50400000000E-02 0.  1.
          1   -1    0    0  501    0  0.00000000000E+00 -0.00000000000E+00 -0.97773630155E+03  0.97773630156E+03  0.50400000000E-02 0. -1.
         25    2    1    2    0    0 -0.61587617316E+02  0.30520223695E+02 -0.51339946117E+03  0.53284944433E+03  0.12500001971E+03 0.  0.
         23    2    1    2    0    0  0.61587617316E+02 -0.30520223695E+02 -0.44765975384E+03  0.46156394454E+03  0.88980340702E+02 0.  0.
        -13    1    4    4    0    0  0.33916287252E+02  0.14705062222E+01 -0.43414341815E+02  0.55111642770E+02  0.10566000000E+00 0.  1.
         13    1    4    4    0    0  0.27671330063E+02 -0.31990729918E+02 -0.40424541202E+03  0.40645230177E+03  0.10566000000E+00 0. -1.
    9000005    1    3    3    0    0 -0.81224358868E+02  0.50189599550E+02 -0.24399543750E+03  0.26201367502E+03  0.10000000000E+01 0.  0.
    9000005    1    3    3    0    0  0.19636741552E+02 -0.19669375854E+02 -0.26940402368E+03  0.27083576931E+03  0.10000000000E+01 0.  0.
<mgrwt>
<rscale>  0 0.13441103E+03</rscale>
<asrwt>0</asrwt>
<pdfrwt beam="2">  1        1 0.15042092E+00 0.14265176E+03</pdfrwt>
<pdfrwt beam="1">  1       -1 0.25657064E-02 0.14265176E+03</pdfrwt>
<totfact> 0.76720323E+03</totfact>
</mgrwt>
</event>
<event>
 8    3  0.1560846E-003  0.1303316E+03  0.7818608E-02  0.1240672E+00
         -1   -1    0    0    0  501 -0.00000000000E+00  0.00000000000E+00  0.26980584086E+03  0.26980584091E+03  0.50400000000E-02 0.  1.
          1   -1    0    0  501    0  0.00000000000E+00 -0.00000000000E+00 -0.62149970066E+02  0.62149970271E+02  0.50400000000E-02 0. -1.
         25    2    1    2    0    0 -0.36550788229E+02 -0.50798070760E+01  0.37860631710E+02  0.13571941681E+03  0.12499827241E+03 0.  0.
         23    2    1    2    0    0  0.36550788229E+02  0.50798070760E+01  0.16979523908E+03  0.19623639436E+03  0.91195036586E+02 0.  0.
        -13    1    4    4    0    0  0.70148588350E+01 -0.44744980014E+01 -0.10438244887E+02  0.13349063533E+02  0.10566000000E+00 0. -1.
         13    1    4    4    0    0  0.29535929394E+02  0.95543050775E+01  0.18023348397E+03  0.18288733083E+03  0.10566000000E+00 0.  1.
    9000005    1    3    3    0    0  0.27241040291E+02 -0.46448670267E+02  0.10249089228E+02  0.54823326018E+02  0.10000000000E+01 0.  0.
    9000005    1    3    3    0    0 -0.63791828519E+02  0.41368863191E+02  0.27611542482E+02  0.80896090794E+02  0.10000000000E+01 0.  0.
<mgrwt>
<rscale>  0 0.12148209E+03</rscale>
<asrwt>0</asrwt>
<pdfrwt beam="2">  1        1 0.95615340E-02 0.13033163E+03</pdfrwt>
<pdfrwt beam="1">  1       -1 0.41508590E-01 0.13033163E+03</pdfrwt>
<totfact> 0.37704651E+03</totfact>
</mgrwt>
</event>
<event>
 8    3  0.1560846E-003  0.1306381E+03  0.7818608E-02  0.1240654E+00
         -1   -1    0    0    0  501 -0.00000000000E+00  0.00000000000E+00  0.12705294723E+02  0.12705295723E+02  0.50400000000E-02 0.  1.
          1   -1    0    0  501    0  0.00000000000E+00 -0.00000000000E+00 -0.11720212768E+04  0.11720212768E+04  0.50400000000E-02 0. -1.
         25    2    1    2    0    0  0.68337306931E+01 -0.37339518820E+02 -0.44571849504E+03  0.46446882697E+03  0.12500149948E+03 0.  0.
         23    2    1    2    0    0 -0.68337306931E+01  0.37339518820E+02 -0.71359748700E+03  0.72025774552E+03  0.90049469658E+02 0.  0.
        -13    1    4    4    0    0 -0.47289582252E+02  0.29379489864E+02 -0.45509337962E+03  0.45848604597E+03  0.10566000000E+00 0. -1.
         13    1    4    4    0    0  0.40455851559E+02  0.79600289560E+01 -0.25850410738E+03  0.26177169955E+03  0.10566000000E+00 0.  1.
    9000005    1    3    3    0    0  0.14972701881E+02 -0.65657865807E+02 -0.41993899935E+03  0.42530565517E+03  0.10000000000E+01 0.  0.
    9000005    1    3    3    0    0 -0.81389711882E+01  0.28318346987E+02 -0.25779495687E+02  0.39163171806E+02  0.10000000000E+01 0.  0.
<mgrwt>
<rscale>  0 0.12149319E+03</rscale>
<asrwt>0</asrwt>
<pdfrwt beam="2">  1        1 0.18031088E+00 0.13063810E+03</pdfrwt>
<pdfrwt beam="1">  1       -1 0.19546617E-02 0.13063810E+03</pdfrwt>
<totfact> 0.82323584E+03</totfact>
</mgrwt>
</event>
<event>
 8    3  0.1560846E-003  0.1411395E+03  0.7818608E-02  0.1223146E+00
         -1   -1    0    0    0  501 -0.00000000000E+00  0.00000000000E+00  0.27856224429E+02  0.27856224884E+02  0.50400000000E-02 0.  1.
          1   -1    0    0  501    0  0.00000000000E+00 -0.00000000000E+00 -0.59456325219E+03  0.59456325221E+03  0.50400000000E-02 0. -1.
         25    2    1    2    0    0 -0.60522693698E+02 -0.25192149742E+02 -0.37716392290E+03  0.40270708618E+03  0.12499092630E+03 0.  0.
         23    2    1    2    0    0  0.60522693698E+02  0.25192149742E+02 -0.18954310486E+03  0.21971239092E+03  0.89717920519E+02 0.  0.
        -13    1    4    4    0    0  0.69284842440E+02 -0.13571105100E+02 -0.10847490246E+03  0.12942712202E+03  0.10566000000E+00 0. -1.
         13    1    4    4    0    0 -0.87621487421E+01  0.38763254841E+02 -0.81068202399E+02  0.90285268902E+02  0.10566000000E+00 0.  1.
    9000005    1    3    3    0    0  0.20448747371E+02 -0.76925368799E+01 -0.63827329786E+01  0.22783012816E+02  0.10000000000E+01 0.  0.
    9000005    1    3    3    0    0 -0.80971441069E+02 -0.17499612862E+02 -0.37078118992E+03  0.37992407336E+03  0.10000000000E+01 0.  0.
<mgrwt>
<rscale>  0 0.13294790E+03</rscale>
<asrwt>0</asrwt>
<pdfrwt beam="2">  1        1 0.91471260E-01 0.14113955E+03</pdfrwt>
<pdfrwt beam="1">  1       -1 0.42855735E-02 0.14113955E+03</pdfrwt>
<totfact> 0.76012523E+03</totfact>
</mgrwt>
</event>
<event>
 8    3  0.1560846E-003  0.1479310E+03  0.7818608E-02  0.1212830E+00
         -1   -1    0    0    0  501 -0.00000000000E+00  0.00000000000E+00  0.11513069299E+02  0.11513070402E+02  0.50400000000E-02 0.  1.
          1   -1    0    0  501    0  0.00000000000E+00 -0.00000000000E+00 -0.16726485072E+04  0.16726485072E+04  0.50400000000E-02 0. -1.
         25    2    1    2    0    0 -0.73449320008E+02 -0.29447067108E+02 -0.69211655260E+03  0.70774918438E+03  0.12498661224E+03 0.  0.
         23    2    1    2    0    0  0.73449320008E+02  0.29447067108E+02 -0.96901888532E+03  0.97641239325E+03  0.90120082165E+02 0.  0.
        -13    1    4    4    0    0  0.20948531639E+02 -0.31350640714E+02 -0.23419555031E+03  0.23721144703E+03  0.10566000000E+00 0.  1.
         13    1    4    4    0    0  0.52500788370E+02  0.60797707822E+02 -0.73482333501E+03  0.73920094622E+03  0.10566000000E+00 0. -1.
    9000005    1    3    3    0    0  0.92435500823E+01 -0.36289516634E+02 -0.63866404351E+02  0.74042486725E+02  0.10000000000E+01 0.  0.
    9000005    1    3    3    0    0 -0.82692870091E+02  0.68424495269E+01 -0.62825014825E+03  0.63370669766E+03  0.10000000000E+01 0.  0.
<mgrwt>
<rscale>  0 0.14037111E+03</rscale>
<asrwt>0</asrwt>
<pdfrwt beam="2">  1        1 0.25733035E+00 0.14793102E+03</pdfrwt>
<pdfrwt beam="1">  1       -1 0.17712428E-02 0.14793102E+03</pdfrwt>
<totfact> 0.44626657E+03</totfact>
</mgrwt>
</event>
<event>
 8    3  0.1560846E-003  0.1303436E+03  0.7818608E-02  0.1240653E+00
          1   -1    0    0  501    0  0.00000000000E+00  0.00000000000E+00  0.29241988941E+03  0.29241988945E+03  0.50400000000E-02 0.  1.
         -1   -1    0    0    0  501 -0.00000000000E+00 -0.00000000000E+00 -0.46174141250E+02  0.46174141525E+02  0.50400000000E-02 0. -1.
         25    2    1    2    0    0 -0.73762502645E+01  0.36205777820E+02  0.11012235213E+03  0.17063526880E+03  0.12499678037E+03 0.  0.
         23    2    1    2    0    0  0.73762502645E+01 -0.36205777820E+02  0.13612339603E+03  0.16795876218E+03  0.91188263668E+02 0.  0.
        -13    1    4    4    0    0  0.45966445506E+02 -0.91250773402E+00  0.67809660656E+02  0.81926235267E+02  0.10566000000E+00 0.  1.
         13    1    4    4    0    0 -0.38590195242E+02 -0.35293270086E+02  0.68313735376E+02  0.86032526914E+02  0.10566000000E+00 0. -1.
    9000005    1    3    3    0    0  0.51999026351E+02  0.23681648787E+02  0.90162409499E+02  0.10674726843E+03  0.10000000000E+01 0.  0.
    9000005    1    3    3    0    0 -0.59375276615E+02  0.12524129033E+02  0.19959942630E+02  0.63888000367E+02  0.10000000000E+01 0.  0.
<mgrwt>
<rscale>  0 0.12149404E+03</rscale>
<asrwt>0</asrwt>
<pdfrwt beam="1">  1        1 0.44987675E-01 0.13034363E+03</pdfrwt>
<pdfrwt beam="2">  1       -1 0.71037141E-02 0.13034363E+03</pdfrwt>
<totfact> 0.88371339E+03</totfact>
</mgrwt>
</event>
<event>
 8    3  0.1560846E-003  0.1487840E+03  0.7818608E-02  0.1211554E+00
         -1   -1    0    0    0  501 -0.00000000000E+00  0.00000000000E+00  0.38434218699E+03  0.38434218702E+03  0.50400000000E-02 0.  1.
          1   -1    0    0  501    0  0.00000000000E+00 -0.00000000000E+00 -0.10322286375E+03  0.10322286388E+03  0.50400000000E-02 0. -1.
         25    2    1    2    0    0  0.77948832747E+02  0.20855295566E+02 -0.31691680856E+02  0.15212178407E+03  0.12500284266E+03 0.  0.
         23    2    1    2    0    0 -0.77948832747E+02 -0.20855295566E+02  0.31281100409E+03  0.33544326683E+03  0.90335469779E+02 0.  0.
        -13    1    4    4    0    0 -0.10757216415E+02 -0.30171156697E+02  0.20895963692E+03  0.21140046695E+03  0.10566000000E+00 0.  1.
         13    1    4    4    0    0 -0.67191616332E+02  0.93158611310E+01  0.10385136717E+03  0.12404279988E+03  0.10566000000E+00 0. -1.
    9000005    1    3    3    0    0  0.56506880439E+02 -0.22747821458E+02  0.34493518907E+02  0.70009240566E+02  0.10000000000E+01 0.  0.
    9000005    1    3    3    0    0  0.21441952308E+02  0.43603117024E+02 -0.66185199764E+02  0.82112543504E+02  0.10000000000E+01 0.  0.
<mgrwt>
<rscale>  0 0.14132738E+03</rscale>
<asrwt>0</asrwt>
<pdfrwt beam="2">  1        1 0.15880440E-01 0.14878399E+03</pdfrwt>
<pdfrwt beam="1">  1       -1 0.59129569E-01 0.14878399E+03</pdfrwt>
<totfact> 0.10219370E+03</totfact>
</mgrwt>
</event>
<event>
 8    3  0.1560846E-003  0.1273868E+03  0.7818608E-02  0.1245641E+00
          1   -1    0    0  501    0  0.00000000000E+00  0.00000000000E+00  0.10667181441E+02  0.10667182632E+02  0.50400000000E-02 0. -1.
         -1   -1    0    0    0  501 -0.00000000000E+00 -0.00000000000E+00 -0.11670142992E+04  0.11670142992E+04  0.50400000000E-02 0.  1.
         25    2    1    2    0    0 -0.13615073875E+02  0.20426445847E+02 -0.62355694728E+03  0.63643590957E+03  0.12499916223E+03 0.  0.
         23    2    1    2    0    0  0.13615073875E+02 -0.20426445847E+02 -0.53279017049E+03  0.54124557229E+03  0.92080366114E+02 0.  0.
        -13    1    4    4    0    0 -0.21525724772E+02  0.28081043608E+02 -0.19319518445E+03  0.19640848326E+03  0.10566000000E+00 0.  1.
         13    1    4    4    0    0  0.35140798647E+02 -0.48507489455E+02 -0.33959498604E+03  0.34483708903E+03  0.10566000000E+00 0. -1.
    9000005    1    3    3    0    0 -0.36968040052E+02  0.36054637322E+02 -0.59168070381E+03  0.59393065935E+03  0.10000000000E+01 0.  0.
    9000005    1    3    3    0    0  0.23352966177E+02 -0.15628191475E+02 -0.31876243472E+02  0.42505250216E+02  0.10000000000E+01 0.  0.
<mgrwt>
<rscale>  0 0.11847112E+03</rscale>
<asrwt>0</asrwt>
<pdfrwt beam="1">  1        1 0.16411059E-02 0.12738681E+03</pdfrwt>
<pdfrwt beam="2">  1       -1 0.17954056E+00 0.12738681E+03</pdfrwt>
<totfact> 0.17867130E+03</totfact>
</mgrwt>
</event>
<event>
 8    3  0.1560846E-003  0.1279538E+03  0.7818608E-02  0.1244940E+00
          1   -1    0    0  501    0  0.00000000000E+00  0.00000000000E+00  0.61716750281E+03  0.61716750283E+03  0.50400000000E-02 0. -1.
         -1   -1    0    0    0  501 -0.00000000000E+00 -0.00000000000E+00 -0.25096246653E+02  0.25096247159E+02  0.50400000000E-02 0.  1.
         25    2    1    2    0    0  0.27334278814E+02  0.11844474097E+01  0.19022332041E+03  0.22925331302E+03  0.12499441663E+03 0.  0.
         23    2    1    2    0    0 -0.27334278814E+02 -0.11844474097E+01  0.40184793575E+03  0.41301043697E+03  0.91363514968E+02 0.  0.
        -13    1    4    4    0    0  0.19861794642E+02  0.10807960321E+02  0.29174019943E+03  0.29261520470E+03  0.10566000000E+00 0.  1.
         13    1    4    4    0    0 -0.47196073456E+02 -0.11992407731E+02  0.11010773632E+03  0.12039523227E+03  0.10566000000E+00 0. -1.
    9000005    1    3    3    0    0  0.14642899696E+02  0.56860282098E+02  0.14488192623E+03  0.15633067114E+03  0.10000000000E+01 0.  0.
    9000005    1    3    3    0    0  0.12691379118E+02 -0.55675834689E+02  0.45341394179E+02  0.72922641877E+02  0.10000000000E+01 0.  0.
<mgrwt>
<rscale>  0 0.11888999E+03</rscale>
<asrwt>0</asrwt>
<pdfrwt beam="1">  1        1 0.94948844E-01 0.12795378E+03</pdfrwt>
<pdfrwt beam="2">  1       -1 0.38609612E-02 0.12795378E+03</pdfrwt>
<totfact> 0.83696062E+03</totfact>
</mgrwt>
</event>
<event>
 8    3  0.1560846E-003  0.1733747E+03  0.7818608E-02  0.1180633E+00
          1   -1    0    0  501    0  0.00000000000E+00  0.00000000000E+00  0.59373021146E+03  0.59373021148E+03  0.50400000000E-02 0. -1.
         -1   -1    0    0    0  501 -0.00000000000E+00 -0.00000000000E+00 -0.45520804739E+02  0.45520805018E+02  0.50400000000E-02 0.  1.
         25    2    1    2    0    0  0.57668500963E+02  0.10539646987E+03  0.34768728277E+03  0.38851669454E+03  0.12499881388E+03 0.  0.
         23    2    1    2    0    0 -0.57668500963E+02 -0.10539646987E+03  0.20052212396E+03  0.25073432196E+03  0.90689063012E+02 0.  0.
        -13    1    4    4    0    0 -0.26741613576E+02 -0.74513790594E+02  0.18992148897E+03  0.20576103135E+03  0.10566000000E+00 0. -1.
         13    1    4    4    0    0 -0.30926887387E+02 -0.30882679278E+02  0.10600634990E+02  0.44973290618E+02  0.10566000000E+00 0.  1.
    9000005    1    3    3    0    0 -0.27083368889E+01  0.10476134102E+03  0.27328886997E+03  0.29269451670E+03  0.10000000000E+01 0.  0.
    9000005    1    3    3    0    0  0.60376837851E+02  0.63512885228E+00  0.74398412802E+02  0.95822177835E+02  0.10000000000E+01 0.  0.
<mgrwt>
<rscale>  0 0.16735678E+03</rscale>
<asrwt>0</asrwt>
<pdfrwt beam="1">  1        1 0.91343113E-01 0.17337467E+03</pdfrwt>
<pdfrwt beam="2">  1       -1 0.70032005E-02 0.17337467E+03</pdfrwt>
<totfact> 0.36999832E+03</totfact>
</mgrwt>
</event>
<event>
 8    3  0.1560846E-003  0.1253607E+03  0.7818608E-02  0.1247504E+00
         -1   -1    0    0    0  501 -0.00000000000E+00  0.00000000000E+00  0.37754633515E+02  0.37754633852E+02  0.50400000000E-02 0.  1.
          1   -1    0    0  501    0  0.00000000000E+00 -0.00000000000E+00 -0.33730481229E+03  0.33730481232E+03  0.50400000000E-02 0. -1.
         25    2    1    2    0    0  0.19946216299E+01 -0.92269006606E+01 -0.20363942269E+03  0.23913242471E+03  0.12500475136E+03 0.  0.
         23    2    1    2    0    0 -0.19946216299E+01  0.92269006606E+01 -0.95910756079E+02  0.13592702146E+03  0.95854931125E+02 0.  0.
        -13    1    4    4    0    0 -0.18605034705E+02  0.14730302543E+02 -0.11057715354E+03  0.11309485921E+03  0.10566000000E+00 0. -1.
         13    1    4    4    0    0  0.16610413075E+02 -0.55034018827E+01  0.14666397462E+02  0.22832162258E+02  0.10566000000E+00 0.  1.
    9000005    1    3    3    0    0 -0.54630143597E+02  0.12940603407E+02 -0.14126574836E+03  0.15201619474E+03  0.10000000000E+01 0.  0.
    9000005    1    3    3    0    0  0.56624765227E+02 -0.22167504068E+02 -0.62373674335E+02  0.87116229967E+02  0.10000000000E+01 0.  0.
<mgrwt>
<rscale>  0 0.11736771E+03</rscale>
<asrwt>0</asrwt>
<pdfrwt beam="2">  1        1 0.51893046E-01 0.12536069E+03</pdfrwt>
<pdfrwt beam="1">  1       -1 0.58084054E-02 0.12536069E+03</pdfrwt>
<totfact> 0.99693490E+03</totfact>
</mgrwt>
</event>
<event>
 8    3  0.1560846E-003  0.1992087E+03  0.7818608E-02  0.1154957E+00
          1   -1    0    0  501    0  0.00000000000E+00  0.00000000000E+00  0.48096699578E+03  0.48096699581E+03  0.50400000000E-02 0.  1.
         -1   -1    0    0    0  501 -0.00000000000E+00 -0.00000000000E+00 -0.78912063595E+02  0.78912063756E+02  0.50400000000E-02 0. -1.
         25    2    1    2    0    0 -0.11271082284E+03  0.10655779759E+03  0.27853421985E+03  0.34244039367E+03  0.12500327107E+03 0.  0.
         23    2    1    2    0    0  0.11271082284E+03 -0.10655779759E+03  0.12352071234E+03  0.21743866589E+03  0.89240759946E+02 0.  0.
        -13    1    4    4    0    0  0.33610586280E+02 -0.39331143832E+02  0.97565961546E+02  0.11043431714E+03  0.10566000000E+00 0. -1.
         13    1    4    4    0    0  0.79100236564E+02 -0.67226653759E+02  0.25954750793E+02  0.10700434876E+03  0.10566000000E+00 0.  1.
    9000005    1    3    3    0    0 -0.19505151827E+01  0.19255087959E+02  0.15117318808E+03  0.15241028744E+03  0.10000000000E+01 0.  0.
    9000005    1    3    3    0    0 -0.11076030766E+03  0.87302709631E+02  0.12736103176E+03  0.19003010623E+03  0.10000000000E+01 0.  0.
<mgrwt>
<rscale>  0 0.19393789E+03</rscale>
<asrwt>0</asrwt>
<pdfrwt beam="1">  1        1 0.73994921E-01 0.19920871E+03</pdfrwt>
<pdfrwt beam="2">  1       -1 0.12140318E-01 0.19920871E+03</pdfrwt>
<totfact> 0.21203294E+03</totfact>
</mgrwt>
</event>
<event>
 8    3  0.1560846E-003  0.1390540E+03  0.7818608E-02  0.1224889E+00
         -1   -1    0    0    0  501 -0.00000000000E+00  0.00000000000E+00  0.34648019443E+02  0.34648019810E+02  0.50400000000E-02 0.  1.
          1   -1    0    0  501    0  0.00000000000E+00 -0.00000000000E+00 -0.46052637761E+03  0.46052637764E+03  0.50400000000E-02 0. -1.
         25    2    1    2    0    0  0.59830856875E+02  0.11269958151E+02 -0.20844036899E+03  0.25056616967E+03  0.12501709711E+03 0.  0.
         23    2    1    2    0    0 -0.59830856875E+02 -0.11269958151E+02 -0.21743798918E+03  0.24460822778E+03  0.94059356614E+02 0.  0.
        -13    1    4    4    0    0 -0.36803807462E+02 -0.50576199513E+02 -0.15640457376E+03  0.16844843145E+03  0.10566000000E+00 0. -1.
         13    1    4    4    0    0 -0.23027049413E+02  0.39306241362E+02 -0.61033415419E+02  0.76159796326E+02  0.10566000000E+00 0.  1.
    9000005    1    3    3    0    0 -0.26436664595E+02  0.31275629542E+02 -0.28167341373E+02  0.49713794446E+02  0.10000000000E+01 0.  0.
    9000005    1    3    3    0    0  0.86267521470E+02 -0.20005671391E+02 -0.18027302762E+03  0.20085237523E+03  0.10000000000E+01 0.  0.
<mgrwt>
<rscale>  0 0.13174526E+03</rscale>
<asrwt>0</asrwt>
<pdfrwt beam="2">  1        1 0.70850208E-01 0.13905401E+03</pdfrwt>
<pdfrwt beam="1">  1       -1 0.53304649E-02 0.13905401E+03</pdfrwt>
<totfact> 0.77056079E+03</totfact>
</mgrwt>
</event>
<event>
 8    3  0.1560846E-003  0.1890713E+03  0.7818608E-02  0.1163961E+00
         -1   -1    0    0    0  501 -0.00000000000E+00  0.00000000000E+00  0.10411057792E+02  0.10411059012E+02  0.50400000000E-02 0.  1.
          1   -1    0    0  501    0  0.00000000000E+00 -0.00000000000E+00 -0.31844875871E+04  0.31844875871E+04  0.50400000000E-02 0. -1.
         25    2    1    2    0    0 -0.17353597144E+02 -0.14078415420E+03 -0.13965151085E+04  0.14092559727E+04  0.12500649142E+03 0.  0.
         23    2    1    2    0    0  0.17353597144E+02  0.14078415420E+03 -0.17775614208E+04  0.17856426734E+04  0.93133382811E+02 0.  0.
        -13    1    4    4    0    0  0.49974614267E+02  0.12205921647E+03 -0.13474548540E+04  0.13538945710E+04  0.10566000000E+00 0.  1.
         13    1    4    4    0    0 -0.32621017123E+02  0.18724937731E+02 -0.43010656673E+03  0.43174810244E+03  0.10566000000E+00 0. -1.
    9000005    1    3    3    0    0 -0.32118948275E+02  0.40380592716E+01 -0.49540225796E+03  0.49645979692E+03  0.10000000000E+01 0.  0.
    9000005    1    3    3    0    0  0.14765351131E+02 -0.14482221347E+03 -0.90111285058E+03  0.91279617582E+03  0.10000000000E+01 0.  0.
<mgrwt>
<rscale>  0 0.18402808E+03</rscale>
<asrwt>0</asrwt>
<pdfrwt beam="2">  1        1 0.48992039E+00 0.18907128E+03</pdfrwt>
<pdfrwt beam="1">  1       -1 0.16017038E-02 0.18907128E+03</pdfrwt>
<totfact> 0.51661706E+02</totfact>
</mgrwt>
</event>
<event>
 8    3  0.1560846E-003  0.1266841E+03  0.7818608E-02  0.1245081E+00
          1   -1    0    0  501    0  0.00000000000E+00  0.00000000000E+00  0.92479516222E+03  0.92479516224E+03  0.50400000000E-02 0. -1.
         -1   -1    0    0    0  501 -0.00000000000E+00 -0.00000000000E+00 -0.16423423619E+02  0.16423424393E+02  0.50400000000E-02 0.  1.
         25    2    1    2    0    0  0.11786379124E+02  0.16878258146E+02  0.31015692520E+03  0.33503162358E+03  0.12500030487E+03 0.  0.
         23    2    1    2    0    0 -0.11786379124E+02 -0.16878258146E+02  0.59821481341E+03  0.60618696305E+03  0.95801236242E+02 0.  0.
        -13    1    4    4    0    0  0.20071777469E+02 -0.31358829335E+02  0.99371298497E+02  0.10611747527E+03  0.10566000000E+00 0.  1.
         13    1    4    4    0    0 -0.31858156593E+02  0.14480571188E+02  0.49884351491E+03  0.50006948779E+03  0.10566000000E+00 0. -1.
    9000005    1    3    3    0    0 -0.12832452350E+01  0.70172231202E+02  0.14714705928E+03  0.16303081244E+03  0.10000000000E+01 0.  0.
    9000005    1    3    3    0    0  0.13069624359E+02 -0.53293973056E+02  0.16300986592E+03  0.17200081114E+03  0.10000000000E+01 0.  0.
<mgrwt>
<rscale>  0 0.11880509E+03</rscale>
<asrwt>0</asrwt>
<pdfrwt beam="1">  1        1 0.14227616E+00 0.12668414E+03</pdfrwt>
<pdfrwt beam="2">  1       -1 0.25266809E-02 0.12668414E+03</pdfrwt>
<totfact> 0.85390830E+03</totfact>
</mgrwt>
</event>
<event>
 8    3  0.1560846E-003  0.1396839E+03  0.7818608E-02  0.1226684E+00
         -1   -1    0    0    0  501 -0.00000000000E+00  0.00000000000E+00  0.37798995220E+02  0.37798995556E+02  0.50400000000E-02 0.  1.
          1   -1    0    0  501    0  0.00000000000E+00 -0.00000000000E+00 -0.41503374742E+03  0.41503374745E+03  0.50400000000E-02 0. -1.
         25    2    1    2    0    0 -0.61873849894E+02 -0.76089955377E+01 -0.25474663442E+03  0.29052959952E+03  0.12500132132E+03 0.  0.
         23    2    1    2    0    0  0.61873849894E+02  0.76089955377E+01 -0.12248811778E+03  0.16230314349E+03  0.86329029162E+02 0.  0.
        -13    1    4    4    0    0  0.64152530402E+02  0.16317384650E+02 -0.36006759007E+02  0.75354509201E+02  0.10566000000E+00 0.  1.
         13    1    4    4    0    0 -0.22786805078E+01 -0.87083891124E+01 -0.86481358769E+02  0.86948634287E+02  0.10566000000E+00 0. -1.
    9000005    1    3    3    0    0 -0.57343816931E+02 -0.86742318622E+01 -0.26916594548E+03  0.27534498696E+03  0.10000000000E+01 0.  0.
    9000005    1    3    3    0    0 -0.45300329630E+01  0.10652363245E+01  0.14419311058E+02  0.15184612556E+02  0.10000000000E+01 0.  0.
<mgrwt>
<rscale>  0 0.13052135E+03</rscale>
<asrwt>0</asrwt>
<pdfrwt beam="2">  1        1 0.63851343E-01 0.13968393E+03</pdfrwt>
<pdfrwt beam="1">  1       -1 0.58152303E-02 0.13968393E+03</pdfrwt>
<totfact> 0.77339948E+03</totfact>
</mgrwt>
</event>
<event>
 8    3  0.1560846E-003  0.1758844E+03  0.7818608E-02  0.1177759E+00
          1   -1    0    0  501    0  0.00000000000E+00  0.00000000000E+00  0.28792573928E+03  0.28792573932E+03  0.50400000000E-02 0. -1.
         -1   -1    0    0    0  501 -0.00000000000E+00 -0.00000000000E+00 -0.10432684665E+03  0.10432684677E+03  0.50400000000E-02 0.  1.
         25    2    1    2    0    0  0.12366048997E+03 -0.44518164060E+01  0.15779369405E+03  0.23629259069E+03  0.12499441221E+03 0.  0.
         23    2    1    2    0    0 -0.12366048997E+03  0.44518164060E+01  0.25805198580E+02  0.15595999540E+03  0.91355768538E+02 0.  0.
        -13    1    4    4    0    0 -0.73271753278E+02 -0.26614613527E+02 -0.20727439219E+02  0.80664275750E+02  0.10566000000E+00 0.  1.
         13    1    4    4    0    0 -0.50388736687E+02  0.31066429933E+02  0.46532637799E+02  0.75295719654E+02  0.10566000000E+00 0. -1.
    9000005    1    3    3    0    0 -0.74734917278E+01 -0.16219643543E+01 -0.16466437299E+02  0.18183162659E+02  0.10000000000E+01 0.  0.
    9000005    1    3    3    0    0  0.13113398169E+03 -0.28298520517E+01  0.17426013135E+03  0.21810942803E+03  0.10000000000E+01 0.  0.
<mgrwt>
<rscale>  0 0.17008536E+03</rscale>
<asrwt>0</asrwt>
<pdfrwt beam="1">  1        1 0.44296267E-01 0.17588445E+03</pdfrwt>
<pdfrwt beam="2">  1       -1 0.16050284E-01 0.17588445E+03</pdfrwt>
<totfact> 0.26136393E+03</totfact>
</mgrwt>
</event>
<event>
 8    3  0.1560846E-003  0.1376969E+03  0.7818608E-02  0.1227139E+00
          1   -1    0    0  501    0  0.00000000000E+00  0.00000000000E+00  0.37155867391E+03  0.37155867394E+03  0.50400000000E-02 0. -1.
         -1   -1    0    0    0  501 -0.00000000000E+00 -0.00000000000E+00 -0.54678288859E+02  0.54678289092E+02  0.50400000000E-02 0.  1.
         25    2    1    2    0    0  0.56759873942E+02 -0.10715788683E+02  0.27660818184E+03  0.30898626469E+03  0.12499565628E+03 0.  0.
         23    2    1    2    0    0 -0.56759873942E+02  0.10715788683E+02  0.40272203209E+02  0.11725069835E+03  0.93751610622E+02 0.  0.
        -13    1    4    4    0    0 -0.49042679607E+02 -0.33009011793E+02  0.28538731888E+01  0.59185598238E+02  0.10566000000E+00 0.  1.
         13    1    4    4    0    0 -0.77171943351E+01  0.43724800475E+02  0.37418330021E+02  0.58065100108E+02  0.10566000000E+00 0. -1.
    9000005    1    3    3    0    0  0.89903449992E+02 -0.32528235648E+02  0.21971164363E+03  0.23961411223E+03  0.10000000000E+01 0.  0.
    9000005    1    3    3    0    0 -0.33143576050E+02  0.21812446965E+02  0.56896538213E+02  0.69372152458E+02  0.10000000000E+01 0.  0.
<mgrwt>
<rscale>  0 0.13021385E+03</rscale>
<asrwt>0</asrwt>
<pdfrwt beam="1">  1        1 0.57162873E-01 0.13769686E+03</pdfrwt>
<pdfrwt beam="2">  1       -1 0.84120444E-02 0.13769686E+03</pdfrwt>
<totfact> 0.51050938E+03</totfact>
</mgrwt>
</event>
<event>
 8    3  0.1560846E-003  0.1617410E+03  0.7818608E-02  0.1194399E+00
         -1   -1    0    0    0  501 -0.00000000000E+00  0.00000000000E+00  0.17420177392E+02  0.17420178121E+02  0.50400000000E-02 0.  1.
          1   -1    0    0  501    0  0.00000000000E+00 -0.00000000000E+00 -0.12950499917E+04  0.12950499917E+04  0.50400000000E-02 0. -1.
         25    2    1    2    0    0  0.14114001978E+02  0.10166372978E+03 -0.76835563306E+03  0.78519457255E+03  0.12500167559E+03 0.  0.
         23    2    1    2    0    0 -0.14114001978E+02 -0.10166372978E+03 -0.50927418124E+03  0.52727559727E+03  0.90136811560E+02 0.  0.
        -13    1    4    4    0    0 -0.51694247025E+02 -0.45979083384E+02 -0.24287019115E+03  0.25253180433E+03  0.10566000000E+00 0.  1.
         13    1    4    4    0    0  0.37580245046E+02 -0.55684646397E+02 -0.26640399009E+03  0.27474379294E+03  0.10566000000E+00 0. -1.
    9000005    1    3    3    0    0 -0.27000058304E+02  0.82897424257E+02 -0.68359243271E+03  0.68913032160E+03  0.10000000000E+01 0.  0.
    9000005    1    3    3    0    0  0.41114060283E+02  0.18766305523E+02 -0.84763200353E+02  0.96064250947E+02  0.10000000000E+01 0.  0.
<mgrwt>
<rscale>  0 0.15505191E+03</rscale>
<asrwt>0</asrwt>
<pdfrwt beam="2">  1        1 0.19923839E+00 0.16174096E+03</pdfrwt>
<pdfrwt beam="1">  1       -1 0.26800284E-02 0.16174096E+03</pdfrwt>
<totfact> 0.43322794E+03</totfact>
</mgrwt>
</event>
<event>
 8    3  0.1560846E-003  0.1282225E+03  0.7818608E-02  0.1245342E+00
         -1   -1    0    0    0  501 -0.00000000000E+00  0.00000000000E+00  0.80494947445E+02  0.80494947603E+02  0.50400000000E-02 0.  1.
          1   -1    0    0  501    0  0.00000000000E+00 -0.00000000000E+00 -0.21148645743E+03  0.21148645749E+03  0.50400000000E-02 0. -1.
         25    2    1    2    0    0  0.22240293954E+02 -0.17990171158E+02 -0.14866980066E+03  0.19632551262E+03  0.12499088104E+03 0.  0.
         23    2    1    2    0    0 -0.22240293954E+02  0.17990171158E+02  0.17678290680E+02  0.95655892471E+02  0.89550270070E+02 0.  0.
        -13    1    4    4    0    0 -0.10578023761E+02 -0.16425758484E+02  0.45743744508E+02  0.49741345519E+02  0.10566000000E+00 0.  1.
         13    1    4    4    0    0 -0.11662270194E+02  0.34415929642E+02 -0.28065453828E+02  0.45914546952E+02  0.10566000000E+00 0. -1.
    9000005    1    3    3    0    0 -0.34953781225E+02 -0.48629824885E+02 -0.94064814602E+02  0.11151599005E+03  0.10000000000E+01 0.  0.
    9000005    1    3    3    0    0  0.57194075180E+02  0.30639653727E+02 -0.54604986062E+02  0.84809522573E+02  0.10000000000E+01 0.  0.
<mgrwt>
<rscale>  0 0.11864909E+03</rscale>
<asrwt>0</asrwt>
<pdfrwt beam="2">  1        1 0.32536378E-01 0.12822245E+03</pdfrwt>
<pdfrwt beam="1">  1       -1 0.12383838E-01 0.12822245E+03</pdfrwt>
<totfact> 0.56602629E+03</totfact>
</mgrwt>
</event>
<event>
 8    3  0.1560846E-003  0.1306264E+03  0.7818608E-02  0.1239089E+00
         -1   -1    0    0    0  501 -0.00000000000E+00  0.00000000000E+00  0.45663301214E+02  0.45663301492E+02  0.50400000000E-02 0.  1.
          1   -1    0    0  501    0  0.00000000000E+00 -0.00000000000E+00 -0.31176107541E+03  0.31176107545E+03  0.50400000000E-02 0. -1.
         25    2    1    2    0    0  0.37725902558E+02 -0.39037993648E+01 -0.19205141963E+03  0.23226496119E+03  0.12499912416E+03 0.  0.
         23    2    1    2    0    0 -0.37725902558E+02  0.39037993648E+01 -0.74046354572E+02  0.12515941576E+03  0.93506862606E+02 0.  0.
        -13    1    4    4    0    0 -0.22041872647E+02 -0.53892651009E+01 -0.94833475377E+02  0.97510448385E+02  0.10566000000E+00 0. -1.
         13    1    4    4    0    0 -0.15684029911E+02  0.92930644657E+01  0.20787120805E+02  0.27648967374E+02  0.10566000000E+00 0.  1.
    9000005    1    3    3    0    0  0.22494607447E+01 -0.22097000557E+02 -0.19108205254E+03  0.19237122526E+03  0.10000000000E+01 0.  0.
    9000005    1    3    3    0    0  0.35476441813E+02  0.18193201192E+02 -0.96936708813E+00  0.39893735923E+02  0.10000000000E+01 0.  0.
<mgrwt>
<rscale>  0 0.12246233E+03</rscale>
<asrwt>0</asrwt>
<pdfrwt beam="2">  1        1 0.47963241E-01 0.13062643E+03</pdfrwt>
<pdfrwt beam="1">  1       -1 0.70251235E-02 0.13062643E+03</pdfrwt>
<totfact> 0.83028229E+03</totfact>
</mgrwt>
</event>
<event>
 8    3  0.1560846E-003  0.1296268E+03  0.7818608E-02  0.1243842E+00
          1   -1    0    0  501    0  0.00000000000E+00  0.00000000000E+00  0.23679203740E+04  0.23679203740E+04  0.50400000000E-02 0. -1.
         -1   -1    0    0    0  501 -0.00000000000E+00 -0.00000000000E+00 -0.68005310860E+01  0.68005329536E+01  0.50400000000E-02 0.  1.
         25    2    1    2    0    0  0.34119575955E+02  0.37975447498E+01  0.76959714403E+03  0.78043761521E+03  0.12499816133E+03 0.  0.
         23    2    1    2    0    0 -0.34119575955E+02 -0.37975447498E+01  0.15915226989E+04  0.15942832918E+04  0.87270536018E+02 0.  0.
        -13    1    4    4    0    0 -0.28075627071E+02 -0.20583493955E+02  0.15253627018E+04  0.15257599104E+04  0.10566000000E+00 0. -1.
         13    1    4    4    0    0 -0.60439488843E+01  0.16785949206E+02  0.66159997104E+02  0.68523381336E+02  0.10566000000E+00 0.  1.
    9000005    1    3    3    0    0  0.33888633089E+02 -0.58307811856E+02  0.41296197979E+03  0.41843379062E+03  0.10000000000E+01 0.  0.
    9000005    1    3    3    0    0  0.23094286662E+00  0.62105356606E+02  0.35663516423E+03  0.36200382460E+03  0.10000000000E+01 0.  0.
<mgrwt>
<rscale>  0 0.11954979E+03</rscale>
<asrwt>0</asrwt>
<pdfrwt beam="1">  1        1 0.36429573E+00 0.12962680E+03</pdfrwt>
<pdfrwt beam="2">  1       -1 0.10462349E-02 0.12962680E+03</pdfrwt>
<totfact> 0.34073358E+03</totfact>
</mgrwt>
</event>
<event>
 8    3  0.1560846E-003  0.2240432E+03  0.7818608E-02  0.1134187E+00
         -1   -1    0    0    0  501 -0.00000000000E+00  0.00000000000E+00  0.13300975381E+03  0.13300975390E+03  0.50400000000E-02 0.  1.
          1   -1    0    0  501    0  0.00000000000E+00 -0.00000000000E+00 -0.42386066016E+03  0.42386066019E+03  0.50400000000E-02 0. -1.
         25    2    1    2    0    0 -0.14926705237E+03  0.11085809252E+03 -0.26729109992E+03  0.34876913126E+03  0.12500082089E+03 0.  0.
         23    2    1    2    0    0  0.14926705237E+03 -0.11085809252E+03 -0.23559806427E+02  0.20810128283E+03  0.90448382168E+02 0.  0.
        -13    1    4    4    0    0  0.10212895333E+03 -0.38264714275E+02  0.20508317728E+02  0.11097348209E+03  0.10566000000E+00 0.  1.
         13    1    4    4    0    0  0.47138099035E+02 -0.72593378246E+02 -0.44068124155E+02  0.97127800739E+02  0.10566000000E+00 0. -1.
    9000005    1    3    3    0    0 -0.37537084987E+02  0.91783258010E+02 -0.70521186933E+02  0.12168581268E+03  0.10000000000E+01 0.  0.
    9000005    1    3    3    0    0 -0.11172996738E+03  0.19074834511E+02 -0.19676991299E+03  0.22708331859E+03  0.10000000000E+01 0.  0.
<mgrwt>
<rscale>  0 0.21959238E+03</rscale>
<asrwt>0</asrwt>
<pdfrwt beam="2">  1        1 0.65209332E-01 0.22404324E+03</pdfrwt>
<pdfrwt beam="1">  1       -1 0.20463039E-01 0.22404324E+03</pdfrwt>
<totfact> 0.10909444E+03</totfact>
</mgrwt>
</event>
<event>
 8    3  0.1560846E-003  0.1541977E+03  0.7818608E-02  0.1204832E+00
         -1   -1    0    0    0  501 -0.00000000000E+00  0.00000000000E+00  0.31791241789E+03  0.31791241793E+03  0.50400000000E-02 0.  1.
          1   -1    0    0  501    0  0.00000000000E+00 -0.00000000000E+00 -0.61616858301E+02  0.61616858507E+02  0.50400000000E-02 0. -1.
         25    2    1    2    0    0  0.17670194662E+02  0.88540583632E+02  0.13730560699E+03  0.20646972388E+03  0.12500098575E+03 0.  0.
         23    2    1    2    0    0 -0.17670194662E+02 -0.88540583632E+02  0.11898995260E+03  0.17305955256E+03  0.87403256132E+02 0.  0.
        -13    1    4    4    0    0 -0.38622009510E+02 -0.43452592694E+01  0.38665052356E+02  0.54822790283E+02  0.10566000000E+00 0. -1.
         13    1    4    4    0    0  0.20951814848E+02 -0.84195324362E+02  0.80324900243E+02  0.11823676227E+03  0.10566000000E+00 0.  1.
    9000005    1    3    3    0    0  0.25543006727E+02  0.47863856945E+01 -0.16753785625E+02  0.30936127964E+02  0.10000000000E+01 0.  0.
    9000005    1    3    3    0    0 -0.78728120651E+01  0.83754197937E+02  0.15405939261E+03  0.17553359591E+03  0.10000000000E+01 0.  0.
<mgrwt>
<rscale>  0 0.14650739E+03</rscale>
<asrwt>0</asrwt>
<pdfrwt beam="2">  1        1 0.94795166E-02 0.15419766E+03</pdfrwt>
<pdfrwt beam="1">  1       -1 0.48909603E-01 0.15419766E+03</pdfrwt>
<totfact> 0.28684346E+03</totfact>
</mgrwt>
</event>
<event>
 8    3  0.1560846E-003  0.1930316E+03  0.7818608E-02  0.1160418E+00
          1   -1    0    0  501    0  0.00000000000E+00  0.00000000000E+00  0.21217197908E+04  0.21217197908E+04  0.50400000000E-02 0. -1.
         -1   -1    0    0    0  501 -0.00000000000E+00 -0.00000000000E+00 -0.32988341564E+02  0.32988341949E+02  0.50400000000E-02 0.  1.
         25    2    1    2    0    0  0.14047060544E+03  0.43654994911E+02  0.18487798036E+04  0.18588297297E+04  0.12499380989E+03 0.  0.
         23    2    1    2    0    0 -0.14047060544E+03 -0.43654994911E+02  0.23995164571E+03  0.29587840305E+03  0.91266026220E+02 0.  0.
        -13    1    4    4    0    0 -0.86593747669E+02 -0.71530093440E+02  0.16127946183E+03  0.19653525733E+03  0.10566000000E+00 0.  1.
         13    1    4    4    0    0 -0.53876857774E+02  0.27875098529E+02  0.78672183879E+02  0.99343145722E+02  0.10566000000E+00 0. -1.
    9000005    1    3    3    0    0  0.48208123491E+02  0.62859292821E+02  0.12662034848E+04  0.12686794626E+04  0.10000000000E+01 0.  0.
    9000005    1    3    3    0    0  0.92262481951E+02 -0.19204297910E+02  0.58257631877E+03  0.59015026715E+03  0.10000000000E+01 0.  0.
<mgrwt>
<rscale>  0 0.18784609E+03</rscale>
<asrwt>0</asrwt>
<pdfrwt beam="1">  1        1 0.32641841E+00 0.19303161E+03</pdfrwt>
<pdfrwt beam="2">  1       -1 0.50751298E-02 0.19303161E+03</pdfrwt>
<totfact> 0.49055969E+02</totfact>
</mgrwt>
</event>
<event>
 8    3  0.1560846E-003  0.1416290E+03  0.7818608E-02  0.1221047E+00
          1   -1    0    0  501    0  0.00000000000E+00  0.00000000000E+00  0.24530859206E+03  0.24530859211E+03  0.50400000000E-02 0. -1.
         -1   -1    0    0    0  501 -0.00000000000E+00 -0.00000000000E+00 -0.80460550911E+02  0.80460551069E+02  0.50400000000E-02 0.  1.
         25    2    1    2    0    0 -0.66581578776E+02 -0.99885794845E+00  0.15573047778E+03  0.21050123340E+03  0.12499873282E+03 0.  0.
         23    2    1    2    0    0  0.66581578776E+02  0.99885794845E+00  0.91175633719E+01  0.11526790978E+03  0.93645377424E+02 0.  0.
        -13    1    4    4    0    0  0.67583160176E+02  0.19061026641E+02  0.39009775181E+02  0.80327952792E+02  0.10566000000E+00 0. -1.
         13    1    4    4    0    0 -0.10015813999E+01 -0.18062168693E+02 -0.29892211809E+02  0.34939956985E+02  0.10566000000E+00 0.  1.
    9000005    1    3    3    0    0 -0.39513908470E+02  0.56102602150E+02  0.11908702361E+03  0.13744660826E+03  0.10000000000E+01 0.  0.
    9000005    1    3    3    0    0 -0.27067670306E+02 -0.57101460099E+02  0.36643454164E+02  0.73054625140E+02  0.10000000000E+01 0.  0.
<mgrwt>
<rscale>  0 0.13441590E+03</rscale>
<asrwt>0</asrwt>
<pdfrwt beam="1">  1        1 0.37739783E-01 0.14162905E+03</pdfrwt>
<pdfrwt beam="2">  1       -1 0.12378546E-01 0.14162905E+03</pdfrwt>
<totfact> 0.47418671E+03</totfact>
</mgrwt>
</event>
<event>
 8    3  0.1560846E-003  0.1324748E+03  0.7818608E-02  0.1237522E+00
         -1   -1    0    0    0  501 -0.00000000000E+00  0.00000000000E+00  0.80931694946E+03  0.80931694947E+03  0.50400000000E-02 0.  1.
          1   -1    0    0  501    0  0.00000000000E+00 -0.00000000000E+00 -0.18624806433E+02  0.18624807115E+02  0.50400000000E-02 0. -1.
         25    2    1    2    0    0  0.43025848477E+02 -0.86198927698E+01  0.31231886246E+03  0.33925307903E+03  0.12499621432E+03 0.  0.
         23    2    1    2    0    0 -0.43025848477E+02  0.86198927698E+01  0.47837328057E+03  0.48868867756E+03  0.89722359684E+02 0.  0.
        -13    1    4    4    0    0 -0.11866487311E+02  0.64116443518E+01  0.51539122214E+01  0.14439414103E+02  0.10566000000E+00 0. -1.
         13    1    4    4    0    0 -0.31159361166E+02  0.22082484181E+01  0.47321936834E+03  0.47424926346E+03  0.10566000000E+00 0.  1.
    9000005    1    3    3    0    0  0.82461443635E+02 -0.11150278188E+02  0.26410820065E+03  0.27690857704E+03  0.10000000000E+01 0.  0.
    9000005    1    3    3    0    0 -0.39435595158E+02  0.25303854179E+01  0.48210661813E+02  0.62344501989E+02  0.10000000000E+01 0.  0.
<mgrwt>
<rscale>  0 0.12344331E+03</rscale>
<asrwt>0</asrwt>
<pdfrwt beam="2">  1        1 0.28653553E-02 0.13247483E+03</pdfrwt>
<pdfrwt beam="1">  1       -1 0.12451028E+00 0.13247483E+03</pdfrwt>
<totfact> 0.21294452E+03</totfact>
</mgrwt>
</event>
<event>
 8    3  0.1560846E-003  0.1375469E+03  0.7818608E-02  0.1228195E+00
          1   -1    0    0  501    0  0.00000000000E+00  0.00000000000E+00  0.24944766448E+02  0.24944766957E+02  0.50400000000E-02 0. -1.
         -1   -1    0    0    0  501 -0.00000000000E+00 -0.00000000000E+00 -0.61208619140E+03  0.61208619143E+03  0.50400000000E-02 0.  1.
         25    2    1    2    0    0 -0.53806443636E+02  0.19973724617E+02 -0.36312636672E+03  0.38830389391E+03  0.12500029105E+03 0.  0.
         23    2    1    2    0    0  0.53806443636E+02 -0.19973724617E+02 -0.22401505823E+03  0.24872706448E+03  0.91587789769E+02 0.  0.
        -13    1    4    4    0    0  0.39790851787E+02 -0.11214172022E+02 -0.22800631815E+03  0.23172389135E+03  0.10566000000E+00 0.  1.
         13    1    4    4    0    0  0.14015591849E+02 -0.87595525940E+01  0.39912599201E+01  0.17003173125E+02  0.10566000000E+00 0. -1.
    9000005    1    3    3    0    0 -0.83903789272E+02 -0.97948176820E+01 -0.16130341679E+03  0.18208672817E+03  0.10000000000E+01 0.  0.
    9000005    1    3    3    0    0  0.30097345636E+02  0.29768542299E+02 -0.20182294994E+03  0.20621716574E+03  0.10000000000E+01 0.  0.
<mgrwt>
<rscale>  0 0.12950296E+03</rscale>
<asrwt>0</asrwt>
<pdfrwt beam="1">  1        1 0.38376569E-02 0.13754692E+03</pdfrwt>
<pdfrwt beam="2">  1       -1 0.94167095E-01 0.13754692E+03</pdfrwt>
<totfact> 0.26813597E+03</totfact>
</mgrwt>
</event>
<event>
 8    3  0.1560846E-003  0.1487033E+03  0.7818608E-02  0.1212307E+00
         -1   -1    0    0    0  501 -0.00000000000E+00  0.00000000000E+00  0.13609286943E+02  0.13609287876E+02  0.50400000000E-02 0.  1.
          1   -1    0    0  501    0  0.00000000000E+00 -0.00000000000E+00 -0.19779676237E+04  0.19779676237E+04  0.50400000000E-02 0. -1.
         25    2    1    2    0    0 -0.28247892539E+02  0.75426883361E+02 -0.16257326443E+04  0.16325193083E+04  0.12500201131E+03 0.  0.
         23    2    1    2    0    0  0.28247892539E+02 -0.75426883361E+02 -0.33862569244E+03  0.35905760334E+03  0.88135377499E+02 0.  0.
        -13    1    4    4    0    0  0.53875093612E+02 -0.59754477364E+02 -0.17382954652E+03  0.19154593623E+03  0.10566000000E+00 0.  1.
         13    1    4    4    0    0 -0.25627201073E+02 -0.15672405996E+02 -0.16479614592E+03  0.16751166711E+03  0.10566000000E+00 0. -1.
    9000005    1    3    3    0    0  0.32429267288E+02  0.67487453600E+02 -0.55362017089E+03  0.55866135305E+03  0.10000000000E+01 0.  0.
    9000005    1    3    3    0    0 -0.60677159827E+02  0.79394297605E+01 -0.10721124735E+04  0.10738579552E+04  0.10000000000E+01 0.  0.
<mgrwt>
<rscale>  0 0.14076228E+03</rscale>
<asrwt>0</asrwt>
<pdfrwt beam="2">  1        1 0.30430248E+00 0.14870326E+03</pdfrwt>
<pdfrwt beam="1">  1       -1 0.20937381E-02 0.14870326E+03</pdfrwt>
<totfact> 0.22377980E+03</totfact>
</mgrwt>
</event>
<event>
 8    3  0.1560846E-003  0.1362553E+03  0.7818608E-02  0.1233336E+00
         -1   -1    0    0    0  501 -0.00000000000E+00  0.00000000000E+00  0.15667205522E+02  0.15667206332E+02  0.50400000000E-02 0.  1.
          1   -1    0    0  501    0  0.00000000000E+00 -0.00000000000E+00 -0.93393704741E+03  0.93393704742E+03  0.50400000000E-02 0. -1.
         25    2    1    2    0    0 -0.49938309502E+02  0.21094184305E+02 -0.62733909288E+03  0.64196561847E+03  0.12500687371E+03 0.  0.
         23    2    1    2    0    0  0.49938309502E+02 -0.21094184305E+02 -0.29093074901E+03  0.30763863528E+03  0.84035884207E+02 0.  0.
        -13    1    4    4    0    0  0.69909521973E+02 -0.22221022105E+02 -0.26454764160E+03  0.27452974506E+03  0.10566000000E+00 0. -1.
         13    1    4    4    0    0 -0.19971212471E+02  0.11268378006E+01 -0.26383107408E+02  0.33108890219E+02  0.10566000000E+00 0.  1.
    9000005    1    3    3    0    0 -0.71776197773E+02 -0.28583651575E+02 -0.28224903265E+03  0.29263349797E+03  0.10000000000E+01 0.  0.
    9000005    1    3    3    0    0  0.21837888271E+02  0.49677835880E+02 -0.34509006023E+03  0.34933212050E+03  0.10000000000E+01 0.  0.
<mgrwt>
<rscale>  0 0.12611584E+03</rscale>
<asrwt>0</asrwt>
<pdfrwt beam="2">  1        1 0.14368258E+00 0.13625534E+03</pdfrwt>
<pdfrwt beam="1">  1       -1 0.24103401E-02 0.13625534E+03</pdfrwt>
<totfact> 0.90352738E+03</totfact>
</mgrwt>
</event>
<event>
 8    3  0.1560846E-003  0.1394516E+03  0.7818608E-02  0.1224839E+00
          1   -1    0    0  501    0  0.00000000000E+00  0.00000000000E+00  0.53025924205E+03  0.53025924207E+03  0.50400000000E-02 0. -1.
         -1   -1    0    0    0  501 -0.00000000000E+00 -0.00000000000E+00 -0.37518805364E+02  0.37518805703E+02  0.50400000000E-02 0.  1.
         25    2    1    2    0    0  0.33820664287E+02  0.51672814204E+02  0.39788247372E+03  0.42161262620E+03  0.12503130256E+03 0.  0.
         23    2    1    2    0    0 -0.33820664287E+02 -0.51672814204E+02  0.94857962970E+02  0.14616542158E+03  0.92479080151E+02 0.  0.
        -13    1    4    4    0    0 -0.32163748106E+02 -0.35605846819E+02  0.11246423237E+03  0.12227222802E+03  0.10566000000E+00 0. -1.
         13    1    4    4    0    0 -0.16569161807E+01 -0.16066967385E+02 -0.17606269396E+02  0.23893193555E+02  0.10566000000E+00 0.  1.
    9000005    1    3    3    0    0  0.72368809626E+02  0.65541073095E+02  0.25829849737E+03  0.27613762984E+03  0.10000000000E+01 0.  0.
    9000005    1    3    3    0    0 -0.38548145339E+02 -0.13868258891E+02  0.13958397635E+03  0.14547499636E+03  0.10000000000E+01 0.  0.
<mgrwt>
<rscale>  0 0.13177941E+03</rscale>
<asrwt>0</asrwt>
<pdfrwt beam="1">  1        1 0.81578340E-01 0.13945158E+03</pdfrwt>
<pdfrwt beam="2">  1       -1 0.57721243E-02 0.13945158E+03</pdfrwt>
<totfact> 0.56981819E+03</totfact>
</mgrwt>
</event>
<event>
 8    3  0.1560846E-003  0.1416957E+03  0.7818608E-02  0.1221863E+00
         -1   -1    0    0    0  501 -0.00000000000E+00  0.00000000000E+00  0.32957543638E+02  0.32957544024E+02  0.50400000000E-02 0.  1.
          1   -1    0    0  501    0  0.00000000000E+00 -0.00000000000E+00 -0.70755899048E+03  0.70755899050E+03  0.50400000000E-02 0. -1.
         25    2    1    2    0    0  0.24861976173E+02 -0.61923156264E+02 -0.16011439384E+03  0.21380901154E+03  0.12500031664E+03 0.  0.
         23    2    1    2    0    0 -0.24861976173E+02  0.61923156264E+02 -0.51448705301E+03  0.52670752299E+03  0.90946643257E+02 0.  0.
        -13    1    4    4    0    0 -0.58110172497E+02  0.52317727260E+02 -0.35598339099E+03  0.36446964559E+03  0.10566000000E+00 0.  1.
         13    1    4    4    0    0  0.33248196324E+02  0.96054290035E+01 -0.15850366202E+03  0.16223787740E+03  0.10566000000E+00 0. -1.
    9000005    1    3    3    0    0 -0.44320865383E+02 -0.56854708974E+02 -0.87606045709E+02  0.11345755279E+03  0.10000000000E+01 0.  0.
    9000005    1    3    3    0    0  0.69182841556E+02 -0.50684472895E+01 -0.72508348130E+02  0.10035145874E+03  0.10000000000E+01 0.  0.
<mgrwt>
<rscale>  0 0.13384280E+03</rscale>
<asrwt>0</asrwt>
<pdfrwt beam="2">  1        1 0.10885522E+00 0.14169571E+03</pdfrwt>
<pdfrwt beam="1">  1       -1 0.50703919E-02 0.14169571E+03</pdfrwt>
<totfact> 0.46511921E+03</totfact>
</mgrwt>
</event>
<event>
 8    3  0.1560846E-003  0.1597531E+03  0.7818608E-02  0.1195954E+00
         -1   -1    0    0    0  501 -0.00000000000E+00  0.00000000000E+00  0.16193169105E+02  0.16193169890E+02  0.50400000000E-02 0.  1.
          1   -1    0    0  501    0  0.00000000000E+00 -0.00000000000E+00 -0.14462148907E+04  0.14462148907E+04  0.50400000000E-02 0. -1.
         25    2    1    2    0    0  0.77130451298E+02  0.62825938406E+02 -0.94484971939E+03  0.95825989667E+03  0.12499932914E+03 0.  0.
         23    2    1    2    0    0 -0.77130451298E+02 -0.62825938406E+02 -0.48517200217E+03  0.50414816389E+03  0.94219395094E+02 0.  0.
        -13    1    4    4    0    0 -0.81292208454E+02 -0.12588869036E+02 -0.23593310104E+03  0.24986264649E+03  0.10566000000E+00 0.  1.
         13    1    4    4    0    0  0.41617571558E+01 -0.50237069370E+02 -0.24923890113E+03  0.25428551740E+03  0.10566000000E+00 0. -1.
    9000005    1    3    3    0    0 -0.28687362663E+02 -0.65119862993E+00 -0.87890429873E+02  0.92461432497E+02  0.10000000000E+01 0.  0.
    9000005    1    3    3    0    0  0.10581781396E+03  0.63477137036E+02 -0.85695928952E+03  0.86579846418E+03  0.10000000000E+01 0.  0.
<mgrwt>
<rscale>  0 0.15373757E+03</rscale>
<asrwt>0</asrwt>
<pdfrwt beam="2">  1        1 0.22249450E+00 0.15975305E+03</pdfrwt>
<pdfrwt beam="1">  1       -1 0.24912580E-02 0.15975305E+03</pdfrwt>
<totfact> 0.38228441E+03</totfact>
</mgrwt>
</event>
<event>
 8    3  0.1560846E-003  0.1412734E+03  0.7818608E-02  0.1222346E+00
         -1   -1    0    0    0  501 -0.00000000000E+00  0.00000000000E+00  0.65224354272E+02  0.65224354466E+02  0.50400000000E-02 0.  1.
          1   -1    0    0  501    0  0.00000000000E+00 -0.00000000000E+00 -0.35696067198E+03  0.35696067201E+03  0.50400000000E-02 0. -1.
         25    2    1    2    0    0 -0.63762159953E+02 -0.16333904010E+02 -0.40693423023E+02  0.14701740832E+03  0.12500301681E+03 0.  0.
         23    2    1    2    0    0  0.63762159953E+02  0.16333904010E+02 -0.25104289468E+03  0.27516761816E+03  0.91445468168E+02 0.  0.
        -13    1    4    4    0    0  0.90981114924E+01  0.24226163228E+02 -0.19418029215E+03  0.19589711493E+03  0.10566000000E+00 0. -1.
         13    1    4    4    0    0  0.54664048461E+02 -0.78922592185E+01 -0.56862602538E+02  0.79270503222E+02  0.10566000000E+00 0.  1.
    9000005    1    3    3    0    0  0.10608750126E+01  0.31887132987E+02 -0.56306293632E+02  0.64724905628E+02  0.10000000000E+01 0.  0.
    9000005    1    3    3    0    0 -0.64823034966E+02 -0.48221036997E+02  0.15612870609E+02  0.82292502696E+02  0.10000000000E+01 0.  0.
<mgrwt>
<rscale>  0 0.13350513E+03</rscale>
<asrwt>0</asrwt>
<pdfrwt beam="2">  1        1 0.54917025E-01 0.14127337E+03</pdfrwt>
<pdfrwt beam="1">  1       -1 0.10034516E-01 0.14127337E+03</pdfrwt>
<totfact> 0.41108916E+03</totfact>
</mgrwt>
</event>
<event>
 8    3  0.1560846E-003  0.1391016E+03  0.7818608E-02  0.1223761E+00
          1   -1    0    0  501    0  0.00000000000E+00  0.00000000000E+00  0.13506556607E+02  0.13506557548E+02  0.50400000000E-02 0. -1.
         -1   -1    0    0    0  501 -0.00000000000E+00 -0.00000000000E+00 -0.12340073270E+04  0.12340073270E+04  0.50400000000E-02 0.  1.
         25    2    1    2    0    0  0.17533636664E+02  0.58455712793E+02 -0.78272405246E+03  0.79498817082E+03  0.12499900267E+03 0.  0.
         23    2    1    2    0    0 -0.17533636664E+02 -0.58455712793E+02 -0.43777671797E+03  0.45252571377E+03  0.96987463417E+02 0.  0.
        -13    1    4    4    0    0 -0.29265029049E+02 -0.64335589243E+02 -0.43273281481E+03  0.43846688603E+03  0.10566000000E+00 0.  1.
         13    1    4    4    0    0  0.11731392385E+02  0.58798764497E+01 -0.50439031530E+01  0.14058827739E+02  0.10566000000E+00 0. -1.
    9000005    1    3    3    0    0  0.54249463717E+00  0.96692983971E+02 -0.51268234773E+03  0.52172216469E+03  0.10000000000E+01 0.  0.
    9000005    1    3    3    0    0  0.16991142027E+02 -0.38237271177E+02 -0.27004170473E+03  0.27326600613E+03  0.10000000000E+01 0.  0.
<mgrwt>
<rscale>  0 0.13252156E+03</rscale>
<asrwt>0</asrwt>
<pdfrwt beam="1">  1        1 0.20779328E-02 0.13910158E+03</pdfrwt>
<pdfrwt beam="2">  1       -1 0.18984719E+00 0.13910158E+03</pdfrwt>
<totfact> 0.10985559E+03</totfact>
</mgrwt>
</event>
<event>
 8    3  0.1560846E-003  0.1837483E+03  0.7818608E-02  0.1169491E+00
          1   -1    0    0  501    0  0.00000000000E+00  0.00000000000E+00  0.29024762769E+04  0.29024762769E+04  0.50400000000E-02 0. -1.
         -1   -1    0    0    0  501 -0.00000000000E+00 -0.00000000000E+00 -0.12260023705E+02  0.12260024741E+02  0.50400000000E-02 0.  1.
         25    2    1    2    0    0 -0.13019641173E+03 -0.34457657780E+02  0.94352571573E+03  0.96125138579E+03  0.12500005856E+03 0.  0.
         23    2    1    2    0    0  0.13019641173E+03  0.34457657780E+02  0.19466905375E+04  0.19534849159E+04  0.91437585223E+02 0.  0.
        -13    1    4    4    0    0  0.66993741332E+02  0.51047641118E+02  0.14599920302E+04  0.14624194892E+04  0.10566000000E+00 0. -1.
         13    1    4    4    0    0  0.63202670401E+02 -0.16589983338E+02  0.48669850728E+03  0.49106542665E+03  0.10566000000E+00 0.  1.
    9000005    1    3    3    0    0 -0.16786310101E+02 -0.19068879523E+01  0.87384238530E+01  0.19046692098E+02  0.10000000000E+01 0.  0.
    9000005    1    3    3    0    0 -0.11341010163E+03 -0.32550769828E+02  0.93478729188E+03  0.94220469369E+03  0.10000000000E+01 0.  0.
<mgrwt>
<rscale>  0 0.17826734E+03</rscale>
<asrwt>0</asrwt>
<pdfrwt beam="1">  1        1 0.44653496E+00 0.18374833E+03</pdfrwt>
<pdfrwt beam="2">  1       -1 0.18861570E-02 0.18374833E+03</pdfrwt>
<totfact> 0.64196619E+02</totfact>
</mgrwt>
</event>
<event>
 8    3  0.1560846E-003  0.1324464E+03  0.7818608E-02  0.1236269E+00
         -1   -1    0    0    0  501 -0.00000000000E+00  0.00000000000E+00  0.12648137819E+02  0.12648138823E+02  0.50400000000E-02 0.  1.
          1   -1    0    0  501    0  0.00000000000E+00 -0.00000000000E+00 -0.10952100726E+04  0.10952100726E+04  0.50400000000E-02 0. -1.
         25    2    1    2    0    0  0.43496148156E+02  0.49804468280E+01 -0.57740824286E+03  0.59240384899E+03  0.12500128648E+03 0.  0.
         23    2    1    2    0    0 -0.43496148156E+02 -0.49804468280E+01 -0.50515369190E+03  0.51545436242E+03  0.92715843002E+02 0.  0.
        -13    1    4    4    0    0 -0.30563812074E+02  0.42073414440E+00 -0.49935039102E+03  0.50028506654E+03  0.10566000000E+00 0. -1.
         13    1    4    4    0    0 -0.12932336081E+02 -0.54011809724E+01 -0.58033008795E+01  0.15169295882E+02  0.10566000000E+00 0.  1.
    9000005    1    3    3    0    0  0.67854104279E+01  0.47444985809E+01  0.44057009055E+01  0.94319808062E+01  0.10000000000E+01 0.  0.
    9000005    1    3    3    0    0  0.36710737728E+02  0.23594824707E+00 -0.58181394377E+03  0.58297186819E+03  0.10000000000E+01 0.  0.
<mgrwt>
<rscale>  0 0.12423547E+03</rscale>
<asrwt>0</asrwt>
<pdfrwt beam="2">  1        1 0.16849378E+00 0.13244637E+03</pdfrwt>
<pdfrwt beam="1">  1       -1 0.19458683E-02 0.13244637E+03</pdfrwt>
<totfact> 0.93786541E+03</totfact>
</mgrwt>
</event>
<event>
 8    3  0.1560846E-003  0.1420691E+03  0.7818608E-02  0.1221061E+00
         -1   -1    0    0    0  501 -0.00000000000E+00  0.00000000000E+00  0.15594056899E+02  0.15594057714E+02  0.50400000000E-02 0.  1.
          1   -1    0    0  501    0  0.00000000000E+00 -0.00000000000E+00 -0.10780018941E+04  0.10780018941E+04  0.50400000000E-02 0. -1.
         25    2    1    2    0    0  0.59285533060E+02 -0.32307327808E+02 -0.67647736843E+03  0.69123459317E+03  0.12500037974E+03 0.  0.
         23    2    1    2    0    0 -0.59285533060E+02  0.32307327808E+02 -0.38593046880E+03  0.40236135869E+03  0.91617674903E+02 0.  0.
        -13    1    4    4    0    0  0.95892979287E+01  0.35473847016E+02 -0.21381183260E+03  0.21694667405E+03  0.10566000000E+00 0. -1.
         13    1    4    4    0    0 -0.68874830989E+02 -0.31665192085E+01 -0.17211863620E+03  0.18541468464E+03  0.10566000000E+00 0.  1.
    9000005    1    3    3    0    0  0.91843938248E+02  0.13938386850E+01 -0.37217686289E+03  0.38334562610E+03  0.10000000000E+01 0.  0.
    9000005    1    3    3    0    0 -0.32558405188E+02 -0.33701166493E+02 -0.30430050555E+03  0.30788896708E+03  0.10000000000E+01 0.  0.
<mgrwt>
<rscale>  0 0.13440588E+03</rscale>
<asrwt>0</asrwt>
<pdfrwt beam="2">  1        1 0.16584639E+00 0.14206911E+03</pdfrwt>
<pdfrwt beam="1">  1       -1 0.23990866E-02 0.14206911E+03</pdfrwt>
<totfact> 0.71520728E+03</totfact>
</mgrwt>
</event>
<event>
 8    3  0.1560846E-003  0.1262046E+03  0.7818608E-02  0.1248077E+00
          1   -1    0    0  501    0  0.00000000000E+00  0.00000000000E+00  0.21150093961E+03  0.21150093967E+03  0.50400000000E-02 0. -1.
         -1   -1    0    0    0  501 -0.00000000000E+00 -0.00000000000E+00 -0.56998425052E+02  0.56998425275E+02  0.50400000000E-02 0.  1.
         25    2    1    2    0    0  0.78056279658E+01 -0.15523767384E+02  0.85524189980E+02  0.15245320155E+03  0.12500270560E+03 0.  0.
         23    2    1    2    0    0 -0.78056279658E+01  0.15523767384E+02  0.68978324573E+02  0.11604616339E+03  0.91688535792E+02 0.  0.
        -13    1    4    4    0    0 -0.28252044689E+02  0.27699191238E+02 -0.35394651948E+01  0.39723572376E+02  0.10566000000E+00 0.  1.
         13    1    4    4    0    0  0.20446416724E+02 -0.12175423854E+02  0.72517789767E+02  0.76322591018E+02  0.10566000000E+00 0. -1.
    9000005    1    3    3    0    0  0.10140295431E+02  0.11867115146E+02 -0.29928095339E+02  0.33768993232E+02  0.10000000000E+01 0.  0.
    9000005    1    3    3    0    0 -0.23346674653E+01 -0.27390882530E+02  0.11545228532E+03  0.11868420832E+03  0.10000000000E+01 0.  0.
<mgrwt>
<rscale>  0 0.11703088E+03</rscale>
<asrwt>0</asrwt>
<pdfrwt beam="1">  1        1 0.32538606E-01 0.12620456E+03</pdfrwt>
<pdfrwt beam="2">  1       -1 0.87689885E-02 0.12620456E+03</pdfrwt>
<totfact> 0.95781542E+03</totfact>
</mgrwt>
</event>
<event>
 8    3  0.1560846E-003  0.1428417E+03  0.7818608E-02  0.1219660E+00
          1   -1    0    0  501    0  0.00000000000E+00  0.00000000000E+00  0.51972484947E+03  0.51972484949E+03  0.50400000000E-02 0. -1.
         -1   -1    0    0    0  501 -0.00000000000E+00 -0.00000000000E+00 -0.32587668184E+02  0.32587668574E+02  0.50400000000E-02 0.  1.
         25    2    1    2    0    0  0.22891640651E+02 -0.65226372610E+02  0.23408106390E+03  0.27422196202E+03  0.12500093233E+03 0.  0.
         23    2    1    2    0    0 -0.22891640651E+02  0.65226372610E+02  0.25305611738E+03  0.27809055604E+03  0.92295459915E+02 0.  0.
        -13    1    4    4    0    0 -0.16975645123E+02  0.36065434646E+02  0.24364266092E+03  0.24688184520E+03  0.10566000000E+00 0. -1.
         13    1    4    4    0    0 -0.59159955279E+01  0.29160937964E+02  0.94134564588E+01  0.31208710844E+02  0.10566000000E+00 0.  1.
    9000005    1    3    3    0    0 -0.26413035804E+02 -0.77519790880E+02  0.19016643488E+03  0.20705371138E+03  0.10000000000E+01 0.  0.
    9000005    1    3    3    0    0  0.49304676455E+02  0.12293418270E+02  0.43914629021E+02  0.67168250648E+02  0.10000000000E+01 0.  0.
<mgrwt>
<rscale>  0 0.13539736E+03</rscale>
<asrwt>0</asrwt>
<pdfrwt beam="1">  1        1 0.79957664E-01 0.14284166E+03</pdfrwt>
<pdfrwt beam="2">  1       -1 0.50134878E-02 0.14284166E+03</pdfrwt>
<totfact> 0.72223989E+03</totfact>
</mgrwt>
</event>
<event>
 8    3  0.1560846E-003  0.1766579E+03  0.7818608E-02  0.1176885E+00
         -1   -1    0    0    0  501 -0.00000000000E+00  0.00000000000E+00  0.31543736335E+03  0.31543736339E+03  0.50400000000E-02 0.  1.
          1   -1    0    0  501    0  0.00000000000E+00 -0.00000000000E+00 -0.94656190253E+02  0.94656190387E+02  0.50400000000E-02 0. -1.
         25    2    1    2    0    0 -0.55679928232E+02 -0.11172824648E+03  0.59209104991E+02  0.18631622392E+03  0.12499824684E+03 0.  0.
         23    2    1    2    0    0  0.55679928232E+02  0.11172824648E+03  0.16157206811E+03  0.22377732986E+03  0.91582229141E+02 0.  0.
        -13    1    4    4    0    0  0.65355017061E+02  0.40296849634E+02  0.52406749645E+02  0.92960168448E+02  0.10566000000E+00 0.  1.
         13    1    4    4    0    0 -0.96750888282E+01  0.71431396851E+02  0.10916531846E+03  0.13081716141E+03  0.10566000000E+00 0. -1.
    9000005    1    3    3    0    0  0.13532328189E+02  0.16223002286E+01 -0.25398764973E+02  0.28841862395E+02  0.10000000000E+01 0.  0.
    9000005    1    3    3    0    0 -0.69212256422E+02 -0.11335054671E+03  0.84607869964E+02  0.15747436153E+03  0.10000000000E+01 0.  0.
<mgrwt>
<rscale>  0 0.17092675E+03</rscale>
<asrwt>0</asrwt>
<pdfrwt beam="2">  1        1 0.14562491E-01 0.17665791E+03</pdfrwt>
<pdfrwt beam="1">  1       -1 0.48528826E-01 0.17665791E+03</pdfrwt>
<totfact> 0.16593199E+03</totfact>
</mgrwt>
</event>
<event>
 8    3  0.1560846E-003  0.1348878E+03  0.7818608E-02  0.1232718E+00
         -1   -1    0    0    0  501 -0.00000000000E+00  0.00000000000E+00  0.18305278175E+02  0.18305278869E+02  0.50400000000E-02 0.  1.
          1   -1    0    0  501    0  0.00000000000E+00 -0.00000000000E+00 -0.87322915711E+03  0.87322915712E+03  0.50400000000E-02 0. -1.
         25    2    1    2    0    0  0.39526066985E+02 -0.31743178049E+02 -0.61932050071E+03  0.63383956912E+03  0.12499910982E+03 0.  0.
         23    2    1    2    0    0 -0.39526066985E+02  0.31743178049E+02 -0.23560337823E+03  0.25769486688E+03  0.91256524476E+02 0.  0.
        -13    1    4    4    0    0 -0.14313084781E+02  0.41554433430E+02 -0.37564274249E+02  0.57816271045E+02  0.10566000000E+00 0.  1.
         13    1    4    4    0    0 -0.25212982205E+02 -0.98112553819E+01 -0.19803910398E+03  0.19987859583E+03  0.10566000000E+00 0. -1.
    9000005    1    3    3    0    0 -0.21666582293E+01  0.93297092231E+01 -0.50779575513E+03  0.50788706108E+03  0.10000000000E+01 0.  0.
    9000005    1    3    3    0    0  0.41692725214E+02 -0.41072887272E+02 -0.11152474558E+03  0.12595250804E+03  0.10000000000E+01 0.  0.
<mgrwt>
<rscale>  0 0.12651625E+03</rscale>
<asrwt>0</asrwt>
<pdfrwt beam="2">  1        1 0.13434291E+00 0.13488779E+03</pdfrwt>
<pdfrwt beam="1">  1       -1 0.28161974E-02 0.13488779E+03</pdfrwt>
<totfact> 0.80206112E+03</totfact>
</mgrwt>
</event>
<event>
 8    3  0.1560846E-003  0.1254722E+03  0.7818608E-02  0.1249256E+00
         -1   -1    0    0    0  501 -0.00000000000E+00  0.00000000000E+00  0.45999605694E+02  0.45999605970E+02  0.50400000000E-02 0.  1.
          1   -1    0    0  501    0  0.00000000000E+00 -0.00000000000E+00 -0.25909281393E+03  0.25909281398E+03  0.50400000000E-02 0. -1.
         25    2    1    2    0    0  0.25423236630E+00 -0.10916640543E+02 -0.12750522900E+03  0.17888785432E+03  0.12499617324E+03 0.  0.
         23    2    1    2    0    0 -0.25423236630E+00  0.10916640543E+02 -0.85587979233E+02  0.12620456563E+03  0.92103488106E+02 0.  0.
        -13    1    4    4    0    0 -0.33786112424E+02 -0.18250142232E+02 -0.68619183599E+02  0.78633152080E+02  0.10566000000E+00 0. -1.
         13    1    4    4    0    0  0.33531880058E+02  0.29166782774E+02 -0.16968795634E+02  0.47571413548E+02  0.10566000000E+00 0.  1.
    9000005    1    3    3    0    0  0.11230268041E+02 -0.36248417492E+02 -0.14248990238E+03  0.14745995718E+03  0.10000000000E+01 0.  0.
    9000005    1    3    3    0    0 -0.10976035674E+02  0.25331776949E+02  0.14984673378E+02  0.31427897142E+02  0.10000000000E+01 0.  0.
<mgrwt>
<rscale>  0 0.11634226E+03</rscale>
<asrwt>0</asrwt>
<pdfrwt beam="2">  1        1 0.39860432E-01 0.12547223E+03</pdfrwt>
<pdfrwt beam="1">  1       -1 0.70768626E-02 0.12547223E+03</pdfrwt>
<totfact> 0.10287416E+04</totfact>
</mgrwt>
</event>
<event>
 8    3  0.1560846E-003  0.2740302E+03  0.7818608E-02  0.1100943E+00
          1   -1    0    0  501    0  0.00000000000E+00  0.00000000000E+00  0.42421727949E+03  0.42421727952E+03  0.50400000000E-02 0. -1.
         -1   -1    0    0    0  501 -0.00000000000E+00 -0.00000000000E+00 -0.19280619976E+03  0.19280619983E+03  0.50400000000E-02 0.  1.
         25    2    1    2    0    0  0.23279908927E+03 -0.72608962569E+02  0.22799841860E+03  0.35647693465E+03  0.12500019457E+03 0.  0.
         23    2    1    2    0    0 -0.23279908927E+03  0.72608962569E+02  0.34126611264E+01  0.26054654470E+03  0.91680850190E+02 0.  0.
        -13    1    4    4    0    0 -0.15723154515E+03  0.91622657362E+02 -0.58610390334E+01  0.18207370232E+03  0.10566000000E+00 0.  1.
         13    1    4    4    0    0 -0.75567544116E+02 -0.19013694793E+02  0.92737001598E+01  0.78472842386E+02  0.10566000000E+00 0. -1.
    9000005    1    3    3    0    0  0.60081853913E+02  0.30686284295E+02  0.89888147047E+02  0.11239375513E+03  0.10000000000E+01 0.  0.
    9000005    1    3    3    0    0  0.17271723535E+03 -0.10329524686E+03  0.13811027155E+03  0.24408317951E+03  0.10000000000E+01 0.  0.
<mgrwt>
<rscale>  0 0.27058940E+03</rscale>
<asrwt>0</asrwt>
<pdfrwt beam="1">  1        1 0.65264196E-01 0.27403016E+03</pdfrwt>
<pdfrwt beam="2">  1       -1 0.29662493E-01 0.27403016E+03</pdfrwt>
<totfact> 0.58731490E+02</totfact>
</mgrwt>
</event>
<event>
 8    3  0.1560846E-003  0.1264495E+03  0.7818608E-02  0.1240024E+00
         -1   -1    0    0    0  501 -0.00000000000E+00  0.00000000000E+00  0.11502422645E+02  0.11502423749E+02  0.50400000000E-02 0.  1.
          1   -1    0    0  501    0  0.00000000000E+00 -0.00000000000E+00 -0.13373395019E+04  0.13373395019E+04  0.50400000000E-02 0. -1.
         25    2    1    2    0    0 -0.12260008703E+02  0.14633541205E+02 -0.49630686564E+03  0.51216206457E+03  0.12500010865E+03 0.  0.
         23    2    1    2    0    0  0.12260008703E+02 -0.14633541205E+02 -0.82953021357E+03  0.83667986104E+03  0.10746332541E+03 0.  0.
        -13    1    4    4    0    0 -0.37084268619E+01 -0.37877041025E+02 -0.10643055113E+03  0.11303050935E+03  0.10566000000E+00 0.  1.
         13    1    4    4    0    0  0.15968435565E+02  0.23243499820E+02 -0.72309966244E+03  0.72364935169E+03  0.10566000000E+00 0. -1.
    9000005    1    3    3    0    0 -0.19603972911E+02 -0.50696244537E+02 -0.14720589666E+03  0.15692355137E+03  0.10000000000E+01 0.  0.
    9000005    1    3    3    0    0  0.73439642073E+01  0.65329785743E+02 -0.34910096898E+03  0.35523851320E+03  0.10000000000E+01 0.  0.
<mgrwt>
<rscale>  0 0.12188202E+03</rscale>
<asrwt>0</asrwt>
<pdfrwt beam="2">  1        1 0.20574442E+00 0.12644950E+03</pdfrwt>
<pdfrwt beam="1">  1       -1 0.17696046E-02 0.12644950E+03</pdfrwt>
<totfact> 0.73378333E+03</totfact>
</mgrwt>
</event>
<event>
 8    3  0.1560846E-003  0.1411086E+03  0.7818608E-02  0.1219330E+00
         -1   -1    0    0    0  501 -0.00000000000E+00  0.00000000000E+00  0.78859558297E+01  0.78859574403E+01  0.50400000000E-02 0.  1.
          1   -1    0    0  501    0  0.00000000000E+00 -0.00000000000E+00 -0.31739407458E+04  0.31739407458E+04  0.50400000000E-02 0. -1.
         25    2    1    2    0    0 -0.60823512105E+02  0.24246811375E+02 -0.25618735222E+04  0.25657567253E+04  0.12499688824E+03 0.  0.
         23    2    1    2    0    0  0.60823512105E+02 -0.24246811375E+02 -0.60418126774E+03  0.61606997793E+03  0.10109305585E+03 0.  0.
        -13    1    4    4    0    0 -0.12185523487E+02  0.97080792883E+01 -0.32853669660E+03  0.32890592266E+03  0.10566000000E+00 0.  1.
         13    1    4    4    0    0  0.73009035593E+02 -0.33954890663E+02 -0.27564457114E+03  0.28716405527E+03  0.10566000000E+00 0. -1.
    9000005    1    3    3    0    0 -0.39157434518E+02 -0.17692363181E+02 -0.22425076855E+04  0.22429195358E+04  0.10000000000E+01 0.  0.
    9000005    1    3    3    0    0 -0.21666077587E+02  0.41939174556E+02 -0.31936583668E+03  0.32283718950E+03  0.10000000000E+01 0.  0.
<mgrwt>
<rscale>  0 0.13563228E+03</rscale>
<asrwt>0</asrwt>
<pdfrwt beam="2">  1        1 0.48829756E+00 0.14110857E+03</pdfrwt>
<pdfrwt beam="1">  1       -1 0.12132266E-02 0.14110857E+03</pdfrwt>
<totfact> 0.79323822E+02</totfact>
</mgrwt>
</event>
<event>
 8    3  0.1560846E-003  0.1587911E+03  0.7818608E-02  0.1198215E+00
         -1   -1    0    0    0  501 -0.00000000000E+00  0.00000000000E+00  0.24235012760E+02  0.24235013284E+02  0.50400000000E-02 0.  1.
          1   -1    0    0  501    0  0.00000000000E+00 -0.00000000000E+00 -0.88078394390E+03  0.88078394392E+03  0.50400000000E-02 0. -1.
         25    2    1    2    0    0 -0.85548534576E+02  0.47645620176E+02 -0.43719257535E+03  0.46513649774E+03  0.12500382672E+03 0.  0.
         23    2    1    2    0    0  0.85548534576E+02 -0.47645620176E+02 -0.41935635579E+03  0.43988245947E+03  0.89711582931E+02 0.  0.
        -13    1    4    4    0    0 -0.14634360466E+02 -0.25684560302E+02 -0.76433787797E+02  0.81951181963E+02  0.10566000000E+00 0.  1.
         13    1    4    4    0    0  0.10018289504E+03 -0.21961059875E+02 -0.34292256800E+03  0.35793127750E+03  0.10566000000E+00 0. -1.
    9000005    1    3    3    0    0 -0.23602135700E+02  0.38622573589E+02 -0.32752649046E+02  0.55879334460E+02  0.10000000000E+01 0.  0.
    9000005    1    3    3    0    0 -0.61946398876E+02  0.90230465875E+01 -0.40443992630E+03  0.40925716328E+03  0.10000000000E+01 0.  0.
<mgrwt>
<rscale>  0 0.15185258E+03</rscale>
<asrwt>0</asrwt>
<pdfrwt beam="2">  1        1 0.13550520E+00 0.15879110E+03</pdfrwt>
<pdfrwt beam="1">  1       -1 0.37284642E-02 0.15879110E+03</pdfrwt>
<totfact> 0.52906804E+03</totfact>
</mgrwt>
</event>
<event>
 8    3  0.1560846E-003  0.2424343E+03  0.7818608E-02  0.1120817E+00
          1   -1    0    0  501    0  0.00000000000E+00  0.00000000000E+00  0.42778346462E+03  0.42778346465E+03  0.50400000000E-02 0. -1.
         -1   -1    0    0    0  501 -0.00000000000E+00 -0.00000000000E+00 -0.12876428714E+03  0.12876428724E+03  0.50400000000E-02 0.  1.
         25    2    1    2    0    0  0.20710431944E+03  0.16026937991E+02  0.15515795202E+03  0.28783394382E+03  0.12500130905E+03 0.  0.
         23    2    1    2    0    0 -0.20710431944E+03 -0.16026937991E+02  0.14386122546E+03  0.26871380808E+03  0.91443953250E+02 0.  0.
        -13    1    4    4    0    0 -0.94623584591E+02  0.12770556284E+01  0.11932494801E+03  0.15229480626E+03  0.10566000000E+00 0. -1.
         13    1    4    4    0    0 -0.11248073485E+03 -0.17303993620E+02  0.24536277446E+02  0.11641900181E+03  0.10566000000E+00 0.  1.
    9000005    1    3    3    0    0  0.16845737787E+03  0.39544126128E+02  0.16760475513E+03  0.24090242841E+03  0.10000000000E+01 0.  0.
    9000005    1    3    3    0    0  0.38646941573E+02 -0.23517188137E+02 -0.12446803111E+02  0.46931515408E+02  0.10000000000E+01 0.  0.
<mgrwt>
<rscale>  0 0.23846965E+03</rscale>
<asrwt>0</asrwt>
<pdfrwt beam="1">  1        1 0.65812842E-01 0.24243430E+03</pdfrwt>
<pdfrwt beam="2">  1       -1 0.19809890E-01 0.24243430E+03</pdfrwt>
<totfact> 0.11372198E+03</totfact>
</mgrwt>
</event>
<event>
 8    3  0.1560846E-003  0.1311698E+03  0.7818608E-02  0.1239608E+00
         -1   -1    0    0    0  501 -0.00000000000E+00  0.00000000000E+00  0.25369145207E+02  0.25369145708E+02  0.50400000000E-02 0.  1.
          1   -1    0    0  501    0  0.00000000000E+00 -0.00000000000E+00 -0.11010389659E+04  0.11010389659E+04  0.50400000000E-02 0. -1.
         25    2    1    2    0    0 -0.22601785037E+02  0.32694200177E+02 -0.16676734075E+03  0.21217178666E+03  0.12500307877E+03 0.  0.
         23    2    1    2    0    0  0.22601785037E+02 -0.32694200177E+02 -0.90890247991E+03  0.91423632493E+03  0.90247373468E+02 0.  0.
        -13    1    4    4    0    0 -0.15068117698E+01  0.30060480961E+02 -0.21737923335E+03  0.21945305934E+03  0.10566000000E+00 0.  1.
         13    1    4    4    0    0  0.24108596806E+02 -0.62754681138E+02 -0.69152324656E+03  0.69478326559E+03  0.10566000000E+00 0. -1.
    9000005    1    3    3    0    0 -0.69853992662E+02 -0.58855805559E+01 -0.92133507236E+02  0.11577479650E+03  0.10000000000E+01 0.  0.
    9000005    1    3    3    0    0  0.47252207625E+02  0.38579780732E+02 -0.74633833518E+02  0.96396990163E+02  0.10000000000E+01 0.  0.
<mgrwt>
<rscale>  0 0.12214001E+03</rscale>
<asrwt>0</asrwt>
<pdfrwt beam="2">  1        1 0.16939057E+00 0.13116982E+03</pdfrwt>
<pdfrwt beam="1">  1       -1 0.39029463E-02 0.13116982E+03</pdfrwt>
<totfact> 0.33794685E+03</totfact>
</mgrwt>
</event>
<event>
 8    3  0.1560846E-003  0.1284461E+03  0.7818608E-02  0.1243859E+00
          1   -1    0    0  501    0  0.00000000000E+00  0.00000000000E+00  0.18201318963E+04  0.18201318963E+04  0.50400000000E-02 0. -1.
         -1   -1    0    0    0  501 -0.00000000000E+00 -0.00000000000E+00 -0.69510646643E+01  0.69510664915E+01  0.50400000000E-02 0.  1.
         25    2    1    2    0    0 -0.27486371967E+02  0.10860271525E+02  0.10019697061E+04  0.10101691437E+04  0.12499984315E+03 0.  0.
         23    2    1    2    0    0  0.27486371967E+02 -0.10860271525E+02  0.81121112550E+03  0.81691381907E+03  0.91712875377E+02 0.  0.
        -13    1    4    4    0    0  0.44231507914E+02 -0.15688048582E+02  0.77794332756E+03  0.77935766707E+03  0.10566000000E+00 0. -1.
         13    1    4    4    0    0 -0.16745135947E+02  0.48277770569E+01  0.33267797938E+02  0.37556151997E+02  0.10566000000E+00 0.  1.
    9000005    1    3    3    0    0  0.13962912739E+02 -0.41050353736E+02  0.68185980667E+03  0.68323779932E+03  0.10000000000E+01 0.  0.
    9000005    1    3    3    0    0 -0.41449284706E+02  0.51910625261E+02  0.32010989942E+03  0.32693134436E+03  0.10000000000E+01 0.  0.
<mgrwt>
<rscale>  0 0.11953958E+03</rscale>
<asrwt>0</asrwt>
<pdfrwt beam="1">  1        1 0.28002013E+00 0.12844612E+03</pdfrwt>
<pdfrwt beam="2">  1       -1 0.10693953E-02 0.12844612E+03</pdfrwt>
<totfact> 0.73766616E+03</totfact>
</mgrwt>
</event>
<event>
 8    3  0.1560846E-003  0.1406143E+03  0.7818608E-02  0.1223700E+00
         -1   -1    0    0    0  501 -0.00000000000E+00  0.00000000000E+00  0.15615864219E+04  0.15615864219E+04  0.50400000000E-02 0.  1.
          1   -1    0    0  501    0  0.00000000000E+00 -0.00000000000E+00 -0.12336898933E+02  0.12336899962E+02  0.50400000000E-02 0. -1.
         25    2    1    2    0    0  0.64380032130E+02  0.15369786834E+01  0.51926739198E+03  0.53796932855E+03  0.12500089298E+03 0.  0.
         23    2    1    2    0    0 -0.64380032130E+02 -0.15369786834E+01  0.10299821310E+04  0.10359539933E+04  0.90500471185E+02 0.  0.
        -13    1    4    4    0    0 -0.18463415056E+02 -0.39694404301E+02  0.63249692847E+03  0.63401018850E+03  0.10566000000E+00 0.  1.
         13    1    4    4    0    0 -0.45916617075E+02  0.38157425618E+02  0.39748520249E+03  0.40194380479E+03  0.10566000000E+00 0. -1.
    9000005    1    3    3    0    0  0.27472934096E+02  0.25576484090E+02  0.47147637604E+03  0.47296922924E+03  0.10000000000E+01 0.  0.
    9000005    1    3    3    0    0  0.36907098035E+02 -0.24039505407E+02  0.47791015946E+02  0.65000099313E+02  0.10000000000E+01 0.  0.
<mgrwt>
<rscale>  0 0.13256394E+03</rscale>
<asrwt>0</asrwt>
<pdfrwt beam="2">  1        1 0.18979852E-02 0.14061427E+03</pdfrwt>
<pdfrwt beam="1">  1       -1 0.24024398E+00 0.14061427E+03</pdfrwt>
<totfact> 0.59036056E+02</totfact>
</mgrwt>
</event>
<event>
 8    3  0.1560846E-003  0.1494762E+03  0.7818608E-02  0.1210446E+00
         -1   -1    0    0    0  501 -0.00000000000E+00  0.00000000000E+00  0.30958732859E+02  0.30958733269E+02  0.50400000000E-02 0.  1.
          1   -1    0    0  501    0  0.00000000000E+00 -0.00000000000E+00 -0.62242131399E+03  0.62242131401E+03  0.50400000000E-02 0. -1.
         25    2    1    2    0    0  0.78271174925E+02 -0.24321793120E+02 -0.39043149433E+03  0.41806683269E+03  0.12500079353E+03 0.  0.
         23    2    1    2    0    0 -0.78271174925E+02  0.24321793120E+02 -0.20103108680E+03  0.23531321459E+03  0.90779318440E+02 0.  0.
        -13    1    4    4    0    0 -0.80325218677E+02  0.19611139489E+02 -0.82954184893E+02  0.11712448720E+03  0.10566000000E+00 0.  1.
         13    1    4    4    0    0  0.20540437518E+01  0.47106536315E+01 -0.11807690191E+03  0.11818872739E+03  0.10566000000E+00 0. -1.
    9000005    1    3    3    0    0  0.10140617081E+03 -0.32654055622E+02 -0.37297874072E+03  0.38789642928E+03  0.10000000000E+01 0.  0.
    9000005    1    3    3    0    0 -0.23134995881E+02  0.83322625018E+01 -0.17452753620E+02  0.30170403407E+02  0.10000000000E+01 0.  0.
<mgrwt>
<rscale>  0 0.14216448E+03</rscale>
<asrwt>0</asrwt>
<pdfrwt beam="2">  1        1 0.95757116E-01 0.14947617E+03</pdfrwt>
<pdfrwt beam="1">  1       -1 0.47628825E-02 0.14947617E+03</pdfrwt>
<totfact> 0.61277585E+03</totfact>
</mgrwt>
</event>
<event>
 8    3  0.1560846E-003  0.2152362E+03  0.7818608E-02  0.1141140E+00
          1   -1    0    0  501    0  0.00000000000E+00  0.00000000000E+00  0.14163583608E+04  0.14163583608E+04  0.50400000000E-02 0. -1.
         -1   -1    0    0    0  501 -0.00000000000E+00 -0.00000000000E+00 -0.32214716578E+02  0.32214716972E+02  0.50400000000E-02 0.  1.
         25    2    1    2    0    0  0.16348289975E+03 -0.63062957966E+02  0.53091728690E+03  0.57288724884E+03  0.12499215646E+03 0.  0.
         23    2    1    2    0    0 -0.16348289975E+03  0.63062957966E+02  0.85322635736E+03  0.87568582898E+03  0.90149093209E+02 0.  0.
        -13    1    4    4    0    0 -0.79354345633E+02  0.24675338570E+02  0.20997908010E+03  0.22582561801E+03  0.10566000000E+00 0.  1.
         13    1    4    4    0    0 -0.84128554112E+02  0.38387619396E+02  0.64324727726E+03  0.64986021098E+03  0.10566000000E+00 0. -1.
    9000005    1    3    3    0    0 -0.15382222620E+01  0.42957329459E+01  0.17281371820E+03  0.17287683664E+03  0.10000000000E+01 0.  0.
    9000005    1    3    3    0    0  0.16502112201E+03 -0.67358690912E+02  0.35810356870E+03  0.40001041219E+03  0.10000000000E+01 0.  0.
<mgrwt>
<rscale>  0 0.21053926E+03</rscale>
<asrwt>0</asrwt>
<pdfrwt beam="1">  1        1 0.21790127E+00 0.21523623E+03</pdfrwt>
<pdfrwt beam="2">  1       -1 0.49561106E-02 0.21523623E+03</pdfrwt>
<totfact> 0.14540699E+03</totfact>
</mgrwt>
</event>
<event>
 8    3  0.1560846E-003  0.1543247E+03  0.7818608E-02  0.1203248E+00
          1   -1    0    0  501    0  0.00000000000E+00  0.00000000000E+00  0.25102086566E+04  0.25102086566E+04  0.50400000000E-02 0. -1.
         -1   -1    0    0    0  501 -0.00000000000E+00 -0.00000000000E+00 -0.98783222353E+01  0.98783235210E+01  0.50400000000E-02 0.  1.
         25    2    1    2    0    0 -0.90456100804E+02 -0.31355344147E+01  0.79559699515E+03  0.81042623395E+03  0.12499585685E+03 0.  0.
         23    2    1    2    0    0  0.90456100804E+02  0.31355344147E+01  0.17047333392E+04  0.17096607461E+04  0.92908403515E+02 0.  0.
        -13    1    4    4    0    0  0.84299637900E+02  0.11055777873E+01  0.72192833635E+03  0.72683435887E+03  0.10566000000E+00 0.  1.
         13    1    4    4    0    0  0.61564629033E+01  0.20299566273E+01  0.98280500282E+03  0.98282638726E+03  0.10566000000E+00 0. -1.
    9000005    1    3    3    0    0 -0.57800029548E+02 -0.14075880620E+02  0.11989249419E+03  0.13384387918E+03  0.10000000000E+01 0.  0.
    9000005    1    3    3    0    0 -0.32656071256E+02  0.10940346205E+02  0.67570450096E+03  0.67658235477E+03  0.10000000000E+01 0.  0.
<mgrwt>
<rscale>  0 0.14776379E+03</rscale>
<asrwt>0</asrwt>
<pdfrwt beam="1">  1        1 0.38618647E+00 0.15432466E+03</pdfrwt>
<pdfrwt beam="2">  1       -1 0.15197399E-02 0.15432466E+03</pdfrwt>
<totfact> 0.16128797E+03</totfact>
</mgrwt>
</event>
<event>
 8    3  0.1560846E-003  0.1252021E+03  0.7818608E-02  0.1249675E+00
         -1   -1    0    0    0  501 -0.00000000000E+00  0.00000000000E+00  0.15000752384E+02  0.15000753231E+02  0.50400000000E-02 0.  1.
          1   -1    0    0  501    0  0.00000000000E+00 -0.00000000000E+00 -0.11459344301E+04  0.11459344301E+04  0.50400000000E-02 0. -1.
         25    2    1    2    0    0  0.44519303736E+01 -0.54161663790E+01 -0.94472540163E+03  0.95298565212E+03  0.12500565639E+03 0.  0.
         23    2    1    2    0    0 -0.44519303736E+01  0.54161663790E+01 -0.18620827606E+03  0.20794953119E+03  0.92305638542E+02 0.  0.
        -13    1    4    4    0    0 -0.67451882681E+00 -0.38763797085E+02 -0.13378022274E+03  0.13928476622E+03  0.10566000000E+00 0.  1.
         13    1    4    4    0    0 -0.37774115467E+01  0.44179963464E+02 -0.52428053322E+02  0.68664764973E+02  0.10566000000E+00 0. -1.
    9000005    1    3    3    0    0 -0.48718668216E+02  0.33331572439E+02 -0.41062373606E+03  0.41484618230E+03  0.10000000000E+01 0.  0.
    9000005    1    3    3    0    0  0.53170598589E+02 -0.38747738818E+02 -0.53410166557E+03  0.53813946982E+03  0.10000000000E+01 0.  0.
<mgrwt>
<rscale>  0 0.11609889E+03</rscale>
<asrwt>0</asrwt>
<pdfrwt beam="2">  1        1 0.17629754E+00 0.12520211E+03</pdfrwt>
<pdfrwt beam="1">  1       -1 0.23078090E-02 0.12520211E+03</pdfrwt>
<totfact> 0.67394205E+03</totfact>
</mgrwt>
</event>
<event>
 8    3  0.1560846E-003  0.1287794E+03  0.7818608E-02  0.1242721E+00
         -1   -1    0    0    0  501 -0.00000000000E+00  0.00000000000E+00  0.47717118674E+01  0.47717145291E+01  0.50400000000E-02 0.  1.
          1   -1    0    0  501    0  0.00000000000E+00 -0.00000000000E+00 -0.27390711401E+04  0.27390711401E+04  0.50400000000E-02 0. -1.
         25    2    1    2    0    0 -0.30903446830E+02  0.18614919243E+01 -0.13695488650E+04  0.13755901411E+04  0.12500261806E+03 0.  0.
         23    2    1    2    0    0  0.30903446830E+02 -0.18614919243E+01 -0.13647505632E+04  0.13682527135E+04  0.92805711244E+02 0.  0.
        -13    1    4    4    0    0  0.33699954692E+02 -0.28755951401E+02 -0.30937204800E+03  0.31252786585E+03  0.10566000000E+00 0.  1.
         13    1    4    4    0    0 -0.27965078618E+01  0.26894459477E+02 -0.10553785152E+04  0.10557248477E+04  0.10566000000E+00 0. -1.
    9000005    1    3    3    0    0 -0.57099682696E+02 -0.46576577472E+02 -0.79166166728E+03  0.79508423879E+03  0.10000000000E+01 0.  0.
    9000005    1    3    3    0    0  0.26196235866E+02  0.48438069396E+02 -0.57788719775E+03  0.58050590235E+03  0.10000000000E+01 0.  0.
<mgrwt>
<rscale>  0 0.12022831E+03</rscale>
<asrwt>0</asrwt>
<pdfrwt beam="2">  1        1 0.42139430E+00 0.12877943E+03</pdfrwt>
<pdfrwt beam="1">  1       -1 0.73411191E-03 0.12877943E+03</pdfrwt>
<totfact> 0.32224797E+03</totfact>
</mgrwt>
</event>
<event>
 8    3  0.1560846E-003  0.2327909E+03  0.7818608E-02  0.1127734E+00
          1   -1    0    0  501    0  0.00000000000E+00  0.00000000000E+00  0.26839789071E+03  0.26839789075E+03  0.50400000000E-02 0.  1.
         -1   -1    0    0    0  501 -0.00000000000E+00 -0.00000000000E+00 -0.19073273557E+03  0.19073273564E+03  0.50400000000E-02 0. -1.
         25    2    1    2    0    0 -0.12604090328E+03 -0.15059764230E+03  0.69973743846E+02  0.24308004716E+03  0.12500250131E+03 0.  0.
         23    2    1    2    0    0  0.12604090328E+03  0.15059764230E+03  0.76914112851E+01  0.21605057923E+03  0.89737037014E+02 0.  0.
        -13    1    4    4    0    0  0.11046959319E+03  0.15544334168E+03 -0.11280796387E+02  0.19103253917E+03  0.10566000000E+00 0. -1.
         13    1    4    4    0    0  0.15571310090E+02 -0.48456993765E+01  0.18972207672E+02  0.25018040058E+02  0.10566000000E+00 0.  1.
    9000005    1    3    3    0    0 -0.58745833383E+02 -0.13837179607E+03  0.76209241688E+01  0.15052210925E+03  0.10000000000E+01 0.  0.
    9000005    1    3    3    0    0 -0.67295069897E+02 -0.12225846230E+02  0.62352819678E+02  0.92557937910E+02  0.10000000000E+01 0.  0.
<mgrwt>
<rscale>  0 0.22845173E+03</rscale>
<asrwt>0</asrwt>
<pdfrwt beam="1">  1        1 0.41291983E-01 0.23279086E+03</pdfrwt>
<pdfrwt beam="2">  1       -1 0.29343498E-01 0.23279086E+03</pdfrwt>
<totfact> 0.10702984E+03</totfact>
</mgrwt>
</event>
<event>
 8    3  0.1560846E-003  0.1436317E+03  0.7818608E-02  0.1219594E+00
          1   -1    0    0  501    0  0.00000000000E+00  0.00000000000E+00  0.16453248069E+04  0.16453248069E+04  0.50400000000E-02 0. -1.
         -1   -1    0    0    0  501 -0.00000000000E+00 -0.00000000000E+00 -0.10227418069E+02  0.10227419311E+02  0.50400000000E-02 0.  1.
         25    2    1    2    0    0  0.38546736973E+02 -0.59327289169E+02  0.10190721765E+04  0.10291443870E+04  0.12499796089E+03 0.  0.
         23    2    1    2    0    0 -0.38546736973E+02  0.59327289169E+02  0.61602521238E+03  0.62640783926E+03  0.88848976498E+02 0.  0.
        -13    1    4    4    0    0 -0.75023656563E+01 -0.92739469997E+01  0.34249229118E+03  0.34269997412E+03  0.10566000000E+00 0. -1.
         13    1    4    4    0    0 -0.31044371317E+02  0.68601236169E+02  0.27353292121E+03  0.28370786514E+03  0.10566000000E+00 0.  1.
    9000005    1    3    3    0    0 -0.28802114560E+00  0.83131576138E+01  0.72057896103E+03  0.72062766435E+03  0.10000000000E+01 0.  0.
    9000005    1    3    3    0    0  0.38834758119E+02 -0.67640446783E+02  0.29849321542E+03  0.30851672261E+03  0.10000000000E+01 0.  0.
<mgrwt>
<rscale>  0 0.13544416E+03</rscale>
<asrwt>0</asrwt>
<pdfrwt beam="1">  1        1 0.25312671E+00 0.14363171E+03</pdfrwt>
<pdfrwt beam="2">  1       -1 0.15734502E-02 0.14363171E+03</pdfrwt>
<totfact> 0.55060753E+03</totfact>
</mgrwt>
</event>
<event>
 8    3  0.1560846E-003  0.1327652E+03  0.7818608E-02  0.1242835E+00
         -1   -1    0    0    0  501 -0.00000000000E+00  0.00000000000E+00  0.15541687070E+02  0.15541687887E+02  0.50400000000E-02 0.  1.
          1   -1    0    0  501    0  0.00000000000E+00 -0.00000000000E+00 -0.81277089247E+03  0.81277089248E+03  0.50400000000E-02 0. -1.
         25    2    1    2    0    0  0.19134675074E+02  0.40499387989E+02 -0.54056131967E+03  0.55662657084E+03  0.12498104987E+03 0.  0.
         23    2    1    2    0    0 -0.19134675074E+02 -0.40499387989E+02 -0.25666788573E+03  0.27168600953E+03  0.76997064824E+02 0.  0.
        -13    1    4    4    0    0  0.15781683940E+02 -0.12421801000E+02 -0.12980323306E+02  0.23913649768E+02  0.10566000000E+00 0.  1.
         13    1    4    4    0    0 -0.34916359014E+02 -0.28077586989E+02 -0.24368756242E+03  0.24777235976E+03  0.10566000000E+00 0. -1.
    9000005    1    3    3    0    0 -0.90777910784E+01  0.58567175061E+02 -0.50219835395E+03  0.50568439465E+03  0.10000000000E+01 0.  0.
    9000005    1    3    3    0    0  0.28212466153E+02 -0.18067787073E+02 -0.38362965722E+02  0.50942176191E+02  0.10000000000E+01 0.  0.
<mgrwt>
<rscale>  0 0.12015885E+03</rscale>
<asrwt>0</asrwt>
<pdfrwt beam="2">  1        1 0.12504164E+00 0.13276520E+03</pdfrwt>
<pdfrwt beam="1">  1       -1 0.23910295E-02 0.13276520E+03</pdfrwt>
<totfact> 0.11347787E+04</totfact>
</mgrwt>
</event>
<event>
 8    3  0.1560846E-003  0.3495382E+03  0.7818608E-02  0.1063925E+00
         -1   -1    0    0    0  501 -0.00000000000E+00  0.00000000000E+00  0.70864886372E+02  0.70864886552E+02  0.50400000000E-02 0.  1.
          1   -1    0    0  501    0  0.00000000000E+00 -0.00000000000E+00 -0.19849217560E+04  0.19849217560E+04  0.50400000000E-02 0. -1.
         25    2    1    2    0    0  0.17820792830E+03  0.27348382128E+03 -0.13779023807E+04  0.14215456130E+04  0.12500197141E+03 0.  0.
         23    2    1    2    0    0 -0.17820792830E+03 -0.27348382128E+03 -0.53615448889E+03  0.63424102953E+03  0.90821701023E+02 0.  0.
        -13    1    4    4    0    0 -0.10945642655E+03 -0.18956599680E+03 -0.42973337544E+03  0.48227249723E+03  0.10566000000E+00 0. -1.
         13    1    4    4    0    0 -0.68751501745E+02 -0.83917824482E+02 -0.10642111346E+03  0.15196853231E+03  0.10566000000E+00 0.  1.
    9000005    1    3    3    0    0  0.44954348481E+02  0.17719731854E+03 -0.64333801566E+03  0.66880833243E+03  0.10000000000E+01 0.  0.
    9000005    1    3    3    0    0  0.13325357982E+03  0.96286502744E+02 -0.73456436504E+03  0.75273728055E+03  0.10000000000E+01 0.  0.
<mgrwt>
<rscale>  0 0.34682768E+03</rscale>
<asrwt>0</asrwt>
<pdfrwt beam="2">  1        1 0.30537254E+00 0.34953821E+03</pdfrwt>
<pdfrwt beam="1">  1       -1 0.10902292E-01 0.34953821E+03</pdfrwt>
<totfact> 0.18135049E+02</totfact>
</mgrwt>
</event>
<event>
 8    3  0.1560846E-003  0.1250576E+03  0.7818608E-02  0.1248334E+00
          1   -1    0    0  501    0  0.00000000000E+00  0.00000000000E+00  0.24854147546E+02  0.24854148057E+02  0.50400000000E-02 0. -1.
         -1   -1    0    0    0  501 -0.00000000000E+00 -0.00000000000E+00 -0.54716451329E+03  0.54716451331E+03  0.50400000000E-02 0.  1.
         25    2    1    2    0    0 -0.27274359676E+01  0.24701313589E+01 -0.38506146869E+03  0.40486013698E+03  0.12500342153E+03 0.  0.
         23    2    1    2    0    0  0.27274359676E+01 -0.24701313589E+01 -0.13724889706E+03  0.16715852439E+03  0.95347638023E+02 0.  0.
        -13    1    4    4    0    0 -0.26452064056E+02 -0.29468795384E+02 -0.11494523308E+03  0.12157524158E+03  0.10566000000E+00 0.  1.
         13    1    4    4    0    0  0.29179500023E+02  0.26998664025E+02 -0.22303663984E+02  0.45583282812E+02  0.10566000000E+00 0. -1.
    9000005    1    3    3    0    0  0.29711769733E+02  0.48375465690E+02 -0.28003578602E+03  0.28573417085E+03  0.10000000000E+01 0.  0.
    9000005    1    3    3    0    0 -0.32439205701E+02 -0.45905334331E+02 -0.10502568267E+03  0.11912596613E+03  0.10000000000E+01 0.  0.
<mgrwt>
<rscale>  0 0.11688015E+03</rscale>
<asrwt>0</asrwt>
<pdfrwt beam="1">  1        1 0.38237154E-02 0.12505757E+03</pdfrwt>
<pdfrwt beam="2">  1       -1 0.84179147E-01 0.12505757E+03</pdfrwt>
<totfact> 0.33960488E+03</totfact>
</mgrwt>
</event>
<event>
 8    3  0.1560846E-003  0.1387924E+03  0.7818608E-02  0.1226566E+00
         -1   -1    0    0    0  501 -0.00000000000E+00  0.00000000000E+00  0.95971561186E+02  0.95971561318E+02  0.50400000000E-02 0.  1.
          1   -1    0    0  501    0  0.00000000000E+00 -0.00000000000E+00 -0.17674265181E+03  0.17674265188E+03  0.50400000000E-02 0. -1.
         25    2    1    2    0    0 -0.50140828769E+02  0.33602731217E+02 -0.86853141584E+02  0.16372780661E+03  0.12498031925E+03 0.  0.
         23    2    1    2    0    0  0.50140828769E+02 -0.33602731217E+02  0.60820509577E+01  0.10898640659E+03  0.90541698808E+02 0.  0.
        -13    1    4    4    0    0  0.29545063502E+02  0.17270146574E+00 -0.39051848087E+02  0.48969363955E+02  0.10566000000E+00 0. -1.
         13    1    4    4    0    0  0.20595765267E+02 -0.33775432683E+02  0.45133899045E+02  0.60017042637E+02  0.10566000000E+00 0.  1.
    9000005    1    3    3    0    0 -0.17695416987E+02  0.56862626945E+02  0.86744855984E+01  0.60189142092E+02  0.10000000000E+01 0.  0.
    9000005    1    3    3    0    0 -0.32445411782E+02 -0.23259895728E+02 -0.95527627182E+02  0.10353866452E+03  0.10000000000E+01 0.  0.
<mgrwt>
<rscale>  0 0.13060145E+03</rscale>
<asrwt>0</asrwt>
<pdfrwt beam="2">  1        1 0.27191177E-01 0.13879239E+03</pdfrwt>
<pdfrwt beam="1">  1       -1 0.14764856E-01 0.13879239E+03</pdfrwt>
<totfact> 0.54101410E+03</totfact>
</mgrwt>
</event>
<event>
 8    3  0.1560846E-003  0.1321676E+03  0.7818608E-02  0.1237986E+00
         -1   -1    0    0    0  501 -0.00000000000E+00  0.00000000000E+00  0.45284243859E+02  0.45284244139E+02  0.50400000000E-02 0.  1.
          1   -1    0    0  501    0  0.00000000000E+00 -0.00000000000E+00 -0.33498126613E+03  0.33498126617E+03  0.50400000000E-02 0. -1.
         25    2    1    2    0    0 -0.32309663831E+02  0.28282159866E+02 -0.99082552088E+02  0.16518364662E+03  0.12499796014E+03 0.  0.
         23    2    1    2    0    0  0.32309663831E+02 -0.28282159866E+02 -0.19061447018E+03  0.21508186368E+03  0.89902930426E+02 0.  0.
        -13    1    4    4    0    0 -0.10732452797E+02  0.26254489626E+02 -0.75179918496E+02  0.80352442885E+02  0.10566000000E+00 0.  1.
         13    1    4    4    0    0  0.43042116628E+02 -0.54536649492E+02 -0.11543455169E+03  0.13472942080E+03  0.10566000000E+00 0. -1.
    9000005    1    3    3    0    0  0.27001632304E+02 -0.13590636297E+02 -0.86314040505E+02  0.91459866227E+02  0.10000000000E+01 0.  0.
    9000005    1    3    3    0    0 -0.59311296135E+02  0.41872796163E+02 -0.12768511583E+02  0.73723780395E+02  0.10000000000E+01 0.  0.
<mgrwt>
<rscale>  0 0.12315228E+03</rscale>
<asrwt>0</asrwt>
<pdfrwt beam="2">  1        1 0.51535578E-01 0.13216764E+03</pdfrwt>
<pdfrwt beam="1">  1       -1 0.69668070E-02 0.13216764E+03</pdfrwt>
<totfact> 0.76969238E+03</totfact>
</mgrwt>
</event>
<event>
 8    3  0.1560846E-003  0.2062445E+03  0.7818608E-02  0.1148357E+00
         -1   -1    0    0    0  501 -0.00000000000E+00  0.00000000000E+00  0.15495193864E+02  0.15495194683E+02  0.50400000000E-02 0.  1.
          1   -1    0    0  501    0  0.00000000000E+00 -0.00000000000E+00 -0.25397096042E+04  0.25397096042E+04  0.50400000000E-02 0. -1.
         25    2    1    2    0    0  0.66174170913E+02 -0.15008737981E+03 -0.14479764992E+04  0.14625911016E+04  0.12502618041E+03 0.  0.
         23    2    1    2    0    0 -0.66174170913E+02  0.15008737981E+03 -0.10762379111E+04  0.10926136973E+04  0.92797670489E+02 0.  0.
        -13    1    4    4    0    0  0.23109789866E+02  0.21757996374E+02 -0.20925861721E+03  0.21165219780E+03  0.10566000000E+00 0. -1.
         13    1    4    4    0    0 -0.89283960780E+02  0.12832938343E+03 -0.86697929394E+03  0.88096149949E+03  0.10566000000E+00 0.  1.
    9000005    1    3    3    0    0  0.87625850084E+02 -0.76209378789E+02 -0.60030836650E+03  0.61143870821E+03  0.10000000000E+01 0.  0.
    9000005    1    3    3    0    0 -0.21451679170E+02 -0.73878001018E+02 -0.84766813269E+03  0.85115239338E+03  0.10000000000E+01 0.  0.
<mgrwt>
<rscale>  0 0.20164653E+03</rscale>
<asrwt>0</asrwt>
<pdfrwt beam="2">  1        1 0.39072422E+00 0.20624449E+03</pdfrwt>
<pdfrwt beam="1">  1       -1 0.23838781E-02 0.20624449E+03</pdfrwt>
<totfact> 0.79719528E+02</totfact>
</mgrwt>
</event>
<event>
 8    3  0.1560846E-003  0.1915017E+03  0.7818608E-02  0.1161856E+00
          1   -1    0    0  501    0  0.00000000000E+00  0.00000000000E+00  0.20637841051E+03  0.20637841057E+03  0.50400000000E-02 0. -1.
         -1   -1    0    0    0  501 -0.00000000000E+00 -0.00000000000E+00 -0.17303910079E+03  0.17303910086E+03  0.50400000000E-02 0.  1.
         25    2    1    2    0    0 -0.13137111926E+03 -0.61542563427E+02 -0.35286697690E+02  0.19472558500E+03  0.12500817705E+03 0.  0.
         23    2    1    2    0    0  0.13137111926E+03  0.61542563427E+02  0.68626007414E+02  0.18469192644E+03  0.91409631370E+02 0.  0.
        -13    1    4    4    0    0  0.50798067401E+02 -0.10639967812E+02 -0.74639810398E+01  0.52434480485E+02  0.10566000000E+00 0.  1.
         13    1    4    4    0    0  0.80573051863E+02  0.72182531239E+02  0.76089988453E+02  0.13225744595E+03  0.10566000000E+00 0. -1.
    9000005    1    3    3    0    0 -0.38930854167E+02 -0.58023973150E+02 -0.67115162552E+02  0.96890855661E+02  0.10000000000E+01 0.  0.
    9000005    1    3    3    0    0 -0.92440265097E+02 -0.35185902769E+01  0.31828464862E+02  0.97834729336E+02  0.10000000000E+01 0.  0.
<mgrwt>
<rscale>  0 0.18628411E+03</rscale>
<asrwt>0</asrwt>
<pdfrwt beam="1">  1        1 0.31750525E-01 0.19150170E+03</pdfrwt>
<pdfrwt beam="2">  1       -1 0.26621400E-01 0.19150170E+03</pdfrwt>
<totfact> 0.17464085E+03</totfact>
</mgrwt>
</event>
<event>
 8    3  0.1560846E-003  0.2603100E+03  0.7818608E-02  0.1109260E+00
          1   -1    0    0  501    0  0.00000000000E+00  0.00000000000E+00  0.24988904542E+03  0.24988904547E+03  0.50400000000E-02 0. -1.
         -1   -1    0    0    0  501 -0.00000000000E+00 -0.00000000000E+00 -0.27082333164E+03  0.27082333169E+03  0.50400000000E-02 0.  1.
         25    2    1    2    0    0  0.10342044754E+02 -0.22809948693E+03 -0.71871779362E+02  0.27004969760E+03  0.12499981071E+03 0.  0.
         23    2    1    2    0    0 -0.10342044754E+02  0.22809948693E+03  0.50937493138E+02  0.25066267955E+03  0.90004538130E+02 0.  0.
        -13    1    4    4    0    0  0.18600261068E+02  0.16338916414E+03  0.18801398002E+01  0.16445526675E+03  0.10566000000E+00 0.  1.
         13    1    4    4    0    0 -0.28942305822E+02  0.64710322790E+02  0.49057353338E+02  0.86207412805E+02  0.10566000000E+00 0. -1.
    9000005    1    3    3    0    0  0.69716689887E+01  0.15314636424E+02 -0.53458971970E+01  0.17683915690E+02  0.10000000000E+01 0.  0.
    9000005    1    3    3    0    0  0.33703757649E+01 -0.24341412336E+03 -0.66525882165E+02  0.25236578191E+03  0.10000000000E+01 0.  0.
<mgrwt>
<rscale>  0 0.25650815E+03</rscale>
<asrwt>0</asrwt>
<pdfrwt beam="1">  1        1 0.38444468E-01 0.26030998E+03</pdfrwt>
<pdfrwt beam="2">  1       -1 0.41665128E-01 0.26030998E+03</pdfrwt>
<totfact> 0.63612810E+02</totfact>
</mgrwt>
</event>
<event>
 8    3  0.1560846E-003  0.1966800E+03  0.7818608E-02  0.1156885E+00
         -1   -1    0    0    0  501 -0.00000000000E+00  0.00000000000E+00  0.47980797932E+02  0.47980798197E+02  0.50400000000E-02 0.  1.
          1   -1    0    0  501    0  0.00000000000E+00 -0.00000000000E+00 -0.73291060983E+03  0.73291060985E+03  0.50400000000E-02 0. -1.
         25    2    1    2    0    0  0.65332967674E+02 -0.13707340219E+03 -0.38272797226E+03  0.43030653290E+03  0.12500198899E+03 0.  0.
         23    2    1    2    0    0 -0.65332967674E+02  0.13707340219E+03 -0.30220183963E+03  0.35058487514E+03  0.92337904184E+02 0.  0.
        -13    1    4    4    0    0 -0.60137836162E+02  0.24860747739E+02 -0.12098970098E+03  0.13737952913E+03  0.10566000000E+00 0. -1.
         13    1    4    4    0    0 -0.51951315120E+01  0.11221265445E+03 -0.18121213866E+03  0.21320534602E+03  0.10566000000E+00 0.  1.
    9000005    1    3    3    0    0  0.24465955083E+02 -0.10389472428E+03 -0.35520650828E+03  0.37089804558E+03  0.10000000000E+01 0.  0.
    9000005    1    3    3    0    0  0.40867012591E+02 -0.33178677909E+02 -0.27521463988E+02  0.59408487323E+02  0.10000000000E+01 0.  0.
<mgrwt>
<rscale>  0 0.19175785E+03</rscale>
<asrwt>0</asrwt>
<pdfrwt beam="2">  1        1 0.11275547E+00 0.19667997E+03</pdfrwt>
<pdfrwt beam="1">  1       -1 0.73816617E-02 0.19667997E+03</pdfrwt>
<totfact> 0.25441379E+03</totfact>
</mgrwt>
</event>
<event>
 8    3  0.1560846E-003  0.1354244E+03  0.7818608E-02  0.1232756E+00
          1   -1    0    0  501    0  0.00000000000E+00  0.00000000000E+00  0.47797386865E+02  0.47797387130E+02  0.50400000000E-02 0. -1.
         -1   -1    0    0    0  501 -0.00000000000E+00 -0.00000000000E+00 -0.58139490478E+03  0.58139490481E+03  0.50400000000E-02 0.  1.
         25    2    1    2    0    0 -0.11538877556E+02  0.50832657327E+02 -0.50410702551E+03  0.52198052162E+03  0.12499066779E+03 0.  0.
         23    2    1    2    0    0  0.11538877556E+02 -0.50832657327E+02 -0.29490492409E+02  0.10721177032E+03  0.88924517460E+02 0.  0.
        -13    1    4    4    0    0 -0.28699911795E+02 -0.87103907955E+01 -0.37924337449E+02  0.48351032873E+02  0.10566000000E+00 0.  1.
         13    1    4    4    0    0  0.40238789351E+02 -0.42122266532E+02  0.84338450396E+01  0.58860737444E+02  0.10566000000E+00 0. -1.
    9000005    1    3    3    0    0  0.37124229678E+02  0.38393607670E+02 -0.88665916826E+02  0.10351290908E+03  0.10000000000E+01 0.  0.
    9000005    1    3    3    0    0 -0.48663107234E+02  0.12439049657E+02 -0.41544110869E+03  0.41846761254E+03  0.10000000000E+01 0.  0.
<mgrwt>
<rscale>  0 0.12649174E+03</rscale>
<asrwt>0</asrwt>
<pdfrwt beam="1">  1        1 0.73534445E-02 0.13542441E+03</pdfrwt>
<pdfrwt beam="2">  1       -1 0.89445365E-01 0.13542441E+03</pdfrwt>
<totfact> 0.12322082E+03</totfact>
</mgrwt>
</event>
<event>
 8    3  0.1560846E-003  0.1633620E+03  0.7818608E-02  0.1191974E+00
          1   -1    0    0  501    0  0.00000000000E+00  0.00000000000E+00  0.19899292347E+04  0.19899292347E+04  0.50400000000E-02 0. -1.
         -1   -1    0    0    0  501 -0.00000000000E+00 -0.00000000000E+00 -0.11550235768E+02  0.11550236867E+02  0.50400000000E-02 0.  1.
         25    2    1    2    0    0 -0.84777056750E+02  0.62248370711E+02  0.10766749729E+04  0.10889977619E+04  0.12500047629E+03 0.  0.
         23    2    1    2    0    0  0.84777056750E+02 -0.62248370711E+02  0.90170402600E+03  0.91248170968E+03  0.92145054021E+02 0.  0.
        -13    1    4    4    0    0  0.10672901042E+02  0.35389157380E+00  0.75445941600E+01  0.13075477849E+02  0.10566000000E+00 0.  1.
         13    1    4    4    0    0  0.74104155708E+02 -0.62602262285E+02  0.89415943184E+03  0.89940623183E+03  0.10566000000E+00 0. -1.
    9000005    1    3    3    0    0 -0.10766041990E+03  0.35580453306E+02  0.57387231142E+03  0.58496766106E+03  0.10000000000E+01 0.  0.
    9000005    1    3    3    0    0  0.22883363150E+02  0.26667917406E+02  0.50280266153E+03  0.50403010085E+03  0.10000000000E+01 0.  0.
<mgrwt>
<rscale>  0 0.15713180E+03</rscale>
<asrwt>0</asrwt>
<pdfrwt beam="1">  1        1 0.30614332E+00 0.16336195E+03</pdfrwt>
<pdfrwt beam="2">  1       -1 0.17769573E-02 0.16336195E+03</pdfrwt>
<totfact> 0.27883627E+03</totfact>
</mgrwt>
</event>
<event>
 8    3  0.1560846E-003  0.1421842E+03  0.7818608E-02  0.1221764E+00
         -1   -1    0    0    0  501 -0.00000000000E+00  0.00000000000E+00  0.70905432134E+02  0.70905432313E+02  0.50400000000E-02 0.  1.
          1   -1    0    0  501    0  0.00000000000E+00 -0.00000000000E+00 -0.39721420987E+03  0.39721420990E+03  0.50400000000E-02 0. -1.
         25    2    1    2    0    0  0.55061397912E+02  0.39490846841E+02 -0.32664283950E+03  0.35624696809E+03  0.12500029261E+03 0.  0.
         23    2    1    2    0    0 -0.55061397912E+02 -0.39490846841E+02  0.33406176566E+00  0.11187267412E+03  0.89017408938E+02 0.  0.
        -13    1    4    4    0    0 -0.21766226722E+02  0.16023270170E+02  0.30245813286E+02  0.40562719313E+02  0.10566000000E+00 0.  1.
         13    1    4    4    0    0 -0.33295171190E+02 -0.55514117011E+02 -0.29911751520E+02  0.71309954811E+02  0.10566000000E+00 0. -1.
    9000005    1    3    3    0    0  0.51739212119E+02  0.49113571013E+02 -0.71870050841E+02  0.10126891495E+03  0.10000000000E+01 0.  0.
    9000005    1    3    3    0    0  0.33221857932E+01 -0.96227241720E+01 -0.25477278866E+03  0.25497805313E+03  0.10000000000E+01 0.  0.
<mgrwt>
<rscale>  0 0.13391188E+03</rscale>
<asrwt>0</asrwt>
<pdfrwt beam="2">  1        1 0.61109877E-01 0.14218424E+03</pdfrwt>
<pdfrwt beam="1">  1       -1 0.10908528E-01 0.14218424E+03</pdfrwt>
<totfact> 0.31639746E+03</totfact>
</mgrwt>
</event>
<event>
 8    3  0.1560846E-003  0.2343694E+03  0.7818608E-02  0.1126498E+00
         -1   -1    0    0    0  501 -0.00000000000E+00  0.00000000000E+00  0.16959714255E+04  0.16959714256E+04  0.50400000000E-02 0.  1.
          1   -1    0    0  501    0  0.00000000000E+00 -0.00000000000E+00 -0.31022115991E+02  0.31022116401E+02  0.50400000000E-02 0. -1.
         25    2    1    2    0    0 -0.15868980143E+03  0.11883568010E+03  0.71966114989E+03  0.75686273067E+03  0.12499860187E+03 0.  0.
         23    2    1    2    0    0  0.15868980143E+03 -0.11883568010E+03  0.94528815966E+03  0.97013081128E+03  0.90992935230E+02 0.  0.
        -13    1    4    4    0    0  0.59565985964E+02  0.20956550204E+01  0.20390517870E+03  0.21243782977E+03  0.10566000000E+00 0.  1.
         13    1    4    4    0    0  0.99123815466E+02 -0.12093133512E+03  0.74138298096E+03  0.75769298151E+03  0.10566000000E+00 0. -1.
    9000005    1    3    3    0    0 -0.15501744579E+03  0.11451062728E+03  0.48159853728E+03  0.51873041492E+03  0.10000000000E+01 0.  0.
    9000005    1    3    3    0    0 -0.36723556374E+01  0.43250528265E+01  0.23806261261E+03  0.23813231574E+03  0.10000000000E+01 0.  0.
<mgrwt>
<rscale>  0 0.23020164E+03</rscale>
<asrwt>0</asrwt>
<pdfrwt beam="2">  1        1 0.47726345E-02 0.23436941E+03</pdfrwt>
<pdfrwt beam="1">  1       -1 0.26091861E+00 0.23436941E+03</pdfrwt>
<totfact> 0.12084620E+02</totfact>
</mgrwt>
</event>
<event>
 8    3  0.1560846E-003  0.1468100E+03  0.7818608E-02  0.1214405E+00
         -1   -1    0    0    0  501 -0.00000000000E+00  0.00000000000E+00  0.32386432354E+02  0.32386432747E+02  0.50400000000E-02 0.  1.
          1   -1    0    0  501    0  0.00000000000E+00 -0.00000000000E+00 -0.56049382827E+03  0.56049382829E+03  0.50400000000E-02 0. -1.
         25    2    1    2    0    0 -0.41586499356E+02  0.64793930872E+02 -0.24071466131E+03  0.28195161355E+03  0.12500189522E+03 0.  0.
         23    2    1    2    0    0  0.41586499356E+02 -0.64793930872E+02 -0.28739273460E+03  0.31092864748E+03  0.90301436968E+02 0.  0.
        -13    1    4    4    0    0  0.31043370633E+02 -0.16538966476E+02 -0.23149537518E+02  0.42108675159E+02  0.10566000000E+00 0.  1.
         13    1    4    4    0    0  0.10543128723E+02 -0.48254964396E+02 -0.26424319708E+03  0.26881997233E+03  0.10566000000E+00 0. -1.
    9000005    1    3    3    0    0  0.44618031614E+02  0.23130306360E+02 -0.97182072664E+02  0.10941268238E+03  0.10000000000E+01 0.  0.
    9000005    1    3    3    0    0 -0.86204530971E+02  0.41663624512E+02 -0.14353258865E+03  0.17253893118E+03  0.10000000000E+01 0.  0.
<mgrwt>
<rscale>  0 0.13920340E+03</rscale>
<asrwt>0</asrwt>
<pdfrwt beam="2">  1        1 0.86229813E-01 0.14680996E+03</pdfrwt>
<pdfrwt beam="1">  1       -1 0.49825285E-02 0.14680996E+03</pdfrwt>
<totfact> 0.66035735E+03</totfact>
</mgrwt>
</event>
<event>
 8    3  0.1560846E-003  0.1454637E+03  0.7818608E-02  0.1215472E+00
          1   -1    0    0  501    0  0.00000000000E+00  0.00000000000E+00  0.24723716500E+02  0.24723717014E+02  0.50400000000E-02 0. -1.
         -1   -1    0    0    0  501 -0.00000000000E+00 -0.00000000000E+00 -0.70893085017E+03  0.70893085019E+03  0.50400000000E-02 0.  1.
         25    2    1    2    0    0  0.57800838194E+02 -0.46838477659E+02 -0.36877629394E+03  0.39642859348E+03  0.12499957949E+03 0.  0.
         23    2    1    2    0    0 -0.57800838194E+02  0.46838477659E+02 -0.31543083973E+03  0.33722597372E+03  0.93219970029E+02 0.  0.
        -13    1    4    4    0    0  0.10156101177E+02  0.19256947304E+02 -0.19506523479E+03  0.19627642089E+03  0.10566000000E+00 0.  1.
         13    1    4    4    0    0 -0.67956939371E+02  0.27581530355E+02 -0.12036560494E+03  0.14094955283E+03  0.10566000000E+00 0. -1.
    9000005    1    3    3    0    0  0.29828288080E+02 -0.49888804870E+02 -0.36307667769E+03  0.36770136456E+03  0.10000000000E+01 0.  0.
    9000005    1    3    3    0    0  0.27972550114E+02  0.30503272113E+01 -0.56996162520E+01  0.28727228920E+02  0.10000000000E+01 0.  0.
<mgrwt>
<rscale>  0 0.13841923E+03</rscale>
<asrwt>0</asrwt>
<pdfrwt beam="1">  1        1 0.38036493E-02 0.14546365E+03</pdfrwt>
<pdfrwt beam="2">  1       -1 0.10906627E+00 0.14546365E+03</pdfrwt>
<totfact> 0.19669061E+03</totfact>
</mgrwt>
</event>
<event>
 8    3  0.1560846E-003  0.1745940E+03  0.7818608E-02  0.1178627E+00
          1   -1    0    0  501    0  0.00000000000E+00  0.00000000000E+00  0.79084726380E+02  0.79084726541E+02  0.50400000000E-02 0. -1.
         -1   -1    0    0    0  501 -0.00000000000E+00 -0.00000000000E+00 -0.35880627055E+03  0.35880627058E+03  0.50400000000E-02 0.  1.
         25    2    1    2    0    0  0.12044738883E+03 -0.18721627052E+02 -0.19578970717E+03  0.26232932625E+03  0.12499997273E+03 0.  0.
         23    2    1    2    0    0 -0.12044738883E+03  0.18721627052E+02 -0.83931836996E+02  0.17556167087E+03  0.94441909253E+02 0.  0.
        -13    1    4    4    0    0 -0.56768202220E+02  0.74518770932E+01 -0.94048990703E+02  0.11010623539E+03  0.10566000000E+00 0.  1.
         13    1    4    4    0    0 -0.63679186607E+02  0.11269749959E+02  0.10117153707E+02  0.65455435482E+02  0.10566000000E+00 0. -1.
    9000005    1    3    3    0    0  0.97916433739E+02 -0.53012330119E+02 -0.73714489843E+02  0.13353936181E+03  0.10000000000E+01 0.  0.
    9000005    1    3    3    0    0  0.22530955088E+02  0.34290703067E+02 -0.12207521733E+03  0.12878996444E+03  0.10000000000E+01 0.  0.
<mgrwt>
<rscale>  0 0.16925535E+03</rscale>
<asrwt>0</asrwt>
<pdfrwt beam="1">  1        1 0.12166881E-01 0.17459400E+03</pdfrwt>
<pdfrwt beam="2">  1       -1 0.55200964E-01 0.17459400E+03</pdfrwt>
<totfact> 0.16549797E+03</totfact>
</mgrwt>
</event>
<event>
 8    3  0.1560846E-003  0.1603547E+03  0.7818608E-02  0.1197667E+00
          1   -1    0    0  501    0  0.00000000000E+00  0.00000000000E+00  0.13049927458E+02  0.13049928431E+02  0.50400000000E-02 0. -1.
         -1   -1    0    0    0  501 -0.00000000000E+00 -0.00000000000E+00 -0.17516311559E+04  0.17516311559E+04  0.50400000000E-02 0.  1.
         25    2    1    2    0    0 -0.21315584510E+02  0.98151139651E+02 -0.11918794453E+04  0.12026180794E+04  0.12500253013E+03 0.  0.
         23    2    1    2    0    0  0.21315584510E+02 -0.98151139651E+02 -0.54670178318E+03  0.56206300492E+03  0.83330555101E+02 0.  0.
        -13    1    4    4    0    0  0.29003946435E+02 -0.46663709183E+01 -0.22674242124E+03  0.22863757495E+03  0.10566000000E+00 0.  1.
         13    1    4    4    0    0 -0.76883619248E+01 -0.93484768733E+02 -0.31995936194E+03  0.33342542997E+03  0.10566000000E+00 0. -1.
    9000005    1    3    3    0    0  0.14823067908E+02 -0.20231251827E+02 -0.43152201002E+03  0.43225139910E+03  0.10000000000E+01 0.  0.
    9000005    1    3    3    0    0 -0.36138652418E+02  0.11838239148E+03 -0.76035743523E+03  0.77036668030E+03  0.10000000000E+01 0.  0.
<mgrwt>
<rscale>  0 0.15230685E+03</rscale>
<asrwt>0</asrwt>
<pdfrwt beam="1">  1        1 0.20076826E-02 0.16035471E+03</pdfrwt>
<pdfrwt beam="2">  1       -1 0.26948153E+00 0.16035471E+03</pdfrwt>
<totfact> 0.36012370E+02</totfact>
</mgrwt>
</event>
<event>
 8    3  0.1560846E-003  0.1602384E+03  0.7818608E-02  0.1197489E+00
          1   -1    0    0  501    0  0.00000000000E+00  0.00000000000E+00  0.14766147711E+04  0.14766147711E+04  0.50400000000E-02 0. -1.
         -1   -1    0    0    0  501 -0.00000000000E+00 -0.00000000000E+00 -0.15546538954E+02  0.15546539771E+02  0.50400000000E-02 0.  1.
         25    2    1    2    0    0  0.59259109434E+02  0.80870162426E+02  0.10002099349E+04  0.10129640954E+04  0.12499887734E+03 0.  0.
         23    2    1    2    0    0 -0.59259109434E+02 -0.80870162426E+02  0.46085829724E+03  0.47919721554E+03  0.84781932195E+02 0.  0.
        -13    1    4    4    0    0  0.68940288213E+01 -0.12217239152E+02  0.21566455828E+03  0.21612034015E+03  0.10566000000E+00 0. -1.
         13    1    4    4    0    0 -0.66153138255E+02 -0.68652923274E+02  0.24519373896E+03  0.26307687539E+03  0.10566000000E+00 0.  1.
    9000005    1    3    3    0    0 -0.60545852481E+01  0.58053614022E+01  0.65989158559E+00  0.84732331752E+01  0.10000000000E+01 0.  0.
    9000005    1    3    3    0    0  0.65313694682E+02  0.75064801024E+02  0.99955004334E+03  0.10044908622E+04  0.10000000000E+01 0.  0.
<mgrwt>
<rscale>  0 0.15245471E+03</rscale>
<asrwt>0</asrwt>
<pdfrwt beam="1">  1        1 0.22717151E+00 0.16023840E+03</pdfrwt>
<pdfrwt beam="2">  1       -1 0.23917752E-02 0.16023840E+03</pdfrwt>
<totfact> 0.38747659E+03</totfact>
</mgrwt>
</event>
<event>
 8    3  0.1560846E-003  0.2211785E+03  0.7818608E-02  0.1136371E+00
          1   -1    0    0  501    0  0.00000000000E+00  0.00000000000E+00  0.31524495743E+03  0.31524495747E+03  0.50400000000E-02 0. -1.
         -1   -1    0    0    0  501 -0.00000000000E+00 -0.00000000000E+00 -0.14676802301E+03  0.14676802310E+03  0.50400000000E-02 0.  1.
         25    2    1    2    0    0 -0.15620970397E+03 -0.94313096111E+02  0.12350341827E+03  0.25332391593E+03  0.12499392123E+03 0.  0.
         23    2    1    2    0    0  0.15620970397E+03  0.94313096111E+02  0.44973516138E+02  0.20868906464E+03  0.90730793191E+02 0.  0.
        -13    1    4    4    0    0  0.67857977713E+02  0.44023439800E+02  0.66570369682E+02  0.10475874033E+03  0.10566000000E+00 0. -1.
         13    1    4    4    0    0  0.88351726255E+02  0.50289656311E+02 -0.21596853544E+02  0.10393032431E+03  0.10566000000E+00 0.  1.
    9000005    1    3    3    0    0  0.33387611995E+01  0.22478893360E+02  0.68887423493E+01  0.23767682769E+02  0.10000000000E+01 0.  0.
    9000005    1    3    3    0    0 -0.15954846517E+03 -0.11679198947E+03  0.11661467592E+03  0.22955623316E+03  0.10000000000E+01 0.  0.
<mgrwt>
<rscale>  0 0.21669576E+03</rscale>
<asrwt>0</asrwt>
<pdfrwt beam="1">  1        1 0.48499223E-01 0.22117846E+03</pdfrwt>
<pdfrwt beam="2">  1       -1 0.22579696E-01 0.22117846E+03</pdfrwt>
<totfact> 0.13531577E+03</totfact>
</mgrwt>
</event>
<event>
 8    3  0.1560846E-003  0.1812437E+03  0.7818608E-02  0.1172141E+00
         -1   -1    0    0    0  501 -0.00000000000E+00  0.00000000000E+00  0.80578390264E+02  0.80578390421E+02  0.50400000000E-02 0.  1.
          1   -1    0    0  501    0  0.00000000000E+00 -0.00000000000E+00 -0.37482391597E+03  0.37482391601E+03  0.50400000000E-02 0. -1.
         25    2    1    2    0    0 -0.59134939454E+02  0.11716016654E+03 -0.20039190616E+03  0.27019655840E+03  0.12500327368E+03 0.  0.
         23    2    1    2    0    0  0.59134939454E+02 -0.11716016654E+03 -0.93853619549E+02  0.18520574803E+03  0.90935260008E+02 0.  0.
        -13    1    4    4    0    0 -0.11643227382E+02 -0.68145833550E+02 -0.63639828797E+02  0.93965197533E+02  0.10566000000E+00 0. -1.
         13    1    4    4    0    0  0.70778166836E+02 -0.49014332987E+02 -0.30213790752E+02  0.91240550494E+02  0.10566000000E+00 0.  1.
    9000005    1    3    3    0    0 -0.21790432832E+02  0.13181193231E+03 -0.11675639645E+03  0.17743242255E+03  0.10000000000E+01 0.  0.
    9000005    1    3    3    0    0 -0.37344506623E+02 -0.14651765769E+02 -0.83635509713E+02  0.92764135850E+02  0.10000000000E+01 0.  0.
<mgrwt>
<rscale>  0 0.17558970E+03</rscale>
<asrwt>0</asrwt>
<pdfrwt beam="2">  1        1 0.57665217E-01 0.18124366E+03</pdfrwt>
<pdfrwt beam="1">  1       -1 0.12396676E-01 0.18124366E+03</pdfrwt>
<totfact> 0.28200099E+03</totfact>
</mgrwt>
</event>
<event>
 8    3  0.1560846E-003  0.2190930E+03  0.7818608E-02  0.1137803E+00
          1   -1    0    0  501    0  0.00000000000E+00  0.00000000000E+00  0.94696383212E+03  0.94696383214E+03  0.50400000000E-02 0. -1.
         -1   -1    0    0    0  501 -0.00000000000E+00 -0.00000000000E+00 -0.62537309194E+02  0.62537309398E+02  0.50400000000E-02 0.  1.
         25    2    1    2    0    0 -0.61364845586E+02 -0.16914702101E+03  0.70731978333E+03  0.74047486479E+03  0.12500156200E+03 0.  0.
         23    2    1    2    0    0  0.61364845586E+02  0.16914702101E+03  0.17710673960E+03  0.26902627675E+03  0.92908456974E+02 0.  0.
        -13    1    4    4    0    0  0.24544144042E+02  0.68767169299E+02  0.14539195801E+02  0.74449566545E+02  0.10566000000E+00 0.  1.
         13    1    4    4    0    0  0.36820701544E+02  0.10037985171E+03  0.16256754380E+03  0.19457671020E+03  0.10566000000E+00 0. -1.
    9000005    1    3    3    0    0 -0.11800407532E+02 -0.99393301713E+02  0.17741051433E+03  0.20370019303E+03  0.10000000000E+01 0.  0.
    9000005    1    3    3    0    0 -0.49564438054E+02 -0.69753719300E+02  0.52990926900E+03  0.53677467176E+03  0.10000000000E+01 0.  0.
<mgrwt>
<rscale>  0 0.21482283E+03</rscale>
<asrwt>0</asrwt>
<pdfrwt beam="1">  1        1 0.14568674E+00 0.21909302E+03</pdfrwt>
<pdfrwt beam="2">  1       -1 0.96211247E-02 0.21909302E+03</pdfrwt>
<totfact> 0.11383022E+03</totfact>
</mgrwt>
</event>
<event>
 8    3  0.1560846E-003  0.1980463E+03  0.7818608E-02  0.1155803E+00
          1   -1    0    0  501    0  0.00000000000E+00  0.00000000000E+00  0.92749171169E+03  0.92749171170E+03  0.50400000000E-02 0. -1.
         -1   -1    0    0    0  501 -0.00000000000E+00 -0.00000000000E+00 -0.42606470885E+02  0.42606471183E+02  0.50400000000E-02 0.  1.
         25    2    1    2    0    0  0.11558240786E+03 -0.10118259637E+03  0.61835539374E+03  0.64929634592E+03  0.12500056417E+03 0.  0.
         23    2    1    2    0    0 -0.11558240786E+03  0.10118259637E+03  0.26652984707E+03  0.32080183697E+03  0.90985979198E+02 0.  0.
        -13    1    4    4    0    0 -0.83102029339E+02  0.10997072941E+03  0.24420671578E+03  0.28042189609E+03  0.10566000000E+00 0. -1.
         13    1    4    4    0    0 -0.32480378524E+02 -0.87881330420E+01  0.22323131284E+02  0.40379940883E+02  0.10566000000E+00 0.  1.
    9000005    1    3    3    0    0  0.40153135359E+02  0.18114953052E+02  0.26765794461E+03  0.27126039357E+03  0.10000000000E+01 0.  0.
    9000005    1    3    3    0    0  0.75429272503E+02 -0.11929754942E+03  0.35069744912E+03  0.37803595235E+03  0.10000000000E+01 0.  0.
<mgrwt>
<rscale>  0 0.19297787E+03</rscale>
<asrwt>0</asrwt>
<pdfrwt beam="1">  1        1 0.14269103E+00 0.19804634E+03</pdfrwt>
<pdfrwt beam="2">  1       -1 0.65548418E-02 0.19804634E+03</pdfrwt>
<totfact> 0.21135366E+03</totfact>
</mgrwt>
</event>
<event>
 8    3  0.1560846E-003  0.1282815E+03  0.7818608E-02  0.1245195E+00
          1   -1    0    0  501    0  0.00000000000E+00  0.00000000000E+00  0.57492254250E+03  0.57492254252E+03  0.50400000000E-02 0. -1.
         -1   -1    0    0    0  501 -0.00000000000E+00 -0.00000000000E+00 -0.24619932122E+02  0.24619932638E+02  0.50400000000E-02 0.  1.
         25    2    1    2    0    0 -0.29405553290E+01  0.28655318800E+02  0.20669281556E+03  0.24326540655E+03  0.12500545530E+03 0.  0.
         23    2    1    2    0    0  0.29405553290E+01 -0.28655318800E+02  0.34360979481E+03  0.35627706861E+03  0.89643094363E+02 0.  0.
        -13    1    4    4    0    0  0.18524112540E+02  0.22230025964E+02  0.49057849004E+02  0.56956127964E+02  0.10566000000E+00 0.  1.
         13    1    4    4    0    0 -0.15583557211E+02 -0.50885344764E+02  0.29455194581E+03  0.29932094065E+03  0.10566000000E+00 0. -1.
    9000005    1    3    3    0    0  0.41847803957E+02 -0.27409526996E+02  0.49104051248E+02  0.70105126169E+02  0.10000000000E+01 0.  0.
    9000005    1    3    3    0    0 -0.44788359286E+02  0.56064845796E+02  0.15758876432E+03  0.17316028038E+03  0.10000000000E+01 0.  0.
<mgrwt>
<rscale>  0 0.11873721E+03</rscale>
<asrwt>0</asrwt>
<pdfrwt beam="1">  1        1 0.88449615E-01 0.12828148E+03</pdfrwt>
<pdfrwt beam="2">  1       -1 0.37876822E-02 0.12828148E+03</pdfrwt>
<totfact> 0.94778253E+03</totfact>
</mgrwt>
</event>
<event>
 8    3  0.1560846E-003  0.1422108E+03  0.7818608E-02  0.1220734E+00
         -1   -1    0    0    0  501 -0.00000000000E+00  0.00000000000E+00  0.26263897799E+03  0.26263897804E+03  0.50400000000E-02 0.  1.
          1   -1    0    0  501    0  0.00000000000E+00 -0.00000000000E+00 -0.63941908792E+02  0.63941908990E+02  0.50400000000E-02 0. -1.
         25    2    1    2    0    0  0.72345361933E+01  0.67432360803E+02  0.86493992562E+02  0.16644858119E+03  0.12499783052E+03 0.  0.
         23    2    1    2    0    0 -0.72345361933E+01 -0.67432360803E+02  0.11220307664E+03  0.16013230584E+03  0.91942172961E+02 0.  0.
        -13    1    4    4    0    0  0.39068895185E+02 -0.37676836540E+02  0.32471504848E+02  0.63248180793E+02  0.10566000000E+00 0. -1.
         13    1    4    4    0    0 -0.46303431378E+02 -0.29755524264E+02  0.79731571791E+02  0.96884125046E+02  0.10566000000E+00 0.  1.
    9000005    1    3    3    0    0 -0.22399795891E+02  0.97370032413E+02  0.64363947017E+02  0.11885449821E+03  0.10000000000E+01 0.  0.
    9000005    1    3    3    0    0  0.29634332084E+02 -0.29937671609E+02  0.22130045544E+02  0.47594082986E+02  0.10000000000E+01 0.  0.
<mgrwt>
<rscale>  0 0.13463642E+03</rscale>
<asrwt>0</asrwt>
<pdfrwt beam="2">  1        1 0.98372169E-02 0.14221083E+03</pdfrwt>
<pdfrwt beam="1">  1       -1 0.40405996E-01 0.14221083E+03</pdfrwt>
<totfact> 0.38263935E+03</totfact>
</mgrwt>
</event>
<event>
 8    3  0.1560846E-003  0.2132055E+03  0.7818608E-02  0.1142435E+00
          1   -1    0    0  501    0  0.00000000000E+00  0.00000000000E+00  0.17112924684E+03  0.17112924692E+03  0.50400000000E-02 0. -1.
         -1   -1    0    0    0  501 -0.00000000000E+00 -0.00000000000E+00 -0.26909300480E+03  0.26909300485E+03  0.50400000000E-02 0.  1.
         25    2    1    2    0    0  0.12758207404E+03 -0.11642835850E+03 -0.11627202442E+03  0.24284926156E+03  0.12499532750E+03 0.  0.
         23    2    1    2    0    0 -0.12758207404E+03  0.11642835850E+03  0.18308266462E+02  0.19737299021E+03  0.93745167136E+02 0.  0.
        -13    1    4    4    0    0 -0.13114611611E+02  0.72178838637E+02  0.48040814725E+00  0.73362250107E+02  0.10566000000E+00 0. -1.
         13    1    4    4    0    0 -0.11446746243E+03  0.44249519866E+02  0.17827858315E+02  0.12401074010E+03  0.10566000000E+00 0.  1.
    9000005    1    3    3    0    0 -0.11379033461E+02 -0.58950842641E+02 -0.16134410043E+02  0.62177193874E+02  0.10000000000E+01 0.  0.
    9000005    1    3    3    0    0  0.13896110750E+03 -0.57477515862E+02 -0.10013761438E+03  0.18067206769E+03  0.10000000000E+01 0.  0.
<mgrwt>
<rscale>  0 0.20890633E+03</rscale>
<asrwt>0</asrwt>
<pdfrwt beam="1">  1        1 0.26327576E-01 0.21320549E+03</pdfrwt>
<pdfrwt beam="2">  1       -1 0.41398924E-01 0.21320549E+03</pdfrwt>
<totfact> 0.10363003E+03</totfact>
</mgrwt>
</event>
<event>
 8    3  0.1560846E-003  0.1542465E+03  0.7818608E-02  0.1203704E+00
          1   -1    0    0  501    0  0.00000000000E+00  0.00000000000E+00  0.24675685340E+03  0.24675685345E+03  0.50400000000E-02 0. -1.
         -1   -1    0    0    0  501 -0.00000000000E+00 -0.00000000000E+00 -0.89111715315E+02  0.89111715458E+02  0.50400000000E-02 0.  1.
         25    2    1    2    0    0  0.69616819268E+02  0.57651440608E+02  0.13556873764E+03  0.20535543664E+03  0.12498712976E+03 0.  0.
         23    2    1    2    0    0 -0.69616819268E+02 -0.57651440608E+02  0.22076400448E+02  0.13051313226E+03  0.91521145686E+02 0.  0.
        -13    1    4    4    0    0  0.99077962732E+01  0.10795663530E+02  0.20970222394E+02  0.25582653681E+02  0.10566000000E+00 0. -1.
         13    1    4    4    0    0 -0.79524615541E+02 -0.68447104138E+02  0.11061780534E+01  0.10493047858E+03  0.10566000000E+00 0.  1.
    9000005    1    3    3    0    0  0.55455522144E+02  0.73524688904E+02  0.28819294384E+02  0.96502572730E+02  0.10000000000E+01 0.  0.
    9000005    1    3    3    0    0  0.14161297124E+02 -0.15873248296E+02  0.10674944325E+03  0.10885286391E+03  0.10000000000E+01 0.  0.
<mgrwt>
<rscale>  0 0.14740054E+03</rscale>
<asrwt>0</asrwt>
<pdfrwt beam="1">  1        1 0.37962592E-01 0.15424647E+03</pdfrwt>
<pdfrwt beam="2">  1       -1 0.13709495E-01 0.15424647E+03</pdfrwt>
<totfact> 0.40347904E+03</totfact>
</mgrwt>
</event>
<event>
 8    3  0.1560846E-003  0.1291597E+03  0.7818608E-02  0.1240245E+00
         -1   -1    0    0    0  501 -0.00000000000E+00  0.00000000000E+00  0.23031182705E+03  0.23031182711E+03  0.50400000000E-02 0.  1.
          1   -1    0    0  501    0  0.00000000000E+00 -0.00000000000E+00 -0.84170604548E+02  0.84170604699E+02  0.50400000000E-02 0. -1.
         25    2    1    2    0    0  0.31159592674E+02 -0.92514314820E+01 -0.82936393872E+01  0.12942573052E+03  0.12500290423E+03 0.  0.
         23    2    1    2    0    0 -0.31159592674E+02  0.92514314820E+01  0.15443486189E+03  0.18505670128E+03  0.96640296577E+02 0.  0.
        -13    1    4    4    0    0 -0.60955677377E+02  0.60758153318E+01  0.59084520157E+02  0.85108764664E+02  0.10566000000E+00 0. -1.
         13    1    4    4    0    0  0.29796084703E+02  0.31756161501E+01  0.95350341734E+02  0.99947936619E+02  0.10566000000E+00 0.  1.
    9000005    1    3    3    0    0  0.31652138239E+02  0.55487541691E+02 -0.99356726181E+01  0.64656343296E+02  0.10000000000E+01 0.  0.
    9000005    1    3    3    0    0 -0.49254556554E+00 -0.64738973173E+02  0.16420332308E+01  0.64769387227E+02  0.10000000000E+01 0.  0.
<mgrwt>
<rscale>  0 0.12174549E+03</rscale>
<asrwt>0</asrwt>
<pdfrwt beam="2">  1        1 0.12949324E-01 0.12915973E+03</pdfrwt>
<pdfrwt beam="1">  1       -1 0.35432588E-01 0.12915973E+03</pdfrwt>
<totfact> 0.33290985E+03</totfact>
</mgrwt>
</event>
<event>
 8    3  0.1560846E-003  0.1937544E+03  0.7818608E-02  0.1159797E+00
          1   -1    0    0  501    0  0.00000000000E+00  0.00000000000E+00  0.36575754169E+03  0.36575754172E+03  0.50400000000E-02 0. -1.
         -1   -1    0    0    0  501 -0.00000000000E+00 -0.00000000000E+00 -0.13348574032E+03  0.13348574042E+03  0.50400000000E-02 0.  1.
         25    2    1    2    0    0 -0.74362333174E+02 -0.12800654233E+03  0.25907590893E+03  0.32351366848E+03  0.12500134250E+03 0.  0.
         23    2    1    2    0    0  0.74362333174E+02  0.12800654233E+03 -0.26804107568E+02  0.17572961366E+03  0.90813024734E+02 0.  0.
        -13    1    4    4    0    0  0.86227725999E+02  0.97112209623E+02 -0.45633524808E+02  0.13765330268E+03  0.10566000000E+00 0.  1.
         13    1    4    4    0    0 -0.11865392825E+02  0.30894332708E+02  0.18829417240E+02  0.38076310982E+02  0.10566000000E+00 0. -1.
    9000005    1    3    3    0    0  0.27703966952E+02 -0.72353026879E+02  0.10166524765E+03  0.12782524345E+03  0.10000000000E+01 0.  0.
    9000005    1    3    3    0    0 -0.10206630013E+03 -0.55653515453E+02  0.15741066128E+03  0.19568842503E+03  0.10000000000E+01 0.  0.
<mgrwt>
<rscale>  0 0.18852632E+03</rscale>
<asrwt>0</asrwt>
<pdfrwt beam="1">  1        1 0.56270389E-01 0.19375440E+03</pdfrwt>
<pdfrwt beam="2">  1       -1 0.20536268E-01 0.19375440E+03</pdfrwt>
<totfact> 0.13070669E+03</totfact>
</mgrwt>
</event>
<event>
 8    3  0.1560846E-003  0.1300671E+03  0.7818608E-02  0.1240299E+00
          1   -1    0    0  501    0  0.00000000000E+00  0.00000000000E+00  0.11925712649E+04  0.11925712649E+04  0.50400000000E-02 0. -1.
         -1   -1    0    0    0  501 -0.00000000000E+00 -0.00000000000E+00 -0.11401135589E+02  0.11401136703E+02  0.50400000000E-02 0.  1.
         25    2    1    2    0    0  0.33092296079E+02  0.14032255090E+02  0.76799937763E+03  0.77893549326E+03  0.12500181750E+03 0.  0.
         23    2    1    2    0    0 -0.33092296079E+02 -0.14032255090E+02  0.41317075172E+03  0.42503690839E+03  0.93028485829E+02 0.  0.
        -13    1    4    4    0    0 -0.90234736171E+01 -0.32522208909E+02  0.48401168709E+02  0.59006791515E+02  0.10566000000E+00 0.  1.
         13    1    4    4    0    0 -0.24068822462E+02  0.18489953819E+02  0.36476958301E+03  0.36603011687E+03  0.10566000000E+00 0. -1.
    9000005    1    3    3    0    0  0.81094850604E+02  0.10752975495E+02  0.46643681640E+03  0.47355707678E+03  0.10000000000E+01 0.  0.
    9000005    1    3    3    0    0 -0.48002554525E+02  0.32792795947E+01  0.30156256124E+03  0.30537841648E+03  0.10000000000E+01 0.  0.
<mgrwt>
<rscale>  0 0.12171200E+03</rscale>
<asrwt>0</asrwt>
<pdfrwt beam="1">  1        1 0.18347239E+00 0.13006713E+03</pdfrwt>
<pdfrwt beam="2">  1       -1 0.17540220E-02 0.13006713E+03</pdfrwt>
<totfact> 0.93110269E+03</totfact>
</mgrwt>
</event>
<event>
 8    3  0.1560846E-003  0.1840898E+03  0.7818608E-02  0.1169973E+00
         -1   -1    0    0    0  501 -0.00000000000E+00  0.00000000000E+00  0.10263153005E+03  0.10263153017E+03  0.50400000000E-02 0.  1.
          1   -1    0    0  501    0  0.00000000000E+00 -0.00000000000E+00 -0.28881493942E+03  0.28881493947E+03  0.50400000000E-02 0. -1.
         25    2    1    2    0    0  0.11293934506E+03  0.74223718712E+02 -0.10512641257E+03  0.21199202180E+03  0.12499839441E+03 0.  0.
         23    2    1    2    0    0 -0.11293934506E+03 -0.74223718712E+02 -0.81056996808E+02  0.17945444785E+03  0.85844079807E+02 0.  0.
        -13    1    4    4    0    0 -0.10984660736E+03 -0.50418627038E+02 -0.32297050752E+02  0.12510565835E+03  0.10566000000E+00 0.  1.
         13    1    4    4    0    0 -0.30927377039E+01 -0.23805091673E+02 -0.48759946056E+02  0.54348789494E+02  0.10566000000E+00 0. -1.
    9000005    1    3    3    0    0  0.49395778283E+02  0.59893850854E+02 -0.12207738704E+03  0.14467586083E+03  0.10000000000E+01 0.  0.
    9000005    1    3    3    0    0  0.63543566777E+02  0.14329867857E+02  0.16950974471E+02  0.67316160965E+02  0.10000000000E+01 0.  0.
<mgrwt>
<rscale>  0 0.17777620E+03</rscale>
<asrwt>0</asrwt>
<pdfrwt beam="2">  1        1 0.44433067E-01 0.18408980E+03</pdfrwt>
<pdfrwt beam="1">  1       -1 0.15789466E-01 0.18408980E+03</pdfrwt>
<totfact> 0.26765605E+03</totfact>
</mgrwt>
</event>
<event>
 8    3  0.1560846E-003  0.1294846E+03  0.7818608E-02  0.1241017E+00
         -1   -1    0    0    0  501 -0.00000000000E+00  0.00000000000E+00  0.10252920125E+02  0.10252921364E+02  0.50400000000E-02 0.  1.
          1   -1    0    0  501    0  0.00000000000E+00 -0.00000000000E+00 -0.12895993010E+04  0.12895993011E+04  0.50400000000E-02 0. -1.
         25    2    1    2    0    0  0.29166178990E+02  0.17066529993E+02 -0.77838763194E+03  0.78908400940E+03  0.12499734355E+03 0.  0.
         23    2    1    2    0    0 -0.29166178990E+02 -0.17066529993E+02 -0.50095874898E+03  0.51076821302E+03  0.93715349889E+02 0.  0.
        -13    1    4    4    0    0 -0.18695447824E+02  0.32417451916E+02 -0.10260764326E+03  0.10921881970E+03  0.10566000000E+00 0.  1.
         13    1    4    4    0    0 -0.10470731165E+02 -0.49483981909E+02 -0.39835110573E+03  0.40154939332E+03  0.10566000000E+00 0. -1.
    9000005    1    3    3    0    0  0.56737132684E+02  0.57334780154E+02 -0.48212928709E+03  0.48883128860E+03  0.10000000000E+01 0.  0.
    9000005    1    3    3    0    0 -0.27570953695E+02 -0.40268250161E+02 -0.29625834485E+03  0.30025272080E+03  0.10000000000E+01 0.  0.
<mgrwt>
<rscale>  0 0.12126968E+03</rscale>
<asrwt>0</asrwt>
<pdfrwt beam="2">  1        1 0.19839976E+00 0.12948463E+03</pdfrwt>
<pdfrwt beam="1">  1       -1 0.15773734E-02 0.12948463E+03</pdfrwt>
<totfact> 0.93215986E+03</totfact>
</mgrwt>
</event>
<event>
 8    3  0.1560846E-003  0.1909714E+03  0.7818608E-02  0.1162464E+00
         -1   -1    0    0    0  501 -0.00000000000E+00  0.00000000000E+00  0.56431586304E+02  0.56431586529E+02  0.50400000000E-02 0.  1.
          1   -1    0    0  501    0  0.00000000000E+00 -0.00000000000E+00 -0.59631851249E+03  0.59631851251E+03  0.50400000000E-02 0. -1.
         25    2    1    2    0    0  0.24965343307E+02  0.14220336341E+03 -0.34066043614E+03  0.39053756863E+03  0.12499997930E+03 0.  0.
         23    2    1    2    0    0 -0.24965343307E+02 -0.14220336341E+03 -0.19922649004E+03  0.26221253041E+03  0.90659538038E+02 0.  0.
        -13    1    4    4    0    0  0.13544215860E+02 -0.78668063330E+02 -0.15855011509E+03  0.17751129579E+03  0.10566000000E+00 0. -1.
         13    1    4    4    0    0 -0.38509559167E+02 -0.63535300081E+02 -0.40676374947E+02  0.84701234622E+02  0.10566000000E+00 0.  1.
    9000005    1    3    3    0    0  0.16392895868E+02  0.20398410148E+02 -0.21027781942E+03  0.21190229709E+03  0.10000000000E+01 0.  0.
    9000005    1    3    3    0    0  0.85724474390E+01  0.12180495326E+03 -0.13038261672E+03  0.17863527154E+03  0.10000000000E+01 0.  0.
<mgrwt>
<rscale>  0 0.18562908E+03</rscale>
<asrwt>0</asrwt>
<pdfrwt beam="2">  1        1 0.91741305E-01 0.19097136E+03</pdfrwt>
<pdfrwt beam="1">  1       -1 0.86817829E-02 0.19097136E+03</pdfrwt>
<totfact> 0.26627966E+03</totfact>
</mgrwt>
</event>
<event>
 8    3  0.1560846E-003  0.1835921E+03  0.7818608E-02  0.1169469E+00
          1   -1    0    0  501    0  0.00000000000E+00  0.00000000000E+00  0.10346699465E+04  0.10346699466E+04  0.50400000000E-02 0. -1.
         -1   -1    0    0    0  501 -0.00000000000E+00 -0.00000000000E+00 -0.35678372583E+02  0.35678372939E+02  0.50400000000E-02 0.  1.
         25    2    1    2    0    0  0.82820055992E+02  0.10593202329E+03  0.29337065540E+03  0.34608150408E+03  0.12500124314E+03 0.  0.
         23    2    1    2    0    0 -0.82820055992E+02 -0.10593202329E+03  0.70562091856E+03  0.72426681542E+03  0.92632521092E+02 0.  0.
        -13    1    4    4    0    0 -0.81186682289E+02 -0.54638501654E+02  0.30356519296E+03  0.31894902537E+03  0.10566000000E+00 0.  1.
         13    1    4    4    0    0 -0.16333737029E+01 -0.51293521633E+02  0.40205572560E+03  0.40531779004E+03  0.10566000000E+00 0. -1.
    9000005    1    3    3    0    0  0.25474493867E+02 -0.25112137323E+02  0.31433246234E+02  0.47630014146E+02  0.10000000000E+01 0.  0.
    9000005    1    3    3    0    0  0.57345562125E+02  0.13104416061E+03  0.26193740916E+03  0.29845148993E+03  0.10000000000E+01 0.  0.
<mgrwt>
<rscale>  0 0.17828967E+03</rscale>
<asrwt>0</asrwt>
<pdfrwt beam="1">  1        1 0.15917999E+00 0.18359212E+03</pdfrwt>
<pdfrwt beam="2">  1       -1 0.54889804E-02 0.18359212E+03</pdfrwt>
<totfact> 0.22917573E+03</totfact>
</mgrwt>
</event>
<event>
 8    3  0.1560846E-003  0.1469832E+03  0.7818608E-02  0.1215116E+00
          1   -1    0    0  501    0  0.00000000000E+00  0.00000000000E+00  0.14169924536E+03  0.14169924545E+03  0.50400000000E-02 0. -1.
         -1   -1    0    0    0  501 -0.00000000000E+00 -0.00000000000E+00 -0.17034465544E+03  0.17034465551E+03  0.50400000000E-02 0.  1.
         25    2    1    2    0    0 -0.73218319144E+02  0.24874608909E+02  0.66803073573E+02  0.16145191685E+03  0.12499760953E+03 0.  0.
         23    2    1    2    0    0  0.73218319144E+02 -0.24874608909E+02 -0.95448483651E+02  0.15059198411E+03  0.87108347587E+02 0.  0.
        -13    1    4    4    0    0  0.69703712836E+02 -0.42642817042E+01 -0.20498610186E+02  0.72780463485E+02  0.10566000000E+00 0. -1.
         13    1    4    4    0    0  0.35146063081E+01 -0.20610327205E+02 -0.74949873465E+02  0.77811520622E+02  0.10566000000E+00 0.  1.
    9000005    1    3    3    0    0 -0.68085263478E+02 -0.39920482537E+02  0.20226199725E+02  0.81482189368E+02  0.10000000000E+01 0.  0.
    9000005    1    3    3    0    0 -0.51330556652E+01  0.64795091446E+02  0.46576873848E+02  0.79969727481E+02  0.10000000000E+01 0.  0.
<mgrwt>
<rscale>  0 0.13867988E+03</rscale>
<asrwt>0</asrwt>
<pdfrwt beam="1">  1        1 0.21799884E-01 0.14698323E+03</pdfrwt>
<pdfrwt beam="2">  1       -1 0.26206870E-01 0.14698323E+03</pdfrwt>
<totfact> 0.28508071E+03</totfact>
</mgrwt>
</event>
<event>
 8    3  0.1560846E-003  0.2665618E+03  0.7818608E-02  0.1105389E+00
         -1   -1    0    0    0  501 -0.00000000000E+00  0.00000000000E+00  0.93635590616E+03  0.93635590618E+03  0.50400000000E-02 0.  1.
          1   -1    0    0  501    0  0.00000000000E+00 -0.00000000000E+00 -0.83106439917E+02  0.83106440069E+02  0.50400000000E-02 0. -1.
         25    2    1    2    0    0 -0.23502453402E+03 -0.13936781024E+02  0.24958549598E+03  0.36516863891E+03  0.12499779832E+03 0.  0.
         23    2    1    2    0    0  0.23502453402E+03  0.13936781024E+02  0.60366397027E+03  0.65429370733E+03  0.90880696494E+02 0.  0.
        -13    1    4    4    0    0  0.14509625391E+03 -0.30091692533E+02  0.30102698783E+03  0.33552301177E+03  0.10566000000E+00 0. -1.
         13    1    4    4    0    0  0.89928280111E+02  0.44028473558E+02  0.30263698244E+03  0.31877069556E+03  0.10566000000E+00 0.  1.
    9000005    1    3    3    0    0 -0.75718666326E+01  0.32002607797E+02  0.18794653736E+02  0.37891147768E+02  0.10000000000E+01 0.  0.
    9000005    1    3    3    0    0 -0.22745266739E+03 -0.45939388822E+02  0.23079084224E+03  0.32727749115E+03  0.10000000000E+01 0.  0.
<mgrwt>
<rscale>  0 0.26294048E+03</rscale>
<asrwt>0</asrwt>
<pdfrwt beam="2">  1        1 0.12785606E-01 0.26656184E+03</pdfrwt>
<pdfrwt beam="1">  1       -1 0.14405476E+00 0.26656184E+03</pdfrwt>
<totfact> 0.19419027E+02</totfact>
</mgrwt>
</event>
<event>
 8    3  0.1560846E-003  0.1310353E+03  0.7818608E-02  0.1240403E+00
          1   -1    0    0  501    0  0.00000000000E+00  0.00000000000E+00  0.16689998927E+03  0.16689998935E+03  0.50400000000E-02 0. -1.
         -1   -1    0    0    0  501 -0.00000000000E+00 -0.00000000000E+00 -0.81110445689E+02  0.81110445846E+02  0.50400000000E-02 0.  1.
         25    2    1    2    0    0 -0.27539990736E+02 -0.27984012933E+02  0.25422656485E+02  0.13347871105E+03  0.12501479421E+03 0.  0.
         23    2    1    2    0    0  0.27539990736E+02  0.27984012933E+02  0.60366887100E+02  0.11453172415E+03  0.89060646241E+02 0.  0.
        -13    1    4    4    0    0  0.80096677754E+01  0.32366350113E+02 -0.14993160617E+02  0.36558739404E+02  0.10566000000E+00 0.  1.
         13    1    4    4    0    0  0.19530322960E+02 -0.43823371799E+01  0.75360047717E+02  0.77972984745E+02  0.10566000000E+00 0. -1.
    9000005    1    3    3    0    0 -0.65307163548E+02  0.19986723730E+02  0.28030693541E+01  0.68361918741E+02  0.10000000000E+01 0.  0.
    9000005    1    3    3    0    0  0.37767172812E+02 -0.47970736663E+02  0.22619587131E+02  0.65116792306E+02  0.10000000000E+01 0.  0.
<mgrwt>
<rscale>  0 0.12164780E+03</rscale>
<asrwt>0</asrwt>
<pdfrwt beam="1">  1        1 0.25676921E-01 0.13103532E+03</pdfrwt>
<pdfrwt beam="2">  1       -1 0.12478530E-01 0.13103532E+03</pdfrwt>
<totfact> 0.75221766E+03</totfact>
</mgrwt>
</event>
<event>
 8    3  0.1560846E-003  0.1321956E+03  0.7818608E-02  0.1237293E+00
         -1   -1    0    0    0  501 -0.00000000000E+00  0.00000000000E+00  0.17998325142E+03  0.17998325149E+03  0.50400000000E-02 0.  1.
          1   -1    0    0  501    0  0.00000000000E+00 -0.00000000000E+00 -0.75960227247E+02  0.75960227414E+02  0.50400000000E-02 0. -1.
         25    2    1    2    0    0 -0.39869001888E+02  0.16164477506E+02  0.68533088415E+02  0.14890424040E+03  0.12499944383E+03 0.  0.
         23    2    1    2    0    0  0.39869001888E+02 -0.16164477506E+02  0.35489935759E+02  0.10703923851E+03  0.91362111375E+02 0.  0.
        -13    1    4    4    0    0  0.29082567352E+02 -0.50445804141E+02  0.25433018225E+01  0.58284255399E+02  0.10566000000E+00 0. -1.
         13    1    4    4    0    0  0.10786434536E+02  0.34281326635E+02  0.32946633936E+02  0.48754983106E+02  0.10566000000E+00 0.  1.
    9000005    1    3    3    0    0 -0.30730883754E+02  0.65858876798E+02  0.66201711772E+02  0.98312997670E+02  0.10000000000E+01 0.  0.
    9000005    1    3    3    0    0 -0.91381181342E+01 -0.49694399292E+02  0.23313766431E+01  0.50591242731E+02  0.10000000000E+01 0.  0.
<mgrwt>
<rscale>  0 0.12358806E+03</rscale>
<asrwt>0</asrwt>
<pdfrwt beam="2">  1        1 0.11686189E-01 0.13219565E+03</pdfrwt>
<pdfrwt beam="1">  1       -1 0.27689731E-01 0.13219565E+03</pdfrwt>
<totfact> 0.57823164E+03</totfact>
</mgrwt>
</event>
<event>
 8    3  0.1560846E-003  0.1843273E+03  0.7818608E-02  0.1168890E+00
         -1   -1    0    0    0  501 -0.00000000000E+00  0.00000000000E+00  0.78348951407E+02  0.78348951569E+02  0.50400000000E-02 0.  1.
          1   -1    0    0  501    0  0.00000000000E+00 -0.00000000000E+00 -0.39397665293E+03  0.39397665296E+03  0.50400000000E-02 0. -1.
         25    2    1    2    0    0 -0.13367099988E+03 -0.21996818003E+02 -0.20057111905E+03  0.27240654505E+03  0.12499902310E+03 0.  0.
         23    2    1    2    0    0  0.13367099988E+03  0.21996818003E+02 -0.11505658248E+03  0.19991905949E+03  0.91530415510E+02 0.  0.
        -13    1    4    4    0    0  0.72019529257E+02  0.68470445643E+01 -0.11567002460E+03  0.13643042317E+03  0.10566000000E+00 0. -1.
         13    1    4    4    0    0  0.61651470624E+02  0.15149773439E+02  0.61344212072E+00  0.63488636311E+02  0.10566000000E+00 0.  1.
    9000005    1    3    3    0    0 -0.89246059464E+02  0.34036769798E+02 -0.16922649000E+03  0.19432438279E+03  0.10000000000E+01 0.  0.
    9000005    1    3    3    0    0 -0.44424940417E+02 -0.56033587801E+02 -0.31344629051E+02  0.78082162260E+02  0.10000000000E+01 0.  0.
<mgrwt>
<rscale>  0 0.17888187E+03</rscale>
<asrwt>0</asrwt>
<pdfrwt beam="2">  1        1 0.60611792E-01 0.18432730E+03</pdfrwt>
<pdfrwt beam="1">  1       -1 0.12053685E-01 0.18432730E+03</pdfrwt>
<totfact> 0.27671148E+03</totfact>
</mgrwt>
</event>
<event>
 8    3  0.1560846E-003  0.1352463E+03  0.7818608E-02  0.1232135E+00
          1   -1    0    0  501    0  0.00000000000E+00  0.00000000000E+00  0.99842815216E+02  0.99842815343E+02  0.50400000000E-02 0. -1.
         -1   -1    0    0    0  501 -0.00000000000E+00 -0.00000000000E+00 -0.15331660524E+03  0.15331660533E+03  0.50400000000E-02 0.  1.
         25    2    1    2    0    0 -0.27802084660E+02  0.43515095840E+02 -0.60389408045E+02  0.14811635707E+03  0.12500022060E+03 0.  0.
         23    2    1    2    0    0  0.27802084660E+02 -0.43515095840E+02  0.69156180166E+01  0.10504306360E+03  0.91212389297E+02 0.  0.
        -13    1    4    4    0    0  0.59242975189E+02 -0.30022853720E+02  0.18460389086E+02  0.68934019062E+02  0.10566000000E+00 0. -1.
         13    1    4    4    0    0 -0.31440890529E+02 -0.13492242119E+02 -0.11544771069E+02  0.36109044542E+02  0.10566000000E+00 0.  1.
    9000005    1    3    3    0    0  0.38492689538E+02  0.54413664393E+02 -0.40684224426E+02  0.78094430901E+02  0.10000000000E+01 0.  0.
    9000005    1    3    3    0    0 -0.66294774199E+02 -0.10898568553E+02 -0.19705183619E+02  0.70021926166E+02  0.10000000000E+01 0.  0.
<mgrwt>
<rscale>  0 0.12689666E+03</rscale>
<asrwt>0</asrwt>
<pdfrwt beam="1">  1        1 0.15360433E-01 0.13524635E+03</pdfrwt>
<pdfrwt beam="2">  1       -1 0.23587170E-01 0.13524635E+03</pdfrwt>
<totfact> 0.52811864E+03</totfact>
</mgrwt>
</event>
<event>
 8    3  0.1560846E-003  0.1910336E+03  0.7818608E-02  0.1162215E+00
         -1   -1    0    0    0  501 -0.00000000000E+00  0.00000000000E+00  0.19486531633E+03  0.19486531639E+03  0.50400000000E-02 0.  1.
          1   -1    0    0  501    0  0.00000000000E+00 -0.00000000000E+00 -0.17119968616E+03  0.17119968623E+03  0.50400000000E-02 0. -1.
         25    2    1    2    0    0 -0.81080055509E+02 -0.11956550489E+03 -0.10767748356E+02  0.19133680687E+03  0.12499577552E+03 0.  0.
         23    2    1    2    0    0  0.81080055509E+02  0.11956550489E+03  0.34433378527E+02  0.17472819576E+03  0.92056501540E+02 0.  0.
        -13    1    4    4    0    0  0.61356866917E+02  0.13768450583E+02  0.20877485181E+02  0.66257949718E+02  0.10566000000E+00 0. -1.
         13    1    4    4    0    0  0.19723188592E+02  0.10579705430E+03  0.13555893347E+02  0.10847024604E+03  0.10566000000E+00 0.  1.
    9000005    1    3    3    0    0 -0.63883948600E+02 -0.81162522805E+00  0.20906518638E+02  0.67230202631E+02  0.10000000000E+01 0.  0.
    9000005    1    3    3    0    0 -0.17196106909E+02 -0.11875387966E+03 -0.31674266994E+02  0.12410660424E+03  0.10000000000E+01 0.  0.
<mgrwt>
<rscale>  0 0.18589715E+03</rscale>
<asrwt>0</asrwt>
<pdfrwt beam="2">  1        1 0.26338413E-01 0.19103358E+03</pdfrwt>
<pdfrwt beam="1">  1       -1 0.29979279E-01 0.19103358E+03</pdfrwt>
<totfact> 0.18093302E+03</totfact>
</mgrwt>
</event>
<event>
 8    3  0.1560846E-003  0.1523790E+03  0.7818608E-02  0.1205837E+00
          1   -1    0    0  501    0  0.00000000000E+00  0.00000000000E+00  0.21784131918E+03  0.21784131924E+03  0.50400000000E-02 0. -1.
         -1   -1    0    0    0  501 -0.00000000000E+00 -0.00000000000E+00 -0.94877536090E+02  0.94877536223E+02  0.50400000000E-02 0.  1.
         25    2    1    2    0    0  0.42045748909E+02 -0.76307063424E+02  0.10253427070E+03  0.18366443417E+03  0.12501493823E+03 0.  0.
         23    2    1    2    0    0 -0.42045748909E+02  0.76307063424E+02  0.20429512391E+02  0.12905442130E+03  0.92989600224E+02 0.  0.
        -13    1    4    4    0    0  0.28378871242E+02  0.85194552727E+01  0.32559716316E+01  0.29808622350E+02  0.10566000000E+00 0.  1.
         13    1    4    4    0    0 -0.70424620151E+02  0.67787608152E+02  0.17173540760E+02  0.99245798947E+02  0.10566000000E+00 0. -1.
    9000005    1    3    3    0    0  0.77929597113E+02 -0.82321965107E+02  0.91347145186E+02  0.14558581311E+03  0.10000000000E+01 0.  0.
    9000005    1    3    3    0    0 -0.35883848204E+02  0.60149016827E+01  0.11187125513E+02  0.38078621055E+02  0.10000000000E+01 0.  0.
<mgrwt>
<rscale>  0 0.14571667E+03</rscale>
<asrwt>0</asrwt>
<pdfrwt beam="1">  1        1 0.33514049E-01 0.15237896E+03</pdfrwt>
<pdfrwt beam="2">  1       -1 0.14596544E-01 0.15237896E+03</pdfrwt>
<totfact> 0.42676383E+03</totfact>
</mgrwt>
</event>
<event>
 8    3  0.1560846E-003  0.1400106E+03  0.7818608E-02  0.1224364E+00
         -1   -1    0    0    0  501 -0.00000000000E+00  0.00000000000E+00  0.22571246218E+03  0.22571246224E+03  0.50400000000E-02 0.  1.
          1   -1    0    0  501    0  0.00000000000E+00 -0.00000000000E+00 -0.80483620709E+02  0.80483620867E+02  0.50400000000E-02 0. -1.
         25    2    1    2    0    0  0.31448471489E+02 -0.54665046701E+02  0.13543398980E+03  0.19479561875E+03  0.12500277517E+03 0.  0.
         23    2    1    2    0    0 -0.31448471489E+02  0.54665046701E+02  0.97948516766E+01  0.11140046436E+03  0.91306356026E+02 0.  0.
        -13    1    4    4    0    0 -0.18740063866E+02  0.56972536611E+02 -0.31773084343E+02  0.67871938048E+02  0.10566000000E+00 0. -1.
         13    1    4    4    0    0 -0.12708407623E+02 -0.23074899104E+01  0.41567936020E+02  0.43528526313E+02  0.10566000000E+00 0.  1.
    9000005    1    3    3    0    0  0.67499935757E+02  0.72176981745E+01  0.57752628919E+02  0.89133061437E+02  0.10000000000E+01 0.  0.
    9000005    1    3    3    0    0 -0.36051464267E+02 -0.61882744875E+02  0.77681360879E+02  0.10566255731E+03  0.10000000000E+01 0.  0.
<mgrwt>
<rscale>  0 0.13210557E+03</rscale>
<asrwt>0</asrwt>
<pdfrwt beam="2">  1        1 0.12382096E-01 0.14001060E+03</pdfrwt>
<pdfrwt beam="1">  1       -1 0.34724993E-01 0.14001060E+03</pdfrwt>
<totfact> 0.36706205E+03</totfact>
</mgrwt>
</event>
<event>
 8    3  0.1560846E-003  0.1401975E+03  0.7818608E-02  0.1224331E+00
         -1   -1    0    0    0  501 -0.00000000000E+00  0.00000000000E+00  0.10562995376E+02  0.10562996578E+02  0.50400000000E-02 0.  1.
          1   -1    0    0  501    0  0.00000000000E+00 -0.00000000000E+00 -0.17857820652E+04  0.17857820652E+04  0.50400000000E-02 0. -1.
         25    2    1    2    0    0 -0.63455667415E+02 -0.20755322263E+01 -0.61072701555E+03  0.62661218717E+03  0.12499766410E+03 0.  0.
         23    2    1    2    0    0  0.63455667415E+02  0.20755322263E+01 -0.11644920543E+04  0.11697328746E+04  0.90566682165E+02 0.  0.
        -13    1    4    4    0    0  0.44169070222E+02  0.31989839983E+02 -0.32951965078E+03  0.33400219765E+03  0.10566000000E+00 0.  1.
         13    1    4    4    0    0  0.19286597193E+02 -0.29914307757E+02 -0.83497240350E+03  0.83573067696E+03  0.10566000000E+00 0. -1.
    9000005    1    3    3    0    0 -0.91354554670E+02  0.29776428640E+02 -0.46656112644E+03  0.47635341404E+03  0.10000000000E+01 0.  0.
    9000005    1    3    3    0    0  0.27898887255E+02 -0.31851960866E+02 -0.14416588911E+03  0.15025877313E+03  0.10000000000E+01 0.  0.
<mgrwt>
<rscale>  0 0.13212896E+03</rscale>
<asrwt>0</asrwt>
<pdfrwt beam="2">  1        1 0.27473546E+00 0.14019752E+03</pdfrwt>
<pdfrwt beam="1">  1       -1 0.16250777E-02 0.14019752E+03</pdfrwt>
<totfact> 0.42723684E+03</totfact>
</mgrwt>
</event>
<event>
 8    3  0.1560846E-003  0.1309308E+03  0.7818608E-02  0.1250929E+00
         -1   -1    0    0    0  501 -0.00000000000E+00  0.00000000000E+00  0.20064978404E+02  0.20064979037E+02  0.50400000000E-02 0.  1.
          1   -1    0    0  501    0  0.00000000000E+00 -0.00000000000E+00 -0.58285297237E+03  0.58285297239E+03  0.50400000000E-02 0. -1.
         25    2    1    2    0    0 -0.23714514327E+02 -0.30911464646E+02 -0.41775590461E+03  0.43779319217E+03  0.12499994576E+03 0.  0.
         23    2    1    2    0    0  0.23714514327E+02  0.30911464646E+02 -0.14503208936E+03  0.16512475926E+03  0.68658446970E+02 0.  0.
        -13    1    4    4    0    0  0.22919090432E+02 -0.18510157617E+02 -0.57129445922E+02  0.64278265351E+02  0.10566000000E+00 0.  1.
         13    1    4    4    0    0  0.79542389546E+00  0.49421622263E+02 -0.87902643434E+02  0.10084649391E+03  0.10566000000E+00 0. -1.
    9000005    1    3    3    0    0 -0.53512398925E+02 -0.64695565094E+02 -0.23449602995E+03  0.24907525176E+03  0.10000000000E+01 0.  0.
    9000005    1    3    3    0    0  0.29797884598E+02  0.33784100448E+02 -0.18325987466E+03  0.18871794041E+03  0.10000000000E+01 0.  0.
<mgrwt>
<rscale>  0 0.11537423E+03</rscale>
<asrwt>0</asrwt>
<pdfrwt beam="2">  1        1 0.89669675E-01 0.13093083E+03</pdfrwt>
<pdfrwt beam="1">  1       -1 0.30869202E-02 0.13093083E+03</pdfrwt>
<totfact> 0.12561267E+04</totfact>
</mgrwt>
</event>
<event>
 8    3  0.1560846E-003  0.1422507E+03  0.7818608E-02  0.1220741E+00
         -1   -1    0    0    0  501 -0.00000000000E+00  0.00000000000E+00  0.91687781137E+02  0.91687781275E+02  0.50400000000E-02 0.  1.
          1   -1    0    0  501    0  0.00000000000E+00 -0.00000000000E+00 -0.18547372136E+03  0.18547372143E+03  0.50400000000E-02 0. -1.
         25    2    1    2    0    0 -0.67797445523E+02 -0.37092895537E+01 -0.77132700172E+02  0.16181688748E+03  0.12499999675E+03 0.  0.
         23    2    1    2    0    0  0.67797445523E+02  0.37092895537E+01 -0.16653240051E+02  0.11534461523E+03  0.91743105512E+02 0.  0.
        -13    1    4    4    0    0  0.74868491322E+01 -0.38964741946E+02 -0.11370108828E+02  0.41274623725E+02  0.10566000000E+00 0.  1.
         13    1    4    4    0    0  0.60310596391E+02  0.42674031500E+02 -0.52831312227E+01  0.74069991501E+02  0.10566000000E+00 0. -1.
    9000005    1    3    3    0    0 -0.73795725787E+02  0.32844119411E+02 -0.52575436433E+01  0.80951757791E+02  0.10000000000E+01 0.  0.
    9000005    1    3    3    0    0  0.59982802638E+01 -0.36553408965E+02 -0.71875156529E+02  0.80865129686E+02  0.10000000000E+01 0.  0.
<mgrwt>
<rscale>  0 0.13463144E+03</rscale>
<asrwt>0</asrwt>
<pdfrwt beam="2">  1        1 0.28534419E-01 0.14225066E+03</pdfrwt>
<pdfrwt beam="1">  1       -1 0.14105813E-01 0.14225066E+03</pdfrwt>
<totfact> 0.54793328E+03</totfact>
</mgrwt>
</event>
<event>
 8    3  0.1560846E-003  0.1449588E+03  0.7818608E-02  0.1215600E+00
          1   -1    0    0  501    0  0.00000000000E+00  0.00000000000E+00  0.24049877254E+04  0.24049877254E+04  0.50400000000E-02 0. -1.
         -1   -1    0    0    0  501 -0.00000000000E+00 -0.00000000000E+00 -0.87320520390E+01  0.87320534935E+01  0.50400000000E-02 0.  1.
         25    2    1    2    0    0  0.11127578384E+02  0.72550121933E+02  0.17773399623E+04  0.17832415405E+04  0.12500282794E+03 0.  0.
         23    2    1    2    0    0 -0.11127578384E+02 -0.72550121933E+02  0.61891571101E+03  0.63047823835E+03  0.95177773136E+02 0.  0.
        -13    1    4    4    0    0 -0.18405774665E+01 -0.87363646327E+02  0.59178483594E+03  0.59820155269E+03  0.10566000000E+00 0. -1.
         13    1    4    4    0    0 -0.92870009171E+01  0.14813524394E+02  0.27130875074E+02  0.32276685662E+02  0.10566000000E+00 0.  1.
    9000005    1    3    3    0    0  0.55384728765E+02 -0.48815013474E+01  0.64257263565E+03  0.64497433230E+03  0.10000000000E+01 0.  0.
    9000005    1    3    3    0    0 -0.44257150381E+02  0.77431623281E+02  0.11347673267E+04  0.11382672082E+04  0.10000000000E+01 0.  0.
<mgrwt>
<rscale>  0 0.13832556E+03</rscale>
<asrwt>0</asrwt>
<pdfrwt beam="1">  1        1 0.36999818E+00 0.14495879E+03</pdfrwt>
<pdfrwt beam="2">  1       -1 0.13433925E-02 0.14495879E+03</pdfrwt>
<totfact> 0.22563919E+03</totfact>
</mgrwt>
</event>
<event>
 8    3  0.1560846E-003  0.1376660E+03  0.7818608E-02  0.1228416E+00
         -1   -1    0    0    0  501 -0.00000000000E+00  0.00000000000E+00  0.83478182698E+01  0.83478197913E+01  0.50400000000E-02 0.  1.
          1   -1    0    0  501    0  0.00000000000E+00 -0.00000000000E+00 -0.17973767420E+04  0.17973767420E+04  0.50400000000E-02 0. -1.
         25    2    1    2    0    0 -0.52379711892E+02 -0.24160908621E+02 -0.10110927563E+04  0.10204217271E+04  0.12499822218E+03 0.  0.
         23    2    1    2    0    0  0.52379711892E+02  0.24160908621E+02 -0.77793616743E+03  0.78530283471E+03  0.90490208772E+02 0.  0.
        -13    1    4    4    0    0  0.48326983053E+02 -0.24289994846E+02 -0.29430971973E+03  0.29923857277E+03  0.10566000000E+00 0. -1.
         13    1    4    4    0    0  0.40527288395E+01  0.48450903466E+02 -0.48362644770E+03  0.48606426195E+03  0.10566000000E+00 0.  1.
    9000005    1    3    3    0    0  0.11812677175E+02 -0.27143952345E+02 -0.77989375262E+03  0.78045601981E+03  0.10000000000E+01 0.  0.
    9000005    1    3    3    0    0 -0.64192389068E+02  0.29830437246E+01 -0.23119900366E+03  0.23996570725E+03  0.10000000000E+01 0.  0.
<mgrwt>
<rscale>  0 0.12935469E+03</rscale>
<asrwt>0</asrwt>
<pdfrwt beam="2">  1        1 0.27651919E+00 0.13766604E+03</pdfrwt>
<pdfrwt beam="1">  1       -1 0.12842813E-02 0.13766604E+03</pdfrwt>
<totfact> 0.58847824E+03</totfact>
</mgrwt>
</event>
<event>
 8    3  0.1560846E-003  0.1277256E+03  0.7818608E-02  0.1245669E+00
          1   -1    0    0  501    0  0.00000000000E+00  0.00000000000E+00  0.76044492822E+03  0.76044492823E+03  0.50400000000E-02 0. -1.
         -1   -1    0    0    0  501 -0.00000000000E+00 -0.00000000000E+00 -0.18868633737E+02  0.18868634410E+02  0.50400000000E-02 0.  1.
         25    2    1    2    0    0 -0.14202192105E+02  0.22071516513E+02  0.27429111405E+03  0.30257138207E+03  0.12499988758E+03 0.  0.
         23    2    1    2    0    0  0.14202192105E+02 -0.22071516513E+02  0.46728518043E+03  0.47674218058E+03  0.90767906190E+02 0.  0.
        -13    1    4    4    0    0  0.35923538611E+02  0.11944556283E+02  0.94840899274E+02  0.10211748327E+03  0.10566000000E+00 0.  1.
         13    1    4    4    0    0 -0.21721346506E+02 -0.34016072796E+02  0.37244428115E+03  0.37462469730E+03  0.10566000000E+00 0. -1.
    9000005    1    3    3    0    0  0.32685223466E+02  0.20225818165E+02  0.18790879875E+02  0.42796082997E+02  0.10000000000E+01 0.  0.
    9000005    1    3    3    0    0 -0.46887415571E+02  0.18456983483E+01  0.25550023418E+03  0.25977529907E+03  0.10000000000E+01 0.  0.
<mgrwt>
<rscale>  0 0.11845426E+03</rscale>
<asrwt>0</asrwt>
<pdfrwt beam="1">  1        1 0.11699152E+00 0.12772559E+03</pdfrwt>
<pdfrwt beam="2">  1       -1 0.29028669E-02 0.12772559E+03</pdfrwt>
<totfact> 0.94371600E+03</totfact>
</mgrwt>
</event>
<event>
 8    3  0.1560846E-003  0.1480202E+03  0.7818608E-02  0.1217192E+00
          1   -1    0    0  501    0  0.00000000000E+00  0.00000000000E+00  0.61962126030E+02  0.61962126235E+02  0.50400000000E-02 0. -1.
         -1   -1    0    0    0  501 -0.00000000000E+00 -0.00000000000E+00 -0.70176277830E+03  0.70176277832E+03  0.50400000000E-02 0.  1.
         25    2    1    2    0    0 -0.68648590381E+02 -0.39639733285E+02 -0.63759243082E+03  0.65454877690E+03  0.12500422428E+03 0.  0.
         23    2    1    2    0    0  0.68648590381E+02  0.39639733285E+02 -0.22082214491E+01  0.10917612765E+03  0.75037411940E+02 0.  0.
        -13    1    4    4    0    0  0.29751518587E+02 -0.70921663238E+01 -0.29532903837E+02  0.42516529191E+02  0.10566000000E+00 0.  1.
         13    1    4    4    0    0  0.38897071794E+02  0.46731899609E+02  0.27324682388E+02  0.66659598460E+02  0.10566000000E+00 0. -1.
    9000005    1    3    3    0    0 -0.72518288662E+02 -0.60835486925E+01 -0.16014804971E+03  0.17590994736E+03  0.10000000000E+01 0.  0.
    9000005    1    3    3    0    0  0.38696982806E+01 -0.33556184593E+02 -0.47744438111E+03  0.47863882954E+03  0.10000000000E+01 0.  0.
<mgrwt>
<rscale>  0 0.13716729E+03</rscale>
<asrwt>0</asrwt>
<pdfrwt beam="1">  1        1 0.95326353E-02 0.14802025E+03</pdfrwt>
<pdfrwt beam="2">  1       -1 0.10796350E+00 0.14802025E+03</pdfrwt>
<totfact> 0.57762404E+02</totfact>
</mgrwt>
</event>
<event>
 8    3  0.1560846E-003  0.1251485E+03  0.7818608E-02  0.1250263E+00
          1   -1    0    0  501    0  0.00000000000E+00  0.00000000000E+00  0.12210199837E+03  0.12210199847E+03  0.50400000000E-02 0. -1.
         -1   -1    0    0    0  501 -0.00000000000E+00 -0.00000000000E+00 -0.11786542960E+03  0.11786542970E+03  0.50400000000E-02 0.  1.
         25    2    1    2    0    0 -0.45283510776E+01  0.40737273537E+01  0.53325893746E+02  0.13603597586E+03  0.12500013827E+03 0.  0.
         23    2    1    2    0    0  0.45283510776E+01 -0.40737273537E+01 -0.49089324976E+02  0.10393145231E+03  0.91405053114E+02 0.  0.
        -13    1    4    4    0    0  0.37589292535E+02 -0.51603070348E+01 -0.58331508101E+02  0.69585628425E+02  0.10566000000E+00 0.  1.
         13    1    4    4    0    0 -0.33060941458E+02  0.10865796811E+01  0.92421831243E+01  0.34345823886E+02  0.10566000000E+00 0. -1.
    9000005    1    3    3    0    0 -0.23473292411E+01 -0.46506421389E+02  0.68803822594E+02  0.83086239465E+02  0.10000000000E+01 0.  0.
    9000005    1    3    3    0    0 -0.21810218365E+01  0.50580148743E+02 -0.15477928847E+02  0.52949736397E+02  0.10000000000E+01 0.  0.
<mgrwt>
<rscale>  0 0.11575832E+03</rscale>
<asrwt>0</asrwt>
<pdfrwt beam="1">  1        1 0.18784923E-01 0.12514845E+03</pdfrwt>
<pdfrwt beam="2">  1       -1 0.18133143E-01 0.12514845E+03</pdfrwt>
<totfact> 0.61956827E+03</totfact>
</mgrwt>
</event>
<event>
 8    3  0.1560846E-003  0.1504187E+03  0.7818608E-02  0.1209250E+00
         -1   -1    0    0    0  501 -0.00000000000E+00  0.00000000000E+00  0.19042742678E+02  0.19042743345E+02  0.50400000000E-02 0. -1.
          1   -1    0    0  501    0  0.00000000000E+00 -0.00000000000E+00 -0.10529367583E+04  0.10529367583E+04  0.50400000000E-02 0.  1.
         25    2    1    2    0    0 -0.80380914363E+02 -0.23221855830E+02 -0.70320230064E+03  0.71911004340E+03  0.12500173164E+03 0.  0.
         23    2    1    2    0    0  0.80380914363E+02  0.23221855830E+02 -0.33069171498E+03  0.35286945825E+03  0.90329940935E+02 0.  0.
        -13    1    4    4    0    0  0.87873829316E+02  0.20297970399E+02 -0.17411594620E+03  0.19608720347E+03  0.10566000000E+00 0. -1.
         13    1    4    4    0    0 -0.74929149530E+01  0.29238854317E+01 -0.15657576878E+03  0.15678225478E+03  0.10566000000E+00 0.  1.
    9000005    1    3    3    0    0 -0.23570368331E+02 -0.63943677595E+02 -0.49055803748E+03  0.49527017304E+03  0.10000000000E+01 0.  0.
    9000005    1    3    3    0    0 -0.56810546032E+02  0.40721821765E+02 -0.21264426316E+03  0.22383987036E+03  0.10000000000E+01 0.  0.
<mgrwt>
<rscale>  0 0.14307481E+03</rscale>
<asrwt>0</asrwt>
<pdfrwt beam="2">  1        1 0.16199023E+00 0.15041868E+03</pdfrwt>
<pdfrwt beam="1">  1       -1 0.29296536E-02 0.15041868E+03</pdfrwt>
<totfact> 0.55876059E+03</totfact>
</mgrwt>
</event>
<event>
 8    3  0.1560846E-003  0.1354901E+03  0.7818608E-02  0.1237714E+00
         -1   -1    0    0    0  501 -0.00000000000E+00  0.00000000000E+00  0.11063374479E+02  0.11063375627E+02  0.50400000000E-02 0.  1.
          1   -1    0    0  501    0  0.00000000000E+00 -0.00000000000E+00 -0.11963134355E+04  0.11963134355E+04  0.50400000000E-02 0. -1.
         25    2    1    2    0    0 -0.41873458862E+02 -0.31295251993E+02 -0.77127501360E+03  0.78308537820E+03  0.12499913436E+03 0.  0.
         23    2    1    2    0    0  0.41873458862E+02  0.31295251993E+02 -0.41397504738E+03  0.42429143290E+03  0.76909692644E+02 0.  0.
        -13    1    4    4    0    0  0.23181472657E+02  0.20867751199E+01 -0.26510685582E+02  0.35278363327E+02  0.10566000000E+00 0.  1.
         13    1    4    4    0    0  0.18691986205E+02  0.29208476873E+02 -0.38746436180E+03  0.38901306957E+03  0.10566000000E+00 0. -1.
    9000005    1    3    3    0    0 -0.22551699420E+02 -0.19278369530E+02 -0.32721119621E+02  0.44180384196E+02  0.10000000000E+01 0.  0.
    9000005    1    3    3    0    0 -0.19321759442E+02 -0.12016882463E+02 -0.73855389398E+03  0.73890499400E+03  0.10000000000E+01 0.  0.
<mgrwt>
<rscale>  0 0.12332307E+03</rscale>
<asrwt>0</asrwt>
<pdfrwt beam="2">  1        1 0.18404812E+00 0.13549008E+03</pdfrwt>
<pdfrwt beam="1">  1       -1 0.17020586E-02 0.13549008E+03</pdfrwt>
<totfact> 0.96860583E+03</totfact>
</mgrwt>
</event>
<event>
 8    3  0.1560846E-003  0.1846369E+03  0.7818608E-02  0.1168543E+00
         -1   -1    0    0    0  501 -0.00000000000E+00  0.00000000000E+00  0.27741825161E+03  0.27741825166E+03  0.50400000000E-02 0.  1.
          1   -1    0    0  501    0  0.00000000000E+00 -0.00000000000E+00 -0.10960568524E+03  0.10960568536E+03  0.50400000000E-02 0. -1.
         25    2    1    2    0    0 -0.37850699077E+02  0.13050998265E+03  0.94424432582E+02  0.20738070510E+03  0.12500100955E+03 0.  0.
         23    2    1    2    0    0  0.37850699077E+02 -0.13050998265E+03  0.73388133787E+02  0.17964323191E+03  0.91762419312E+02 0.  0.
        -13    1    4    4    0    0  0.28523120643E+02 -0.11937860160E+03  0.93880507104E+02  0.15452630750E+03  0.10566000000E+00 0.  1.
         13    1    4    4    0    0  0.93275784338E+01 -0.11131381044E+02 -0.20492373317E+02  0.25116924405E+02  0.10566000000E+00 0. -1.
    9000005    1    3    3    0    0  0.37644167005E+02  0.80568627781E+02  0.22433770761E+02  0.91720560196E+02  0.10000000000E+01 0.  0.
    9000005    1    3    3    0    0 -0.75494866083E+02  0.49941354867E+02  0.71990661821E+02  0.11566014491E+03  0.10000000000E+01 0.  0.
<mgrwt>
<rscale>  0 0.17923771E+03</rscale>
<asrwt>0</asrwt>
<pdfrwt beam="2">  1        1 0.16862414E-01 0.18463690E+03</pdfrwt>
<pdfrwt beam="1">  1       -1 0.42679730E-01 0.18463690E+03</pdfrwt>
<totfact> 0.17313577E+03</totfact>
</mgrwt>
</event>
<event>
 8    3  0.1560846E-003  0.1526291E+03  0.7818608E-02  0.1205703E+00
          1   -1    0    0  501    0  0.00000000000E+00  0.00000000000E+00  0.94134991019E+02  0.94134991154E+02  0.50400000000E-02 0. -1.
         -1   -1    0    0    0  501 -0.00000000000E+00 -0.00000000000E+00 -0.23868553397E+03  0.23868553403E+03  0.50400000000E-02 0.  1.
         25    2    1    2    0    0  0.86636465877E+02  0.12511523352E+02 -0.18465745129E+02  0.15374212429E+03  0.12503296207E+03 0.  0.
         23    2    1    2    0    0 -0.86636465877E+02 -0.12511523352E+02 -0.12608479783E+03  0.17907840089E+03  0.92245769471E+02 0.  0.
        -13    1    4    4    0    0 -0.34298054153E+02 -0.48929970355E+02 -0.39818722148E+02  0.71805573009E+02  0.10566000000E+00 0. -1.
         13    1    4    4    0    0 -0.52338411724E+02  0.36418447004E+02 -0.86266075678E+02  0.10727282788E+03  0.10566000000E+00 0.  1.
    9000005    1    3    3    0    0  0.67744239974E+02  0.16396620560E+02 -0.69950978423E+02  0.98753585240E+02  0.10000000000E+01 0.  0.
    9000005    1    3    3    0    0  0.18892225903E+02 -0.38850972085E+01  0.51485233294E+02  0.54988539054E+02  0.10000000000E+01 0.  0.
<mgrwt>
<rscale>  0 0.14582184E+03</rscale>
<asrwt>0</asrwt>
<pdfrwt beam="1">  1        1 0.14482306E-01 0.15262915E+03</pdfrwt>
<pdfrwt beam="2">  1       -1 0.36720851E-01 0.15262915E+03</pdfrwt>
<totfact> 0.27285392E+03</totfact>
</mgrwt>
</event>
<event>
 8    3  0.1560846E-003  0.1850944E+03  0.7818608E-02  0.1168278E+00
          1   -1    0    0  501    0  0.00000000000E+00  0.00000000000E+00  0.10507449363E+04  0.10507449363E+04  0.50400000000E-02 0. -1.
         -1   -1    0    0    0  501 -0.00000000000E+00 -0.00000000000E+00 -0.29035455935E+02  0.29035456373E+02  0.50400000000E-02 0.  1.
         25    2    1    2    0    0  0.50828694156E+02 -0.12669431264E+03  0.51344107185E+03  0.54578538126E+03  0.12499977254E+03 0.  0.
         23    2    1    2    0    0 -0.50828694156E+02  0.12669431264E+03  0.50826840847E+03  0.53399501138E+03  0.90437227513E+02 0.  0.
        -13    1    4    4    0    0 -0.38396555363E+01 -0.12242663345E+02  0.16991844692E+02  0.21292245314E+02  0.10566000000E+00 0. -1.
         13    1    4    4    0    0 -0.46989038620E+02  0.13893697598E+03  0.49127656378E+03  0.51270276606E+03  0.10566000000E+00 0.  1.
    9000005    1    3    3    0    0  0.30529671900E+02 -0.12635014637E+03  0.50852025892E+03  0.52487167392E+03  0.10000000000E+01 0.  0.
    9000005    1    3    3    0    0  0.20299022257E+02 -0.34416626934E+00  0.49208129327E+01  0.20913707345E+02  0.10000000000E+01 0.  0.
<mgrwt>
<rscale>  0 0.17951056E+03</rscale>
<asrwt>0</asrwt>
<pdfrwt beam="1">  1        1 0.16165308E+00 0.18509443E+03</pdfrwt>
<pdfrwt beam="2">  1       -1 0.44669929E-02 0.18509443E+03</pdfrwt>
<totfact> 0.30330449E+03</totfact>
</mgrwt>
</event>
<event>
 8    3  0.1560846E-003  0.1463429E+03  0.7818608E-02  0.1214406E+00
          1   -1    0    0  501    0  0.00000000000E+00  0.00000000000E+00  0.49050503732E+03  0.49050503735E+03  0.50400000000E-02 0. -1.
         -1   -1    0    0    0  501 -0.00000000000E+00 -0.00000000000E+00 -0.36194949014E+02  0.36194949365E+02  0.50400000000E-02 0.  1.
         25    2    1    2    0    0  0.68850316286E+02 -0.32427254054E+02  0.23653239446E+03  0.27814353988E+03  0.12499744913E+03 0.  0.
         23    2    1    2    0    0 -0.68850316286E+02  0.32427254054E+02  0.21777769385E+03  0.24855644684E+03  0.92527241762E+02 0.  0.
        -13    1    4    4    0    0 -0.19304586645E+02 -0.30215395565E+01  0.17004115043E+03  0.17116016116E+03  0.10566000000E+00 0. -1.
         13    1    4    4    0    0 -0.49545729642E+02  0.35448793610E+02  0.47736543419E+02  0.77396285672E+02  0.10566000000E+00 0.  1.
    9000005    1    3    3    0    0  0.57951724808E+02 -0.33845900977E+02  0.33869494820E+02  0.75180383748E+02  0.10000000000E+01 0.  0.
    9000005    1    3    3    0    0  0.10898591479E+02  0.14186469229E+01  0.20266289964E+03  0.20296315613E+03  0.10000000000E+01 0.  0.
<mgrwt>
<rscale>  0 0.13920260E+03</rscale>
<asrwt>0</asrwt>
<pdfrwt beam="1">  1        1 0.75462309E-01 0.14634294E+03</pdfrwt>
<pdfrwt beam="2">  1       -1 0.55684540E-02 0.14634294E+03</pdfrwt>
<totfact> 0.66759909E+03</totfact>
</mgrwt>
</event>
<event>
 8    3  0.1560846E-003  0.2042051E+03  0.7818608E-02  0.1150497E+00
          1   -1    0    0  501    0  0.00000000000E+00  0.00000000000E+00  0.24666983114E+04  0.24666983114E+04  0.50400000000E-02 0. -1.
         -1   -1    0    0    0  501 -0.00000000000E+00 -0.00000000000E+00 -0.16016609398E+02  0.16016610191E+02  0.50400000000E-02 0.  1.
         25    2    1    2    0    0  0.58355772265E+02 -0.15056770731E+03  0.15436547756E+04  0.15571030166E+04  0.12499483034E+03 0.  0.
         23    2    1    2    0    0 -0.58355772265E+02  0.15056770731E+03  0.90702692648E+03  0.92561190502E+03  0.89350560742E+02 0.  0.
        -13    1    4    4    0    0 -0.38634109003E+02  0.26041103599E+02  0.12330979969E+03  0.13181825108E+03  0.10566000000E+00 0.  1.
         13    1    4    4    0    0 -0.19721663261E+02  0.12452660371E+03  0.78371712680E+03  0.79379365394E+03  0.10566000000E+00 0. -1.
    9000005    1    3    3    0    0  0.22293432459E+02 -0.10433882477E+03  0.47481158447E+03  0.48665247172E+03  0.10000000000E+01 0.  0.
    9000005    1    3    3    0    0  0.36062339805E+02 -0.46228882541E+02  0.10688431911E+04  0.10704505449E+04  0.10000000000E+01 0.  0.
<mgrwt>
<rscale>  0 0.19910395E+03</rscale>
<asrwt>0</asrwt>
<pdfrwt beam="1">  1        1 0.37949229E+00 0.20420514E+03</pdfrwt>
<pdfrwt beam="2">  1       -1 0.24640923E-02 0.20420514E+03</pdfrwt>
<totfact> 0.84894354E+02</totfact>
</mgrwt>
</event>
<event>
 8    3  0.1560846E-003  0.1338116E+03  0.7818608E-02  0.1234850E+00
         -1   -1    0    0    0  501 -0.00000000000E+00  0.00000000000E+00  0.31243306079E+03  0.31243306083E+03  0.50400000000E-02 0.  1.
          1   -1    0    0  501    0  0.00000000000E+00 -0.00000000000E+00 -0.54507391759E+02  0.54507391992E+02  0.50400000000E-02 0. -1.
         25    2    1    2    0    0  0.10886602313E+02 -0.46425749784E+02  0.65492994063E+02  0.14897945614E+03  0.12502670806E+03 0.  0.
         23    2    1    2    0    0 -0.10886602313E+02  0.46425749784E+02  0.19243267497E+03  0.21796099669E+03  0.90569273637E+02 0.  0.
        -13    1    4    4    0    0 -0.22303466279E+02  0.36115503906E+02  0.19730878199E+03  0.20182304339E+03  0.10566000000E+00 0.  1.
         13    1    4    4    0    0  0.11416863965E+02  0.10310245877E+02 -0.48761070168E+01  0.16137953294E+02  0.10566000000E+00 0. -1.
    9000005    1    3    3    0    0  0.94121667503E+01 -0.85672365145E+02  0.67741999299E+02  0.10962810544E+03  0.10000000000E+01 0.  0.
    9000005    1    3    3    0    0  0.14744355632E+01  0.39246615362E+02 -0.22490052359E+01  0.39351350703E+02  0.10000000000E+01 0.  0.
<mgrwt>
<rscale>  0 0.12514059E+03</rscale>
<asrwt>0</asrwt>
<pdfrwt beam="2">  1        1 0.83857526E-02 0.13381161E+03</pdfrwt>
<pdfrwt beam="1">  1       -1 0.48066625E-01 0.13381161E+03</pdfrwt>
<totfact> 0.34611943E+03</totfact>
</mgrwt>
</event>
<event>
 8    3  0.1560846E-003  0.1431004E+03  0.7818608E-02  0.1219543E+00
          1   -1    0    0  501    0  0.00000000000E+00  0.00000000000E+00  0.20510099564E+03  0.20510099570E+03  0.50400000000E-02 0. -1.
         -1   -1    0    0    0  501 -0.00000000000E+00 -0.00000000000E+00 -0.95374243209E+02  0.95374243342E+02  0.50400000000E-02 0.  1.
         25    2    1    2    0    0  0.16452563671E+02  0.67690171555E+02  0.11761946292E+03  0.18523515016E+03  0.12500030647E+03 0.  0.
         23    2    1    2    0    0 -0.16452563671E+02 -0.67690171555E+02 -0.78927104962E+01  0.11524008888E+03  0.91462216409E+02 0.  0.
        -13    1    4    4    0    0  0.40047357754E+01 -0.19447730031E+02  0.39740610815E+02  0.44424986483E+02  0.10566000000E+00 0.  1.
         13    1    4    4    0    0 -0.20457299447E+02 -0.48242441524E+02 -0.47633321311E+02  0.70815102401E+02  0.10566000000E+00 0. -1.
    9000005    1    3    3    0    0  0.23180992654E+02  0.98110739293E+02  0.11646839340E+03  0.15404207946E+03  0.10000000000E+01 0.  0.
    9000005    1    3    3    0    0 -0.67284289829E+01 -0.30420567738E+02  0.11510695243E+01  0.31193070691E+02  0.10000000000E+01 0.  0.
<mgrwt>
<rscale>  0 0.13548034E+03</rscale>
<asrwt>0</asrwt>
<pdfrwt beam="1">  1        1 0.31553999E-01 0.14310039E+03</pdfrwt>
<pdfrwt beam="2">  1       -1 0.14672960E-01 0.14310039E+03</pdfrwt>
<totfact> 0.45465578E+03</totfact>
</mgrwt>
</event>
<event>
 8    3  0.1560846E-003  0.1342655E+03  0.7818608E-02  0.1233673E+00
         -1   -1    0    0    0  501 -0.00000000000E+00  0.00000000000E+00  0.73620885475E+03  0.73620885477E+03  0.50400000000E-02 0.  1.
          1   -1    0    0  501    0  0.00000000000E+00 -0.00000000000E+00 -0.29954791427E+02  0.29954791851E+02  0.50400000000E-02 0. -1.
         25    2    1    2    0    0  0.29939351292E+02  0.38788895080E+02  0.15431304976E+03  0.20454762877E+03  0.12500508778E+03 0.  0.
         23    2    1    2    0    0 -0.29939351292E+02 -0.38788895080E+02  0.55194101356E+03  0.56161601785E+03  0.91502600609E+02 0.  0.
        -13    1    4    4    0    0 -0.51990791186E+02  0.28976723312E+01  0.37072404568E+03  0.37436315001E+03  0.10566000000E+00 0. -1.
         13    1    4    4    0    0  0.22051439894E+02 -0.41686567411E+02  0.18121696788E+03  0.18725286785E+03  0.10566000000E+00 0.  1.
    9000005    1    3    3    0    0  0.21575900638E+02 -0.35713733977E+02  0.10953384977E+03  0.11721627246E+03  0.10000000000E+01 0.  0.
    9000005    1    3    3    0    0  0.83634506537E+01  0.74502629057E+02  0.44779199988E+02  0.87331356310E+02  0.10000000000E+01 0.  0.
<mgrwt>
<rscale>  0 0.12589796E+03</rscale>
<asrwt>0</asrwt>
<pdfrwt beam="2">  1        1 0.46084297E-02 0.13426547E+03</pdfrwt>
<pdfrwt beam="1">  1       -1 0.11326289E+00 0.13426547E+03</pdfrwt>
<totfact> 0.13811970E+03</totfact>
</mgrwt>
</event>
<event>
 8    3  0.1560846E-003  0.1312993E+03  0.7818608E-02  0.1238668E+00
         -1   -1    0    0    0  501 -0.00000000000E+00  0.00000000000E+00  0.20773216660E+03  0.20773216666E+03  0.50400000000E-02 0.  1.
          1   -1    0    0  501    0  0.00000000000E+00 -0.00000000000E+00 -0.66125561690E+02  0.66125561883E+02  0.50400000000E-02 0. -1.
         25    2    1    2    0    0  0.30605675163E+02 -0.26037289636E+02  0.58837157113E+02  0.14387947805E+03  0.12499938137E+03 0.  0.
         23    2    1    2    0    0 -0.30605675163E+02  0.26037289636E+02  0.82769447797E+02  0.12997825049E+03  0.91809129768E+02 0.  0.
        -13    1    4    4    0    0 -0.52124372535E+02  0.24051801913E+02  0.15701410176E+02  0.59514576643E+02  0.10566000000E+00 0. -1.
         13    1    4    4    0    0  0.21518697372E+02  0.19854877230E+01  0.67068037621E+02  0.70463673850E+02  0.10566000000E+00 0.  1.
    9000005    1    3    3    0    0  0.75462946560E+02 -0.37177776477E+02  0.46070246350E+02  0.95918251475E+02  0.10000000000E+01 0.  0.
    9000005    1    3    3    0    0 -0.44857271397E+02  0.11140486841E+02  0.12766910763E+02  0.47961226576E+02  0.10000000000E+01 0.  0.
<mgrwt>
<rscale>  0 0.12272489E+03</rscale>
<asrwt>0</asrwt>
<pdfrwt beam="2">  1        1 0.10173164E-01 0.13129925E+03</pdfrwt>
<pdfrwt beam="1">  1       -1 0.31958794E-01 0.13129925E+03</pdfrwt>
<totfact> 0.54557094E+03</totfact>
</mgrwt>
</event>
<event>
 8    3  0.1560846E-003  0.1393832E+03  0.7818608E-02  0.1225356E+00
         -1   -1    0    0    0  501 -0.00000000000E+00  0.00000000000E+00  0.72919413668E+02  0.72919413842E+02  0.50400000000E-02 0.  1.
          1   -1    0    0  501    0  0.00000000000E+00 -0.00000000000E+00 -0.22712876362E+03  0.22712876368E+03  0.50400000000E-02 0. -1.
         25    2    1    2    0    0  0.55038077927E+02  0.27813217205E+02 -0.49106410121E+02  0.14778060589E+03  0.12499961156E+03 0.  0.
         23    2    1    2    0    0 -0.55038077927E+02 -0.27813217205E+02 -0.10510293984E+03  0.15226757163E+03  0.91301809049E+02 0.  0.
        -13    1    4    4    0    0  0.25265659377E+02 -0.39818556959E+00 -0.26123569850E+02  0.36345070659E+02  0.10566000000E+00 0.  1.
         13    1    4    4    0    0 -0.80303737303E+02 -0.27415031635E+02 -0.78979369985E+02  0.11592250097E+03  0.10566000000E+00 0. -1.
    9000005    1    3    3    0    0  0.43608545960E+02  0.77191896658E+02 -0.29889686450E+02  0.93566487304E+02  0.10000000000E+01 0.  0.
    9000005    1    3    3    0    0  0.11429531966E+02 -0.49378679453E+02 -0.19216723671E+02  0.54214118587E+02  0.10000000000E+01 0.  0.
<mgrwt>
<rscale>  0 0.13142551E+03</rscale>
<asrwt>0</asrwt>
<pdfrwt beam="2">  1        1 0.34942886E-01 0.13938317E+03</pdfrwt>
<pdfrwt beam="1">  1       -1 0.11218371E-01 0.13938317E+03</pdfrwt>
<totfact> 0.60658464E+03</totfact>
</mgrwt>
</event>
<event>
 8    3  0.1560846E-003  0.1269323E+03  0.7818608E-02  0.1246457E+00
          1   -1    0    0  501    0  0.00000000000E+00  0.00000000000E+00  0.17840600056E+03  0.17840600063E+03  0.50400000000E-02 0. -1.
         -1   -1    0    0    0  501 -0.00000000000E+00 -0.00000000000E+00 -0.10995930332E+03  0.10995930344E+03  0.50400000000E-02 0.  1.
         25    2    1    2    0    0  0.99133219206E+01 -0.19707846557E+02 -0.50222594067E+02  0.13650685261E+03  0.12500055474E+03 0.  0.
         23    2    1    2    0    0 -0.99133219206E+01  0.19707846557E+02  0.11866929131E+03  0.15185845146E+03  0.92151589317E+02 0.  0.
        -13    1    4    4    0    0 -0.19812573058E+02 -0.20616051704E+02  0.27475573129E+01  0.28724899900E+02  0.10566000000E+00 0.  1.
         13    1    4    4    0    0  0.98992511373E+01  0.40323898261E+02  0.11592173399E+03  0.12313355156E+03  0.10566000000E+00 0. -1.
    9000005    1    3    3    0    0 -0.22174313658E+01 -0.50350933798E+02  0.23596299911E+02  0.55658951712E+02  0.10000000000E+01 0.  0.
    9000005    1    3    3    0    0  0.12130753286E+02  0.30643087241E+02 -0.73818893977E+02  0.80847900894E+02  0.10000000000E+01 0.  0.
<mgrwt>
<rscale>  0 0.11798591E+03</rscale>
<asrwt>0</asrwt>
<pdfrwt beam="1">  1        1 0.27447077E-01 0.12693231E+03</pdfrwt>
<pdfrwt beam="2">  1       -1 0.16916816E-01 0.12693231E+03</pdfrwt>
<totfact> 0.42940831E+03</totfact>
</mgrwt>
</event>
<event>
 8    3  0.1560846E-003  0.1505697E+03  0.7818608E-02  0.1208705E+00
         -1   -1    0    0    0  501 -0.00000000000E+00  0.00000000000E+00  0.25444281086E+02  0.25444281586E+02  0.50400000000E-02 0.  1.
          1   -1    0    0  501    0  0.00000000000E+00 -0.00000000000E+00 -0.79676826308E+03  0.79676826309E+03  0.50400000000E-02 0. -1.
         25    2    1    2    0    0 -0.17903776660E+02  0.82011782500E+02 -0.31258921863E+03  0.34696288936E+03  0.12499899721E+03 0.  0.
         23    2    1    2    0    0  0.17903776660E+02 -0.82011782500E+02 -0.45873476336E+03  0.47524965532E+03  0.91532366276E+02 0.  0.
        -13    1    4    4    0    0  0.15793783928E+02 -0.34755948447E+02 -0.38968829884E+03  0.39155382897E+03  0.10566000000E+00 0. -1.
         13    1    4    4    0    0  0.21099927322E+01 -0.47255834053E+02 -0.69046464522E+02  0.83695826350E+02  0.10566000000E+00 0.  1.
    9000005    1    3    3    0    0 -0.26462020154E+02 -0.75752030944E+01 -0.70318099386E+01  0.28426546810E+02  0.10000000000E+01 0.  0.
    9000005    1    3    3    0    0  0.85582434938E+01  0.89586985595E+02 -0.30555740869E+03  0.31853634255E+03  0.10000000000E+01 0.  0.
<mgrwt>
<rscale>  0 0.14349278E+03</rscale>
<asrwt>0</asrwt>
<pdfrwt beam="2">  1        1 0.12257971E+00 0.15056967E+03</pdfrwt>
<pdfrwt beam="1">  1       -1 0.39145054E-02 0.15056967E+03</pdfrwt>
<totfact> 0.57374570E+03</totfact>
</mgrwt>
</event>
<event>
 8    3  0.1560846E-003  0.1846032E+03  0.7818608E-02  0.1168577E+00
         -1   -1    0    0    0  501 -0.00000000000E+00  0.00000000000E+00  0.79165081930E+02  0.79165082090E+02  0.50400000000E-02 0.  1.
          1   -1    0    0  501    0  0.00000000000E+00 -0.00000000000E+00 -0.38366030960E+03  0.38366030964E+03  0.50400000000E-02 0. -1.
         25    2    1    2    0    0 -0.10228897158E+03  0.89403537632E+02 -0.15888061366E+03  0.24355984702E+03  0.12498929329E+03 0.  0.
         23    2    1    2    0    0  0.10228897158E+03 -0.89403537632E+02 -0.14561461401E+03  0.21926554470E+03  0.91748226308E+02 0.  0.
        -13    1    4    4    0    0  0.76857972611E+01 -0.58482375270E+02 -0.28310454285E+02  0.65427461227E+02  0.10566000000E+00 0.  1.
         13    1    4    4    0    0  0.94603174323E+02 -0.30921162362E+02 -0.11730415973E+03  0.15383808348E+03  0.10566000000E+00 0. -1.
    9000005    1    3    3    0    0 -0.41467126383E+02 -0.29523819738E+02 -0.40157466288E+02  0.64844433848E+02  0.10000000000E+01 0.  0.
    9000005    1    3    3    0    0 -0.60821845201E+02  0.11892735737E+03 -0.11872314737E+03  0.17871541317E+03  0.10000000000E+01 0.  0.
<mgrwt>
<rscale>  0 0.17920310E+03</rscale>
<asrwt>0</asrwt>
<pdfrwt beam="2">  1        1 0.59024662E-01 0.18460322E+03</pdfrwt>
<pdfrwt beam="1">  1       -1 0.12179244E-01 0.18460322E+03</pdfrwt>
<totfact> 0.28163205E+03</totfact>
</mgrwt>
</event>
<event>
 8    3  0.1560846E-003  0.2752894E+03  0.7818608E-02  0.1100156E+00
          1   -1    0    0  501    0  0.00000000000E+00  0.00000000000E+00  0.76597990750E+03  0.76597990752E+03  0.50400000000E-02 0. -1.
         -1   -1    0    0    0  501 -0.00000000000E+00 -0.00000000000E+00 -0.96734236064E+02  0.96734236195E+02  0.50400000000E-02 0.  1.
         25    2    1    2    0    0 -0.24501547334E+03  0.11556646671E+02  0.41078083466E+03  0.49449485713E+03  0.12497252237E+03 0.  0.
         23    2    1    2    0    0  0.24501547334E+03 -0.11556646671E+02  0.25846483678E+03  0.36821928658E+03  0.92818278900E+02 0.  0.
        -13    1    4    4    0    0  0.87322421823E+02 -0.46659024193E+01  0.15955143660E+03  0.18194407955E+03  0.10566000000E+00 0. -1.
         13    1    4    4    0    0  0.15769305152E+03 -0.68907442516E+01  0.98913400175E+02  0.18627520703E+03  0.10566000000E+00 0.  1.
    9000005    1    3    3    0    0 -0.84432269754E+02  0.57195022827E+02  0.10670402850E+03  0.14760361957E+03  0.10000000000E+01 0.  0.
    9000005    1    3    3    0    0 -0.16058320359E+03 -0.45638376157E+02  0.30407680616E+03  0.34689123757E+03  0.10000000000E+01 0.  0.
<mgrwt>
<rscale>  0 0.27197313E+03</rscale>
<asrwt>0</asrwt>
<pdfrwt beam="1">  1        1 0.11784307E+00 0.27528943E+03</pdfrwt>
<pdfrwt beam="2">  1       -1 0.14882189E-01 0.27528943E+03</pdfrwt>
<totfact> 0.80394463E+02</totfact>
</mgrwt>
</event>
<event>
 8    3  0.1560846E-003  0.1379023E+03  0.7818608E-02  0.1227545E+00
         -1   -1    0    0    0  501 -0.00000000000E+00  0.00000000000E+00  0.41323217784E+03  0.41323217787E+03  0.50400000000E-02 0.  1.
          1   -1    0    0  501    0  0.00000000000E+00 -0.00000000000E+00 -0.36793465758E+02  0.36793466103E+02  0.50400000000E-02 0. -1.
         25    2    1    2    0    0  0.54046076094E+02 -0.21682410182E+02  0.21141950294E+03  0.25241879840E+03  0.12500375318E+03 0.  0.
         23    2    1    2    0    0 -0.54046076094E+02  0.21682410182E+02  0.16501920914E+03  0.19760684558E+03  0.91793359134E+02 0.  0.
        -13    1    4    4    0    0  0.24721631906E+02  0.10994985573E+02  0.26333631233E+02  0.37756060306E+02  0.10566000000E+00 0. -1.
         13    1    4    4    0    0 -0.78767707999E+02  0.10687424609E+02  0.13868557791E+03  0.15985078527E+03  0.10566000000E+00 0.  1.
    9000005    1    3    3    0    0  0.76012300655E+02 -0.27475851310E+02  0.21472963008E+03  0.22943976615E+03  0.10000000000E+01 0.  0.
    9000005    1    3    3    0    0 -0.21966224561E+02  0.57934411283E+01 -0.33101271350E+01  0.22979032252E+02  0.10000000000E+01 0.  0.
<mgrwt>
<rscale>  0 0.12993992E+03</rscale>
<asrwt>0</asrwt>
<pdfrwt beam="2">  1        1 0.56605331E-02 0.13790230E+03</pdfrwt>
<pdfrwt beam="1">  1       -1 0.63574183E-01 0.13790230E+03</pdfrwt>
<totfact> 0.34980596E+03</totfact>
</mgrwt>
</event>
<event>
 8    3  0.1560846E-003  0.1760454E+03  0.7818608E-02  0.1177539E+00
         -1   -1    0    0    0  501 -0.00000000000E+00  0.00000000000E+00  0.16587228411E+02  0.16587229176E+02  0.50400000000E-02 0.  1.
          1   -1    0    0  501    0  0.00000000000E+00 -0.00000000000E+00 -0.17963386034E+04  0.17963386034E+04  0.50400000000E-02 0. -1.
         25    2    1    2    0    0 -0.14594226452E+02  0.12310665780E+03 -0.12079069958E+04  0.12206683773E+04  0.12499494416E+03 0.  0.
         23    2    1    2    0    0  0.14594226452E+02 -0.12310665780E+03 -0.57184437911E+03  0.59225745526E+03  0.91622370356E+02 0.  0.
        -13    1    4    4    0    0  0.25180022696E+02 -0.97631864514E+02 -0.54324040394E+03  0.55251801975E+03  0.10566000000E+00 0. -1.
         13    1    4    4    0    0 -0.10585796244E+02 -0.25474793285E+02 -0.28603975172E+02  0.39739435510E+02  0.10566000000E+00 0.  1.
    9000005    1    3    3    0    0  0.52375807580E+02  0.29416556713E+02 -0.36071572687E+03  0.36568482966E+03  0.10000000000E+01 0.  0.
    9000005    1    3    3    0    0 -0.66970034032E+02  0.93690101086E+02 -0.84719126896E+03  0.85498354762E+03  0.10000000000E+01 0.  0.
<mgrwt>
<rscale>  0 0.17029657E+03</rscale>
<asrwt>0</asrwt>
<pdfrwt beam="2">  1        1 0.27635963E+00 0.17604538E+03</pdfrwt>
<pdfrwt beam="1">  1       -1 0.25518828E-02 0.17604538E+03</pdfrwt>
<totfact> 0.21931666E+03</totfact>
</mgrwt>
</event>
<event>
 8    3  0.1560846E-003  0.1579327E+03  0.7818608E-02  0.1198937E+00
          1   -1    0    0  501    0  0.00000000000E+00  0.00000000000E+00  0.92034213155E+02  0.92034213293E+02  0.50400000000E-02 0. -1.
         -1   -1    0    0    0  501 -0.00000000000E+00 -0.00000000000E+00 -0.26531853914E+03  0.26531853919E+03  0.50400000000E-02 0.  1.
         25    2    1    2    0    0  0.92757408209E+02  0.26685157737E+02 -0.27871499687E+02  0.16037317293E+03  0.12500679854E+03 0.  0.
         23    2    1    2    0    0 -0.92757408209E+02 -0.26685157737E+02 -0.14541282630E+03  0.19697957955E+03  0.91323766268E+02 0.  0.
        -13    1    4    4    0    0 -0.64045472131E+02 -0.87160388673E+01 -0.20883313592E+02  0.67925810887E+02  0.10566000000E+00 0. -1.
         13    1    4    4    0    0 -0.28711936079E+02 -0.17969118870E+02 -0.12452951271E+03  0.12905376866E+03  0.10566000000E+00 0.  1.
    9000005    1    3    3    0    0 -0.30504719766E+02  0.72429639867E+01  0.38780350215E+01  0.31607556231E+02  0.10000000000E+01 0.  0.
    9000005    1    3    3    0    0  0.12326212798E+03  0.19442193751E+02 -0.31749534709E+02  0.12876561670E+03  0.10000000000E+01 0.  0.
<mgrwt>
<rscale>  0 0.15125710E+03</rscale>
<asrwt>0</asrwt>
<pdfrwt beam="1">  1        1 0.14159110E-01 0.15793269E+03</pdfrwt>
<pdfrwt beam="2">  1       -1 0.40818236E-01 0.15793269E+03</pdfrwt>
<totfact> 0.23389145E+03</totfact>
</mgrwt>
</event>
<event>
 8    3  0.1560846E-003  0.1269119E+03  0.7818608E-02  0.1247170E+00
          1   -1    0    0  501    0  0.00000000000E+00  0.00000000000E+00  0.35894537691E+02  0.35894538045E+02  0.50400000000E-02 0. -1.
         -1   -1    0    0    0  501 -0.00000000000E+00 -0.00000000000E+00 -0.34780330931E+03  0.34780330934E+03  0.50400000000E-02 0.  1.
         25    2    1    2    0    0  0.16703758788E+02 -0.14217097575E+02 -0.21047124928E+03  0.24577382798E+03  0.12500194529E+03 0.  0.
         23    2    1    2    0    0 -0.16703758788E+02  0.14217097575E+02 -0.10143752234E+03  0.13792401941E+03  0.90842296155E+02 0.  0.
        -13    1    4    4    0    0 -0.74251917923E+01  0.98660662982E+01 -0.11789304009E+03  0.11853798043E+03  0.10566000000E+00 0.  1.
         13    1    4    4    0    0 -0.92785669961E+01  0.43510312770E+01  0.16455517757E+02  0.19386038980E+02  0.10566000000E+00 0. -1.
    9000005    1    3    3    0    0  0.16700353827E+00 -0.69340696606E+02 -0.11603640245E+03  0.13517990527E+03  0.10000000000E+01 0.  0.
    9000005    1    3    3    0    0  0.16536755250E+02  0.55123599031E+02 -0.94434846827E+02  0.11059392271E+03  0.10000000000E+01 0.  0.
<mgrwt>
<rscale>  0 0.11756419E+03</rscale>
<asrwt>0</asrwt>
<pdfrwt beam="1">  1        1 0.55222369E-02 0.12691189E+03</pdfrwt>
<pdfrwt beam="2">  1       -1 0.53508199E-01 0.12691189E+03</pdfrwt>
<totfact> 0.49808306E+03</totfact>
</mgrwt>
</event>
<event>
 8    3  0.1560846E-003  0.1387282E+03  0.7818608E-02  0.1226114E+00
         -1   -1    0    0    0  501 -0.00000000000E+00  0.00000000000E+00  0.65553550895E+02  0.65553551089E+02  0.50400000000E-02 0.  1.
          1   -1    0    0  501    0  0.00000000000E+00 -0.00000000000E+00 -0.23710880955E+03  0.23710880961E+03  0.50400000000E-02 0. -1.
         25    2    1    2    0    0 -0.44869158487E+02  0.40097113449E+02 -0.10624184965E+03  0.17473647780E+03  0.12499794466E+03 0.  0.
         23    2    1    2    0    0  0.44869158487E+02 -0.40097113449E+02 -0.65313409013E+02  0.12792588289E+03  0.92076979895E+02 0.  0.
        -13    1    4    4    0    0 -0.14799803192E+02  0.14306521346E+02 -0.37032793253E+02  0.42369206598E+02  0.10566000000E+00 0. -1.
         13    1    4    4    0    0  0.59668961679E+02 -0.54403634795E+02 -0.28280615760E+02  0.85556676295E+02  0.10566000000E+00 0.  1.
    9000005    1    3    3    0    0 -0.26757388789E+02  0.45957545281E+02  0.12365260877E+02  0.54607265997E+02  0.10000000000E+01 0.  0.
    9000005    1    3    3    0    0 -0.18111769698E+02 -0.58604318324E+01 -0.11860711052E+03  0.12012921181E+03  0.10000000000E+01 0.  0.
<mgrwt>
<rscale>  0 0.13090856E+03</rscale>
<asrwt>0</asrwt>
<pdfrwt beam="2">  1        1 0.36478278E-01 0.13872817E+03</pdfrwt>
<pdfrwt beam="1">  1       -1 0.10085162E-01 0.13872817E+03</pdfrwt>
<totfact> 0.67686207E+03</totfact>
</mgrwt>
</event>
<event>
 8    3  0.1560846E-003  0.1960934E+03  0.7818608E-02  0.1157452E+00
         -1   -1    0    0    0  501 -0.00000000000E+00  0.00000000000E+00  0.11543166517E+03  0.11543166528E+03  0.50400000000E-02 0.  1.
          1   -1    0    0  501    0  0.00000000000E+00 -0.00000000000E+00 -0.34009863694E+03  0.34009863698E+03  0.50400000000E-02 0. -1.
         25    2    1    2    0    0 -0.10511023162E+03  0.10853440112E+03 -0.19417368508E+03  0.27596387443E+03  0.12499905198E+03 0.  0.
         23    2    1    2    0    0  0.10511023162E+03 -0.10853440112E+03 -0.30493286691E+02  0.17956642783E+03  0.92121574318E+02 0.  0.
        -13    1    4    4    0    0  0.61066252244E+02 -0.35242610683E+02 -0.56324874029E+02  0.90242070950E+02  0.10566000000E+00 0. -1.
         13    1    4    4    0    0  0.44043979371E+02 -0.73291790436E+02  0.25831587337E+02  0.89324356883E+02  0.10566000000E+00 0.  1.
    9000005    1    3    3    0    0 -0.82464419883E+02  0.30302525016E+02 -0.16940028411E+03  0.19082997623E+03  0.10000000000E+01 0.  0.
    9000005    1    3    3    0    0 -0.22645811732E+02  0.78231876103E+02 -0.24773400964E+02  0.85133898201E+02  0.10000000000E+01 0.  0.
<mgrwt>
<rscale>  0 0.19112394E+03</rscale>
<asrwt>0</asrwt>
<pdfrwt beam="2">  1        1 0.52322867E-01 0.19609345E+03</pdfrwt>
<pdfrwt beam="1">  1       -1 0.17758718E-01 0.19609345E+03</pdfrwt>
<totfact> 0.18117181E+03</totfact>
</mgrwt>
</event>
<event>
 8    3  0.1560846E-003  0.1322843E+03  0.7818608E-02  0.1237849E+00
         -1   -1    0    0    0  501 -0.00000000000E+00  0.00000000000E+00  0.34355145997E+03  0.34355146001E+03  0.50400000000E-02 0.  1.
          1   -1    0    0  501    0  0.00000000000E+00 -0.00000000000E+00 -0.50850117730E+02  0.50850117980E+02  0.50400000000E-02 0. -1.
         25    2    1    2    0    0  0.64563733049E+01 -0.42879098715E+02  0.25610086953E+03  0.28824778928E+03  0.12497532072E+03 0.  0.
         23    2    1    2    0    0 -0.64563733049E+01  0.42879098715E+02  0.36600472716E+02  0.10615378871E+03  0.89714716697E+02 0.  0.
        -13    1    4    4    0    0 -0.13617229564E+02  0.15664579445E+02  0.63754423134E+02  0.67048084412E+02  0.10566000000E+00 0.  1.
         13    1    4    4    0    0  0.71608562595E+01  0.27214519271E+02 -0.27153950418E+02  0.39105704300E+02  0.10566000000E+00 0. -1.
    9000005    1    3    3    0    0 -0.75427629486E+01 -0.85995586859E+02  0.18068352316E+03  0.20024901941E+03  0.10000000000E+01 0.  0.
    9000005    1    3    3    0    0  0.13999136253E+02  0.43116488144E+02  0.75417346363E+02  0.87998769867E+02  0.10000000000E+01 0.  0.
<mgrwt>
<rscale>  0 0.12323798E+03</rscale>
<asrwt>0</asrwt>
<pdfrwt beam="2">  1        1 0.78230951E-02 0.13228429E+03</pdfrwt>
<pdfrwt beam="1">  1       -1 0.52854070E-01 0.13228429E+03</pdfrwt>
<totfact> 0.31914856E+03</totfact>
</mgrwt>
</event>
<event>
 8    3  0.1560846E-003  0.1604253E+03  0.7818608E-02  0.1195774E+00
         -1   -1    0    0    0  501 -0.00000000000E+00  0.00000000000E+00  0.19841989124E+02  0.19841989764E+02  0.50400000000E-02 0.  1.
          1   -1    0    0  501    0  0.00000000000E+00 -0.00000000000E+00 -0.11068137900E+04  0.11068137900E+04  0.50400000000E-02 0. -1.
         25    2    1    2    0    0 -0.25799389240E+02  0.97186803139E+02 -0.60499882429E+03  0.62590721849E+03  0.12500154232E+03 0.  0.
         23    2    1    2    0    0  0.25799389240E+02 -0.97186803139E+02 -0.48197297656E+03  0.50074856125E+03  0.91325178748E+02 0.  0.
        -13    1    4    4    0    0  0.46323927188E+02 -0.39227215148E+02 -0.34910915999E+03  0.35434714249E+03  0.10566000000E+00 0. -1.
         13    1    4    4    0    0 -0.20524537948E+02 -0.57959587991E+02 -0.13286381657E+03  0.14640141876E+03  0.10566000000E+00 0.  1.
    9000005    1    3    3    0    0 -0.54716420092E+02  0.15439503054E+02 -0.38928290924E+03  0.39341383848E+03  0.10000000000E+01 0.  0.
    9000005    1    3    3    0    0  0.28917030852E+02  0.81747300085E+02 -0.21571591505E+03  0.23249338001E+03  0.10000000000E+01 0.  0.
<mgrwt>
<rscale>  0 0.15388900E+03</rscale>
<asrwt>0</asrwt>
<pdfrwt beam="2">  1        1 0.17027900E+00 0.16042527E+03</pdfrwt>
<pdfrwt beam="1">  1       -1 0.30526146E-02 0.16042527E+03</pdfrwt>
<totfact> 0.48275479E+03</totfact>
</mgrwt>
</event>
<event>
 8    3  0.1560846E-003  0.1330002E+03  0.7818608E-02  0.1236732E+00
         -1   -1    0    0    0  501 -0.00000000000E+00  0.00000000000E+00  0.14451344835E+02  0.14451345714E+02  0.50400000000E-02 0.  1.
          1   -1    0    0  501    0  0.00000000000E+00 -0.00000000000E+00 -0.12072154739E+04  0.12072154739E+04  0.50400000000E-02 0. -1.
         25    2    1    2    0    0 -0.46984902519E+01 -0.45187384973E+02 -0.94587806226E+03  0.95518288758E+03  0.12500025795E+03 0.  0.
         23    2    1    2    0    0  0.46984902519E+01  0.45187384973E+02 -0.24688606679E+03  0.26648393204E+03  0.89425837902E+02 0.  0.
        -13    1    4    4    0    0 -0.47545956426E+01  0.30197688203E+02 -0.24687662502E+03  0.24876210664E+03  0.10566000000E+00 0. -1.
         13    1    4    4    0    0  0.94530858945E+01  0.14989696770E+02 -0.94417706437E-02  0.17721825396E+02  0.10566000000E+00 0.  1.
    9000005    1    3    3    0    0  0.28571901629E+01 -0.44990248825E+02 -0.10503200550E+03  0.11430226684E+03  0.10000000000E+01 0.  0.
    9000005    1    3    3    0    0 -0.75556804149E+01 -0.19713614726E+00 -0.84084605675E+03  0.84088062073E+03  0.10000000000E+01 0.  0.
<mgrwt>
<rscale>  0 0.12394214E+03</rscale>
<asrwt>0</asrwt>
<pdfrwt beam="2">  1        1 0.18572538E+00 0.13300015E+03</pdfrwt>
<pdfrwt beam="1">  1       -1 0.22232848E-02 0.13300015E+03</pdfrwt>
<totfact> 0.64728238E+03</totfact>
</mgrwt>
</event>
<event>
 8    3  0.1560846E-003  0.1429259E+03  0.7818608E-02  0.1220416E+00
          1   -1    0    0  501    0  0.00000000000E+00  0.00000000000E+00  0.56288092484E+03  0.56288092486E+03  0.50400000000E-02 0. -1.
         -1   -1    0    0    0  501 -0.00000000000E+00 -0.00000000000E+00 -0.31450739691E+02  0.31450740094E+02  0.50400000000E-02 0.  1.
         25    2    1    2    0    0 -0.39795815718E+01  0.69187067993E+02  0.21446630660E+03  0.25772778007E+03  0.12500049802E+03 0.  0.
         23    2    1    2    0    0  0.39795815718E+01 -0.69187067993E+02  0.31696387855E+03  0.33660388489E+03  0.89629166959E+02 0.  0.
        -13    1    4    4    0    0 -0.13155583946E+02 -0.15587589857E+02  0.69872438152E+01  0.21560962100E+02  0.10566000000E+00 0.  1.
         13    1    4    4    0    0  0.17135165517E+02 -0.53599478136E+02  0.30997663474E+03  0.31504292279E+03  0.10566000000E+00 0. -1.
    9000005    1    3    3    0    0  0.57502350405E+02  0.35184949648E+02  0.13974521663E+03  0.15515871408E+03  0.10000000000E+01 0.  0.
    9000005    1    3    3    0    0 -0.61481931977E+02  0.34002118345E+02  0.74721089966E+02  0.10256906599E+03  0.10000000000E+01 0.  0.
<mgrwt>
<rscale>  0 0.13486126E+03</rscale>
<asrwt>0</asrwt>
<pdfrwt beam="1">  1        1 0.86597058E-01 0.14292590E+03</pdfrwt>
<pdfrwt beam="2">  1       -1 0.48385758E-02 0.14292590E+03</pdfrwt>
<totfact> 0.68470044E+03</totfact>
</mgrwt>
</event>
<event>
 8    3  0.1560846E-003  0.1366148E+03  0.7818608E-02  0.1229644E+00
          1   -1    0    0  501    0  0.00000000000E+00  0.00000000000E+00  0.68527447406E+03  0.68527447408E+03  0.50400000000E-02 0. -1.
         -1   -1    0    0    0  501 -0.00000000000E+00 -0.00000000000E+00 -0.23098866175E+02  0.23098866725E+02  0.50400000000E-02 0.  1.
         25    2    1    2    0    0  0.48007536210E+02 -0.27087041835E+02  0.45650301441E+03  0.47650665484E+03  0.12500063429E+03 0.  0.
         23    2    1    2    0    0 -0.48007536210E+02  0.27087041835E+02  0.20567259348E+03  0.23186668596E+03  0.91774250117E+02 0.  0.
        -13    1    4    4    0    0  0.28668302921E+01  0.77540931173E+01  0.16166527527E+03  0.16187654886E+03  0.10566000000E+00 0. -1.
         13    1    4    4    0    0 -0.50874366502E+02  0.19332948718E+02  0.44007318203E+02  0.69990137109E+02  0.10566000000E+00 0.  1.
    9000005    1    3    3    0    0 -0.35910726561E+02 -0.41571144903E+01  0.24736302956E+03  0.24999266044E+03  0.10000000000E+01 0.  0.
    9000005    1    3    3    0    0  0.83918262771E+02 -0.22929927345E+02  0.20913998485E+03  0.22651399440E+03  0.10000000000E+01 0.  0.
<mgrwt>
<rscale>  0 0.12853629E+03</rscale>
<asrwt>0</asrwt>
<pdfrwt beam="1">  1        1 0.10542685E+00 0.13661475E+03</pdfrwt>
<pdfrwt beam="2">  1       -1 0.35536714E-02 0.13661475E+03</pdfrwt>
<totfact> 0.82005464E+03</totfact>
</mgrwt>
</event>
<event>
 8    3  0.1560846E-003  0.2104421E+03  0.7818608E-02  0.1145600E+00
          1   -1    0    0  501    0  0.00000000000E+00  0.00000000000E+00  0.24531627130E+03  0.24531627135E+03  0.50400000000E-02 0. -1.
         -1   -1    0    0    0  501 -0.00000000000E+00 -0.00000000000E+00 -0.17001870708E+03  0.17001870716E+03  0.50400000000E-02 0.  1.
         25    2    1    2    0    0 -0.14407907848E+03 -0.88896144554E+02  0.81786300275E+02  0.22577614633E+03  0.12499825585E+03 0.  0.
         23    2    1    2    0    0  0.14407907848E+03  0.88896144554E+02 -0.64887360615E+01  0.18955883218E+03  0.85024359966E+02 0.  0.
        -13    1    4    4    0    0  0.67057421318E+02  0.85106694744E+02  0.15298318055E+02  0.10942530303E+03  0.10566000000E+00 0. -1.
         13    1    4    4    0    0  0.77021657165E+02  0.37894498100E+01 -0.21787054117E+02  0.80133529146E+02  0.10566000000E+00 0.  1.
    9000005    1    3    3    0    0 -0.98098404308E+02  0.11825199365E+02  0.49021313666E+02  0.11030512890E+03  0.10000000000E+01 0.  0.
    9000005    1    3    3    0    0 -0.45980674175E+02 -0.10072134392E+03  0.32764986609E+02  0.11547101743E+03  0.10000000000E+01 0.  0.
<mgrwt>
<rscale>  0 0.20498487E+03</rscale>
<asrwt>0</asrwt>
<pdfrwt beam="1">  1        1 0.37740964E-01 0.21044208E+03</pdfrwt>
<pdfrwt beam="2">  1       -1 0.26156725E-01 0.21044208E+03</pdfrwt>
<totfact> 0.14514084E+03</totfact>
</mgrwt>
</event>
<event>
 8    3  0.1560846E-003  0.1510223E+03  0.7818608E-02  0.1208159E+00
         -1   -1    0    0    0  501 -0.00000000000E+00  0.00000000000E+00  0.44277256777E+02  0.44277257063E+02  0.50400000000E-02 0.  1.
          1   -1    0    0  501    0  0.00000000000E+00 -0.00000000000E+00 -0.46381408652E+03  0.46381408655E+03  0.50400000000E-02 0. -1.
         25    2    1    2    0    0 -0.35907181798E+02  0.76773193574E+02 -0.29799752444E+03  0.33408123975E+03  0.12499720487E+03 0.  0.
         23    2    1    2    0    0  0.35907181798E+02 -0.76773193574E+02 -0.12153930531E+03  0.17401010386E+03  0.91237407657E+02 0.  0.
        -13    1    4    4    0    0  0.28557883889E+02  0.11138589526E+02 -0.56946025768E+02  0.64672110865E+02  0.10566000000E+00 0. -1.
         13    1    4    4    0    0  0.73492979087E+01 -0.87911783100E+02 -0.64593279539E+02  0.10933799300E+03  0.10566000000E+00 0.  1.
    9000005    1    3    3    0    0 -0.11846590554E+02 -0.24357816729E+02 -0.15463876742E+03  0.15699615706E+03  0.10000000000E+01 0.  0.
    9000005    1    3    3    0    0 -0.24060591244E+02  0.10113101030E+03 -0.14335875702E+03  0.17708508269E+03  0.10000000000E+01 0.  0.
<mgrwt>
<rscale>  0 0.14391279E+03</rscale>
<asrwt>0</asrwt>
<pdfrwt beam="2">  1        1 0.71356010E-01 0.15102235E+03</pdfrwt>
<pdfrwt beam="1">  1       -1 0.68118860E-02 0.15102235E+03</pdfrwt>
<totfact> 0.53205004E+03</totfact>
</mgrwt>
</event>
<event>
 8    3  0.1560846E-003  0.1337688E+03  0.7818608E-02  0.1237930E+00
          1   -1    0    0  501    0  0.00000000000E+00  0.00000000000E+00  0.12949284372E+04  0.12949284372E+04  0.50400000000E-02 0. -1.
         -1   -1    0    0    0  501 -0.00000000000E+00 -0.00000000000E+00 -0.10221076620E+02  0.10221077863E+02  0.50400000000E-02 0.  1.
         25    2    1    2    0    0  0.42451840602E+02 -0.21591351984E+02  0.76776944445E+03  0.77933562634E+03  0.12500301360E+03 0.  0.
         23    2    1    2    0    0 -0.42451840602E+02  0.21591351984E+02  0.51693791610E+03  0.52581388870E+03  0.83588822184E+02 0.  0.
        -13    1    4    4    0    0 -0.99581625618E+01  0.20496110615E+02  0.45748203559E+03  0.45804921089E+03  0.10566000000E+00 0. -1.
         13    1    4    4    0    0 -0.32493678040E+02  0.10952413698E+01  0.59455880518E+02  0.67764677808E+02  0.10566000000E+00 0.  1.
    9000005    1    3    3    0    0 -0.30949431044E+02  0.23087249771E+02  0.39035242879E+03  0.39225872463E+03  0.10000000000E+01 0.  0.
    9000005    1    3    3    0    0  0.73401271646E+02 -0.44678601755E+02  0.37741701565E+03  0.38707690171E+03  0.10000000000E+01 0.  0.
<mgrwt>
<rscale>  0 0.12318726E+03</rscale>
<asrwt>0</asrwt>
<pdfrwt beam="1">  1        1 0.19921978E+00 0.13376883E+03</pdfrwt>
<pdfrwt beam="2">  1       -1 0.15724732E-02 0.13376883E+03</pdfrwt>
<totfact> 0.93020593E+03</totfact>
</mgrwt>
</event>
<event>
 8    3  0.1560846E-003  0.1363592E+03  0.7818608E-02  0.1232488E+00
         -1   -1    0    0    0  501 -0.00000000000E+00  0.00000000000E+00  0.17909946458E+02  0.17909947167E+02  0.50400000000E-02 0. -1.
          1   -1    0    0  501    0  0.00000000000E+00 -0.00000000000E+00 -0.84074330866E+03  0.84074330868E+03  0.50400000000E-02 0.  1.
         25    2    1    2    0    0  0.49819039207E+02 -0.22071898597E+02 -0.57248682168E+03  0.58850233761E+03  0.12499893997E+03 0.  0.
         23    2    1    2    0    0 -0.49819039207E+02  0.22071898597E+02 -0.25034654052E+03  0.27015091823E+03  0.85668097317E+02 0.  0.
        -13    1    4    4    0    0 -0.63002029904E+02  0.42967484833E+02 -0.20061535050E+03  0.21462057344E+03  0.10566000000E+00 0.  1.
         13    1    4    4    0    0  0.13182990698E+02 -0.20895586236E+02 -0.49731190022E+02  0.55530344794E+02  0.10566000000E+00 0. -1.
    9000005    1    3    3    0    0 -0.29445235366E+02 -0.23442824539E+02 -0.67159765574E+02  0.76993649219E+02  0.10000000000E+01 0.  0.
    9000005    1    3    3    0    0  0.79264274573E+02  0.13709259418E+01 -0.50532705611E+03  0.51150868839E+03  0.10000000000E+01 0.  0.
<mgrwt>
<rscale>  0 0.12666624E+03</rscale>
<asrwt>0</asrwt>
<pdfrwt beam="2">  1        1 0.12934509E+00 0.13635923E+03</pdfrwt>
<pdfrwt beam="1">  1       -1 0.27553771E-02 0.13635923E+03</pdfrwt>
<totfact> 0.87870179E+03</totfact>
</mgrwt>
</event>
<event>
 8    3  0.1560846E-003  0.1515798E+03  0.7818608E-02  0.1204232E+00
          1   -1    0    0  501    0  0.00000000000E+00  0.00000000000E+00  0.16314036430E+03  0.16314036438E+03  0.50400000000E-02 0. -1.
         -1   -1    0    0    0  501 -0.00000000000E+00 -0.00000000000E+00 -0.12549302493E+03  0.12549302503E+03  0.50400000000E-02 0.  1.
         25    2    1    2    0    0  0.62213017537E+02  0.59001187849E+02  0.10803424876E+02  0.15196427281E+03  0.12499930601E+03 0.  0.
         23    2    1    2    0    0 -0.62213017537E+02 -0.59001187849E+02  0.26843914491E+02  0.13666911660E+03  0.10298665918E+03 0.  0.
        -13    1    4    4    0    0 -0.61109385514E+02 -0.86659289505E+02  0.17621447098E+02  0.10749286496E+03  0.10566000000E+00 0. -1.
         13    1    4    4    0    0 -0.11036320229E+01  0.27658101656E+02  0.92224673929E+01  0.29176251639E+02  0.10566000000E+00 0.  1.
    9000005    1    3    3    0    0  0.30523455538E+02 -0.74512206836E+01 -0.48244962896E+02  0.57582796671E+02  0.10000000000E+01 0.  0.
    9000005    1    3    3    0    0  0.31689561999E+02  0.66452408533E+02  0.59048387771E+02  0.94381476137E+02  0.10000000000E+01 0.  0.
<mgrwt>
<rscale>  0 0.14698152E+03</rscale>
<asrwt>0</asrwt>
<pdfrwt beam="1">  1        1 0.25098518E-01 0.15157977E+03</pdfrwt>
<pdfrwt beam="2">  1       -1 0.19306619E-01 0.15157977E+03</pdfrwt>
<totfact> 0.39307836E+03</totfact>
</mgrwt>
</event>
<event>
 8    3  0.1560846E-003  0.1864730E+03  0.7818608E-02  0.1166722E+00
         -1   -1    0    0    0  501 -0.00000000000E+00  0.00000000000E+00  0.90701387556E+02  0.90701387696E+02  0.50400000000E-02 0.  1.
          1   -1    0    0  501    0  0.00000000000E+00 -0.00000000000E+00 -0.34239761178E+03  0.34239761181E+03  0.50400000000E-02 0. -1.
         25    2    1    2    0    0 -0.13242351821E+03  0.40137520760E+02 -0.13489292138E+03  0.23014838612E+03  0.12500068259E+03 0.  0.
         23    2    1    2    0    0  0.13242351821E+03 -0.40137520760E+02 -0.11680330284E+03  0.20295061339E+03  0.91645682787E+02 0.  0.
        -13    1    4    4    0    0  0.14448682504E+03 -0.40130960623E+02 -0.93522333475E+02  0.17672966540E+03  0.10566000000E+00 0. -1.
         13    1    4    4    0    0 -0.12063306831E+02 -0.65601374729E-02 -0.23280969368E+02  0.26220947990E+02  0.10566000000E+00 0.  1.
    9000005    1    3    3    0    0 -0.47118193285E+02 -0.47322114527E+01 -0.12449110724E+03  0.13319742395E+03  0.10000000000E+01 0.  0.
    9000005    1    3    3    0    0 -0.85305324921E+02  0.44869732213E+02 -0.10401814134E+02  0.96950962172E+02  0.10000000000E+01 0.  0.
<mgrwt>
<rscale>  0 0.18112115E+03</rscale>
<asrwt>0</asrwt>
<pdfrwt beam="2">  1        1 0.52676555E-01 0.18647300E+03</pdfrwt>
<pdfrwt beam="1">  1       -1 0.13954060E-01 0.18647300E+03</pdfrwt>
<totfact> 0.26295596E+03</totfact>
</mgrwt>
</event>
<event>
 8    3  0.1560846E-003  0.1452374E+03  0.7818608E-02  0.1216021E+00
          1   -1    0    0  501    0  0.00000000000E+00  0.00000000000E+00  0.97621732743E+02  0.97621732874E+02  0.50400000000E-02 0. -1.
         -1   -1    0    0    0  501 -0.00000000000E+00 -0.00000000000E+00 -0.21138665073E+03  0.21138665079E+03  0.50400000000E-02 0.  1.
         25    2    1    2    0    0  0.23468275420E+02  0.70136229465E+02 -0.12283950888E+03  0.19021945685E+03  0.12499618469E+03 0.  0.
         23    2    1    2    0    0 -0.23468275420E+02 -0.70136229465E+02  0.90745908871E+01  0.11878892682E+03  0.92512757502E+02 0.  0.
        -13    1    4    4    0    0 -0.28899045447E+02 -0.89639985225E+02 -0.47014380695E+01  0.94300564489E+02  0.10566000000E+00 0.  1.
         13    1    4    4    0    0  0.54307700266E+01  0.19503755760E+02  0.13776028957E+02  0.24488362332E+02  0.10566000000E+00 0. -1.
    9000005    1    3    3    0    0 -0.51140872611E+02  0.23779550055E+02 -0.37414637188E+02  0.67688336721E+02  0.10000000000E+01 0.  0.
    9000005    1    3    3    0    0  0.74609148031E+02  0.46356679410E+02 -0.85424871688E+02  0.12253112012E+03  0.10000000000E+01 0.  0.
<mgrwt>
<rscale>  0 0.13801779E+03</rscale>
<asrwt>0</asrwt>
<pdfrwt beam="1">  1        1 0.15018728E-01 0.14523738E+03</pdfrwt>
<pdfrwt beam="2">  1       -1 0.32521023E-01 0.14523738E+03</pdfrwt>
<totfact> 0.31982874E+03</totfact>
</mgrwt>
</event>
<event>
 8    3  0.1560846E-003  0.1317838E+03  0.7818608E-02  0.1239340E+00
         -1   -1    0    0    0  501 -0.00000000000E+00  0.00000000000E+00  0.11221799622E+02  0.11221800753E+02  0.50400000000E-02 0.  1.
          1   -1    0    0  501    0  0.00000000000E+00 -0.00000000000E+00 -0.12783365327E+04  0.12783365328E+04  0.50400000000E-02 0. -1.
         25    2    1    2    0    0 -0.21241523882E+02  0.35918483193E+02 -0.90213749405E+03  0.91171214365E+03  0.12500253977E+03 0.  0.
         23    2    1    2    0    0  0.21241523882E+02 -0.35918483193E+02 -0.36497723908E+03  0.37784618986E+03  0.88419558767E+02 0.  0.
        -13    1    4    4    0    0 -0.10014708677E+02 -0.57554364240E+02 -0.25052132361E+03  0.25724257808E+03  0.10566000000E+00 0.  1.
         13    1    4    4    0    0  0.31256232560E+02  0.21635881047E+02 -0.11445591548E+03  0.12060361178E+03  0.10566000000E+00 0. -1.
    9000005    1    3    3    0    0 -0.37903728459E+02  0.31158116815E+02 -0.12367957064E+03  0.13306072699E+03  0.10000000000E+01 0.  0.
    9000005    1    3    3    0    0  0.16662204577E+02  0.47603663774E+01 -0.77845792341E+03  0.77865141666E+03  0.10000000000E+01 0.  0.
<mgrwt>
<rscale>  0 0.12230667E+03</rscale>
<asrwt>0</asrwt>
<pdfrwt beam="2">  1        1 0.19666704E+00 0.13178382E+03</pdfrwt>
<pdfrwt beam="1">  1       -1 0.17264318E-02 0.13178382E+03</pdfrwt>
<totfact> 0.83388744E+03</totfact>
</mgrwt>
</event>
<event>
 8    3  0.1560846E-003  0.1708161E+03  0.7818608E-02  0.1183314E+00
          1   -1    0    0  501    0  0.00000000000E+00  0.00000000000E+00  0.22886886775E+04  0.22886886775E+04  0.50400000000E-02 0. -1.
         -1   -1    0    0    0  501 -0.00000000000E+00 -0.00000000000E+00 -0.11320288913E+02  0.11320290035E+02  0.50400000000E-02 0.  1.
         25    2    1    2    0    0  0.11147816549E+03  0.33560723972E+02  0.13712403343E+04  0.13818386996E+04  0.12499773508E+03 0.  0.
         23    2    1    2    0    0 -0.11147816549E+03 -0.33560723972E+02  0.90612805435E+03  0.91817026798E+03  0.91732690792E+02 0.  0.
        -13    1    4    4    0    0 -0.12461474971E+03 -0.15259021354E+02  0.75310829268E+03  0.76350100540E+03  0.10566000000E+00 0. -1.
         13    1    4    4    0    0  0.13136584221E+02 -0.18301702619E+02  0.15301976166E+03  0.15466926258E+03  0.10566000000E+00 0.  1.
    9000005    1    3    3    0    0  0.74937139397E+02  0.73224253613E+02  0.63139273257E+03  0.64002745951E+03  0.10000000000E+01 0.  0.
    9000005    1    3    3    0    0  0.36541026095E+02 -0.39663529641E+02  0.73984760171E+03  0.74181124009E+03  0.10000000000E+01 0.  0.
<mgrwt>
<rscale>  0 0.16486249E+03</rscale>
<asrwt>0</asrwt>
<pdfrwt beam="1">  1        1 0.35210592E+00 0.17081609E+03</pdfrwt>
<pdfrwt beam="2">  1       -1 0.17415831E-02 0.17081609E+03</pdfrwt>
<totfact> 0.18447463E+03</totfact>
</mgrwt>
</event>
<event>
 8    3  0.1560846E-003  0.1394409E+03  0.7818608E-02  0.1225484E+00
          1   -1    0    0  501    0  0.00000000000E+00  0.00000000000E+00  0.14920913514E+04  0.14920913514E+04  0.50400000000E-02 0. -1.
         -1   -1    0    0    0  501 -0.00000000000E+00 -0.00000000000E+00 -0.11573622853E+02  0.11573623951E+02  0.50400000000E-02 0.  1.
         25    2    1    2    0    0 -0.53251255642E+02  0.31351305518E+02  0.10570396283E+04  0.10661972308E+04  0.12500063423E+03 0.  0.
         23    2    1    2    0    0  0.53251255642E+02 -0.31351305518E+02  0.42347810023E+03  0.43746774455E+03  0.90695785829E+02 0.  0.
        -13    1    4    4    0    0  0.55994569027E+02 -0.56615795862E+02  0.36694152425E+03  0.37548213471E+03  0.10566000000E+00 0.  1.
         13    1    4    4    0    0 -0.27433133843E+01  0.25264490344E+02  0.56536575979E+02  0.61985609847E+02  0.10566000000E+00 0. -1.
    9000005    1    3    3    0    0  0.24240389652E+02  0.49266314079E+02  0.57753743701E+03  0.58014244573E+03  0.10000000000E+01 0.  0.
    9000005    1    3    3    0    0 -0.77491645295E+02 -0.17915008561E+02  0.47950219134E+03  0.48605478510E+03  0.10000000000E+01 0.  0.
<mgrwt>
<rscale>  0 0.13133800E+03</rscale>
<asrwt>0</asrwt>
<pdfrwt beam="1">  1        1 0.22955261E+00 0.13944088E+03</pdfrwt>
<pdfrwt beam="2">  1       -1 0.17805567E-02 0.13944088E+03</pdfrwt>
<totfact> 0.57808953E+03</totfact>
</mgrwt>
</event>
<event>
 8    3  0.1560846E-003  0.1576576E+03  0.7818608E-02  0.1199287E+00
         -1   -1    0    0    0  501 -0.00000000000E+00  0.00000000000E+00  0.72436772892E+02  0.72436773067E+02  0.50400000000E-02 0.  1.
          1   -1    0    0  501    0  0.00000000000E+00 -0.00000000000E+00 -0.30688275740E+03  0.30688275745E+03  0.50400000000E-02 0. -1.
         25    2    1    2    0    0  0.62086157444E+02  0.73310095173E+02 -0.83410902694E+02  0.17836284378E+03  0.12500745719E+03 0.  0.
         23    2    1    2    0    0 -0.62086157444E+02 -0.73310095173E+02 -0.15103508182E+03  0.20095668673E+03  0.91339657332E+02 0.  0.
        -13    1    4    4    0    0 -0.38615818907E+02 -0.87706749286E+02 -0.80215250350E+02  0.12497260857E+03  0.10566000000E+00 0.  1.
         13    1    4    4    0    0 -0.23470338537E+02  0.14396654113E+02 -0.70819831468E+02  0.75984078160E+02  0.10566000000E+00 0. -1.
    9000005    1    3    3    0    0  0.32491044197E+02  0.88336167237E+02 -0.62200211886E+01  0.94332576869E+02  0.10000000000E+01 0.  0.
    9000005    1    3    3    0    0  0.29595113247E+02 -0.15026072065E+02 -0.77190881505E+02  0.84030266913E+02  0.10000000000E+01 0.  0.
<mgrwt>
<rscale>  0 0.15096937E+03</rscale>
<asrwt>0</asrwt>
<pdfrwt beam="2">  1        1 0.47212731E-01 0.15765762E+03</pdfrwt>
<pdfrwt beam="1">  1       -1 0.11144119E-01 0.15765762E+03</pdfrwt>
<totfact> 0.42491368E+03</totfact>
</mgrwt>
</event>
<event>
 8    3  0.1560846E-003  0.1820411E+03  0.7818608E-02  0.1171692E+00
          1   -1    0    0  501    0  0.00000000000E+00  0.00000000000E+00  0.43240989324E+03  0.43240989327E+03  0.50400000000E-02 0. -1.
         -1   -1    0    0    0  501 -0.00000000000E+00 -0.00000000000E+00 -0.67321834279E+02  0.67321834467E+02  0.50400000000E-02 0.  1.
         25    2    1    2    0    0 -0.13063834676E+03  0.21300765437E+02  0.19498985289E+03  0.26675834116E+03  0.12497547596E+03 0.  0.
         23    2    1    2    0    0  0.13063834676E+03 -0.21300765437E+02  0.17009820607E+03  0.23297338658E+03  0.88448283727E+02 0.  0.
        -13    1    4    4    0    0  0.52290691928E+02 -0.21298894333E+02  0.13651658307E+03  0.14773201406E+03  0.10566000000E+00 0. -1.
         13    1    4    4    0    0  0.78347654834E+02 -0.18711048650E-02  0.33581622998E+02  0.85241372517E+02  0.10566000000E+00 0.  1.
    9000005    1    3    3    0    0 -0.52766642638E+02 -0.16301290795E+02  0.16694235117E+03  0.17584310982E+03  0.10000000000E+01 0.  0.
    9000005    1    3    3    0    0 -0.77871704124E+02  0.37602056233E+02  0.28047501724E+02  0.90915231337E+02  0.10000000000E+01 0.  0.
<mgrwt>
<rscale>  0 0.17603937E+03</rscale>
<asrwt>0</asrwt>
<pdfrwt beam="1">  1        1 0.66524599E-01 0.18204112E+03</pdfrwt>
<pdfrwt beam="2">  1       -1 0.10357205E-01 0.18204112E+03</pdfrwt>
<totfact> 0.31053689E+03</totfact>
</mgrwt>
</event>
<event>
 8    3  0.1560846E-003  0.2170080E+03  0.7818608E-02  0.1139587E+00
         -1   -1    0    0    0  501 -0.00000000000E+00  0.00000000000E+00  0.73818988767E+02  0.73818988939E+02  0.50400000000E-02 0.  1.
          1   -1    0    0  501    0  0.00000000000E+00 -0.00000000000E+00 -0.62671366297E+03  0.62671366299E+03  0.50400000000E-02 0. -1.
         25    2    1    2    0    0 -0.10432516705E+03 -0.14347084663E+03 -0.37450323446E+03  0.43283385905E+03  0.12499941039E+03 0.  0.
         23    2    1    2    0    0  0.10432516705E+03  0.14347084663E+03 -0.17839143974E+03  0.26769879289E+03  0.91495976012E+02 0.  0.
        -13    1    4    4    0    0  0.12059822946E+03  0.11922918424E+03 -0.16025949825E+03  0.23332948649E+03  0.10566000000E+00 0. -1.
         13    1    4    4    0    0 -0.16273062408E+02  0.24241662398E+02 -0.18131941488E+02  0.34369306396E+02  0.10566000000E+00 0.  1.
    9000005    1    3    3    0    0 -0.55790340859E+02 -0.61109692480E+02 -0.55071683367E+02  0.99402449452E+02  0.10000000000E+01 0.  0.
    9000005    1    3    3    0    0 -0.48534826190E+02 -0.82361154153E+02 -0.31943155110E+03  0.33343140959E+03  0.10000000000E+01 0.  0.
<mgrwt>
<rscale>  0 0.21251792E+03</rscale>
<asrwt>0</asrwt>
<pdfrwt beam="2">  1        1 0.96417483E-01 0.21700801E+03</pdfrwt>
<pdfrwt beam="1">  1       -1 0.11356768E-01 0.21700801E+03</pdfrwt>
<totfact> 0.16469975E+03</totfact>
</mgrwt>
</event>
<event>
 8    3  0.1560846E-003  0.1484940E+03  0.7818608E-02  0.1212083E+00
          1   -1    0    0  501    0  0.00000000000E+00  0.00000000000E+00  0.13959014084E+04  0.13959014084E+04  0.50400000000E-02 0. -1.
         -1   -1    0    0    0  501 -0.00000000000E+00 -0.00000000000E+00 -0.13591270036E+02  0.13591270971E+02  0.50400000000E-02 0.  1.
         25    2    1    2    0    0 -0.47865767350E+02 -0.64300240341E+02  0.91132270459E+03  0.92334151436E+03  0.12499931058E+03 0.  0.
         23    2    1    2    0    0  0.47865767350E+02  0.64300240341E+02  0.47098743373E+03  0.48615116498E+03  0.89934086339E+02 0.  0.
        -13    1    4    4    0    0 -0.23501726251E+02  0.37254973889E+02  0.16271713712E+03  0.16857384760E+03  0.10566000000E+00 0.  1.
         13    1    4    4    0    0  0.71367493600E+02  0.27045266453E+02  0.30827029661E+03  0.31757731738E+03  0.10566000000E+00 0. -1.
    9000005    1    3    3    0    0 -0.64196562629E+02 -0.83437198157E+02  0.48591800088E+03  0.49719238557E+03  0.10000000000E+01 0.  0.
    9000005    1    3    3    0    0  0.16330795279E+02  0.19136957815E+02  0.42540470370E+03  0.42614912878E+03  0.10000000000E+01 0.  0.
<mgrwt>
<rscale>  0 0.14093030E+03</rscale>
<asrwt>0</asrwt>
<pdfrwt beam="1">  1        1 0.21475384E+00 0.14849404E+03</pdfrwt>
<pdfrwt beam="2">  1       -1 0.20909668E-02 0.14849404E+03</pdfrwt>
<totfact> 0.53095294E+03</totfact>
</mgrwt>
</event>
<event>
 8    3  0.1560846E-003  0.1453864E+03  0.7818608E-02  0.1216402E+00
          1   -1    0    0  501    0  0.00000000000E+00  0.00000000000E+00  0.49695275062E+02  0.49695275317E+02  0.50400000000E-02 0. -1.
         -1   -1    0    0    0  501 -0.00000000000E+00 -0.00000000000E+00 -0.34837150699E+03  0.34837150703E+03  0.50400000000E-02 0.  1.
         25    2    1    2    0    0  0.44323975533E+02  0.59562439818E+02 -0.17907966879E+03  0.23066582019E+03  0.12499957515E+03 0.  0.
         23    2    1    2    0    0 -0.44323975533E+02 -0.59562439818E+02 -0.11959656314E+03  0.16740096216E+03  0.90594951133E+02 0.  0.
        -13    1    4    4    0    0 -0.63868602929E+02 -0.45848663528E+02 -0.48440746389E+02  0.92346171887E+02  0.10566000000E+00 0. -1.
         13    1    4    4    0    0  0.19544627396E+02 -0.13713776290E+02 -0.71155816756E+02  0.75054790269E+02  0.10566000000E+00 0.  1.
    9000005    1    3    3    0    0  0.87795435896E+02  0.33766372741E+02 -0.10498090762E+03  0.14096168790E+03  0.10000000000E+01 0.  0.
    9000005    1    3    3    0    0 -0.43471460364E+02  0.25796067077E+02 -0.74098761169E+02  0.89704132288E+02  0.10000000000E+01 0.  0.
<mgrwt>
<rscale>  0 0.13774029E+03</rscale>
<asrwt>0</asrwt>
<pdfrwt beam="1">  1        1 0.76454272E-02 0.14538636E+03</pdfrwt>
<pdfrwt beam="2">  1       -1 0.53595615E-01 0.14538636E+03</pdfrwt>
<totfact> 0.32243764E+03</totfact>
</mgrwt>
</event>
<event>
 8    3  0.1560846E-003  0.1382212E+03  0.7818608E-02  0.1226966E+00
          1   -1    0    0  501    0  0.00000000000E+00  0.00000000000E+00  0.13087098939E+03  0.13087098948E+03  0.50400000000E-02 0. -1.
         -1   -1    0    0    0  501 -0.00000000000E+00 -0.00000000000E+00 -0.12283247723E+03  0.12283247733E+03  0.50400000000E-02 0.  1.
         25    2    1    2    0    0 -0.34230419921E+02  0.48046754090E+02  0.31931014819E+02  0.14186151672E+03  0.12499955197E+03 0.  0.
         23    2    1    2    0    0  0.34230419921E+02 -0.48046754090E+02 -0.23892502660E+02  0.11184195010E+03  0.91964981877E+02 0.  0.
        -13    1    4    4    0    0 -0.27293216499E+02  0.17657404656E+01 -0.17397881528E+02  0.32415042063E+02  0.10566000000E+00 0.  1.
         13    1    4    4    0    0  0.61523636420E+02 -0.49812494556E+02 -0.64946211322E+01  0.79426908034E+02  0.10566000000E+00 0. -1.
    9000005    1    3    3    0    0  0.48131849155E+01  0.40915168501E+02  0.73571873754E+02  0.84326972969E+02  0.10000000000E+01 0.  0.
    9000005    1    3    3    0    0 -0.39043604836E+02  0.71315855894E+01 -0.41640858935E+02  0.57534543750E+02  0.10000000000E+01 0.  0.
<mgrwt>
<rscale>  0 0.13033060E+03</rscale>
<asrwt>0</asrwt>
<pdfrwt beam="1">  1        1 0.20133998E-01 0.13822120E+03</pdfrwt>
<pdfrwt beam="2">  1       -1 0.18897304E-01 0.13822120E+03</pdfrwt>
<totfact> 0.53471804E+03</totfact>
</mgrwt>
</event>
<event>
 8    3  0.1560846E-003  0.1408980E+03  0.7818608E-02  0.1223485E+00
          1   -1    0    0  501    0  0.00000000000E+00  0.00000000000E+00  0.17259573599E+02  0.17259574334E+02  0.50400000000E-02 0. -1.
         -1   -1    0    0    0  501 -0.00000000000E+00 -0.00000000000E+00 -0.93255687318E+03  0.93255687320E+03  0.50400000000E-02 0.  1.
         25    2    1    2    0    0  0.64790161907E+02 -0.54138310159E+01 -0.45318827481E+03  0.47458599346E+03  0.12500071246E+03 0.  0.
         23    2    1    2    0    0 -0.64790161907E+02  0.54138310159E+01 -0.46210902477E+03  0.47523045407E+03  0.89845194935E+02 0.  0.
        -13    1    4    4    0    0 -0.21827816525E+02 -0.41699128120E+02 -0.18768339142E+03  0.19349505792E+03  0.10566000000E+00 0.  1.
         13    1    4    4    0    0 -0.42962345381E+02  0.47112959135E+02 -0.27442563335E+03  0.28173539615E+03  0.10566000000E+00 0. -1.
    9000005    1    3    3    0    0  0.43541645753E+02 -0.53134251472E+02 -0.37019721277E+03  0.37651839256E+03  0.10000000000E+01 0.  0.
    9000005    1    3    3    0    0  0.21248516154E+02  0.47720420456E+02 -0.82991062037E+02  0.98067600895E+02  0.10000000000E+01 0.  0.
<mgrwt>
<rscale>  0 0.13271299E+03</rscale>
<asrwt>0</asrwt>
<pdfrwt beam="1">  1        1 0.26553198E-02 0.14089802E+03</pdfrwt>
<pdfrwt beam="2">  1       -1 0.14347025E+00 0.14089802E+03</pdfrwt>
<totfact> 0.16753066E+03</totfact>
</mgrwt>
</event>
<event>
 8    3  0.1560846E-003  0.1918058E+03  0.7818608E-02  0.1163674E+00
         -1   -1    0    0    0  501 -0.00000000000E+00  0.00000000000E+00  0.56296170066E+02  0.56296170292E+02  0.50400000000E-02 0.  1.
          1   -1    0    0  501    0  0.00000000000E+00 -0.00000000000E+00 -0.62574893021E+03  0.62574893023E+03  0.50400000000E-02 0. -1.
         25    2    1    2    0    0  0.14408879880E+03  0.20012752986E+02 -0.19557352122E+03  0.27393149410E+03  0.12500947578E+03 0.  0.
         23    2    1    2    0    0 -0.14408879880E+03 -0.20012752986E+02 -0.37387923892E+03  0.40811360642E+03  0.74892844999E+02 0.  0.
        -13    1    4    4    0    0 -0.62509543548E+02  0.27467790672E+02 -0.13560745075E+03  0.15182659326E+03  0.10566000000E+00 0. -1.
         13    1    4    4    0    0 -0.81579255247E+02 -0.47480543658E+02 -0.23827178817E+03  0.25628701316E+03  0.10566000000E+00 0.  1.
    9000005    1    3    3    0    0  0.10485385125E+03  0.35899256471E+02 -0.48672011127E+02  0.12104978894E+03  0.10000000000E+01 0.  0.
    9000005    1    3    3    0    0  0.39234947548E+02 -0.15886503485E+02 -0.14690151009E+03  0.15288170515E+03  0.10000000000E+01 0.  0.
<mgrwt>
<rscale>  0 0.18433356E+03</rscale>
<asrwt>0</asrwt>
<pdfrwt beam="2">  1        1 0.96269061E-01 0.19180579E+03</pdfrwt>
<pdfrwt beam="1">  1       -1 0.86609497E-02 0.19180579E+03</pdfrwt>
<totfact> 0.25003367E+03</totfact>
</mgrwt>
</event>
<event>
 8    3  0.1560846E-003  0.1323936E+03  0.7818608E-02  0.1237293E+00
          1   -1    0    0  501    0  0.00000000000E+00  0.00000000000E+00  0.18450624566E+03  0.18450624573E+03  0.50400000000E-02 0. -1.
         -1   -1    0    0    0  501 -0.00000000000E+00 -0.00000000000E+00 -0.73856304114E+02  0.73856304286E+02  0.50400000000E-02 0.  1.
         25    2    1    2    0    0  0.38756086116E+02 -0.20021115236E+02  0.71592100418E+02  0.15051076510E+03  0.12500072921E+03 0.  0.
         23    2    1    2    0    0 -0.38756086116E+02  0.20021115236E+02  0.39057841129E+02  0.10785178491E+03  0.90573800233E+02 0.  0.
        -13    1    4    4    0    0 -0.23800786687E+02  0.36985751973E+02 -0.17194233108E+02  0.47223681687E+02  0.10566000000E+00 0.  1.
         13    1    4    4    0    0 -0.14955299429E+02 -0.16964636736E+02  0.56252074237E+02  0.60628103225E+02  0.10566000000E+00 0. -1.
    9000005    1    3    3    0    0  0.32692287201E+02  0.44782201396E+02  0.23923920668E+01  0.55506348682E+02  0.10000000000E+01 0.  0.
    9000005    1    3    3    0    0  0.60637989149E+01 -0.64803316632E+02  0.69199708351E+02  0.95004416422E+02  0.10000000000E+01 0.  0.
<mgrwt>
<rscale>  0 0.12358770E+03</rscale>
<asrwt>0</asrwt>
<pdfrwt beam="1">  1        1 0.28385576E-01 0.13239359E+03</pdfrwt>
<pdfrwt beam="2">  1       -1 0.11362509E-01 0.13239359E+03</pdfrwt>
<totfact> 0.76732667E+03</totfact>
</mgrwt>
</event>
<event>
 8    3  0.1560846E-003  0.1570766E+03  0.7818608E-02  0.1200219E+00
          1   -1    0    0  501    0  0.00000000000E+00  0.00000000000E+00  0.32838798824E+03  0.32838798828E+03  0.50400000000E-02 0. -1.
         -1   -1    0    0    0  501 -0.00000000000E+00 -0.00000000000E+00 -0.72703587145E+02  0.72703587319E+02  0.50400000000E-02 0.  1.
         25    2    1    2    0    0  0.17708574755E+01  0.95104758442E+02  0.20952906648E+03  0.26186922005E+03  0.12500003079E+03 0.  0.
         23    2    1    2    0    0 -0.17708574755E+01 -0.95104758442E+02  0.46155334622E+02  0.13922235555E+03  0.90578685991E+02 0.  0.
        -13    1    4    4    0    0 -0.30118455686E+02  0.96591597440E+00  0.18299998687E+02  0.35255573780E+02  0.10566000000E+00 0. -1.
         13    1    4    4    0    0  0.28347598210E+02 -0.96070674416E+02  0.27855335935E+02  0.10396678177E+03  0.10566000000E+00 0.  1.
    9000005    1    3    3    0    0  0.32776406334E+02  0.96019469523E+01  0.79402667649E+00  0.34177780440E+02  0.10000000000E+01 0.  0.
    9000005    1    3    3    0    0 -0.31005548859E+02  0.85502811490E+02  0.20873503980E+03  0.22769143961E+03  0.10000000000E+01 0.  0.
<mgrwt>
<rscale>  0 0.15020704E+03</rscale>
<asrwt>0</asrwt>
<pdfrwt beam="1">  1        1 0.50521229E-01 0.15707660E+03</pdfrwt>
<pdfrwt beam="2">  1       -1 0.11185167E-01 0.15707660E+03</pdfrwt>
<totfact> 0.38823475E+03</totfact>
</mgrwt>
</event>
<event>
 8    3  0.1560846E-003  0.1308322E+03  0.7818608E-02  0.1240072E+00
         -1   -1    0    0    0  501 -0.00000000000E+00  0.00000000000E+00  0.16928095496E+04  0.16928095497E+04  0.50400000000E-02 0.  1.
          1   -1    0    0  501    0  0.00000000000E+00 -0.00000000000E+00 -0.86510703137E+01  0.86510717818E+01  0.50400000000E-02 0. -1.
         25    2    1    2    0    0 -0.20144762634E+01  0.38555057238E+02  0.67877537105E+03  0.69126916643E+03  0.12500602209E+03 0.  0.
         23    2    1    2    0    0  0.20144762634E+01 -0.38555057238E+02  0.10053831083E+04  0.10101914550E+04  0.90559542809E+02 0.  0.
        -13    1    4    4    0    0  0.29164168341E+02  0.18417863408E+02  0.42085998898E+03  0.42227113078E+03  0.10566000000E+00 0.  1.
         13    1    4    4    0    0 -0.27149692077E+02 -0.56972920646E+02  0.58452311930E+03  0.58792032422E+03  0.10566000000E+00 0. -1.
    9000005    1    3    3    0    0 -0.78641484046E+01  0.10286607999E+02  0.65121833508E+03  0.65134781728E+03  0.10000000000E+01 0.  0.
    9000005    1    3    3    0    0  0.58496721412E+01  0.28268449238E+02  0.27557035979E+02  0.39921349156E+02  0.10000000000E+01 0.  0.
<mgrwt>
<rscale>  0 0.12185272E+03</rscale>
<asrwt>0</asrwt>
<pdfrwt beam="2">  1        1 0.13309349E-02 0.13083217E+03</pdfrwt>
<pdfrwt beam="1">  1       -1 0.26043207E+00 0.13083217E+03</pdfrwt>
<totfact> 0.72557166E+02</totfact>
</mgrwt>
</event>
<event>
 8    3  0.1560846E-003  0.1281549E+03  0.7818608E-02  0.1244467E+00
          1   -1    0    0  501    0  0.00000000000E+00  0.00000000000E+00  0.41892309909E+03  0.41892309912E+03  0.50400000000E-02 0. -1.
         -1   -1    0    0    0  501 -0.00000000000E+00 -0.00000000000E+00 -0.30559601620E+02  0.30559602035E+02  0.50400000000E-02 0.  1.
         25    2    1    2    0    0 -0.18824145915E+02  0.21079622180E+02  0.25330925291E+03  0.28388245233E+03  0.12499988077E+03 0.  0.
         23    2    1    2    0    0  0.18824145915E+02 -0.21079622180E+02  0.13505424456E+03  0.16560024882E+03  0.91570161602E+02 0.  0.
        -13    1    4    4    0    0  0.11460283065E+02 -0.57302774128E+02  0.74952300275E+02  0.95041067394E+02  0.10566000000E+00 0.  1.
         13    1    4    4    0    0  0.73638628499E+01  0.36223151948E+02  0.60101944286E+02  0.70559181430E+02  0.10566000000E+00 0. -1.
    9000005    1    3    3    0    0 -0.51970361068E+02 -0.84664695881E+01  0.22530065501E+03  0.23137412276E+03  0.10000000000E+01 0.  0.
    9000005    1    3    3    0    0  0.33146215153E+02  0.29546091768E+02  0.28008597900E+02  0.52508329569E+02  0.10000000000E+01 0.  0.
<mgrwt>
<rscale>  0 0.11917333E+03</rscale>
<asrwt>0</asrwt>
<pdfrwt beam="1">  1        1 0.64449711E-01 0.12815486E+03</pdfrwt>
<pdfrwt beam="2">  1       -1 0.47014770E-02 0.12815486E+03</pdfrwt>
<totfact> 0.10409604E+04</totfact>
</mgrwt>
</event>
<event>
 8    3  0.1560846E-003  0.1465485E+03  0.7818608E-02  0.1215024E+00
          1   -1    0    0  501    0  0.00000000000E+00  0.00000000000E+00  0.23681226082E+02  0.23681226618E+02  0.50400000000E-02 0. -1.
         -1   -1    0    0    0  501 -0.00000000000E+00 -0.00000000000E+00 -0.73763270176E+03  0.73763270178E+03  0.50400000000E-02 0.  1.
         25    2    1    2    0    0  0.73848967447E+02  0.19888341678E+02 -0.40196328918E+03  0.42784454710E+03  0.12500901771E+03 0.  0.
         23    2    1    2    0    0 -0.73848967447E+02 -0.19888341678E+02 -0.31198818649E+03  0.33346938129E+03  0.89532025657E+02 0.  0.
        -13    1    4    4    0    0 -0.11244743375E+02 -0.15107515636E+02 -0.41390573879E+01  0.19282744679E+02  0.10566000000E+00 0. -1.
         13    1    4    4    0    0 -0.62604224072E+02 -0.47808260424E+01 -0.30784912910E+03  0.31418663661E+03  0.10566000000E+00 0.  1.
    9000005    1    3    3    0    0  0.41675764691E+02  0.20224692485E+02 -0.31598874020E+02  0.56083833571E+02  0.10000000000E+01 0.  0.
    9000005    1    3    3    0    0  0.32173202756E+02 -0.33635080650E+00 -0.37036441516E+03  0.37176071353E+03  0.10000000000E+01 0.  0.
<mgrwt>
<rscale>  0 0.13874804E+03</rscale>
<asrwt>0</asrwt>
<pdfrwt beam="1">  1        1 0.36432662E-02 0.14654853E+03</pdfrwt>
<pdfrwt beam="2">  1       -1 0.11348194E+00 0.14654853E+03</pdfrwt>
<totfact> 0.19071156E+03</totfact>
</mgrwt>
</event>
<event>
 8    3  0.1560846E-003  0.1409601E+03  0.7818608E-02  0.1222379E+00
          1   -1    0    0  501    0  0.00000000000E+00  0.00000000000E+00  0.35624662735E+02  0.35624663091E+02  0.50400000000E-02 0. -1.
         -1   -1    0    0    0  501 -0.00000000000E+00 -0.00000000000E+00 -0.45396969892E+03  0.45396969895E+03  0.50400000000E-02 0.  1.
         25    2    1    2    0    0  0.47854109407E+02 -0.44212937157E+02 -0.23612619948E+03  0.27500062510E+03  0.12499984850E+03 0.  0.
         23    2    1    2    0    0 -0.47854109407E+02  0.44212937157E+02 -0.18221883671E+03  0.21459373695E+03  0.92746794473E+02 0.  0.
        -13    1    4    4    0    0  0.13198912106E+02  0.18015328551E+02 -0.12480146071E+03  0.12678398599E+03  0.10566000000E+00 0.  1.
         13    1    4    4    0    0 -0.61053021513E+02  0.26197608607E+02 -0.57417376003E+02  0.87809750960E+02  0.10566000000E+00 0. -1.
    9000005    1    3    3    0    0  0.39644066441E+02 -0.84859061615E+02 -0.19627425530E+03  0.21747941428E+03  0.10000000000E+01 0.  0.
    9000005    1    3    3    0    0  0.82100429657E+01  0.40646124458E+02 -0.39851944174E+02  0.57521210813E+02  0.10000000000E+01 0.  0.
<mgrwt>
<rscale>  0 0.13348162E+03</rscale>
<asrwt>0</asrwt>
<pdfrwt beam="1">  1        1 0.54807177E-02 0.14096014E+03</pdfrwt>
<pdfrwt beam="2">  1       -1 0.69841488E-01 0.14096014E+03</pdfrwt>
<totfact> 0.30468971E+03</totfact>
</mgrwt>
</event>
<event>
 8    3  0.1560846E-003  0.1336348E+03  0.7818608E-02  0.1235362E+00
          1   -1    0    0  501    0  0.00000000000E+00  0.00000000000E+00  0.76760847759E+02  0.76760847925E+02  0.50400000000E-02 0. -1.
         -1   -1    0    0    0  501 -0.00000000000E+00 -0.00000000000E+00 -0.18279851657E+03  0.18279851664E+03  0.50400000000E-02 0.  1.
         25    2    1    2    0    0  0.21756999215E+02 -0.41953846844E+02 -0.45259464727E+02  0.14109107037E+03  0.12499911485E+03 0.  0.
         23    2    1    2    0    0 -0.21756999215E+02  0.41953846844E+02 -0.60778204084E+02  0.11846829419E+03  0.90040292962E+02 0.  0.
        -13    1    4    4    0    0 -0.49363052645E+01  0.65680707846E+02 -0.20883812216E+02  0.69097519996E+02  0.10566000000E+00 0. -1.
         13    1    4    4    0    0 -0.16820693951E+02 -0.23726861002E+02 -0.39894391868E+02  0.49370774194E+02  0.10566000000E+00 0.  1.
    9000005    1    3    3    0    0  0.23974419342E+02 -0.75426016556E+02 -0.64767575827E+02  0.10227265341E+03  0.10000000000E+01 0.  0.
    9000005    1    3    3    0    0 -0.22174201273E+01  0.33472169711E+02  0.19508111100E+02  0.38818416968E+02  0.10000000000E+01 0.  0.
<mgrwt>
<rscale>  0 0.12481270E+03</rscale>
<asrwt>0</asrwt>
<pdfrwt beam="1">  1        1 0.11809361E-01 0.13363484E+03</pdfrwt>
<pdfrwt beam="2">  1       -1 0.28122849E-01 0.13363484E+03</pdfrwt>
<totfact> 0.55619653E+03</totfact>
</mgrwt>
</event>
<event>
 8    3  0.1560846E-003  0.1340984E+03  0.7818608E-02  0.1234484E+00
         -1   -1    0    0    0  501 -0.00000000000E+00  0.00000000000E+00  0.28042969695E+02  0.28042970148E+02  0.50400000000E-02 0.  1.
          1   -1    0    0  501    0  0.00000000000E+00 -0.00000000000E+00 -0.54034846470E+03  0.54034846473E+03  0.50400000000E-02 0. -1.
         25    2    1    2    0    0 -0.26504168314E+02  0.40682763818E+02 -0.20972082910E+03  0.24892809693E+03  0.12499925228E+03 0.  0.
         23    2    1    2    0    0  0.26504168314E+02 -0.40682763818E+02 -0.30258466590E+03  0.31946333795E+03  0.90231846054E+02 0.  0.
        -13    1    4    4    0    0  0.15809920378E+02 -0.17608780450E+02 -0.98615967646E+01  0.25637569816E+02  0.10566000000E+00 0.  1.
         13    1    4    4    0    0  0.10694247936E+02 -0.23073983368E+02 -0.29272306914E+03  0.29382576813E+03  0.10566000000E+00 0. -1.
    9000005    1    3    3    0    0 -0.22849037224E+02  0.52131285272E+02 -0.22331300894E+02  0.61150931357E+02  0.10000000000E+01 0.  0.
    9000005    1    3    3    0    0 -0.36551310891E+01 -0.11448521454E+02 -0.18738952821E+03  0.18777716557E+03  0.10000000000E+01 0.  0.
<mgrwt>
<rscale>  0 0.12537556E+03</rscale>
<asrwt>0</asrwt>
<pdfrwt beam="2">  1        1 0.83130525E-01 0.13409836E+03</pdfrwt>
<pdfrwt beam="1">  1       -1 0.43143035E-02 0.13409836E+03</pdfrwt>
<totfact> 0.85303855E+03</totfact>
</mgrwt>
</event>
<event>
 8    3  0.1560846E-003  0.1470584E+03  0.7818608E-02  0.1214177E+00
          1   -1    0    0  501    0  0.00000000000E+00  0.00000000000E+00  0.28823562758E+03  0.28823562762E+03  0.50400000000E-02 0. -1.
         -1   -1    0    0    0  501 -0.00000000000E+00 -0.00000000000E+00 -0.61260311634E+02  0.61260311842E+02  0.50400000000E-02 0.  1.
         25    2    1    2    0    0  0.61229646160E+01 -0.77225520863E+02  0.12175169536E+03  0.19091788912E+03  0.12499957318E+03 0.  0.
         23    2    1    2    0    0 -0.61229646160E+01  0.77225520863E+02  0.10522362058E+03  0.15857805034E+03  0.89853858873E+02 0.  0.
        -13    1    4    4    0    0  0.12217494999E+01  0.17158367488E+02 -0.15743438697E+02  0.23318860880E+02  0.10566000000E+00 0.  1.
         13    1    4    4    0    0 -0.73447141159E+01  0.60067153375E+02  0.12096705928E+03  0.13525918946E+03  0.10566000000E+00 0. -1.
    9000005    1    3    3    0    0 -0.26095574246E+02 -0.43713675606E+01 -0.16612198676E+02  0.31257846926E+02  0.10000000000E+01 0.  0.
    9000005    1    3    3    0    0  0.32218538862E+02 -0.72854153302E+02  0.13836389404E+03  0.15966004219E+03  0.10000000000E+01 0.  0.
<mgrwt>
<rscale>  0 0.13937129E+03</rscale>
<asrwt>0</asrwt>
<pdfrwt beam="1">  1        1 0.44343942E-01 0.14705837E+03</pdfrwt>
<pdfrwt beam="2">  1       -1 0.94246635E-02 0.14705837E+03</pdfrwt>
<totfact> 0.59155360E+03</totfact>
</mgrwt>
</event>
<event>
 8    3  0.1560846E-003  0.1254847E+03  0.7818608E-02  0.1249819E+00
         -1   -1    0    0    0  501 -0.00000000000E+00  0.00000000000E+00  0.18966124760E+03  0.18966124767E+03  0.50400000000E-02 0.  1.
          1   -1    0    0  501    0  0.00000000000E+00 -0.00000000000E+00 -0.62374151775E+02  0.62374151978E+02  0.50400000000E-02 0. -1.
         25    2    1    2    0    0  0.77595637449E+01  0.78190245776E+01  0.80699792175E+02  0.14919404709E+03  0.12500023702E+03 0.  0.
         23    2    1    2    0    0 -0.77595637449E+01 -0.78190245776E+01  0.46587303654E+02  0.10284135256E+03  0.91019882225E+02 0.  0.
        -13    1    4    4    0    0  0.20524055045E+02 -0.42233677023E+02  0.27136855676E+02  0.54234125884E+02  0.10566000000E+00 0.  1.
         13    1    4    4    0    0 -0.28283618790E+02  0.34414652445E+02  0.19450447978E+02  0.48607226678E+02  0.10566000000E+00 0. -1.
    9000005    1    3    3    0    0  0.55451383264E+02 -0.20325124635E+02  0.10858879615E+02  0.60057321484E+02  0.10000000000E+01 0.  0.
    9000005    1    3    3    0    0 -0.47691819519E+02  0.28144149212E+02  0.69840912559E+02  0.89136725602E+02  0.10000000000E+01 0.  0.
<mgrwt>
<rscale>  0 0.11601563E+03</rscale>
<asrwt>0</asrwt>
<pdfrwt beam="2">  1        1 0.95960232E-02 0.12548469E+03</pdfrwt>
<pdfrwt beam="1">  1       -1 0.29178654E-01 0.12548469E+03</pdfrwt>
<totfact> 0.68462259E+03</totfact>
</mgrwt>
</event>
<event>
 8    3  0.1560846E-003  0.1339761E+03  0.7818608E-02  0.1234731E+00
          1   -1    0    0  501    0  0.00000000000E+00  0.00000000000E+00  0.54685862614E+02  0.54685862846E+02  0.50400000000E-02 0.  1.
         -1   -1    0    0    0  501 -0.00000000000E+00 -0.00000000000E+00 -0.27558052519E+03  0.27558052524E+03  0.50400000000E-02 0. -1.
         25    2    1    2    0    0 -0.31188136912E+02 -0.36780050859E+02 -0.79501032447E+02  0.15578830759E+03  0.12499644234E+03 0.  0.
         23    2    1    2    0    0  0.31188136912E+02  0.36780050859E+02 -0.14139363013E+03  0.17447808049E+03  0.90138614948E+02 0.  0.
        -13    1    4    4    0    0  0.33329241663E+01 -0.76942905538E+01 -0.11578003838E+03  0.11608332758E+03  0.10566000000E+00 0. -1.
         13    1    4    4    0    0  0.27855212746E+02  0.44474341413E+02 -0.25613591754E+02  0.58394752913E+02  0.10566000000E+00 0.  1.
    9000005    1    3    3    0    0  0.11902190134E+02  0.40549901363E+02 -0.42166187814E+02  0.59707152213E+02  0.10000000000E+01 0.  0.
    9000005    1    3    3    0    0 -0.43090327046E+02 -0.77329952223E+02 -0.37334844633E+02  0.96081155382E+02  0.10000000000E+01 0.  0.
<mgrwt>
<rscale>  0 0.12521669E+03</rscale>
<asrwt>0</asrwt>
<pdfrwt beam="1">  1        1 0.84132098E-02 0.13397605E+03</pdfrwt>
<pdfrwt beam="2">  1       -1 0.42397003E-01 0.13397605E+03</pdfrwt>
<totfact> 0.43144562E+03</totfact>
</mgrwt>
</event>
<event>
 8    3  0.1560846E-003  0.1314123E+03  0.7818608E-02  0.1238658E+00
          1   -1    0    0  501    0  0.00000000000E+00  0.00000000000E+00  0.85841394705E+03  0.85841394707E+03  0.50400000000E-02 0. -1.
         -1   -1    0    0    0  501 -0.00000000000E+00 -0.00000000000E+00 -0.23096178146E+02  0.23096178696E+02  0.50400000000E-02 0.  1.
         25    2    1    2    0    0 -0.40164040300E+02 -0.54377766999E+01  0.20632368958E+03  0.24461942889E+03  0.12500592209E+03 0.  0.
         23    2    1    2    0    0  0.40164040300E+02  0.54377766999E+01  0.62899407932E+03  0.63689069688E+03  0.91397420077E+02 0.  0.
        -13    1    4    4    0    0  0.20590794670E+02 -0.27151417856E+02  0.85089737393E+02  0.91659450634E+02  0.10566000000E+00 0.  1.
         13    1    4    4    0    0  0.19573245630E+02  0.32589194556E+02  0.54390434193E+03  0.54523124624E+03  0.10566000000E+00 0. -1.
    9000005    1    3    3    0    0  0.36109350531E+02 -0.29518864678E+02  0.46349133129E+02  0.65760860011E+02  0.10000000000E+01 0.  0.
    9000005    1    3    3    0    0 -0.76273390831E+02  0.24081087979E+02  0.15997455645E+03  0.17885856887E+03  0.10000000000E+01 0.  0.
<mgrwt>
<rscale>  0 0.12273163E+03</rscale>
<asrwt>0</asrwt>
<pdfrwt beam="1">  1        1 0.13206371E+00 0.13141233E+03</pdfrwt>
<pdfrwt beam="2">  1       -1 0.35532575E-02 0.13141233E+03</pdfrwt>
<totfact> 0.58622532E+03</totfact>
</mgrwt>
</event>
<event>
 8    3  0.1560846E-003  0.1854673E+03  0.7818608E-02  0.1167946E+00
         -1   -1    0    0    0  501 -0.00000000000E+00  0.00000000000E+00  0.27926175882E+02  0.27926176337E+02  0.50400000000E-02 0.  1.
          1   -1    0    0  501    0  0.00000000000E+00 -0.00000000000E+00 -0.12091394628E+04  0.12091394628E+04  0.50400000000E-02 0. -1.
         25    2    1    2    0    0  0.82301989915E+02 -0.10953780480E+03 -0.43231428045E+03  0.47041868684E+03  0.12500382244E+03 0.  0.
         23    2    1    2    0    0 -0.82301989915E+02  0.10953780480E+03 -0.74889900649E+03  0.76664695233E+03  0.90142550273E+02 0.  0.
        -13    1    4    4    0    0 -0.66903361254E+02  0.38202747028E+02 -0.22809554222E+03  0.24075526406E+03  0.10566000000E+00 0.  1.
         13    1    4    4    0    0 -0.15398628661E+02  0.71335057771E+02 -0.52080346427E+03  0.52589168827E+03  0.10566000000E+00 0. -1.
    9000005    1    3    3    0    0  0.13400734328E+02  0.18150127892E+02 -0.11602461525E+02  0.25389445375E+02  0.10000000000E+01 0.  0.
    9000005    1    3    3    0    0  0.68901255587E+02 -0.12768793269E+03 -0.42071181892E+03  0.44502924146E+03  0.10000000000E+01 0.  0.
<mgrwt>
<rscale>  0 0.17985192E+03</rscale>
<asrwt>0</asrwt>
<pdfrwt beam="2">  1        1 0.18602142E+00 0.18546726E+03</pdfrwt>
<pdfrwt beam="1">  1       -1 0.42963357E-02 0.18546726E+03</pdfrwt>
<totfact> 0.24835467E+03</totfact>
</mgrwt>
</event>
<event>
 8    3  0.1560846E-003  0.1270193E+03  0.7818608E-02  0.1262266E+00
         -1   -1    0    0    0  501 -0.00000000000E+00  0.00000000000E+00  0.76176885727E+01  0.76176902399E+01  0.50400000000E-02 0.  1.
          1   -1    0    0  501    0  0.00000000000E+00 -0.00000000000E+00 -0.12860536949E+04  0.12860536949E+04  0.50400000000E-02 0. -1.
         25    2    1    2    0    0 -0.21466565874E+02  0.66305018957E+01 -0.90844898795E+03  0.91728591819E+03  0.12501645891E+03 0.  0.
         23    2    1    2    0    0  0.21466565874E+02 -0.66305018957E+01 -0.36998701841E+03  0.37638546700E+03  0.65351732684E+02 0.  0.
        -13    1    4    4    0    0 -0.11658410420E+02 -0.70801621865E+01 -0.16763710405E+02  0.21612042492E+02  0.10566000000E+00 0.  1.
         13    1    4    4    0    0  0.33124976294E+02  0.44966029080E+00 -0.35322330801E+03  0.35477342450E+03  0.10566000000E+00 0. -1.
    9000005    1    3    3    0    0 -0.76937416811E+01 -0.59045298500E+02 -0.39308447587E+03  0.39757005182E+03  0.10000000000E+01 0.  0.
    9000005    1    3    3    0    0 -0.13772824193E+02  0.65675800395E+02 -0.51536451207E+03  0.51971586636E+03  0.10000000000E+01 0.  0.
<mgrwt>
<rscale>  0 0.10908900E+03</rscale>
<asrwt>0</asrwt>
<pdfrwt beam="2">  1        1 0.19785424E+00 0.12701926E+03</pdfrwt>
<pdfrwt beam="1">  1       -1 0.11719532E-02 0.12701926E+03</pdfrwt>
<totfact> 0.14319566E+04</totfact>
</mgrwt>
</event>
<event>
 8    3  0.1560846E-003  0.1265645E+03  0.7818608E-02  0.1244113E+00
         -1   -1    0    0    0  501 -0.00000000000E+00  0.00000000000E+00  0.16571938615E+02  0.16571939381E+02  0.50400000000E-02 0.  1.
          1   -1    0    0  501    0  0.00000000000E+00 -0.00000000000E+00 -0.98268155902E+03  0.98268155903E+03  0.50400000000E-02 0. -1.
         25    2    1    2    0    0  0.15413735199E+02  0.12496335550E+02 -0.75542223929E+03  0.76595125612E+03  0.12499930202E+03 0.  0.
         23    2    1    2    0    0 -0.15413735199E+02 -0.12496335550E+02 -0.21068738112E+03  0.23330224229E+03  0.98219255050E+02 0.  0.
        -13    1    4    4    0    0  0.36224169387E+02 -0.24968773075E+02 -0.12464579751E+03  0.13218251049E+03  0.10566000000E+00 0. -1.
         13    1    4    4    0    0 -0.51637904586E+02  0.12472437525E+02 -0.86041583604E+02  0.10111973181E+03  0.10566000000E+00 0.  1.
    9000005    1    3    3    0    0  0.53670165912E+02 -0.34120300830E+02 -0.46520294066E+03  0.46953110401E+03  0.10000000000E+01 0.  0.
    9000005    1    3    3    0    0 -0.38256430712E+02  0.46616636380E+02 -0.29021929863E+03  0.29642015211E+03  0.10000000000E+01 0.  0.
<mgrwt>
<rscale>  0 0.11938636E+03</rscale>
<asrwt>0</asrwt>
<pdfrwt beam="2">  1        1 0.15118173E+00 0.12656448E+03</pdfrwt>
<pdfrwt beam="1">  1       -1 0.25495298E-02 0.12656448E+03</pdfrwt>
<totfact> 0.76308688E+03</totfact>
</mgrwt>
</event>
<event>
 8    3  0.1560846E-003  0.1366004E+03  0.7818608E-02  0.1230774E+00
         -1   -1    0    0    0  501 -0.00000000000E+00  0.00000000000E+00  0.60444937126E+03  0.60444937128E+03  0.50400000000E-02 0.  1.
          1   -1    0    0  501    0  0.00000000000E+00 -0.00000000000E+00 -0.25831327408E+02  0.25831327900E+02  0.50400000000E-02 0. -1.
         25    2    1    2    0    0  0.51887936338E+02 -0.18596974436E+02  0.40674628441E+03  0.42907133080E+03  0.12498584573E+03 0.  0.
         23    2    1    2    0    0 -0.51887936338E+02  0.18596974436E+02  0.17187175944E+03  0.20120936838E+03  0.88921891775E+02 0.  0.
        -13    1    4    4    0    0 -0.34439130180E+02  0.27831381797E+02  0.20920517015E+02  0.48972632117E+02  0.10566000000E+00 0. -1.
         13    1    4    4    0    0 -0.17448806159E+02 -0.92344073609E+01  0.15095124242E+03  0.15223673627E+03  0.10566000000E+00 0.  1.
    9000005    1    3    3    0    0  0.90837196110E+02 -0.12525039338E+02  0.22257153506E+03  0.24072258105E+03  0.10000000000E+01 0.  0.
    9000005    1    3    3    0    0 -0.38949259772E+02 -0.60719350981E+01  0.18417474936E+03  0.18834874975E+03  0.10000000000E+01 0.  0.
<mgrwt>
<rscale>  0 0.12778870E+03</rscale>
<asrwt>0</asrwt>
<pdfrwt beam="2">  1        1 0.39740509E-02 0.13660039E+03</pdfrwt>
<pdfrwt beam="1">  1       -1 0.92992200E-01 0.13660039E+03</pdfrwt>
<totfact> 0.26243486E+03</totfact>
</mgrwt>
</event>
<event>
 8    3  0.1560846E-003  0.1376717E+03  0.7818608E-02  0.1228006E+00
         -1   -1    0    0    0  501 -0.00000000000E+00  0.00000000000E+00  0.55010403871E+02  0.55010404102E+02  0.50400000000E-02 0.  1.
          1   -1    0    0  501    0  0.00000000000E+00 -0.00000000000E+00 -0.45467194234E+03  0.45467194237E+03  0.50400000000E-02 0. -1.
         25    2    1    2    0    0  0.44687904575E+02  0.36478972302E+02 -0.37390550854E+03  0.39844551827E+03  0.12500310987E+03 0.  0.
         23    2    1    2    0    0 -0.44687904575E+02 -0.36478972302E+02 -0.25756029926E+02  0.11123682820E+03  0.91556182938E+02 0.  0.
        -13    1    4    4    0    0  0.56643272492E+01  0.12125390601E+02  0.22534384740E+02  0.26209146496E+02  0.10566000000E+00 0.  1.
         13    1    4    4    0    0 -0.50352231824E+02 -0.48604362902E+02 -0.48290414666E+02  0.85027681701E+02  0.10566000000E+00 0. -1.
    9000005    1    3    3    0    0  0.29395202753E+02  0.83221529202E+02 -0.25060091240E+03  0.26569102011E+03  0.10000000000E+01 0.  0.
    9000005    1    3    3    0    0  0.15292701821E+02 -0.46742556900E+02 -0.12330459614E+03  0.13275449817E+03  0.10000000000E+01 0.  0.
<mgrwt>
<rscale>  0 0.12962965E+03</rscale>
<asrwt>0</asrwt>
<pdfrwt beam="2">  1        1 0.69949527E-01 0.13767172E+03</pdfrwt>
<pdfrwt beam="1">  1       -1 0.84631394E-02 0.13767172E+03</pdfrwt>
<totfact> 0.39176279E+03</totfact>
</mgrwt>
</event>
<event>
 8    3  0.1560846E-003  0.1343448E+03  0.7818608E-02  0.1233726E+00
          1   -1    0    0  501    0  0.00000000000E+00  0.00000000000E+00  0.19684513211E+02  0.19684513856E+02  0.50400000000E-02 0. -1.
         -1   -1    0    0    0  501 -0.00000000000E+00 -0.00000000000E+00 -0.72793436255E+03  0.72793436257E+03  0.50400000000E-02 0.  1.
         25    2    1    2    0    0  0.19868593254E+02  0.45044826669E+02 -0.35713925949E+03  0.38157172138E+03  0.12499892191E+03 0.  0.
         23    2    1    2    0    0 -0.19868593254E+02 -0.45044826669E+02 -0.35111058985E+03  0.36604715505E+03  0.91038870851E+02 0.  0.
        -13    1    4    4    0    0 -0.17147181800E+02 -0.29254197370E+02 -0.32289604696E+02  0.46823750842E+02  0.10566000000E+00 0. -1.
         13    1    4    4    0    0 -0.27214114541E+01 -0.15790629299E+02 -0.31882098515E+03  0.31922340421E+03  0.10566000000E+00 0.  1.
    9000005    1    3    3    0    0 -0.18295756100E+02  0.15486872497E+02 -0.30251392627E+01  0.24181178189E+02  0.10000000000E+01 0.  0.
    9000005    1    3    3    0    0  0.38164349355E+02  0.29557954172E+02 -0.35411412023E+03  0.35739054319E+03  0.10000000000E+01 0.  0.
<mgrwt>
<rscale>  0 0.12586322E+03</rscale>
<asrwt>0</asrwt>
<pdfrwt beam="1">  1        1 0.30283873E-02 0.13434481E+03</pdfrwt>
<pdfrwt beam="2">  1       -1 0.11198988E+00 0.13434481E+03</pdfrwt>
<totfact> 0.25278510E+03</totfact>
</mgrwt>
</event>
<event>
 8    3  0.1560846E-003  0.1558958E+03  0.7818608E-02  0.1200161E+00
         -1   -1    0    0    0  501 -0.00000000000E+00  0.00000000000E+00  0.17541554834E+03  0.17541554841E+03  0.50400000000E-02 0.  1.
          1   -1    0    0  501    0  0.00000000000E+00 -0.00000000000E+00 -0.12114605385E+03  0.12114605396E+03  0.50400000000E-02 0. -1.
         25    2    1    2    0    0 -0.62770040808E+02  0.68833201699E+02  0.42131805240E+02  0.16148866044E+03  0.12500164302E+03 0.  0.
         23    2    1    2    0    0  0.62770040808E+02 -0.68833201699E+02  0.12137689250E+02  0.13507294193E+03  0.97053018821E+02 0.  0.
        -13    1    4    4    0    0  0.78441907406E+01 -0.42794519931E+02  0.47770102349E+02  0.64613435964E+02  0.10566000000E+00 0.  1.
         13    1    4    4    0    0  0.54925850067E+02 -0.26038681767E+02 -0.35632413099E+02  0.70459505967E+02  0.10566000000E+00 0. -1.
    9000005    1    3    3    0    0 -0.86857379665E+02  0.89068105859E+02  0.32917926206E+02  0.12869313016E+03  0.10000000000E+01 0.  0.
    9000005    1    3    3    0    0  0.24087338857E+02 -0.20234904160E+02  0.92138790339E+01  0.32795530282E+02  0.10000000000E+01 0.  0.
<mgrwt>
<rscale>  0 0.15025459E+03</rscale>
<asrwt>0</asrwt>
<pdfrwt beam="2">  1        1 0.18637855E-01 0.15589579E+03</pdfrwt>
<pdfrwt beam="1">  1       -1 0.26987007E-01 0.15589579E+03</pdfrwt>
<totfact> 0.33251655E+03</totfact>
</mgrwt>
</event>
<event>
 8    3  0.1560846E-003  0.1441529E+03  0.7818608E-02  0.1218162E+00
         -1   -1    0    0    0  501 -0.00000000000E+00  0.00000000000E+00  0.58649132697E+02  0.58649132914E+02  0.50400000000E-02 0.  1.
          1   -1    0    0  501    0  0.00000000000E+00 -0.00000000000E+00 -0.32922717722E+03  0.32922717726E+03  0.50400000000E-02 0. -1.
         25    2    1    2    0    0 -0.38568843519E+02  0.60553379491E+02 -0.21646068774E+03  0.26006785676E+03  0.12500317326E+03 0.  0.
         23    2    1    2    0    0  0.38568843519E+02 -0.60553379491E+02 -0.54117356792E+02  0.12780845342E+03  0.90840767288E+02 0.  0.
        -13    1    4    4    0    0 -0.14334120223E+02  0.15993755702E+02 -0.17901434983E+02  0.27959609484E+02  0.10566000000E+00 0. -1.
         13    1    4    4    0    0  0.52902963742E+02 -0.76547135193E+02 -0.36215921810E+02  0.99848843937E+02  0.10566000000E+00 0.  1.
    9000005    1    3    3    0    0 -0.11912713618E+02  0.37864397430E+02 -0.22119458419E+03  0.22473021473E+03  0.10000000000E+01 0.  0.
    9000005    1    3    3    0    0 -0.26656129901E+02  0.22688982061E+02  0.47338964535E+01  0.35337642025E+02  0.10000000000E+01 0.  0.
<mgrwt>
<rscale>  0 0.13646812E+03</rscale>
<asrwt>0</asrwt>
<pdfrwt beam="2">  1        1 0.50650334E-01 0.14415291E+03</pdfrwt>
<pdfrwt beam="1">  1       -1 0.90229437E-02 0.14415291E+03</pdfrwt>
<totfact> 0.53525728E+03</totfact>
</mgrwt>
</event>
<event>
 8    3  0.1560846E-003  0.2443807E+03  0.7818608E-02  0.1119798E+00
          1   -1    0    0  501    0  0.00000000000E+00  0.00000000000E+00  0.31090972772E+03  0.31090972776E+03  0.50400000000E-02 0. -1.
         -1   -1    0    0    0  501 -0.00000000000E+00 -0.00000000000E+00 -0.32307719111E+03  0.32307719115E+03  0.50400000000E-02 0.  1.
         25    2    1    2    0    0  0.11658197643E+03  0.17465564034E+03  0.20548335032E+03  0.31928876974E+03  0.12500384510E+03 0.  0.
         23    2    1    2    0    0 -0.11658197643E+03 -0.17465564034E+03 -0.21765081371E+03  0.31469814917E+03  0.86989070866E+02 0.  0.
        -13    1    4    4    0    0 -0.83995813277E+02 -0.89920429171E+02 -0.70552285401E+02  0.14184010847E+03  0.10566000000E+00 0. -1.
         13    1    4    4    0    0 -0.32586163155E+02 -0.84735211173E+02 -0.14709852831E+03  0.17285804070E+03  0.10566000000E+00 0.  1.
    9000005    1    3    3    0    0  0.31779345321E+02  0.64185093557E+02  0.15570375302E+03  0.17138935710E+03  0.10000000000E+01 0.  0.
    9000005    1    3    3    0    0  0.84802631111E+02  0.11047054679E+03  0.49779597299E+02  0.14789941264E+03  0.10000000000E+01 0.  0.
<mgrwt>
<rscale>  0 0.23999248E+03</rscale>
<asrwt>0</asrwt>
<pdfrwt beam="1">  1        1 0.47832266E-01 0.24438067E+03</pdfrwt>
<pdfrwt beam="2">  1       -1 0.49704183E-01 0.24438067E+03</pdfrwt>
<totfact> 0.35058758E+02</totfact>
</mgrwt>
</event>
<event>
 8    3  0.1560846E-003  0.1368875E+03  0.7818608E-02  0.1228971E+00
          1   -1    0    0  501    0  0.00000000000E+00  0.00000000000E+00  0.16234015132E+04  0.16234015132E+04  0.50400000000E-02 0. -1.
         -1   -1    0    0    0  501 -0.00000000000E+00 -0.00000000000E+00 -0.93465156837E+01  0.93465170426E+01  0.50400000000E-02 0.  1.
         25    2    1    2    0    0  0.36749382813E+02 -0.41986893361E+02  0.99254378304E+03  0.10019387982E+04  0.12499911056E+03 0.  0.
         23    2    1    2    0    0 -0.36749382813E+02  0.41986893361E+02  0.62151121450E+03  0.63080923212E+03  0.92361687019E+02 0.  0.
        -13    1    4    4    0    0 -0.16261472799E+01 -0.11038365394E+02  0.40488923234E+03  0.40504295019E+03  0.10566000000E+00 0. -1.
         13    1    4    4    0    0 -0.35123235533E+02  0.53025258756E+02  0.21662198216E+03  0.22576628193E+03  0.10566000000E+00 0.  1.
    9000005    1    3    3    0    0 -0.12519204395E+02  0.17985073813E+02  0.35350948587E+02  0.41603881126E+02  0.10000000000E+01 0.  0.
    9000005    1    3    3    0    0  0.49268587208E+02 -0.59971967175E+02  0.95719283446E+03  0.96033491703E+03  0.10000000000E+01 0.  0.
<mgrwt>
<rscale>  0 0.12898409E+03</rscale>
<asrwt>0</asrwt>
<pdfrwt beam="1">  1        1 0.24975404E+00 0.13688752E+03</pdfrwt>
<pdfrwt beam="2">  1       -1 0.14379258E-02 0.13688752E+03</pdfrwt>
<totfact> 0.64625915E+03</totfact>
</mgrwt>
</event>
<event>
 8    3  0.1560846E-003  0.1635221E+03  0.7818608E-02  0.1191670E+00
          1   -1    0    0  501    0  0.00000000000E+00  0.00000000000E+00  0.18423843656E+02  0.18423844346E+02  0.50400000000E-02 0. -1.
         -1   -1    0    0    0  501 -0.00000000000E+00 -0.00000000000E+00 -0.13140098438E+04  0.13140098438E+04  0.50400000000E-02 0.  1.
         25    2    1    2    0    0  0.10210774378E+03 -0.26225605550E+02 -0.83802853568E+03  0.85383329586E+03  0.12500278703E+03 0.  0.
         23    2    1    2    0    0 -0.10210774378E+03  0.26225605550E+02 -0.45755746444E+03  0.47860039228E+03  0.92659206234E+02 0.  0.
        -13    1    4    4    0    0 -0.46076791915E+01 -0.24086481001E+01  0.36354416826E+01  0.63450684366E+01  0.10566000000E+00 0. -1.
         13    1    4    4    0    0 -0.97500064586E+02  0.28634253650E+02 -0.46119290613E+03  0.47225532385E+03  0.10566000000E+00 0.  1.
    9000005    1    3    3    0    0  0.71369988363E+02 -0.55752018092E+02 -0.28232697218E+03  0.29649870485E+03  0.10000000000E+01 0.  0.
    9000005    1    3    3    0    0  0.30737755415E+02  0.29526412542E+02 -0.55570156351E+03  0.55733459100E+03  0.10000000000E+01 0.  0.
<mgrwt>
<rscale>  0 0.15739438E+03</rscale>
<asrwt>0</asrwt>
<pdfrwt beam="1">  1        1 0.28344386E-02 0.16352208E+03</pdfrwt>
<pdfrwt beam="2">  1       -1 0.20215529E+00 0.16352208E+03</pdfrwt>
<totfact> 0.59263832E+02</totfact>
</mgrwt>
</event>
<event>
 8    3  0.1560846E-003  0.1354788E+03  0.7818608E-02  0.1232739E+00
         -1   -1    0    0    0  501 -0.00000000000E+00  0.00000000000E+00  0.27809744614E+02  0.27809745070E+02  0.50400000000E-02 0.  1.
          1   -1    0    0  501    0  0.00000000000E+00 -0.00000000000E+00 -0.51141615195E+03  0.51141615197E+03  0.50400000000E-02 0. -1.
         25    2    1    2    0    0  0.16330565458E+02 -0.49626553105E+02 -0.26943998493E+03  0.30158315770E+03  0.12500005356E+03 0.  0.
         23    2    1    2    0    0 -0.16330565458E+02  0.49626553105E+02 -0.21416642241E+03  0.23764273934E+03  0.88754340365E+02 0.  0.
        -13    1    4    4    0    0 -0.45327331303E+02  0.38294107154E+02 -0.78238635371E+02  0.98195217982E+02  0.10566000000E+00 0.  1.
         13    1    4    4    0    0  0.28996765845E+02  0.11332445951E+02 -0.13592778704E+03  0.13944752136E+03  0.10566000000E+00 0. -1.
    9000005    1    3    3    0    0  0.62663240364E+02 -0.51816991060E+02 -0.11884027739E+03  0.14399893675E+03  0.10000000000E+01 0.  0.
    9000005    1    3    3    0    0 -0.46332674906E+02  0.21904379548E+01 -0.15059970753E+03  0.15758422095E+03  0.10000000000E+01 0.  0.
<mgrwt>
<rscale>  0 0.12650321E+03</rscale>
<asrwt>0</asrwt>
<pdfrwt beam="2">  1        1 0.78679401E-01 0.13547876E+03</pdfrwt>
<pdfrwt beam="1">  1       -1 0.42784227E-02 0.13547876E+03</pdfrwt>
<totfact> 0.92913680E+03</totfact>
</mgrwt>
</event>
<event>
 8    3  0.1560846E-003  0.1842587E+03  0.7818608E-02  0.1168819E+00
          1   -1    0    0  501    0  0.00000000000E+00  0.00000000000E+00  0.55375229926E+03  0.55375229928E+03  0.50400000000E-02 0. -1.
         -1   -1    0    0    0  501 -0.00000000000E+00 -0.00000000000E+00 -0.58709593923E+02  0.58709594139E+02  0.50400000000E-02 0.  1.
         25    2    1    2    0    0  0.66034545206E+02 -0.11817641893E+03  0.34052033133E+03  0.38717614735E+03  0.12500018352E+03 0.  0.
         23    2    1    2    0    0 -0.66034545206E+02  0.11817641893E+03  0.15452237401E+03  0.22528574607E+03  0.92467703341E+02 0.  0.
        -13    1    4    4    0    0 -0.32137654877E+02  0.82152514428E+02  0.33179703805E+02  0.94248439756E+02  0.10566000000E+00 0.  1.
         13    1    4    4    0    0 -0.33896890329E+02  0.36023904499E+02  0.12134267020E+03  0.13103730631E+03  0.10566000000E+00 0. -1.
    9000005    1    3    3    0    0  0.44763968522E+02  0.87400642918E+01  0.15365535601E+03  0.16028465314E+03  0.10000000000E+01 0.  0.
    9000005    1    3    3    0    0  0.21270576684E+02 -0.12691648322E+03  0.18686497531E+03  0.22689149421E+03  0.10000000000E+01 0.  0.
<mgrwt>
<rscale>  0 0.17895450E+03</rscale>
<asrwt>0</asrwt>
<pdfrwt beam="1">  1        1 0.85192662E-01 0.18425871E+03</pdfrwt>
<pdfrwt beam="2">  1       -1 0.90322452E-02 0.18425871E+03</pdfrwt>
<totfact> 0.27695327E+03</totfact>
</mgrwt>
</event>
<event>
 8    3  0.1560846E-003  0.1818581E+03  0.7818608E-02  0.1171634E+00
         -1   -1    0    0    0  501 -0.00000000000E+00  0.00000000000E+00  0.48981701995E+03  0.48981701998E+03  0.50400000000E-02 0.  1.
          1   -1    0    0  501    0  0.00000000000E+00 -0.00000000000E+00 -0.71119965110E+02  0.71119965288E+02  0.50400000000E-02 0. -1.
         25    2    1    2    0    0 -0.12287775773E+03  0.48465818690E+02  0.10798908018E+03  0.21150415787E+03  0.12499795372E+03 0.  0.
         23    2    1    2    0    0  0.12287775773E+03 -0.48465818690E+02  0.31070797466E+03  0.34943282739E+03  0.90088714159E+02 0.  0.
        -13    1    4    4    0    0  0.69181628370E+02 -0.64063504912E+01  0.67599722669E+02  0.96937467986E+02  0.10566000000E+00 0. -1.
         13    1    4    4    0    0  0.53696129355E+02 -0.42059468199E+02  0.24310825199E+03  0.25249535941E+03  0.10566000000E+00 0.  1.
    9000005    1    3    3    0    0 -0.59366523504E+02  0.80921357691E+02  0.27728849847E+02  0.10412751489E+03  0.10000000000E+01 0.  0.
    9000005    1    3    3    0    0 -0.63511234221E+02 -0.32455539001E+02  0.80260230335E+02  0.10737664298E+03  0.10000000000E+01 0.  0.
<mgrwt>
<rscale>  0 0.17609733E+03</rscale>
<asrwt>0</asrwt>
<pdfrwt beam="2">  1        1 0.10941533E-01 0.18185810E+03</pdfrwt>
<pdfrwt beam="1">  1       -1 0.75356464E-01 0.18185810E+03</pdfrwt>
<totfact> 0.10403216E+03</totfact>
</mgrwt>
</event>
<event>
 8    3  0.1560846E-003  0.1306233E+03  0.7818608E-02  0.1241085E+00
         -1   -1    0    0    0  501 -0.00000000000E+00  0.00000000000E+00  0.34386810512E+03  0.34386810516E+03  0.50400000000E-02 0.  1.
          1   -1    0    0  501    0  0.00000000000E+00 -0.00000000000E+00 -0.45579520021E+02  0.45579520300E+02  0.50400000000E-02 0. -1.
         25    2    1    2    0    0 -0.34439324921E+02 -0.15814689302E+02  0.86852627996E+02  0.15686247809E+03  0.12500514607E+03 0.  0.
         23    2    1    2    0    0  0.34439324921E+02  0.15814689302E+02  0.21143595711E+03  0.23258514737E+03  0.89188089573E+02 0.  0.
        -13    1    4    4    0    0  0.83801510067E+01 -0.36936150332E+02  0.75716018684E+02  0.84660692069E+02  0.10566000000E+00 0.  1.
         13    1    4    4    0    0  0.26059173915E+02  0.52750839634E+02  0.13571993842E+03  0.14792445530E+03  0.10566000000E+00 0. -1.
    9000005    1    3    3    0    0 -0.79525205043E+02  0.52989014545E+01  0.63265374571E+02  0.10176366844E+03  0.10000000000E+01 0.  0.
    9000005    1    3    3    0    0  0.45085880122E+02 -0.21113590757E+02  0.23587253425E+02  0.55098809653E+02  0.10000000000E+01 0.  0.
<mgrwt>
<rscale>  0 0.12122795E+03</rscale>
<asrwt>0</asrwt>
<pdfrwt beam="2">  1        1 0.70122341E-02 0.13062334E+03</pdfrwt>
<pdfrwt beam="1">  1       -1 0.52902784E-01 0.13062334E+03</pdfrwt>
<totfact> 0.36882708E+03</totfact>
</mgrwt>
</event>
<event>
 8    3  0.1560846E-003  0.1416272E+03  0.7818608E-02  0.1221887E+00
          1   -1    0    0  501    0  0.00000000000E+00  0.00000000000E+00  0.53431739916E+03  0.53431739918E+03  0.50400000000E-02 0. -1.
         -1   -1    0    0    0  501 -0.00000000000E+00 -0.00000000000E+00 -0.43832981066E+02  0.43832981356E+02  0.50400000000E-02 0.  1.
         25    2    1    2    0    0 -0.56571163014E+02 -0.35072812270E+02  0.10454231007E+03  0.17603224906E+03  0.12501143735E+03 0.  0.
         23    2    1    2    0    0  0.56571163014E+02  0.35072812270E+02  0.38594210803E+03  0.40211813148E+03  0.91199135276E+02 0.  0.
        -13    1    4    4    0    0  0.15748524591E+02  0.59261130173E+02  0.16228623798E+03  0.17348409661E+03  0.10566000000E+00 0. -1.
         13    1    4    4    0    0  0.40822638423E+02 -0.24188317903E+02  0.22365587005E+03  0.22863403487E+03  0.10566000000E+00 0.  1.
    9000005    1    3    3    0    0  0.61192025315E+01 -0.25632685779E+02  0.10931189732E+03  0.11244807742E+03  0.10000000000E+01 0.  0.
    9000005    1    3    3    0    0 -0.62690365545E+02 -0.94401264913E+01 -0.47695872497E+01  0.63584171638E+02  0.10000000000E+01 0.  0.
<mgrwt>
<rscale>  0 0.13382549E+03</rscale>
<asrwt>0</asrwt>
<pdfrwt beam="1">  1        1 0.82202673E-01 0.14162718E+03</pdfrwt>
<pdfrwt beam="2">  1       -1 0.67435359E-02 0.14162718E+03</pdfrwt>
<totfact> 0.44752439E+03</totfact>
</mgrwt>
</event>
<event>
 8    3  0.1560846E-003  0.1255652E+03  0.7818608E-02  0.1249603E+00
         -1   -1    0    0    0  501 -0.00000000000E+00  0.00000000000E+00  0.38237571221E+02  0.38237571553E+02  0.50400000000E-02 0.  1.
          1   -1    0    0  501    0  0.00000000000E+00 -0.00000000000E+00 -0.32455556894E+03  0.32455556898E+03  0.50400000000E-02 0. -1.
         25    2    1    2    0    0 -0.11297393392E+02 -0.37436090496E+01 -0.12526795674E+03  0.17736598302E+03  0.12499994097E+03 0.  0.
         23    2    1    2    0    0  0.11297393392E+02  0.37436090496E+01 -0.16105004099E+03  0.18542715752E+03  0.91128861159E+02 0.  0.
        -13    1    4    4    0    0  0.36232111551E+02 -0.31487519702E+02 -0.73022719345E+02  0.87387404750E+02  0.10566000000E+00 0. -1.
         13    1    4    4    0    0 -0.24934718159E+02  0.35231128751E+02 -0.88027321643E+02  0.98039752766E+02  0.10566000000E+00 0.  1.
    9000005    1    3    3    0    0  0.27993842130E+02 -0.49729887787E+01 -0.13408206563E+03  0.13706708627E+03  0.10000000000E+01 0.  0.
    9000005    1    3    3    0    0 -0.39291235522E+02  0.12293797291E+01  0.88141088989E+01  0.40298896747E+02  0.10000000000E+01 0.  0.
<mgrwt>
<rscale>  0 0.11614064E+03</rscale>
<asrwt>0</asrwt>
<pdfrwt beam="2">  1        1 0.49931624E-01 0.12556525E+03</pdfrwt>
<pdfrwt beam="1">  1       -1 0.58827035E-02 0.12556525E+03</pdfrwt>
<totfact> 0.10262937E+04</totfact>
</mgrwt>
</event>
<event>
 8    3  0.1560846E-003  0.1453433E+03  0.7818608E-02  0.1206701E+00
         -1   -1    0    0    0  501 -0.00000000000E+00  0.00000000000E+00  0.11363369310E+03  0.11363369321E+03  0.50400000000E-02 0. -1.
          1   -1    0    0  501    0  0.00000000000E+00 -0.00000000000E+00 -0.18787367983E+03  0.18787367990E+03  0.50400000000E-02 0.  1.
         25    2    1    2    0    0 -0.92452784862E+01  0.73536673599E+02 -0.57859964511E+02  0.15643676852E+03  0.12502627529E+03 0.  0.
         23    2    1    2    0    0  0.92452784862E+01 -0.73536673599E+02 -0.16380022221E+02  0.14507060458E+03  0.12362870883E+03 0.  0.
        -13    1    4    4    0    0 -0.20905871792E+02  0.25166728842E+02 -0.25473538607E+02  0.41464829063E+02  0.10566000000E+00 0.  1.
         13    1    4    4    0    0  0.30151150278E+02 -0.98703402441E+02  0.90935163860E+01  0.10360577552E+03  0.10566000000E+00 0. -1.
    9000005    1    3    3    0    0 -0.58041780359E+01  0.84775220217E+02 -0.89049696924E+02  0.12309092155E+03  0.10000000000E+01 0.  0.
    9000005    1    3    3    0    0 -0.34411004503E+01 -0.11238546618E+02  0.31189732412E+02  0.33345846973E+02  0.10000000000E+01 0.  0.
<mgrwt>
<rscale>  0 0.14504230E+03</rscale>
<asrwt>0</asrwt>
<pdfrwt beam="2">  1        1 0.28903643E-01 0.14534334E+03</pdfrwt>
<pdfrwt beam="1">  1       -1 0.17482107E-01 0.14534334E+03</pdfrwt>
<totfact> 0.38504106E+03</totfact>
</mgrwt>
</event>
<event>
 8    3  0.1560846E-003  0.6237340E+03  0.7818608E-02  0.9860445E-01
          1   -1    0    0  501    0  0.00000000000E+00  0.00000000000E+00  0.61658225947E+03  0.61658225950E+03  0.50400000000E-02 0. -1.
         -1   -1    0    0    0  501 -0.00000000000E+00 -0.00000000000E+00 -0.66130069773E+03  0.66130069775E+03  0.50400000000E-02 0.  1.
         25    2    1    2    0    0  0.46384422712E+03 -0.39782791271E+03 -0.17280410038E+03  0.64722893996E+03  0.12500211379E+03 0.  0.
         23    2    1    2    0    0 -0.46384422712E+03  0.39782791271E+03  0.12808566213E+03  0.63065401728E+03  0.88882155182E+02 0.  0.
        -13    1    4    4    0    0 -0.30757689572E+03  0.20904845320E+03  0.64153579019E+02  0.37738640070E+03  0.10566000000E+00 0.  1.
         13    1    4    4    0    0 -0.15626733139E+03  0.18877945952E+03  0.63932083108E+02  0.25326761659E+03  0.10566000000E+00 0. -1.
    9000005    1    3    3    0    0  0.38281200734E+01 -0.20746831708E+01 -0.21318581087E+02  0.21781660018E+02  0.10000000000E+01 0.  0.
    9000005    1    3    3    0    0  0.46001610704E+03 -0.39575322954E+03 -0.15148551930E+03  0.62544727994E+03  0.10000000000E+01 0.  0.
<mgrwt>
<rscale>  0 0.62217210E+03</rscale>
<asrwt>0</asrwt>
<pdfrwt beam="1">  1        1 0.94858809E-01 0.62373395E+03</pdfrwt>
<pdfrwt beam="2">  1       -1 0.10173857E+00 0.62373395E+03</pdfrwt>
<totfact> 0.31314752E+01</totfact>
</mgrwt>
</event>
<event>
 8    3  0.1560846E-003  0.1461492E+03  0.7818608E-02  0.1215698E+00
          1   -1    0    0  501    0  0.00000000000E+00  0.00000000000E+00  0.16024444370E+04  0.16024444370E+04  0.50400000000E-02 0. -1.
         -1   -1    0    0    0  501 -0.00000000000E+00 -0.00000000000E+00 -0.12234592292E+02  0.12234593330E+02  0.50400000000E-02 0.  1.
         25    2    1    2    0    0  0.75273017340E+02 -0.82964394844E+01  0.11471297901E+04  0.11564023333E+04  0.12499897216E+03 0.  0.
         23    2    1    2    0    0 -0.75273017340E+02  0.82964394844E+01  0.44308005458E+03  0.45827669702E+03  0.89234176322E+02 0.  0.
        -13    1    4    4    0    0 -0.29372349985E+02  0.34051746816E+02  0.33562015281E+03  0.33861948341E+03  0.10566000000E+00 0. -1.
         13    1    4    4    0    0 -0.45900667355E+02 -0.25755307332E+02  0.10745990177E+03  0.11965721362E+03  0.10566000000E+00 0.  1.
    9000005    1    3    3    0    0  0.10022590179E+03  0.26066250553E+02  0.83309589880E+03  0.83950846178E+03  0.10000000000E+01 0.  0.
    9000005    1    3    3    0    0 -0.24952884455E+02 -0.34362690037E+02  0.31403389131E+03  0.31689387151E+03  0.10000000000E+01 0.  0.
<mgrwt>
<rscale>  0 0.13825408E+03</rscale>
<asrwt>0</asrwt>
<pdfrwt beam="1">  1        1 0.24652987E+00 0.14614924E+03</pdfrwt>
<pdfrwt beam="2">  1       -1 0.18822454E-02 0.14614924E+03</pdfrwt>
<totfact> 0.45339889E+03</totfact>
</mgrwt>
</event>
<event>
 8    3  0.1560846E-003  0.1720407E+03  0.7818608E-02  0.1178432E+00
          1   -1    0    0  501    0  0.00000000000E+00  0.00000000000E+00  0.33321399270E+03  0.33321399273E+03  0.50400000000E-02 0. -1.
         -1   -1    0    0    0  501 -0.00000000000E+00 -0.00000000000E+00 -0.10413853481E+03  0.10413853493E+03  0.50400000000E-02 0.  1.
         25    2    1    2    0    0  0.64942680352E+02  0.98767728081E+02  0.21428832780E+03  0.27480447919E+03  0.12500159403E+03 0.  0.
         23    2    1    2    0    0 -0.64942680352E+02 -0.98767728081E+02  0.14787130095E+02  0.16254804847E+03  0.11059201149E+03 0.  0.
        -13    1    4    4    0    0 -0.36092040373E+02 -0.10025448918E+03 -0.28689844784E+02  0.11034815964E+03  0.10566000000E+00 0.  1.
         13    1    4    4    0    0 -0.28850639979E+02  0.14867610950E+01  0.43476974878E+02  0.52199888835E+02  0.10566000000E+00 0. -1.
    9000005    1    3    3    0    0 -0.37303854698E+02  0.17069340232E+02  0.46793489888E+02  0.62238016093E+02  0.10000000000E+01 0.  0.
    9000005    1    3    3    0    0  0.10224653505E+03  0.81698387848E+02  0.16749483791E+03  0.21256646309E+03  0.10000000000E+01 0.  0.
<mgrwt>
<rscale>  0 0.16944072E+03</rscale>
<asrwt>0</asrwt>
<pdfrwt beam="1">  1        1 0.51263691E-01 0.17204073E+03</pdfrwt>
<pdfrwt beam="2">  1       -1 0.16021313E-01 0.17204073E+03</pdfrwt>
<totfact> 0.21822800E+03</totfact>
</mgrwt>
</event>
<event>
 8    3  0.1560846E-003  0.1303291E+03  0.7818608E-02  0.1240589E+00
          1   -1    0    0  501    0  0.00000000000E+00  0.00000000000E+00  0.11809091414E+03  0.11809091424E+03  0.50400000000E-02 0. -1.
         -1   -1    0    0    0  501 -0.00000000000E+00 -0.00000000000E+00 -0.23692973517E+03  0.23692973523E+03  0.50400000000E-02 0.  1.
         25    2    1    2    0    0  0.25167639745E+02 -0.26971004031E+02  0.65597493055E+02  0.14590653577E+03  0.12499936375E+03 0.  0.
         23    2    1    2    0    0 -0.25167639745E+02  0.26971004031E+02 -0.18443631409E+03  0.20911411370E+03  0.91384426702E+02 0.  0.
        -13    1    4    4    0    0 -0.62941264753E+01  0.11520875604E+02  0.78437391740E+01  0.15293201464E+02  0.10566000000E+00 0. -1.
         13    1    4    4    0    0 -0.18873513269E+02  0.15450128427E+02 -0.19228005327E+03  0.19382091223E+03  0.10566000000E+00 0.  1.
    9000005    1    3    3    0    0  0.69005017580E+01 -0.11196470997E+02 -0.37638122417E+02  0.39882403970E+02  0.10000000000E+01 0.  0.
    9000005    1    3    3    0    0  0.18267137987E+02 -0.15774533033E+02  0.10323561547E+03  0.10602413180E+03  0.10000000000E+01 0.  0.
<mgrwt>
<rscale>  0 0.12153308E+03</rscale>
<asrwt>0</asrwt>
<pdfrwt beam="1">  1        1 0.18167833E-01 0.13032915E+03</pdfrwt>
<pdfrwt beam="2">  1       -1 0.36450729E-01 0.13032915E+03</pdfrwt>
<totfact> 0.20489169E+03</totfact>
</mgrwt>
</event>
<event>
 8    3  0.1560846E-003  0.1892586E+03  0.7818608E-02  0.1164200E+00
          1   -1    0    0  501    0  0.00000000000E+00  0.00000000000E+00  0.30813162896E+02  0.30813163308E+02  0.50400000000E-02 0. -1.
         -1   -1    0    0    0  501 -0.00000000000E+00 -0.00000000000E+00 -0.12513438987E+04  0.12513438987E+04  0.50400000000E-02 0.  1.
         25    2    1    2    0    0  0.13985310485E+03 -0.25216048686E+02 -0.90490134377E+03  0.92448107097E+03  0.12499627421E+03 0.  0.
         23    2    1    2    0    0 -0.13985310485E+03  0.25216048686E+02 -0.31562939204E+03  0.35767599106E+03  0.90085855799E+02 0.  0.
        -13    1    4    4    0    0 -0.27306983042E+02 -0.47989325113E+01 -0.81887061346E+01  0.28909637637E+02  0.10566000000E+00 0. -1.
         13    1    4    4    0    0 -0.11254612180E+03  0.30014981197E+02 -0.30744068590E+03  0.32876635342E+03  0.10566000000E+00 0.  1.
    9000005    1    3    3    0    0  0.20860042065E+02  0.23675889495E+02 -0.46718450358E+03  0.46824998610E+03  0.10000000000E+01 0.  0.
    9000005    1    3    3    0    0  0.11899306278E+03 -0.48891938180E+02 -0.43771684020E+03  0.45623108487E+03  0.10000000000E+01 0.  0.
<mgrwt>
<rscale>  0 0.18377420E+03</rscale>
<asrwt>0</asrwt>
<pdfrwt beam="1">  1        1 0.47404876E-02 0.18925858E+03</pdfrwt>
<pdfrwt beam="2">  1       -1 0.19251441E+00 0.18925858E+03</pdfrwt>
<totfact> 0.33675557E+02</totfact>
</mgrwt>
</event>
<event>
 8    3  0.1560846E-003  0.1660758E+03  0.7818608E-02  0.1187845E+00
         -1   -1    0    0    0  501 -0.00000000000E+00  0.00000000000E+00  0.92923217337E+02  0.92923217473E+02  0.50400000000E-02 0.  1.
          1   -1    0    0  501    0  0.00000000000E+00 -0.00000000000E+00 -0.31751360778E+03  0.31751360782E+03  0.50400000000E-02 0. -1.
         25    2    1    2    0    0 -0.52104331333E+02 -0.96133094747E+02 -0.20421206247E+03  0.26321803277E+03  0.12499893228E+03 0.  0.
         23    2    1    2    0    0  0.52104331333E+02  0.96133094747E+02 -0.20378327972E+02  0.14721879252E+03  0.96445131393E+02 0.  0.
        -13    1    4    4    0    0 -0.14629068338E+02  0.54238745847E+02  0.18777219339E+02  0.59232139262E+02  0.10566000000E+00 0. -1.
         13    1    4    4    0    0  0.66733399671E+02  0.41894348900E+02 -0.39155547311E+02  0.87986653253E+02  0.10566000000E+00 0.  1.
    9000005    1    3    3    0    0  0.12009668021E+01  0.29516185943E+02 -0.38145025126E+02  0.48256507289E+02  0.10000000000E+01 0.  0.
    9000005    1    3    3    0    0 -0.53305298135E+02 -0.12564928069E+03 -0.16606703734E+03  0.21496152548E+03  0.10000000000E+01 0.  0.
<mgrwt>
<rscale>  0 0.16075714E+03</rscale>
<asrwt>0</asrwt>
<pdfrwt beam="2">  1        1 0.48848247E-01 0.16607578E+03</pdfrwt>
<pdfrwt beam="1">  1       -1 0.14295880E-01 0.16607578E+03</pdfrwt>
<totfact> 0.27710113E+03</totfact>
</mgrwt>
</event>
<event>
 8    3  0.1560846E-003  0.1808386E+03  0.7818608E-02  0.1172415E+00
          1   -1    0    0  501    0  0.00000000000E+00  0.00000000000E+00  0.20039747710E+03  0.20039747716E+03  0.50400000000E-02 0. -1.
         -1   -1    0    0    0  501 -0.00000000000E+00 -0.00000000000E+00 -0.22238997084E+03  0.22238997089E+03  0.50400000000E-02 0.  1.
         25    2    1    2    0    0 -0.88556245224E+02 -0.96100351183E+02 -0.13622388693E+03  0.22640568313E+03  0.12500039966E+03 0.  0.
         23    2    1    2    0    0  0.88556245224E+02  0.96100351183E+02  0.11423139319E+03  0.19638176492E+03  0.91866753176E+02 0.  0.
        -13    1    4    4    0    0  0.75324276496E+02  0.31757485790E+02  0.24813526824E+02  0.85428372399E+02  0.10566000000E+00 0.  1.
         13    1    4    4    0    0  0.13231968728E+02  0.64342865393E+02  0.89417866366E+02  0.11095339253E+03  0.10566000000E+00 0. -1.
    9000005    1    3    3    0    0 -0.44194101678E+02 -0.10625231525E+03 -0.13941185669E+03  0.18077427612E+03  0.10000000000E+01 0.  0.
    9000005    1    3    3    0    0 -0.44362143546E+02  0.10151964068E+02  0.31879697633E+01  0.45631407009E+02  0.10000000000E+01 0.  0.
<mgrwt>
<rscale>  0 0.17531616E+03</rscale>
<asrwt>0</asrwt>
<pdfrwt beam="1">  1        1 0.30830381E-01 0.18083856E+03</pdfrwt>
<pdfrwt beam="2">  1       -1 0.34213842E-01 0.18083856E+03</pdfrwt>
<totfact> 0.11827165E+03</totfact>
</mgrwt>
</event>
<event>
 8    3  0.1560846E-003  0.1382036E+03  0.7818608E-02  0.1227412E+00
          1   -1    0    0  501    0  0.00000000000E+00  0.00000000000E+00  0.27833697059E+03  0.27833697063E+03  0.50400000000E-02 0. -1.
         -1   -1    0    0    0  501 -0.00000000000E+00 -0.00000000000E+00 -0.58926086866E+02  0.58926087081E+02  0.50400000000E-02 0.  1.
         25    2    1    2    0    0  0.56287712502E+02 -0.17509672433E+02  0.76528251807E+02  0.15797728020E+03  0.12500141011E+03 0.  0.
         23    2    1    2    0    0 -0.56287712502E+02  0.17509672433E+02  0.14288263191E+03  0.17928577751E+03  0.90846289453E+02 0.  0.
        -13    1    4    4    0    0 -0.34666485428E+02  0.27028465565E+01  0.77331240723E+00  0.34780450939E+02  0.10566000000E+00 0.  1.
         13    1    4    4    0    0 -0.21621227075E+02  0.14806825876E+02  0.14210931951E+03  0.14450532657E+03  0.10566000000E+00 0. -1.
    9000005    1    3    3    0    0  0.50647844609E+02  0.22789214066E+02 -0.15228550452E+02  0.57597406106E+02  0.10000000000E+01 0.  0.
    9000005    1    3    3    0    0  0.56398678936E+01 -0.40298886499E+02  0.91756802259E+02  0.10037987410E+03  0.10000000000E+01 0.  0.
<mgrwt>
<rscale>  0 0.13002964E+03</rscale>
<asrwt>0</asrwt>
<pdfrwt beam="1">  1        1 0.42821072E-01 0.13820365E+03</pdfrwt>
<pdfrwt beam="2">  1       -1 0.90655520E-02 0.13820365E+03</pdfrwt>
<totfact> 0.65280929E+03</totfact>
</mgrwt>
</event>
<event>
 8    3  0.1560846E-003  0.1911330E+03  0.7818608E-02  0.1162646E+00
         -1   -1    0    0    0  501 -0.00000000000E+00  0.00000000000E+00  0.27506198698E+03  0.27506198703E+03  0.50400000000E-02 0.  1.
          1   -1    0    0  501    0  0.00000000000E+00 -0.00000000000E+00 -0.12909058007E+03  0.12909058016E+03  0.50400000000E-02 0. -1.
         25    2    1    2    0    0 -0.13613889417E+03  0.48711767031E+02  0.18150284049E+02  0.19199285704E+03  0.12500075836E+03 0.  0.
         23    2    1    2    0    0  0.13613889417E+03 -0.48711767031E+02  0.12782112287E+03  0.21215971015E+03  0.88129838359E+02 0.  0.
        -13    1    4    4    0    0  0.52971388183E+02  0.12020818710E+02  0.84465061215E+02  0.10042323326E+03  0.10566000000E+00 0. -1.
         13    1    4    4    0    0  0.83167505984E+02 -0.60732585741E+02  0.43356061652E+02  0.11173647689E+03  0.10566000000E+00 0.  1.
    9000005    1    3    3    0    0 -0.87035861077E+02  0.74757268526E+02  0.52992281138E+02  0.12638461999E+03  0.10000000000E+01 0.  0.
    9000005    1    3    3    0    0 -0.49103033090E+02 -0.26045501495E+02 -0.34841997089E+02  0.65608237043E+02  0.10000000000E+01 0.  0.
<mgrwt>
<rscale>  0 0.18543293E+03</rscale>
<asrwt>0</asrwt>
<pdfrwt beam="2">  1        1 0.19860089E-01 0.19113300E+03</pdfrwt>
<pdfrwt beam="1">  1       -1 0.42317229E-01 0.19113300E+03</pdfrwt>
<totfact> 0.14248106E+03</totfact>
</mgrwt>
</event>
<event>
 8    3  0.1560846E-003  0.1291495E+03  0.7818608E-02  0.1242667E+00
          1   -1    0    0  501    0  0.00000000000E+00  0.00000000000E+00  0.19396498825E+03  0.19396498831E+03  0.50400000000E-02 0. -1.
         -1   -1    0    0    0  501 -0.00000000000E+00 -0.00000000000E+00 -0.70007678872E+02  0.70007679054E+02  0.50400000000E-02 0.  1.
         25    2    1    2    0    0 -0.22557016325E+02 -0.23367375086E+02  0.38885434395E+02  0.13487645972E+03  0.12499891670E+03 0.  0.
         23    2    1    2    0    0  0.22557016325E+02  0.23367375086E+02  0.85071874977E+02  0.12909620764E+03  0.91508216631E+02 0.  0.
        -13    1    4    4    0    0  0.36449240268E+02  0.12698853999E+02  0.99294588881E+02  0.10653278629E+03  0.10566000000E+00 0. -1.
         13    1    4    4    0    0 -0.13892223943E+02  0.10668521087E+02 -0.14222713904E+02  0.22563421352E+02  0.10566000000E+00 0.  1.
    9000005    1    3    3    0    0 -0.23379052123E+02  0.48975143883E+02  0.36558632542E+01  0.54401379878E+02  0.10000000000E+01 0.  0.
    9000005    1    3    3    0    0  0.82203579811E+00 -0.72342518969E+02  0.35229571141E+02  0.80475079847E+02  0.10000000000E+01 0.  0.
<mgrwt>
<rscale>  0 0.12026116E+03</rscale>
<asrwt>0</asrwt>
<pdfrwt beam="1">  1        1 0.29840767E-01 0.12914946E+03</pdfrwt>
<pdfrwt beam="2">  1       -1 0.10770412E-01 0.12914946E+03</pdfrwt>
<totfact> 0.78129677E+03</totfact>
</mgrwt>
</event>
<event>
 8    3  0.1560846E-003  0.1487112E+03  0.7818608E-02  0.1211222E+00
          1   -1    0    0  501    0  0.00000000000E+00  0.00000000000E+00  0.22257922499E+03  0.22257922505E+03  0.50400000000E-02 0. -1.
         -1   -1    0    0    0  501 -0.00000000000E+00 -0.00000000000E+00 -0.82748864787E+02  0.82748864941E+02  0.50400000000E-02 0.  1.
         25    2    1    2    0    0 -0.77867942365E+02  0.20673586846E+02  0.86418404833E+02  0.17199753050E+03  0.12499678461E+03 0.  0.
         23    2    1    2    0    0  0.77867942365E+02 -0.20673586846E+02  0.53411955369E+02  0.13333055949E+03  0.91833476876E+02 0.  0.
        -13    1    4    4    0    0  0.48820270471E+02  0.19655787134E+02 -0.91614903125E+01  0.53420153926E+02  0.10566000000E+00 0.  1.
         13    1    4    4    0    0  0.29047671894E+02 -0.40329373980E+02  0.62573445682E+02  0.79910405559E+02  0.10566000000E+00 0. -1.
    9000005    1    3    3    0    0  0.27992561459E+02 -0.10556306330E+02  0.45125063642E+02  0.54150627596E+02  0.10000000000E+01 0.  0.
    9000005    1    3    3    0    0 -0.10586050382E+03  0.31229893176E+02  0.41293341192E+02  0.11784690291E+03  0.10000000000E+01 0.  0.
<mgrwt>
<rscale>  0 0.14157744E+03</rscale>
<asrwt>0</asrwt>
<pdfrwt beam="1">  1        1 0.34242958E-01 0.14871116E+03</pdfrwt>
<pdfrwt beam="2">  1       -1 0.12730595E-01 0.14871116E+03</pdfrwt>
<totfact> 0.51364797E+03</totfact>
</mgrwt>
</event>
<event>
 8    3  0.1560846E-003  0.2327605E+03  0.7818608E-02  0.1127795E+00
         -1   -1    0    0    0  501 -0.00000000000E+00  0.00000000000E+00  0.55251707697E+02  0.55251707927E+02  0.50400000000E-02 0.  1.
          1   -1    0    0  501    0  0.00000000000E+00 -0.00000000000E+00 -0.10552333189E+04  0.10552333189E+04  0.50400000000E-02 0. -1.
         25    2    1    2    0    0  0.15930880018E+03  0.11477685077E+03 -0.72234332518E+03  0.75891851513E+03  0.12499765555E+03 0.  0.
         23    2    1    2    0    0 -0.15930880018E+03 -0.11477685077E+03 -0.27763828604E+03  0.35156651172E+03  0.89235503040E+02 0.  0.
        -13    1    4    4    0    0 -0.10985502884E+03 -0.72133678441E+02 -0.24622691162E+03  0.27910409903E+03  0.10566000000E+00 0. -1.
         13    1    4    4    0    0 -0.49453771333E+02 -0.42643172331E+02 -0.31411374418E+02  0.72462412687E+02  0.10566000000E+00 0.  1.
    9000005    1    3    3    0    0 -0.75463399926E+01 -0.16786042277E+01 -0.17178831826E+03  0.17196508730E+03  0.10000000000E+01 0.  0.
    9000005    1    3    3    0    0  0.16685514017E+03  0.11645545500E+03 -0.55055500691E+03  0.58695342783E+03  0.10000000000E+01 0.  0.
<mgrwt>
<rscale>  0 0.22836640E+03</rscale>
<asrwt>0</asrwt>
<pdfrwt beam="2">  1        1 0.16234357E+00 0.23276046E+03</pdfrwt>
<pdfrwt beam="1">  1       -1 0.85002635E-02 0.23276046E+03</pdfrwt>
<totfact> 0.11430245E+03</totfact>
</mgrwt>
</event>
<event>
 8    3  0.1560846E-003  0.1945543E+03  0.7818608E-02  0.1158740E+00
         -1   -1    0    0    0  501 -0.00000000000E+00  0.00000000000E+00  0.16396239620E+03  0.16396239627E+03  0.50400000000E-02 0.  1.
          1   -1    0    0  501    0  0.00000000000E+00 -0.00000000000E+00 -0.37010913644E+03  0.37010913648E+03  0.50400000000E-02 0. -1.
         25    2    1    2    0    0  0.13416299768E+03  0.65011712963E+02 -0.28198788519E+03  0.34259094463E+03  0.12500062073E+03 0.  0.
         23    2    1    2    0    0 -0.13416299768E+03 -0.65011712963E+02  0.75841144939E+02  0.19148058812E+03  0.93202487043E+02 0.  0.
        -13    1    4    4    0    0 -0.41852996349E+02 -0.39344742628E+02  0.76500651598E+02  0.95666310344E+02  0.10566000000E+00 0.  1.
         13    1    4    4    0    0 -0.92310001335E+02 -0.25666970335E+02 -0.65950665859E+00  0.95814277776E+02  0.10566000000E+00 0. -1.
    9000005    1    3    3    0    0  0.96738834494E+02 -0.66804254613E+01 -0.82458309144E+02  0.12729258789E+03  0.10000000000E+01 0.  0.
    9000005    1    3    3    0    0  0.37424163190E+02  0.71692138424E+02 -0.19952957604E+03  0.21529835675E+03  0.10000000000E+01 0.  0.
<mgrwt>
<rscale>  0 0.18969165E+03</rscale>
<asrwt>0</asrwt>
<pdfrwt beam="2">  1        1 0.56939867E-01 0.19455433E+03</pdfrwt>
<pdfrwt beam="1">  1       -1 0.25224984E-01 0.19455433E+03</pdfrwt>
<totfact> 0.91889307E+02</totfact>
</mgrwt>
</event>
<event>
 8    3  0.1560846E-003  0.1459206E+03  0.7818608E-02  0.1215148E+00
          1   -1    0    0  501    0  0.00000000000E+00  0.00000000000E+00  0.98620521149E+02  0.98620521277E+02  0.50400000000E-02 0. -1.
         -1   -1    0    0    0  501 -0.00000000000E+00 -0.00000000000E+00 -0.19236541553E+03  0.19236541560E+03  0.50400000000E-02 0.  1.
         25    2    1    2    0    0 -0.62780234332E+02  0.41550433928E+02 -0.11526326946E+02  0.14637512458E+03  0.12500009800E+03 0.  0.
         23    2    1    2    0    0  0.62780234332E+02 -0.41550433928E+02 -0.82218567436E+02  0.14461081229E+03  0.92111876643E+02 0.  0.
        -13    1    4    4    0    0  0.43416885194E+02  0.61779838158E+01  0.41496824381E+01  0.44050248948E+02  0.10566000000E+00 0.  1.
         13    1    4    4    0    0  0.19363349138E+02 -0.47728417744E+02 -0.86368249874E+02  0.10056056335E+03  0.10566000000E+00 0. -1.
    9000005    1    3    3    0    0 -0.75303493303E+02 -0.17084509545E+02  0.18357471289E+02  0.79375646908E+02  0.10000000000E+01 0.  0.
    9000005    1    3    3    0    0  0.12523258971E+02  0.58634943473E+02 -0.29883798235E+02  0.66999477672E+02  0.10000000000E+01 0.  0.
<mgrwt>
<rscale>  0 0.13865681E+03</rscale>
<asrwt>0</asrwt>
<pdfrwt beam="1">  1        1 0.15172388E-01 0.14592060E+03</pdfrwt>
<pdfrwt beam="2">  1       -1 0.29594679E-01 0.14592060E+03</pdfrwt>
<totfact> 0.37026457E+03</totfact>
</mgrwt>
</event>
<event>
 8    3  0.1560846E-003  0.1337460E+03  0.7818608E-02  0.1234418E+00
         -1   -1    0    0    0  501 -0.00000000000E+00  0.00000000000E+00  0.13463111622E+02  0.13463112565E+02  0.50400000000E-02 0.  1.
          1   -1    0    0  501    0  0.00000000000E+00 -0.00000000000E+00 -0.14505952907E+04  0.14505952907E+04  0.50400000000E-02 0. -1.
         25    2    1    2    0    0  0.45957948258E+02  0.12311626250E+02 -0.39967543445E+03  0.42145990256E+03  0.12499714961E+03 0.  0.
         23    2    1    2    0    0 -0.45957948258E+02 -0.12311626250E+02 -0.10374567446E+04  0.10425985007E+04  0.91822805324E+02 0.  0.
        -13    1    4    4    0    0 -0.56353696259E+02  0.24732710409E+02 -0.75984562887E+03  0.76233380938E+03  0.10566000000E+00 0. -1.
         13    1    4    4    0    0  0.10395748001E+02 -0.37044336658E+02 -0.27761111575E+03  0.28026469133E+03  0.10566000000E+00 0.  1.
    9000005    1    3    3    0    0 -0.13301777625E+02  0.28900345842E+02 -0.21740136257E+02  0.38546086730E+02  0.10000000000E+01 0.  0.
    9000005    1    3    3    0    0  0.59259725883E+02 -0.16588719592E+02 -0.37793529820E+03  0.38291381583E+03  0.10000000000E+01 0.  0.
<mgrwt>
<rscale>  0 0.12541773E+03</rscale>
<asrwt>0</asrwt>
<pdfrwt beam="2">  1        1 0.22316838E+00 0.13374602E+03</pdfrwt>
<pdfrwt beam="1">  1       -1 0.20712492E-02 0.13374602E+03</pdfrwt>
<totfact> 0.49400637E+03</totfact>
</mgrwt>
</event>
<event>
 8    3  0.1560846E-003  0.1558778E+03  0.7818608E-02  0.1201330E+00
         -1   -1    0    0    0  501 -0.00000000000E+00  0.00000000000E+00  0.25085764231E+03  0.25085764236E+03  0.50400000000E-02 0.  1.
          1   -1    0    0  501    0  0.00000000000E+00 -0.00000000000E+00 -0.12025998008E+03  0.12025998018E+03  0.50400000000E-02 0. -1.
         25    2    1    2    0    0  0.48144776194E+02  0.79723662925E+02 -0.35084368155E+02  0.15977733924E+03  0.12499641331E+03 0.  0.
         23    2    1    2    0    0 -0.48144776194E+02 -0.79723662925E+02  0.16568203039E+03  0.21134028330E+03  0.92414275134E+02 0.  0.
        -13    1    4    4    0    0 -0.16843786499E+02 -0.39509286664E+02  0.55647857134E+01  0.43309062335E+02  0.10566000000E+00 0. -1.
         13    1    4    4    0    0 -0.31300989695E+02 -0.40214376262E+02  0.16011724467E+03  0.16803122097E+03  0.10566000000E+00 0.  1.
    9000005    1    3    3    0    0  0.51308591753E+02  0.38069790726E+02  0.38900902377E+02  0.74807491332E+02  0.10000000000E+01 0.  0.
    9000005    1    3    3    0    0 -0.31638155593E+01  0.41653872199E+02 -0.73985270531E+02  0.84969847909E+02  0.10000000000E+01 0.  0.
<mgrwt>
<rscale>  0 0.14930487E+03</rscale>
<asrwt>0</asrwt>
<pdfrwt beam="2">  1        1 0.18501535E-01 0.15587779E+03</pdfrwt>
<pdfrwt beam="1">  1       -1 0.38593483E-01 0.15587779E+03</pdfrwt>
<totfact> 0.18250233E+03</totfact>
</mgrwt>
</event>
<event>
 8    3  0.1560846E-003  0.1336271E+03  0.7818608E-02  0.1235247E+00
         -1   -1    0    0    0  501 -0.00000000000E+00  0.00000000000E+00  0.69044885032E+03  0.69044885034E+03  0.50400000000E-02 0.  1.
          1   -1    0    0  501    0  0.00000000000E+00 -0.00000000000E+00 -0.20149485024E+02  0.20149485654E+02  0.50400000000E-02 0. -1.
         25    2    1    2    0    0  0.47055824292E+02  0.40804501452E+01  0.39858060424E+03  0.42038399919E+03  0.12500123207E+03 0.  0.
         23    2    1    2    0    0 -0.47055824292E+02 -0.40804501452E+01  0.27171876105E+03  0.29021433681E+03  0.90345866021E+02 0.  0.
        -13    1    4    4    0    0  0.26414912932E+02 -0.41617429211E+01  0.50949684272E+02  0.57540848280E+02  0.10566000000E+00 0.  1.
         13    1    4    4    0    0 -0.73470737223E+02  0.81292775938E-01  0.22076907678E+03  0.23267348853E+03  0.10566000000E+00 0. -1.
    9000005    1    3    3    0    0  0.67365887800E+02 -0.40540507398E+02  0.18092024834E+03  0.19726842586E+03  0.10000000000E+01 0.  0.
    9000005    1    3    3    0    0 -0.20310063508E+02  0.44620957543E+02  0.21766035590E+03  0.22311557333E+03  0.10000000000E+01 0.  0.
<mgrwt>
<rscale>  0 0.12488637E+03</rscale>
<asrwt>0</asrwt>
<pdfrwt beam="2">  1        1 0.30999203E-02 0.13362713E+03</pdfrwt>
<pdfrwt beam="1">  1       -1 0.10622292E+00 0.13362713E+03</pdfrwt>
<totfact> 0.27581776E+03</totfact>
</mgrwt>
</event>
<event>
 8    3  0.1560846E-003  0.1378909E+03  0.7818608E-02  0.1226647E+00
         -1   -1    0    0    0  501 -0.00000000000E+00  0.00000000000E+00  0.20192291485E+02  0.20192292114E+02  0.50400000000E-02 0.  1.
          1   -1    0    0  501    0  0.00000000000E+00 -0.00000000000E+00 -0.77268835424E+03  0.77268835426E+03  0.50400000000E-02 0. -1.
         25    2    1    2    0    0  0.45233146196E+02  0.36644992298E+02 -0.37914298672E+03  0.40343935724E+03  0.12500007046E+03 0.  0.
         23    2    1    2    0    0 -0.45233146196E+02 -0.36644992298E+02 -0.37335307603E+03  0.38944128913E+03  0.94250227164E+02 0.  0.
        -13    1    4    4    0    0 -0.37962972528E+02 -0.17634907230E+02 -0.48978861514E+02  0.64429164789E+02  0.10566000000E+00 0.  1.
         13    1    4    4    0    0 -0.72701736673E+01 -0.19010085068E+02 -0.32437421452E+03  0.32501212434E+03  0.10566000000E+00 0. -1.
    9000005    1    3    3    0    0  0.15145874085E+02 -0.46556281361E+02 -0.11994965132E+03  0.12956003893E+03  0.10000000000E+01 0.  0.
    9000005    1    3    3    0    0  0.30087272110E+02  0.83201273658E+02 -0.25919333540E+03  0.27387931831E+03  0.10000000000E+01 0.  0.
<mgrwt>
<rscale>  0 0.13054679E+03</rscale>
<asrwt>0</asrwt>
<pdfrwt beam="2">  1        1 0.11887511E+00 0.13789094E+03</pdfrwt>
<pdfrwt beam="1">  1       -1 0.31065070E-02 0.13789094E+03</pdfrwt>
<totfact> 0.83898078E+03</totfact>
</mgrwt>
</event>
<event>
 8    3  0.1560846E-003  0.1513930E+03  0.7818608E-02  0.1207465E+00
          1   -1    0    0  501    0  0.00000000000E+00  0.00000000000E+00  0.21556909638E+02  0.21556910228E+02  0.50400000000E-02 0. -1.
         -1   -1    0    0    0  501 -0.00000000000E+00 -0.00000000000E+00 -0.95574813332E+03  0.95574813334E+03  0.50400000000E-02 0.  1.
         25    2    1    2    0    0 -0.28272111710E+02 -0.80593276775E+02 -0.37912758797E+03  0.40823715015E+03  0.12500101698E+03 0.  0.
         23    2    1    2    0    0  0.28272111710E+02  0.80593276775E+02 -0.55506363572E+03  0.56906789341E+03  0.91913214788E+02 0.  0.
        -13    1    4    4    0    0  0.18268040743E+02  0.88792773776E+02 -0.54549969991E+03  0.55298084213E+03  0.10566000000E+00 0.  1.
         13    1    4    4    0    0  0.10004070967E+02 -0.81994970012E+01 -0.95639358057E+01  0.16087051287E+02  0.10566000000E+00 0. -1.
    9000005    1    3    3    0    0 -0.27379634394E+02 -0.34156140569E+02 -0.35143670105E+03  0.35415397945E+03  0.10000000000E+01 0.  0.
    9000005    1    3    3    0    0 -0.89247731558E+00 -0.46437136206E+02 -0.27690886919E+02  0.54083170702E+02  0.10000000000E+01 0.  0.
<mgrwt>
<rscale>  0 0.14444883E+03</rscale>
<asrwt>0</asrwt>
<pdfrwt beam="1">  1        1 0.33164484E-02 0.15139301E+03</pdfrwt>
<pdfrwt beam="2">  1       -1 0.14703814E+00 0.15139301E+03</pdfrwt>
<totfact> 0.11587847E+03</totfact>
</mgrwt>
</event>
<event>
 8    3  0.1560846E-003  0.1495266E+03  0.7818608E-02  0.1210376E+00
          1   -1    0    0  501    0  0.00000000000E+00  0.00000000000E+00  0.99834216857E+03  0.99834216858E+03  0.50400000000E-02 0. -1.
         -1   -1    0    0    0  501 -0.00000000000E+00 -0.00000000000E+00 -0.18512085117E+02  0.18512085803E+02  0.50400000000E-02 0.  1.
         25    2    1    2    0    0  0.30818088927E+02 -0.76047767117E+02  0.54078445298E+03  0.56107577980E+03  0.12500075444E+03 0.  0.
         23    2    1    2    0    0 -0.30818088927E+02  0.76047767117E+02  0.43904563048E+03  0.45577847458E+03  0.90774086413E+02 0.  0.
        -13    1    4    4    0    0  0.22754252106E+02  0.55257549438E+02  0.15812325894E+03  0.16903883856E+03  0.10566000000E+00 0. -1.
         13    1    4    4    0    0 -0.53572341033E+02  0.20790217680E+02  0.28092237153E+03  0.28673963602E+03  0.10566000000E+00 0.  1.
    9000005    1    3    3    0    0  0.27644928656E+01  0.21349790482E+02  0.28685124142E+03  0.28765967858E+03  0.10000000000E+01 0.  0.
    9000005    1    3    3    0    0  0.28053596061E+02 -0.97397557599E+02  0.25393321155E+03  0.27341610122E+03  0.10000000000E+01 0.  0.
<mgrwt>
<rscale>  0 0.14221725E+03</rscale>
<asrwt>0</asrwt>
<pdfrwt beam="1">  1        1 0.15359111E+00 0.14952661E+03</pdfrwt>
<pdfrwt beam="2">  1       -1 0.28480131E-02 0.14952661E+03</pdfrwt>
<totfact> 0.63783747E+03</totfact>
</mgrwt>
</event>
<event>
 8    3  0.1560846E-003  0.1819277E+03  0.7818608E-02  0.1171499E+00
          1   -1    0    0  501    0  0.00000000000E+00  0.00000000000E+00  0.21214071708E+04  0.21214071709E+04  0.50400000000E-02 0. -1.
         -1   -1    0    0    0  501 -0.00000000000E+00 -0.00000000000E+00 -0.16240969599E+02  0.16240970381E+02  0.50400000000E-02 0.  1.
         25    2    1    2    0    0  0.10377351993E+03 -0.81873063313E+02  0.69519952799E+03  0.71860982754E+03  0.12500223432E+03 0.  0.
         23    2    1    2    0    0 -0.10377351993E+03  0.81873063313E+02  0.14099666733E+04  0.14190383137E+04  0.90507315172E+02 0.  0.
        -13    1    4    4    0    0 -0.45323792877E+02  0.54109126474E+02  0.34711654003E+03  0.35422019606E+03  0.10566000000E+00 0.  1.
         13    1    4    4    0    0 -0.58449727055E+02  0.27763936839E+02  0.10628501332E+04  0.10648181176E+04  0.10566000000E+00 0. -1.
    9000005    1    3    3    0    0  0.52218068827E+02 -0.89109069332E+02  0.61056874840E+03  0.61924336853E+03  0.10000000000E+01 0.  0.
    9000005    1    3    3    0    0  0.51555451105E+02  0.72360060192E+01  0.84630779594E+02  0.99366459012E+02  0.10000000000E+01 0.  0.
<mgrwt>
<rscale>  0 0.17623377E+03</rscale>
<asrwt>0</asrwt>
<pdfrwt beam="1">  1        1 0.32637015E+00 0.18192773E+03</pdfrwt>
<pdfrwt beam="2">  1       -1 0.24986122E-02 0.18192773E+03</pdfrwt>
<totfact> 0.13987362E+03</totfact>
</mgrwt>
</event>
<event>
 8    3  0.1560846E-003  0.1660565E+03  0.7818608E-02  0.1188866E+00
          1   -1    0    0  501    0  0.00000000000E+00  0.00000000000E+00  0.82118962323E+03  0.82118962325E+03  0.50400000000E-02 0. -1.
         -1   -1    0    0    0  501 -0.00000000000E+00 -0.00000000000E+00 -0.39105482179E+02  0.39105482504E+02  0.50400000000E-02 0.  1.
         25    2    1    2    0    0  0.48850394665E+02 -0.97791857154E+02  0.63127418659E+03  0.65274945677E+03  0.12500058509E+03 0.  0.
         23    2    1    2    0    0 -0.48850394665E+02  0.97791857154E+02  0.15080995446E+03  0.20754564898E+03  0.91552966429E+02 0.  0.
        -13    1    4    4    0    0  0.19172373036E+02  0.61952341015E+02  0.57799779674E+02  0.86870582704E+02  0.10566000000E+00 0.  1.
         13    1    4    4    0    0 -0.68022767701E+02  0.35839516139E+02  0.93010174790E+02  0.12067506628E+03  0.10566000000E+00 0. -1.
    9000005    1    3    3    0    0  0.99477611564E+01  0.29428415146E+02  0.84864400651E+02  0.90376745172E+02  0.10000000000E+01 0.  0.
    9000005    1    3    3    0    0  0.38902633509E+02 -0.12722027230E+03  0.54640978594E+03  0.56237271160E+03  0.10000000000E+01 0.  0.
<mgrwt>
<rscale>  0 0.15985020E+03</rscale>
<asrwt>0</asrwt>
<pdfrwt beam="1">  1        1 0.12633687E+00 0.16605648E+03</pdfrwt>
<pdfrwt beam="2">  1       -1 0.60162281E-02 0.16605648E+03</pdfrwt>
<totfact> 0.29063249E+03</totfact>
</mgrwt>
</event>
<event>
 8    3  0.1560846E-003  0.1617407E+03  0.7818608E-02  0.1194066E+00
         -1   -1    0    0    0  501 -0.00000000000E+00  0.00000000000E+00  0.40746875498E+02  0.40746875810E+02  0.50400000000E-02 0.  1.
          1   -1    0    0  501    0  0.00000000000E+00 -0.00000000000E+00 -0.55048640465E+03  0.55048640467E+03  0.50400000000E-02 0. -1.
         25    2    1    2    0    0  0.99154248904E+02 -0.26540867563E+02 -0.28598307299E+03  0.32855191274E+03  0.12499623434E+03 0.  0.
         23    2    1    2    0    0 -0.99154248904E+02  0.26540867563E+02 -0.22375645616E+03  0.26268136774E+03  0.91643693513E+02 0.  0.
        -13    1    4    4    0    0 -0.10013178362E+03 -0.96987312174E+01 -0.15181060358E+03  0.18211784647E+03  0.10566000000E+00 0. -1.
         13    1    4    4    0    0  0.97753471157E+00  0.36239598780E+02 -0.71945852575E+02  0.80563521277E+02  0.10566000000E+00 0.  1.
    9000005    1    3    3    0    0 -0.98126478460E+01  0.19809768862E+02 -0.13433381315E+03  0.13614436586E+03  0.10000000000E+01 0.  0.
    9000005    1    3    3    0    0  0.10896689675E+03 -0.46350636425E+02 -0.15164925984E+03  0.19240754688E+03  0.10000000000E+01 0.  0.
<mgrwt>
<rscale>  0 0.15533570E+03</rscale>
<asrwt>0</asrwt>
<pdfrwt beam="2">  1        1 0.84690211E-01 0.16174066E+03</pdfrwt>
<pdfrwt beam="1">  1       -1 0.62687505E-02 0.16174066E+03</pdfrwt>
<totfact> 0.48283754E+03</totfact>
</mgrwt>
</event>
<event>
 8    3  0.1560846E-003  0.1320657E+03  0.7818608E-02  0.1238213E+00
          1   -1    0    0  501    0  0.00000000000E+00  0.00000000000E+00  0.32334603437E+02  0.32334603830E+02  0.50400000000E-02 0. -1.
         -1   -1    0    0    0  501 -0.00000000000E+00 -0.00000000000E+00 -0.42998583466E+03  0.42998583469E+03  0.50400000000E-02 0.  1.
         25    2    1    2    0    0  0.42619551104E+02  0.10609304638E+00 -0.26967819596E+03  0.30027933039E+03  0.12499963797E+03 0.  0.
         23    2    1    2    0    0 -0.42619551104E+02 -0.10609304638E+00 -0.12797303526E+03  0.16204110812E+03  0.89798583378E+02 0.  0.
        -13    1    4    4    0    0 -0.70838627971E+02 -0.35644979997E+01 -0.89240141396E+02  0.11399399484E+03  0.10566000000E+00 0. -1.
         13    1    4    4    0    0  0.28219076867E+02  0.34584049533E+01 -0.38732893864E+02  0.48047113287E+02  0.10566000000E+00 0.  1.
    9000005    1    3    3    0    0  0.23205584828E+01  0.12318507057E+02 -0.25553990847E+03  0.25584912630E+03  0.10000000000E+01 0.  0.
    9000005    1    3    3    0    0  0.40298992621E+02 -0.12212414011E+02 -0.14138287487E+02  0.44430204088E+02  0.10000000000E+01 0.  0.
<mgrwt>
<rscale>  0 0.12300941E+03</rscale>
<asrwt>0</asrwt>
<pdfrwt beam="1">  1        1 0.49745547E-02 0.13206569E+03</pdfrwt>
<pdfrwt beam="2">  1       -1 0.66151663E-01 0.13206569E+03</pdfrwt>
<totfact> 0.38530836E+03</totfact>
</mgrwt>
</event>
<event>
 8    3  0.1560846E-003  0.1310981E+03  0.7818608E-02  0.1243112E+00
          1   -1    0    0  501    0  0.00000000000E+00  0.00000000000E+00  0.20430525575E+04  0.20430525575E+04  0.50400000000E-02 0. -1.
         -1   -1    0    0    0  501 -0.00000000000E+00 -0.00000000000E+00 -0.61528867250E+01  0.61528887892E+01  0.50400000000E-02 0.  1.
         25    2    1    2    0    0 -0.16269021701E+02 -0.36009038662E+02  0.10936599038E+04  0.11014893084E+04  0.12500151767E+03 0.  0.
         23    2    1    2    0    0  0.16269021701E+02  0.36009038662E+02  0.94323976706E+03  0.94771613798E+03  0.83086028195E+02 0.  0.
        -13    1    4    4    0    0 -0.14788598156E+02 -0.12549606522E+00  0.68239663877E+03  0.68255688565E+03  0.10566000000E+00 0. -1.
         13    1    4    4    0    0  0.31057619857E+02  0.36134534727E+02  0.26084312830E+03  0.26515925233E+03  0.10566000000E+00 0.  1.
    9000005    1    3    3    0    0  0.39181427632E+01 -0.15213107770E+02  0.10429805496E+04  0.10430993324E+04  0.10000000000E+01 0.  0.
    9000005    1    3    3    0    0 -0.20187164464E+02 -0.20795930892E+02  0.50679354166E+02  0.58389975933E+02  0.10000000000E+01 0.  0.
<mgrwt>
<rscale>  0 0.11999088E+03</rscale>
<asrwt>0</asrwt>
<pdfrwt beam="1">  1        1 0.31431611E+00 0.13109810E+03</pdfrwt>
<pdfrwt beam="2">  1       -1 0.94659710E-03 0.13109810E+03</pdfrwt>
<totfact> 0.63407129E+03</totfact>
</mgrwt>
</event>
<event>
 8    3  0.1560846E-003  0.1375366E+03  0.7818608E-02  0.1227958E+00
          1   -1    0    0  501    0  0.00000000000E+00  0.00000000000E+00  0.22303649809E+04  0.22303649809E+04  0.50400000000E-02 0. -1.
         -1   -1    0    0    0  501 -0.00000000000E+00 -0.00000000000E+00 -0.73668560249E+01  0.73668577489E+01  0.50400000000E-02 0.  1.
         25    2    1    2    0    0 -0.44662736566E+02  0.35997894956E+02  0.15420856962E+04  0.15482069050E+04  0.12500287107E+03 0.  0.
         23    2    1    2    0    0  0.44662736566E+02 -0.35997894956E+02  0.68091242862E+03  0.68952493360E+03  0.92262073097E+02 0.  0.
        -13    1    4    4    0    0  0.12080624445E+01  0.21222434976E+02  0.47365981643E+02  0.51917227798E+02  0.10566000000E+00 0.  1.
         13    1    4    4    0    0  0.43454674122E+02 -0.57220329932E+02  0.63354644698E+03  0.63760770581E+03  0.10566000000E+00 0. -1.
    9000005    1    3    3    0    0  0.37451718339E+02 -0.17831029565E+00  0.77235120087E+03  0.77325936172E+03  0.10000000000E+01 0.  0.
    9000005    1    3    3    0    0 -0.82114454905E+02  0.36176205251E+02  0.76973449535E+03  0.77494754330E+03  0.10000000000E+01 0.  0.
<mgrwt>
<rscale>  0 0.12966190E+03</rscale>
<asrwt>0</asrwt>
<pdfrwt beam="1">  1        1 0.34313342E+00 0.13753664E+03</pdfrwt>
<pdfrwt beam="2">  1       -1 0.11333615E-02 0.13753664E+03</pdfrwt>
<totfact> 0.37287420E+03</totfact>
</mgrwt>
</event>
<event>
 8    3  0.1560846E-003  0.1430791E+03  0.7818608E-02  0.1219873E+00
         -1   -1    0    0    0  501 -0.00000000000E+00  0.00000000000E+00  0.89193122532E+02  0.89193122674E+02  0.50400000000E-02 0.  1.
          1   -1    0    0  501    0  0.00000000000E+00 -0.00000000000E+00 -0.20580777425E+03  0.20580777432E+03  0.50400000000E-02 0. -1.
         25    2    1    2    0    0  0.36964221254E+01  0.69530443422E+02 -0.11019243476E+03  0.18059346714E+03  0.12499392625E+03 0.  0.
         23    2    1    2    0    0 -0.36964221254E+01 -0.69530443422E+02 -0.64222169648E+01  0.11440742985E+03  0.90552023911E+02 0.  0.
        -13    1    4    4    0    0 -0.73711475177E+01 -0.47587145181E+02  0.40212607910E+02  0.62737032136E+02  0.10566000000E+00 0.  1.
         13    1    4    4    0    0  0.36747253923E+01 -0.21943298242E+02 -0.46634824875E+02  0.51670397711E+02  0.10566000000E+00 0. -1.
    9000005    1    3    3    0    0 -0.48227628221E+02  0.76067667739E+02 -0.61186714823E+02  0.10888989058E+03  0.10000000000E+01 0.  0.
    9000005    1    3    3    0    0  0.51924050346E+02 -0.65372243170E+01 -0.49005719934E+02  0.71703576566E+02  0.10000000000E+01 0.  0.
<mgrwt>
<rscale>  0 0.13524598E+03</rscale>
<asrwt>0</asrwt>
<pdfrwt beam="2">  1        1 0.31662734E-01 0.14307910E+03</pdfrwt>
<pdfrwt beam="1">  1       -1 0.13722019E-01 0.14307910E+03</pdfrwt>
<totfact> 0.50268728E+03</totfact>
</mgrwt>
</event>
<event>
 8    3  0.1560846E-003  0.1271719E+03  0.7818608E-02  0.1244889E+00
         -1   -1    0    0    0  501 -0.00000000000E+00  0.00000000000E+00  0.32798476560E+02  0.32798476947E+02  0.50400000000E-02 0.  1.
          1   -1    0    0  501    0  0.00000000000E+00 -0.00000000000E+00 -0.50581177119E+03  0.50581177122E+03  0.50400000000E-02 0. -1.
         25    2    1    2    0    0 -0.29756831101E+01  0.23174666751E+02 -0.12911091858E+03  0.18122452042E+03  0.12500711034E+03 0.  0.
         23    2    1    2    0    0  0.29756831101E+01 -0.23174666751E+02 -0.34390237605E+03  0.35738572775E+03  0.94391706601E+02 0.  0.
        -13    1    4    4    0    0  0.29656031858E+02 -0.47414742042E+02 -0.26198653472E+03  0.26788914410E+03  0.10566000000E+00 0. -1.
         13    1    4    4    0    0 -0.26680348747E+02  0.24240075291E+02 -0.81915841330E+02  0.89496583645E+02  0.10566000000E+00 0.  1.
    9000005    1    3    3    0    0 -0.23314388909E+02 -0.43633402280E+02 -0.85791426919E+02  0.99038393856E+02  0.10000000000E+01 0.  0.
    9000005    1    3    3    0    0  0.20338705799E+02  0.66808069031E+02 -0.43319491661E+02  0.82186126560E+02  0.10000000000E+01 0.  0.
<mgrwt>
<rscale>  0 0.11892009E+03</rscale>
<asrwt>0</asrwt>
<pdfrwt beam="2">  1        1 0.77817190E-01 0.12717192E+03</pdfrwt>
<pdfrwt beam="1">  1       -1 0.50459199E-02 0.12717192E+03</pdfrwt>
<totfact> 0.73599782E+03</totfact>
</mgrwt>
</event>
<event>
 8    3  0.1560846E-003  0.1396531E+03  0.7818608E-02  0.1224718E+00
          1   -1    0    0  501    0  0.00000000000E+00  0.00000000000E+00  0.73340739722E+02  0.73340739895E+02  0.50400000000E-02 0. -1.
         -1   -1    0    0    0  501 -0.00000000000E+00 -0.00000000000E+00 -0.23609875346E+03  0.23609875351E+03  0.50400000000E-02 0.  1.
         25    2    1    2    0    0 -0.10774899405E+02 -0.61335345027E+02 -0.13669231464E+03  0.19541690938E+03  0.12499942634E+03 0.  0.
         23    2    1    2    0    0  0.10774899405E+02  0.61335345027E+02 -0.26065699103E+02  0.11402258402E+03  0.91889096150E+02 0.  0.
        -13    1    4    4    0    0  0.50968765763E+02  0.37422777350E+02 -0.22506424877E+02  0.67118027927E+02  0.10566000000E+00 0.  1.
         13    1    4    4    0    0 -0.40193866358E+02  0.23912567676E+02 -0.35592742256E+01  0.46904556098E+02  0.10566000000E+00 0. -1.
    9000005    1    3    3    0    0  0.20529128539E+01 -0.90059100532E+02 -0.13697097188E+03  0.16394176764E+03  0.10000000000E+01 0.  0.
    9000005    1    3    3    0    0 -0.12827812258E+02  0.28723755505E+02  0.27865724783E+00  0.31475141740E+02  0.10000000000E+01 0.  0.
<mgrwt>
<rscale>  0 0.13186266E+03</rscale>
<asrwt>0</asrwt>
<pdfrwt beam="1">  1        1 0.11283191E-01 0.13965307E+03</pdfrwt>
<pdfrwt beam="2">  1       -1 0.36322885E-01 0.13965307E+03</pdfrwt>
<totfact> 0.38380107E+03</totfact>
</mgrwt>
</event>
<event>
 8    3  0.1560846E-003  0.1434725E+03  0.7818608E-02  0.1218554E+00
         -1   -1    0    0    0  501 -0.00000000000E+00  0.00000000000E+00  0.13231588518E+03  0.13231588527E+03  0.50400000000E-02 0.  1.
          1   -1    0    0  501    0  0.00000000000E+00 -0.00000000000E+00 -0.14368701618E+03  0.14368701627E+03  0.50400000000E-02 0. -1.
         25    2    1    2    0    0  0.12477794315E+02 -0.69307657264E+02 -0.52060724239E+02  0.15262597148E+03  0.12500048582E+03 0.  0.
         23    2    1    2    0    0 -0.12477794315E+02  0.69307657264E+02  0.40689593231E+02  0.12337693006E+03  0.92773795695E+02 0.  0.
        -13    1    4    4    0    0 -0.57118078513E+01  0.91396719838E+02  0.23389129416E+02  0.94514801407E+02  0.10566000000E+00 0. -1.
         13    1    4    4    0    0 -0.67659864635E+01 -0.22089062574E+02  0.17300463815E+02  0.28862128655E+02  0.10566000000E+00 0.  1.
    9000005    1    3    3    0    0 -0.24767149753E+02 -0.13505763043E+02  0.33555855793E+02  0.43849889398E+02  0.10000000000E+01 0.  0.
    9000005    1    3    3    0    0  0.37244944068E+02 -0.55801894221E+02 -0.85616580032E+02  0.10877608208E+03  0.10000000000E+01 0.  0.
<mgrwt>
<rscale>  0 0.13618647E+03</rscale>
<asrwt>0</asrwt>
<pdfrwt beam="2">  1        1 0.22105695E-01 0.14347253E+03</pdfrwt>
<pdfrwt beam="1">  1       -1 0.20356290E-01 0.14347253E+03</pdfrwt>
<totfact> 0.42248305E+03</totfact>
</mgrwt>
</event>
<event>
 8    3  0.1560846E-003  0.1873701E+03  0.7818608E-02  0.1166131E+00
          1   -1    0    0  501    0  0.00000000000E+00  0.00000000000E+00  0.16380269836E+03  0.16380269843E+03  0.50400000000E-02 0. -1.
         -1   -1    0    0    0  501 -0.00000000000E+00 -0.00000000000E+00 -0.21015367811E+03  0.21015367817E+03  0.50400000000E-02 0.  1.
         25    2    1    2    0    0 -0.12817959087E+03  0.55248682291E+02 -0.81675786517E+02  0.20439784732E+03  0.12500048590E+03 0.  0.
         23    2    1    2    0    0  0.12817959087E+03 -0.55248682291E+02  0.35324806761E+02  0.16955852928E+03  0.89553495018E+02 0.  0.
        -13    1    4    4    0    0  0.14145965477E+03 -0.56243721914E+02  0.35166739404E+02  0.15623988257E+03  0.10566000000E+00 0.  1.
         13    1    4    4    0    0 -0.13280063897E+02  0.99503962366E+00  0.15806735702E+00  0.13318646713E+02  0.10566000000E+00 0. -1.
    9000005    1    3    3    0    0 -0.10848777622E+03  0.84741153240E+02 -0.28675150865E+02  0.14061978850E+03  0.10000000000E+01 0.  0.
    9000005    1    3    3    0    0 -0.19691814651E+02 -0.29492470950E+02 -0.53000635653E+02  0.63778058818E+02  0.10000000000E+01 0.  0.
<mgrwt>
<rscale>  0 0.18173820E+03</rscale>
<asrwt>0</asrwt>
<pdfrwt beam="1">  1        1 0.25200415E-01 0.18737008E+03</pdfrwt>
<pdfrwt beam="2">  1       -1 0.32331335E-01 0.18737008E+03</pdfrwt>
<totfact> 0.16815527E+03</totfact>
</mgrwt>
</event>
<event>
 8    3  0.1560846E-003  0.1596759E+03  0.7818608E-02  0.1196849E+00
          1   -1    0    0  501    0  0.00000000000E+00  0.00000000000E+00  0.68274859628E+03  0.68274859629E+03  0.50400000000E-02 0.  1.
         -1   -1    0    0    0  501 -0.00000000000E+00 -0.00000000000E+00 -0.37143276352E+02  0.37143276694E+02  0.50400000000E-02 0. -1.
         25    2    1    2    0    0 -0.20125643651E+02 -0.97292929487E+02  0.48367956125E+03  0.50935479644E+03  0.12500174006E+03 0.  0.
         23    2    1    2    0    0  0.20125643651E+02  0.97292929487E+02  0.16192575867E+03  0.21053707655E+03  0.90746645231E+02 0.  0.
        -13    1    4    4    0    0  0.48186560497E+02  0.58467175342E+02  0.13695384314E+03  0.15651428536E+03  0.10566000000E+00 0.  1.
         13    1    4    4    0    0 -0.28060916846E+02  0.38825754145E+02  0.24971915527E+02  0.54022791193E+02  0.10566000000E+00 0. -1.
    9000005    1    3    3    0    0  0.37665048140E+02 -0.53818556956E+02  0.10521363104E+03  0.12404032038E+03  0.10000000000E+01 0.  0.
    9000005    1    3    3    0    0 -0.57790691790E+02 -0.43474372531E+02  0.37846593021E+03  0.38531447605E+03  0.10000000000E+01 0.  0.
<mgrwt>
<rscale>  0 0.15298789E+03</rscale>
<asrwt>0</asrwt>
<pdfrwt beam="1">  1        1 0.10503824E+00 0.15967589E+03</pdfrwt>
<pdfrwt beam="2">  1       -1 0.57143505E-02 0.15967589E+03</pdfrwt>
<totfact> 0.41180584E+03</totfact>
</mgrwt>
</event>
<event>
 8    3  0.1560846E-003  0.1383511E+03  0.7818608E-02  0.1228308E+00
         -1   -1    0    0    0  501 -0.00000000000E+00  0.00000000000E+00  0.10584724542E+02  0.10584725742E+02  0.50400000000E-02 0.  1.
          1   -1    0    0  501    0  0.00000000000E+00 -0.00000000000E+00 -0.15154088934E+04  0.15154088934E+04  0.50400000000E-02 0. -1.
         25    2    1    2    0    0  0.25578524012E+02 -0.53502649373E+02 -0.10449808041E+04  0.10540995660E+04  0.12499687875E+03 0.  0.
         23    2    1    2    0    0 -0.25578524012E+02  0.53502649373E+02 -0.45984336476E+03  0.47189405316E+03  0.87813910727E+02 0.  0.
        -13    1    4    4    0    0  0.38676467148E+01  0.71244017722E+02 -0.32470336467E+03  0.33244992848E+03  0.10566000000E+00 0. -1.
         13    1    4    4    0    0 -0.29446170727E+02 -0.17741368349E+02 -0.13514000009E+03  0.13944412468E+03  0.10566000000E+00 0.  1.
    9000005    1    3    3    0    0 -0.35249760200E+02 -0.38869676048E+02 -0.19887990690E+03  0.20568814910E+03  0.10000000000E+01 0.  0.
    9000005    1    3    3    0    0  0.60828284212E+02 -0.14632973326E+02 -0.84610089719E+03  0.84841141688E+03  0.10000000000E+01 0.  0.
<mgrwt>
<rscale>  0 0.12942704E+03</rscale>
<asrwt>0</asrwt>
<pdfrwt beam="2">  1        1 0.23313966E+00 0.13835105E+03</pdfrwt>
<pdfrwt beam="1">  1       -1 0.16284205E-02 0.13835105E+03</pdfrwt>
<totfact> 0.63469962E+03</totfact>
</mgrwt>
</event>
<event>
 8    3  0.1560846E-003  0.1771089E+03  0.7818608E-02  0.1177396E+00
         -1   -1    0    0    0  501 -0.00000000000E+00  0.00000000000E+00  0.22288385371E+03  0.22288385377E+03  0.50400000000E-02 0.  1.
          1   -1    0    0  501    0  0.00000000000E+00 -0.00000000000E+00 -0.12691199459E+03  0.12691199469E+03  0.50400000000E-02 0. -1.
         25    2    1    2    0    0  0.86254306101E+02 -0.91112838944E+02  0.87844510211E+02  0.19769731404E+03  0.12500486095E+03 0.  0.
         23    2    1    2    0    0 -0.86254306101E+02  0.91112838944E+02  0.81273489146E+01  0.15209853442E+03  0.85595301453E+02 0.  0.
        -13    1    4    4    0    0 -0.76296363262E+02  0.18522128415E+02  0.14725048202E+01  0.78526325029E+02  0.10566000000E+00 0.  1.
         13    1    4    4    0    0 -0.99579428384E+01  0.72590710529E+02  0.66548440944E+01  0.73572209390E+02  0.10566000000E+00 0. -1.
    9000005    1    3    3    0    0  0.68584767838E+02 -0.80296011517E+02  0.11973681501E+03  0.15965345193E+03  0.10000000000E+01 0.  0.
    9000005    1    3    3    0    0  0.17669538262E+02 -0.10816827426E+02 -0.31892304802E+02  0.38043862101E+02  0.10000000000E+01 0.  0.
<mgrwt>
<rscale>  0 0.17043405E+03</rscale>
<asrwt>0</asrwt>
<pdfrwt beam="2">  1        1 0.19524922E-01 0.17710892E+03</pdfrwt>
<pdfrwt beam="1">  1       -1 0.34289823E-01 0.17710892E+03</pdfrwt>
<totfact> 0.21003309E+03</totfact>
</mgrwt>
</event>
<event>
 8    3  0.1560846E-003  0.1275454E+03  0.7818608E-02  0.1245921E+00
          1   -1    0    0  501    0  0.00000000000E+00  0.00000000000E+00  0.71149307775E+03  0.71149307776E+03  0.50400000000E-02 0. -1.
         -1   -1    0    0    0  501 -0.00000000000E+00 -0.00000000000E+00 -0.17559298338E+02  0.17559299061E+02  0.50400000000E-02 0.  1.
         25    2    1    2    0    0  0.17246731368E+01 -0.25290982777E+02  0.35504855831E+03  0.37726291595E+03  0.12500088275E+03 0.  0.
         23    2    1    2    0    0 -0.17246731368E+01  0.25290982777E+02  0.33888522110E+03  0.35178946087E+03  0.90939668975E+02 0.  0.
        -13    1    4    4    0    0  0.20627149471E+02  0.53439093232E+02  0.23428275039E+03  0.24118381844E+03  0.10566000000E+00 0. -1.
         13    1    4    4    0    0 -0.22351822608E+02 -0.28148110456E+02  0.10460247071E+03  0.11060564243E+03  0.10566000000E+00 0.  1.
    9000005    1    3    3    0    0  0.52822997702E+02 -0.17831140045E+02  0.28401330469E+03  0.28943527063E+03  0.10000000000E+01 0.  0.
    9000005    1    3    3    0    0 -0.51098324566E+02 -0.74598427319E+01  0.71035253617E+02  0.87827645326E+02  0.10000000000E+01 0.  0.
<mgrwt>
<rscale>  0 0.11830398E+03</rscale>
<asrwt>0</asrwt>
<pdfrwt beam="1">  1        1 0.10946047E+00 0.12754540E+03</pdfrwt>
<pdfrwt beam="2">  1       -1 0.27014306E-02 0.12754540E+03</pdfrwt>
<totfact> 0.11536681E+04</totfact>
</mgrwt>
</event>
<event>
 8    3  0.1560846E-003  0.1516922E+03  0.7818608E-02  0.1207175E+00
          1   -1    0    0  501    0  0.00000000000E+00  0.00000000000E+00  0.65017404643E+03  0.65017404645E+03  0.50400000000E-02 0. -1.
         -1   -1    0    0    0  501 -0.00000000000E+00 -0.00000000000E+00 -0.64596160339E+02  0.64596160536E+02  0.50400000000E-02 0.  1.
         25    2    1    2    0    0  0.59281363709E+02 -0.62220377861E+02  0.42720039385E+02  0.15759294218E+03  0.12499951262E+03 0.  0.
         23    2    1    2    0    0 -0.59281363709E+02  0.62220377861E+02  0.54285784670E+03  0.55717726480E+03  0.91466973161E+02 0.  0.
        -13    1    4    4    0    0 -0.86399653114E+00  0.64060069733E+01  0.32100735973E+03  0.32107245222E+03  0.10566000000E+00 0. -1.
         13    1    4    4    0    0 -0.58417367177E+02  0.55814370887E+02  0.22185048698E+03  0.23610481258E+03  0.10566000000E+00 0.  1.
    9000005    1    3    3    0    0  0.94611778355E+02 -0.43677544203E+02  0.52221661214E+02  0.11656422423E+03  0.10000000000E+01 0.  0.
    9000005    1    3    3    0    0 -0.35330414646E+02 -0.18542833658E+02 -0.95016218292E+01  0.41028717949E+02  0.10000000000E+01 0.  0.
<mgrwt>
<rscale>  0 0.14467350E+03</rscale>
<asrwt>0</asrwt>
<pdfrwt beam="1">  1        1 0.10002677E+00 0.15169223E+03</pdfrwt>
<pdfrwt beam="2">  1       -1 0.99378710E-02 0.15169223E+03</pdfrwt>
<totfact> 0.19101585E+03</totfact>
</mgrwt>
</event>
<event>
 8    3  0.1560846E-003  0.2624551E+03  0.7818608E-02  0.1108049E+00
         -1   -1    0    0    0  501 -0.00000000000E+00  0.00000000000E+00  0.36568433490E+02  0.36568433837E+02  0.50400000000E-02 0.  1.
          1   -1    0    0  501    0  0.00000000000E+00 -0.00000000000E+00 -0.17768608959E+04  0.17768608959E+04  0.50400000000E-02 0. -1.
         25    2    1    2    0    0 -0.22107853485E+02  0.22971461097E+03 -0.93140890861E+03  0.96768032776E+03  0.12500040810E+03 0.  0.
         23    2    1    2    0    0  0.22107853485E+02 -0.22971461097E+03 -0.80888355377E+03  0.84574900195E+03  0.87984152356E+02 0.  0.
        -13    1    4    4    0    0  0.43963364220E+02 -0.10181697830E+03 -0.46917520077E+03  0.48210460965E+03  0.10566000000E+00 0.  1.
         13    1    4    4    0    0 -0.21855510735E+02 -0.12789763266E+03 -0.33970835300E+03  0.36364439230E+03  0.10566000000E+00 0. -1.
    9000005    1    3    3    0    0 -0.39584299402E+02  0.94117332073E+02 -0.21094499207E+03  0.23435822716E+03  0.10000000000E+01 0.  0.
    9000005    1    3    3    0    0  0.17476445917E+02  0.13559727889E+03 -0.72046391653E+03  0.73332210060E+03  0.10000000000E+01 0.  0.
<mgrwt>
<rscale>  0 0.25849750E+03</rscale>
<asrwt>0</asrwt>
<pdfrwt beam="2">  1        1 0.27336315E+00 0.26245507E+03</pdfrwt>
<pdfrwt beam="1">  1       -1 0.56259142E-02 0.26245507E+03</pdfrwt>
<totfact> 0.69460444E+02</totfact>
</mgrwt>
</event>
<event>
 8    3  0.1560846E-003  0.1367047E+03  0.7818608E-02  0.1229576E+00
         -1   -1    0    0    0  501 -0.00000000000E+00  0.00000000000E+00  0.11322489365E+03  0.11322489376E+03  0.50400000000E-02 0.  1.
          1   -1    0    0  501    0  0.00000000000E+00 -0.00000000000E+00 -0.14819160669E+03  0.14819160677E+03  0.50400000000E-02 0. -1.
         25    2    1    2    0    0 -0.27630691706E+02  0.47958206986E+02  0.24687657665E+02  0.13891598388E+03  0.12499890157E+03 0.  0.
         23    2    1    2    0    0  0.27630691706E+02 -0.47958206986E+02 -0.59654370702E+02  0.12250051665E+03  0.91565757219E+02 0.  0.
        -13    1    4    4    0    0 -0.31312903288E+02 -0.10688261943E+02 -0.41011685225E+01  0.33340180008E+02  0.10566000000E+00 0. -1.
         13    1    4    4    0    0  0.58943594994E+02 -0.37269945043E+02 -0.55553202180E+02  0.89160336646E+02  0.10566000000E+00 0.  1.
    9000005    1    3    3    0    0  0.15419798412E+02  0.50378666072E+02 -0.36466470153E+02  0.64082631217E+02  0.10000000000E+01 0.  0.
    9000005    1    3    3    0    0 -0.43050490118E+02 -0.24204590858E+01  0.61154127818E+02  0.74833352663E+02  0.10000000000E+01 0.  0.
<mgrwt>
<rscale>  0 0.12858120E+03</rscale>
<asrwt>0</asrwt>
<pdfrwt beam="2">  1        1 0.22798709E-01 0.13670468E+03</pdfrwt>
<pdfrwt beam="1">  1       -1 0.17419214E-01 0.13670468E+03</pdfrwt>
<totfact> 0.51972565E+03</totfact>
</mgrwt>
</event>
<event>
 8    3  0.1560846E-003  0.1473147E+03  0.7818608E-02  0.1215264E+00
          1   -1    0    0  501    0  0.00000000000E+00  0.00000000000E+00  0.99550944717E+03  0.99550944718E+03  0.50400000000E-02 0. -1.
         -1   -1    0    0    0  501 -0.00000000000E+00 -0.00000000000E+00 -0.50333573536E+02  0.50333573788E+02  0.50400000000E-02 0.  1.
         25    2    1    2    0    0 -0.73634253764E+02  0.25555726264E+02  0.91478732336E+03  0.92657297266E+03  0.12500611274E+03 0.  0.
         23    2    1    2    0    0  0.73634253764E+02 -0.25555726264E+02  0.30388550272E+02  0.11927004830E+03  0.85010481485E+02 0.  0.
        -13    1    4    4    0    0  0.43652883443E+02 -0.56178602372E+02  0.10115276043E+02  0.71860556432E+02  0.10566000000E+00 0. -1.
         13    1    4    4    0    0  0.29981370321E+02  0.30622876107E+02  0.20273274229E+02  0.47409491870E+02  0.10566000000E+00 0.  1.
    9000005    1    3    3    0    0 -0.38459893733E+02 -0.25323233265E+02  0.73497501086E+03  0.73641679513E+03  0.10000000000E+01 0.  0.
    9000005    1    3    3    0    0 -0.35174360031E+02  0.50878959529E+02  0.17981231250E+03  0.19015617753E+03  0.10000000000E+01 0.  0.
<mgrwt>
<rscale>  0 0.13857144E+03</rscale>
<asrwt>0</asrwt>
<pdfrwt beam="1">  1        1 0.15315531E+00 0.14731472E+03</pdfrwt>
<pdfrwt beam="2">  1       -1 0.77436263E-02 0.14731472E+03</pdfrwt>
<totfact> 0.14566657E+03</totfact>
</mgrwt>
</event>
<event>
 8    3  0.1560846E-003  0.1566527E+03  0.7818608E-02  0.1201466E+00
         -1   -1    0    0    0  501 -0.00000000000E+00  0.00000000000E+00  0.19642397869E+04  0.19642397869E+04  0.50400000000E-02 0.  1.
          1   -1    0    0  501    0  0.00000000000E+00 -0.00000000000E+00 -0.11547700108E+02  0.11547701207E+02  0.50400000000E-02 0. -1.
         25    2    1    2    0    0 -0.48375437510E+02 -0.81083831852E+02  0.74844937791E+03  0.76466760235E+03  0.12500120018E+03 0.  0.
         23    2    1    2    0    0  0.48375437510E+02  0.81083831852E+02  0.12042427089E+04  0.12111198857E+04  0.87727447562E+02 0.  0.
        -13    1    4    4    0    0  0.84303978531E+01  0.38333128600E+02  0.14367828668E+03  0.14894281314E+03  0.10566000000E+00 0. -1.
         13    1    4    4    0    0  0.39945039657E+02  0.42750703252E+02  0.10605644222E+04  0.10621770726E+04  0.10566000000E+00 0.  1.
    9000005    1    3    3    0    0 -0.61971901966E+02 -0.67966224606E+02  0.73664972668E+03  0.74237035510E+03  0.10000000000E+01 0.  0.
    9000005    1    3    3    0    0  0.13596464456E+02 -0.13117607246E+02  0.11799651231E+02  0.22297247245E+02  0.10000000000E+01 0.  0.
<mgrwt>
<rscale>  0 0.14919439E+03</rscale>
<asrwt>0</asrwt>
<pdfrwt beam="2">  1        1 0.17765704E-02 0.15665271E+03</pdfrwt>
<pdfrwt beam="1">  1       -1 0.30219056E+00 0.15665271E+03</pdfrwt>
<totfact> 0.26874834E+02</totfact>
</mgrwt>
</event>
<event>
 8    3  0.1560846E-003  0.1958362E+03  0.7818608E-02  0.1157501E+00
         -1   -1    0    0    0  501 -0.00000000000E+00  0.00000000000E+00  0.26873229350E+02  0.26873229822E+02  0.50400000000E-02 0.  1.
          1   -1    0    0  501    0  0.00000000000E+00 -0.00000000000E+00 -0.13069057649E+04  0.13069057649E+04  0.50400000000E-02 0. -1.
         25    2    1    2    0    0  0.46863394541E+02 -0.14328645987E+03 -0.73126781758E+03  0.75703662283E+03  0.12499855978E+03 0.  0.
         23    2    1    2    0    0 -0.46863394541E+02  0.14328645987E+03 -0.54876471796E+03  0.57674237189E+03  0.93604810390E+02 0.  0.
        -13    1    4    4    0    0 -0.71125502505E+00  0.91610959176E+02 -0.42633748409E+03  0.43606964493E+03  0.10566000000E+00 0. -1.
         13    1    4    4    0    0 -0.46152139516E+02  0.51675500694E+02 -0.12242723387E+03  0.14067272696E+03  0.10566000000E+00 0.  1.
    9000005    1    3    3    0    0  0.44453449135E+02 -0.16439417092E+03 -0.68880064309E+03  0.70954131557E+03  0.10000000000E+01 0.  0.
    9000005    1    3    3    0    0  0.24099454069E+01  0.21107711055E+02 -0.42467174484E+02  0.47495307257E+02  0.10000000000E+01 0.  0.
<mgrwt>
<rscale>  0 0.19106877E+03</rscale>
<asrwt>0</asrwt>
<pdfrwt beam="2">  1        1 0.20106238E+00 0.19583623E+03</pdfrwt>
<pdfrwt beam="1">  1       -1 0.41343440E-02 0.19583623E+03</pdfrwt>
<totfact> 0.22556906E+03</totfact>
</mgrwt>
</event>
<event>
 8    3  0.1560846E-003  0.1352076E+03  0.7818608E-02  0.1232303E+00
         -1   -1    0    0    0  501 -0.00000000000E+00  0.00000000000E+00  0.86917201342E+01  0.86917215954E+01  0.50400000000E-02 0. -1.
          1   -1    0    0  501    0  0.00000000000E+00 -0.00000000000E+00 -0.17813204116E+04  0.17813204116E+04  0.50400000000E-02 0.  1.
         25    2    1    2    0    0 -0.40492081606E+02  0.31883824262E+02 -0.75342941752E+03  0.76546521377E+03  0.12499967754E+03 0.  0.
         23    2    1    2    0    0  0.40492081606E+02 -0.31883824262E+02 -0.10191992739E+04  0.10245469194E+04  0.90956270732E+02 0.  0.
        -13    1    4    4    0    0  0.47405209485E+02 -0.16529340043E+02 -0.24139576496E+03  0.24656114753E+03  0.10566000000E+00 0. -1.
         13    1    4    4    0    0 -0.69131278795E+01 -0.15354484218E+02 -0.77780350896E+03  0.77798577188E+03  0.10566000000E+00 0.  1.
    9000005    1    3    3    0    0  0.41589768921E+01 -0.39878789186E+02 -0.12249121970E+03  0.12889031701E+03  0.10000000000E+01 0.  0.
    9000005    1    3    3    0    0 -0.44651058498E+02  0.71762613448E+02 -0.63093819782E+03  0.63657489676E+03  0.10000000000E+01 0.  0.
<mgrwt>
<rscale>  0 0.12678697E+03</rscale>
<asrwt>0</asrwt>
<pdfrwt beam="2">  1        1 0.27404900E+00 0.13520764E+03</pdfrwt>
<pdfrwt beam="1">  1       -1 0.13371892E-02 0.13520764E+03</pdfrwt>
<totfact> 0.56834612E+03</totfact>
</mgrwt>
</event>
<event>
 8    3  0.1560846E-003  0.1390466E+03  0.7818608E-02  0.1225965E+00
          1   -1    0    0  501    0  0.00000000000E+00  0.00000000000E+00  0.90594740857E+02  0.90594740997E+02  0.50400000000E-02 0. -1.
         -1   -1    0    0    0  501 -0.00000000000E+00 -0.00000000000E+00 -0.19325419993E+03  0.19325419999E+03  0.50400000000E-02 0.  1.
         25    2    1    2    0    0 -0.60395471065E+02  0.77692870509E+01 -0.83921364549E+01  0.13929961795E+03  0.12500392338E+03 0.  0.
         23    2    1    2    0    0  0.60395471065E+02 -0.77692870509E+01 -0.94267322617E+02  0.14454932304E+03  0.91105455011E+02 0.  0.
        -13    1    4    4    0    0  0.62372612387E+02  0.45865606397E+01 -0.10872439713E+03  0.12542880455E+03  0.10566000000E+00 0.  1.
         13    1    4    4    0    0 -0.19771413221E+01 -0.12355847691E+02  0.14457074516E+02  0.19120518496E+02  0.10566000000E+00 0. -1.
    9000005    1    3    3    0    0 -0.45076592038E+01  0.42100635675E+02  0.39629833747E+02  0.58002639927E+02  0.10000000000E+01 0.  0.
    9000005    1    3    3    0    0 -0.55887811861E+02 -0.34331348624E+02 -0.48021970202E+02  0.81296978019E+02  0.10000000000E+01 0.  0.
<mgrwt>
<rscale>  0 0.13101014E+03</rscale>
<asrwt>0</asrwt>
<pdfrwt beam="1">  1        1 0.13937652E-01 0.13904660E+03</pdfrwt>
<pdfrwt beam="2">  1       -1 0.29731415E-01 0.13904660E+03</pdfrwt>
<totfact> 0.40911700E+03</totfact>
</mgrwt>
</event>
<event>
 8    3  0.1560846E-003  0.1325690E+03  0.7818608E-02  0.1227718E+00
          1   -1    0    0  501    0  0.00000000000E+00  0.00000000000E+00  0.16321079924E+03  0.16321079932E+03  0.50400000000E-02 0. -1.
         -1   -1    0    0    0  501 -0.00000000000E+00 -0.00000000000E+00 -0.16930086481E+03  0.16930086489E+03  0.50400000000E-02 0.  1.
         25    2    1    2    0    0  0.36663883885E+02  0.24591056699E+02  0.10380285654E+03  0.16837334676E+03  0.12500236167E+03 0.  0.
         23    2    1    2    0    0 -0.36663883885E+02 -0.24591056699E+02 -0.10989292211E+03  0.16413831745E+03  0.11364846007E+03 0.  0.
        -13    1    4    4    0    0 -0.31960792123E+02 -0.62591120463E+02 -0.10381872854E+03  0.12536937486E+03  0.10566000000E+00 0.  1.
         13    1    4    4    0    0 -0.47030917624E+01  0.38000063764E+02 -0.60741935678E+01  0.38768942592E+02  0.10566000000E+00 0. -1.
    9000005    1    3    3    0    0  0.24399854397E+02  0.39398719585E+02 -0.14457968339E+02  0.48555585137E+02  0.10000000000E+01 0.  0.
    9000005    1    3    3    0    0  0.12264029488E+02 -0.14807662886E+02  0.11826082487E+03  0.11981776162E+03  0.10000000000E+01 0.  0.
<mgrwt>
<rscale>  0 0.12982309E+03</rscale>
<asrwt>0</asrwt>
<pdfrwt beam="1">  1        1 0.25109354E-01 0.13256904E+03</pdfrwt>
<pdfrwt beam="2">  1       -1 0.26046287E-01 0.13256904E+03</pdfrwt>
<totfact> 0.23990192E+03</totfact>
</mgrwt>
</event>
<event>
 8    3  0.1560846E-003  0.1321618E+03  0.7818608E-02  0.1236765E+00
         -1   -1    0    0    0  501 -0.00000000000E+00  0.00000000000E+00  0.16197520171E+02  0.16197520955E+02  0.50400000000E-02 0.  1.
          1   -1    0    0  501    0  0.00000000000E+00 -0.00000000000E+00 -0.85499432219E+03  0.85499432220E+03  0.50400000000E-02 0. -1.
         25    2    1    2    0    0 -0.43036476581E+02  0.53774795808E+00 -0.51327791523E+03  0.53001976864E+03  0.12495723026E+03 0.  0.
         23    2    1    2    0    0  0.43036476581E+02 -0.53774795808E+00 -0.32551888679E+03  0.34117207452E+03  0.92646701442E+02 0.  0.
        -13    1    4    4    0    0 -0.43180268481E+01  0.13347960099E+02 -0.25338537281E+03  0.25377346534E+03  0.10566000000E+00 0. -1.
         13    1    4    4    0    0  0.47354503429E+02 -0.13885708057E+02 -0.72133513979E+02  0.87398609178E+02  0.10566000000E+00 0.  1.
    9000005    1    3    3    0    0 -0.85088489188E+02 -0.13927414995E+02 -0.29962009372E+03  0.31178073135E+03  0.10000000000E+01 0.  0.
    9000005    1    3    3    0    0  0.42052012607E+02  0.14465162953E+02 -0.21365782151E+03  0.21823903728E+03  0.10000000000E+01 0.  0.
<mgrwt>
<rscale>  0 0.12392112E+03</rscale>
<asrwt>0</asrwt>
<pdfrwt beam="2">  1        1 0.13153755E+00 0.13216178E+03</pdfrwt>
<pdfrwt beam="1">  1       -1 0.24919269E-02 0.13216178E+03</pdfrwt>
<totfact> 0.98871341E+03</totfact>
</mgrwt>
</event>
<event>
 8    3  0.1560846E-003  0.1261250E+03  0.7818608E-02  0.1248336E+00
         -1   -1    0    0    0  501 -0.00000000000E+00  0.00000000000E+00  0.41581168931E+02  0.41581169237E+02  0.50400000000E-02 0.  1.
          1   -1    0    0  501    0  0.00000000000E+00 -0.00000000000E+00 -0.30299719296E+03  0.30299719301E+03  0.50400000000E-02 0. -1.
         25    2    1    2    0    0 -0.15573086558E+02 -0.63362208551E+01 -0.11253997161E+03  0.16903476590E+03  0.12499935261E+03 0.  0.
         23    2    1    2    0    0  0.15573086558E+02  0.63362208551E+01 -0.14887605242E+03  0.17554359634E+03  0.91481181189E+02 0.  0.
        -13    1    4    4    0    0  0.24143570950E+02  0.34708136291E+02 -0.27115538539E+02  0.50227784515E+02  0.10566000000E+00 0.  1.
         13    1    4    4    0    0 -0.85704843921E+01 -0.28371915436E+02 -0.12176051388E+03  0.12531581183E+03  0.10566000000E+00 0. -1.
    9000005    1    3    3    0    0  0.11288509323E+02  0.47204724298E+02 -0.89439145193E+01  0.49363043319E+02  0.10000000000E+01 0.  0.
    9000005    1    3    3    0    0 -0.26861595881E+02 -0.53540945153E+02 -0.10359605709E+03  0.11967172258E+03  0.10000000000E+01 0.  0.
<mgrwt>
<rscale>  0 0.11687916E+03</rscale>
<asrwt>0</asrwt>
<pdfrwt beam="2">  1        1 0.46614951E-01 0.12612497E+03</pdfrwt>
<pdfrwt beam="1">  1       -1 0.63971031E-02 0.12612497E+03</pdfrwt>
<totfact> 0.98666505E+03</totfact>
</mgrwt>
</event>
<event>
 8    3  0.1560846E-003  0.1269504E+03  0.7818608E-02  0.1247742E+00
         -1   -1    0    0    0  501 -0.00000000000E+00  0.00000000000E+00  0.30218102845E+02  0.30218103265E+02  0.50400000000E-02 0.  1.
          1   -1    0    0  501    0  0.00000000000E+00 -0.00000000000E+00 -0.41390936918E+03  0.41390936921E+03  0.50400000000E-02 0. -1.
         25    2    1    2    0    0 -0.21920448300E+02 -0.32855206577E+01 -0.17757116818E+03  0.21828402387E+03  0.12500037843E+03 0.  0.
         23    2    1    2    0    0  0.21920448300E+02  0.32855206577E+01 -0.20612009816E+03  0.22584344861E+03  0.89601717141E+02 0.  0.
        -13    1    4    4    0    0  0.87449566233E+01 -0.21351510836E+02 -0.19403616435E+03  0.19540318708E+03  0.10566000000E+00 0. -1.
         13    1    4    4    0    0  0.13175491676E+02  0.24637031494E+02 -0.12083933814E+02  0.30440261533E+02  0.10566000000E+00 0.  1.
    9000005    1    3    3    0    0  0.75961873276E+00 -0.60123746521E+02 -0.55989134863E+02  0.82165839246E+02  0.10000000000E+01 0.  0.
    9000005    1    3    3    0    0 -0.22680067033E+02  0.56838225863E+02 -0.12158203331E+03  0.13611818462E+03  0.10000000000E+01 0.  0.
<mgrwt>
<rscale>  0 0.11722735E+03</rscale>
<asrwt>0</asrwt>
<pdfrwt beam="2">  1        1 0.63678360E-01 0.12695037E+03</pdfrwt>
<pdfrwt beam="1">  1       -1 0.46489392E-02 0.12695037E+03</pdfrwt>
<totfact> 0.10737958E+04</totfact>
</mgrwt>
</event>
<event>
 8    3  0.1560846E-003  0.1424040E+03  0.7818608E-02  0.1219998E+00
          1   -1    0    0  501    0  0.00000000000E+00  0.00000000000E+00  0.63492020621E+03  0.63492020623E+03  0.50400000000E-02 0. -1.
         -1   -1    0    0    0  501 -0.00000000000E+00 -0.00000000000E+00 -0.26858025356E+02  0.26858025829E+02  0.50400000000E-02 0.  1.
         25    2    1    2    0    0 -0.56653401592E+02 -0.37959869270E+02  0.28343151178E+03  0.31719447478E+03  0.12501341277E+03 0.  0.
         23    2    1    2    0    0  0.56653401592E+02  0.37959869270E+02  0.32463066908E+03  0.34458375729E+03  0.93286306029E+02 0.  0.
        -13    1    4    4    0    0 -0.13826007794E+02  0.20121342754E+02  0.20485164528E+02  0.31869735731E+02  0.10566000000E+00 0.  1.
         13    1    4    4    0    0  0.70479409386E+02  0.17838526516E+02  0.30414550455E+03  0.31271402156E+03  0.10566000000E+00 0. -1.
    9000005    1    3    3    0    0  0.15510696460E+01 -0.71190029506E+02  0.18379661885E+03  0.19711068773E+03  0.10000000000E+01 0.  0.
    9000005    1    3    3    0    0 -0.58204471238E+02  0.33230160236E+02  0.99634892930E+02  0.12008378704E+03  0.10000000000E+01 0.  0.
<mgrwt>
<rscale>  0 0.13515704E+03</rscale>
<asrwt>0</asrwt>
<pdfrwt beam="1">  1        1 0.97680034E-01 0.14240405E+03</pdfrwt>
<pdfrwt beam="2">  1       -1 0.41320038E-02 0.14240405E+03</pdfrwt>
<totfact> 0.73331613E+03</totfact>
</mgrwt>
</event>
<event>
 8    3  0.1560846E-003  0.1273308E+03  0.7818608E-02  0.1246312E+00
          1   -1    0    0  501    0  0.00000000000E+00  0.00000000000E+00  0.75048711583E+03  0.75048711584E+03  0.50400000000E-02 0. -1.
         -1   -1    0    0    0  501 -0.00000000000E+00 -0.00000000000E+00 -0.16518554074E+02  0.16518554843E+02  0.50400000000E-02 0.  1.
         25    2    1    2    0    0 -0.11822789542E+02 -0.21140148486E+02  0.38190630305E+03  0.40257366587E+03  0.12500579152E+03 0.  0.
         23    2    1    2    0    0  0.11822789542E+02  0.21140148486E+02  0.35206225870E+03  0.36443200481E+03  0.90973446124E+02 0.  0.
        -13    1    4    4    0    0  0.18696515931E+02 -0.33823287463E+02  0.15318610277E+03  0.15798597320E+03  0.10566000000E+00 0. -1.
         13    1    4    4    0    0 -0.68737263895E+01  0.54963435949E+02  0.19887615594E+03  0.20644603162E+03  0.10566000000E+00 0.  1.
    9000005    1    3    3    0    0 -0.48881727130E+02 -0.43127962641E+02  0.32339078823E+03  0.32989702381E+03  0.10000000000E+01 0.  0.
    9000005    1    3    3    0    0  0.37058937588E+02  0.21987814155E+02  0.58515514822E+02  0.72676642062E+02  0.10000000000E+01 0.  0.
<mgrwt>
<rscale>  0 0.11807196E+03</rscale>
<asrwt>0</asrwt>
<pdfrwt beam="1">  1        1 0.11545955E+00 0.12733080E+03</pdfrwt>
<pdfrwt beam="2">  1       -1 0.25413162E-02 0.12733080E+03</pdfrwt>
<totfact> 0.11665755E+04</totfact>
</mgrwt>
</event>
<event>
 8    3  0.1560846E-003  0.1368991E+03  0.7818608E-02  0.1229094E+00
         -1   -1    0    0    0  501 -0.00000000000E+00  0.00000000000E+00  0.14421831353E+03  0.14421831362E+03  0.50400000000E-02 0.  1.
          1   -1    0    0  501    0  0.00000000000E+00 -0.00000000000E+00 -0.10566507259E+03  0.10566507271E+03  0.50400000000E-02 0. -1.
         25    2    1    2    0    0 -0.95109332556E+01  0.55006767473E+02  0.38744268490E+02  0.14227603304E+03  0.12500059567E+03 0.  0.
         23    2    1    2    0    0  0.95109332556E+01 -0.55006767473E+02 -0.19102754915E+00  0.10760735329E+03  0.91995128522E+02 0.  0.
        -13    1    4    4    0    0 -0.23331670590E+02 -0.19781251210E+01  0.30206451197E+02  0.38219375838E+02  0.10566000000E+00 0.  1.
         13    1    4    4    0    0  0.32842603845E+02 -0.53028642352E+02 -0.30397478746E+02  0.69387977454E+02  0.10566000000E+00 0. -1.
    9000005    1    3    3    0    0  0.47412608241E+02  0.21796600213E+02  0.53491852481E+02  0.74735704205E+02  0.10000000000E+01 0.  0.
    9000005    1    3    3    0    0 -0.56923541497E+02  0.33210167260E+02 -0.14747583992E+02  0.67540328838E+02  0.10000000000E+01 0.  0.
<mgrwt>
<rscale>  0 0.12890230E+03</rscale>
<asrwt>0</asrwt>
<pdfrwt beam="2">  1        1 0.16256165E-01 0.13689905E+03</pdfrwt>
<pdfrwt beam="1">  1       -1 0.22187433E-01 0.13689905E+03</pdfrwt>
<totfact> 0.54267625E+03</totfact>
</mgrwt>
</event>
<event>
 8    3  0.1560846E-003  0.1272706E+03  0.7818608E-02  0.1244369E+00
         -1   -1    0    0    0  501 -0.00000000000E+00  0.00000000000E+00  0.75748212197E+01  0.75748228964E+01  0.50400000000E-02 0.  1.
          1   -1    0    0  501    0  0.00000000000E+00 -0.00000000000E+00 -0.16904244002E+04  0.16904244003E+04  0.50400000000E-02 0. -1.
         25    2    1    2    0    0 -0.22159937295E+02 -0.90768163224E+01 -0.87024672087E+03  0.87950392758E+03  0.12499740810E+03 0.  0.
         23    2    1    2    0    0  0.22159937295E+02  0.90768163224E+01 -0.81260285815E+03  0.81849529557E+03  0.95066778461E+02 0.  0.
        -13    1    4    4    0    0  0.35783293466E+02  0.42390331736E+02 -0.33727038379E+03  0.34180214637E+03  0.10566000000E+00 0.  1.
         13    1    4    4    0    0 -0.13623356170E+02 -0.33313515413E+02 -0.47533247436E+03  0.47669314920E+03  0.10566000000E+00 0. -1.
    9000005    1    3    3    0    0 -0.79614045579E+01  0.56279970633E+02 -0.29918086553E+03  0.30453408570E+03  0.10000000000E+01 0.  0.
    9000005    1    3    3    0    0 -0.14198532738E+02 -0.65356786955E+02 -0.57106585534E+03  0.57496984188E+03  0.10000000000E+01 0.  0.
<mgrwt>
<rscale>  0 0.11923203E+03</rscale>
<asrwt>0</asrwt>
<pdfrwt beam="2">  1        1 0.26006499E+00 0.12727059E+03</pdfrwt>
<pdfrwt beam="1">  1       -1 0.11653586E-02 0.12727059E+03</pdfrwt>
<totfact> 0.78874806E+03</totfact>
</mgrwt>
</event>
<event>
 8    3  0.1560846E-003  0.1376890E+03  0.7818608E-02  0.1228516E+00
          1   -1    0    0  501    0  0.00000000000E+00  0.00000000000E+00  0.91654953921E+03  0.91654953922E+03  0.50400000000E-02 0. -1.
         -1   -1    0    0    0  501 -0.00000000000E+00 -0.00000000000E+00 -0.17852578741E+02  0.17852579453E+02  0.50400000000E-02 0.  1.
         25    2    1    2    0    0 -0.54070233686E+02  0.20219707419E+02  0.36565399896E+03  0.39071869874E+03  0.12500331135E+03 0.  0.
         23    2    1    2    0    0  0.54070233686E+02 -0.20219707419E+02  0.53304296151E+03  0.54368341994E+03  0.90135650908E+02 0.  0.
        -13    1    4    4    0    0 -0.55822014440E+00 -0.91576386722E+01  0.15855457011E+01  0.93112338058E+01  0.10566000000E+00 0.  1.
         13    1    4    4    0    0  0.54628453831E+02 -0.11062068746E+02  0.53145741581E+03  0.53437218614E+03  0.10566000000E+00 0. -1.
    9000005    1    3    3    0    0 -0.30550596657E+02  0.51178234503E+02  0.33745371778E+03  0.34267851156E+03  0.10000000000E+01 0.  0.
    9000005    1    3    3    0    0 -0.23519637029E+02 -0.30958527084E+02  0.28200281182E+02  0.48040187176E+02  0.10000000000E+01 0.  0.
<mgrwt>
<rscale>  0 0.12928781E+03</rscale>
<asrwt>0</asrwt>
<pdfrwt beam="1">  1        1 0.14100766E+00 0.13768898E+03</pdfrwt>
<pdfrwt beam="2">  1       -1 0.27465499E-02 0.13768898E+03</pdfrwt>
<totfact> 0.77107731E+03</totfact>
</mgrwt>
</event>
<event>
 8    3  0.1560846E-003  0.1371236E+03  0.7818608E-02  0.1229332E+00
         -1   -1    0    0    0  501 -0.00000000000E+00  0.00000000000E+00  0.61592663129E+02  0.61592663335E+02  0.50400000000E-02 0.  1.
          1   -1    0    0  501    0  0.00000000000E+00 -0.00000000000E+00 -0.24117011650E+03  0.24117011656E+03  0.50400000000E-02 0. -1.
         25    2    1    2    0    0 -0.23468075231E+01  0.56322636729E+02 -0.97182834664E+02  0.16806962278E+03  0.12500059134E+03 0.  0.
         23    2    1    2    0    0  0.23468075231E+01 -0.56322636729E+02 -0.82394618711E+02  0.13469315711E+03  0.90419170900E+02 0.  0.
        -13    1    4    4    0    0  0.17079991603E+02  0.20999363348E+02 -0.14303075413E+02  0.30615167883E+02  0.10566000000E+00 0.  1.
         13    1    4    4    0    0 -0.14733184080E+02 -0.77322000077E+02 -0.68091543298E+02  0.10407798923E+03  0.10566000000E+00 0. -1.
    9000005    1    3    3    0    0  0.49320044407E+02  0.14708535760E+02 -0.86795810022E+02  0.10091243948E+03  0.10000000000E+01 0.  0.
    9000005    1    3    3    0    0 -0.51666851930E+02  0.41614100969E+02 -0.10387024642E+02  0.67157183300E+02  0.10000000000E+01 0.  0.
<mgrwt>
<rscale>  0 0.12874337E+03</rscale>
<asrwt>0</asrwt>
<pdfrwt beam="2">  1        1 0.37103094E-01 0.13712365E+03</pdfrwt>
<pdfrwt beam="1">  1       -1 0.94757944E-02 0.13712365E+03</pdfrwt>
<totfact> 0.72829869E+03</totfact>
</mgrwt>
</event>
<event>
 8    3  0.1560846E-003  0.1826518E+03  0.7818608E-02  0.1170546E+00
          1   -1    0    0  501    0  0.00000000000E+00  0.00000000000E+00  0.91813404386E+03  0.91813404387E+03  0.50400000000E-02 0. -1.
         -1   -1    0    0    0  501 -0.00000000000E+00 -0.00000000000E+00 -0.34195203948E+02  0.34195204320E+02  0.50400000000E-02 0.  1.
         25    2    1    2    0    0 -0.10711069302E+03 -0.79152367235E+02  0.35545161774E+03  0.39963424928E+03  0.12499553130E+03 0.  0.
         23    2    1    2    0    0  0.10711069302E+03  0.79152367235E+02  0.52848722217E+03  0.55269499891E+03  0.91843453899E+02 0.  0.
        -13    1    4    4    0    0  0.77060581929E+02  0.73239231368E+02  0.23883086824E+03  0.26142401016E+03  0.10566000000E+00 0.  1.
         13    1    4    4    0    0  0.30050111094E+02  0.59131358664E+01  0.28965635393E+03  0.29127098875E+03  0.10566000000E+00 0. -1.
    9000005    1    3    3    0    0 -0.11492236137E+03 -0.50372967623E+02  0.34644131952E+03  0.36846597249E+03  0.10000000000E+01 0.  0.
    9000005    1    3    3    0    0  0.78116683454E+01 -0.28779399612E+02  0.90102982194E+01  0.31168276795E+02  0.10000000000E+01 0.  0.
<mgrwt>
<rscale>  0 0.17719428E+03</rscale>
<asrwt>0</asrwt>
<pdfrwt beam="1">  1        1 0.14125138E+00 0.18265180E+03</pdfrwt>
<pdfrwt beam="2">  1       -1 0.52608010E-02 0.18265180E+03</pdfrwt>
<totfact> 0.29848257E+03</totfact>
</mgrwt>
</event>
<event>
 8    3  0.1560846E-003  0.3399752E+03  0.7818608E-02  0.1067974E+00
          1   -1    0    0  501    0  0.00000000000E+00  0.00000000000E+00  0.18808357395E+04  0.18808357395E+04  0.50400000000E-02 0. -1.
         -1   -1    0    0    0  501 -0.00000000000E+00 -0.00000000000E+00 -0.64497565778E+02  0.64497565975E+02  0.50400000000E-02 0.  1.
         25    2    1    2    0    0 -0.20583012129E+03  0.23998295272E+03  0.11918133602E+04  0.12393555676E+04  0.12500112356E+03 0.  0.
         23    2    1    2    0    0  0.20583012129E+03 -0.23998295272E+03  0.62452481350E+03  0.70597773789E+03  0.91735856062E+02 0.  0.
        -13    1    4    4    0    0  0.11352133439E+03 -0.15854671507E+03  0.46688406798E+03  0.50596926618E+03  0.10566000000E+00 0.  1.
         13    1    4    4    0    0  0.92308786903E+02 -0.81436237654E+02  0.15764074552E+03  0.20000847170E+03  0.10566000000E+00 0. -1.
    9000005    1    3    3    0    0 -0.39476187614E+02  0.14006634976E+03  0.48149127996E+03  0.50300278766E+03  0.10000000000E+01 0.  0.
    9000005    1    3    3    0    0 -0.16635393368E+03  0.99916602968E+02  0.71032208026E+03  0.73635277993E+03  0.10000000000E+01 0.  0.
<mgrwt>
<rscale>  0 0.33724905E+03</rscale>
<asrwt>0</asrwt>
<pdfrwt beam="1">  1        1 0.28935933E+00 0.33997520E+03</pdfrwt>
<pdfrwt beam="2">  1       -1 0.99227030E-02 0.33997520E+03</pdfrwt>
<totfact> 0.24618536E+02</totfact>
</mgrwt>
</event>
<event>
 8    3  0.1560846E-003  0.1407759E+03  0.7818608E-02  0.1223699E+00
         -1   -1    0    0    0  501 -0.00000000000E+00  0.00000000000E+00  0.14311303732E+04  0.14311303732E+04  0.50400000000E-02 0.  1.
          1   -1    0    0  501    0  0.00000000000E+00 -0.00000000000E+00 -0.11761084299E+02  0.11761085379E+02  0.50400000000E-02 0. -1.
         25    2    1    2    0    0 -0.52146720312E+02 -0.38377486831E+02  0.61283316811E+03  0.62879436483E+03  0.12500299744E+03 0.  0.
         23    2    1    2    0    0  0.52146720312E+02  0.38377486831E+02  0.80653612080E+03  0.81409709377E+03  0.89785588999E+02 0.  0.
        -13    1    4    4    0    0 -0.18421616937E+01  0.45888059152E+01  0.54124964095E+03  0.54127223806E+03  0.10566000000E+00 0.  1.
         13    1    4    4    0    0  0.53988882006E+02  0.33788680916E+02  0.26528647985E+03  0.27282485572E+03  0.10566000000E+00 0. -1.
    9000005    1    3    3    0    0 -0.41261794188E+02 -0.54533981520E+02  0.60315233179E+03  0.60701748422E+03  0.10000000000E+01 0.  0.
    9000005    1    3    3    0    0 -0.10884926124E+02  0.16156494689E+02  0.96808363208E+01  0.21776880613E+02  0.10000000000E+01 0.  0.
<mgrwt>
<rscale>  0 0.13256507E+03</rscale>
<asrwt>0</asrwt>
<pdfrwt beam="2">  1        1 0.18093977E-02 0.14077593E+03</pdfrwt>
<pdfrwt beam="1">  1       -1 0.22017390E+00 0.14077593E+03</pdfrwt>
<totfact> 0.84470915E+02</totfact>
</mgrwt>
</event>
<event>
 8    3  0.1560846E-003  0.1976030E+03  0.7818608E-02  0.1156278E+00
         -1   -1    0    0    0  501 -0.00000000000E+00  0.00000000000E+00  0.93880528787E+03  0.93880528788E+03  0.50400000000E-02 0.  1.
          1   -1    0    0  501    0  0.00000000000E+00 -0.00000000000E+00 -0.37745024637E+02  0.37745024973E+02  0.50400000000E-02 0. -1.
         25    2    1    2    0    0 -0.73470271879E+02 -0.13425392442E+03  0.51200090356E+03  0.54880950234E+03  0.12499979017E+03 0.  0.
         23    2    1    2    0    0  0.73470271879E+02  0.13425392442E+03  0.38905935967E+03  0.42774081051E+03  0.90404748528E+02 0.  0.
        -13    1    4    4    0    0 -0.15284457550E+02  0.59116173309E+02  0.12057943391E+03  0.13515823185E+03  0.10566000000E+00 0. -1.
         13    1    4    4    0    0  0.88754729429E+02  0.75137751114E+02  0.26847992576E+03  0.29258257867E+03  0.10566000000E+00 0.  1.
    9000005    1    3    3    0    0 -0.94900990084E+02 -0.96451179287E+02  0.26016980556E+03  0.29325476233E+03  0.10000000000E+01 0.  0.
    9000005    1    3    3    0    0  0.21430718205E+02 -0.37802745136E+02  0.25183109800E+03  0.25555474001E+03  0.10000000000E+01 0.  0.
<mgrwt>
<rscale>  0 0.19244094E+03</rscale>
<asrwt>0</asrwt>
<pdfrwt beam="2">  1        1 0.58069272E-02 0.19760300E+03</pdfrwt>
<pdfrwt beam="1">  1       -1 0.14443158E+00 0.19760300E+03</pdfrwt>
<totfact> 0.56289160E+02</totfact>
</mgrwt>
</event>
<event>
 8    3  0.1560846E-003  0.2116959E+03  0.7818608E-02  0.1144150E+00
          1   -1    0    0  501    0  0.00000000000E+00  0.00000000000E+00  0.87144280854E+02  0.87144281000E+02  0.50400000000E-02 0. -1.
         -1   -1    0    0    0  501 -0.00000000000E+00 -0.00000000000E+00 -0.48566007618E+03  0.48566007621E+03  0.50400000000E-02 0.  1.
         25    2    1    2    0    0  0.16981556936E+03 -0.18771452160E+02 -0.26118008164E+03  0.33619964104E+03  0.12500187431E+03 0.  0.
         23    2    1    2    0    0 -0.16981556936E+03  0.18771452160E+02 -0.13733571369E+03  0.23660471617E+03  0.89056153321E+02 0.  0.
        -13    1    4    4    0    0 -0.10664388199E+03 -0.29595113890E+02 -0.61126222170E+02  0.12643264821E+03  0.10566000000E+00 0. -1.
         13    1    4    4    0    0 -0.63171687371E+02  0.48366566049E+02 -0.76209491522E+02  0.11017206796E+03  0.10566000000E+00 0.  1.
    9000005    1    3    3    0    0  0.18166450093E+03  0.35015410642E+01 -0.20109255188E+03  0.27102299922E+03  0.10000000000E+01 0.  0.
    9000005    1    3    3    0    0 -0.11848931566E+02 -0.22272993224E+02 -0.60087529761E+02  0.65176641822E+02  0.10000000000E+01 0.  0.
<mgrwt>
<rscale>  0 0.20676945E+03</rscale>
<asrwt>0</asrwt>
<pdfrwt beam="1">  1        1 0.13406813E-01 0.21169592E+03</pdfrwt>
<pdfrwt beam="2">  1       -1 0.74716933E-01 0.21169592E+03</pdfrwt>
<totfact> 0.81067592E+02</totfact>
</mgrwt>
</event>
<event>
 8    3  0.1560846E-003  0.1842126E+03  0.7818608E-02  0.1169014E+00
         -1   -1    0    0    0  501 -0.00000000000E+00  0.00000000000E+00  0.17962990996E+02  0.17962991703E+02  0.50400000000E-02 0.  1.
          1   -1    0    0  501    0  0.00000000000E+00 -0.00000000000E+00 -0.17594707223E+04  0.17594707223E+04  0.50400000000E-02 0. -1.
         25    2    1    2    0    0  0.10171146077E+02 -0.13493330017E+03 -0.11080329847E+04  0.11232414524E+04  0.12499527018E+03 0.  0.
         23    2    1    2    0    0 -0.10171146077E+02  0.13493330017E+03 -0.63347474655E+03  0.65419226153E+03  0.91470283796E+02 0.  0.
        -13    1    4    4    0    0  0.19933614408E+02  0.19515903773E+02 -0.27461995391E+03  0.27603324027E+03  0.10566000000E+00 0. -1.
         13    1    4    4    0    0 -0.30104760484E+02  0.11541739639E+03 -0.35885479264E+03  0.37815902126E+03  0.10566000000E+00 0.  1.
    9000005    1    3    3    0    0  0.24126001379E+02  0.58758625291E+01 -0.50499195371E+02  0.56282843177E+02  0.10000000000E+01 0.  0.
    9000005    1    3    3    0    0 -0.13954855302E+02 -0.14080916269E+03 -0.10575337893E+04  0.10669586093E+04  0.10000000000E+01 0.  0.
<mgrwt>
<rscale>  0 0.17875454E+03</rscale>
<asrwt>0</asrwt>
<pdfrwt beam="2">  1        1 0.27068767E+00 0.18421255E+03</pdfrwt>
<pdfrwt beam="1">  1       -1 0.27635385E-02 0.18421255E+03</pdfrwt>
<totfact> 0.20614061E+03</totfact>
</mgrwt>
</event>
<event>
 8    3  0.1560846E-003  0.2248907E+03  0.7818608E-02  0.1133530E+00
          1   -1    0    0  501    0  0.00000000000E+00  0.00000000000E+00  0.19567250594E+04  0.19567250594E+04  0.50400000000E-02 0. -1.
         -1   -1    0    0    0  501 -0.00000000000E+00 -0.00000000000E+00 -0.25133545627E+02  0.25133546132E+02  0.50400000000E-02 0.  1.
         25    2    1    2    0    0  0.83329488999E+02 -0.16735702971E+03  0.78404692433E+03  0.81566256355E+03  0.12499463548E+03 0.  0.
         23    2    1    2    0    0 -0.83329488999E+02  0.16735702971E+03  0.11475445895E+04  0.11661960420E+04  0.90567347619E+02 0.  0.
        -13    1    4    4    0    0 -0.89039209818E+02  0.78962245585E+02  0.67962508754E+03  0.68996614981E+03  0.10566000000E+00 0. -1.
         13    1    4    4    0    0  0.57097208197E+01  0.88394784125E+02  0.46791950194E+03  0.47622989220E+03  0.10566000000E+00 0.  1.
    9000005    1    3    3    0    0  0.28363208285E+02 -0.10789884134E+03  0.64643492429E+03  0.65599218203E+03  0.10000000000E+01 0.  0.
    9000005    1    3    3    0    0  0.54966280714E+02 -0.59458188367E+02  0.13761200004E+03  0.15967038152E+03  0.10000000000E+01 0.  0.
<mgrwt>
<rscale>  0 0.22047384E+03</rscale>
<asrwt>0</asrwt>
<pdfrwt beam="1">  1        1 0.30103450E+00 0.22489072E+03</pdfrwt>
<pdfrwt beam="2">  1       -1 0.38667010E-02 0.22489072E+03</pdfrwt>
<totfact> 0.93509050E+02</totfact>
</mgrwt>
</event>
<event>
 8    3  0.1560846E-003  0.1935704E+03  0.7818608E-02  0.1160001E+00
         -1   -1    0    0    0  501 -0.00000000000E+00  0.00000000000E+00  0.54038595448E+03  0.54038595450E+03  0.50400000000E-02 0.  1.
          1   -1    0    0  501    0  0.00000000000E+00 -0.00000000000E+00 -0.62440568819E+02  0.62440569023E+02  0.50400000000E-02 0. -1.
         25    2    1    2    0    0 -0.52936815581E+02  0.13799161517E+03  0.23697386960E+03  0.30598383799E+03  0.12500200772E+03 0.  0.
         23    2    1    2    0    0  0.52936815581E+02 -0.13799161517E+03  0.24097151606E+03  0.29684268554E+03  0.90577679934E+02 0.  0.
        -13    1    4    4    0    0 -0.16261831418E+02 -0.21730557840E+02  0.95485564430E+01  0.28772389530E+02  0.10566000000E+00 0. -1.
         13    1    4    4    0    0  0.69198647000E+02 -0.11626105733E+03  0.23142295962E+03  0.26807029600E+03  0.10566000000E+00 0.  1.
    9000005    1    3    3    0    0  0.22595112346E+02  0.11061975462E+03  0.14701863062E+03  0.18537191525E+03  0.10000000000E+01 0.  0.
    9000005    1    3    3    0    0 -0.75531927927E+02  0.27371860551E+02  0.89955238986E+02  0.12061192274E+03  0.10000000000E+01 0.  0.
<mgrwt>
<rscale>  0 0.18830276E+03</rscale>
<asrwt>0</asrwt>
<pdfrwt beam="2">  1        1 0.96062417E-02 0.19357039E+03</pdfrwt>
<pdfrwt beam="1">  1       -1 0.83136298E-01 0.19357039E+03</pdfrwt>
<totfact> 0.10127949E+03</totfact>
</mgrwt>
</event>
<event>
 8    3  0.1560846E-003  0.1383404E+03  0.7818608E-02  0.1226044E+00
         -1   -1    0    0    0  501 -0.00000000000E+00  0.00000000000E+00  0.75974769850E+02  0.75974770018E+02  0.50400000000E-02 0.  1.
          1   -1    0    0  501    0  0.00000000000E+00 -0.00000000000E+00 -0.29072358297E+03  0.29072358301E+03  0.50400000000E-02 0. -1.
         25    2    1    2    0    0  0.58180869900E+02  0.11304000682E+02 -0.16330392061E+02  0.13930090480E+03  0.12500106527E+03 0.  0.
         23    2    1    2    0    0 -0.58180869900E+02 -0.11304000682E+02 -0.19841842106E+03  0.22739744824E+03  0.93951772708E+02 0.  0.
        -13    1    4    4    0    0  0.22686242622E+02  0.12307198862E+02 -0.34362986593E+02  0.42976258094E+02  0.10566000000E+00 0.  1.
         13    1    4    4    0    0 -0.80867112522E+02 -0.23611199544E+02 -0.16405543447E+03  0.18442119014E+03  0.10566000000E+00 0. -1.
    9000005    1    3    3    0    0  0.61749809218E+01 -0.47284926781E+02  0.21476160507E+02  0.52308891790E+02  0.10000000000E+01 0.  0.
    9000005    1    3    3    0    0  0.52005888978E+02  0.58588927464E+02 -0.37806552568E+02  0.86992013006E+02  0.10000000000E+01 0.  0.
<mgrwt>
<rscale>  0 0.13095586E+03</rscale>
<asrwt>0</asrwt>
<pdfrwt beam="2">  1        1 0.44726705E-01 0.13834038E+03</pdfrwt>
<pdfrwt beam="1">  1       -1 0.11688426E-01 0.13834038E+03</pdfrwt>
<totfact> 0.41938463E+03</totfact>
</mgrwt>
</event>
<event>
 8    3  0.1560846E-003  0.1411485E+03  0.7818608E-02  0.1222642E+00
         -1   -1    0    0    0  501 -0.00000000000E+00  0.00000000000E+00  0.79779019597E+02  0.79779019756E+02  0.50400000000E-02 0.  1.
          1   -1    0    0  501    0  0.00000000000E+00 -0.00000000000E+00 -0.21011223326E+03  0.21011223332E+03  0.50400000000E-02 0. -1.
         25    2    1    2    0    0 -0.47203217816E+02 -0.45450547520E+02 -0.42692771500E+02  0.14746375884E+03  0.12501596455E+03 0.  0.
         23    2    1    2    0    0  0.47203217816E+02  0.45450547520E+02 -0.87640442165E+02  0.14242749423E+03  0.91163852315E+02 0.  0.
        -13    1    4    4    0    0  0.13296758490E+02  0.67865282878E+02 -0.69069993146E+02  0.97740347470E+02  0.10566000000E+00 0. -1.
         13    1    4    4    0    0  0.33906459326E+02 -0.22414735357E+02 -0.18570449019E+02  0.44687146765E+02  0.10566000000E+00 0.  1.
    9000005    1    3    3    0    0 -0.37204926588E+02 -0.36662720307E+02  0.38679664367E+02  0.65003677267E+02  0.10000000000E+01 0.  0.
    9000005    1    3    3    0    0 -0.99982912285E+01 -0.87878272138E+01 -0.81372435867E+02  0.82460081576E+02  0.10000000000E+01 0.  0.
<mgrwt>
<rscale>  0 0.13329807E+03</rscale>
<asrwt>0</asrwt>
<pdfrwt beam="2">  1        1 0.32324959E-01 0.14114846E+03</pdfrwt>
<pdfrwt beam="1">  1       -1 0.12273695E-01 0.14114846E+03</pdfrwt>
<totfact> 0.58208728E+03</totfact>
</mgrwt>
</event>
<event>
 8    3  0.1560846E-003  0.2224668E+03  0.7818608E-02  0.1135144E+00
          1   -1    0    0  501    0  0.00000000000E+00  0.00000000000E+00  0.46896622148E+03  0.46896622150E+03  0.50400000000E-02 0. -1.
         -1   -1    0    0    0  501 -0.00000000000E+00 -0.00000000000E+00 -0.11292741868E+03  0.11292741879E+03  0.50400000000E-02 0.  1.
         25    2    1    2    0    0  0.18067100825E+03 -0.34944347797E+02  0.28949566643E+03  0.36510163444E+03  0.12501336699E+03 0.  0.
         23    2    1    2    0    0 -0.18067100825E+03  0.34944347797E+02  0.66543136365E+02  0.21679200585E+03  0.93314865587E+02 0.  0.
        -13    1    4    4    0    0 -0.91869874255E+02  0.35784432497E+01 -0.13838058661E+02  0.92975169175E+02  0.10566000000E+00 0.  1.
         13    1    4    4    0    0 -0.88801133993E+02  0.31365904548E+02  0.80381195026E+02  0.12381683668E+03  0.10566000000E+00 0. -1.
    9000005    1    3    3    0    0  0.17401923128E+03 -0.44858263649E+02  0.29964241963E+03  0.34940168333E+03  0.10000000000E+01 0.  0.
    9000005    1    3    3    0    0  0.66517769685E+01  0.99139158512E+01 -0.10146753202E+02  0.15699951111E+02  0.10000000000E+01 0.  0.
<mgrwt>
<rscale>  0 0.21831713E+03</rscale>
<asrwt>0</asrwt>
<pdfrwt beam="1">  1        1 0.72148649E-01 0.22246677E+03</pdfrwt>
<pdfrwt beam="2">  1       -1 0.17373449E-01 0.22246677E+03</pdfrwt>
<totfact> 0.12461438E+03</totfact>
</mgrwt>
</event>
<event>
 8    3  0.1560846E-003  0.1533518E+03  0.7818608E-02  0.1205155E+00
          1   -1    0    0  501    0  0.00000000000E+00  0.00000000000E+00  0.58841375914E+02  0.58841376130E+02  0.50400000000E-02 0. -1.
         -1   -1    0    0    0  501 -0.00000000000E+00 -0.00000000000E+00 -0.37787528757E+03  0.37787528760E+03  0.50400000000E-02 0.  1.
         25    2    1    2    0    0 -0.13317994116E+02 -0.87824106655E+02 -0.24726200994E+03  0.29095577435E+03  0.12500527346E+03 0.  0.
         23    2    1    2    0    0  0.13317994116E+02  0.87824106655E+02 -0.71771901716E+02  0.14576088938E+03  0.90579182597E+02 0.  0.
        -13    1    4    4    0    0  0.43600289847E+02  0.36634335762E+02 -0.62806833383E+01  0.57293262943E+02  0.10566000000E+00 0. -1.
         13    1    4    4    0    0 -0.30282295731E+02  0.51189770893E+02 -0.65491218377E+02  0.88467626437E+02  0.10566000000E+00 0.  1.
    9000005    1    3    3    0    0 -0.18566584765E+02 -0.48070496504E+02 -0.12825950512E+02  0.53113046519E+02  0.10000000000E+01 0.  0.
    9000005    1    3    3    0    0  0.52485906495E+01 -0.39753610151E+02 -0.23443605942E+03  0.23784272783E+03  0.10000000000E+01 0.  0.
<mgrwt>
<rscale>  0 0.14625241E+03</rscale>
<asrwt>0</asrwt>
<pdfrwt beam="1">  1        1 0.90525196E-02 0.15335176E+03</pdfrwt>
<pdfrwt beam="2">  1       -1 0.58134658E-01 0.15335176E+03</pdfrwt>
<totfact> 0.22131860E+03</totfact>
</mgrwt>
</event>
<event>
 8    3  0.1560846E-003  0.1536868E+03  0.7818608E-02  0.1203952E+00
         -1   -1    0    0    0  501 -0.00000000000E+00  0.00000000000E+00  0.12573943346E+03  0.12573943356E+03  0.50400000000E-02 0.  1.
          1   -1    0    0  501    0  0.00000000000E+00 -0.00000000000E+00 -0.37294218188E+03  0.37294218191E+03  0.50400000000E-02 0. -1.
         25    2    1    2    0    0  0.10444968633E+02 -0.88802873689E+02  0.60290540609E+02  0.16508961548E+03  0.12499833642E+03 0.  0.
         23    2    1    2    0    0 -0.10444968633E+02  0.88802873689E+02 -0.30749328903E+03  0.33359200000E+03  0.93468989081E+02 0.  0.
        -13    1    4    4    0    0 -0.27845527350E+01  0.10063610372E+03 -0.30220999757E+03  0.31853771033E+03  0.10566000000E+00 0. -1.
         13    1    4    4    0    0 -0.76604158981E+01 -0.11833230035E+02 -0.52832914604E+01  0.15054289670E+02  0.10566000000E+00 0.  1.
    9000005    1    3    3    0    0 -0.24802114606E+02 -0.94522104154E+02  0.78168579774E+02  0.12514351732E+03  0.10000000000E+01 0.  0.
    9000005    1    3    3    0    0  0.35247083239E+02  0.57192304645E+01 -0.17878039164E+02  0.39946098162E+02  0.10000000000E+01 0.  0.
<mgrwt>
<rscale>  0 0.14720389E+03</rscale>
<asrwt>0</asrwt>
<pdfrwt beam="2">  1        1 0.57375720E-01 0.15368680E+03</pdfrwt>
<pdfrwt beam="1">  1       -1 0.19344528E-01 0.15368680E+03</pdfrwt>
<totfact> 0.13986089E+03</totfact>
</mgrwt>
</event>
<event>
 8    3  0.1560846E-003  0.1329478E+03  0.7818608E-02  0.1237437E+00
          1   -1    0    0  501    0  0.00000000000E+00  0.00000000000E+00  0.14839715298E+04  0.14839715298E+04  0.50400000000E-02 0. -1.
         -1   -1    0    0    0  501 -0.00000000000E+00 -0.00000000000E+00 -0.95062764362E+01  0.95062777723E+01  0.50400000000E-02 0.  1.
         25    2    1    2    0    0 -0.34352066304E+02  0.29507713731E+02  0.68045304399E+03  0.69331915650E+03  0.12499735225E+03 0.  0.
         23    2    1    2    0    0  0.34352066304E+02 -0.29507713731E+02  0.79401220939E+03  0.80015865110E+03  0.88021069246E+02 0.  0.
        -13    1    4    4    0    0  0.39644571767E+02  0.19973855127E+02  0.25323203803E+03  0.25709360788E+03  0.10566000000E+00 0.  1.
         13    1    4    4    0    0 -0.52925054626E+01 -0.49481568858E+02  0.54078017136E+03  0.54306504322E+03  0.10566000000E+00 0. -1.
    9000005    1    3    3    0    0 -0.69395231126E+02 -0.14598451467E+02  0.47562477510E+03  0.48088329102E+03  0.10000000000E+01 0.  0.
    9000005    1    3    3    0    0  0.35043164822E+02  0.44106165199E+02  0.20482826889E+03  0.21243586548E+03  0.10000000000E+01 0.  0.
<mgrwt>
<rscale>  0 0.12349677E+03</rscale>
<asrwt>0</asrwt>
<pdfrwt beam="1">  1        1 0.22830326E+00 0.13294776E+03</pdfrwt>
<pdfrwt beam="2">  1       -1 0.14625045E-02 0.13294776E+03</pdfrwt>
<totfact> 0.77492447E+03</totfact>
</mgrwt>
</event>
<event>
 8    3  0.1560846E-003  0.1580711E+03  0.7818608E-02  0.1198880E+00
         -1   -1    0    0    0  501 -0.00000000000E+00  0.00000000000E+00  0.20597082553E+02  0.20597083170E+02  0.50400000000E-02 0.  1.
          1   -1    0    0  501    0  0.00000000000E+00 -0.00000000000E+00 -0.13072626595E+04  0.13072626595E+04  0.50400000000E-02 0. -1.
         25    2    1    2    0    0 -0.21374860585E+01  0.96732130366E+02 -0.99436375238E+03  0.10068494114E+04  0.12499916516E+03 0.  0.
         23    2    1    2    0    0  0.21374860585E+01 -0.96732130366E+02 -0.29230182461E+03  0.32101033132E+03  0.90805298608E+02 0.  0.
        -13    1    4    4    0    0  0.48458328487E+01 -0.45055278530E+01  0.58968031657E+01  0.88637085264E+01  0.10566000000E+00 0.  1.
         13    1    4    4    0    0 -0.27083467902E+01 -0.92226602513E+02 -0.29819862777E+03  0.31214662280E+03  0.10566000000E+00 0. -1.
    9000005    1    3    3    0    0  0.55687032443E+01  0.77439670320E+02 -0.24101553397E+03  0.25321413983E+03  0.10000000000E+01 0.  0.
    9000005    1    3    3    0    0 -0.77061893028E+01  0.19292460045E+02 -0.75334821841E+03  0.75363527157E+03  0.10000000000E+01 0.  0.
<mgrwt>
<rscale>  0 0.15130415E+03</rscale>
<asrwt>0</asrwt>
<pdfrwt beam="2">  1        1 0.20111727E+00 0.15807108E+03</pdfrwt>
<pdfrwt beam="1">  1       -1 0.31687830E-02 0.15807108E+03</pdfrwt>
<totfact> 0.33263405E+03</totfact>
</mgrwt>
</event>
<event>
 8    3  0.1560846E-003  0.1322754E+03  0.7818608E-02  0.1234066E+00
         -1   -1    0    0    0  501 -0.00000000000E+00  0.00000000000E+00  0.23822692310E+02  0.23822692844E+02  0.50400000000E-02 0.  1.
          1   -1    0    0  501    0  0.00000000000E+00 -0.00000000000E+00 -0.65773498630E+03  0.65773498632E+03  0.50400000000E-02 0. -1.
         25    2    1    2    0    0  0.26554022125E+02  0.34155739543E+02 -0.44351828858E+03  0.46282313704E+03  0.12500021294E+03 0.  0.
         23    2    1    2    0    0 -0.26554022125E+02 -0.34155739543E+02 -0.19039400541E+03  0.21873454213E+03  0.98606247211E+02 0.  0.
        -13    1    4    4    0    0 -0.13072388881E+02 -0.21851656947E+02 -0.19750943982E+03  0.19914409919E+03  0.10566000000E+00 0. -1.
         13    1    4    4    0    0 -0.13481633244E+02 -0.12304082596E+02  0.71154344086E+01  0.19590442933E+02  0.10566000000E+00 0.  1.
    9000005    1    3    3    0    0 -0.36970715017E+02  0.35915460696E+01 -0.30636650272E+03  0.30861167665E+03  0.10000000000E+01 0.  0.
    9000005    1    3    3    0    0  0.63524737142E+02  0.30564193474E+02 -0.13715178586E+03  0.15421146039E+03  0.10000000000E+01 0.  0.
<mgrwt>
<rscale>  0 0.12564431E+03</rscale>
<asrwt>0</asrwt>
<pdfrwt beam="2">  1        1 0.10118998E+00 0.13227541E+03</pdfrwt>
<pdfrwt beam="1">  1       -1 0.36650301E-02 0.13227541E+03</pdfrwt>
<totfact> 0.82887206E+03</totfact>
</mgrwt>
</event>
<event>
 8    3  0.1560846E-003  0.2146710E+03  0.7818608E-02  0.1141526E+00
         -1   -1    0    0    0  501 -0.00000000000E+00  0.00000000000E+00  0.54779480381E+02  0.54779480613E+02  0.50400000000E-02 0.  1.
          1   -1    0    0  501    0  0.00000000000E+00 -0.00000000000E+00 -0.98036373514E+03  0.98036373516E+03  0.50400000000E-02 0. -1.
         25    2    1    2    0    0 -0.17452366154E+03 -0.99714819371E-02 -0.71674624142E+03  0.74820371164E+03  0.12500044395E+03 0.  0.
         23    2    1    2    0    0  0.17452366154E+03  0.99714819371E-02 -0.20883801334E+03  0.28693950413E+03  0.90898045491E+02 0.  0.
        -13    1    4    4    0    0  0.34953485491E+02  0.77996382891E+01 -0.11015042372E+03  0.11582619529E+03  0.10566000000E+00 0.  1.
         13    1    4    4    0    0  0.13957017605E+03 -0.77896668071E+01 -0.98687589626E+02  0.17111330884E+03  0.10566000000E+00 0. -1.
    9000005    1    3    3    0    0 -0.14207719443E+03 -0.53721301062E+02 -0.51110897005E+03  0.53320285692E+03  0.10000000000E+01 0.  0.
    9000005    1    3    3    0    0 -0.32446467114E+02  0.53711329580E+02 -0.20563727137E+03  0.21500085472E+03  0.10000000000E+01 0.  0.
<mgrwt>
<rscale>  0 0.21005027E+03</rscale>
<asrwt>0</asrwt>
<pdfrwt beam="2">  1        1 0.15082518E+00 0.21467096E+03</pdfrwt>
<pdfrwt beam="1">  1       -1 0.84276131E-02 0.21467096E+03</pdfrwt>
<totfact> 0.13160978E+03</totfact>
</mgrwt>
</event>
<event>
 8    3  0.1560846E-003  0.1682054E+03  0.7818608E-02  0.1186615E+00
          1   -1    0    0  501    0  0.00000000000E+00  0.00000000000E+00  0.16027805265E+04  0.16027805265E+04  0.50400000000E-02 0. -1.
         -1   -1    0    0    0  501 -0.00000000000E+00 -0.00000000000E+00 -0.16001996735E+02  0.16001997529E+02  0.50400000000E-02 0.  1.
         25    2    1    2    0    0  0.10773210818E+03 -0.32591248394E+02  0.10292312564E+04  0.10428854354E+04  0.12499862271E+03 0.  0.
         23    2    1    2    0    0 -0.10773210818E+03  0.32591248394E+02  0.55754727335E+03  0.57589708858E+03  0.90167056183E+02 0.  0.
        -13    1    4    4    0    0 -0.43157234882E+02  0.64523390803E+01  0.41447268114E+03  0.41676347510E+03  0.10566000000E+00 0. -1.
         13    1    4    4    0    0 -0.64574873301E+02  0.26138909313E+02  0.14307459220E+03  0.15913361348E+03  0.10566000000E+00 0.  1.
    9000005    1    3    3    0    0  0.98506206200E+02  0.26055670609E+02  0.49603027919E+03  0.50638859437E+03  0.10000000000E+01 0.  0.
    9000005    1    3    3    0    0  0.92259019824E+01 -0.58646919002E+02  0.53320097721E+03  0.53649684107E+03  0.10000000000E+01 0.  0.
<mgrwt>
<rscale>  0 0.16185790E+03</rscale>
<asrwt>0</asrwt>
<pdfrwt beam="1">  1        1 0.24658156E+00 0.16820539E+03</pdfrwt>
<pdfrwt beam="2">  1       -1 0.24618463E-02 0.16820539E+03</pdfrwt>
<totfact> 0.30783501E+03</totfact>
</mgrwt>
</event>
<event>
 8    3  0.1560846E-003  0.1579993E+03  0.7818608E-02  0.1200186E+00
          1   -1    0    0  501    0  0.00000000000E+00  0.00000000000E+00  0.34894797222E+03  0.34894797225E+03  0.50400000000E-02 0. -1.
         -1   -1    0    0    0  501 -0.00000000000E+00 -0.00000000000E+00 -0.61090309898E+02  0.61090310106E+02  0.50400000000E-02 0.  1.
         25    2    1    2    0    0 -0.20421489774E+02  0.94451827617E+02  0.19496637972E+03  0.25094955587E+03  0.12500242153E+03 0.  0.
         23    2    1    2    0    0  0.20421489774E+02 -0.94451827617E+02  0.92891282601E+02  0.15908872649E+03  0.85686915729E+02 0.  0.
        -13    1    4    4    0    0 -0.32818227638E+02 -0.48185910571E+02  0.36498160624E+02  0.68782591808E+02  0.10566000000E+00 0.  1.
         13    1    4    4    0    0  0.53239717413E+02 -0.46265917047E+02  0.56393121977E+02  0.90306134679E+02  0.10566000000E+00 0. -1.
    9000005    1    3    3    0    0 -0.55060364938E+02  0.32191054854E+01  0.10305355962E+03  0.11688901821E+03  0.10000000000E+01 0.  0.
    9000005    1    3    3    0    0  0.34638875164E+02  0.91232722132E+02  0.91912820092E+02  0.13406053766E+03  0.10000000000E+01 0.  0.
<mgrwt>
<rscale>  0 0.15023370E+03</rscale>
<asrwt>0</asrwt>
<pdfrwt beam="1">  1        1 0.53684304E-01 0.15799934E+03</pdfrwt>
<pdfrwt beam="2">  1       -1 0.93985091E-02 0.15799934E+03</pdfrwt>
<totfact> 0.47010690E+03</totfact>
</mgrwt>
</event>
<event>
 8    3  0.1560846E-003  0.1557144E+03  0.7818608E-02  0.1203014E+00
          1   -1    0    0  501    0  0.00000000000E+00  0.00000000000E+00  0.21172363582E+03  0.21172363588E+03  0.50400000000E-02 0. -1.
         -1   -1    0    0    0  501 -0.00000000000E+00 -0.00000000000E+00 -0.13103736058E+03  0.13103736068E+03  0.50400000000E-02 0.  1.
         25    2    1    2    0    0 -0.50116984232E+02 -0.78167502681E+02  0.13368857971E+03  0.20523065392E+03  0.12500045751E+03 0.  0.
         23    2    1    2    0    0  0.50116984232E+02  0.78167502681E+02 -0.53002304483E+02  0.13753034264E+03  0.86507111167E+02 0.  0.
        -13    1    4    4    0    0  0.35182349479E+02  0.32705750517E+02 -0.71575199087E+02  0.86200255916E+02  0.10566000000E+00 0.  1.
         13    1    4    4    0    0  0.14934634753E+02  0.45461752164E+02  0.18572894604E+02  0.51330086724E+02  0.10566000000E+00 0. -1.
    9000005    1    3    3    0    0 -0.79754811030E+02 -0.90400378601E+02  0.12078242723E+03  0.17065301949E+03  0.10000000000E+01 0.  0.
    9000005    1    3    3    0    0  0.29637826797E+02  0.12232875920E+02  0.12906152480E+02  0.34577634425E+02  0.10000000000E+01 0.  0.
<mgrwt>
<rscale>  0 0.14795101E+03</rscale>
<asrwt>0</asrwt>
<pdfrwt beam="1">  1        1 0.32572867E-01 0.15571443E+03</pdfrwt>
<pdfrwt beam="2">  1       -1 0.20159594E-01 0.15571443E+03</pdfrwt>
<totfact> 0.26494995E+03</totfact>
</mgrwt>
</event>
<event>
 8    3  0.1560846E-003  0.1726633E+03  0.7818608E-02  0.1177835E+00
         -1   -1    0    0    0  501 -0.00000000000E+00  0.00000000000E+00  0.12357474642E+04  0.12357474642E+04  0.50400000000E-02 0.  1.
          1   -1    0    0  501    0  0.00000000000E+00 -0.00000000000E+00 -0.25556502194E+02  0.25556502691E+02  0.50400000000E-02 0. -1.
         25    2    1    2    0    0 -0.11282090079E+03  0.38193899834E+02  0.83250840827E+03  0.85022517505E+03  0.12500107523E+03 0.  0.
         23    2    1    2    0    0  0.11282090079E+03 -0.38193899834E+02  0.37768255374E+03  0.41107879186E+03  0.11024668737E+03 0.  0.
        -13    1    4    4    0    0  0.46367351954E+02 -0.21376438136E+02  0.35717114145E+02  0.62310567655E+02  0.10566000000E+00 0. -1.
         13    1    4    4    0    0  0.66453548832E+02 -0.16817461698E+02  0.34196543960E+03  0.34876822420E+03  0.10566000000E+00 0.  1.
    9000005    1    3    3    0    0 -0.19392608927E+01  0.34993453270E+02  0.57711854373E+02  0.67527480626E+02  0.10000000000E+01 0.  0.
    9000005    1    3    3    0    0 -0.11088163989E+03  0.32004465643E+01  0.77479655389E+03  0.78269769442E+03  0.10000000000E+01 0.  0.
<mgrwt>
<rscale>  0 0.17001230E+03</rscale>
<asrwt>0</asrwt>
<pdfrwt beam="2">  1        1 0.39317704E-02 0.17266325E+03</pdfrwt>
<pdfrwt beam="1">  1       -1 0.19011496E+00 0.17266325E+03</pdfrwt>
<totfact> 0.45265476E+02</totfact>
</mgrwt>
</event>
<event>
 8    3  0.1560846E-003  0.1290407E+03  0.7818608E-02  0.1230256E+00
         -1   -1    0    0    0  501 -0.00000000000E+00  0.00000000000E+00  0.45522425788E+03  0.45522425791E+03  0.50400000000E-02 0.  1.
          1   -1    0    0  501    0  0.00000000000E+00 -0.00000000000E+00 -0.47876794369E+02  0.47876794634E+02  0.50400000000E-02 0. -1.
         25    2    1    2    0    0 -0.10050781979E+02  0.33837936136E+01  0.73978564283E+02  0.14562890506E+03  0.12498992655E+03 0.  0.
         23    2    1    2    0    0  0.10050781979E+02 -0.33837936136E+01  0.33336889923E+03  0.35747214748E+03  0.12860421833E+03 0.  0.
        -13    1    4    4    0    0 -0.47555057555E+02 -0.12864464842E+02  0.25518185841E+03  0.25989376672E+03  0.10566000000E+00 0.  1.
         13    1    4    4    0    0  0.57605839534E+02  0.94806712285E+01  0.78187040822E+02  0.97578380761E+02  0.10566000000E+00 0. -1.
    9000005    1    3    3    0    0 -0.42121581910E+02  0.46097273456E+02  0.11633091090E+02  0.63525704176E+02  0.10000000000E+01 0.  0.
    9000005    1    3    3    0    0  0.32070799931E+02 -0.42713479843E+02  0.62345473193E+02  0.82103200889E+02  0.10000000000E+01 0.  0.
<mgrwt>
<rscale>  0 0.12813073E+03</rscale>
<asrwt>0</asrwt>
<pdfrwt beam="2">  1        1 0.73656608E-02 0.12904074E+03</pdfrwt>
<pdfrwt beam="1">  1       -1 0.70034500E-01 0.12904074E+03</pdfrwt>
<totfact> 0.20216286E+03</totfact>
</mgrwt>
</event>
<event>
 8    3  0.1560846E-003  0.1331941E+03  0.7818608E-02  0.1235675E+00
          1   -1    0    0  501    0  0.00000000000E+00  0.00000000000E+00  0.10378190325E+04  0.10378190325E+04  0.50400000000E-02 0. -1.
         -1   -1    0    0    0  501 -0.00000000000E+00 -0.00000000000E+00 -0.15381803822E+02  0.15381804648E+02  0.50400000000E-02 0.  1.
         25    2    1    2    0    0 -0.78500333481E+01 -0.45317636037E+02  0.37904112909E+03  0.40176216427E+03  0.12500139174E+03 0.  0.
         23    2    1    2    0    0  0.78500333481E+01  0.45317636037E+02  0.64339609954E+03  0.65143867285E+03  0.91096061462E+02 0.  0.
        -13    1    4    4    0    0  0.14042898849E+02  0.69858313633E+02  0.55279862255E+03  0.55737215148E+03  0.10566000000E+00 0. -1.
         13    1    4    4    0    0 -0.61928655009E+01 -0.24540677595E+02  0.90597476992E+02  0.94066521362E+02  0.10566000000E+00 0.  1.
    9000005    1    3    3    0    0 -0.59247746442E+02 -0.36422301509E+02  0.29297319102E+03  0.30111653917E+03  0.10000000000E+01 0.  0.
    9000005    1    3    3    0    0  0.51397713094E+02 -0.88953345286E+01  0.86067938066E+02  0.10064562509E+03  0.10000000000E+01 0.  0.
<mgrwt>
<rscale>  0 0.12461342E+03</rscale>
<asrwt>0</asrwt>
<pdfrwt beam="1">  1        1 0.15966446E+00 0.13319407E+03</pdfrwt>
<pdfrwt beam="2">  1       -1 0.23664315E-02 0.13319407E+03</pdfrwt>
<totfact> 0.77705901E+03</totfact>
</mgrwt>
</event>
<event>
 8    3  0.1560846E-003  0.1425964E+03  0.7818608E-02  0.1222994E+00
         -1   -1    0    0    0  501 -0.00000000000E+00  0.00000000000E+00  0.58317651710E+02  0.58317651928E+02  0.50400000000E-02 0.  1.
          1   -1    0    0  501    0  0.00000000000E+00 -0.00000000000E+00 -0.41175888956E+03  0.41175888959E+03  0.50400000000E-02 0. -1.
         25    2    1    2    0    0  0.42938360887E+02  0.53485040119E+02 -0.55295164161E+02  0.15294207064E+03  0.12501747654E+03 0.  0.
         23    2    1    2    0    0 -0.42938360887E+02 -0.53485040119E+02 -0.29814607369E+03  0.31713447088E+03  0.83539445833E+02 0.  0.
        -13    1    4    4    0    0 -0.36476613274E+02 -0.50990295521E+02 -0.94710591586E+02  0.11358107622E+03  0.10566000000E+00 0.  1.
         13    1    4    4    0    0 -0.64617476129E+01 -0.24947445982E+01 -0.20343548210E+03  0.20355339465E+03  0.10566000000E+00 0. -1.
    9000005    1    3    3    0    0  0.29113643085E+01  0.19870002872E+02 -0.88667759182E+02  0.90919000074E+02  0.10000000000E+01 0.  0.
    9000005    1    3    3    0    0  0.40026996579E+02  0.33615037248E+02  0.33372595020E+02  0.62023070568E+02  0.10000000000E+01 0.  0.
<mgrwt>
<rscale>  0 0.13305356E+03</rscale>
<asrwt>0</asrwt>
<pdfrwt beam="2">  1        1 0.63347520E-01 0.14259636E+03</pdfrwt>
<pdfrwt beam="1">  1       -1 0.89719467E-02 0.14259636E+03</pdfrwt>
<totfact> 0.40754544E+03</totfact>
</mgrwt>
</event>
<event>
 8    3  0.1560846E-003  0.1462721E+03  0.7818608E-02  0.1214753E+00
          1   -1    0    0  501    0  0.00000000000E+00  0.00000000000E+00  0.13399213060E+03  0.13399213070E+03  0.50400000000E-02 0. -1.
         -1   -1    0    0    0  501 -0.00000000000E+00 -0.00000000000E+00 -0.19035041221E+03  0.19035041228E+03  0.50400000000E-02 0.  1.
         25    2    1    2    0    0 -0.73441175129E+02  0.19491852921E+02 -0.12009835589E+03  0.18925942520E+03  0.12498790504E+03 0.  0.
         23    2    1    2    0    0  0.73441175129E+02 -0.19491852921E+02  0.63740074279E+02  0.13508311777E+03  0.91712120806E+02 0.  0.
        -13    1    4    4    0    0  0.17646871896E+01  0.31045120137E+02  0.12527597076E+02  0.33524102639E+02  0.10566000000E+00 0. -1.
         13    1    4    4    0    0  0.71676487939E+02 -0.50536973057E+02  0.51212477203E+02  0.10155901513E+03  0.10566000000E+00 0.  1.
    9000005    1    3    3    0    0 -0.18208316683E+02 -0.20648441938E+02 -0.11775421416E+03  0.12093368390E+03  0.10000000000E+01 0.  0.
    9000005    1    3    3    0    0 -0.55232858446E+02  0.40140294859E+02 -0.23441417326E+01  0.68325741298E+02  0.10000000000E+01 0.  0.
<mgrwt>
<rscale>  0 0.13894674E+03</rscale>
<asrwt>0</asrwt>
<pdfrwt beam="1">  1        1 0.20614174E-01 0.14627206E+03</pdfrwt>
<pdfrwt beam="2">  1       -1 0.29284679E-01 0.14627206E+03</pdfrwt>
<totfact> 0.25430413E+03</totfact>
</mgrwt>
</event>
<event>
 8    3  0.1560846E-003  0.2107008E+03  0.7818608E-02  0.1144753E+00
         -1   -1    0    0    0  501 -0.00000000000E+00  0.00000000000E+00  0.33205329438E+02  0.33205329821E+02  0.50400000000E-02 0.  1.
          1   -1    0    0  501    0  0.00000000000E+00 -0.00000000000E+00 -0.15015547452E+04  0.15015547452E+04  0.50400000000E-02 0. -1.
         25    2    1    2    0    0  0.31624789623E+02 -0.16664086105E+03 -0.10903026276E+04  0.11104749739E+04  0.12500217652E+03 0.  0.
         23    2    1    2    0    0 -0.31624789623E+02  0.16664086105E+03 -0.37804678819E+03  0.42428510110E+03  0.91264281446E+02 0.  0.
        -13    1    4    4    0    0 -0.54975314205E+02  0.11815273877E+03 -0.20367577095E+03  0.24179781986E+03  0.10566000000E+00 0.  1.
         13    1    4    4    0    0  0.23350524583E+02  0.48488122285E+02 -0.17437101724E+03  0.18248728125E+03  0.10566000000E+00 0. -1.
    9000005    1    3    3    0    0  0.37940615699E+02  0.30983502667E+01 -0.27857147043E+03  0.28116214936E+03  0.10000000000E+01 0.  0.
    9000005    1    3    3    0    0 -0.63158260765E+01 -0.16973921132E+03 -0.81173115716E+03  0.82931282459E+03  0.10000000000E+01 0.  0.
<mgrwt>
<rscale>  0 0.20602467E+03</rscale>
<asrwt>0</asrwt>
<pdfrwt beam="2">  1        1 0.23100837E+00 0.21070085E+03</pdfrwt>
<pdfrwt beam="1">  1       -1 0.51085134E-02 0.21070085E+03</pdfrwt>
<totfact> 0.12206283E+03</totfact>
</mgrwt>
</event>
<event>
 8    3  0.1560846E-003  0.1312595E+03  0.7818608E-02  0.1237698E+00
         -1   -1    0    0    0  501 -0.00000000000E+00  0.00000000000E+00  0.30711016199E+02  0.30711016613E+02  0.50400000000E-02 0.  1.
          1   -1    0    0  501    0  0.00000000000E+00 -0.00000000000E+00 -0.44499355683E+03  0.44499355686E+03  0.50400000000E-02 0. -1.
         25    2    1    2    0    0 -0.38428088556E+02 -0.11149098912E+02 -0.24334401217E+03  0.27648754612E+03  0.12501213742E+03 0.  0.
         23    2    1    2    0    0  0.38428088556E+02  0.11149098912E+02 -0.17093852846E+03  0.19921702736E+03  0.94161685835E+02 0.  0.
        -13    1    4    4    0    0  0.19012102148E+02  0.19122084537E+02  0.29612329930E-01  0.26965277415E+02  0.10566000000E+00 0.  1.
         13    1    4    4    0    0  0.19415986408E+02 -0.79729856259E+01 -0.17096814079E+03  0.17225174994E+03  0.10566000000E+00 0. -1.
    9000005    1    3    3    0    0 -0.89935766390E+00 -0.27701284975E+02  0.19343468930E+01  0.27801290102E+02  0.10000000000E+01 0.  0.
    9000005    1    3    3    0    0 -0.37528730892E+02  0.16552186063E+02 -0.24527835906E+03  0.24868625602E+03  0.10000000000E+01 0.  0.
<mgrwt>
<rscale>  0 0.12333267E+03</rscale>
<asrwt>0</asrwt>
<pdfrwt beam="2">  1        1 0.68460543E-01 0.13125949E+03</pdfrwt>
<pdfrwt beam="1">  1       -1 0.47247721E-02 0.13125949E+03</pdfrwt>
<totfact> 0.95878753E+03</totfact>
</mgrwt>
</event>
<event>
 8    3  0.1560846E-003  0.1843417E+03  0.7818608E-02  0.1168837E+00
         -1   -1    0    0    0  501 -0.00000000000E+00  0.00000000000E+00  0.47042008856E+02  0.47042009126E+02  0.50400000000E-02 0.  1.
          1   -1    0    0  501    0  0.00000000000E+00 -0.00000000000E+00 -0.10216352522E+04  0.10216352522E+04  0.50400000000E-02 0. -1.
         25    2    1    2    0    0  0.13282303048E+03 -0.26757037336E+02 -0.18085655645E+03  0.25824589181E+03  0.12499580053E+03 0.  0.
         23    2    1    2    0    0 -0.13282303048E+03  0.26757037336E+02 -0.79373668690E+03  0.81043136954E+03  0.91777884719E+02 0.  0.
        -13    1    4    4    0    0 -0.11008677544E+03  0.15832016441E+02 -0.38039593849E+03  0.39632162704E+03  0.10566000000E+00 0.  1.
         13    1    4    4    0    0 -0.22736255045E+02  0.10925020895E+02 -0.41334074841E+03  0.41410974250E+03  0.10566000000E+00 0. -1.
    9000005    1    3    3    0    0  0.71021303379E+02 -0.21509206001E+02 -0.18163215763E+03  0.19620884833E+03  0.10000000000E+01 0.  0.
    9000005    1    3    3    0    0  0.61801727106E+02 -0.52478313349E+01  0.77560117738E+00  0.62037043484E+02  0.10000000000E+01 0.  0.
<mgrwt>
<rscale>  0 0.17893534E+03</rscale>
<asrwt>0</asrwt>
<pdfrwt beam="2">  1        1 0.15717464E+00 0.18434166E+03</pdfrwt>
<pdfrwt beam="1">  1       -1 0.72372329E-02 0.18434166E+03</pdfrwt>
<totfact> 0.15456403E+03</totfact>
</mgrwt>
</event>
<event>
 8    3  0.1560846E-003  0.1364340E+03  0.7818608E-02  0.1229449E+00
          1   -1    0    0  501    0  0.00000000000E+00  0.00000000000E+00  0.98386972866E+02  0.98386972995E+02  0.50400000000E-02 0. -1.
         -1   -1    0    0    0  501 -0.00000000000E+00 -0.00000000000E+00 -0.15195389861E+03  0.15195389870E+03  0.50400000000E-02 0.  1.
         25    2    1    2    0    0 -0.32857766279E+02  0.43696982388E+02 -0.34852375174E+02  0.14081517272E+03  0.12500066295E+03 0.  0.
         23    2    1    2    0    0  0.32857766279E+02 -0.43696982388E+02 -0.18714550573E+02  0.10952569897E+03  0.93040772014E+02 0.  0.
        -13    1    4    4    0    0 -0.13312001800E+02  0.14282973040E+02 -0.28728292786E+02  0.34735265671E+02  0.10566000000E+00 0.  1.
         13    1    4    4    0    0  0.46169768079E+02 -0.57979955428E+02  0.10013742212E+02  0.74790433299E+02  0.10566000000E+00 0. -1.
    9000005    1    3    3    0    0 -0.72419763870E+02  0.58240590786E+02 -0.32960801034E+02  0.98610359592E+02  0.10000000000E+01 0.  0.
    9000005    1    3    3    0    0  0.39561997591E+02 -0.14543608398E+02 -0.18915741402E+01  0.42204813130E+02  0.10000000000E+01 0.  0.
<mgrwt>
<rscale>  0 0.12866556E+03</rscale>
<asrwt>0</asrwt>
<pdfrwt beam="1">  1        1 0.15136457E-01 0.13643396E+03</pdfrwt>
<pdfrwt beam="2">  1       -1 0.23377523E-01 0.13643396E+03</pdfrwt>
<totfact> 0.54644913E+03</totfact>
</mgrwt>
</event>
<event>
 8    3  0.1560846E-003  0.1923523E+03  0.7818608E-02  0.1160772E+00
          1   -1    0    0  501    0  0.00000000000E+00  0.00000000000E+00  0.58340567268E+03  0.58340567270E+03  0.50400000000E-02 0. -1.
         -1   -1    0    0    0  501 -0.00000000000E+00 -0.00000000000E+00 -0.71659383842E+02  0.71659384019E+02  0.50400000000E-02 0.  1.
         25    2    1    2    0    0  0.14590724665E+03  0.93159671067E+01  0.41256072989E+03  0.45519861601E+03  0.12499484907E+03 0.  0.
         23    2    1    2    0    0 -0.14590724665E+03 -0.93159671067E+01  0.99185558945E+02  0.19986644072E+03  0.93451094974E+02 0.  0.
        -13    1    4    4    0    0 -0.34664368264E+02 -0.23838358422E+01 -0.17155416013E+02  0.38750749194E+02  0.10566000000E+00 0.  1.
         13    1    4    4    0    0 -0.11124287839E+03 -0.69321312645E+01  0.11634097496E+03  0.16111569152E+03  0.10566000000E+00 0. -1.
    9000005    1    3    3    0    0  0.14744942262E+02 -0.24008606207E+02  0.90682657664E+01  0.29615197759E+02  0.10000000000E+01 0.  0.
    9000005    1    3    3    0    0  0.13116230439E+03  0.33324573314E+02  0.40349246413E+03  0.42558341825E+03  0.10000000000E+01 0.  0.
<mgrwt>
<rscale>  0 0.18746052E+03</rscale>
<asrwt>0</asrwt>
<pdfrwt beam="1">  1        1 0.89754716E-01 0.19235234E+03</pdfrwt>
<pdfrwt beam="2">  1       -1 0.11024521E-01 0.19235234E+03</pdfrwt>
<totfact> 0.19007604E+03</totfact>
</mgrwt>
</event>
<event>
 8    3  0.1560846E-003  0.1255364E+03  0.7818608E-02  0.1249408E+00
          1   -1    0    0  501    0  0.00000000000E+00  0.00000000000E+00  0.28770656144E+04  0.28770656144E+04  0.50400000000E-02 0. -1.
         -1   -1    0    0    0  501 -0.00000000000E+00 -0.00000000000E+00 -0.41920411908E+01  0.41920442206E+01  0.50400000000E-02 0.  1.
         25    2    1    2    0    0  0.96831142872E+00 -0.11540864552E+02  0.14709024199E+04  0.14762497455E+04  0.12500101177E+03 0.  0.
         23    2    1    2    0    0 -0.96831142872E+00  0.11540864552E+02  0.14019711533E+04  0.14050079131E+04  0.91596900291E+02 0.  0.
        -13    1    4    4    0    0 -0.24474417676E+02 -0.23239173285E+01  0.12703211682E+04  0.12705590420E+04  0.10566000000E+00 0. -1.
         13    1    4    4    0    0  0.23506106247E+02  0.13864781880E+02  0.13164998511E+03  0.13444887114E+03  0.10566000000E+00 0.  1.
    9000005    1    3    3    0    0  0.60886635383E+02  0.10243679549E+02  0.70967409632E+03  0.71235555611E+03  0.10000000000E+01 0.  0.
    9000005    1    3    3    0    0 -0.59918323954E+02 -0.21784544101E+02  0.76122832357E+03  0.76389418934E+03  0.10000000000E+01 0.  0.
<mgrwt>
<rscale>  0 0.11625413E+03</rscale>
<asrwt>0</asrwt>
<pdfrwt beam="1">  1        1 0.44262502E+00 0.12553638E+03</pdfrwt>
<pdfrwt beam="2">  1       -1 0.64493032E-03 0.12553638E+03</pdfrwt>
<totfact> 0.31282610E+03</totfact>
</mgrwt>
</event>
<event>
 8    3  0.1560846E-003  0.1412634E+03  0.7818608E-02  0.1228757E+00
          1   -1    0    0  501    0  0.00000000000E+00  0.00000000000E+00  0.54000475484E+02  0.54000475719E+02  0.50400000000E-02 0. -1.
         -1   -1    0    0    0  501 -0.00000000000E+00 -0.00000000000E+00 -0.26647276200E+03  0.26647276205E+03  0.50400000000E-02 0.  1.
         25    2    1    2    0    0 -0.65590784217E+02  0.52562343641E+01 -0.12273545793E+03  0.18713452270E+03  0.12500223189E+03 0.  0.
         23    2    1    2    0    0  0.65590784217E+02 -0.52562343641E+01 -0.89736828585E+02  0.13333871507E+03  0.73462477208E+02 0.  0.
        -13    1    4    4    0    0  0.12479014976E+01  0.24301411947E+02 -0.89842765257E+01  0.25939241884E+02  0.10566000000E+00 0. -1.
         13    1    4    4    0    0  0.64342882720E+02 -0.29557646311E+02 -0.80752552059E+02  0.10739947318E+03  0.10566000000E+00 0.  1.
    9000005    1    3    3    0    0 -0.82960850888E+02 -0.12498011680E+02 -0.26872916246E+02  0.88101400123E+02  0.10000000000E+01 0.  0.
    9000005    1    3    3    0    0  0.17370066671E+02  0.17754246044E+02 -0.95862541686E+02  0.99033122577E+02  0.10000000000E+01 0.  0.
<mgrwt>
<rscale>  0 0.12912692E+03</rscale>
<asrwt>0</asrwt>
<pdfrwt beam="1">  1        1 0.83077656E-02 0.14126336E+03</pdfrwt>
<pdfrwt beam="2">  1       -1 0.40995809E-01 0.14126336E+03</pdfrwt>
<totfact> 0.46716593E+03</totfact>
</mgrwt>
</event>
<event>
 8    3  0.1560846E-003  0.1379106E+03  0.7818608E-02  0.1226110E+00
          1   -1    0    0  501    0  0.00000000000E+00  0.00000000000E+00  0.58676133076E+03  0.58676133078E+03  0.50400000000E-02 0. -1.
         -1   -1    0    0    0  501 -0.00000000000E+00 -0.00000000000E+00 -0.34551040479E+02  0.34551040846E+02  0.50400000000E-02 0.  1.
         25    2    1    2    0    0 -0.26485205571E+02  0.51890966479E+02  0.14980911497E+03  0.20362244843E+03  0.12500076825E+03 0.  0.
         23    2    1    2    0    0  0.26485205571E+02 -0.51890966479E+02  0.40240117532E+03  0.41768992320E+03  0.95624408650E+02 0.  0.
        -13    1    4    4    0    0  0.38839990472E+02 -0.71503448979E+02  0.23494794336E+03  0.24863997130E+03  0.10566000000E+00 0.  1.
         13    1    4    4    0    0 -0.12354784901E+02  0.19612482501E+02  0.16745323195E+03  0.16904995189E+03  0.10566000000E+00 0. -1.
    9000005    1    3    3    0    0 -0.23822945422E+02  0.31961316481E+02  0.17029456102E+03  0.17490081759E+03  0.10000000000E+01 0.  0.
    9000005    1    3    3    0    0 -0.26622601489E+01  0.19929649998E+02 -0.20485446055E+02  0.28721630842E+02  0.10000000000E+01 0.  0.
<mgrwt>
<rscale>  0 0.13091140E+03</rscale>
<asrwt>0</asrwt>
<pdfrwt beam="1">  1        1 0.90270961E-01 0.13791059E+03</pdfrwt>
<pdfrwt beam="2">  1       -1 0.53155455E-02 0.13791059E+03</pdfrwt>
<totfact> 0.56215805E+03</totfact>
</mgrwt>
</event>
<event>
 8    3  0.1560846E-003  0.1489447E+03  0.7818608E-02  0.1212133E+00
         -1   -1    0    0    0  501 -0.00000000000E+00  0.00000000000E+00  0.23236263650E+03  0.23236263655E+03  0.50400000000E-02 0. -1.
          1   -1    0    0  501    0  0.00000000000E+00 -0.00000000000E+00 -0.92818189676E+02  0.92818189813E+02  0.50400000000E-02 0.  1.
         25    2    1    2    0    0  0.43727595678E+02  0.68185164434E+02  0.14215742753E+03  0.20589622086E+03  0.12499280095E+03 0.  0.
         23    2    1    2    0    0 -0.43727595678E+02 -0.68185164434E+02 -0.26129807055E+01  0.11928460551E+03  0.87525254470E+02 0.  0.
        -13    1    4    4    0    0 -0.58593307776E+02 -0.66286222139E+02  0.21359901524E+02  0.91012611866E+02  0.10566000000E+00 0. -1.
         13    1    4    4    0    0  0.14865712098E+02 -0.18989422950E+01 -0.23972882229E+02  0.28271993641E+02  0.10566000000E+00 0.  1.
    9000005    1    3    3    0    0  0.66009096360E+02  0.22985449374E+02  0.18424340805E+02  0.72290995423E+02  0.10000000000E+01 0.  0.
    9000005    1    3    3    0    0 -0.22281500682E+02  0.45199715059E+02  0.12373308672E+03  0.13360522543E+03  0.10000000000E+01 0.  0.
<mgrwt>
<rscale>  0 0.14089280E+03</rscale>
<asrwt>0</asrwt>
<pdfrwt beam="2">  1        1 0.14279722E-01 0.14894469E+03</pdfrwt>
<pdfrwt beam="1">  1       -1 0.35748097E-01 0.14894469E+03</pdfrwt>
<totfact> 0.29077024E+03</totfact>
</mgrwt>
</event>
<event>
 8    3  0.1560846E-003  0.1340592E+03  0.7818608E-02  0.1235007E+00
         -1   -1    0    0    0  501 -0.00000000000E+00  0.00000000000E+00  0.16192866755E+03  0.16192866763E+03  0.50400000000E-02 0.  1.
          1   -1    0    0  501    0  0.00000000000E+00 -0.00000000000E+00 -0.86000511377E+02  0.86000511525E+02  0.50400000000E-02 0. -1.
         25    2    1    2    0    0 -0.45777813908E+02 -0.15905757214E+02  0.35242577110E+02  0.13861428150E+03  0.12499311355E+03 0.  0.
         23    2    1    2    0    0  0.45777813908E+02  0.15905757214E+02  0.40685579064E+02  0.10931489766E+03  0.89139380451E+02 0.  0.
        -13    1    4    4    0    0 -0.51380564062E+01 -0.14517070941E+02  0.47197064252E+02  0.49645936494E+02  0.10566000000E+00 0.  1.
         13    1    4    4    0    0  0.50915870315E+02  0.30422828156E+02 -0.65114851876E+01  0.59668961163E+02  0.10566000000E+00 0. -1.
    9000005    1    3    3    0    0  0.14414716089E+02  0.31866751378E+02 -0.23270811228E+02  0.42021477110E+02  0.10000000000E+01 0.  0.
    9000005    1    3    3    0    0 -0.60192529997E+02 -0.47772508592E+02  0.58513388337E+02  0.96592804387E+02  0.10000000000E+01 0.  0.
<mgrwt>
<rscale>  0 0.12503968E+03</rscale>
<asrwt>0</asrwt>
<pdfrwt beam="2">  1        1 0.13230848E-01 0.13405924E+03</pdfrwt>
<pdfrwt beam="1">  1       -1 0.24912102E-01 0.13405924E+03</pdfrwt>
<totfact> 0.58582785E+03</totfact>
</mgrwt>
</event>
<event>
 8    3  0.1560846E-003  0.3803276E+03  0.7818608E-02  0.1051774E+00
         -1   -1    0    0    0  501 -0.00000000000E+00  0.00000000000E+00  0.12250958355E+03  0.12250958365E+03  0.50400000000E-02 0.  1.
          1   -1    0    0  501    0  0.00000000000E+00 -0.00000000000E+00 -0.11644902711E+04  0.11644902711E+04  0.50400000000E-02 0. -1.
         25    2    1    2    0    0 -0.12132015102E+01 -0.35919682189E+03 -0.60205725482E+03  0.71212500644E+03  0.12500103201E+03 0.  0.
         23    2    1    2    0    0  0.12132015102E+01  0.35919682189E+03 -0.43992343275E+03  0.57487484834E+03  0.89020423823E+02 0.  0.
        -13    1    4    4    0    0  0.19044959241E+02  0.25423792694E+03 -0.24955749769E+03  0.35676125039E+03  0.10566000000E+00 0.  1.
         13    1    4    4    0    0 -0.17831757731E+02  0.10495889495E+03 -0.19036593506E+03  0.21811359794E+03  0.10566000000E+00 0. -1.
    9000005    1    3    3    0    0 -0.60781790633E+02 -0.13043073591E+03 -0.22351076332E+03  0.26582826084E+03  0.10000000000E+01 0.  0.
    9000005    1    3    3    0    0  0.59568589123E+02 -0.22876608598E+03 -0.37854649151E+03  0.44629674560E+03  0.10000000000E+01 0.  0.
<mgrwt>
<rscale>  0 0.37773570E+03</rscale>
<asrwt>0</asrwt>
<pdfrwt beam="2">  1        1 0.17915234E+00 0.38032760E+03</pdfrwt>
<pdfrwt beam="1">  1       -1 0.18847629E-01 0.38032760E+03</pdfrwt>
<totfact> 0.26757676E+02</totfact>
</mgrwt>
</event>
<event>
 8    3  0.1560846E-003  0.1519173E+03  0.7818608E-02  0.1207020E+00
          1   -1    0    0  501    0  0.00000000000E+00  0.00000000000E+00  0.32862418952E+03  0.32862418956E+03  0.50400000000E-02 0. -1.
         -1   -1    0    0    0  501 -0.00000000000E+00 -0.00000000000E+00 -0.59434635721E+02  0.59434635935E+02  0.50400000000E-02 0.  1.
         25    2    1    2    0    0 -0.29849023473E+02  0.81019389644E+02  0.17162247721E+03  0.22920111232E+03  0.12499507792E+03 0.  0.
         23    2    1    2    0    0  0.29849023473E+02 -0.81019389644E+02  0.97567076587E+02  0.15885771317E+03  0.90891874775E+02 0.  0.
        -13    1    4    4    0    0  0.36453614734E+02 -0.44345812195E+02  0.33090407645E+01  0.57501113044E+02  0.10566000000E+00 0.  1.
         13    1    4    4    0    0 -0.66045912615E+01 -0.36673577449E+02  0.94258035822E+02  0.10135660013E+03  0.10566000000E+00 0. -1.
    9000005    1    3    3    0    0 -0.64483885716E+02  0.68576397463E+02  0.59924552517E+02  0.11159231963E+03  0.10000000000E+01 0.  0.
    9000005    1    3    3    0    0  0.34634862244E+02  0.12442992182E+02  0.11169792470E+03  0.11760879269E+03  0.10000000000E+01 0.  0.
<mgrwt>
<rscale>  0 0.14479373E+03</rscale>
<asrwt>0</asrwt>
<pdfrwt beam="1">  1        1 0.50557567E-01 0.15191733E+03</pdfrwt>
<pdfrwt beam="2">  1       -1 0.91437903E-02 0.15191733E+03</pdfrwt>
<totfact> 0.52728953E+03</totfact>
</mgrwt>
</event>
<event>
 8    3  0.1560846E-003  0.1334445E+03  0.7818608E-02  0.1234689E+00
         -1   -1    0    0    0  501 -0.00000000000E+00  0.00000000000E+00  0.31168938586E+02  0.31168938993E+02  0.50400000000E-02 0.  1.
          1   -1    0    0  501    0  0.00000000000E+00 -0.00000000000E+00 -0.46016534858E+03  0.46016534861E+03  0.50400000000E-02 0. -1.
         25    2    1    2    0    0  0.32885561825E+02 -0.33173432584E+02 -0.27636775199E+03  0.30689828731E+03  0.12500195043E+03 0.  0.
         23    2    1    2    0    0 -0.32885561825E+02  0.33173432584E+02 -0.15262865801E+03  0.18443600029E+03  0.92407760233E+02 0.  0.
        -13    1    4    4    0    0  0.33557876203E+01  0.47517831819E+02 -0.31297167714E+02  0.56997627339E+02  0.10566000000E+00 0.  1.
         13    1    4    4    0    0 -0.36241349445E+02 -0.14344399235E+02 -0.12133149029E+03  0.12743837295E+03  0.10566000000E+00 0. -1.
    9000005    1    3    3    0    0  0.65791382068E+02 -0.18729262059E+02 -0.25722864463E+03  0.26617074751E+03  0.10000000000E+01 0.  0.
    9000005    1    3    3    0    0 -0.32905820243E+02 -0.14444170525E+02 -0.19139107357E+02  0.40727539804E+02  0.10000000000E+01 0.  0.
<mgrwt>
<rscale>  0 0.12524359E+03</rscale>
<asrwt>0</asrwt>
<pdfrwt beam="2">  1        1 0.70794664E-01 0.13344446E+03</pdfrwt>
<pdfrwt beam="1">  1       -1 0.47952217E-02 0.13344446E+03</pdfrwt>
<totfact> 0.89969980E+03</totfact>
</mgrwt>
</event>
<event>
 8    3  0.1560846E-003  0.1477021E+03  0.7818608E-02  0.1213161E+00
          1   -1    0    0  501    0  0.00000000000E+00  0.00000000000E+00  0.15830441137E+03  0.15830441145E+03  0.50400000000E-02 0. -1.
         -1   -1    0    0    0  501 -0.00000000000E+00 -0.00000000000E+00 -0.15523390231E+03  0.15523390239E+03  0.50400000000E-02 0.  1.
         25    2    1    2    0    0  0.40802655168E+02  0.67270478813E+02 -0.79908816251E+02  0.16793253565E+03  0.12500297447E+03 0.  0.
         23    2    1    2    0    0 -0.40802655168E+02 -0.67270478813E+02  0.82979325312E+02  0.14560577819E+03  0.90140447212E+02 0.  0.
        -13    1    4    4    0    0 -0.49025801982E+02 -0.53796689634E+02  0.13085629303E+02  0.73951727051E+02  0.10566000000E+00 0.  1.
         13    1    4    4    0    0  0.82231468136E+01 -0.13473789179E+02  0.69893696009E+02  0.71654051136E+02  0.10566000000E+00 0. -1.
    9000005    1    3    3    0    0 -0.41432617870E+02  0.44979719598E+02 -0.22411156471E+02  0.65139058430E+02  0.10000000000E+01 0.  0.
    9000005    1    3    3    0    0  0.82235273039E+02  0.22290759214E+02 -0.57497659781E+02  0.10279347722E+03  0.10000000000E+01 0.  0.
<mgrwt>
<rscale>  0 0.14012505E+03</rscale>
<asrwt>0</asrwt>
<pdfrwt beam="1">  1        1 0.24354525E-01 0.14770212E+03</pdfrwt>
<pdfrwt beam="2">  1       -1 0.23882139E-01 0.14770212E+03</pdfrwt>
<totfact> 0.28884338E+03</totfact>
</mgrwt>
</event>
<event>
 8    3  0.1560846E-003  0.1666725E+03  0.7818608E-02  0.1188615E+00
          1   -1    0    0  501    0  0.00000000000E+00  0.00000000000E+00  0.70434144000E+02  0.70434144181E+02  0.50400000000E-02 0. -1.
         -1   -1    0    0    0  501 -0.00000000000E+00 -0.00000000000E+00 -0.33998777965E+03  0.33998777969E+03  0.50400000000E-02 0.  1.
         25    2    1    2    0    0 -0.82276560045E+02  0.73369035571E+02 -0.16218007579E+03  0.23255555533E+03  0.12500904615E+03 0.  0.
         23    2    1    2    0    0  0.82276560045E+02 -0.73369035571E+02 -0.10737355986E+03  0.17786636854E+03  0.89190335716E+02 0.  0.
        -13    1    4    4    0    0 -0.30263603313E+01 -0.39059701255E+02 -0.66640897721E+02  0.77303554459E+02  0.10566000000E+00 0.  1.
         13    1    4    4    0    0  0.85302920376E+02 -0.34309334317E+02 -0.40732662144E+02  0.10056281408E+03  0.10566000000E+00 0. -1.
    9000005    1    3    3    0    0 -0.89221674237E+02  0.96650453292E+02 -0.16141873538E+03  0.20822782092E+03  0.10000000000E+01 0.  0.
    9000005    1    3    3    0    0  0.69451141919E+01 -0.23281417721E+02 -0.76134040748E+00  0.24327734408E+02  0.10000000000E+01 0.  0.
<mgrwt>
<rscale>  0 0.16007270E+03</rscale>
<asrwt>0</asrwt>
<pdfrwt beam="1">  1        1 0.10836022E-01 0.16667246E+03</pdfrwt>
<pdfrwt beam="2">  1       -1 0.52305811E-01 0.16667246E+03</pdfrwt>
<totfact> 0.21294608E+03</totfact>
</mgrwt>
</event>
<event>
 8    3  0.1560846E-003  0.1321803E+03  0.7818608E-02  0.1238737E+00
         -1   -1    0    0    0  501 -0.00000000000E+00  0.00000000000E+00  0.10533548447E+02  0.10533549652E+02  0.50400000000E-02 0.  1.
          1   -1    0    0  501    0  0.00000000000E+00 -0.00000000000E+00 -0.14881417648E+04  0.14881417648E+04  0.50400000000E-02 0. -1.
         25    2    1    2    0    0 -0.32689515596E+02  0.27901650943E+02 -0.53965412952E+03  0.55560616582E+03  0.12499810171E+03 0.  0.
         23    2    1    2    0    0  0.32689515596E+02 -0.27901650943E+02 -0.93795408685E+03  0.94306914866E+03  0.88172805106E+02 0.  0.
        -13    1    4    4    0    0  0.44727231229E+02  0.12269488877E+01 -0.22429561038E+03  0.22871502490E+03  0.10566000000E+00 0.  1.
         13    1    4    4    0    0 -0.12037715633E+02 -0.29128599831E+02 -0.71365847647E+03  0.71435412376E+03  0.10566000000E+00 0. -1.
    9000005    1    3    3    0    0  0.39069998813E+02 -0.19161496607E+02 -0.13115515148E+03  0.13818936833E+03  0.10000000000E+01 0.  0.
    9000005    1    3    3    0    0 -0.71759514410E+02  0.47063147550E+02 -0.40849897804E+03  0.41741679749E+03  0.10000000000E+01 0.  0.
<mgrwt>
<rscale>  0 0.12268195E+03</rscale>
<asrwt>0</asrwt>
<pdfrwt beam="2">  1        1 0.22894472E+00 0.13218030E+03</pdfrwt>
<pdfrwt beam="1">  1       -1 0.16205472E-02 0.13218030E+03</pdfrwt>
<totfact> 0.66454594E+03</totfact>
</mgrwt>
</event>
<event>
 8    3  0.1560846E-003  0.1565233E+03  0.7818608E-02  0.1201353E+00
          1   -1    0    0  501    0  0.00000000000E+00  0.00000000000E+00  0.48419935209E+03  0.48419935212E+03  0.50400000000E-02 0. -1.
         -1   -1    0    0    0  501 -0.00000000000E+00 -0.00000000000E+00 -0.57650014334E+02  0.57650014554E+02  0.50400000000E-02 0.  1.
         25    2    1    2    0    0  0.41329109477E+02  0.84655313148E+02  0.88439193457E+02  0.17978047834E+03  0.12499964848E+03 0.  0.
         23    2    1    2    0    0 -0.41329109477E+02 -0.84655313148E+02  0.33811014430E+03  0.36206888833E+03  0.88886404368E+02 0.  0.
        -13    1    4    4    0    0 -0.19725896636E+02 -0.10067852301E+03  0.26467126439E+03  0.28385941125E+03  0.10566000000E+00 0.  1.
         13    1    4    4    0    0 -0.21603212841E+02  0.16023209861E+02  0.73438879905E+02  0.78209477079E+02  0.10566000000E+00 0. -1.
    9000005    1    3    3    0    0 -0.31653845431E+02  0.42170160274E+02 -0.60102169978E+01  0.53079290279E+02  0.10000000000E+01 0.  0.
    9000005    1    3    3    0    0  0.72982954908E+02  0.42485152873E+02  0.94449410455E+02  0.12670118806E+03  0.10000000000E+01 0.  0.
<mgrwt>
<rscale>  0 0.14928573E+03</rscale>
<asrwt>0</asrwt>
<pdfrwt beam="1">  1        1 0.74492207E-01 0.15652326E+03</pdfrwt>
<pdfrwt beam="2">  1       -1 0.88692332E-02 0.15652326E+03</pdfrwt>
<totfact> 0.33823475E+03</totfact>
</mgrwt>
</event>
<event>
 8    3  0.1560846E-003  0.1276347E+03  0.7818608E-02  0.1248604E+00
         -1   -1    0    0    0  501 -0.00000000000E+00  0.00000000000E+00  0.58307880932E+02  0.58307881150E+02  0.50400000000E-02 0.  1.
          1   -1    0    0  501    0  0.00000000000E+00 -0.00000000000E+00 -0.20470170950E+03  0.20470170956E+03  0.50400000000E-02 0. -1.
         25    2    1    2    0    0  0.24741500042E+02  0.73100165894E+01 -0.70341237165E+02  0.14573440258E+03  0.12500019313E+03 0.  0.
         23    2    1    2    0    0 -0.24741500042E+02 -0.73100165894E+01 -0.76052591406E+02  0.11727518813E+03  0.85462827738E+02 0.  0.
        -13    1    4    4    0    0  0.28580604825E+02 -0.97118643773E+01 -0.88540693007E+01  0.31457542642E+02  0.10566000000E+00 0. -1.
         13    1    4    4    0    0 -0.53322104867E+02  0.24018477879E+01 -0.67198522105E+02  0.85817645490E+02  0.10566000000E+00 0.  1.
    9000005    1    3    3    0    0  0.11214750304E+02  0.56975144033E+02 -0.74060367095E+02  0.94116287837E+02  0.10000000000E+01 0.  0.
    9000005    1    3    3    0    0  0.13526749738E+02 -0.49665127443E+02  0.37191299303E+01  0.51618114745E+02  0.10000000000E+01 0.  0.
<mgrwt>
<rscale>  0 0.11672271E+03</rscale>
<asrwt>0</asrwt>
<pdfrwt beam="2">  1        1 0.31492570E-01 0.12763474E+03</pdfrwt>
<pdfrwt beam="1">  1       -1 0.89704434E-02 0.12763474E+03</pdfrwt>
<totfact> 0.96453079E+03</totfact>
</mgrwt>
</event>
<event>
 8    3  0.1560846E-003  0.1720904E+03  0.7818608E-02  0.1181790E+00
         -1   -1    0    0    0  501 -0.00000000000E+00  0.00000000000E+00  0.11297061277E+02  0.11297062401E+02  0.50400000000E-02 0.  1.
          1   -1    0    0  501    0  0.00000000000E+00 -0.00000000000E+00 -0.28729470649E+04  0.28729470649E+04  0.50400000000E-02 0. -1.
         25    2    1    2    0    0 -0.42071778750E+02  0.11054358909E+03 -0.21546598822E+04  0.21615212938E+04  0.12500070363E+03 0.  0.
         23    2    1    2    0    0  0.42071778750E+02 -0.11054358909E+03 -0.70699012142E+03  0.72272283351E+03  0.92213570763E+02 0.  0.
        -13    1    4    4    0    0 -0.63137801674E+01 -0.52251926412E+02 -0.12228712689E+03  0.13313256627E+03  0.10566000000E+00 0.  1.
         13    1    4    4    0    0  0.48385558918E+02 -0.58291662676E+02 -0.58470299453E+03  0.58959026724E+03  0.10566000000E+00 0. -1.
    9000005    1    3    3    0    0  0.11527577483E+02  0.11391474631E+03 -0.16626530245E+04  0.16665909919E+04  0.10000000000E+01 0.  0.
    9000005    1    3    3    0    0 -0.53599356233E+02 -0.33711572202E+01 -0.49200685774E+03  0.49493030191E+03  0.10000000000E+01 0.  0.
<mgrwt>
<rscale>  0 0.16627386E+03</rscale>
<asrwt>0</asrwt>
<pdfrwt beam="2">  1        1 0.44199127E+00 0.17209037E+03</pdfrwt>
<pdfrwt beam="1">  1       -1 0.17380118E-02 0.17209037E+03</pdfrwt>
<totfact> 0.75899456E+02</totfact>
</mgrwt>
</event>
<event>
 8    3  0.1560846E-003  0.1267084E+03  0.7818608E-02  0.1244607E+00
          1   -1    0    0  501    0  0.00000000000E+00  0.00000000000E+00  0.72115590080E+03  0.72115590082E+03  0.50400000000E-02 0. -1.
         -1   -1    0    0    0  501 -0.00000000000E+00 -0.00000000000E+00 -0.17762458667E+02  0.17762459382E+02  0.50400000000E-02 0.  1.
         25    2    1    2    0    0 -0.15788628112E+02 -0.13445521359E+02  0.36443647876E+03  0.38583539882E+03  0.12499978044E+03 0.  0.
         23    2    1    2    0    0  0.15788628112E+02  0.13445521359E+02  0.33895696337E+03  0.35308296138E+03  0.96673118154E+02 0.  0.
        -13    1    4    4    0    0 -0.25274688926E+02 -0.15791795443E+01  0.27159866812E+03  0.27277674277E+03  0.10566000000E+00 0. -1.
         13    1    4    4    0    0  0.41063317037E+02  0.15024700904E+02  0.67358295252E+02  0.80306218605E+02  0.10566000000E+00 0.  1.
    9000005    1    3    3    0    0  0.59277242579E+01 -0.60894086260E+02  0.27970237570E+03  0.28631738793E+03  0.10000000000E+01 0.  0.
    9000005    1    3    3    0    0 -0.21716352369E+02  0.47448564901E+02  0.84734103057E+02  0.99518010894E+02  0.10000000000E+01 0.  0.
<mgrwt>
<rscale>  0 0.11908930E+03</rscale>
<asrwt>0</asrwt>
<pdfrwt beam="1">  1        1 0.11094705E+00 0.12670836E+03</pdfrwt>
<pdfrwt beam="2">  1       -1 0.27326863E-02 0.12670836E+03</pdfrwt>
<totfact> 0.11122865E+04</totfact>
</mgrwt>
</event>
<event>
 8    3  0.1560846E-003  0.1255142E+03  0.7818608E-02  0.1251658E+00
          1   -1    0    0  501    0  0.00000000000E+00  0.00000000000E+00  0.87700426375E+03  0.87700426376E+03  0.50400000000E-02 0. -1.
         -1   -1    0    0    0  501 -0.00000000000E+00 -0.00000000000E+00 -0.26750750462E+02  0.26750750937E+02  0.50400000000E-02 0.  1.
         25    2    1    2    0    0 -0.11264743648E+02 -0.11263543137E+01  0.78234180793E+03  0.79234620642E+03  0.12500257306E+03 0.  0.
         23    2    1    2    0    0  0.11264743648E+02  0.11263543137E+01  0.67911705357E+02  0.11140880828E+03  0.87588582099E+02 0.  0.
        -13    1    4    4    0    0 -0.31114234045E+02  0.15999195962E+02  0.69200132942E+01  0.35664654487E+02  0.10566000000E+00 0.  1.
         13    1    4    4    0    0  0.42378977693E+02 -0.14872841648E+02  0.60991692063E+02  0.75744153792E+02  0.10566000000E+00 0. -1.
    9000005    1    3    3    0    0 -0.11224546359E+02 -0.26616861685E+02  0.38880170916E+02  0.48447037654E+02  0.10000000000E+01 0.  0.
    9000005    1    3    3    0    0 -0.40197288449E-01  0.25490507371E+02  0.74346163701E+03  0.74389916877E+03  0.10000000000E+01 0.  0.
<mgrwt>
<rscale>  0 0.11495579E+03</rscale>
<asrwt>0</asrwt>
<pdfrwt beam="1">  1        1 0.13492372E+00 0.12551417E+03</pdfrwt>
<pdfrwt beam="2">  1       -1 0.41155004E-02 0.12551417E+03</pdfrwt>
<totfact> 0.45629403E+03</totfact>
</mgrwt>
</event>
<event>
 8    3  0.1560846E-003  0.1257079E+03  0.7818608E-02  0.1248263E+00
          1   -1    0    0  501    0  0.00000000000E+00  0.00000000000E+00  0.10220835829E+03  0.10220835841E+03  0.50400000000E-02 0. -1.
         -1   -1    0    0    0  501 -0.00000000000E+00 -0.00000000000E+00 -0.11821902931E+03  0.11821902942E+03  0.50400000000E-02 0.  1.
         25    2    1    2    0    0 -0.92145643596E+01  0.95022823015E+01 -0.66819621204E+01  0.12588536303E+03  0.12500909744E+03 0.  0.
         23    2    1    2    0    0  0.92145643596E+01 -0.95022823015E+01 -0.93287089050E+01  0.94542024799E+02  0.93144876821E+02 0.  0.
        -13    1    4    4    0    0  0.35902549010E+01 -0.32356426795E+02  0.32844934666E+02  0.46245315248E+02  0.10566000000E+00 0. -1.
         13    1    4    4    0    0  0.56243094586E+01  0.22854144493E+02 -0.42173643571E+02  0.48296709551E+02  0.10566000000E+00 0.  1.
    9000005    1    3    3    0    0  0.58011237797E+02  0.30520686275E+01 -0.10583766486E+01  0.58109715150E+02  0.10000000000E+01 0.  0.
    9000005    1    3    3    0    0 -0.67225802157E+02  0.64502136740E+01 -0.56235854718E+01  0.67775647880E+02  0.10000000000E+01 0.  0.
<mgrwt>
<rscale>  0 0.11692221E+03</rscale>
<asrwt>0</asrwt>
<pdfrwt beam="1">  1        1 0.15724363E-01 0.12570790E+03</pdfrwt>
<pdfrwt beam="2">  1       -1 0.18187543E-01 0.12570790E+03</pdfrwt>
<totfact> 0.77458027E+03</totfact>
</mgrwt>
</event>
<event>
 8    3  0.1560846E-003  0.1472383E+03  0.7818608E-02  0.1213252E+00
          1   -1    0    0  501    0  0.00000000000E+00  0.00000000000E+00  0.26044194595E+04  0.26044194595E+04  0.50400000000E-02 0. -1.
         -1   -1    0    0    0  501 -0.00000000000E+00 -0.00000000000E+00 -0.12585411687E+02  0.12585412696E+02  0.50400000000E-02 0.  1.
         25    2    1    2    0    0 -0.61097208864E+02 -0.48183086024E+02  0.48820825529E+03  0.50992785629E+03  0.12499855748E+03 0.  0.
         23    2    1    2    0    0  0.61097208864E+02  0.48183086024E+02  0.21036257925E+04  0.21070770159E+04  0.92073868858E+02 0.  0.
        -13    1    4    4    0    0  0.21272696894E+02  0.46538485274E+02  0.18139809817E+04  0.18147025573E+04  0.10566000000E+00 0. -1.
         13    1    4    4    0    0  0.39824511970E+02  0.16446007508E+01  0.28964481075E+03  0.29237445857E+03  0.10566000000E+00 0.  1.
    9000005    1    3    3    0    0  0.27322917377E+02 -0.18146156458E+02  0.38326368640E+02  0.50455280609E+02  0.10000000000E+01 0.  0.
    9000005    1    3    3    0    0 -0.88420126241E+02 -0.30036929567E+02  0.44988188665E+03  0.45947257568E+03  0.10000000000E+01 0.  0.
<mgrwt>
<rscale>  0 0.14005756E+03</rscale>
<asrwt>0</asrwt>
<pdfrwt beam="1">  1        1 0.40068014E+00 0.14723830E+03</pdfrwt>
<pdfrwt beam="2">  1       -1 0.19362162E-02 0.14723830E+03</pdfrwt>
<totfact> 0.98716909E+02</totfact>
</mgrwt>
</event>
<event>
 8    3  0.1560846E-003  0.1549141E+03  0.7818608E-02  0.1203004E+00
         -1   -1    0    0    0  501 -0.00000000000E+00  0.00000000000E+00  0.84800020240E+02  0.84800020390E+02  0.50400000000E-02 0.  1.
          1   -1    0    0  501    0  0.00000000000E+00 -0.00000000000E+00 -0.36227903739E+03  0.36227903743E+03  0.50400000000E-02 0. -1.
         25    2    1    2    0    0  0.42130859792E+02 -0.81228829065E+02 -0.16237652026E+02  0.15576276864E+03  0.12500098693E+03 0.  0.
         23    2    1    2    0    0 -0.42130859792E+02  0.81228829065E+02 -0.26124136512E+03  0.29131628918E+03  0.90801968418E+02 0.  0.
        -13    1    4    4    0    0 -0.38518392646E+02  0.99458092251E+02 -0.19211774443E+03  0.21973806584E+03  0.10566000000E+00 0.  1.
         13    1    4    4    0    0 -0.36124671459E+01 -0.18229263186E+02 -0.69123620690E+02  0.71578223340E+02  0.10566000000E+00 0. -1.
    9000005    1    3    3    0    0  0.59852645199E+02  0.62620916292E+01 -0.26765832278E+02  0.65870803141E+02  0.10000000000E+01 0.  0.
    9000005    1    3    3    0    0 -0.17721785408E+02 -0.87490920694E+02  0.10528180252E+02  0.89891965499E+02  0.10000000000E+01 0.  0.
<mgrwt>
<rscale>  0 0.14795886E+03</rscale>
<asrwt>0</asrwt>
<pdfrwt beam="2">  1        1 0.55735236E-01 0.15491410E+03</pdfrwt>
<pdfrwt beam="1">  1       -1 0.13046157E-01 0.15491410E+03</pdfrwt>
<totfact> 0.27032886E+03</totfact>
</mgrwt>
</event>
<event>
 8    3  0.1560846E-003  0.1440073E+03  0.7818608E-02  0.1217253E+00
          1   -1    0    0  501    0  0.00000000000E+00  0.00000000000E+00  0.22122139624E+04  0.22122139624E+04  0.50400000000E-02 0. -1.
         -1   -1    0    0    0  501 -0.00000000000E+00 -0.00000000000E+00 -0.81248705629E+01  0.81248721261E+01  0.50400000000E-02 0.  1.
         25    2    1    2    0    0  0.36673422750E+02 -0.61385415409E+02  0.14325756265E+04  0.14397954853E+04  0.12500001901E+03 0.  0.
         23    2    1    2    0    0 -0.36673422750E+02  0.61385415409E+02  0.77151346530E+03  0.78054334917E+03  0.94349264104E+02 0.  0.
        -13    1    4    4    0    0 -0.25471620134E+02  0.37721053427E+02  0.11752520334E+03  0.12603120998E+03  0.10566000000E+00 0.  1.
         13    1    4    4    0    0 -0.11201802616E+02  0.23664361982E+02  0.65398826196E+03  0.65451213920E+03  0.10566000000E+00 0. -1.
    9000005    1    3    3    0    0  0.36863122010E+02  0.25301719235E+02  0.80739712701E+03  0.80863476766E+03  0.10000000000E+01 0.  0.
    9000005    1    3    3    0    0 -0.18969926008E+00 -0.86687134644E+02  0.62517849949E+03  0.63116071766E+03  0.10000000000E+01 0.  0.
<mgrwt>
<rscale>  0 0.13712360E+03</rscale>
<asrwt>0</asrwt>
<pdfrwt beam="1">  1        1 0.34034129E+00 0.14400734E+03</pdfrwt>
<pdfrwt beam="2">  1       -1 0.12499777E-02 0.14400734E+03</pdfrwt>
<totfact> 0.33310030E+03</totfact>
</mgrwt>
</event>
<event>
 8    3  0.1560846E-003  0.1338198E+03  0.7818608E-02  0.1233991E+00
         -1   -1    0    0    0  501 -0.00000000000E+00  0.00000000000E+00  0.33458053954E+03  0.33458053958E+03  0.50400000000E-02 0.  1.
          1   -1    0    0  501    0  0.00000000000E+00 -0.00000000000E+00 -0.55208982502E+02  0.55208982732E+02  0.50400000000E-02 0. -1.
         25    2    1    2    0    0 -0.22175240027E+02 -0.42346227268E+02  0.24665438577E+03  0.28061742332E+03  0.12499123176E+03 0.  0.
         23    2    1    2    0    0  0.22175240027E+02  0.42346227268E+02  0.32717171268E+02  0.10917209899E+03  0.92537504115E+02 0.  0.
        -13    1    4    4    0    0 -0.65002743360E+01 -0.79855996354E+01 -0.25221373216E+02  0.27242470500E+02  0.10566000000E+00 0. -1.
         13    1    4    4    0    0  0.28675514363E+02  0.50331826904E+02  0.57938544485E+02  0.81929628490E+02  0.10566000000E+00 0.  1.
    9000005    1    3    3    0    0 -0.46378585449E+02 -0.45432807378E+02  0.24780478048E+03  0.25617049479E+03  0.10000000000E+01 0.  0.
    9000005    1    3    3    0    0  0.24203345423E+02  0.30865801094E+01 -0.11503947087E+01  0.24446928527E+02  0.10000000000E+01 0.  0.
<mgrwt>
<rscale>  0 0.12569262E+03</rscale>
<asrwt>0</asrwt>
<pdfrwt beam="2">  1        1 0.84936896E-02 0.13381985E+03</pdfrwt>
<pdfrwt beam="1">  1       -1 0.51473930E-01 0.13381985E+03</pdfrwt>
<totfact> 0.30031816E+03</totfact>
</mgrwt>
</event>
<event>
 8    3  0.1560846E-003  0.1263553E+03  0.7818608E-02  0.1247851E+00
          1   -1    0    0  501    0  0.00000000000E+00  0.00000000000E+00  0.14186243411E+02  0.14186244306E+02  0.50400000000E-02 0. -1.
         -1   -1    0    0    0  501 -0.00000000000E+00 -0.00000000000E+00 -0.87563389100E+03  0.87563389102E+03  0.50400000000E-02 0.  1.
         25    2    1    2    0    0 -0.11636089423E+02 -0.14460322360E+02 -0.41984927402E+03  0.43845077383E+03  0.12498467377E+03 0.  0.
         23    2    1    2    0    0  0.11636089423E+02  0.14460322360E+02 -0.44159837357E+03  0.45136936149E+03  0.91546040079E+02 0.  0.
        -13    1    4    4    0    0  0.40963664296E+01  0.46765640409E+02 -0.36348029044E+03  0.36649930156E+03  0.10566000000E+00 0.  1.
         13    1    4    4    0    0  0.75397229934E+01 -0.32305318049E+02 -0.78118083126E+02  0.84870059929E+02  0.10566000000E+00 0. -1.
    9000005    1    3    3    0    0 -0.17944888241E+02 -0.35300901778E+02 -0.41398816531E+03  0.41587903734E+03  0.10000000000E+01 0.  0.
    9000005    1    3    3    0    0  0.63087988182E+01  0.20840579418E+02 -0.58611087120E+01  0.22571736494E+02  0.10000000000E+01 0.  0.
<mgrwt>
<rscale>  0 0.11716339E+03</rscale>
<asrwt>0</asrwt>
<pdfrwt beam="1">  1        1 0.21824997E-02 0.12635533E+03</pdfrwt>
<pdfrwt beam="2">  1       -1 0.13471286E+00 0.12635533E+03</pdfrwt>
<totfact> 0.25608951E+03</totfact>
</mgrwt>
</event>
<event>
 8    3  0.1560846E-003  0.1276592E+03  0.7818608E-02  0.1244994E+00
          1   -1    0    0  501    0  0.00000000000E+00  0.00000000000E+00  0.50487914787E+02  0.50487915039E+02  0.50400000000E-02 0. -1.
         -1   -1    0    0    0  501 -0.00000000000E+00 -0.00000000000E+00 -0.24811331396E+03  0.24811331401E+03  0.50400000000E-02 0.  1.
         25    2    1    2    0    0  0.15629038540E+02  0.20687976822E+02 -0.11988336432E+03  0.17512532709E+03  0.12499839967E+03 0.  0.
         23    2    1    2    0    0 -0.15629038540E+02 -0.20687976822E+02 -0.77742034854E+02  0.12347590195E+03  0.92359163862E+02 0.  0.
        -13    1    4    4    0    0 -0.31409321558E+02  0.29219546335E+02 -0.27730167118E+02  0.51081314599E+02  0.10566000000E+00 0. -1.
         13    1    4    4    0    0  0.15780283018E+02 -0.49907523156E+02 -0.50011867737E+02  0.72394587355E+02  0.10566000000E+00 0.  1.
    9000005    1    3    3    0    0 -0.23853808663E+02  0.25734741942E+02 -0.12949192615E+03  0.13416571867E+03  0.10000000000E+01 0.  0.
    9000005    1    3    3    0    0  0.39482847203E+02 -0.50467651202E+01  0.96085618299E+01  0.40959608419E+02  0.10000000000E+01 0.  0.
<mgrwt>
<rscale>  0 0.11885762E+03</rscale>
<asrwt>0</asrwt>
<pdfrwt beam="1">  1        1 0.77673717E-02 0.12765915E+03</pdfrwt>
<pdfrwt beam="2">  1       -1 0.38171278E-01 0.12765915E+03</pdfrwt>
<totfact> 0.57526030E+03</totfact>
</mgrwt>
</event>
<event>
 8    3  0.1560846E-003  0.2722302E+03  0.7818608E-02  0.1101969E+00
         -1   -1    0    0    0  501 -0.00000000000E+00  0.00000000000E+00  0.86670457891E+03  0.86670457893E+03  0.50400000000E-02 0.  1.
          1   -1    0    0  501    0  0.00000000000E+00 -0.00000000000E+00 -0.87822406139E+02  0.87822406284E+02  0.50400000000E-02 0. -1.
         25    2    1    2    0    0 -0.18531959147E+03 -0.15537401174E+03  0.52831643131E+03  0.59432947355E+03  0.12499934813E+03 0.  0.
         23    2    1    2    0    0  0.18531959147E+03  0.15537401174E+03  0.25056574146E+03  0.36019751166E+03  0.92057710733E+02 0.  0.
        -13    1    4    4    0    0  0.12459095402E+02  0.99161161404E+01 -0.71700469551E+01  0.17463652393E+02  0.10566000000E+00 0. -1.
         13    1    4    4    0    0  0.17286049607E+03  0.14545789559E+03  0.25773578842E+03  0.34273385927E+03  0.10566000000E+00 0.  1.
    9000005    1    3    3    0    0 -0.17760239371E+03 -0.17262128315E+03  0.44891831547E+03  0.51270788136E+03  0.10000000000E+01 0.  0.
    9000005    1    3    3    0    0 -0.77171977606E+01  0.17247271412E+02  0.79398115839E+02  0.81621592187E+02  0.10000000000E+01 0.  0.
<mgrwt>
<rscale>  0 0.26879945E+03</rscale>
<asrwt>0</asrwt>
<pdfrwt beam="2">  1        1 0.13511140E-01 0.27223018E+03</pdfrwt>
<pdfrwt beam="1">  1       -1 0.13333916E+00 0.27223018E+03</pdfrwt>
<totfact> 0.21944602E+02</totfact>
</mgrwt>
</event>
<event>
 8    3  0.1560846E-003  0.1569771E+03  0.7818608E-02  0.1203952E+00
         -1   -1    0    0    0  501 -0.00000000000E+00  0.00000000000E+00  0.62150642039E+02  0.62150642243E+02  0.50400000000E-02 0.  1.
          1   -1    0    0  501    0  0.00000000000E+00 -0.00000000000E+00 -0.31592806940E+03  0.31592806944E+03  0.50400000000E-02 0. -1.
         25    2    1    2    0    0  0.69129237367E+02  0.65101172071E+02 -0.16463634902E+03  0.22747952320E+03  0.12499916796E+03 0.  0.
         23    2    1    2    0    0 -0.69129237367E+02 -0.65101172071E+02 -0.89141078333E+02  0.15059918848E+03  0.75610645156E+02 0.  0.
        -13    1    4    4    0    0 -0.41439980156E+02 -0.31853025182E+02 -0.84833215398E+00  0.52274448826E+02  0.10566000000E+00 0.  1.
         13    1    4    4    0    0 -0.27689257212E+02 -0.33248146889E+02 -0.88292746179E+02  0.98324739656E+02  0.10566000000E+00 0. -1.
    9000005    1    3    3    0    0  0.10190745857E+03  0.56824217320E+02 -0.15143053003E+03  0.19117093715E+03  0.10000000000E+01 0.  0.
    9000005    1    3    3    0    0 -0.32778221205E+02  0.82769547509E+01 -0.13205818994E+02  0.36308586046E+02  0.10000000000E+01 0.  0.
<mgrwt>
<rscale>  0 0.14720319E+03</rscale>
<asrwt>0</asrwt>
<pdfrwt beam="2">  1        1 0.48604318E-01 0.15697709E+03</pdfrwt>
<pdfrwt beam="1">  1       -1 0.95616374E-02 0.15697709E+03</pdfrwt>
<totfact> 0.51828641E+03</totfact>
</mgrwt>
</event>
<event>
 8    3  0.1560846E-003  0.1451544E+03  0.7818608E-02  0.1215039E+00
          1   -1    0    0  501    0  0.00000000000E+00  0.00000000000E+00  0.23203180578E+03  0.23203180583E+03  0.50400000000E-02 0. -1.
         -1   -1    0    0    0  501 -0.00000000000E+00 -0.00000000000E+00 -0.12618157351E+03  0.12618157361E+03  0.50400000000E-02 0.  1.
         25    2    1    2    0    0  0.31807684034E+01  0.73720136969E+02  0.16803552846E+03  0.22204894227E+03  0.12500007223E+03 0.  0.
         23    2    1    2    0    0 -0.31807684034E+01 -0.73720136969E+02 -0.62185296183E+02  0.13616443717E+03  0.96067512748E+02 0.  0.
        -13    1    4    4    0    0  0.10350880513E+02  0.20603007315E+02 -0.13186661749E+01  0.23094905982E+02  0.10566000000E+00 0. -1.
         13    1    4    4    0    0 -0.13531648917E+02 -0.94323144284E+02 -0.60866630008E+02  0.11306953119E+03  0.10566000000E+00 0.  1.
    9000005    1    3    3    0    0  0.97367927015E+01  0.85618352523E+02  0.43063540580E+02  0.96336783983E+02  0.10000000000E+01 0.  0.
    9000005    1    3    3    0    0 -0.65560242980E+01 -0.11898215554E+02  0.12497198788E+03  0.12571215829E+03  0.10000000000E+01 0.  0.
<mgrwt>
<rscale>  0 0.13873634E+03</rscale>
<asrwt>0</asrwt>
<pdfrwt beam="1">  1        1 0.35697200E-01 0.14515438E+03</pdfrwt>
<pdfrwt beam="2">  1       -1 0.19412550E-01 0.14515438E+03</pdfrwt>
<totfact> 0.25051931E+03</totfact>
</mgrwt>
</event>
<event>
 8    3  0.1560846E-003  0.1703140E+03  0.7818608E-02  0.1183845E+00
         -1   -1    0    0    0  501 -0.00000000000E+00  0.00000000000E+00  0.30122186002E+03  0.30122186007E+03  0.50400000000E-02 0.  1.
          1   -1    0    0  501    0  0.00000000000E+00 -0.00000000000E+00 -0.88978486141E+02  0.88978486283E+02  0.50400000000E-02 0. -1.
         25    2    1    2    0    0  0.94624076850E+01  0.11530533302E+03  0.67049622576E+02  0.18303691239E+03  0.12498800913E+03 0.  0.
         23    2    1    2    0    0 -0.94624076850E+01 -0.11530533302E+03  0.14519375131E+03  0.20716343396E+03  0.91927177535E+02 0.  0.
        -13    1    4    4    0    0 -0.32306905935E+02 -0.35113276213E+02  0.10343221430E+03  0.11390747323E+03  0.10566000000E+00 0.  1.
         13    1    4    4    0    0  0.22844498250E+02 -0.80192056809E+02  0.41761537005E+02  0.93255960735E+02  0.10566000000E+00 0. -1.
    9000005    1    3    3    0    0 -0.12718091704E+02  0.39385130515E+02  0.91345650949E+02  0.10028941275E+03  0.10000000000E+01 0.  0.
    9000005    1    3    3    0    0  0.22180499389E+02  0.75920202506E+02 -0.24296028373E+02  0.82747499639E+02  0.10000000000E+01 0.  0.
<mgrwt>
<rscale>  0 0.16437398E+03</rscale>
<asrwt>0</asrwt>
<pdfrwt beam="2">  1        1 0.13688998E-01 0.17031400E+03</pdfrwt>
<pdfrwt beam="1">  1       -1 0.46341825E-01 0.17031400E+03</pdfrwt>
<totfact> 0.19540913E+03</totfact>
</mgrwt>
</event>
<event>
 8    3  0.1560846E-003  0.1449628E+03  0.7818608E-02  0.1216359E+00
         -1   -1    0    0    0  501 -0.00000000000E+00  0.00000000000E+00  0.13500265360E+03  0.13500265370E+03  0.50400000000E-02 0.  1.
          1   -1    0    0  501    0  0.00000000000E+00 -0.00000000000E+00 -0.16431202785E+03  0.16431202793E+03  0.50400000000E-02 0. -1.
         25    2    1    2    0    0 -0.72650520639E+02 -0.10538513657E+02 -0.85581450622E+02  0.16834013515E+03  0.12500023197E+03 0.  0.
         23    2    1    2    0    0  0.72650520639E+02  0.10538513657E+02  0.56272076375E+02  0.13097454648E+03  0.92728781004E+02 0.  0.
        -13    1    4    4    0    0  0.23100140613E+02  0.33807559930E+02  0.63705968776E+02  0.75729975746E+02  0.10566000000E+00 0.  1.
         13    1    4    4    0    0  0.49550380025E+02 -0.23269046273E+02 -0.74338924010E+01  0.55244570732E+02  0.10566000000E+00 0. -1.
    9000005    1    3    3    0    0 -0.84924051735E+02 -0.34699674089E+02 -0.15304937563E+02  0.93012918774E+02  0.10000000000E+01 0.  0.
    9000005    1    3    3    0    0  0.12273531097E+02  0.24161160432E+02 -0.70276513059E+02  0.75327216375E+02  0.10000000000E+01 0.  0.
<mgrwt>
<rscale>  0 0.13777203E+03</rscale>
<asrwt>0</asrwt>
<pdfrwt beam="2">  1        1 0.25278774E-01 0.14496281E+03</pdfrwt>
<pdfrwt beam="1">  1       -1 0.20769639E-01 0.14496281E+03</pdfrwt>
<totfact> 0.34554729E+03</totfact>
</mgrwt>
</event>
<event>
 8    3  0.1560846E-003  0.1495727E+03  0.7818608E-02  0.1210678E+00
         -1   -1    0    0    0  501 -0.00000000000E+00  0.00000000000E+00  0.13863671714E+02  0.13863672630E+02  0.50400000000E-02 0.  1.
          1   -1    0    0  501    0  0.00000000000E+00 -0.00000000000E+00 -0.14645406517E+04  0.14645406517E+04  0.50400000000E-02 0. -1.
         25    2    1    2    0    0 -0.52490723714E+02  0.63163482048E+02 -0.56608822700E+03  0.58551505568E+03  0.12500839230E+03 0.  0.
         23    2    1    2    0    0  0.52490723714E+02 -0.63163482048E+02 -0.88458875300E+03  0.89288926867E+03  0.89493478122E+02 0.  0.
        -13    1    4    4    0    0 -0.24609417671E+00 -0.63521363043E+02 -0.60866827761E+03  0.61197394345E+03  0.10566000000E+00 0.  1.
         13    1    4    4    0    0  0.52736817891E+02  0.35788099556E+00 -0.27592047539E+03  0.28091532522E+03  0.10566000000E+00 0. -1.
    9000005    1    3    3    0    0 -0.54741243133E+02  0.57433323036E+02 -0.15275240206E+03  0.17213217778E+03  0.10000000000E+01 0.  0.
    9000005    1    3    3    0    0  0.22505194189E+01  0.57301590113E+01 -0.41333582494E+03  0.41338287790E+03  0.10000000000E+01 0.  0.
<mgrwt>
<rscale>  0 0.14198843E+03</rscale>
<asrwt>0</asrwt>
<pdfrwt beam="2">  1        1 0.22531382E+00 0.14957272E+03</pdfrwt>
<pdfrwt beam="1">  1       -1 0.21328738E-02 0.14957272E+03</pdfrwt>
<totfact> 0.46519263E+03</totfact>
</mgrwt>
</event>
<event>
 8    3  0.1560846E-003  0.1322206E+03  0.7818608E-02  0.1237296E+00
          1   -1    0    0  501    0  0.00000000000E+00  0.00000000000E+00  0.21454865660E+04  0.21454865660E+04  0.50400000000E-02 0. -1.
         -1   -1    0    0    0  501 -0.00000000000E+00 -0.00000000000E+00 -0.65022506736E+01  0.65022526269E+01  0.50400000000E-02 0.  1.
         25    2    1    2    0    0  0.31323900311E+02  0.29596619056E+02  0.10375924844E+04  0.10459830020E+04  0.12500052092E+03 0.  0.
         23    2    1    2    0    0 -0.31323900311E+02 -0.29596619056E+02  0.11013918310E+04  0.11060058167E+04  0.91256531671E+02 0.  0.
        -13    1    4    4    0    0 -0.61491951676E+02 -0.30892027772E+02  0.85634087972E+03  0.85910144392E+03  0.10566000000E+00 0. -1.
         13    1    4    4    0    0  0.30168051365E+02  0.12954087157E+01  0.24505095127E+03  0.24690437277E+03  0.10566000000E+00 0.  1.
    9000005    1    3    3    0    0  0.60440626057E+02 -0.26579923671E+02  0.42037130057E+03  0.42552625296E+03  0.10000000000E+01 0.  0.
    9000005    1    3    3    0    0 -0.29116725746E+02  0.56176542727E+02  0.61722118381E+03  0.62045674903E+03  0.10000000000E+01 0.  0.
<mgrwt>
<rscale>  0 0.12358588E+03</rscale>
<asrwt>0</asrwt>
<pdfrwt beam="1">  1        1 0.33007518E+00 0.13222056E+03</pdfrwt>
<pdfrwt beam="2">  1       -1 0.10003454E-02 0.13222056E+03</pdfrwt>
<totfact> 0.50450766E+03</totfact>
</mgrwt>
</event>
<event>
 8    3  0.1560846E-003  0.1267073E+03  0.7818608E-02  0.1247785E+00
          1   -1    0    0  501    0  0.00000000000E+00  0.00000000000E+00  0.24071010138E+03  0.24071010143E+03  0.50400000000E-02 0. -1.
         -1   -1    0    0    0  501 -0.00000000000E+00 -0.00000000000E+00 -0.54676195025E+02  0.54676195257E+02  0.50400000000E-02 0.  1.
         25    2    1    2    0    0  0.15436020433E+02 -0.13858929934E+02  0.14879432422E+03  0.19543411840E+03  0.12499761216E+03 0.  0.
         23    2    1    2    0    0 -0.15436020433E+02  0.13858929934E+02  0.37239582130E+02  0.99952178291E+02  0.90406364832E+02 0.  0.
        -13    1    4    4    0    0  0.36485140084E+02 -0.18593020447E+01  0.50702614299E+01  0.36882803121E+02  0.10566000000E+00 0.  1.
         13    1    4    4    0    0 -0.51921160517E+02  0.15718231979E+02  0.32169320700E+02  0.63069375170E+02  0.10566000000E+00 0. -1.
    9000005    1    3    3    0    0  0.45478620567E+02 -0.31568809167E+02  0.15284867921E+02  0.57441464363E+02  0.10000000000E+01 0.  0.
    9000005    1    3    3    0    0 -0.30042600134E+02  0.17709879232E+02  0.13350945630E+03  0.13799265403E+03  0.10000000000E+01 0.  0.
<mgrwt>
<rscale>  0 0.11720243E+03</rscale>
<asrwt>0</asrwt>
<pdfrwt beam="1">  1        1 0.37032323E-01 0.12670732E+03</pdfrwt>
<pdfrwt beam="2">  1       -1 0.84117224E-02 0.12670732E+03</pdfrwt>
<totfact> 0.86951009E+03</totfact>
</mgrwt>
</event>
<event>
 8    3  0.1560846E-003  0.1410706E+03  0.7818608E-02  0.1222717E+00
          1   -1    0    0  501    0  0.00000000000E+00  0.00000000000E+00  0.12388849004E+03  0.12388849015E+03  0.50400000000E-02 0. -1.
         -1   -1    0    0    0  501 -0.00000000000E+00 -0.00000000000E+00 -0.12983055989E+03  0.12983055998E+03  0.50400000000E-02 0.  1.
         25    2    1    2    0    0  0.47898016319E+02 -0.44541163391E+02  0.27816868691E+01  0.14109802582E+03  0.12499111931E+03 0.  0.
         23    2    1    2    0    0 -0.47898016319E+02  0.44541163391E+02 -0.87237567116E+01  0.11262102431E+03  0.91264757611E+02 0.  0.
        -13    1    4    4    0    0 -0.14214272790E+02  0.69014810237E+02 -0.85863865172E+01  0.70984693987E+02  0.10566000000E+00 0.  1.
         13    1    4    4    0    0 -0.33683743529E+02 -0.24473646846E+02 -0.13737019445E+00  0.41636330322E+02  0.10566000000E+00 0. -1.
    9000005    1    3    3    0    0  0.63786028319E+02 -0.79568005539E+02 -0.38466614447E+01  0.10205646338E+03  0.10000000000E+01 0.  0.
    9000005    1    3    3    0    0 -0.15888012000E+02  0.35026842148E+02  0.66283483138E+01  0.39041562437E+02  0.10000000000E+01 0.  0.
<mgrwt>
<rscale>  0 0.13324642E+03</rscale>
<asrwt>0</asrwt>
<pdfrwt beam="1">  1        1 0.19059768E-01 0.14107060E+03</pdfrwt>
<pdfrwt beam="2">  1       -1 0.19973932E-01 0.14107060E+03</pdfrwt>
<totfact> 0.52534631E+03</totfact>
</mgrwt>
</event>
<event>
 8    3  0.1560846E-003  0.1642934E+03  0.7818608E-02  0.1190913E+00
         -1   -1    0    0    0  501 -0.00000000000E+00  0.00000000000E+00  0.10775459478E+03  0.10775459490E+03  0.50400000000E-02 0.  1.
          1   -1    0    0  501    0  0.00000000000E+00 -0.00000000000E+00 -0.85285406402E+03  0.85285406403E+03  0.50400000000E-02 0. -1.
         25    2    1    2    0    0  0.50307947942E+02  0.94001157171E+02 -0.79462509001E+03  0.81143167597E+03  0.12500089571E+03 0.  0.
         23    2    1    2    0    0 -0.50307947942E+02 -0.94001157171E+02  0.49525620772E+02  0.14917698295E+03  0.91836147319E+02 0.  0.
        -13    1    4    4    0    0 -0.24607477504E+02 -0.24676219431E+02  0.64895633103E+02  0.73660695859E+02  0.10566000000E+00 0.  1.
         13    1    4    4    0    0 -0.25700470438E+02 -0.69324937740E+02 -0.15370012331E+02  0.75516287094E+02  0.10566000000E+00 0. -1.
    9000005    1    3    3    0    0 -0.40492865553E+02  0.18371406363E+02 -0.27197509598E+03  0.27558779648E+03  0.10000000000E+01 0.  0.
    9000005    1    3    3    0    0  0.90800813495E+02  0.75629750807E+02 -0.52264999403E+03  0.53584387950E+03  0.10000000000E+01 0.  0.
<mgrwt>
<rscale>  0 0.15805236E+03</rscale>
<asrwt>0</asrwt>
<pdfrwt beam="2">  1        1 0.13120831E+00 0.16429343E+03</pdfrwt>
<pdfrwt beam="1">  1       -1 0.16577631E-01 0.16429343E+03</pdfrwt>
<totfact> 0.57746505E+02</totfact>
</mgrwt>
</event>
<event>
 8    3  0.1560846E-003  0.1507083E+03  0.7818608E-02  0.1208635E+00
         -1   -1    0    0    0  501 -0.00000000000E+00  0.00000000000E+00  0.19899771184E+02  0.19899771822E+02  0.50400000000E-02 0.  1.
          1   -1    0    0  501    0  0.00000000000E+00 -0.00000000000E+00 -0.11247072099E+04  0.11247072099E+04  0.50400000000E-02 0. -1.
         25    2    1    2    0    0 -0.69156670278E+02 -0.47909562809E+02 -0.37188082218E+03  0.40125845108E+03  0.12504010318E+03 0.  0.
         23    2    1    2    0    0  0.69156670278E+02  0.47909562809E+02 -0.73292661657E+03  0.74334853069E+03  0.91146264602E+02 0.  0.
        -13    1    4    4    0    0 -0.10597744666E+02  0.14790483871E+02 -0.29637984467E+02  0.34777749963E+02  0.10566000000E+00 0.  1.
         13    1    4    4    0    0  0.79754414943E+02  0.33119078938E+02 -0.70328863211E+03  0.70857078073E+03  0.10566000000E+00 0. -1.
    9000005    1    3    3    0    0 -0.11467363652E+02 -0.81035010292E+02 -0.23950015680E+03  0.25309977959E+03  0.10000000000E+01 0.  0.
    9000005    1    3    3    0    0 -0.57689306626E+02  0.33125447483E+02 -0.13238066538E+03  0.14815867149E+03  0.10000000000E+01 0.  0.
<mgrwt>
<rscale>  0 0.14354639E+03</rscale>
<asrwt>0</asrwt>
<pdfrwt beam="2">  1        1 0.17303183E+00 0.15070832E+03</pdfrwt>
<pdfrwt beam="1">  1       -1 0.30615042E-02 0.15070832E+03</pdfrwt>
<totfact> 0.46598095E+03</totfact>
</mgrwt>
</event>
<event>
 8    3  0.1560846E-003  0.1316803E+03  0.7818608E-02  0.1240093E+00
          1   -1    0    0  501    0  0.00000000000E+00  0.00000000000E+00  0.12330837020E+02  0.12330838050E+02  0.50400000000E-02 0. -1.
         -1   -1    0    0    0  501 -0.00000000000E+00 -0.00000000000E+00 -0.11419204672E+04  0.11419204672E+04  0.50400000000E-02 0.  1.
         25    2    1    2    0    0 -0.32026876955E+02 -0.26238745265E+02 -0.80205417646E+03  0.81279185456E+03  0.12500201700E+03 0.  0.
         23    2    1    2    0    0  0.32026876955E+02  0.26238745265E+02 -0.32753545372E+03  0.34145945071E+03  0.87183085705E+02 0.  0.
        -13    1    4    4    0    0  0.46650062401E+01 -0.21532714470E+02 -0.21555391348E+03  0.21667699660E+03  0.10566000000E+00 0.  1.
         13    1    4    4    0    0  0.27361870715E+02  0.47771459735E+02 -0.11198154025E+03  0.12478245411E+03  0.10566000000E+00 0. -1.
    9000005    1    3    3    0    0 -0.29424612134E+02 -0.50209332356E+02 -0.77226117167E+03  0.77445148468E+03  0.10000000000E+01 0.  0.
    9000005    1    3    3    0    0 -0.26022648209E+01  0.23970587091E+02 -0.29793004790E+02  0.38340369874E+02  0.10000000000E+01 0.  0.
<mgrwt>
<rscale>  0 0.12183972E+03</rscale>
<asrwt>0</asrwt>
<pdfrwt beam="1">  1        1 0.18970528E-02 0.13168028E+03</pdfrwt>
<pdfrwt beam="2">  1       -1 0.17567999E+00 0.13168028E+03</pdfrwt>
<totfact> 0.15547113E+03</totfact>
</mgrwt>
</event>
<event>
 8    3  0.1560846E-003  0.1796301E+03  0.7818608E-02  0.1174760E+00
         -1   -1    0    0    0  501 -0.00000000000E+00  0.00000000000E+00  0.35125466178E+04  0.35125466178E+04  0.50400000000E-02 0.  1.
          1   -1    0    0  501    0  0.00000000000E+00 -0.00000000000E+00 -0.91836637810E+01  0.91836651640E+01  0.50400000000E-02 0. -1.
         25    2    1    2    0    0  0.65629479351E+01 -0.12883791097E+03  0.25101312119E+04  0.25165503551E+04  0.12499883698E+03 0.  0.
         23    2    1    2    0    0 -0.65629479351E+01  0.12883791097E+03  0.99323174215E+03  0.10051799279E+04  0.85059474686E+02 0.  0.
        -13    1    4    4    0    0  0.35019278826E+02  0.39651873562E+02  0.25592074656E+03  0.26133132352E+03  0.10566000000E+00 0.  1.
         13    1    4    4    0    0 -0.41582226761E+02  0.89186037407E+02  0.73731099559E+03  0.74384860438E+03  0.10566000000E+00 0. -1.
    9000005    1    3    3    0    0 -0.24331180183E+02 -0.61320313985E+02  0.19953951782E+04  0.19964856885E+04  0.10000000000E+01 0.  0.
    9000005    1    3    3    0    0  0.30894128118E+02 -0.67517596984E+02  0.51473603371E+03  0.52006466660E+03  0.10000000000E+01 0.  0.
<mgrwt>
<rscale>  0 0.17299469E+03</rscale>
<asrwt>0</asrwt>
<pdfrwt beam="2">  1        1 0.14128710E-02 0.17963014E+03</pdfrwt>
<pdfrwt beam="1">  1       -1 0.54039198E+00 0.17963014E+03</pdfrwt>
<totfact> 0.10269005E+01</totfact>
</mgrwt>
</event>
<event>
 8    3  0.1560846E-003  0.1295339E+03  0.7818608E-02  0.1242196E+00
          1   -1    0    0  501    0  0.00000000000E+00  0.00000000000E+00  0.11165246770E+03  0.11165246781E+03  0.50400000000E-02 0. -1.
         -1   -1    0    0    0  501 -0.00000000000E+00 -0.00000000000E+00 -0.14192823353E+03  0.14192823362E+03  0.50400000000E-02 0.  1.
         25    2    1    2    0    0 -0.46977454451E+01 -0.33646902252E+02  0.37809615108E+02  0.13493925453E+03  0.12499941030E+03 0.  0.
         23    2    1    2    0    0  0.46977454451E+01  0.33646902252E+02 -0.68085380944E+02  0.11864144691E+03  0.91027418851E+02 0.  0.
        -13    1    4    4    0    0  0.43730894735E+02  0.24162528926E+02 -0.15185712643E+02  0.52219115187E+02  0.10566000000E+00 0. -1.
         13    1    4    4    0    0 -0.39033149289E+02  0.94843733263E+01 -0.52899668301E+02  0.66422331721E+02  0.10566000000E+00 0.  1.
    9000005    1    3    3    0    0  0.38449380403E+02 -0.65596019356E+01  0.66026419483E+02  0.76693358908E+02  0.10000000000E+01 0.  0.
    9000005    1    3    3    0    0 -0.43147125848E+02 -0.27087300317E+02 -0.28216804374E+02  0.58245895619E+02  0.10000000000E+01 0.  0.
<mgrwt>
<rscale>  0 0.12054803E+03</rscale>
<asrwt>0</asrwt>
<pdfrwt beam="1">  1        1 0.17177303E-01 0.12953392E+03</pdfrwt>
<pdfrwt beam="2">  1       -1 0.21835113E-01 0.12953392E+03</pdfrwt>
<totfact> 0.51698616E+03</totfact>
</mgrwt>
</event>
<event>
 8    3  0.1560846E-003  0.1309804E+03  0.7818608E-02  0.1238236E+00
         -1   -1    0    0    0  501 -0.00000000000E+00  0.00000000000E+00  0.60095685725E+03  0.60095685727E+03  0.50400000000E-02 0.  1.
          1   -1    0    0  501    0  0.00000000000E+00 -0.00000000000E+00 -0.23150839193E+02  0.23150839742E+02  0.50400000000E-02 0. -1.
         25    2    1    2    0    0 -0.32446834838E+02 -0.21851770165E+02  0.27424949133E+03  0.30392210861E+03  0.12500227063E+03 0.  0.
         23    2    1    2    0    0  0.32446834838E+02  0.21851770165E+02  0.30355652673E+03  0.32018558839E+03  0.94031639074E+02 0.  0.
        -13    1    4    4    0    0 -0.15940621170E+02 -0.13055467460E+02  0.14901171543E+02  0.25428423294E+02  0.10566000000E+00 0. -1.
         13    1    4    4    0    0  0.48387456007E+02  0.34907237624E+02  0.28865535518E+03  0.29475716510E+03  0.10566000000E+00 0.  1.
    9000005    1    3    3    0    0 -0.14301847399E+02 -0.53997962161E+02  0.45056441590E+02  0.71773293678E+02  0.10000000000E+01 0.  0.
    9000005    1    3    3    0    0 -0.18144987438E+02  0.32146191997E+02  0.22919304974E+03  0.23214881494E+03  0.10000000000E+01 0.  0.
<mgrwt>
<rscale>  0 0.12299539E+03</rscale>
<asrwt>0</asrwt>
<pdfrwt beam="2">  1        1 0.35616675E-02 0.13098040E+03</pdfrwt>
<pdfrwt beam="1">  1       -1 0.92454905E-01 0.13098040E+03</pdfrwt>
<totfact> 0.30826469E+03</totfact>
</mgrwt>
</event>
<event>
 8    3  0.1560846E-003  0.1448201E+03  0.7818608E-02  0.1216821E+00
         -1   -1    0    0    0  501 -0.00000000000E+00  0.00000000000E+00  0.36471798019E+02  0.36471798367E+02  0.50400000000E-02 0.  1.
          1   -1    0    0  501    0  0.00000000000E+00 -0.00000000000E+00 -0.62046663420E+03  0.62046663422E+03  0.50400000000E-02 0. -1.
         25    2    1    2    0    0 -0.65582171544E+02 -0.32332894844E+02 -0.47538534905E+03  0.49695482810E+03  0.12500573496E+03 0.  0.
         23    2    1    2    0    0  0.65582171544E+02  0.32332894844E+02 -0.10860948713E+03  0.15998360449E+03  0.91936367642E+02 0.  0.
        -13    1    4    4    0    0 -0.20463676254E+02 -0.58596558368E+01 -0.95648032315E+01  0.23336542958E+02  0.10566000000E+00 0.  1.
         13    1    4    4    0    0  0.86045847797E+02  0.38192550681E+02 -0.99044683903E+02  0.13664706153E+03  0.10566000000E+00 0. -1.
    9000005    1    3    3    0    0 -0.90282841350E+02 -0.28305947189E+02 -0.20931857534E+03  0.22971174126E+03  0.10000000000E+01 0.  0.
    9000005    1    3    3    0    0  0.24700669806E+02 -0.40269476547E+01 -0.26606677370E+03  0.26724308684E+03  0.10000000000E+01 0.  0.
<mgrwt>
<rscale>  0 0.13743635E+03</rscale>
<asrwt>0</asrwt>
<pdfrwt beam="2">  1        1 0.95456397E-01 0.14482013E+03</pdfrwt>
<pdfrwt beam="1">  1       -1 0.56110463E-02 0.14482013E+03</pdfrwt>
<totfact> 0.48180526E+03</totfact>
</mgrwt>
</event>
<event>
 8    3  0.1560846E-003  0.1541119E+03  0.7818608E-02  0.1207927E+00
         -1   -1    0    0    0  501 -0.00000000000E+00  0.00000000000E+00  0.57155898082E+02  0.57155898304E+02  0.50400000000E-02 0.  1.
          1   -1    0    0  501    0  0.00000000000E+00 -0.00000000000E+00 -0.32554991765E+03  0.32554991769E+03  0.50400000000E-02 0. -1.
         25    2    1    2    0    0 -0.16180206800E+01 -0.90126017985E+02 -0.13636875326E+03  0.20578367745E+03  0.12500067171E+03 0.  0.
         23    2    1    2    0    0  0.16180206800E+01  0.90126017985E+02 -0.13202526630E+03  0.17692213854E+03  0.75798780041E+02 0.  0.
        -13    1    4    4    0    0 -0.14103673921E+02  0.35612425242E+02 -0.60740380456E+01  0.38782258211E+02  0.10566000000E+00 0.  1.
         13    1    4    4    0    0  0.15721694601E+02  0.54513592743E+02 -0.12595122826E+03  0.13813988033E+03  0.10566000000E+00 0. -1.
    9000005    1    3    3    0    0 -0.27282240440E+02 -0.95647457542E+00 -0.10396500685E+03  0.10749399117E+03  0.10000000000E+01 0.  0.
    9000005    1    3    3    0    0  0.25664219760E+02 -0.89169543410E+02 -0.32403746410E+02  0.98289686281E+02  0.10000000000E+01 0.  0.
<mgrwt>
<rscale>  0 0.14409196E+03</rscale>
<asrwt>0</asrwt>
<pdfrwt beam="2">  1        1 0.50084602E-01 0.15411192E+03</pdfrwt>
<pdfrwt beam="1">  1       -1 0.87932152E-02 0.15411192E+03</pdfrwt>
<totfact> 0.56667537E+03</totfact>
</mgrwt>
</event>
<event>
 8    3  0.1560846E-003  0.1346824E+03  0.7818608E-02  0.1233464E+00
          1   -1    0    0  501    0  0.00000000000E+00  0.00000000000E+00  0.45943359421E+02  0.45943359697E+02  0.50400000000E-02 0. -1.
         -1   -1    0    0    0  501 -0.00000000000E+00 -0.00000000000E+00 -0.32280352285E+03  0.32280352289E+03  0.50400000000E-02 0.  1.
         25    2    1    2    0    0 -0.23057381209E+02  0.44497262427E+02 -0.11687789233E+03  0.17832498490E+03  0.12501083686E+03 0.  0.
         23    2    1    2    0    0  0.23057381209E+02 -0.44497262427E+02 -0.15998227110E+03  0.19042189769E+03  0.90302396767E+02 0.  0.
        -13    1    4    4    0    0 -0.85513722115E+00  0.27379330150E+02 -0.38297398985E+02  0.47085676295E+02  0.10566000000E+00 0.  1.
         13    1    4    4    0    0  0.23912518431E+02 -0.71876592577E+02 -0.12168487212E+03  0.14333622140E+03  0.10566000000E+00 0. -1.
    9000005    1    3    3    0    0  0.38267944768E+02 -0.19458493821E+01  0.82323892836E-01  0.38330519222E+02  0.10000000000E+01 0.  0.
    9000005    1    3    3    0    0 -0.61325325978E+02  0.46443111809E+02 -0.11696021622E+03  0.13999446568E+03  0.10000000000E+01 0.  0.
<mgrwt>
<rscale>  0 0.12603301E+03</rscale>
<asrwt>0</asrwt>
<pdfrwt beam="1">  1        1 0.70682094E-02 0.13468244E+03</pdfrwt>
<pdfrwt beam="2">  1       -1 0.49662079E-01 0.13468244E+03</pdfrwt>
<totfact> 0.41050766E+03</totfact>
</mgrwt>
</event>
<event>
 8    3  0.1560846E-003  0.1362916E+03  0.7818608E-02  0.1230304E+00
         -1   -1    0    0    0  501 -0.00000000000E+00  0.00000000000E+00  0.86531599506E+03  0.86531599507E+03  0.50400000000E-02 0.  1.
          1   -1    0    0  501    0  0.00000000000E+00 -0.00000000000E+00 -0.17339682329E+02  0.17339683062E+02  0.50400000000E-02 0. -1.
         25    2    1    2    0    0 -0.51543697137E+02  0.17119153259E+02  0.41499571515E+03  0.43680298237E+03  0.12500233472E+03 0.  0.
         23    2    1    2    0    0  0.51543697137E+02 -0.17119153259E+02  0.43298059758E+03  0.44585269577E+03  0.91447309010E+02 0.  0.
        -13    1    4    4    0    0  0.15217793767E+02 -0.23420271601E+02  0.38155817726E+03  0.38257906917E+03  0.10566000000E+00 0.  1.
         13    1    4    4    0    0  0.36325903370E+02  0.63011183418E+01  0.51422420319E+02  0.63273626603E+02  0.10566000000E+00 0. -1.
    9000005    1    3    3    0    0 -0.71347937082E+02  0.32802644098E+02  0.39950900360E+03  0.40715474398E+03  0.10000000000E+01 0.  0.
    9000005    1    3    3    0    0  0.19804239945E+02 -0.15683490839E+02  0.15486711550E+02  0.29648238385E+02  0.10000000000E+01 0.  0.
<mgrwt>
<rscale>  0 0.12809917E+03</rscale>
<asrwt>0</asrwt>
<pdfrwt beam="2">  1        1 0.26676434E-02 0.13629161E+03</pdfrwt>
<pdfrwt beam="1">  1       -1 0.13312554E+00 0.13629161E+03</pdfrwt>
<totfact> 0.20031303E+03</totfact>
</mgrwt>
</event>
<event>
 8    3  0.1560846E-003  0.2030496E+03  0.7818608E-02  0.1151295E+00
          1   -1    0    0  501    0  0.00000000000E+00  0.00000000000E+00  0.33279873427E+03  0.33279873431E+03  0.50400000000E-02 0. -1.
         -1   -1    0    0    0  501 -0.00000000000E+00 -0.00000000000E+00 -0.12169225618E+03  0.12169225629E+03  0.50400000000E-02 0.  1.
         25    2    1    2    0    0  0.43276237323E+02 -0.15404836354E+03  0.17215337159E+03  0.26620654338E+03  0.12500163745E+03 0.  0.
         23    2    1    2    0    0 -0.43276237323E+02  0.15404836354E+03  0.38953106500E+02  0.18828444722E+03  0.91268601019E+02 0.  0.
        -13    1    4    4    0    0 -0.66370083985E+02  0.11264778527E+03  0.66429496846E+01  0.13091467267E+03  0.10566000000E+00 0. -1.
         13    1    4    4    0    0  0.23093846662E+02  0.41400578266E+02  0.32310156816E+02  0.57369774550E+02  0.10566000000E+00 0.  1.
    9000005    1    3    3    0    0  0.35175887453E+02 -0.15468953829E+03  0.18943204531E+03  0.24708641424E+03  0.10000000000E+01 0.  0.
    9000005    1    3    3    0    0  0.81003498697E+01  0.64117475083E+00 -0.17278673715E+02  0.19120129142E+02  0.10000000000E+01 0.  0.
<mgrwt>
<rscale>  0 0.19816661E+03</rscale>
<asrwt>0</asrwt>
<pdfrwt beam="1">  1        1 0.51199805E-01 0.20304960E+03</pdfrwt>
<pdfrwt beam="2">  1       -1 0.18721886E-01 0.20304960E+03</pdfrwt>
<totfact> 0.17117424E+03</totfact>
</mgrwt>
</event>
<event>
 8    3  0.1560846E-003  0.1347856E+03  0.7818608E-02  0.1232550E+00
          1   -1    0    0  501    0  0.00000000000E+00  0.00000000000E+00  0.27935293374E+03  0.27935293378E+03  0.50400000000E-02 0. -1.
         -1   -1    0    0    0  501 -0.00000000000E+00 -0.00000000000E+00 -0.55343532172E+02  0.55343532402E+02  0.50400000000E-02 0.  1.
         25    2    1    2    0    0 -0.42105153387E+02 -0.27733429594E+02  0.16899777426E+03  0.21616521146E+03  0.12500065553E+03 0.  0.
         23    2    1    2    0    0  0.42105153387E+02  0.27733429594E+02  0.55011627309E+02  0.11853125472E+03  0.92094474038E+02 0.  0.
        -13    1    4    4    0    0  0.45334869196E+02  0.43056866394E+02  0.12506073678E+01  0.62535744111E+02  0.10566000000E+00 0.  1.
         13    1    4    4    0    0 -0.32297158089E+01 -0.15323436801E+02  0.53761019941E+02  0.55995510612E+02  0.10566000000E+00 0. -1.
    9000005    1    3    3    0    0  0.13243251824E+02  0.34616567528E+02  0.10410363795E+03  0.11050908515E+03  0.10000000000E+01 0.  0.
    9000005    1    3    3    0    0 -0.55348405211E+02 -0.62349997122E+02  0.64894136313E+02  0.10565612632E+03  0.10000000000E+01 0.  0.
<mgrwt>
<rscale>  0 0.12662571E+03</rscale>
<asrwt>0</asrwt>
<pdfrwt beam="1">  1        1 0.42977374E-01 0.13478557E+03</pdfrwt>
<pdfrwt beam="2">  1       -1 0.85143897E-02 0.13478557E+03</pdfrwt>
<totfact> 0.71353974E+03</totfact>
</mgrwt>
</event>
<event>
 8    3  0.1560846E-003  0.1395673E+03  0.7818608E-02  0.1224727E+00
         -1   -1    0    0    0  501 -0.00000000000E+00  0.00000000000E+00  0.51122983768E+03  0.51122983770E+03  0.50400000000E-02 0.  1.
          1   -1    0    0  501    0  0.00000000000E+00 -0.00000000000E+00 -0.34529447840E+02  0.34529448207E+02  0.50400000000E-02 0. -1.
         25    2    1    2    0    0  0.19995274808E+02  0.58791856899E+02  0.17258989067E+03  0.22196011964E+03  0.12499092326E+03 0.  0.
         23    2    1    2    0    0 -0.19995274808E+02 -0.58791856899E+02  0.30411049916E+03  0.32379916626E+03  0.92230206114E+02 0.  0.
        -13    1    4    4    0    0  0.57070818662E+01  0.12772043587E+02  0.16218454361E+03  0.16278677228E+03  0.10566000000E+00 0.  1.
         13    1    4    4    0    0 -0.25702356674E+02 -0.71563900486E+02  0.14192595556E+03  0.16101239398E+03  0.10566000000E+00 0. -1.
    9000005    1    3    3    0    0  0.58069911758E+02  0.77729386206E+02  0.12027201435E+03  0.15453261652E+03  0.10000000000E+01 0.  0.
    9000005    1    3    3    0    0 -0.38074636950E+02 -0.18937529307E+02  0.52317876323E+02  0.67427503128E+02  0.10000000000E+01 0.  0.
<mgrwt>
<rscale>  0 0.13185660E+03</rscale>
<asrwt>0</asrwt>
<pdfrwt beam="2">  1        1 0.53122223E-02 0.13956728E+03</pdfrwt>
<pdfrwt beam="1">  1       -1 0.78650751E-01 0.13956728E+03</pdfrwt>
<totfact> 0.25043574E+03</totfact>
</mgrwt>
</event>
<event>
 8    3  0.1560846E-003  0.1626076E+03  0.7818608E-02  0.1193187E+00
         -1   -1    0    0    0  501 -0.00000000000E+00  0.00000000000E+00  0.12518556052E+03  0.12518556063E+03  0.50400000000E-02 0.  1.
          1   -1    0    0  501    0  0.00000000000E+00 -0.00000000000E+00 -0.18679870643E+03  0.18679870650E+03  0.50400000000E-02 0. -1.
         25    2    1    2    0    0 -0.25665679613E+02  0.10078188179E+03 -0.61735354920E+02  0.17393244998E+03  0.12500211319E+03 0.  0.
         23    2    1    2    0    0  0.25665679613E+02 -0.10078188179E+03  0.12220900896E+00  0.13805181715E+03  0.90788625262E+02 0.  0.
        -13    1    4    4    0    0  0.12488614668E+02 -0.56141499527E+02 -0.45151795617E+02  0.73119964968E+02  0.10566000000E+00 0. -1.
         13    1    4    4    0    0  0.13177064945E+02 -0.44640382262E+02  0.45274004626E+02  0.64931852183E+02  0.10566000000E+00 0.  1.
    9000005    1    3    3    0    0 -0.33623591659E+02  0.10570228537E+03 -0.90820719452E+02  0.14336290360E+03  0.10000000000E+01 0.  0.
    9000005    1    3    3    0    0  0.79579120453E+01 -0.49204035784E+01  0.29085364532E+02  0.30569546374E+02  0.10000000000E+01 0.  0.
<mgrwt>
<rscale>  0 0.15608680E+03</rscale>
<asrwt>0</asrwt>
<pdfrwt beam="2">  1        1 0.28738263E-01 0.16260764E+03</pdfrwt>
<pdfrwt beam="1">  1       -1 0.19259317E-01 0.16260764E+03</pdfrwt>
<totfact> 0.33409396E+03</totfact>
</mgrwt>
</event>
<event>
 8    3  0.1560846E-003  0.1513688E+03  0.7818608E-02  0.1207568E+00
          1   -1    0    0  501    0  0.00000000000E+00  0.00000000000E+00  0.14610751070E+03  0.14610751079E+03  0.50400000000E-02 0. -1.
         -1   -1    0    0    0  501 -0.00000000000E+00 -0.00000000000E+00 -0.13231802466E+03  0.13231802475E+03  0.50400000000E-02 0.  1.
         25    2    1    2    0    0 -0.59760854390E+02  0.60960600791E+02  0.21729246645E+02  0.15292045267E+03  0.12499980047E+03 0.  0.
         23    2    1    2    0    0  0.59760854390E+02 -0.60960600791E+02 -0.79397605995E+01  0.12550508287E+03  0.91656595301E+02 0.  0.
        -13    1    4    4    0    0  0.74070059845E+02 -0.24889902261E+02 -0.26470766970E+02  0.82502082810E+02  0.10566000000E+00 0.  1.
         13    1    4    4    0    0 -0.14309205455E+02 -0.36070698531E+02  0.18531006370E+02  0.43003000062E+02  0.10566000000E+00 0. -1.
    9000005    1    3    3    0    0  0.25428053877E+02  0.12019781695E+02 -0.30623325554E+02  0.41591455180E+02  0.10000000000E+01 0.  0.
    9000005    1    3    3    0    0 -0.85188908268E+02  0.48940819096E+02  0.52352572199E+02  0.11132899749E+03  0.10000000000E+01 0.  0.
<mgrwt>
<rscale>  0 0.14436930E+03</rscale>
<asrwt>0</asrwt>
<pdfrwt beam="1">  1        1 0.22478079E-01 0.15136877E+03</pdfrwt>
<pdfrwt beam="2">  1       -1 0.20356619E-01 0.15136877E+03</pdfrwt>
<totfact> 0.41486887E+03</totfact>
</mgrwt>
</event>
<event>
 8    3  0.1560846E-003  0.1274169E+03  0.7818608E-02  0.1247944E+00
          1   -1    0    0  501    0  0.00000000000E+00  0.00000000000E+00  0.27930455136E+03  0.27930455141E+03  0.50400000000E-02 0. -1.
         -1   -1    0    0    0  501 -0.00000000000E+00 -0.00000000000E+00 -0.43577633686E+02  0.43577633977E+02  0.50400000000E-02 0.  1.
         25    2    1    2    0    0  0.23845841378E+01  0.24585769417E+02  0.11419115826E+03  0.17109849917E+03  0.12499971797E+03 0.  0.
         23    2    1    2    0    0 -0.23845841378E+01 -0.24585769417E+02  0.12153575942E+03  0.15178368622E+03  0.87505430033E+02 0.  0.
        -13    1    4    4    0    0 -0.35394003279E+02 -0.21210753234E+02  0.21789079813E+02  0.46662690492E+02  0.10566000000E+00 0.  1.
         13    1    4    4    0    0  0.33009419141E+02 -0.33750161836E+01  0.99746679602E+02  0.10512099572E+03  0.10566000000E+00 0. -1.
    9000005    1    3    3    0    0 -0.22313572276E+02 -0.46787767666E+02  0.48549708064E+02  0.71028620034E+02  0.10000000000E+01 0.  0.
    9000005    1    3    3    0    0  0.24698156414E+02  0.71373537083E+02  0.65641450195E+02  0.10006987913E+03  0.10000000000E+01 0.  0.
<mgrwt>
<rscale>  0 0.11710923E+03</rscale>
<asrwt>0</asrwt>
<pdfrwt beam="1">  1        1 0.42969930E-01 0.12741694E+03</pdfrwt>
<pdfrwt beam="2">  1       -1 0.67042515E-02 0.12741694E+03</pdfrwt>
<totfact> 0.10180294E+04</totfact>
</mgrwt>
</event>
<event>
 8    3  0.1560846E-003  0.1342205E+03  0.7818608E-02  0.1234789E+00
          1   -1    0    0  501    0  0.00000000000E+00  0.00000000000E+00  0.87456206700E+03  0.87456206701E+03  0.50400000000E-02 0. -1.
         -1   -1    0    0    0  501 -0.00000000000E+00 -0.00000000000E+00 -0.15927297216E+02  0.15927298014E+02  0.50400000000E-02 0.  1.
         25    2    1    2    0    0 -0.53515419189E+01  0.48673860364E+02  0.50996375425E+03  0.52733118209E+03  0.12496944132E+03 0.  0.
         23    2    1    2    0    0  0.53515419189E+01 -0.48673860364E+02  0.34867101553E+03  0.36315818294E+03  0.88964066248E+02 0.  0.
        -13    1    4    4    0    0  0.19022641766E+02 -0.65083416193E+02  0.32162833151E+03  0.32869820011E+03  0.10566000000E+00 0.  1.
         13    1    4    4    0    0 -0.13671099847E+02  0.16409555829E+02  0.27042684015E+02  0.34459982825E+02  0.10566000000E+00 0. -1.
    9000005    1    3    3    0    0  0.11438993477E+02  0.89210194048E+02  0.32343974099E+03  0.33571353167E+03  0.10000000000E+01 0.  0.
    9000005    1    3    3    0    0 -0.16790535396E+02 -0.40536333685E+02  0.18652401327E+03  0.19161765042E+03  0.10000000000E+01 0.  0.
<mgrwt>
<rscale>  0 0.12517975E+03</rscale>
<asrwt>0</asrwt>
<pdfrwt beam="1">  1        1 0.13454802E+00 0.13422051E+03</pdfrwt>
<pdfrwt beam="2">  1       -1 0.24503534E-02 0.13422051E+03</pdfrwt>
<totfact> 0.97887884E+03</totfact>
</mgrwt>
</event>
<event>
 8    3  0.1560846E-003  0.1490865E+03  0.7818608E-02  0.1210506E+00
          1   -1    0    0  501    0  0.00000000000E+00  0.00000000000E+00  0.61693435640E+03  0.61693435642E+03  0.50400000000E-02 0. -1.
         -1   -1    0    0    0  501 -0.00000000000E+00 -0.00000000000E+00 -0.31023785100E+02  0.31023785509E+02  0.50400000000E-02 0.  1.
         25    2    1    2    0    0 -0.51697504655E+02  0.62673169519E+02  0.37792201102E+03  0.40626571365E+03  0.12500490192E+03 0.  0.
         23    2    1    2    0    0  0.51697504655E+02 -0.62673169519E+02  0.20798856028E+03  0.24169242829E+03  0.92495570266E+02 0.  0.
        -13    1    4    4    0    0 -0.25247812486E+02 -0.19292382634E+02  0.33821720466E+02  0.46406551287E+02  0.10566000000E+00 0.  1.
         13    1    4    4    0    0  0.76945317141E+02 -0.43380786885E+02  0.17416683981E+03  0.19528587700E+03  0.10566000000E+00 0. -1.
    9000005    1    3    3    0    0 -0.33183095877E+02 -0.29301268625E+02  0.58619980558E+02  0.73464170285E+02  0.10000000000E+01 0.  0.
    9000005    1    3    3    0    0 -0.18514408777E+02  0.91974438144E+02  0.31930203047E+03  0.33280154336E+03  0.10000000000E+01 0.  0.
<mgrwt>
<rscale>  0 0.14211888E+03</rscale>
<asrwt>0</asrwt>
<pdfrwt beam="1">  1        1 0.94912968E-01 0.14908650E+03</pdfrwt>
<pdfrwt beam="2">  1       -1 0.47728905E-02 0.14908650E+03</pdfrwt>
<totfact> 0.61829259E+03</totfact>
</mgrwt>
</event>
<event>
 8    3  0.1560846E-003  0.5272652E+03  0.7818608E-02  0.1007311E+00
         -1   -1    0    0    0  501 -0.00000000000E+00  0.00000000000E+00  0.81937657283E+03  0.81937657284E+03  0.50400000000E-02 0. -1.
          1   -1    0    0  501    0  0.00000000000E+00 -0.00000000000E+00 -0.35523210643E+03  0.35523210647E+03  0.50400000000E-02 0.  1.
         25    2    1    2    0    0 -0.50511042673E+03 -0.85132783568E+02  0.37370111918E+03  0.64626705152E+03  0.12499776547E+03 0.  0.
         23    2    1    2    0    0  0.50511042673E+03  0.85132783568E+02  0.90443347211E+02  0.52834162779E+03  0.92632297644E+02 0.  0.
        -13    1    4    4    0    0  0.28408239116E+01  0.12771794141E+02  0.25649600372E+01  0.13333386296E+02  0.10566000000E+00 0.  1.
         13    1    4    4    0    0  0.50226960282E+03  0.72360989427E+02  0.87878387174E+02  0.51500824149E+03  0.10566000000E+00 0. -1.
    9000005    1    3    3    0    0 -0.41756766920E+03 -0.10566723433E+03  0.26719302263E+03  0.50687417977E+03  0.10000000000E+01 0.  0.
    9000005    1    3    3    0    0 -0.87542757527E+02  0.20534450760E+02  0.10650809656E+03  0.13939287175E+03  0.10000000000E+01 0.  0.
<mgrwt>
<rscale>  0 0.52557651E+03</rscale>
<asrwt>0</asrwt>
<pdfrwt beam="2">  1        1 0.54651094E-01 0.52726519E+03</pdfrwt>
<pdfrwt beam="1">  1       -1 0.12605793E+00 0.52726519E+03</pdfrwt>
<totfact> 0.40221442E+01</totfact>
</mgrwt>
</event>
<event>
 8    3  0.1560846E-003  0.2576357E+03  0.7818608E-02  0.1110854E+00
         -1   -1    0    0    0  501 -0.00000000000E+00  0.00000000000E+00  0.51123984194E+02  0.51123984443E+02  0.50400000000E-02 0.  1.
          1   -1    0    0  501    0  0.00000000000E+00 -0.00000000000E+00 -0.13096198354E+04  0.13096198354E+04  0.50400000000E-02 0. -1.
         25    2    1    2    0    0 -0.21601297019E+03  0.63951363569E+02 -0.81819212767E+03  0.85779630806E+03  0.12499907259E+03 0.  0.
         23    2    1    2    0    0  0.21601297019E+03 -0.63951363569E+02 -0.44030372350E+03  0.50294751175E+03  0.91309640557E+02 0.  0.
        -13    1    4    4    0    0  0.40132587050E+02  0.23658625255E+02 -0.85176225865E+02  0.97084271172E+02  0.10566000000E+00 0.  1.
         13    1    4    4    0    0  0.17588038314E+03 -0.87609988824E+02 -0.35512749763E+03  0.40586324058E+03  0.10566000000E+00 0. -1.
    9000005    1    3    3    0    0  0.13470477747E+02  0.19578657952E+02 -0.68489672011E+02  0.72502501958E+02  0.10000000000E+01 0.  0.
    9000005    1    3    3    0    0 -0.22948344794E+03  0.44372705617E+02 -0.74970245566E+03  0.78529380611E+03  0.10000000000E+01 0.  0.
<mgrwt>
<rscale>  0 0.25391753E+03</rscale>
<asrwt>0</asrwt>
<pdfrwt beam="2">  1        1 0.20147995E+00 0.25763569E+03</pdfrwt>
<pdfrwt beam="1">  1       -1 0.78652293E-02 0.25763569E+03</pdfrwt>
<totfact> 0.85148619E+02</totfact>
</mgrwt>
</event>
<event>
 8    3  0.1560846E-003  0.1268882E+03  0.7818608E-02  0.1247060E+00
         -1   -1    0    0    0  501 -0.00000000000E+00  0.00000000000E+00  0.23917076668E+03  0.23917076674E+03  0.50400000000E-02 0.  1.
          1   -1    0    0  501    0  0.00000000000E+00 -0.00000000000E+00 -0.51658060214E+02  0.51658060459E+02  0.50400000000E-02 0. -1.
         25    2    1    2    0    0  0.19976992089E+02  0.87504798080E+01  0.12541718505E+03  0.17840985977E+03  0.12499982659E+03 0.  0.
         23    2    1    2    0    0 -0.19976992089E+02 -0.87504798080E+01  0.62095521418E+02  0.11241896742E+03  0.91140108329E+02 0.  0.
        -13    1    4    4    0    0 -0.44918796880E+02 -0.73910136108E+01  0.38083271553E-01  0.45522939379E+02  0.10566000000E+00 0. -1.
         13    1    4    4    0    0  0.24941804791E+02 -0.13594661972E+01  0.62057438146E+02  0.66896028042E+02  0.10566000000E+00 0.  1.
    9000005    1    3    3    0    0  0.31176015355E+02  0.63598908162E+02  0.67251457121E+02  0.97675603596E+02  0.10000000000E+01 0.  0.
    9000005    1    3    3    0    0 -0.11199023266E+02 -0.54848428354E+02  0.58165727930E+02  0.80734256178E+02  0.10000000000E+01 0.  0.
<mgrwt>
<rscale>  0 0.11762945E+03</rscale>
<asrwt>0</asrwt>
<pdfrwt beam="2">  1        1 0.79473939E-02 0.12688817E+03</pdfrwt>
<pdfrwt beam="1">  1       -1 0.36795503E-01 0.12688817E+03</pdfrwt>
<totfact> 0.59420330E+03</totfact>
</mgrwt>
</event>
<event>
 8    3  0.1560846E-003  0.2078793E+03  0.7818608E-02  0.1147149E+00
         -1   -1    0    0    0  501 -0.00000000000E+00  0.00000000000E+00  0.75825505068E+02  0.75825505236E+02  0.50400000000E-02 0.  1.
          1   -1    0    0  501    0  0.00000000000E+00 -0.00000000000E+00 -0.71723754110E+03  0.71723754111E+03  0.50400000000E-02 0. -1.
         25    2    1    2    0    0  0.16845647608E+02  0.16524064661E+03 -0.53908577460E+03  0.57777786384E+03  0.12500216175E+03 0.  0.
         23    2    1    2    0    0 -0.16845647608E+02 -0.16524064661E+03 -0.10232626143E+03  0.21528518250E+03  0.91042840975E+02 0.  0.
        -13    1    4    4    0    0 -0.23023731698E+02 -0.45160454160E+02  0.89283377598E+01  0.51471207684E+02  0.10566000000E+00 0.  1.
         13    1    4    4    0    0  0.61780840906E+01 -0.12008019245E+03 -0.11125459919E+03  0.16381397482E+03  0.10566000000E+00 0. -1.
    9000005    1    3    3    0    0  0.25645205715E+02  0.18211205098E+03 -0.44021564582E+03  0.47708834665E+03  0.10000000000E+01 0.  0.
    9000005    1    3    3    0    0 -0.87995581070E+01 -0.16871404367E+02 -0.98870128774E+02  0.10068951719E+03  0.10000000000E+01 0.  0.
<mgrwt>
<rscale>  0 0.20310025E+03</rscale>
<asrwt>0</asrwt>
<pdfrwt beam="2">  1        1 0.11034423E+00 0.20787926E+03</pdfrwt>
<pdfrwt beam="1">  1       -1 0.11665463E-01 0.20787926E+03</pdfrwt>
<totfact> 0.13016036E+03</totfact>
</mgrwt>
</event>
<event>
 8    3  0.1560846E-003  0.1343968E+03  0.7818608E-02  0.1232825E+00
          1   -1    0    0  501    0  0.00000000000E+00  0.00000000000E+00  0.20776289469E+03  0.20776289475E+03  0.50400000000E-02 0. -1.
         -1   -1    0    0    0  501 -0.00000000000E+00 -0.00000000000E+00 -0.12804890218E+03  0.12804890228E+03  0.50400000000E-02 0.  1.
         25    2    1    2    0    0  0.28883036204E+02  0.40055504397E+02 -0.70963510709E+02  0.15198130614E+03  0.12499529732E+03 0.  0.
         23    2    1    2    0    0 -0.28883036204E+02 -0.40055504397E+02  0.15067750322E+03  0.18383049089E+03  0.93012183037E+02 0.  0.
        -13    1    4    4    0    0 -0.19256808201E+01 -0.46896217153E+02  0.21380585710E+02  0.51576196440E+02  0.10566000000E+00 0.  1.
         13    1    4    4    0    0 -0.26957355384E+02  0.68407127565E+01  0.12929691751E+03  0.13225429445E+03  0.10566000000E+00 0. -1.
    9000005    1    3    3    0    0 -0.14322884130E+02  0.52330627741E+02  0.13849342862E+02  0.56003963317E+02  0.10000000000E+01 0.  0.
    9000005    1    3    3    0    0  0.43205920335E+02 -0.12275123344E+02 -0.84812853572E+02  0.95977342827E+02  0.10000000000E+01 0.  0.
<mgrwt>
<rscale>  0 0.12644679E+03</rscale>
<asrwt>0</asrwt>
<pdfrwt beam="1">  1        1 0.31963522E-01 0.13439679E+03</pdfrwt>
<pdfrwt beam="2">  1       -1 0.19699831E-01 0.13439679E+03</pdfrwt>
<totfact> 0.27971856E+03</totfact>
</mgrwt>
</event>
<event>
 8    3  0.1560846E-003  0.1622007E+03  0.7818608E-02  0.1193497E+00
         -1   -1    0    0    0  501 -0.00000000000E+00  0.00000000000E+00  0.10582435230E+02  0.10582436430E+02  0.50400000000E-02 0.  1.
          1   -1    0    0  501    0  0.00000000000E+00 -0.00000000000E+00 -0.21335396373E+04  0.21335396373E+04  0.50400000000E-02 0. -1.
         25    2    1    2    0    0 -0.10011014795E+03  0.25726125592E+02 -0.11102937255E+04  0.11220789703E+04  0.12500073293E+03 0.  0.
         23    2    1    2    0    0  0.10011014795E+03 -0.25726125592E+02 -0.10126634765E+04  0.10220431035E+04  0.91656496943E+02 0.  0.
        -13    1    4    4    0    0  0.20999892855E+02  0.26086701452E+02 -0.47078823918E+03  0.47197784780E+03  0.10566000000E+00 0. -1.
         13    1    4    4    0    0  0.79110255097E+02 -0.51812827044E+02 -0.54187523733E+03  0.55006525568E+03  0.10566000000E+00 0.  1.
    9000005    1    3    3    0    0 -0.21183805392E+02  0.65705094501E+02 -0.35773490528E+03  0.36433662389E+03  0.10000000000E+01 0.  0.
    9000005    1    3    3    0    0 -0.78926342560E+02 -0.39978968909E+02 -0.75255882027E+03  0.75774234636E+03  0.10000000000E+01 0.  0.
<mgrwt>
<rscale>  0 0.15582079E+03</rscale>
<asrwt>0</asrwt>
<pdfrwt beam="2">  1        1 0.32823652E+00 0.16220067E+03</pdfrwt>
<pdfrwt beam="1">  1       -1 0.16280688E-02 0.16220067E+03</pdfrwt>
<totfact> 0.25601552E+03</totfact>
</mgrwt>
</event>
<event>
 8    3  0.1560846E-003  0.2448632E+03  0.7818608E-02  0.1119138E+00
          1   -1    0    0  501    0  0.00000000000E+00  0.00000000000E+00  0.28851415560E+04  0.28851415560E+04  0.50400000000E-02 0. -1.
         -1   -1    0    0    0  501 -0.00000000000E+00 -0.00000000000E+00 -0.21182335029E+02  0.21182335628E+02  0.50400000000E-02 0.  1.
         25    2    1    2    0    0  0.20311760032E+03 -0.55461376271E+02  0.10667287775E+04  0.10944716761E+04  0.12500096415E+03 0.  0.
         23    2    1    2    0    0 -0.20311760032E+03  0.55461376271E+02  0.17972304434E+04  0.18118522156E+04  0.91861093355E+02 0.  0.
        -13    1    4    4    0    0 -0.53645826050E+02 -0.21979853800E+02  0.33701030495E+03  0.34196044425E+03  0.10566000000E+00 0. -1.
         13    1    4    4    0    0 -0.14947177427E+03  0.77441230071E+02  0.14602201385E+04  0.14698917713E+04  0.10566000000E+00 0.  1.
    9000005    1    3    3    0    0  0.12391267832E+03  0.21650320079E+02  0.42257877420E+03  0.44090464798E+03  0.10000000000E+01 0.  0.
    9000005    1    3    3    0    0  0.79204922007E+02 -0.77111696351E+02  0.64415000335E+03  0.65356702809E+03  0.10000000000E+01 0.  0.
<mgrwt>
<rscale>  0 0.24098621E+03</rscale>
<asrwt>0</asrwt>
<pdfrwt beam="1">  1        1 0.44386772E+00 0.24486316E+03</pdfrwt>
<pdfrwt beam="2">  1       -1 0.32588224E-02 0.24486316E+03</pdfrwt>
<totfact> 0.29185036E+02</totfact>
</mgrwt>
</event>
<event>
 8    3  0.1560846E-003  0.1549824E+03  0.7818608E-02  0.1201397E+00
          1   -1    0    0  501    0  0.00000000000E+00  0.00000000000E+00  0.33451480575E+03  0.33451480579E+03  0.50400000000E-02 0. -1.
         -1   -1    0    0    0  501 -0.00000000000E+00 -0.00000000000E+00 -0.63257915444E+02  0.63257915645E+02  0.50400000000E-02 0.  1.
         25    2    1    2    0    0  0.81255133047E+02 -0.42330346537E+02  0.11890763521E+03  0.19534221141E+03  0.12500119585E+03 0.  0.
         23    2    1    2    0    0 -0.81255133047E+02  0.42330346537E+02  0.15234925510E+03  0.20243051002E+03  0.96817152270E+02 0.  0.
        -13    1    4    4    0    0 -0.10296587494E+03  0.35241930025E+02  0.11266938131E+03  0.15664726516E+03  0.10566000000E+00 0.  1.
         13    1    4    4    0    0  0.21710741890E+02  0.70884165113E+01  0.39679873786E+02  0.45783244858E+02  0.10566000000E+00 0. -1.
    9000005    1    3    3    0    0  0.22555187952E+02  0.35033778943E+02  0.80989286579E+02  0.91084393345E+02  0.10000000000E+01 0.  0.
    9000005    1    3    3    0    0  0.58699945095E+02 -0.77364125480E+02  0.37918348631E+02  0.10425781807E+03  0.10000000000E+01 0.  0.
<mgrwt>
<rscale>  0 0.14925061E+03</rscale>
<asrwt>0</asrwt>
<pdfrwt beam="1">  1        1 0.51463816E-01 0.15498243E+03</pdfrwt>
<pdfrwt beam="2">  1       -1 0.97319870E-02 0.15498243E+03</pdfrwt>
<totfact> 0.46943080E+03</totfact>
</mgrwt>
</event>
<event>
 8    3  0.1560846E-003  0.1355619E+03  0.7818608E-02  0.1232410E+00
         -1   -1    0    0    0  501 -0.00000000000E+00  0.00000000000E+00  0.78799541554E+02  0.78799541715E+02  0.50400000000E-02 0.  1.
          1   -1    0    0  501    0  0.00000000000E+00 -0.00000000000E+00 -0.18159658256E+03  0.18159658263E+03  0.50400000000E-02 0. -1.
         25    2    1    2    0    0  0.47723148543E+02  0.21770541748E+02 -0.53158264703E+02  0.14561188110E+03  0.12500225365E+03 0.  0.
         23    2    1    2    0    0 -0.47723148543E+02 -0.21770541748E+02 -0.49638776301E+02  0.11478424324E+03  0.89218602255E+02 0.  0.
        -13    1    4    4    0    0 -0.39655891452E+01 -0.28408556461E+02  0.18064360319E+02  0.33898440307E+02  0.10566000000E+00 0.  1.
         13    1    4    4    0    0 -0.43757559397E+02  0.66380147133E+01 -0.67703136620E+02  0.80885802932E+02  0.10566000000E+00 0. -1.
    9000005    1    3    3    0    0  0.36994840113E+02  0.59088193617E+02  0.11028128914E+02  0.70587905814E+02  0.10000000000E+01 0.  0.
    9000005    1    3    3    0    0  0.10728308429E+02 -0.37317651869E+02 -0.64186393617E+02  0.75023975290E+02  0.10000000000E+01 0.  0.
<mgrwt>
<rscale>  0 0.12671674E+03</rscale>
<asrwt>0</asrwt>
<pdfrwt beam="2">  1        1 0.27937936E-01 0.13556186E+03</pdfrwt>
<pdfrwt beam="1">  1       -1 0.12123006E-01 0.13556186E+03</pdfrwt>
<totfact> 0.70952115E+03</totfact>
</mgrwt>
</event>
<event>
 8    3  0.1560846E-003  0.1348795E+03  0.7818608E-02  0.1233780E+00
          1   -1    0    0  501    0  0.00000000000E+00  0.00000000000E+00  0.23724527545E+02  0.23724528080E+02  0.50400000000E-02 0. -1.
         -1   -1    0    0    0  501 -0.00000000000E+00 -0.00000000000E+00 -0.59399779889E+03  0.59399779891E+03  0.50400000000E-02 0.  1.
         25    2    1    2    0    0 -0.31935838950E+02 -0.39348010653E+02 -0.30699645324E+03  0.33531969863E+03  0.12499725692E+03 0.  0.
         23    2    1    2    0    0  0.31935838950E+02  0.39348010653E+02 -0.26327681811E+03  0.28240262836E+03  0.88703989773E+02 0.  0.
        -13    1    4    4    0    0  0.45373490131E+02 -0.13510675724E+02 -0.11202388040E+03  0.12161682824E+03  0.10566000000E+00 0.  1.
         13    1    4    4    0    0 -0.13437651181E+02  0.52858686377E+02 -0.15125293770E+03  0.16078580013E+03  0.10566000000E+00 0. -1.
    9000005    1    3    3    0    0 -0.30210113581E+02 -0.43970598072E+02 -0.31840753101E+03  0.32284736372E+03  0.10000000000E+01 0.  0.
    9000005    1    3    3    0    0 -0.17257253685E+01  0.46225874194E+01  0.11411077765E+02  0.12472334916E+02  0.10000000000E+01 0.  0.
<mgrwt>
<rscale>  0 0.12582853E+03</rscale>
<asrwt>0</asrwt>
<pdfrwt beam="1">  1        1 0.36499278E-02 0.13487949E+03</pdfrwt>
<pdfrwt beam="2">  1       -1 0.91384265E-01 0.13487949E+03</pdfrwt>
<totfact> 0.30606793E+03</totfact>
</mgrwt>
</event>
<event>
 8    3  0.1560846E-003  0.1357802E+03  0.7818608E-02  0.1231033E+00
         -1   -1    0    0    0  501 -0.00000000000E+00  0.00000000000E+00  0.12257120556E+02  0.12257121592E+02  0.50400000000E-02 0.  1.
          1   -1    0    0  501    0  0.00000000000E+00 -0.00000000000E+00 -0.15147525789E+04  0.15147525789E+04  0.50400000000E-02 0. -1.
         25    2    1    2    0    0  0.42856332853E+02  0.31176967948E+02 -0.11745271779E+04  0.11823495057E+04  0.12501037293E+03 0.  0.
         23    2    1    2    0    0 -0.42856332853E+02 -0.31176967948E+02 -0.32796828049E+03  0.34466019488E+03  0.91753955380E+02 0.  0.
        -13    1    4    4    0    0  0.10597580408E+02 -0.14565009489E+02 -0.77889270572E+01  0.19624646765E+02  0.10566000000E+00 0.  1.
         13    1    4    4    0    0 -0.53453913260E+02 -0.16611958459E+02 -0.32017935343E+03  0.32503554811E+03  0.10566000000E+00 0. -1.
    9000005    1    3    3    0    0 -0.21510543514E+02 -0.25540184175E+02 -0.64949204034E+03  0.65035060925E+03  0.10000000000E+01 0.  0.
    9000005    1    3    3    0    0  0.64366876366E+02  0.56717152123E+02 -0.52503513755E+03  0.53199889641E+03  0.10000000000E+01 0.  0.
<mgrwt>
<rscale>  0 0.12761817E+03</rscale>
<asrwt>0</asrwt>
<pdfrwt beam="2">  1        1 0.23303871E+00 0.13578020E+03</pdfrwt>
<pdfrwt beam="1">  1       -1 0.18857121E-02 0.13578020E+03</pdfrwt>
<totfact> 0.51409011E+03</totfact>
</mgrwt>
</event>
<event>
 8    3  0.1560846E-003  0.1805573E+03  0.7818608E-02  0.1172839E+00
         -1   -1    0    0    0  501 -0.00000000000E+00  0.00000000000E+00  0.11150185407E+04  0.11150185407E+04  0.50400000000E-02 0.  1.
          1   -1    0    0  501    0  0.00000000000E+00 -0.00000000000E+00 -0.25889677920E+02  0.25889678411E+02  0.50400000000E-02 0. -1.
         25    2    1    2    0    0  0.12887732452E+03  0.19135945854E+02  0.60326608561E+03  0.62970698988E+03  0.12500149543E+03 0.  0.
         23    2    1    2    0    0 -0.12887732452E+03 -0.19135945854E+02  0.48586277718E+03  0.51120122925E+03  0.91041250759E+02 0.  0.
        -13    1    4    4    0    0 -0.63284128668E+02  0.32493563378E+02  0.16549613426E+03  0.18013798661E+03  0.10566000000E+00 0.  1.
         13    1    4    4    0    0 -0.65593195853E+02 -0.51629509232E+02  0.32036664293E+03  0.33106324264E+03  0.10566000000E+00 0. -1.
    9000005    1    3    3    0    0  0.14072678894E+03 -0.17709574833E+02  0.47410244737E+03  0.49486542491E+03  0.10000000000E+01 0.  0.
    9000005    1    3    3    0    0 -0.11849464416E+02  0.36845520687E+02  0.12916363824E+03  0.13484156498E+03  0.10000000000E+01 0.  0.
<mgrwt>
<rscale>  0 0.17489367E+03</rscale>
<asrwt>0</asrwt>
<pdfrwt beam="2">  1        1 0.39830282E-02 0.18055726E+03</pdfrwt>
<pdfrwt beam="1">  1       -1 0.17154128E+00 0.18055726E+03</pdfrwt>
<totfact> 0.59750779E+02</totfact>
</mgrwt>
</event>
<event>
 8    3  0.1560846E-003  0.1265200E+03  0.7818608E-02  0.1247938E+00
          1   -1    0    0  501    0  0.00000000000E+00  0.00000000000E+00  0.10526004150E+04  0.10526004150E+04  0.50400000000E-02 0. -1.
         -1   -1    0    0    0  501 -0.00000000000E+00 -0.00000000000E+00 -0.11679537625E+02  0.11679538713E+02  0.50400000000E-02 0.  1.
         25    2    1    2    0    0 -0.14652415981E+02  0.13131656330E+02  0.67497255227E+03  0.68672793653E+03  0.12498071368E+03 0.  0.
         23    2    1    2    0    0  0.14652415981E+02 -0.13131656330E+02  0.36594832508E+03  0.37755201718E+03  0.90775631934E+02 0.  0.
        -13    1    4    4    0    0 -0.15526776347E+02 -0.34932784044E+02  0.29464115189E+03  0.29711075332E+03  0.10566000000E+00 0. -1.
         13    1    4    4    0    0  0.30179192328E+02  0.21801127713E+02  0.71307173192E+02  0.80441263862E+02  0.10566000000E+00 0.  1.
    9000005    1    3    3    0    0 -0.18502445603E+02  0.19281269017E+02  0.24666195145E+02  0.36380338249E+02  0.10000000000E+01 0.  0.
    9000005    1    3    3    0    0  0.38500296224E+01 -0.61496126864E+01  0.65030635713E+03  0.65034759828E+03  0.10000000000E+01 0.  0.
<mgrwt>
<rscale>  0 0.11711272E+03</rscale>
<asrwt>0</asrwt>
<pdfrwt beam="1">  1        1 0.16193853E+00 0.12652001E+03</pdfrwt>
<pdfrwt beam="2">  1       -1 0.17968520E-02 0.12652001E+03</pdfrwt>
<totfact> 0.11246162E+04</totfact>
</mgrwt>
</event>
<event>
 8    3  0.1560846E-003  0.1919130E+03  0.7818608E-02  0.1161166E+00
          1   -1    0    0  501    0  0.00000000000E+00  0.00000000000E+00  0.36611765885E+03  0.36611765888E+03  0.50400000000E-02 0. -1.
         -1   -1    0    0    0  501 -0.00000000000E+00 -0.00000000000E+00 -0.90997555257E+02  0.90997555397E+02  0.50400000000E-02 0.  1.
         25    2    1    2    0    0  0.25069162164E+01 -0.14560066138E+03  0.14692019461E+03  0.24169432661E+03  0.12499906682E+03 0.  0.
         23    2    1    2    0    0 -0.25069162164E+01  0.14560066138E+03  0.12819990899E+03  0.21542088768E+03  0.93622139256E+02 0.  0.
        -13    1    4    4    0    0  0.55349293256E+01 -0.10826219179E+02 -0.12427141789E+01  0.12222846106E+02  0.10566000000E+00 0.  1.
         13    1    4    4    0    0 -0.80418455420E+01  0.15642688056E+03  0.12944262317E+03  0.20319804157E+03  0.10566000000E+00 0. -1.
    9000005    1    3    3    0    0 -0.46712671516E+02 -0.85270847380E+02  0.12943629278E+03  0.16188868083E+03  0.10000000000E+01 0.  0.
    9000005    1    3    3    0    0  0.49219587732E+02 -0.60329814001E+02  0.17483901823E+02  0.79805645771E+02  0.10000000000E+01 0.  0.
<mgrwt>
<rscale>  0 0.18703198E+03</rscale>
<asrwt>0</asrwt>
<pdfrwt beam="1">  1        1 0.56325794E-01 0.19191301E+03</pdfrwt>
<pdfrwt beam="2">  1       -1 0.13999624E-01 0.19191301E+03</pdfrwt>
<totfact> 0.24063847E+03</totfact>
</mgrwt>
</event>
<event>
 8    3  0.1560846E-003  0.1514811E+03  0.7818608E-02  0.1207795E+00
          1   -1    0    0  501    0  0.00000000000E+00  0.00000000000E+00  0.39061507489E+03  0.39061507492E+03  0.50400000000E-02 0. -1.
         -1   -1    0    0    0  501 -0.00000000000E+00 -0.00000000000E+00 -0.49139578512E+02  0.49139578771E+02  0.50400000000E-02 0.  1.
         25    2    1    2    0    0  0.63736450939E+02  0.57090681573E+02  0.16669316902E+03  0.22524015311E+03  0.12499933149E+03 0.  0.
         23    2    1    2    0    0 -0.63736450939E+02 -0.57090681573E+02  0.17478232735E+03  0.21451450058E+03  0.90254794351E+02 0.  0.
        -13    1    4    4    0    0 -0.63776394120E+02  0.30154353155E+01  0.81261754174E+02  0.10334411039E+03  0.10566000000E+00 0. -1.
         13    1    4    4    0    0  0.39943181042E-01 -0.60106116888E+02  0.93520573180E+02  0.11117039019E+03  0.10566000000E+00 0.  1.
    9000005    1    3    3    0    0 -0.33783455732E+02  0.37769514462E+02  0.42431659883E+02  0.66100710014E+02  0.10000000000E+01 0.  0.
    9000005    1    3    3    0    0  0.97519906672E+02  0.19321167111E+02  0.12426150914E+03  0.15913944310E+03  0.10000000000E+01 0.  0.
<mgrwt>
<rscale>  0 0.14419383E+03</rscale>
<asrwt>0</asrwt>
<pdfrwt beam="1">  1        1 0.60094627E-01 0.15148107E+03</pdfrwt>
<pdfrwt beam="2">  1       -1 0.75599352E-02 0.15148107E+03</pdfrwt>
<totfact> 0.56632733E+03</totfact>
</mgrwt>
</event>
<event>
 8    3  0.1560846E-003  0.1923424E+03  0.7818608E-02  0.1161062E+00
          1   -1    0    0  501    0  0.00000000000E+00  0.00000000000E+00  0.19310576469E+03  0.19310576475E+03  0.50400000000E-02 0. -1.
         -1   -1    0    0    0  501 -0.00000000000E+00 -0.00000000000E+00 -0.18754227586E+03  0.18754227593E+03  0.50400000000E-02 0.  1.
         25    2    1    2    0    0 -0.13102351603E+03 -0.64847850363E+02  0.57260628429E+02  0.20068474204E+03  0.12499272247E+03 0.  0.
         23    2    1    2    0    0  0.13102351603E+03  0.64847850363E+02 -0.51697139598E+02  0.17996329864E+03  0.91333395677E+02 0.  0.
        -13    1    4    4    0    0  0.66268569538E+01  0.40741238780E+02  0.41621441144E+01  0.41486122717E+02  0.10566000000E+00 0. -1.
         13    1    4    4    0    0  0.12439665907E+03  0.24106611583E+02 -0.55859283713E+02  0.13847717592E+03  0.10566000000E+00 0.  1.
    9000005    1    3    3    0    0 -0.83053616603E+02  0.20253946667E+02 -0.36239462023E+01  0.85570196754E+02  0.10000000000E+01 0.  0.
    9000005    1    3    3    0    0 -0.47969899425E+02 -0.85101797030E+02  0.60884574631E+02  0.11511454529E+03  0.10000000000E+01 0.  0.
<mgrwt>
<rscale>  0 0.18714435E+03</rscale>
<asrwt>0</asrwt>
<pdfrwt beam="1">  1        1 0.29708579E-01 0.19234237E+03</pdfrwt>
<pdfrwt beam="2">  1       -1 0.28852658E-01 0.19234237E+03</pdfrwt>
<totfact> 0.16588728E+03</totfact>
</mgrwt>
</event>
<event>
 8    3  0.1560846E-003  0.1337731E+03  0.7818608E-02  0.1236427E+00
          1   -1    0    0  501    0  0.00000000000E+00  0.00000000000E+00  0.35901952191E+03  0.35901952195E+03  0.50400000000E-02 0. -1.
         -1   -1    0    0    0  501 -0.00000000000E+00 -0.00000000000E+00 -0.39088688516E+02  0.39088688841E+02  0.50400000000E-02 0.  1.
         25    2    1    2    0    0  0.42357162304E+02  0.21783316926E+02  0.14705809099E+03  0.19879973200E+03  0.12500643672E+03 0.  0.
         23    2    1    2    0    0 -0.42357162304E+02 -0.21783316926E+02  0.17287274241E+03  0.19930847879E+03  0.87007140833E+02 0.  0.
        -13    1    4    4    0    0 -0.29692031659E+02 -0.58979946962E+01  0.17614741811E+03  0.17872976013E+03  0.10566000000E+00 0. -1.
         13    1    4    4    0    0 -0.12665130645E+02 -0.15885322230E+02 -0.32746757053E+01  0.20578718658E+02  0.10566000000E+00 0.  1.
    9000005    1    3    3    0    0  0.45693917413E+02 -0.18698806181E+02  0.33919047917E+01  0.49498327843E+02  0.10000000000E+01 0.  0.
    9000005    1    3    3    0    0 -0.33367551083E+01  0.40482123107E+02  0.14366618620E+03  0.14930140415E+03  0.10000000000E+01 0.  0.
<mgrwt>
<rscale>  0 0.12413519E+03</rscale>
<asrwt>0</asrwt>
<pdfrwt beam="1">  1        1 0.55233772E-01 0.13377313E+03</pdfrwt>
<pdfrwt beam="2">  1       -1 0.60136444E-02 0.13377313E+03</pdfrwt>
<totfact> 0.88025819E+03</totfact>
</mgrwt>
</event>
<event>
 8    3  0.1560846E-003  0.1274878E+03  0.7818608E-02  0.1246139E+00
         -1   -1    0    0    0  501 -0.00000000000E+00  0.00000000000E+00  0.44856849872E+01  0.44856878187E+01  0.50400000000E-02 0.  1.
          1   -1    0    0  501    0  0.00000000000E+00 -0.00000000000E+00 -0.27371328609E+04  0.27371328609E+04  0.50400000000E-02 0. -1.
         25    2    1    2    0    0 -0.24997361394E+02  0.18332225599E+01 -0.15766372656E+04  0.15817832400E+04  0.12499968854E+03 0.  0.
         23    2    1    2    0    0  0.24997361394E+02 -0.18332225599E+01 -0.11560099102E+04  0.11598353087E+04  0.90723767272E+02 0.  0.
        -13    1    4    4    0    0  0.34098650973E+02  0.38410815199E+02 -0.53655286810E+03  0.53900565874E+03  0.10566000000E+00 0.  1.
         13    1    4    4    0    0 -0.91012895797E+01 -0.40244037759E+02 -0.61945704214E+03  0.62082964995E+03  0.10566000000E+00 0. -1.
    9000005    1    3    3    0    0 -0.10699730299E+02  0.53654346202E+01 -0.11672019798E+02  0.16748377930E+02  0.10000000000E+01 0.  0.
    9000005    1    3    3    0    0 -0.14297631095E+02 -0.35322120603E+01 -0.15649652458E+04  0.15650348621E+04  0.10000000000E+01 0.  0.
<mgrwt>
<rscale>  0 0.11817480E+03</rscale>
<asrwt>0</asrwt>
<pdfrwt beam="2">  1        1 0.42109603E+00 0.12748785E+03</pdfrwt>
<pdfrwt beam="1">  1       -1 0.69010779E-03 0.12748785E+03</pdfrwt>
<totfact> 0.35278444E+03</totfact>
</mgrwt>
</event>
<event>
 8    3  0.1560846E-003  0.1320836E+03  0.7818608E-02  0.1237561E+00
         -1   -1    0    0    0  501 -0.00000000000E+00  0.00000000000E+00  0.37263459263E+02  0.37263459604E+02  0.50400000000E-02 0.  1.
          1   -1    0    0  501    0  0.00000000000E+00 -0.00000000000E+00 -0.36689877567E+03  0.36689877570E+03  0.50400000000E-02 0. -1.
         25    2    1    2    0    0 -0.28297148887E+02  0.31947908282E+02 -0.16760522825E+03  0.21339536921E+03  0.12499869434E+03 0.  0.
         23    2    1    2    0    0  0.28297148887E+02 -0.31947908282E+02 -0.16203008816E+03  0.19076686610E+03  0.91196766682E+02 0.  0.
        -13    1    4    4    0    0  0.21199368327E+02 -0.54859834050E+02 -0.15498230005E+03  0.16576651985E+03  0.10566000000E+00 0. -1.
         13    1    4    4    0    0  0.70977805603E+01  0.22911925768E+02 -0.70477881063E+01  0.25000346248E+02  0.10566000000E+00 0.  1.
    9000005    1    3    3    0    0  0.27932144896E+02 -0.31410693978E+02 -0.29448864110E+02  0.51332952497E+02  0.10000000000E+01 0.  0.
    9000005    1    3    3    0    0 -0.56229293783E+02  0.63358602259E+02 -0.13815636414E+03  0.16206241671E+03  0.10000000000E+01 0.  0.
<mgrwt>
<rscale>  0 0.12341899E+03</rscale>
<asrwt>0</asrwt>
<pdfrwt beam="2">  1        1 0.56445963E-01 0.13208358E+03</pdfrwt>
<pdfrwt beam="1">  1       -1 0.57328402E-02 0.13208358E+03</pdfrwt>
<totfact> 0.91901938E+03</totfact>
</mgrwt>
</event>
<event>
 8    3  0.1560846E-003  0.2027005E+03  0.7818608E-02  0.1151702E+00
          1   -1    0    0  501    0  0.00000000000E+00  0.00000000000E+00  0.11437181052E+03  0.11437181063E+03  0.50400000000E-02 0. -1.
         -1   -1    0    0    0  501 -0.00000000000E+00 -0.00000000000E+00 -0.38616842534E+03  0.38616842537E+03  0.50400000000E-02 0.  1.
         25    2    1    2    0    0  0.56759669875E+02 -0.14912160854E+03 -0.42819053143E+02  0.20717380087E+03  0.12501439196E+03 0.  0.
         23    2    1    2    0    0 -0.56759669875E+02  0.14912160854E+03 -0.22897756168E+03  0.29336643514E+03  0.90411433199E+02 0.  0.
        -13    1    4    4    0    0 -0.49263837182E+02  0.49920507189E+02 -0.42489437410E+02  0.82002110627E+02  0.10566000000E+00 0. -1.
         13    1    4    4    0    0 -0.74958326937E+01  0.99201101356E+02 -0.18648812427E+03  0.21136432451E+03  0.10566000000E+00 0.  1.
    9000005    1    3    3    0    0  0.71546022123E+02 -0.16333957082E+03 -0.50354341741E+02  0.18529762117E+03  0.10000000000E+01 0.  0.
    9000005    1    3    3    0    0 -0.14786352247E+02  0.14217962280E+02  0.75352885980E+01  0.21876179704E+02  0.10000000000E+01 0.  0.
<mgrwt>
<rscale>  0 0.19769110E+03</rscale>
<asrwt>0</asrwt>
<pdfrwt beam="1">  1        1 0.17595663E-01 0.20270055E+03</pdfrwt>
<pdfrwt beam="2">  1       -1 0.59410527E-01 0.20270055E+03</pdfrwt>
<totfact> 0.89169423E+02</totfact>
</mgrwt>
</event>
<event>
 8    3  0.1560846E-003  0.1415237E+03  0.7818608E-02  0.1226434E+00
         -1   -1    0    0    0  501 -0.00000000000E+00  0.00000000000E+00  0.30629048565E+02  0.30629048980E+02  0.50400000000E-02 0.  1.
          1   -1    0    0  501    0  0.00000000000E+00 -0.00000000000E+00 -0.52359614883E+03  0.52359614885E+03  0.50400000000E-02 0. -1.
         25    2    1    2    0    0 -0.86056663653E+01 -0.65799249974E+02 -0.21104063799E+03  0.25410061189E+03  0.12500148515E+03 0.  0.
         23    2    1    2    0    0  0.86056663653E+01  0.65799249974E+02 -0.28192646227E+03  0.30012458594E+03  0.78667897940E+02 0.  0.
        -13    1    4    4    0    0 -0.17295563558E+02 -0.77497481591E+01 -0.10615009755E+03  0.10782879712E+03  0.10566000000E+00 0. -1.
         13    1    4    4    0    0  0.25901229923E+02  0.73548998133E+02 -0.17577636473E+03  0.19229578882E+03  0.10566000000E+00 0.  1.
    9000005    1    3    3    0    0 -0.25679221138E+02 -0.31466679369E+02 -0.21187490121E+03  0.21573490230E+03  0.10000000000E+01 0.  0.
    9000005    1    3    3    0    0  0.17073554773E+02 -0.34332570605E+02  0.83426322187E+00  0.38365709586E+02  0.10000000000E+01 0.  0.
<mgrwt>
<rscale>  0 0.13069093E+03</rscale>
<asrwt>0</asrwt>
<pdfrwt beam="2">  1        1 0.80553247E-01 0.14152374E+03</pdfrwt>
<pdfrwt beam="1">  1       -1 0.47121617E-02 0.14152374E+03</pdfrwt>
<totfact> 0.78347014E+03</totfact>
</mgrwt>
</event>
<event>
 8    3  0.1560846E-003  0.1926425E+03  0.7818608E-02  0.1160697E+00
          1   -1    0    0  501    0  0.00000000000E+00  0.00000000000E+00  0.10683310758E+04  0.10683310758E+04  0.50400000000E-02 0. -1.
         -1   -1    0    0    0  501 -0.00000000000E+00 -0.00000000000E+00 -0.31594735664E+02  0.31594736066E+02  0.50400000000E-02 0.  1.
         25    2    1    2    0    0 -0.10932471895E+03  0.97632597850E+02  0.59964307048E+03  0.62982771383E+03  0.12500847486E+03 0.  0.
         23    2    1    2    0    0  0.10932471895E+03 -0.97632597850E+02  0.43709326966E+03  0.47009809806E+03  0.91965629901E+02 0.  0.
        -13    1    4    4    0    0  0.80028162673E+01 -0.59442013357E+02  0.10655269388E+03  0.12227381469E+03  0.10566000000E+00 0.  1.
         13    1    4    4    0    0  0.10132190268E+03 -0.38190584493E+02  0.33054057578E+03  0.34782428337E+03  0.10566000000E+00 0. -1.
    9000005    1    3    3    0    0 -0.10463661178E+03  0.10935151275E+03  0.36895422532E+03  0.39879166773E+03  0.10000000000E+01 0.  0.
    9000005    1    3    3    0    0 -0.46881071664E+01 -0.11718914897E+02  0.23068884516E+03  0.23103604610E+03  0.10000000000E+01 0.  0.
<mgrwt>
<rscale>  0 0.18754204E+03</rscale>
<asrwt>0</asrwt>
<pdfrwt beam="1">  1        1 0.16435862E+00 0.19264251E+03</pdfrwt>
<pdfrwt beam="2">  1       -1 0.48607288E-02 0.19264251E+03</pdfrwt>
<totfact> 0.25994475E+03</totfact>
</mgrwt>
</event>
<event>
 8    3  0.1560846E-003  0.2335021E+03  0.7818608E-02  0.1127155E+00
         -1   -1    0    0    0  501 -0.00000000000E+00  0.00000000000E+00  0.33794415313E+02  0.33794415689E+02  0.50400000000E-02 0.  1.
          1   -1    0    0  501    0  0.00000000000E+00 -0.00000000000E+00 -0.16132930037E+04  0.16132930037E+04  0.50400000000E-02 0. -1.
         25    2    1    2    0    0  0.42729598580E+02  0.19254348237E+03 -0.60001533525E+03  0.64384905864E+03  0.12499758626E+03 0.  0.
         23    2    1    2    0    0 -0.42729598580E+02 -0.19254348237E+03 -0.97948325312E+03  0.10032383607E+04  0.90559119535E+02 0.  0.
        -13    1    4    4    0    0 -0.41627827037E+02 -0.16661669040E+03 -0.63609341020E+03  0.65886936123E+03  0.10566000000E+00 0.  1.
         13    1    4    4    0    0 -0.11017715427E+01 -0.25926791968E+02 -0.34338984292E+03  0.34436899951E+03  0.10566000000E+00 0. -1.
    9000005    1    3    3    0    0  0.28376834979E+02 -0.80186998461E+01 -0.11674664481E+03  0.12041728857E+03  0.10000000000E+01 0.  0.
    9000005    1    3    3    0    0  0.14352763601E+02  0.20056218222E+03 -0.48326869044E+03  0.52343177007E+03  0.10000000000E+01 0.  0.
<mgrwt>
<rscale>  0 0.22926902E+03</rscale>
<asrwt>0</asrwt>
<pdfrwt beam="2">  1        1 0.24819886E+00 0.23350205E+03</pdfrwt>
<pdfrwt beam="1">  1       -1 0.51991421E-02 0.23350205E+03</pdfrwt>
<totfact> 0.10026994E+03</totfact>
</mgrwt>
</event>
<event>
 8    3  0.1560846E-003  0.1251598E+03  0.7818608E-02  0.1249588E+00
         -1   -1    0    0    0  501 -0.00000000000E+00  0.00000000000E+00  0.78859444236E+02  0.78859444397E+02  0.50400000000E-02 0.  1.
          1   -1    0    0  501    0  0.00000000000E+00 -0.00000000000E+00 -0.15984478712E+03  0.15984478720E+03  0.50400000000E-02 0. -1.
         25    2    1    2    0    0 -0.40134933772E+01 -0.48900034030E+01 -0.17812578767E+02  0.12642094572E+03  0.12499978917E+03 0.  0.
         23    2    1    2    0    0  0.40134933772E+01  0.48900034030E+01 -0.63172764117E+02  0.11228328587E+03  0.92610571197E+02 0.  0.
        -13    1    4    4    0    0 -0.25010289848E+02 -0.22039471971E+02  0.47410812158E+01  0.33671084601E+02  0.10566000000E+00 0.  1.
         13    1    4    4    0    0  0.29023783226E+02  0.26929475374E+02 -0.67913845333E+02  0.78612201270E+02  0.10566000000E+00 0. -1.
    9000005    1    3    3    0    0  0.24842042480E+02  0.51397848106E+02  0.88382430631E+01  0.57775257723E+02  0.10000000000E+01 0.  0.
    9000005    1    3    3    0    0 -0.28855535857E+02 -0.56287851509E+02 -0.26650821830E+02  0.68645688002E+02  0.10000000000E+01 0.  0.
<mgrwt>
<rscale>  0 0.11614925E+03</rscale>
<asrwt>0</asrwt>
<pdfrwt beam="2">  1        1 0.24591506E-01 0.12515977E+03</pdfrwt>
<pdfrwt beam="1">  1       -1 0.12132222E-01 0.12515977E+03</pdfrwt>
<totfact> 0.82639503E+03</totfact>
</mgrwt>
</event>
<event>
 8    3  0.1560846E-003  0.1264916E+03  0.7818608E-02  0.1247708E+00
         -1   -1    0    0    0  501 -0.00000000000E+00  0.00000000000E+00  0.28619345743E+03  0.28619345747E+03  0.50400000000E-02 0.  1.
          1   -1    0    0  501    0  0.00000000000E+00 -0.00000000000E+00 -0.44274610053E+02  0.44274610340E+02  0.50400000000E-02 0. -1.
         25    2    1    2    0    0 -0.14873568878E+02  0.12862489302E+02  0.17347758109E+03  0.21469650946E+03  0.12495380487E+03 0.  0.
         23    2    1    2    0    0  0.14873568878E+02 -0.12862489302E+02  0.68441266285E+02  0.11577155835E+03  0.91280776233E+02 0.  0.
        -13    1    4    4    0    0  0.20424365167E+02 -0.39859808357E+02  0.75077204830E+02  0.87421718491E+02  0.10566000000E+00 0.  1.
         13    1    4    4    0    0 -0.55507962885E+01  0.26997319055E+02 -0.66359385449E+01  0.28349839859E+02  0.10566000000E+00 0. -1.
    9000005    1    3    3    0    0 -0.48880027806E+02  0.52219766037E+02  0.77096687024E+02  0.10517157522E+03  0.10000000000E+01 0.  0.
    9000005    1    3    3    0    0  0.34006458928E+02 -0.39357276735E+02  0.96380894064E+02  0.10952493424E+03  0.10000000000E+01 0.  0.
<mgrwt>
<rscale>  0 0.11724750E+03</rscale>
<asrwt>0</asrwt>
<pdfrwt beam="2">  1        1 0.68114787E-02 0.12649158E+03</pdfrwt>
<pdfrwt beam="1">  1       -1 0.44029761E-01 0.12649158E+03</pdfrwt>
<totfact> 0.53366588E+03</totfact>
</mgrwt>
</event>
<event>
 8    3  0.1560846E-003  0.1372300E+03  0.7818608E-02  0.1228651E+00
         -1   -1    0    0    0  501 -0.00000000000E+00  0.00000000000E+00  0.29571568721E+03  0.29571568725E+03  0.50400000000E-02 0.  1.
          1   -1    0    0  501    0  0.00000000000E+00 -0.00000000000E+00 -0.61839988461E+02  0.61839988667E+02  0.50400000000E-02 0. -1.
         25    2    1    2    0    0 -0.19734129596E+02 -0.53050997174E+02  0.53247411698E+02  0.14719833716E+03  0.12501287709E+03 0.  0.
         23    2    1    2    0    0  0.19734129596E+02  0.53050997174E+02  0.18062828705E+03  0.21035733875E+03  0.91759401231E+02 0.  0.
        -13    1    4    4    0    0  0.19501694571E+02  0.57239250724E+02  0.19037376813E+03  0.19974691655E+03  0.10566000000E+00 0.  1.
         13    1    4    4    0    0  0.23243502503E+00 -0.41882535505E+01 -0.97454810821E+01  0.10610422207E+02  0.10566000000E+00 0. -1.
    9000005    1    3    3    0    0  0.49575482039E+01 -0.73811830769E+02  0.77259193099E+02  0.10697077435E+03  0.10000000000E+01 0.  0.
    9000005    1    3    3    0    0 -0.24691677799E+02  0.20760833595E+02 -0.24011781401E+02  0.40227562817E+02  0.10000000000E+01 0.  0.
<mgrwt>
<rscale>  0 0.12919760E+03</rscale>
<asrwt>0</asrwt>
<pdfrwt beam="2">  1        1 0.95138445E-02 0.13722997E+03</pdfrwt>
<pdfrwt beam="1">  1       -1 0.45494721E-01 0.13722997E+03</pdfrwt>
<totfact> 0.32341714E+03</totfact>
</mgrwt>
</event>
<event>
 8    3  0.1560846E-003  0.1281154E+03  0.7818608E-02  0.1245335E+00
         -1   -1    0    0    0  501 -0.00000000000E+00  0.00000000000E+00  0.34549594856E+01  0.34549631617E+01  0.50400000000E-02 0.  1.
          1   -1    0    0  501    0  0.00000000000E+00 -0.00000000000E+00 -0.36004471037E+04  0.36004471037E+04  0.50400000000E-02 0. -1.
         25    2    1    2    0    0 -0.10091214531E+02 -0.26251245695E+02 -0.19306151768E+04  0.19348613662E+04  0.12499033998E+03 0.  0.
         23    2    1    2    0    0  0.10091214531E+02  0.26251245695E+02 -0.16663769675E+04  0.16690407007E+04  0.89965006360E+02 0.  0.
        -13    1    4    4    0    0  0.98860230225E-01  0.59314943513E+02 -0.11255807425E+04  0.11271425338E+04  0.10566000000E+00 0.  1.
         13    1    4    4    0    0  0.99923543006E+01 -0.33063697818E+02 -0.54079622491E+03  0.54189816691E+03  0.10566000000E+00 0. -1.
    9000005    1    3    3    0    0 -0.27815179539E+02 -0.38806988416E+01 -0.96119398268E+02  0.10014331111E+03  0.10000000000E+01 0.  0.
    9000005    1    3    3    0    0  0.17723965008E+02 -0.22370546854E+02 -0.18344957785E+04  0.18347180551E+04  0.10000000000E+01 0.  0.
<mgrwt>
<rscale>  0 0.11865363E+03</rscale>
<asrwt>0</asrwt>
<pdfrwt beam="2">  1        1 0.55391194E+00 0.12811536E+03</pdfrwt>
<pdfrwt beam="1">  1       -1 0.53153539E-03 0.12811536E+03</pdfrwt>
<totfact> 0.12565909E+03</totfact>
</mgrwt>
</event>
<event>
 8    3  0.1560846E-003  0.1577053E+03  0.7818608E-02  0.1199465E+00
         -1   -1    0    0    0  501 -0.00000000000E+00  0.00000000000E+00  0.21713586579E+03  0.21713586585E+03  0.50400000000E-02 0.  1.
          1   -1    0    0  501    0  0.00000000000E+00 -0.00000000000E+00 -0.99752385687E+02  0.99752385814E+02  0.50400000000E-02 0. -1.
         25    2    1    2    0    0 -0.84551905681E+02  0.45808754314E+02  0.35619038185E+02  0.16167772570E+03  0.12499401738E+03 0.  0.
         23    2    1    2    0    0  0.84551905681E+02 -0.45808754314E+02  0.81764441921E+02  0.15521052597E+03  0.90318418286E+02 0.  0.
        -13    1    4    4    0    0  0.72387716428E+02  0.53950330322E+01  0.70906274497E+02  0.10147314324E+03  0.10566000000E+00 0. -1.
         13    1    4    4    0    0  0.12164189253E+02 -0.51203787346E+02  0.10858167424E+02  0.53737382730E+02  0.10566000000E+00 0.  1.
    9000005    1    3    3    0    0  0.28113437218E+02 -0.10873760413E+02  0.15662704439E+02  0.33984177614E+02  0.10000000000E+01 0.  0.
    9000005    1    3    3    0    0 -0.11266534290E+03  0.56682514727E+02  0.19956333746E+02  0.12769354809E+03  0.10000000000E+01 0.  0.
<mgrwt>
<rscale>  0 0.15082338E+03</rscale>
<asrwt>0</asrwt>
<pdfrwt beam="2">  1        1 0.15346521E-01 0.15770533E+03</pdfrwt>
<pdfrwt beam="1">  1       -1 0.33405517E-01 0.15770533E+03</pdfrwt>
<totfact> 0.29830151E+03</totfact>
</mgrwt>
</event>
<event>
 8    3  0.1560846E-003  0.1493356E+03  0.7818608E-02  0.1210153E+00
          1   -1    0    0  501    0  0.00000000000E+00  0.00000000000E+00  0.48701257777E+03  0.48701257780E+03  0.50400000000E-02 0. -1.
         -1   -1    0    0    0  501 -0.00000000000E+00 -0.00000000000E+00 -0.51050322534E+02  0.51050322783E+02  0.50400000000E-02 0.  1.
         25    2    1    2    0    0 -0.56637161281E+02 -0.58884949753E+02  0.36804630902E+03  0.39718912162E+03  0.12500362958E+03 0.  0.
         23    2    1    2    0    0  0.56637161281E+02  0.58884949753E+02  0.67915946223E+02  0.14087377896E+03  0.92507515921E+02 0.  0.
        -13    1    4    4    0    0  0.49407047712E+02  0.79701294747E+02  0.72295788025E+02  0.11840627043E+03  0.10566000000E+00 0.  1.
         13    1    4    4    0    0  0.72301135694E+01 -0.20816344994E+02 -0.43798418018E+01  0.22467508526E+02  0.10566000000E+00 0. -1.
    9000005    1    3    3    0    0 -0.25224265956E+02 -0.10264018017E+02  0.28129857887E+01  0.27395739594E+02  0.10000000000E+01 0.  0.
    9000005    1    3    3    0    0 -0.31412895326E+02 -0.48620931736E+02  0.36523332323E+03  0.36979338203E+03  0.10000000000E+01 0.  0.
<mgrwt>
<rscale>  0 0.14238692E+03</rscale>
<asrwt>0</asrwt>
<pdfrwt beam="1">  1        1 0.74925011E-01 0.14933557E+03</pdfrwt>
<pdfrwt beam="2">  1       -1 0.78538959E-02 0.14933557E+03</pdfrwt>
<totfact> 0.40283231E+03</totfact>
</mgrwt>
</event>
<event>
 8    3  0.1560846E-003  0.1260081E+03  0.7818608E-02  0.1248877E+00
          1   -1    0    0  501    0  0.00000000000E+00  0.00000000000E+00  0.41371731080E+02  0.41371731387E+02  0.50400000000E-02 0. -1.
         -1   -1    0    0    0  501 -0.00000000000E+00 -0.00000000000E+00 -0.33960042224E+03  0.33960042228E+03  0.50400000000E-02 0.  1.
         25    2    1    2    0    0  0.13294942131E+02 -0.87435930854E+01 -0.95090902186E+02  0.15786174872E+03  0.12499938449E+03 0.  0.
         23    2    1    2    0    0 -0.13294942131E+02  0.87435930854E+01 -0.20313778897E+03  0.22311040495E+03  0.90885012961E+02 0.  0.
        -13    1    4    4    0    0  0.38503804739E+02  0.59058519070E+01 -0.68149032559E+02  0.78496648775E+02  0.10566000000E+00 0. -1.
         13    1    4    4    0    0 -0.51798746870E+02  0.28377411784E+01 -0.13498875641E+03  0.14461375617E+03  0.10566000000E+00 0.  1.
    9000005    1    3    3    0    0  0.57793954599E+02 -0.29311716237E+02 -0.86493900894E+02  0.10808104732E+03  0.10000000000E+01 0.  0.
    9000005    1    3    3    0    0 -0.44499012469E+02  0.20568123151E+02 -0.85970012924E+01  0.49780701400E+02  0.10000000000E+01 0.  0.
<mgrwt>
<rscale>  0 0.11656312E+03</rscale>
<asrwt>0</asrwt>
<pdfrwt beam="1">  1        1 0.63648819E-02 0.12600814E+03</pdfrwt>
<pdfrwt beam="2">  1       -1 0.52246217E-01 0.12600814E+03</pdfrwt>
<totfact> 0.42912110E+03</totfact>
</mgrwt>
</event>
