<event>
 6    4  0.6326233E-003  0.1276662E+03  0.7818608E-02  0.1230960E+00
          4   -1    0    0  502    0 -0.00000000000E+00  0.00000000000E+00  0.11285920683E+02  0.11357152181E+02  0.12700000000E+01 0.  1.
         21   -1    0    0  501  502  0.00000000000E+00 -0.00000000000E+00 -0.66414250543E+03  0.66414250543E+03  0.00000000000E+00 0.  1.
         25    2    1    2    0    0  0.16945408850E+02  0.19668301766E+02 -0.36910466475E+03  0.39055974468E+03  0.12499868661E+03 0.  0.
    9000005    1    3    3    0    0 -0.83035758466E+00  0.24344998274E+02 -0.36613049035E+01  0.24653064481E+02  0.10000000000E+01 0.  0.
    9000005    1    3    3    0    0  0.17775766434E+02 -0.46766965088E+01 -0.36544335985E+03  0.36590668020E+03  0.10000000000E+01 0.  0.
          4    1    1    2  501    0 -0.16945408850E+02 -0.19668301766E+02 -0.28375192000E+03  0.28493991293E+03  0.12700000000E+01 0. -1.
<mgrwt>
<rscale>  1 0.12766621E+03</rscale>
<asrwt>0</asrwt>
<pdfrwt beam="2">  1       21 0.10217578E+00 0.12766621E+03</pdfrwt>
<pdfrwt beam="1">  1        4 0.17418680E-02 0.12766621E+03</pdfrwt>
<totfact> 0.40093065E+04</totfact>
</mgrwt>
</event>
<event>
 6    4  0.6326233E-003  0.1317578E+03  0.7818608E-02  0.1224871E+00
         21   -1    0    0  501  502  0.00000000000E+00  0.00000000000E+00  0.12289522167E+02  0.12289522167E+02  0.00000000000E+00 0. -1.
         -4   -1    0    0    0  501 -0.00000000000E+00 -0.00000000000E+00 -0.66265743352E+03  0.66265865051E+03  0.12700000000E+01 0. -1.
         25    2    1    2    0    0 -0.35893149230E+02 -0.21139397415E+02 -0.56211215111E+03  0.57734753538E+03  0.12499965560E+03 0.  0.
    9000005    1    3    3    0    0 -0.24803288639E+02 -0.17812517886E+02 -0.56463052525E+03  0.56545655798E+03  0.10000000000E+01 0.  0.
    9000005    1    3    3    0    0 -0.11089860591E+02 -0.33268795294E+01  0.25183741354E+01  0.11890977404E+02  0.10000000000E+01 0.  0.
         -4    1    1    2    0  502  0.35893149230E+02  0.21139397415E+02 -0.88255760244E+02  0.97600637298E+02  0.12700000000E+01 0.  1.
<mgrwt>
<rscale>  1 0.13175776E+03</rscale>
<asrwt>0</asrwt>
<pdfrwt beam="1">  1       21 0.18906955E-02 0.13175776E+03</pdfrwt>
<pdfrwt beam="2">  1       -4 0.10195245E+00 0.13175776E+03</pdfrwt>
<totfact> 0.44381001E+04</totfact>
</mgrwt>
</event>
<event>
 6    4  0.6326233E-003  0.1285095E+03  0.7818608E-02  0.1229684E+00
         21   -1    0    0  501  502  0.00000000000E+00  0.00000000000E+00  0.66831050505E+03  0.66831050505E+03  0.00000000000E+00 0. -1.
         -4   -1    0    0    0  501 -0.00000000000E+00 -0.00000000000E+00 -0.20132085819E+02  0.20172103991E+02  0.12700000000E+01 0.  1.
         25    2    1    2    0    0  0.59004150958E+00 -0.29825488211E+02  0.19027517094E+03  0.22960691172E+03  0.12499914135E+03 0.  0.
    9000005    1    3    3    0    0  0.53388304024E+02 -0.41574839888E+02  0.14113709339E+03  0.15652302530E+03  0.10000000000E+01 0.  0.
    9000005    1    3    3    0    0 -0.52798262514E+02  0.11749351677E+02  0.49138077552E+02  0.73083886424E+02  0.10000000000E+01 0.  0.
         -4    1    1    2    0  502 -0.59004150958E+00  0.29825488211E+02  0.45790324829E+03  0.45887569732E+03  0.12700000000E+01 0. -1.
<mgrwt>
<rscale>  1 0.12850951E+03</rscale>
<asrwt>0</asrwt>
<pdfrwt beam="1">  1       21 0.10281698E+00 0.12850951E+03</pdfrwt>
<pdfrwt beam="2">  1       -4 0.31004156E-02 0.12850951E+03</pdfrwt>
<totfact> 0.16190522E+04</totfact>
</mgrwt>
</event>
<event>
 6    4  0.6326233E-003  0.1320852E+03  0.7818608E-02  0.1224394E+00
         21   -1    0    0  501  502  0.00000000000E+00  0.00000000000E+00  0.19514497344E+02  0.19514497344E+02  0.00000000000E+00 0. -1.
         -4   -1    0    0    0  501 -0.00000000000E+00 -0.00000000000E+00 -0.49961902874E+03  0.49962064287E+03  0.12700000000E+01 0. -1.
         25    2    1    2    0    0 -0.21000307178E+02  0.37039620142E+02 -0.44420671327E+03  0.46342865398E+03  0.12503426273E+03 0.  0.
    9000005    1    3    3    0    0 -0.14344405696E+02  0.75294700850E+02 -0.38541679167E+03  0.39296584743E+03  0.10000000000E+01 0.  0.
    9000005    1    3    3    0    0 -0.66559014823E+01 -0.38255080708E+02 -0.58789921607E+02  0.70462806551E+02  0.10000000000E+01 0.  0.
         -4    1    1    2    0  502  0.21000307178E+02 -0.37039620142E+02 -0.35897818125E+02  0.55706486229E+02  0.12700000000E+01 0.  1.
<mgrwt>
<rscale>  1 0.13208525E+03</rscale>
<asrwt>0</asrwt>
<pdfrwt beam="1">  1       21 0.30022300E-02 0.13208525E+03</pdfrwt>
<pdfrwt beam="2">  1       -4 0.76867777E-01 0.13208525E+03</pdfrwt>
<totfact> 0.39559511E+04</totfact>
</mgrwt>
</event>
<event>
 6    4  0.6326233E-003  0.1282128E+03  0.7818608E-02  0.1230132E+00
         21   -1    0    0  501  502  0.00000000000E+00  0.00000000000E+00  0.62508906527E+02  0.62508906527E+02  0.00000000000E+00 0.  1.
         -4   -1    0    0    0  501 -0.00000000000E+00 -0.00000000000E+00 -0.24981751937E+03  0.24982074751E+03  0.12700000000E+01 0. -1.
         25    2    1    2    0    0  0.10214867952E+02  0.26630741360E+02 -0.22861687489E+03  0.26211486214E+03  0.12499994223E+03 0.  0.
    9000005    1    3    3    0    0  0.28722029557E+02  0.62909728451E+02 -0.20184632764E+03  0.21336712234E+03  0.10000000000E+01 0.  0.
    9000005    1    3    3    0    0 -0.18507161605E+02 -0.36278987091E+02 -0.26770547247E+02  0.48747739793E+02  0.10000000000E+01 0.  0.
         -4    1    1    2    0  502 -0.10214867952E+02 -0.26630741360E+02  0.41308262040E+02  0.50214791899E+02  0.12700000000E+01 0.  1.
<mgrwt>
<rscale>  1 0.12821281E+03</rscale>
<asrwt>0</asrwt>
<pdfrwt beam="1">  1       21 0.96167551E-02 0.12821281E+03</pdfrwt>
<pdfrwt beam="2">  1       -4 0.38434704E-01 0.12821281E+03</pdfrwt>
<totfact> 0.23132542E+04</totfact>
</mgrwt>
</event>
<event>
 6    4  0.6326233E-003  0.1305826E+03  0.7818608E-02  0.1226594E+00
         -4   -1    0    0    0  501 -0.00000000000E+00  0.00000000000E+00  0.47718643493E+02  0.47735540604E+02  0.12700000000E+01 0. -1.
         21   -1    0    0  501  502  0.00000000000E+00 -0.00000000000E+00 -0.24434049834E+03  0.24434049834E+03  0.00000000000E+00 0.  1.
         25    2    1    2    0    0 -0.24073052957E+02  0.29062251603E+02 -0.48631038357E+02  0.13934417910E+03  0.12501078357E+03 0.  0.
    9000005    1    3    3    0    0  0.60193162701E+01 -0.25076903926E+02 -0.69370886609E+02  0.74016235975E+02  0.10000000000E+01 0.  0.
    9000005    1    3    3    0    0 -0.30092369227E+02  0.54139155529E+02  0.20739848252E+02  0.65327943123E+02  0.10000000000E+01 0.  0.
         -4    1    1    2    0  502  0.24073052957E+02 -0.29062251603E+02 -0.14799081649E+03  0.15273185985E+03  0.12700000000E+01 0.  1.
<mgrwt>
<rscale>  1 0.13058263E+03</rscale>
<asrwt>0</asrwt>
<pdfrwt beam="2">  1       21 0.37590846E-01 0.13058263E+03</pdfrwt>
<pdfrwt beam="1">  1       -4 0.73428834E-02 0.13058263E+03</pdfrwt>
<totfact> 0.35287149E+04</totfact>
</mgrwt>
</event>
<event>
 6    4  0.6326233E-003  0.1316548E+03  0.7818608E-02  0.1225021E+00
          4   -1    0    0  502    0 -0.00000000000E+00  0.00000000000E+00  0.16911848804E+03  0.16912325652E+03  0.12700000000E+01 0.  1.
         21   -1    0    0  501  502  0.00000000000E+00 -0.00000000000E+00 -0.46242135461E+02  0.46242135461E+02  0.00000000000E+00 0.  1.
         25    2    1    2    0    0  0.15154316514E+02 -0.38451549532E+02  0.11137699985E+03  0.17244659676E+03  0.12499927067E+03 0.  0.
    9000005    1    3    3    0    0  0.63293435050E+02 -0.37687698980E+02  0.33606581489E+02  0.80974217466E+02  0.10000000000E+01 0.  0.
    9000005    1    3    3    0    0 -0.48139118537E+02 -0.76385055163E+00  0.77770418359E+02  0.91472379290E+02  0.10000000000E+01 0.  0.
          4    1    1    2  501    0 -0.15154316514E+02  0.38451549532E+02  0.11499352729E+02  0.42918795225E+02  0.12700000000E+01 0. -1.
<mgrwt>
<rscale>  1 0.13165482E+03</rscale>
<asrwt>0</asrwt>
<pdfrwt beam="2">  1       21 0.71141748E-02 0.13165482E+03</pdfrwt>
<pdfrwt beam="1">  1        4 0.26019937E-01 0.13165482E+03</pdfrwt>
<totfact> 0.82073171E+04</totfact>
</mgrwt>
</event>
<event>
 6    4  0.6326233E-003  0.1287226E+03  0.7818608E-02  0.1229364E+00
          4   -1    0    0  502    0 -0.00000000000E+00  0.00000000000E+00  0.10586725583E+03  0.10587487311E+03  0.12700000000E+01 0.  1.
         21   -1    0    0  501  502  0.00000000000E+00 -0.00000000000E+00 -0.60513302377E+02  0.60513302377E+02  0.00000000000E+00 0.  1.
         25    2    1    2    0    0  0.26424940930E+02  0.15651097774E+02  0.42318135393E+02  0.13550025785E+03  0.12500504362E+03 0.  0.
    9000005    1    3    3    0    0  0.76882281896E+02  0.12670823622E+02  0.21596044336E+02  0.80862996307E+02  0.10000000000E+01 0.  0.
    9000005    1    3    3    0    0 -0.50457340966E+02  0.29802741527E+01  0.20722091057E+02  0.54637261546E+02  0.10000000000E+01 0.  0.
          4    1    1    2  501    0 -0.26424940930E+02 -0.15651097774E+02  0.30358180586E+01  0.30887917637E+02  0.12700000000E+01 0. -1.
<mgrwt>
<rscale>  1 0.12872255E+03</rscale>
<asrwt>0</asrwt>
<pdfrwt beam="2">  1       21 0.93097389E-02 0.12872255E+03</pdfrwt>
<pdfrwt beam="1">  1        4 0.16288881E-01 0.12872255E+03</pdfrwt>
<totfact> 0.11969869E+05</totfact>
</mgrwt>
</event>
<event>
 6    4  0.6326233E-003  0.1274541E+03  0.7818608E-02  0.1231283E+00
         21   -1    0    0  501  502  0.00000000000E+00  0.00000000000E+00  0.12888821688E+03  0.12888821688E+03  0.00000000000E+00 0. -1.
         -4   -1    0    0    0  501 -0.00000000000E+00 -0.00000000000E+00 -0.46954143847E+02  0.46971315975E+02  0.12700000000E+01 0. -1.
         25    2    1    2    0    0 -0.24920479669E+02  0.25079857561E-01  0.54051211486E+02  0.13844165205E+03  0.12499410635E+03 0.  0.
    9000005    1    3    3    0    0  0.43573439926E+02 -0.28312993472E+02  0.32268539870E+02  0.61176212139E+02  0.10000000000E+01 0.  0.
    9000005    1    3    3    0    0 -0.68493919595E+02  0.28338073330E+02  0.21782671616E+02  0.77265439909E+02  0.10000000000E+01 0.  0.
         -4    1    1    2    0  502  0.24920479669E+02 -0.25079857561E-01  0.27882861544E+02  0.37417880804E+02  0.12700000000E+01 0.  1.
<mgrwt>
<rscale>  1 0.12745414E+03</rscale>
<asrwt>0</asrwt>
<pdfrwt beam="1">  1       21 0.19828956E-01 0.12745414E+03</pdfrwt>
<pdfrwt beam="2">  1       -4 0.72255167E-02 0.12745414E+03</pdfrwt>
<totfact> 0.12259623E+05</totfact>
</mgrwt>
</event>
<event>
 6    4  0.6326233E-003  0.1675452E+03  0.7818608E-02  0.1180432E+00
         21   -1    0    0  501  502  0.00000000000E+00  0.00000000000E+00  0.19308814590E+02  0.19308814590E+02  0.00000000000E+00 0. -1.
         -4   -1    0    0    0  501 -0.00000000000E+00 -0.00000000000E+00 -0.16339454604E+04  0.16339459540E+04  0.12700000000E+01 0.  1.
         25    2    1    2    0    0  0.84845284753E+02  0.72437514734E+02 -0.14122458111E+04  0.14221496436E+04  0.12500184821E+03 0.  0.
    9000005    1    3    3    0    0  0.16626954857E+02 -0.16379360595E+02 -0.48711973445E+02  0.54024026490E+02  0.10000000000E+01 0.  0.
    9000005    1    3    3    0    0  0.68218329896E+02  0.88816875329E+02 -0.13635338376E+04  0.13681256171E+04  0.10000000000E+01 0.  0.
         -4    1    1    2    0  502 -0.84845284753E+02 -0.72437514734E+02 -0.20239083474E+03  0.23110512493E+03  0.12700000000E+01 0. -1.
<mgrwt>
<rscale>  1 0.16754515E+03</rscale>
<asrwt>0</asrwt>
<pdfrwt beam="1">  1       21 0.29705868E-02 0.16754515E+03</pdfrwt>
<pdfrwt beam="2">  1       -4 0.25137948E+00 0.16754515E+03</pdfrwt>
<totfact> 0.19238136E+03</totfact>
</mgrwt>
</event>
<event>
 6    4  0.6326233E-003  0.1272107E+03  0.7818608E-02  0.1231654E+00
          4   -1    0    0  502    0 -0.00000000000E+00  0.00000000000E+00  0.51060841631E+02  0.51076633093E+02  0.12700000000E+01 0. -1.
         21   -1    0    0  501  502  0.00000000000E+00 -0.00000000000E+00 -0.16318109698E+03  0.16318109698E+03  0.00000000000E+00 0.  1.
         25    2    1    2    0    0 -0.19777393062E+02  0.12907724416E+02 -0.32637417449E+02  0.13133071972E+03  0.12499920919E+03 0.  0.
    9000005    1    3    3    0    0  0.51826922590E+02 -0.25031192667E+01 -0.25234607022E+02  0.57706853170E+02  0.10000000000E+01 0.  0.
    9000005    1    3    3    0    0 -0.71604315652E+02  0.15410843682E+02 -0.74028104265E+01  0.73623866547E+02  0.10000000000E+01 0.  0.
          4    1    1    2  501    0  0.19777393062E+02 -0.12907724416E+02 -0.79482837901E+02  0.82927010356E+02  0.12700000000E+01 0.  1.
<mgrwt>
<rscale>  1 0.12721068E+03</rscale>
<asrwt>0</asrwt>
<pdfrwt beam="2">  1       21 0.25104785E-01 0.12721068E+03</pdfrwt>
<pdfrwt beam="1">  1        4 0.78571088E-02 0.12721068E+03</pdfrwt>
<totfact> 0.68711143E+04</totfact>
</mgrwt>
</event>
<event>
 6    4  0.6326233E-003  0.1284823E+03  0.7818608E-02  0.1229725E+00
         21   -1    0    0  501  502  0.00000000000E+00  0.00000000000E+00  0.13545285241E+03  0.13545285241E+03  0.00000000000E+00 0. -1.
         -4   -1    0    0    0  501 -0.00000000000E+00 -0.00000000000E+00 -0.27457423010E+03  0.27457716717E+03  0.12700000000E+01 0.  1.
         25    2    1    2    0    0  0.18092137375E+02 -0.23564482532E+02 -0.25760708256E+03  0.28786993842E+03  0.12500032876E+03 0.  0.
    9000005    1    3    3    0    0  0.67122707042E+02 -0.73578346113E+01 -0.90219158641E+02  0.11269468540E+03  0.10000000000E+01 0.  0.
    9000005    1    3    3    0    0 -0.49030569667E+02 -0.16206647921E+02 -0.16738792391E+03  0.17517525302E+03  0.10000000000E+01 0.  0.
         -4    1    1    2    0  502 -0.18092137375E+02  0.23564482532E+02  0.11848570487E+03  0.12216008116E+03  0.12700000000E+01 0. -1.
<mgrwt>
<rscale>  1 0.12848227E+03</rscale>
<asrwt>0</asrwt>
<pdfrwt beam="1">  1       21 0.20838901E-01 0.12848227E+03</pdfrwt>
<pdfrwt beam="2">  1       -4 0.42242873E-01 0.12848227E+03</pdfrwt>
<totfact> 0.47906372E+03</totfact>
</mgrwt>
</event>
<event>
 6    4  0.6326233E-003  0.1306195E+03  0.7818608E-02  0.1226539E+00
         21   -1    0    0  501  502  0.00000000000E+00  0.00000000000E+00  0.14059604439E+03  0.14059604439E+03  0.00000000000E+00 0.  1.
          4   -1    0    0  502    0 -0.00000000000E+00 -0.00000000000E+00 -0.22767521255E+03  0.22767875463E+03  0.12700000000E+01 0. -1.
         25    2    1    2    0    0 -0.26836331533E+02 -0.26770685920E+02 -0.20573921156E+03  0.24370081652E+03  0.12499842594E+03 0.  0.
    9000005    1    3    3    0    0 -0.66119706073E+02 -0.75672227875E+01 -0.53774918000E+02  0.85567635224E+02  0.10000000000E+01 0.  0.
    9000005    1    3    3    0    0  0.39283374540E+02 -0.19203463132E+02 -0.15196429356E+03  0.15813318130E+03  0.10000000000E+01 0.  0.
          4    1    1    2  501    0  0.26836331533E+02  0.26770685920E+02  0.11866004340E+03  0.12457398250E+03  0.12700000000E+01 0.  1.
<mgrwt>
<rscale>  1 0.13061954E+03</rscale>
<asrwt>0</asrwt>
<pdfrwt beam="1">  1       21 0.21630161E-01 0.13061954E+03</pdfrwt>
<pdfrwt beam="2">  1        4 0.35027669E-01 0.13061954E+03</pdfrwt>
<totfact> 0.64539951E+03</totfact>
</mgrwt>
</event>
<event>
 6    4  0.6326233E-003  0.1287481E+03  0.7818608E-02  0.1229325E+00
         21   -1    0    0  501  502  0.00000000000E+00  0.00000000000E+00  0.19730232341E+04  0.19730232341E+04  0.00000000000E+00 0.  1.
          4   -1    0    0  502    0 -0.00000000000E+00 -0.00000000000E+00 -0.18467020304E+02  0.18510638534E+02  0.12700000000E+01 0. -1.
         25    2    1    2    0    0 -0.29975387114E+02  0.72412286223E+01  0.20744838878E+03  0.24415345488E+03  0.12500046519E+03 0.  0.
    9000005    1    3    3    0    0 -0.74702515959E+02 -0.67201965134E+01  0.86792619675E+02  0.11471523771E+03  0.10000000000E+01 0.  0.
    9000005    1    3    3    0    0  0.44727128845E+02  0.13961425136E+02  0.12065576910E+03  0.12943821717E+03  0.10000000000E+01 0.  0.
          4    1    1    2  501    0  0.29975387114E+02 -0.72412286223E+01  0.17471078250E+04  0.17473804177E+04  0.12700000000E+01 0.  1.
<mgrwt>
<rscale>  1 0.12874811E+03</rscale>
<asrwt>0</asrwt>
<pdfrwt beam="1">  1       21 0.30354187E+00 0.12874811E+03</pdfrwt>
<pdfrwt beam="2">  1        4 0.28444683E-02 0.12874811E+03</pdfrwt>
<totfact> 0.83536338E+02</totfact>
</mgrwt>
</event>
<event>
 6    4  0.6326233E-003  0.1303228E+03  0.7818608E-02  0.1226978E+00
          4   -1    0    0  502    0 -0.00000000000E+00  0.00000000000E+00  0.23522592395E+03  0.23522935233E+03  0.12700000000E+01 0. -1.
         21   -1    0    0  501  502  0.00000000000E+00 -0.00000000000E+00 -0.31349504982E+02  0.31349504982E+02  0.00000000000E+00 0.  1.
         25    2    1    2    0    0  0.26870395303E+02 -0.25223771286E+02  0.13035197305E+03  0.18432489796E+03  0.12500309736E+03 0.  0.
    9000005    1    3    3    0    0  0.65390684915E+02 -0.46477362757E+02  0.55710007242E+02  0.97676465074E+02  0.10000000000E+01 0.  0.
    9000005    1    3    3    0    0 -0.38520289611E+02  0.21253591471E+02  0.74641965805E+02  0.86648432884E+02  0.10000000000E+01 0.  0.
          4    1    1    2  501    0 -0.26870395303E+02  0.25223771286E+02  0.73524445923E+02  0.82253959357E+02  0.12700000000E+01 0.  1.
<mgrwt>
<rscale>  1 0.13032280E+03</rscale>
<asrwt>0</asrwt>
<pdfrwt beam="2">  1       21 0.48230009E-02 0.13032280E+03</pdfrwt>
<pdfrwt beam="1">  1        4 0.36190845E-01 0.13032280E+03</pdfrwt>
<totfact> 0.84743548E+04</totfact>
</mgrwt>
</event>
<event>
 6    4  0.6326233E-003  0.1270329E+03  0.7818608E-02  0.1231926E+00
         -4   -1    0    0    0  501 -0.00000000000E+00  0.00000000000E+00  0.27218175384E+02  0.27247788373E+02  0.12700000000E+01 0.  1.
         21   -1    0    0  501  502  0.00000000000E+00 -0.00000000000E+00 -0.22613307667E+03  0.22613307667E+03  0.00000000000E+00 0.  1.
         25    2    1    2    0    0  0.17119284097E+02  0.14817713953E+02 -0.13411407213E+03  0.18472669624E+03  0.12499893370E+03 0.  0.
    9000005    1    3    3    0    0  0.54148675503E+02  0.51342904565E+02 -0.71889385723E+02  0.10362073483E+03  0.10000000000E+01 0.  0.
    9000005    1    3    3    0    0 -0.37029391405E+02 -0.36525190613E+02 -0.62224686410E+02  0.81105961408E+02  0.10000000000E+01 0.  0.
         -4    1    1    2    0  502 -0.17119284097E+02 -0.14817713953E+02 -0.64800829155E+02  0.68654168802E+02  0.12700000000E+01 0. -1.
<mgrwt>
<rscale>  1 0.12703294E+03</rscale>
<asrwt>0</asrwt>
<pdfrwt beam="2">  1       21 0.34789704E-01 0.12703294E+03</pdfrwt>
<pdfrwt beam="1">  1       -4 0.41899639E-02 0.12703294E+03</pdfrwt>
<totfact> 0.10147559E+05</totfact>
</mgrwt>
</event>
<event>
 6    4  0.6326233E-003  0.1267952E+03  0.7818608E-02  0.1232290E+00
         -4   -1    0    0    0  501 -0.00000000000E+00  0.00000000000E+00  0.13194177830E+03  0.13194789033E+03  0.12700000000E+01 0.  1.
         21   -1    0    0  501  502  0.00000000000E+00 -0.00000000000E+00 -0.44069449278E+02  0.44069449278E+02  0.00000000000E+00 0.  1.
         25    2    1    2    0    0 -0.17461739066E+02  0.12078036552E+02  0.88684682641E+02  0.15473203678E+03  0.12500495579E+03 0.  0.
    9000005    1    3    3    0    0  0.93190134653E+01 -0.48344280023E+02  0.71350035662E+01  0.49758634414E+02  0.10000000000E+01 0.  0.
    9000005    1    3    3    0    0 -0.26780752531E+02  0.60422316575E+02  0.81549679075E+02  0.10497340236E+03  0.10000000000E+01 0.  0.
         -4    1    1    2    0  502  0.17461739066E+02 -0.12078036552E+02 -0.81235361508E+00  0.21285302830E+02  0.12700000000E+01 0. -1.
<mgrwt>
<rscale>  1 0.12679523E+03</rscale>
<asrwt>0</asrwt>
<pdfrwt beam="2">  1       21 0.67799153E-02 0.12679523E+03</pdfrwt>
<pdfrwt beam="1">  1       -4 0.20300613E-01 0.12679523E+03</pdfrwt>
<totfact> 0.13943890E+05</totfact>
</mgrwt>
</event>
<event>
 6    4  0.6326233E-003  0.1269968E+03  0.7818608E-02  0.1231981E+00
         21   -1    0    0  501  502  0.00000000000E+00  0.00000000000E+00  0.16371005889E+02  0.16371005889E+02  0.00000000000E+00 0. -1.
          4   -1    0    0  502    0 -0.00000000000E+00 -0.00000000000E+00 -0.41925492277E+03  0.41925684630E+03  0.12700000000E+01 0. -1.
         25    2    1    2    0    0 -0.22072810707E+02 -0.39918139817E+01 -0.38902752133E+03  0.40923171328E+03  0.12500015701E+03 0.  0.
    9000005    1    3    3    0    0 -0.15328932593E+02 -0.26990898543E+02 -0.38331708868E+03  0.38457310781E+03  0.10000000000E+01 0.  0.
    9000005    1    3    3    0    0 -0.67438781148E+01  0.22999084561E+02 -0.57104326502E+01  0.24658605470E+02  0.10000000000E+01 0.  0.
          4    1    1    2  501    0  0.22072810707E+02  0.39918139817E+01 -0.13856395555E+02  0.26396138906E+02  0.12700000000E+01 0.  1.
<mgrwt>
<rscale>  1 0.12699678E+03</rscale>
<asrwt>0</asrwt>
<pdfrwt beam="1">  1       21 0.25186163E-02 0.12699678E+03</pdfrwt>
<pdfrwt beam="2">  1        4 0.64504694E-01 0.12699678E+03</pdfrwt>
<totfact> 0.76539592E+04</totfact>
</mgrwt>
</event>
<event>
 6    4  0.6326233E-003  0.1325528E+03  0.7818608E-02  0.1223716E+00
          4   -1    0    0  502    0 -0.00000000000E+00  0.00000000000E+00  0.13387933179E+03  0.13388535536E+03  0.12700000000E+01 0.  1.
         21   -1    0    0  501  502  0.00000000000E+00 -0.00000000000E+00 -0.64898975835E+02  0.64898975835E+02  0.00000000000E+00 0.  1.
         25    2    1    2    0    0 -0.20480152415E+02 -0.39066072978E+02  0.77922690169E+02  0.15376019387E+03  0.12499862749E+03 0.  0.
    9000005    1    3    3    0    0  0.43234235343E+02 -0.49326056498E+02  0.53861209040E+02  0.84878081945E+02  0.10000000000E+01 0.  0.
    9000005    1    3    3    0    0 -0.63714387759E+02  0.10259983520E+02  0.24061481129E+02  0.68882111926E+02  0.10000000000E+01 0.  0.
          4    1    1    2  501    0  0.20480152415E+02  0.39066072978E+02 -0.89423342124E+01  0.45024137327E+02  0.12700000000E+01 0. -1.
<mgrwt>
<rscale>  1 0.13255283E+03</rscale>
<asrwt>0</asrwt>
<pdfrwt beam="2">  1       21 0.99844579E-02 0.13255283E+03</pdfrwt>
<pdfrwt beam="1">  1        4 0.20598239E-01 0.13255283E+03</pdfrwt>
<totfact> 0.70038439E+04</totfact>
</mgrwt>
</event>
<event>
 6    4  0.6326233E-003  0.1276337E+03  0.7818608E-02  0.1231010E+00
          4   -1    0    0  502    0 -0.00000000000E+00  0.00000000000E+00  0.18796766565E+03  0.18797195597E+03  0.12700000000E+01 0. -1.
         21   -1    0    0  501  502  0.00000000000E+00 -0.00000000000E+00 -0.36108528863E+02  0.36108528863E+02  0.00000000000E+00 0. -1.
         25    2    1    2    0    0  0.15057033423E+02  0.20937100125E+02  0.15171213522E+03  0.19825973878E+03  0.12500110252E+03 0.  0.
    9000005    1    3    3    0    0 -0.96119449563E+01  0.44416272479E+02  0.15729784271E+03  0.16373394904E+03  0.10000000000E+01 0.  0.
    9000005    1    3    3    0    0  0.24668978379E+02 -0.23479172354E+02 -0.55857074976E+01  0.34525789737E+02  0.10000000000E+01 0.  0.
          4    1    1    2  501    0 -0.15057033423E+02 -0.20937100125E+02  0.14700157230E+00  0.25820746051E+02  0.12700000000E+01 0.  1.
<mgrwt>
<rscale>  1 0.12763366E+03</rscale>
<asrwt>0</asrwt>
<pdfrwt beam="2">  1       21 0.55551584E-02 0.12763366E+03</pdfrwt>
<pdfrwt beam="1">  1        4 0.28920150E-01 0.12763366E+03</pdfrwt>
<totfact> 0.10216170E+05</totfact>
</mgrwt>
</event>
<event>
 6    4  0.6326233E-003  0.1409998E+03  0.7818608E-02  0.1211990E+00
         21   -1    0    0  501  502  0.00000000000E+00  0.00000000000E+00  0.17062595559E+03  0.17062595559E+03  0.00000000000E+00 0. -1.
          4   -1    0    0  502    0 -0.00000000000E+00 -0.00000000000E+00 -0.62334720712E+02  0.62347656782E+02  0.12700000000E+01 0. -1.
         25    2    1    2    0    0 -0.58748731922E+02  0.28365557898E+02  0.75729591597E+02  0.16004973500E+03  0.12499971302E+03 0.  0.
    9000005    1    3    3    0    0  0.71558350609E+01 -0.38374110640E+02 -0.69824789896E+00  0.39054652641E+02  0.10000000000E+01 0.  0.
    9000005    1    3    3    0    0 -0.65904566983E+02  0.66739668538E+02  0.76427839496E+02  0.12099508236E+03  0.10000000000E+01 0.  0.
          4    1    1    2  501    0  0.58748731922E+02 -0.28365557898E+02  0.32561643281E+02  0.72923877369E+02  0.12700000000E+01 0.  1.
<mgrwt>
<rscale>  1 0.14099981E+03</rscale>
<asrwt>0</asrwt>
<pdfrwt beam="1">  1       21 0.26250147E-01 0.14099981E+03</pdfrwt>
<pdfrwt beam="2">  1        4 0.95913158E-02 0.14099981E+03</pdfrwt>
<totfact> 0.45834313E+04</totfact>
</mgrwt>
</event>
<event>
 6    4  0.6326233E-003  0.1270219E+03  0.7818608E-02  0.1231943E+00
         -4   -1    0    0    0  501 -0.00000000000E+00  0.00000000000E+00  0.12972158166E+03  0.12972779828E+03  0.12700000000E+01 0. -1.
         21   -1    0    0  501  502  0.00000000000E+00 -0.00000000000E+00 -0.80633541955E+02  0.80633541955E+02  0.00000000000E+00 0. -1.
         25    2    1    2    0    0  0.15870063105E+02 -0.16037965760E+02  0.95381582340E+02  0.15884648569E+03  0.12500193806E+03 0.  0.
    9000005    1    3    3    0    0  0.44376011875E+02 -0.63000181533E+01  0.11462956063E+03  0.12308475465E+03  0.10000000000E+01 0.  0.
    9000005    1    3    3    0    0 -0.28505948769E+02 -0.97379476070E+01 -0.19247978286E+02  0.35761731040E+02  0.10000000000E+01 0.  0.
         -4    1    1    2    0  502 -0.15870063105E+02  0.16037965760E+02 -0.46293542639E+02  0.51514854545E+02  0.12700000000E+01 0.  1.
<mgrwt>
<rscale>  1 0.12702189E+03</rscale>
<asrwt>0</asrwt>
<pdfrwt beam="2">  1       21 0.12405160E-01 0.12702189E+03</pdfrwt>
<pdfrwt beam="1">  1       -4 0.19958414E-01 0.12702189E+03</pdfrwt>
<totfact> 0.50282335E+04</totfact>
</mgrwt>
</event>
<event>
 6    4  0.6326233E-003  0.1268877E+03  0.7818608E-02  0.1232148E+00
         21   -1    0    0  501  502  0.00000000000E+00  0.00000000000E+00  0.29837255687E+02  0.29837255687E+02  0.00000000000E+00 0.  1.
          4   -1    0    0  502    0 -0.00000000000E+00 -0.00000000000E+00 -0.21441225494E+03  0.21441601612E+03  0.12700000000E+01 0.  1.
         25    2    1    2    0    0  0.14861649857E+02 -0.15946692767E+02 -0.18255956810E+03  0.22232519598E+03  0.12500132486E+03 0.  0.
    9000005    1    3    3    0    0 -0.34129684919E+02 -0.51508600727E+02 -0.62667245204E+02  0.88012243256E+02  0.10000000000E+01 0.  0.
    9000005    1    3    3    0    0  0.48991334776E+02  0.35561907960E+02 -0.11989232289E+03  0.13431295273E+03  0.10000000000E+01 0.  0.
          4    1    1    2  501    0 -0.14861649857E+02  0.15946692767E+02 -0.20154311567E+01  0.21928075825E+02  0.12700000000E+01 0. -1.
<mgrwt>
<rscale>  1 0.12688773E+03</rscale>
<asrwt>0</asrwt>
<pdfrwt beam="1">  1       21 0.45903469E-02 0.12688773E+03</pdfrwt>
<pdfrwt beam="2">  1        4 0.32988870E-01 0.12688773E+03</pdfrwt>
<totfact> 0.10958986E+05</totfact>
</mgrwt>
</event>
<event>
 6    4  0.6326233E-003  0.1337655E+03  0.7818608E-02  0.1221973E+00
         21   -1    0    0  501  502  0.00000000000E+00  0.00000000000E+00  0.86117471136E+02  0.86117471136E+02  0.00000000000E+00 0.  1.
          4   -1    0    0  502    0 -0.00000000000E+00 -0.00000000000E+00 -0.11366452610E+03  0.11367162088E+03  0.12700000000E+01 0.  1.
         25    2    1    2    0    0  0.34235433892E+02 -0.33121941556E+02 -0.55185217403E+02  0.14470180791E+03  0.12499630813E+03 0.  0.
    9000005    1    3    3    0    0  0.30899237893E+02 -0.51547539436E+02  0.22956094257E+02  0.64342007956E+02  0.10000000000E+01 0.  0.
    9000005    1    3    3    0    0  0.33361959995E+01  0.18425597880E+02 -0.78141311661E+02  0.80359799956E+02  0.10000000000E+01 0.  0.
          4    1    1    2  501    0 -0.34235433892E+02  0.33121941556E+02  0.27638162443E+02  0.55087284100E+02  0.12700000000E+01 0. -1.
<mgrwt>
<rscale>  1 0.13376549E+03</rscale>
<asrwt>0</asrwt>
<pdfrwt beam="1">  1       21 0.13248842E-01 0.13376549E+03</pdfrwt>
<pdfrwt beam="2">  1        4 0.17488116E-01 0.13376549E+03</pdfrwt>
<totfact> 0.56981344E+04</totfact>
</mgrwt>
</event>
<event>
 6    4  0.6326233E-003  0.1516329E+03  0.7818608E-02  0.1198481E+00
         -4   -1    0    0    0  501 -0.00000000000E+00  0.00000000000E+00  0.42608396246E+03  0.42608585516E+03  0.12700000000E+01 0. -1.
         21   -1    0    0  501  502  0.00000000000E+00 -0.00000000000E+00 -0.50461934929E+02  0.50461934929E+02  0.00000000000E+00 0.  1.
         25    2    1    2    0    0  0.53792059275E+02 -0.66900500358E+02  0.35816037468E+03  0.38893623372E+03  0.12499310908E+03 0.  0.
    9000005    1    3    3    0    0  0.31212693562E+01 -0.55074180017E+02  0.31918260450E+03  0.32391579561E+03  0.10000000000E+01 0.  0.
    9000005    1    3    3    0    0  0.50670789919E+02 -0.11826320341E+02  0.38977770177E+02  0.65020438108E+02  0.10000000000E+01 0.  0.
         -4    1    1    2    0  502 -0.53792059275E+02  0.66900500358E+02  0.17461652848E+02  0.87611556369E+02  0.12700000000E+01 0.  1.
<mgrwt>
<rscale>  1 0.15163291E+03</rscale>
<asrwt>0</asrwt>
<pdfrwt beam="2">  1       21 0.77633749E-02 0.15163291E+03</pdfrwt>
<pdfrwt beam="1">  1       -4 0.65552752E-01 0.15163291E+03</pdfrwt>
<totfact> 0.11465848E+04</totfact>
</mgrwt>
</event>
<event>
 6    4  0.6326233E-003  0.1373408E+03  0.7818608E-02  0.1216953E+00
         -4   -1    0    0    0  501 -0.00000000000E+00  0.00000000000E+00  0.23496099444E+03  0.23496442669E+03  0.12700000000E+01 0. -1.
         21   -1    0    0  501  502  0.00000000000E+00 -0.00000000000E+00 -0.49788532738E+02  0.49788532738E+02  0.00000000000E+00 0.  1.
         25    2    1    2    0    0  0.45020709634E+02 -0.34792993483E+02  0.18165734206E+03  0.22773203645E+03  0.12500029523E+03 0.  0.
    9000005    1    3    3    0    0 -0.41499220974E+02 -0.34578933948E+00  0.36552015017E+02  0.55311433841E+02  0.10000000000E+01 0.  0.
    9000005    1    3    3    0    0  0.86519930608E+02 -0.34447204143E+02  0.14510532705E+03  0.17242060261E+03  0.10000000000E+01 0.  0.
         -4    1    1    2    0  502 -0.45020709634E+02  0.34792993483E+02  0.35151196412E+01  0.57020922981E+02  0.12700000000E+01 0.  1.
<mgrwt>
<rscale>  1 0.13734078E+03</rscale>
<asrwt>0</asrwt>
<pdfrwt beam="2">  1       21 0.76597744E-02 0.13734078E+03</pdfrwt>
<pdfrwt beam="1">  1       -4 0.36149355E-01 0.13734078E+03</pdfrwt>
<totfact> 0.38966705E+04</totfact>
</mgrwt>
</event>
<event>
 6    4  0.6326233E-003  0.1272242E+03  0.7818608E-02  0.1231634E+00
         21   -1    0    0  501  502  0.00000000000E+00  0.00000000000E+00  0.89403763279E+03  0.89403763279E+03  0.00000000000E+00 0. -1.
          4   -1    0    0  502    0 -0.00000000000E+00 -0.00000000000E+00 -0.80578487650E+01  0.81573173727E+01  0.12700000000E+01 0.  1.
         25    2    1    2    0    0 -0.17104692181E+02 -0.16390473237E+02  0.51590365972E+03  0.53135917952E+03  0.12499909376E+03 0.  0.
    9000005    1    3    3    0    0  0.16997775360E+02 -0.48002423635E+02  0.43552877322E+03  0.43849682934E+03  0.10000000000E+01 0.  0.
    9000005    1    3    3    0    0 -0.34102467541E+02  0.31611950398E+02  0.80374886499E+02  0.92862350175E+02  0.10000000000E+01 0.  0.
          4    1    1    2  501    0  0.17104692181E+02  0.16390473237E+02  0.37007612431E+03  0.37083577065E+03  0.12700000000E+01 0. -1.
<mgrwt>
<rscale>  1 0.12722418E+03</rscale>
<asrwt>0</asrwt>
<pdfrwt beam="1">  1       21 0.13754417E+00 0.12722418E+03</pdfrwt>
<pdfrwt beam="2">  1        4 0.12473906E-02 0.12722418E+03</pdfrwt>
<totfact> 0.32331924E+04</totfact>
</mgrwt>
</event>
<event>
 6    4  0.6326233E-003  0.1290199E+03  0.7818608E-02  0.1228917E+00
         21   -1    0    0  501  502  0.00000000000E+00  0.00000000000E+00  0.53882325592E+02  0.53882325592E+02  0.00000000000E+00 0.  1.
         -4   -1    0    0    0  501 -0.00000000000E+00 -0.00000000000E+00 -0.13768215060E+03  0.13768800781E+03  0.12700000000E+01 0.  1.
         25    2    1    2    0    0 -0.23975761517E+02 -0.21141456044E+02 -0.92100587373E+02  0.15852016155E+03  0.12499730045E+03 0.  0.
    9000005    1    3    3    0    0  0.10852378036E+02 -0.67814041867E+02 -0.35547854950E+02  0.77338013777E+02  0.10000000000E+01 0.  0.
    9000005    1    3    3    0    0 -0.34828139553E+02  0.46672585824E+02 -0.56552732423E+02  0.81182147771E+02  0.10000000000E+01 0.  0.
         -4    1    1    2    0  502  0.23975761517E+02  0.21141456044E+02  0.83007623594E+01  0.33050171856E+02  0.12700000000E+01 0. -1.
<mgrwt>
<rscale>  1 0.12901986E+03</rscale>
<asrwt>0</asrwt>
<pdfrwt beam="1">  1       21 0.82895886E-02 0.12901986E+03</pdfrwt>
<pdfrwt beam="2">  1       -4 0.21183471E-01 0.12901986E+03</pdfrwt>
<totfact> 0.91669836E+04</totfact>
</mgrwt>
</event>
<event>
 6    4  0.6326233E-003  0.1342853E+03  0.7818608E-02  0.1221232E+00
         -4   -1    0    0    0  501 -0.00000000000E+00  0.00000000000E+00  0.22098731034E+02  0.22135193997E+02  0.12700000000E+01 0.  1.
         21   -1    0    0  501  502  0.00000000000E+00 -0.00000000000E+00 -0.43178158981E+03  0.43178158981E+03  0.00000000000E+00 0.  1.
         25    2    1    2    0    0 -0.20833663476E+02  0.44423392545E+02 -0.21791912341E+03  0.25597128009E+03  0.12500029018E+03 0.  0.
    9000005    1    3    3    0    0 -0.38553347274E+01  0.73234573919E+02 -0.20878165315E+03  0.22128927926E+03  0.10000000000E+01 0.  0.
    9000005    1    3    3    0    0 -0.16978328749E+02 -0.28811181374E+02 -0.91374702635E+01  0.34682000838E+02  0.10000000000E+01 0.  0.
         -4    1    1    2    0  502  0.20833663476E+02 -0.44423392545E+02 -0.19176373536E+03  0.19794550371E+03  0.12700000000E+01 0. -1.
<mgrwt>
<rscale>  1 0.13428534E+03</rscale>
<asrwt>0</asrwt>
<pdfrwt beam="2">  1       21 0.66427938E-01 0.13428534E+03</pdfrwt>
<pdfrwt beam="1">  1       -4 0.34027532E-02 0.13428534E+03</pdfrwt>
<totfact> 0.37563923E+04</totfact>
</mgrwt>
</event>
<event>
 6    4  0.6326233E-003  0.1285140E+03  0.7818608E-02  0.1229677E+00
          4   -1    0    0  502    0 -0.00000000000E+00  0.00000000000E+00  0.27747841169E+02  0.27776889486E+02  0.12700000000E+01 0.  1.
         21   -1    0    0  501  502  0.00000000000E+00 -0.00000000000E+00 -0.22589277631E+03  0.22589277631E+03  0.00000000000E+00 0.  1.
         25    2    1    2    0    0 -0.28091429894E+01  0.29709607351E+02 -0.15996540198E+03  0.20519449993E+03  0.12500120367E+03 0.  0.
    9000005    1    3    3    0    0  0.28317984319E+02  0.45736065279E+02 -0.16140900890E+03  0.17013983677E+03  0.10000000000E+01 0.  0.
    9000005    1    3    3    0    0 -0.31127127308E+02 -0.16026457928E+02  0.14436069194E+01  0.35054663158E+02  0.10000000000E+01 0.  0.
          4    1    1    2  501    0  0.28091429894E+01 -0.29709607351E+02 -0.38179533159E+02  0.48475165864E+02  0.12700000000E+01 0. -1.
<mgrwt>
<rscale>  1 0.12851402E+03</rscale>
<asrwt>0</asrwt>
<pdfrwt beam="2">  1       21 0.34752735E-01 0.12851402E+03</pdfrwt>
<pdfrwt beam="1">  1        4 0.42714077E-02 0.12851402E+03</pdfrwt>
<totfact> 0.98769971E+04</totfact>
</mgrwt>
</event>
<event>
 6    4  0.6326233E-003  0.1271997E+03  0.7818608E-02  0.1231671E+00
          4   -1    0    0  502    0 -0.00000000000E+00  0.00000000000E+00  0.21575407851E+04  0.21575411589E+04  0.12700000000E+01 0. -1.
         21   -1    0    0  501  502  0.00000000000E+00 -0.00000000000E+00 -0.17618718138E+02  0.17618718138E+02  0.00000000000E+00 0.  1.
         25    2    1    2    0    0  0.23529293849E+02 -0.12806365227E+01  0.21468114434E+04  0.21505764658E+04  0.12499797522E+03 0.  0.
    9000005    1    3    3    0    0  0.32554910951E+02 -0.56004536820E+01  0.14415322695E+03  0.14789300236E+03  0.10000000000E+01 0.  0.
    9000005    1    3    3    0    0 -0.90256171019E+01  0.43198171593E+01  0.20026582165E+04  0.20026834634E+04  0.10000000000E+01 0.  0.
          4    1    1    2  501    0 -0.23529293849E+02  0.12806365227E+01 -0.68893764893E+01  0.24583411223E+02  0.12700000000E+01 0.  1.
<mgrwt>
<rscale>  1 0.12719969E+03</rscale>
<asrwt>0</asrwt>
<pdfrwt beam="2">  1       21 0.27105737E-02 0.12719969E+03</pdfrwt>
<pdfrwt beam="1">  1        4 0.33193269E+00 0.12719969E+03</pdfrwt>
<totfact> 0.76043700E+02</totfact>
</mgrwt>
</event>
<event>
 6    4  0.6326233E-003  0.1293004E+03  0.7818608E-02  0.1228498E+00
          4   -1    0    0  502    0 -0.00000000000E+00  0.00000000000E+00  0.46620499914E+02  0.46637794890E+02  0.12700000000E+01 0.  1.
         21   -1    0    0  501  502  0.00000000000E+00 -0.00000000000E+00 -0.15552787641E+03  0.15552787641E+03  0.00000000000E+00 0.  1.
         25    2    1    2    0    0  0.33821762888E+01  0.32899419894E+02 -0.10892916577E+03  0.16906847625E+03  0.12499910224E+03 0.  0.
    9000005    1    3    3    0    0  0.69336571659E+01  0.15542789233E+02 -0.13580079898E+03  0.13686676332E+03  0.10000000000E+01 0.  0.
    9000005    1    3    3    0    0 -0.35514808772E+01  0.17356630661E+02  0.26871633209E+02  0.32201712931E+02  0.10000000000E+01 0.  0.
          4    1    1    2  501    0 -0.33821762888E+01 -0.32899419894E+02  0.21789264965E-01  0.33097195056E+02  0.12700000000E+01 0. -1.
<mgrwt>
<rscale>  1 0.12930037E+03</rscale>
<asrwt>0</asrwt>
<pdfrwt beam="2">  1       21 0.23927366E-01 0.12930037E+03</pdfrwt>
<pdfrwt beam="1">  1        4 0.71741138E-02 0.12930037E+03</pdfrwt>
<totfact> 0.87567294E+04</totfact>
</mgrwt>
</event>
<event>
 6    4  0.6326233E-003  0.1521379E+03  0.7818608E-02  0.1197870E+00
          4   -1    0    0  502    0 -0.00000000000E+00  0.00000000000E+00  0.34251314465E+02  0.34274851460E+02  0.12700000000E+01 0. -1.
         21   -1    0    0  501  502  0.00000000000E+00 -0.00000000000E+00 -0.49370500789E+03  0.49370500789E+03  0.00000000000E+00 0.  1.
         25    2    1    2    0    0 -0.72368779895E+02  0.47785262023E+02 -0.18160935238E+03  0.23691326505E+03  0.12500106684E+03 0.  0.
    9000005    1    3    3    0    0 -0.95211520995E+01 -0.39340719538E+02 -0.76825882378E+02  0.86842160004E+02  0.10000000000E+01 0.  0.
    9000005    1    3    3    0    0 -0.62847627795E+02  0.87125981561E+02 -0.10478347001E+03  0.15007110504E+03  0.10000000000E+01 0.  0.
          4    1    1    2  501    0  0.72368779895E+02 -0.47785262023E+02 -0.27784434104E+03  0.29106659430E+03  0.12700000000E+01 0.  1.
<mgrwt>
<rscale>  1 0.15213789E+03</rscale>
<asrwt>0</asrwt>
<pdfrwt beam="2">  1       21 0.75954618E-01 0.15213789E+03</pdfrwt>
<pdfrwt beam="1">  1        4 0.52713691E-02 0.15213789E+03</pdfrwt>
<totfact> 0.14072860E+04</totfact>
</mgrwt>
</event>
<event>
 6    4  0.6326233E-003  0.1283495E+03  0.7818608E-02  0.1229926E+00
         21   -1    0    0  501  502  0.00000000000E+00  0.00000000000E+00  0.20342701516E+02  0.20342701516E+02  0.00000000000E+00 0.  1.
          4   -1    0    0  502    0 -0.00000000000E+00 -0.00000000000E+00 -0.54275018112E+03  0.54275166697E+03  0.12700000000E+01 0. -1.
         25    2    1    2    0    0  0.76625163353E+01 -0.28105729907E+02 -0.51792639706E+03  0.53359285648E+03  0.12499975003E+03 0.  0.
    9000005    1    3    3    0    0  0.11244069561E+02  0.19828363860E+02 -0.12756794185E+02  0.26140560658E+02  0.10000000000E+01 0.  0.
    9000005    1    3    3    0    0 -0.35815532257E+01 -0.47934093766E+02 -0.50516960287E+03  0.50745229582E+03  0.10000000000E+01 0.  0.
          4    1    1    2  501    0 -0.76625163353E+01  0.28105729907E+02 -0.44810825453E+01  0.29501512011E+02  0.12700000000E+01 0.  1.
<mgrwt>
<rscale>  1 0.12834946E+03</rscale>
<asrwt>0</asrwt>
<pdfrwt beam="1">  1       21 0.31296470E-02 0.12834946E+03</pdfrwt>
<pdfrwt beam="2">  1        4 0.83503176E-01 0.12834946E+03</pdfrwt>
<totfact> 0.30660700E+04</totfact>
</mgrwt>
</event>
<event>
 6    4  0.6326233E-003  0.1293013E+03  0.7818608E-02  0.1228496E+00
         21   -1    0    0  501  502  0.00000000000E+00  0.00000000000E+00  0.36101863422E+02  0.36101863422E+02  0.00000000000E+00 0. -1.
          4   -1    0    0  502    0 -0.00000000000E+00 -0.00000000000E+00 -0.18830809496E+03  0.18831237752E+03  0.12700000000E+01 0.  1.
         25    2    1    2    0    0 -0.30579218279E+02  0.12564820515E+02 -0.13570722238E+03  0.18744407042E+03  0.12500346406E+03 0.  0.
    9000005    1    3    3    0    0 -0.76656435629E+02  0.98945056846E+01 -0.56431377522E+02  0.95705855281E+02  0.10000000000E+01 0.  0.
    9000005    1    3    3    0    0  0.46077217350E+02  0.26703148299E+01 -0.79275844854E+02  0.91738215141E+02  0.10000000000E+01 0.  0.
          4    1    1    2  501    0  0.30579218279E+02 -0.12564820515E+02 -0.16499009164E+02  0.36970170523E+02  0.12700000000E+01 0. -1.
<mgrwt>
<rscale>  1 0.12930131E+03</rscale>
<asrwt>0</asrwt>
<pdfrwt beam="1">  1       21 0.55541327E-02 0.12930131E+03</pdfrwt>
<pdfrwt beam="2">  1        4 0.28972524E-01 0.12930131E+03</pdfrwt>
<totfact> 0.10204210E+05</totfact>
</mgrwt>
</event>
<event>
 6    4  0.6326233E-003  0.1369375E+03  0.7818608E-02  0.1217510E+00
          4   -1    0    0  502    0 -0.00000000000E+00  0.00000000000E+00  0.16112820494E+02  0.16162793207E+02  0.12700000000E+01 0. -1.
         21   -1    0    0  501  502  0.00000000000E+00 -0.00000000000E+00 -0.81326382343E+03  0.81326382343E+03  0.00000000000E+00 0.  1.
         25    2    1    2    0    0 -0.40411114362E+02 -0.38479792082E+02 -0.30760043745E+03  0.33670446204E+03  0.12505244130E+03 0.  0.
    9000005    1    3    3    0    0 -0.73313066235E+02 -0.11477203922E+02 -0.98579357612E+02  0.12339133534E+03  0.10000000000E+01 0.  0.
    9000005    1    3    3    0    0  0.32901951873E+02 -0.27002588160E+02 -0.20902107983E+03  0.21331312669E+03  0.10000000000E+01 0.  0.
          4    1    1    2  501    0  0.40411114362E+02  0.38479792082E+02 -0.48955056549E+03  0.49272215460E+03  0.12700000000E+01 0.  1.
<mgrwt>
<rscale>  1 0.13693745E+03</rscale>
<asrwt>0</asrwt>
<pdfrwt beam="2">  1       21 0.12511753E+00 0.13693745E+03</pdfrwt>
<pdfrwt beam="1">  1        4 0.24828154E-02 0.13693745E+03</pdfrwt>
<totfact> 0.14327422E+04</totfact>
</mgrwt>
</event>
<event>
 6    4  0.6326233E-003  0.1299150E+03  0.7818608E-02  0.1227582E+00
         21   -1    0    0  501  502  0.00000000000E+00  0.00000000000E+00  0.73954576103E+02  0.73954576103E+02  0.00000000000E+00 0. -1.
         -4   -1    0    0    0  501 -0.00000000000E+00 -0.00000000000E+00 -0.67683549787E+03  0.67683668937E+03  0.12700000000E+01 0.  1.
         25    2    1    2    0    0  0.32773916251E+02 -0.13372825132E+02 -0.66592464980E+03  0.67847884203E+03  0.12499975133E+03 0.  0.
    9000005    1    3    3    0    0  0.12577426939E+02 -0.69287476784E+02 -0.35388677091E+03  0.36082654106E+03  0.10000000000E+01 0.  0.
    9000005    1    3    3    0    0  0.20196489312E+02  0.55914651652E+02 -0.31203787890E+03  0.31765230098E+03  0.10000000000E+01 0.  0.
         -4    1    1    2    0  502 -0.32773916251E+02  0.13372825132E+02  0.63043728039E+02  0.72312423438E+02  0.12700000000E+01 0. -1.
<mgrwt>
<rscale>  1 0.12991497E+03</rscale>
<asrwt>0</asrwt>
<pdfrwt beam="1">  1       21 0.11377627E-01 0.12991497E+03</pdfrwt>
<pdfrwt beam="2">  1       -4 0.10412947E+00 0.12991497E+03</pdfrwt>
<totfact> 0.20748601E+03</totfact>
</mgrwt>
</event>
<event>
 6    4  0.6326233E-003  0.1282594E+03  0.7818608E-02  0.1230062E+00
         21   -1    0    0  501  502  0.00000000000E+00  0.00000000000E+00  0.28602159602E+03  0.28602159602E+03  0.00000000000E+00 0. -1.
          4   -1    0    0  502    0 -0.00000000000E+00 -0.00000000000E+00 -0.25159193180E+02  0.25191226677E+02  0.12700000000E+01 0.  1.
         25    2    1    2    0    0 -0.17305033252E+02  0.22927708264E+02  0.15332396214E+03  0.19989672723E+03  0.12500128083E+03 0.  0.
    9000005    1    3    3    0    0  0.92705413496E+00 -0.55734495280E+01  0.16423334727E+03  0.16433354838E+03  0.10000000000E+01 0.  0.
    9000005    1    3    3    0    0 -0.18232087387E+02  0.28501157792E+02 -0.10909385127E+02  0.35563178848E+02  0.10000000000E+01 0.  0.
          4    1    1    2  501    0  0.17305033252E+02 -0.22927708264E+02  0.10753844070E+03  0.11131609547E+03  0.12700000000E+01 0. -1.
<mgrwt>
<rscale>  1 0.12825936E+03</rscale>
<asrwt>0</asrwt>
<pdfrwt beam="1">  1       21 0.44003320E-01 0.12825936E+03</pdfrwt>
<pdfrwt beam="2">  1        4 0.38733263E-02 0.12825936E+03</pdfrwt>
<totfact> 0.72061387E+04</totfact>
</mgrwt>
</event>
<event>
 6    4  0.6326233E-003  0.1350080E+03  0.7818608E-02  0.1220208E+00
         21   -1    0    0  501  502  0.00000000000E+00  0.00000000000E+00  0.41845175420E+03  0.41845175420E+03  0.00000000000E+00 0. -1.
          4   -1    0    0  502    0 -0.00000000000E+00 -0.00000000000E+00 -0.23356941161E+02  0.23391442888E+02  0.12700000000E+01 0.  1.
         25    2    1    2    0    0  0.10166162117E+02 -0.49995462269E+02  0.20848784440E+03  0.24838345775E+03  0.12499705485E+03 0.  0.
    9000005    1    3    3    0    0 -0.17774732019E+02 -0.63833462563E+02  0.20678135501E+03  0.21714092387E+03  0.10000000000E+01 0.  0.
    9000005    1    3    3    0    0  0.27940894136E+02  0.13838000294E+02  0.17064893938E+01  0.31242533881E+02  0.10000000000E+01 0.  0.
          4    1    1    2  501    0 -0.10166162117E+02  0.49995462269E+02  0.18660696863E+03  0.19345973933E+03  0.12700000000E+01 0. -1.
<mgrwt>
<rscale>  1 0.13500800E+03</rscale>
<asrwt>0</asrwt>
<pdfrwt beam="1">  1       21 0.64377187E-01 0.13500800E+03</pdfrwt>
<pdfrwt beam="2">  1        4 0.35961781E-02 0.13500800E+03</pdfrwt>
<totfact> 0.36855094E+04</totfact>
</mgrwt>
</event>
<event>
 6    4  0.6326233E-003  0.1297818E+03  0.7818608E-02  0.1227780E+00
         21   -1    0    0  501  502  0.00000000000E+00  0.00000000000E+00  0.82549783284E+01  0.82549783284E+01  0.00000000000E+00 0. -1.
         -4   -1    0    0    0  501 -0.00000000000E+00 -0.00000000000E+00 -0.87932778177E+03  0.87932869889E+03  0.12700000000E+01 0. -1.
         25    2    1    2    0    0 -0.86476303587E+01 -0.33816235912E+02 -0.76437913523E+03  0.77531849536E+03  0.12499995018E+03 0.  0.
    9000005    1    3    3    0    0 -0.61228934156E+02 -0.44875565100E+02 -0.43095101806E+03  0.43758722410E+03  0.10000000000E+01 0.  0.
    9000005    1    3    3    0    0  0.52581303797E+02  0.11059329188E+02 -0.33342811716E+03  0.33773127126E+03  0.10000000000E+01 0.  0.
         -4    1    1    2    0  502  0.86476303587E+01  0.33816235912E+02 -0.10669366821E+03  0.11226518186E+03  0.12700000000E+01 0.  1.
<mgrwt>
<rscale>  1 0.12978177E+03</rscale>
<asrwt>0</asrwt>
<pdfrwt beam="1">  1       21 0.12699974E-02 0.12978177E+03</pdfrwt>
<pdfrwt beam="2">  1       -4 0.13528871E+00 0.12978177E+03</pdfrwt>
<totfact> 0.42560688E+04</totfact>
</mgrwt>
</event>
<event>
 6    4  0.6326233E-003  0.1312601E+03  0.7818608E-02  0.1225598E+00
          4   -1    0    0  502    0 -0.00000000000E+00  0.00000000000E+00  0.23323972762E+02  0.23358523185E+02  0.12700000000E+01 0.  1.
         21   -1    0    0  501  502  0.00000000000E+00 -0.00000000000E+00 -0.33784965628E+03  0.33784965628E+03  0.00000000000E+00 0.  1.
         25    2    1    2    0    0  0.39441214819E+02 -0.70436881681E+01 -0.19434855650E+03  0.23452204081E+03  0.12499601290E+03 0.  0.
    9000005    1    3    3    0    0 -0.24977465914E+02 -0.14409530509E+02  0.81772146442E+00  0.28864806276E+02  0.10000000000E+01 0.  0.
    9000005    1    3    3    0    0  0.64418680733E+02  0.73658423404E+01 -0.19516627796E+03  0.20565723453E+03  0.10000000000E+01 0.  0.
          4    1    1    2  501    0 -0.39441214819E+02  0.70436881681E+01 -0.12017712702E+03  0.12668613866E+03  0.12700000000E+01 0. -1.
<mgrwt>
<rscale>  1 0.13126015E+03</rscale>
<asrwt>0</asrwt>
<pdfrwt beam="2">  1       21 0.51976870E-01 0.13126015E+03</pdfrwt>
<pdfrwt beam="1">  1        4 0.35911448E-02 0.13126015E+03</pdfrwt>
<totfact> 0.57881266E+04</totfact>
</mgrwt>
</event>
<event>
 6    4  0.6326233E-003  0.1305470E+03  0.7818608E-02  0.1226646E+00
         21   -1    0    0  501  502  0.00000000000E+00  0.00000000000E+00  0.30034404009E+02  0.30034404009E+02  0.00000000000E+00 0. -1.
         -4   -1    0    0    0  501 -0.00000000000E+00 -0.00000000000E+00 -0.24180742145E+03  0.24181075652E+03  0.12700000000E+01 0. -1.
         25    2    1    2    0    0  0.36289256806E+02 -0.10068419644E+02 -0.18115382811E+03  0.22329177868E+03  0.12499690298E+03 0.  0.
    9000005    1    3    3    0    0  0.52131032346E+02 -0.59214396393E+02 -0.10880181195E+03  0.13439800429E+03  0.10000000000E+01 0.  0.
    9000005    1    3    3    0    0 -0.15841775540E+02  0.49145976750E+02 -0.72352016156E+02  0.88893774387E+02  0.10000000000E+01 0.  0.
         -4    1    1    2    0  502 -0.36289256806E+02  0.10068419644E+02 -0.30619189335E+02  0.48553381852E+02  0.12700000000E+01 0.  1.
<mgrwt>
<rscale>  1 0.13054696E+03</rscale>
<asrwt>0</asrwt>
<pdfrwt beam="1">  1       21 0.46206775E-02 0.13054696E+03</pdfrwt>
<pdfrwt beam="2">  1       -4 0.37203464E-01 0.13054696E+03</pdfrwt>
<totfact> 0.86323148E+04</totfact>
</mgrwt>
</event>
<event>
 6    4  0.6326233E-003  0.1320295E+03  0.7818608E-02  0.1224475E+00
         -4   -1    0    0    0  501 -0.00000000000E+00  0.00000000000E+00  0.27517140699E+03  0.27517433769E+03  0.12700000000E+01 0. -1.
         21   -1    0    0  501  502  0.00000000000E+00 -0.00000000000E+00 -0.29139617032E+02  0.29139617032E+02  0.00000000000E+00 0. -1.
         25    2    1    2    0    0 -0.33374983873E+02  0.26239887103E+02  0.21260033904E+03  0.25026123940E+03  0.12501744903E+03 0.  0.
    9000005    1    3    3    0    0  0.21200108151E+02 -0.40359003404E+02  0.82058958840E+02  0.93877401259E+02  0.10000000000E+01 0.  0.
    9000005    1    3    3    0    0 -0.54575092024E+02  0.66598890507E+02  0.13054138020E+03  0.15638383814E+03  0.10000000000E+01 0.  0.
         -4    1    1    2    0  502  0.33374983873E+02 -0.26239887103E+02  0.33431450914E+02  0.54052715324E+02  0.12700000000E+01 0.  1.
<mgrwt>
<rscale>  1 0.13202948E+03</rscale>
<asrwt>0</asrwt>
<pdfrwt beam="2">  1       21 0.44830182E-02 0.13202948E+03</pdfrwt>
<pdfrwt beam="1">  1       -4 0.42336415E-01 0.13202948E+03</pdfrwt>
<totfact> 0.70558042E+04</totfact>
</mgrwt>
</event>
<event>
 6    4  0.6326233E-003  0.1361858E+03  0.7818608E-02  0.1218555E+00
         21   -1    0    0  501  502  0.00000000000E+00  0.00000000000E+00  0.10675427297E+04  0.10675427297E+04  0.00000000000E+00 0. -1.
         -4   -1    0    0    0  501 -0.00000000000E+00 -0.00000000000E+00 -0.19309180543E+02  0.19350900580E+02  0.12700000000E+01 0.  1.
         25    2    1    2    0    0  0.43785896032E+02  0.31693596071E+02  0.23308571233E+03  0.26995465000E+03  0.12499950015E+03 0.  0.
    9000005    1    3    3    0    0  0.22060307726E+02 -0.41115010019E+02  0.15122112498E+03  0.15825905935E+03  0.10000000000E+01 0.  0.
    9000005    1    3    3    0    0  0.21725588306E+02  0.72808606089E+02  0.81864587349E+02  0.11169559065E+03  0.10000000000E+01 0.  0.
         -4    1    1    2    0  502 -0.43785896032E+02 -0.31693596071E+02  0.81514783683E+03  0.81693898029E+03  0.12700000000E+01 0. -1.
<mgrwt>
<rscale>  1 0.13618577E+03</rscale>
<asrwt>0</asrwt>
<pdfrwt beam="1">  1       21 0.16423730E+00 0.13618577E+03</pdfrwt>
<pdfrwt beam="2">  1       -4 0.29739113E-02 0.13618577E+03</pdfrwt>
<totfact> 0.53773041E+03</totfact>
</mgrwt>
</event>
<event>
 6    4  0.6326233E-003  0.1273286E+03  0.7818608E-02  0.1231474E+00
         21   -1    0    0  501  502  0.00000000000E+00  0.00000000000E+00  0.29505317770E+03  0.29505317770E+03  0.00000000000E+00 0.  1.
         -4   -1    0    0    0  501 -0.00000000000E+00 -0.00000000000E+00 -0.20093311395E+02  0.20133406637E+02  0.12700000000E+01 0.  1.
         25    2    1    2    0    0 -0.21902443767E+02 -0.10375450365E+02  0.20702703488E+03  0.24304887230E+03  0.12500077656E+03 0.  0.
    9000005    1    3    3    0    0  0.21189945172E+02  0.44217479263E+02  0.13161770952E+03  0.14045789657E+03  0.10000000000E+01 0.  0.
    9000005    1    3    3    0    0 -0.43092388939E+02 -0.54592929627E+02  0.75409325363E+02  0.10259097573E+03  0.10000000000E+01 0.  0.
         -4    1    1    2    0  502  0.21902443767E+02  0.10375450365E+02  0.67932831426E+02  0.72137712043E+02  0.12700000000E+01 0. -1.
<mgrwt>
<rscale>  1 0.12732856E+03</rscale>
<asrwt>0</asrwt>
<pdfrwt beam="1">  1       21 0.45392793E-01 0.12732856E+03</pdfrwt>
<pdfrwt beam="2">  1       -4 0.30945734E-02 0.12732856E+03</pdfrwt>
<totfact> 0.96261593E+04</totfact>
</mgrwt>
</event>
<event>
 6    4  0.6326233E-003  0.1645997E+03  0.7818608E-02  0.1183599E+00
          4   -1    0    0  502    0 -0.00000000000E+00  0.00000000000E+00  0.10763412074E+02  0.10838078218E+02  0.12700000000E+01 0.  1.
         21   -1    0    0  501  502  0.00000000000E+00 -0.00000000000E+00 -0.19065206245E+04  0.19065206245E+04  0.00000000000E+00 0. -1.
         25    2    1    2    0    0 -0.10005320706E+03  0.38109144245E+02 -0.82489491588E+03  0.84115675969E+03  0.12502048235E+03 0.  0.
    9000005    1    3    3    0    0 -0.11394577522E+03  0.20599369272E+02 -0.42077316715E+03  0.43641612241E+03  0.10000000000E+01 0.  0.
    9000005    1    3    3    0    0  0.13892568158E+02  0.17509774974E+02 -0.40412174873E+03  0.40474063728E+03  0.10000000000E+01 0.  0.
          4    1    1    2  501    0  0.10005320706E+03 -0.38109144245E+02 -0.10708622966E+04  0.10762019430E+04  0.12700000000E+01 0. -1.
<mgrwt>
<rscale>  1 0.16459973E+03</rscale>
<asrwt>0</asrwt>
<pdfrwt beam="2">  1       21 0.29331081E+00 0.16459973E+03</pdfrwt>
<pdfrwt beam="1">  1        4 0.16616859E-02 0.16459973E+03</pdfrwt>
<totfact> 0.21540250E+03</totfact>
</mgrwt>
</event>
<event>
 6    4  0.6326233E-003  0.1346780E+03  0.7818608E-02  0.1220675E+00
          4   -1    0    0  502    0 -0.00000000000E+00  0.00000000000E+00  0.65136103376E+02  0.65148483198E+02  0.12700000000E+01 0.  1.
         21   -1    0    0  501  502  0.00000000000E+00 -0.00000000000E+00 -0.17397861088E+03  0.17397861088E+03  0.00000000000E+00 0.  1.
         25    2    1    2    0    0  0.25036990561E+02 -0.43420388946E+02 -0.18687385661E+02  0.13596828463E+03  0.12500389982E+03 0.  0.
    9000005    1    3    3    0    0 -0.47466145215E+02  0.29931247456E+01  0.12896728555E+01  0.47588412386E+02  0.10000000000E+01 0.  0.
    9000005    1    3    3    0    0  0.72503135776E+02 -0.46413513691E+02 -0.19977058516E+02  0.88379872242E+02  0.10000000000E+01 0.  0.
          4    1    1    2  501    0 -0.25036990561E+02  0.43420388946E+02 -0.90155121847E+02  0.10315880945E+03  0.12700000000E+01 0. -1.
<mgrwt>
<rscale>  1 0.13467797E+03</rscale>
<asrwt>0</asrwt>
<pdfrwt beam="2">  1       21 0.26765940E-01 0.13467797E+03</pdfrwt>
<pdfrwt beam="1">  1        4 0.10022248E-01 0.13467797E+03</pdfrwt>
<totfact> 0.40815170E+04</totfact>
</mgrwt>
</event>
<event>
 6    4  0.6326233E-003  0.1280109E+03  0.7818608E-02  0.1230437E+00
         21   -1    0    0  501  502  0.00000000000E+00  0.00000000000E+00  0.47194379329E+03  0.47194379329E+03  0.00000000000E+00 0.  1.
         -4   -1    0    0    0  501 -0.00000000000E+00 -0.00000000000E+00 -0.15230696699E+02  0.15283553970E+02  0.12700000000E+01 0.  1.
         25    2    1    2    0    0  0.27558885440E+02 -0.16508853279E+01  0.27390748679E+03  0.30234435328E+03  0.12499831619E+03 0.  0.
    9000005    1    3    3    0    0  0.71476344627E+02 -0.21588693736E+02  0.20542812297E+03  0.21857871179E+03  0.10000000000E+01 0.  0.
    9000005    1    3    3    0    0 -0.43917459188E+02  0.19937808408E+02  0.68479363819E+02  0.83765641492E+02  0.10000000000E+01 0.  0.
         -4    1    1    2    0  502 -0.27558885440E+02  0.16508853279E+01  0.18280560980E+03  0.18488299398E+03  0.12700000000E+01 0. -1.
<mgrwt>
<rscale>  1 0.12801092E+03</rscale>
<asrwt>0</asrwt>
<pdfrwt beam="1">  1       21 0.72606726E-01 0.12801092E+03</pdfrwt>
<pdfrwt beam="2">  1       -4 0.23473819E-02 0.12801092E+03</pdfrwt>
<totfact> 0.54988874E+04</totfact>
</mgrwt>
</event>
<event>
 6    4  0.6326233E-003  0.1287561E+03  0.7818608E-02  0.1229313E+00
          4   -1    0    0  502    0 -0.00000000000E+00  0.00000000000E+00  0.17503343573E+04  0.17503348180E+04  0.12700000000E+01 0.  1.
         21   -1    0    0  501  502  0.00000000000E+00 -0.00000000000E+00 -0.38174293851E+01  0.38174293851E+01  0.00000000000E+00 0. -1.
         25    2    1    2    0    0  0.30081531684E+02  0.69436231827E+01  0.15349718048E+04  0.15403624805E+04  0.12500006873E+03 0.  0.
    9000005    1    3    3    0    0  0.62854329060E+02  0.81624572508E+01  0.40641978637E+03  0.41133360566E+03  0.10000000000E+01 0.  0.
    9000005    1    3    3    0    0 -0.32772797376E+02 -0.12188340681E+01  0.11285520184E+04  0.11290288748E+04  0.10000000000E+01 0.  0.
          4    1    1    2  501    0 -0.30081531684E+02 -0.69436231827E+01  0.21154512308E+03  0.21378976695E+03  0.12700000000E+01 0. -1.
<mgrwt>
<rscale>  1 0.12875609E+03</rscale>
<asrwt>0</asrwt>
<pdfrwt beam="2">  1       21 0.58729823E-03 0.12875609E+03</pdfrwt>
<pdfrwt beam="1">  1        4 0.26929785E+00 0.12875609E+03</pdfrwt>
<totfact> 0.19921118E+04</totfact>
</mgrwt>
</event>
<event>
 6    4  0.6326233E-003  0.1266774E+03  0.7818608E-02  0.1232471E+00
          4   -1    0    0  502    0 -0.00000000000E+00  0.00000000000E+00  0.15997858662E+03  0.15998362753E+03  0.12700000000E+01 0.  1.
         21   -1    0    0  501  502  0.00000000000E+00 -0.00000000000E+00 -0.34108456490E+02  0.34108456490E+02  0.00000000000E+00 0.  1.
         25    2    1    2    0    0 -0.20509940513E+02  0.90863020762E+00  0.10244283008E+03  0.16291621905E+03  0.12500271088E+03 0.  0.
    9000005    1    3    3    0    0  0.34576455886E+02  0.24277412817E+02 -0.22555636632E+01  0.42320345487E+02  0.10000000000E+01 0.  0.
    9000005    1    3    3    0    0 -0.55086396399E+02 -0.23368782609E+02  0.10469839374E+03  0.12059587356E+03  0.10000000000E+01 0.  0.
          4    1    1    2  501    0  0.20509940513E+02 -0.90863020762E+00  0.23427300057E+02  0.31175864971E+02  0.12700000000E+01 0. -1.
<mgrwt>
<rscale>  1 0.12667739E+03</rscale>
<asrwt>0</asrwt>
<pdfrwt beam="2">  1       21 0.52474550E-02 0.12667739E+03</pdfrwt>
<pdfrwt beam="1">  1        4 0.24614296E-01 0.12667739E+03</pdfrwt>
<totfact> 0.15158069E+05</totfact>
</mgrwt>
</event>
<event>
 6    4  0.6326233E-003  0.1335969E+03  0.7818608E-02  0.1222214E+00
          4   -1    0    0  502    0 -0.00000000000E+00  0.00000000000E+00  0.69037038559E+02  0.69048718982E+02  0.12700000000E+01 0. -1.
         21   -1    0    0  501  502  0.00000000000E+00 -0.00000000000E+00 -0.17007550369E+03  0.17007550369E+03  0.00000000000E+00 0. -1.
         25    2    1    2    0    0  0.38776748777E+02 -0.26816228901E+02 -0.68321073988E+01  0.13377149553E+03  0.12500155578E+03 0.  0.
    9000005    1    3    3    0    0  0.62081640557E+02 -0.26917622140E+02 -0.50381589746E+02  0.84368199348E+02  0.10000000000E+01 0.  0.
    9000005    1    3    3    0    0 -0.23304891780E+02  0.10139323846E+00  0.43549482347E+02  0.49403296187E+02  0.10000000000E+01 0.  0.
          4    1    1    2  501    0 -0.38776748777E+02  0.26816228901E+02 -0.94206357732E+02  0.10535272714E+03  0.12700000000E+01 0.  1.
<mgrwt>
<rscale>  1 0.13359691E+03</rscale>
<asrwt>0</asrwt>
<pdfrwt beam="2">  1       21 0.26165462E-01 0.13359691E+03</pdfrwt>
<pdfrwt beam="1">  1        4 0.10622346E-01 0.13359691E+03</pdfrwt>
<totfact> 0.38596771E+04</totfact>
</mgrwt>
</event>
<event>
 6    4  0.6326233E-003  0.1268412E+03  0.7818608E-02  0.1232220E+00
          4   -1    0    0  502    0 -0.00000000000E+00  0.00000000000E+00  0.14938390848E+02  0.14992278717E+02  0.12700000000E+01 0. -1.
         21   -1    0    0  501  502  0.00000000000E+00 -0.00000000000E+00 -0.79144230293E+03  0.79144230293E+03  0.00000000000E+00 0.  1.
         25    2    1    2    0    0  0.10013881120E+02  0.19057213872E+02 -0.25811233767E+03  0.28759463278E+03  0.12500095493E+03 0.  0.
    9000005    1    3    3    0    0 -0.21379144053E+02 -0.38782345262E+02 -0.39707346129E+02  0.59487910041E+02  0.10000000000E+01 0.  0.
    9000005    1    3    3    0    0  0.31393025173E+02  0.57839559134E+02 -0.21840499154E+03  0.22810672274E+03  0.10000000000E+01 0.  0.
          4    1    1    2  501    0 -0.10013881120E+02 -0.19057213872E+02 -0.51839157442E+03  0.51883994887E+03  0.12700000000E+01 0.  1.
<mgrwt>
<rscale>  1 0.12684122E+03</rscale>
<asrwt>0</asrwt>
<pdfrwt beam="2">  1       21 0.12176035E+00 0.12684122E+03</pdfrwt>
<pdfrwt beam="1">  1        4 0.23024377E-02 0.12684122E+03</pdfrwt>
<totfact> 0.17135717E+04</totfact>
</mgrwt>
</event>
<event>
 6    4  0.6326233E-003  0.1285641E+03  0.7818608E-02  0.1229602E+00
         21   -1    0    0  501  502  0.00000000000E+00  0.00000000000E+00  0.69418590303E+02  0.69418590303E+02  0.00000000000E+00 0.  1.
         -4   -1    0    0    0  501 -0.00000000000E+00 -0.00000000000E+00 -0.29651772247E+03  0.29652044220E+03  0.12700000000E+01 0. -1.
         25    2    1    2    0    0 -0.95904978532E+01  0.28491469231E+02 -0.27829463906E+03  0.30655608635E+03  0.12499994594E+03 0.  0.
    9000005    1    3    3    0    0  0.84082144821E+01  0.73828306117E+02 -0.20892309728E+03  0.22174574953E+03  0.10000000000E+01 0.  0.
    9000005    1    3    3    0    0 -0.17998712335E+02 -0.45336836886E+02 -0.69371541772E+02  0.84810336826E+02  0.10000000000E+01 0.  0.
         -4    1    1    2    0  502  0.95904978532E+01 -0.28491469231E+02  0.51195506885E+02  0.59382946148E+02  0.12700000000E+01 0.  1.
<mgrwt>
<rscale>  1 0.12856410E+03</rscale>
<asrwt>0</asrwt>
<pdfrwt beam="1">  1       21 0.10679783E-01 0.12856410E+03</pdfrwt>
<pdfrwt beam="2">  1       -4 0.45619214E-01 0.12856410E+03</pdfrwt>
<totfact> 0.13719302E+04</totfact>
</mgrwt>
</event>
<event>
 6    4  0.6326233E-003  0.1276359E+03  0.7818608E-02  0.1231006E+00
         21   -1    0    0  501  502  0.00000000000E+00  0.00000000000E+00  0.16775864716E+03  0.16775864716E+03  0.00000000000E+00 0. -1.
         -4   -1    0    0    0  501 -0.00000000000E+00 -0.00000000000E+00 -0.51608390687E+02  0.51624014657E+02  0.12700000000E+01 0.  1.
         25    2    1    2    0    0  0.19550556919E+02 -0.16712760628E+02  0.32289204464E+02  0.13165678429E+03  0.12501750070E+03 0.  0.
    9000005    1    3    3    0    0  0.31151544803E+02 -0.67918938929E+02  0.13858801254E+02  0.76003074813E+02  0.10000000000E+01 0.  0.
    9000005    1    3    3    0    0 -0.11600987884E+02  0.51206178301E+02  0.18430403210E+02  0.55653709477E+02  0.10000000000E+01 0.  0.
         -4    1    1    2    0  502 -0.19550556919E+02  0.16712760628E+02  0.83861052011E+02  0.87725877528E+02  0.12700000000E+01 0. -1.
<mgrwt>
<rscale>  1 0.12763587E+03</rscale>
<asrwt>0</asrwt>
<pdfrwt beam="1">  1       21 0.25809022E-01 0.12763587E+03</pdfrwt>
<pdfrwt beam="2">  1       -4 0.79413242E-02 0.12763587E+03</pdfrwt>
<totfact> 0.64093862E+04</totfact>
</mgrwt>
</event>
<event>
 6    4  0.6326233E-003  0.1359857E+03  0.7818608E-02  0.1218835E+00
         21   -1    0    0  501  502  0.00000000000E+00  0.00000000000E+00  0.63283386267E+02  0.63283386267E+02  0.00000000000E+00 0. -1.
          4   -1    0    0  502    0 -0.00000000000E+00 -0.00000000000E+00 -0.28276103430E+03  0.28276388634E+03  0.12700000000E+01 0.  1.
         25    2    1    2    0    0 -0.29232227400E+02 -0.44864998803E+02 -0.24985939561E+03  0.28446761101E+03  0.12499885161E+03 0.  0.
    9000005    1    3    3    0    0 -0.68727046892E+02  0.85736371955E+01 -0.11868774171E+03  0.13742159314E+03  0.10000000000E+01 0.  0.
    9000005    1    3    3    0    0  0.39494819492E+02 -0.53438635999E+02 -0.13117165390E+03  0.14704601787E+03  0.10000000000E+01 0.  0.
          4    1    1    2  501    0  0.29232227400E+02  0.44864998803E+02  0.30381747579E+02  0.61579661596E+02  0.12700000000E+01 0. -1.
<mgrwt>
<rscale>  1 0.13598568E+03</rscale>
<asrwt>0</asrwt>
<pdfrwt beam="1">  1       21 0.97359056E-02 0.13598568E+03</pdfrwt>
<pdfrwt beam="2">  1        4 0.43502897E-01 0.13598568E+03</pdfrwt>
<totfact> 0.17841494E+04</totfact>
</mgrwt>
</event>
<event>
 6    4  0.6326233E-003  0.1278408E+03  0.7818608E-02  0.1230695E+00
         21   -1    0    0  501  502  0.00000000000E+00  0.00000000000E+00  0.16920858893E+04  0.16920858893E+04  0.00000000000E+00 0. -1.
         -4   -1    0    0    0  501 -0.00000000000E+00 -0.00000000000E+00 -0.38180150588E+01  0.40236971791E+01  0.12700000000E+01 0. -1.
         25    2    1    2    0    0  0.25598547014E+02  0.76638774073E+01  0.11314280075E+04  0.11386275054E+04  0.12501695599E+03 0.  0.
    9000005    1    3    3    0    0  0.62401428586E+02 -0.13371211391E+02  0.95675672563E+03  0.95888328780E+03  0.10000000000E+01 0.  0.
    9000005    1    3    3    0    0 -0.36802881572E+02  0.21035088798E+02  0.17467128190E+03  0.17974421763E+03  0.10000000000E+01 0.  0.
         -4    1    1    2    0  502 -0.25598547014E+02 -0.76638774073E+01  0.55683986670E+03  0.55748208103E+03  0.12700000000E+01 0.  1.
<mgrwt>
<rscale>  1 0.12784076E+03</rscale>
<asrwt>0</asrwt>
<pdfrwt beam="1">  1       21 0.26032032E+00 0.12784076E+03</pdfrwt>
<pdfrwt beam="2">  1       -4 0.60324664E-03 0.12784076E+03</pdfrwt>
<totfact> 0.15415984E+04</totfact>
</mgrwt>
</event>
<event>
 6    4  0.6326233E-003  0.1445893E+03  0.7818608E-02  0.1207284E+00
         21   -1    0    0  501  502  0.00000000000E+00  0.00000000000E+00  0.11231857944E+04  0.11231857944E+04  0.00000000000E+00 0. -1.
         -4   -1    0    0    0  501 -0.00000000000E+00 -0.00000000000E+00 -0.12736626309E+02  0.12799787098E+02  0.12700000000E+01 0.  1.
         25    2    1    2    0    0 -0.71588747512E+02 -0.12494437056E+02  0.47844014893E+03  0.49981101982E+03  0.12500007878E+03 0.  0.
    9000005    1    3    3    0    0  0.23722283942E+02  0.48861676484E+01  0.20540261640E+02  0.31773003289E+02  0.10000000000E+01 0.  0.
    9000005    1    3    3    0    0 -0.95311031454E+02 -0.17380604705E+02  0.45789988729E+03  0.46803801653E+03  0.10000000000E+01 0.  0.
         -4    1    1    2    0  502  0.71588747512E+02  0.12494437056E+02  0.63200901913E+03  0.63617456164E+03  0.12700000000E+01 0. -1.
<mgrwt>
<rscale>  1 0.14458935E+03</rscale>
<asrwt>0</asrwt>
<pdfrwt beam="1">  1       21 0.17279774E+00 0.14458935E+03</pdfrwt>
<pdfrwt beam="2">  1       -4 0.19643956E-02 0.14458935E+03</pdfrwt>
<totfact> 0.89406228E+03</totfact>
</mgrwt>
</event>
<event>
 6    4  0.6326233E-003  0.1268425E+03  0.7818608E-02  0.1232218E+00
         -4   -1    0    0    0  501 -0.00000000000E+00  0.00000000000E+00  0.77458708729E+02  0.77469119383E+02  0.12700000000E+01 0.  1.
         21   -1    0    0  501  502  0.00000000000E+00 -0.00000000000E+00 -0.73733328106E+02  0.73733328106E+02  0.00000000000E+00 0.  1.
         25    2    1    2    0    0 -0.40859616065E+01  0.21128415261E+02  0.13449242662E+02  0.12755352771E+03  0.12500366111E+03 0.  0.
    9000005    1    3    3    0    0 -0.57401313429E+02  0.34084303230E+02 -0.10666478037E+02  0.67612308523E+02  0.10000000000E+01 0.  0.
    9000005    1    3    3    0    0  0.53315351823E+02 -0.12955887969E+02  0.24115720699E+02  0.59941219189E+02  0.10000000000E+01 0.  0.
         -4    1    1    2    0  502  0.40859616065E+01 -0.21128415261E+02 -0.97238620390E+01  0.23648919778E+02  0.12700000000E+01 0. -1.
<mgrwt>
<rscale>  1 0.12684250E+03</rscale>
<asrwt>0</asrwt>
<pdfrwt beam="2">  1       21 0.11343589E-01 0.12684250E+03</pdfrwt>
<pdfrwt beam="1">  1       -4 0.11918367E-01 0.12684250E+03</pdfrwt>
<totfact> 0.14512951E+05</totfact>
</mgrwt>
</event>
<event>
 6    4  0.6326233E-003  0.1290224E+03  0.7818608E-02  0.1228914E+00
         21   -1    0    0  501  502  0.00000000000E+00  0.00000000000E+00  0.38546375100E+02  0.38546375100E+02  0.00000000000E+00 0.  1.
         -4   -1    0    0    0  501 -0.00000000000E+00 -0.00000000000E+00 -0.24914011253E+03  0.24914334944E+03  0.12700000000E+01 0. -1.
         25    2    1    2    0    0 -0.58365309022E+00  0.31984600823E+02 -0.21936468980E+03  0.25449487786E+03  0.12499368137E+03 0.  0.
    9000005    1    3    3    0    0  0.57117460710E+02  0.26375934459E+02 -0.15801206502E+03  0.17007911961E+03  0.10000000000E+01 0.  0.
    9000005    1    3    3    0    0 -0.57701113801E+02  0.56086663635E+01 -0.61352624778E+02  0.84415758241E+02  0.10000000000E+01 0.  0.
         -4    1    1    2    0  502  0.58365309022E+00 -0.31984600823E+02  0.87709523733E+01  0.33194846682E+02  0.12700000000E+01 0.  1.
<mgrwt>
<rscale>  1 0.12902238E+03</rscale>
<asrwt>0</asrwt>
<pdfrwt beam="1">  1       21 0.59302115E-02 0.12902238E+03</pdfrwt>
<pdfrwt beam="2">  1       -4 0.38331107E-01 0.12902238E+03</pdfrwt>
<totfact> 0.53416973E+04</totfact>
</mgrwt>
</event>
<event>
 6    4  0.6326233E-003  0.1315244E+03  0.7818608E-02  0.1225211E+00
         -4   -1    0    0    0  501 -0.00000000000E+00  0.00000000000E+00  0.22194366550E+03  0.22194729905E+03  0.12700000000E+01 0. -1.
         21   -1    0    0  501  502  0.00000000000E+00 -0.00000000000E+00 -0.45271841859E+02  0.45271841859E+02  0.00000000000E+00 0.  1.
         25    2    1    2    0    0  0.34582919584E+01  0.40769320829E+02  0.18344952387E+03  0.22572640149E+03  0.12499833287E+03 0.  0.
    9000005    1    3    3    0    0 -0.24638665461E+02  0.65077797284E+02  0.17396540454E+03  0.18736900894E+03  0.10000000000E+01 0.  0.
    9000005    1    3    3    0    0  0.28096957419E+02 -0.24308476454E+02  0.94841193255E+01  0.38357392549E+02  0.10000000000E+01 0.  0.
         -4    1    1    2    0  502 -0.34582919584E+01 -0.40769320829E+02 -0.67777002253E+01  0.41492739419E+02  0.12700000000E+01 0.  1.
<mgrwt>
<rscale>  1 0.13152445E+03</rscale>
<asrwt>0</asrwt>
<pdfrwt beam="2">  1       21 0.69648989E-02 0.13152445E+03</pdfrwt>
<pdfrwt beam="1">  1       -4 0.34146828E-01 0.13152445E+03</pdfrwt>
<totfact> 0.50946478E+04</totfact>
</mgrwt>
</event>
<event>
 6    4  0.6326233E-003  0.1331559E+03  0.7818608E-02  0.1222847E+00
         -4   -1    0    0    0  501 -0.00000000000E+00  0.00000000000E+00  0.65958696296E+02  0.65970921754E+02  0.12700000000E+01 0. -1.
         21   -1    0    0  501  502  0.00000000000E+00 -0.00000000000E+00 -0.21427092987E+03  0.21427092987E+03  0.00000000000E+00 0. -1.
         25    2    1    2    0    0 -0.31627283052E+02 -0.33232654826E+02 -0.88811990451E+01  0.13345179518E+03  0.12500324620E+03 0.  0.
    9000005    1    3    3    0    0  0.55785465307E+01 -0.73489044077E+02 -0.22302028721E+02  0.77007403968E+02  0.10000000000E+01 0.  0.
    9000005    1    3    3    0    0 -0.37205829582E+02  0.40256389251E+02  0.13420829676E+02  0.56444391215E+02  0.10000000000E+01 0.  0.
         -4    1    1    2    0  502  0.31627283052E+02  0.33232654826E+02 -0.13943103453E+03  0.14679005644E+03  0.12700000000E+01 0.  1.
<mgrwt>
<rscale>  1 0.13315595E+03</rscale>
<asrwt>0</asrwt>
<pdfrwt beam="2">  1       21 0.32964758E-01 0.13315595E+03</pdfrwt>
<pdfrwt beam="1">  1       -4 0.10148722E-01 0.13315595E+03</pdfrwt>
<totfact> 0.26708169E+04</totfact>
</mgrwt>
</event>
<event>
 6    4  0.6326233E-003  0.1548635E+03  0.7818608E-02  0.1194621E+00
         -4   -1    0    0    0  501 -0.00000000000E+00  0.00000000000E+00  0.63961587743E+03  0.63961713827E+03  0.12700000000E+01 0.  1.
         21   -1    0    0  501  502  0.00000000000E+00 -0.00000000000E+00 -0.48645258366E+02  0.48645258366E+02  0.00000000000E+00 0. -1.
         25    2    1    2    0    0 -0.41125429159E+02  0.81649110111E+02  0.57494746645E+03  0.59543873356E+03  0.12499927260E+03 0.  0.
    9000005    1    3    3    0    0 -0.36394300372E+02  0.53682740813E+02  0.97239484245E+02  0.11688840429E+03  0.10000000000E+01 0.  0.
    9000005    1    3    3    0    0 -0.47311287871E+01  0.27966369298E+02  0.47770798220E+03  0.47855032928E+03  0.10000000000E+01 0.  0.
         -4    1    1    2    0  502  0.41125429159E+02 -0.81649110111E+02  0.16023152619E+02  0.92823663068E+02  0.12700000000E+01 0. -1.
<mgrwt>
<rscale>  1 0.15486348E+03</rscale>
<asrwt>0</asrwt>
<pdfrwt beam="2">  1       21 0.74838863E-02 0.15486348E+03</pdfrwt>
<pdfrwt beam="1">  1       -4 0.98403809E-01 0.15486348E+03</pdfrwt>
<totfact> 0.49663104E+03</totfact>
</mgrwt>
</event>
<event>
 6    4  0.6326233E-003  0.1304734E+03  0.7818608E-02  0.1226755E+00
         21   -1    0    0  501  502  0.00000000000E+00  0.00000000000E+00  0.11953246819E+03  0.11953246819E+03  0.00000000000E+00 0.  1.
         -4   -1    0    0    0  501 -0.00000000000E+00 -0.00000000000E+00 -0.27048944740E+03  0.27049242884E+03  0.12700000000E+01 0. -1.
         25    2    1    2    0    0 -0.26105490066E+02  0.26795581155E+02 -0.25117704595E+03  0.28304277488E+03  0.12499521678E+03 0.  0.
    9000005    1    3    3    0    0  0.21115687254E+02  0.62106528299E+02 -0.17369211988E+03  0.18566918326E+03  0.10000000000E+01 0.  0.
    9000005    1    3    3    0    0 -0.47221177320E+02 -0.35310947143E+02 -0.77484926074E+02  0.97373591617E+02  0.10000000000E+01 0.  0.
         -4    1    1    2    0  502  0.26105490066E+02 -0.26795581155E+02  0.10022006674E+03  0.10698212214E+03  0.12700000000E+01 0.  1.
<mgrwt>
<rscale>  1 0.13047338E+03</rscale>
<asrwt>0</asrwt>
<pdfrwt beam="1">  1       21 0.18389611E-01 0.13047338E+03</pdfrwt>
<pdfrwt beam="2">  1       -4 0.41614509E-01 0.13047338E+03</pdfrwt>
<totfact> 0.62228806E+03</totfact>
</mgrwt>
</event>
<event>
 6    4  0.6326233E-003  0.1288112E+03  0.7818608E-02  0.1229230E+00
         -4   -1    0    0    0  501 -0.00000000000E+00  0.00000000000E+00  0.60287687429E+02  0.60301062640E+02  0.12700000000E+01 0. -1.
         21   -1    0    0  501  502  0.00000000000E+00 -0.00000000000E+00 -0.18079421208E+03  0.18079421208E+03  0.00000000000E+00 0.  1.
         25    2    1    2    0    0  0.19027435385E+02  0.24601300870E+02 -0.13340316353E+02  0.12950012965E+03  0.12500020895E+03 0.  0.
    9000005    1    3    3    0    0  0.42914505072E+02 -0.33465174619E+02  0.20505497935E+02  0.58163975994E+02  0.10000000000E+01 0.  0.
    9000005    1    3    3    0    0 -0.23887069687E+02  0.58066475489E+02 -0.33845814288E+02  0.71336153659E+02  0.10000000000E+01 0.  0.
         -4    1    1    2    0  502 -0.19027435385E+02 -0.24601300870E+02 -0.10716620830E+03  0.11159514507E+03  0.12700000000E+01 0.  1.
<mgrwt>
<rscale>  1 0.12881118E+03</rscale>
<asrwt>0</asrwt>
<pdfrwt beam="2">  1       21 0.27814493E-01 0.12881118E+03</pdfrwt>
<pdfrwt beam="1">  1       -4 0.92764011E-02 0.12881118E+03</pdfrwt>
<totfact> 0.42971773E+04</totfact>
</mgrwt>
</event>
<event>
 6    4  0.6326233E-003  0.1302088E+03  0.7818608E-02  0.1227146E+00
         -4   -1    0    0    0  501 -0.00000000000E+00  0.00000000000E+00  0.41998964365E+02  0.42018161641E+02  0.12700000000E+01 0. -1.
         21   -1    0    0  501  502  0.00000000000E+00 -0.00000000000E+00 -0.22851989298E+03  0.22851989298E+03  0.00000000000E+00 0.  1.
         25    2    1    2    0    0 -0.35967283914E+02  0.57322949158E+01 -0.68723227795E+02  0.14723186688E+03  0.12501134296E+03 0.  0.
    9000005    1    3    3    0    0  0.11957726973E+02  0.57317552776E+02 -0.41312833066E+02  0.71666165424E+02  0.10000000000E+01 0.  0.
    9000005    1    3    3    0    0 -0.47925010887E+02 -0.51585257861E+02 -0.27410394729E+02  0.75565701454E+02  0.10000000000E+01 0.  0.
         -4    1    1    2    0  502  0.35967283914E+02 -0.57322949158E+01 -0.11779770082E+03  0.12330618774E+03  0.12700000000E+01 0.  1.
<mgrwt>
<rscale>  1 0.13020883E+03</rscale>
<asrwt>0</asrwt>
<pdfrwt beam="2">  1       21 0.35156907E-01 0.13020883E+03</pdfrwt>
<pdfrwt beam="1">  1       -4 0.64631273E-02 0.13020883E+03</pdfrwt>
<totfact> 0.49623033E+04</totfact>
</mgrwt>
</event>
<event>
 6    4  0.6326233E-003  0.1280704E+03  0.7818608E-02  0.1230347E+00
         21   -1    0    0  501  502  0.00000000000E+00  0.00000000000E+00  0.26983815949E+03  0.26983815949E+03  0.00000000000E+00 0. -1.
          4   -1    0    0  502    0 -0.00000000000E+00 -0.00000000000E+00 -0.22882176765E+02  0.22917393253E+02  0.12700000000E+01 0. -1.
         25    2    1    2    0    0  0.21121526855E+02  0.18199170279E+02  0.18737006624E+03  0.22695720141E+03  0.12499880340E+03 0.  0.
    9000005    1    3    3    0    0  0.63865352556E+02 -0.21150591682E+02  0.12328872024E+03  0.14045369103E+03  0.10000000000E+01 0.  0.
    9000005    1    3    3    0    0 -0.42743825702E+02  0.39349761961E+02  0.64081346008E+02  0.86503510381E+02  0.10000000000E+01 0.  0.
          4    1    1    2  501    0 -0.21121526855E+02 -0.18199170279E+02  0.59585916482E+02  0.65798351336E+02  0.12700000000E+01 0.  1.
<mgrwt>
<rscale>  1 0.12807041E+03</rscale>
<asrwt>0</asrwt>
<pdfrwt beam="1">  1       21 0.41513561E-01 0.12807041E+03</pdfrwt>
<pdfrwt beam="2">  1        4 0.35232739E-02 0.12807041E+03</pdfrwt>
<totfact> 0.94112452E+04</totfact>
</mgrwt>
</event>
<event>
 6    4  0.6326233E-003  0.1275749E+03  0.7818608E-02  0.1231099E+00
         -4   -1    0    0    0  501 -0.00000000000E+00  0.00000000000E+00  0.21986304887E+03  0.21986671680E+03  0.12700000000E+01 0.  1.
         21   -1    0    0  501  502  0.00000000000E+00 -0.00000000000E+00 -0.48479863077E+02  0.48479863077E+02  0.00000000000E+00 0. -1.
         25    2    1    2    0    0  0.70439262241E+01 -0.24511730121E+02  0.19535550808E+03  0.23332191791E+03  0.12499960413E+03 0.  0.
    9000005    1    3    3    0    0 -0.52664232619E+02 -0.25481628617E+02  0.14062560782E+03  0.15231348059E+03  0.10000000000E+01 0.  0.
    9000005    1    3    3    0    0  0.59708158843E+02  0.96989849615E+00  0.54729900255E+02  0.81008437323E+02  0.10000000000E+01 0.  0.
         -4    1    1    2    0  502 -0.70439262241E+01  0.24511730121E+02 -0.23972322285E+02  0.35024661967E+02  0.12700000000E+01 0. -1.
<mgrwt>
<rscale>  1 0.12757485E+03</rscale>
<asrwt>0</asrwt>
<pdfrwt beam="2">  1       21 0.74584406E-02 0.12757485E+03</pdfrwt>
<pdfrwt beam="1">  1       -4 0.33826646E-01 0.12757485E+03</pdfrwt>
<totfact> 0.45951029E+04</totfact>
</mgrwt>
</event>
<event>
 6    4  0.6326233E-003  0.1389585E+03  0.7818608E-02  0.1214737E+00
         -4   -1    0    0    0  501 -0.00000000000E+00  0.00000000000E+00  0.10664540641E+04  0.10664548203E+04  0.12700000000E+01 0.  1.
         21   -1    0    0  501  502  0.00000000000E+00 -0.00000000000E+00 -0.54094027991E+02  0.54094027991E+02  0.00000000000E+00 0. -1.
         25    2    1    2    0    0  0.46543225599E+01 -0.60537614128E+02  0.10432159852E+04  0.10524300701E+04  0.12499198009E+03 0.  0.
    9000005    1    3    3    0    0 -0.33005688116E+02 -0.55188745389E+02  0.24477611989E+03  0.25308402149E+03  0.10000000000E+01 0.  0.
    9000005    1    3    3    0    0  0.37660010676E+02 -0.53488687392E+01  0.79843986534E+03  0.79934604857E+03  0.10000000000E+01 0.  0.
         -4    1    1    2    0  502 -0.46543225599E+01  0.60537614128E+02 -0.30855949162E+02  0.68118778185E+02  0.12700000000E+01 0. -1.
<mgrwt>
<rscale>  1 0.13895848E+03</rscale>
<asrwt>0</asrwt>
<pdfrwt beam="2">  1       21 0.83221589E-02 0.13895848E+03</pdfrwt>
<pdfrwt beam="1">  1       -4 0.16407105E+00 0.13895848E+03</pdfrwt>
<totfact> 0.11745272E+03</totfact>
</mgrwt>
</event>
<event>
 6    4  0.6326233E-003  0.1272592E+03  0.7818608E-02  0.1231580E+00
         -4   -1    0    0    0  501 -0.00000000000E+00  0.00000000000E+00  0.81241346255E+02  0.81251272244E+02  0.12700000000E+01 0. -1.
         21   -1    0    0  501  502  0.00000000000E+00 -0.00000000000E+00 -0.92883190384E+02  0.92883190384E+02  0.00000000000E+00 0. -1.
         25    2    1    2    0    0  0.23759506336E+02  0.22898421322E+01  0.25670134448E+02  0.12982245338E+03  0.12500062432E+03 0.  0.
    9000005    1    3    3    0    0 -0.53736281705E+01  0.42477419144E+02 -0.32194455246E+02  0.53578820120E+02  0.10000000000E+01 0.  0.
    9000005    1    3    3    0    0  0.29133134507E+02 -0.40187577012E+02  0.57864589693E+02  0.76243633260E+02  0.10000000000E+01 0.  0.
         -4    1    1    2    0  502 -0.23759506336E+02 -0.22898421322E+01 -0.37311978577E+02  0.44312009249E+02  0.12700000000E+01 0.  1.
<mgrwt>
<rscale>  1 0.12725924E+03</rscale>
<asrwt>0</asrwt>
<pdfrwt beam="2">  1       21 0.14289722E-01 0.12725924E+03</pdfrwt>
<pdfrwt beam="1">  1       -4 0.12500100E-01 0.12725924E+03</pdfrwt>
<totfact> 0.88750318E+04</totfact>
</mgrwt>
</event>
<event>
 6    4  0.6326233E-003  0.1455030E+03  0.7818608E-02  0.1206110E+00
         21   -1    0    0  501  502  0.00000000000E+00  0.00000000000E+00  0.89110167216E+03  0.89110167216E+03  0.00000000000E+00 0. -1.
          4   -1    0    0  502    0 -0.00000000000E+00 -0.00000000000E+00 -0.77469732182E+02  0.77480141355E+02  0.12700000000E+01 0.  1.
         25    2    1    2    0    0 -0.68627873977E+02 -0.28910449840E+02 -0.59481371693E+01  0.14562451514E+03  0.12500207949E+03 0.  0.
    9000005    1    3    3    0    0 -0.10302866473E+02  0.96337889482E+01 -0.57207799594E+02  0.58929545064E+02  0.10000000000E+01 0.  0.
    9000005    1    3    3    0    0 -0.58325007504E+02 -0.38544238788E+02  0.51259662424E+02  0.86694970073E+02  0.10000000000E+01 0.  0.
          4    1    1    2  501    0  0.68627873977E+02  0.28910449840E+02  0.81958007714E+03  0.82295729838E+03  0.12700000000E+01 0. -1.
<mgrwt>
<rscale>  1 0.14550299E+03</rscale>
<asrwt>0</asrwt>
<pdfrwt beam="1">  1       21 0.13709256E+00 0.14550299E+03</pdfrwt>
<pdfrwt beam="2">  1        4 0.11919291E-01 0.14550299E+03</pdfrwt>
<totfact> 0.89630817E+02</totfact>
</mgrwt>
</event>
<event>
 6    4  0.6326233E-003  0.1790048E+03  0.7818608E-02  0.1168770E+00
         -4   -1    0    0    0  501 -0.00000000000E+00  0.00000000000E+00  0.33278276837E+03  0.33278519171E+03  0.12700000000E+01 0. -1.
         21   -1    0    0  501  502  0.00000000000E+00 -0.00000000000E+00 -0.11649554892E+03  0.11649554892E+03  0.00000000000E+00 0.  1.
         25    2    1    2    0    0  0.12029244058E+03 -0.44127549952E+02  0.25844846114E+03  0.31438561422E+03  0.12500078175E+03 0.  0.
    9000005    1    3    3    0    0  0.10176655377E+03 -0.10926060682E+02  0.25665199034E+03  0.27630970742E+03  0.10000000000E+01 0.  0.
    9000005    1    3    3    0    0  0.18525886807E+02 -0.33201489270E+02  0.17964708034E+01  0.38075906805E+02  0.10000000000E+01 0.  0.
         -4    1    1    2    0  502 -0.12029244058E+03  0.44127549952E+02 -0.42161241693E+02  0.13489512640E+03  0.12700000000E+01 0.  1.
<mgrwt>
<rscale>  1 0.17900477E+03</rscale>
<asrwt>0</asrwt>
<pdfrwt beam="2">  1       21 0.17922392E-01 0.17900477E+03</pdfrwt>
<pdfrwt beam="1">  1       -4 0.51198067E-01 0.17900477E+03</pdfrwt>
<totfact> 0.43808268E+03</totfact>
</mgrwt>
</event>
<event>
 6    4  0.6326233E-003  0.1285906E+03  0.7818608E-02  0.1229562E+00
         21   -1    0    0  501  502  0.00000000000E+00  0.00000000000E+00  0.59518995259E+02  0.59518995259E+02  0.00000000000E+00 0.  1.
          4   -1    0    0  502    0 -0.00000000000E+00 -0.00000000000E+00 -0.10832939764E+03  0.10833684181E+03  0.12700000000E+01 0.  1.
         25    2    1    2    0    0  0.10716078838E+02 -0.28213053871E+02 -0.29268964495E+02  0.13187957477E+03  0.12499895681E+03 0.  0.
    9000005    1    3    3    0    0  0.58934277098E+02 -0.29179535629E+02 -0.46618435411E+02  0.80616207036E+02  0.10000000000E+01 0.  0.
    9000005    1    3    3    0    0 -0.48218198260E+02  0.96648175725E+00  0.17349470916E+02  0.51263367735E+02  0.10000000000E+01 0.  0.
          4    1    1    2  501    0 -0.10716078838E+02  0.28213053871E+02 -0.19541437890E+02  0.35976262302E+02  0.12700000000E+01 0. -1.
<mgrwt>
<rscale>  1 0.12859063E+03</rscale>
<asrwt>0</asrwt>
<pdfrwt beam="1">  1       21 0.91567686E-02 0.12859063E+03</pdfrwt>
<pdfrwt beam="2">  1        4 0.16667676E-01 0.12859063E+03</pdfrwt>
<totfact> 0.11829632E+05</totfact>
</mgrwt>
</event>
<event>
 6    4  0.6326233E-003  0.1267192E+03  0.7818608E-02  0.1232407E+00
         -4   -1    0    0    0  501 -0.00000000000E+00  0.00000000000E+00  0.42390521411E+03  0.42390711653E+03  0.12700000000E+01 0.  1.
         21   -1    0    0  501  502  0.00000000000E+00 -0.00000000000E+00 -0.12850234826E+02  0.12850234826E+02  0.00000000000E+00 0.  1.
         25    2    1    2    0    0 -0.11680277514E+01  0.20799705672E+02  0.34998045390E+03  0.37221509701E+03  0.12499507307E+03 0.  0.
    9000005    1    3    3    0    0  0.51222727087E+01  0.12214744135E+02 -0.70409370031E+01  0.15033710316E+02  0.10000000000E+01 0.  0.
    9000005    1    3    3    0    0 -0.62903004600E+01  0.85849615365E+01  0.35702139090E+03  0.35718138670E+03  0.10000000000E+01 0.  0.
         -4    1    1    2    0  502  0.11680277514E+01 -0.20799705672E+02  0.61074525386E+02  0.64542254345E+02  0.12700000000E+01 0. -1.
<mgrwt>
<rscale>  1 0.12671922E+03</rscale>
<asrwt>0</asrwt>
<pdfrwt beam="2">  1       21 0.19769595E-02 0.12671922E+03</pdfrwt>
<pdfrwt beam="1">  1       -4 0.65221149E-01 0.12671922E+03</pdfrwt>
<totfact> 0.11063579E+05</totfact>
</mgrwt>
</event>
<event>
 6    4  0.6326233E-003  0.1522365E+03  0.7818608E-02  0.1197751E+00
         21   -1    0    0  501  502  0.00000000000E+00  0.00000000000E+00  0.38168730827E+03  0.38168730827E+03  0.00000000000E+00 0.  1.
          4   -1    0    0  502    0 -0.00000000000E+00 -0.00000000000E+00 -0.92687097646E+02  0.92695798017E+02  0.12700000000E+01 0. -1.
         25    2    1    2    0    0 -0.83563986589E+02  0.23827910380E+02 -0.19862929965E+02  0.15352681185E+03  0.12500094720E+03 0.  0.
    9000005    1    3    3    0    0 -0.54470024290E+02  0.51653680598E+02 -0.60423914329E+02  0.96369786180E+02  0.10000000000E+01 0.  0.
    9000005    1    3    3    0    0 -0.29093962299E+02 -0.27825770217E+02  0.40560984364E+02  0.57157025667E+02  0.10000000000E+01 0.  0.
          4    1    1    2  501    0  0.83563986589E+02 -0.23827910380E+02  0.30886314059E+03  0.32085629444E+03  0.12700000000E+01 0.  1.
<mgrwt>
<rscale>  1 0.15223648E+03</rscale>
<asrwt>0</asrwt>
<pdfrwt beam="1">  1       21 0.58721124E-01 0.15223648E+03</pdfrwt>
<pdfrwt beam="2">  1        4 0.14260385E-01 0.15223648E+03</pdfrwt>
<totfact> 0.46565777E+03</totfact>
</mgrwt>
</event>
<event>
 6    4  0.6326233E-003  0.1292729E+03  0.7818608E-02  0.1228539E+00
         21   -1    0    0  501  502  0.00000000000E+00  0.00000000000E+00  0.13038794535E+03  0.13038794535E+03  0.00000000000E+00 0.  1.
         -4   -1    0    0    0  501 -0.00000000000E+00 -0.00000000000E+00 -0.75438489871E+02  0.75449179280E+02  0.12700000000E+01 0.  1.
         25    2    1    2    0    0  0.56792692156E+01 -0.32507183051E+02 -0.13362322941E+02  0.12996168052E+03  0.12499006232E+03 0.  0.
    9000005    1    3    3    0    0  0.49355302936E+02 -0.41914270397E+02 -0.41720368153E+02  0.77034674723E+02  0.10000000000E+01 0.  0.
    9000005    1    3    3    0    0 -0.43676033721E+02  0.94070873452E+01  0.28358045212E+02  0.52927005792E+02  0.10000000000E+01 0.  0.
         -4    1    1    2    0  502 -0.56792692156E+01  0.32507183051E+02  0.68311778419E+02  0.75875444115E+02  0.12700000000E+01 0. -1.
<mgrwt>
<rscale>  1 0.12927292E+03</rscale>
<asrwt>0</asrwt>
<pdfrwt beam="1">  1       21 0.20059684E-01 0.12927292E+03</pdfrwt>
<pdfrwt beam="2">  1       -4 0.11607220E-01 0.12927292E+03</pdfrwt>
<totfact> 0.54426041E+04</totfact>
</mgrwt>
</event>
<event>
 6    4  0.6326233E-003  0.1284009E+03  0.7818608E-02  0.1229848E+00
         21   -1    0    0  501  502  0.00000000000E+00  0.00000000000E+00  0.60098409665E+03  0.60098409665E+03  0.00000000000E+00 0.  1.
         -4   -1    0    0    0  501 -0.00000000000E+00 -0.00000000000E+00 -0.11055998185E+02  0.11128701446E+02  0.12700000000E+01 0.  1.
         25    2    1    2    0    0 -0.24279386636E+02  0.16403129715E+02  0.40480584928E+03  0.42468171390E+03  0.12501292425E+03 0.  0.
    9000005    1    3    3    0    0  0.35488697056E+01 -0.47694736755E+02  0.87016265520E+02  0.99298604498E+02  0.10000000000E+01 0.  0.
    9000005    1    3    3    0    0 -0.27828256341E+02  0.64097866470E+02  0.31778958376E+03  0.32538310940E+03  0.10000000000E+01 0.  0.
         -4    1    1    2    0  502  0.24279386636E+02 -0.16403129715E+02  0.18512224918E+03  0.18743108419E+03  0.12700000000E+01 0. -1.
<mgrwt>
<rscale>  1 0.12840087E+03</rscale>
<asrwt>0</asrwt>
<pdfrwt beam="1">  1       21 0.92459066E-01 0.12840087E+03</pdfrwt>
<pdfrwt beam="2">  1       -4 0.17066191E-02 0.12840087E+03</pdfrwt>
<totfact> 0.52216680E+04</totfact>
</mgrwt>
</event>
<event>
 6    4  0.6326233E-003  0.1274312E+03  0.7818608E-02  0.1231318E+00
         21   -1    0    0  501  502  0.00000000000E+00  0.00000000000E+00  0.21153185404E+03  0.21153185404E+03  0.00000000000E+00 0. -1.
          4   -1    0    0  502    0 -0.00000000000E+00 -0.00000000000E+00 -0.38588214801E+02  0.38609108013E+02  0.12700000000E+01 0. -1.
         25    2    1    2    0    0  0.13227604847E+02 -0.20957965063E+02  0.72362404631E+02  0.14654364797E+03  0.12499806929E+03 0.  0.
    9000005    1    3    3    0    0 -0.55323586842E+02 -0.18777295673E+02  0.27478246467E+02  0.64570427618E+02  0.10000000000E+01 0.  0.
    9000005    1    3    3    0    0  0.68551191689E+02 -0.21806693895E+01  0.44884158164E+02  0.81973220353E+02  0.10000000000E+01 0.  0.
          4    1    1    2  501    0 -0.13227604847E+02  0.20957965063E+02  0.10058123461E+03  0.10359731408E+03  0.12700000000E+01 0.  1.
<mgrwt>
<rscale>  1 0.12743125E+03</rscale>
<asrwt>0</asrwt>
<pdfrwt beam="1">  1       21 0.32543361E-01 0.12743125E+03</pdfrwt>
<pdfrwt beam="2">  1        4 0.59385490E-02 0.12743125E+03</pdfrwt>
<totfact> 0.66068896E+04</totfact>
</mgrwt>
</event>
<event>
 6    4  0.6326233E-003  0.1276912E+03  0.7818608E-02  0.1230922E+00
         21   -1    0    0  501  502  0.00000000000E+00  0.00000000000E+00  0.14378464022E+04  0.14378464022E+04  0.00000000000E+00 0. -1.
         -4   -1    0    0    0  501 -0.00000000000E+00 -0.00000000000E+00 -0.30883220577E+02  0.30909322432E+02  0.12700000000E+01 0.  1.
         25    2    1    2    0    0  0.25712681670E+02 -0.43561266119E+01  0.10172798321E+03  0.16325939989E+03  0.12499972499E+03 0.  0.
    9000005    1    3    3    0    0 -0.39832873475E+02  0.19979065411E+02  0.63927722698E+01  0.45029861217E+02  0.10000000000E+01 0.  0.
    9000005    1    3    3    0    0  0.65545555145E+02 -0.24335192023E+02  0.95335210944E+02  0.11822953868E+03  0.10000000000E+01 0.  0.
         -4    1    1    2    0  502 -0.25712681670E+02  0.43561266119E+01  0.13052351985E+04  0.13054963248E+04  0.12700000000E+01 0. -1.
<mgrwt>
<rscale>  1 0.12769123E+03</rscale>
<asrwt>0</asrwt>
<pdfrwt beam="1">  1       21 0.22120709E+00 0.12769123E+03</pdfrwt>
<pdfrwt beam="2">  1       -4 0.47533168E-02 0.12769123E+03</pdfrwt>
<totfact> 0.10974282E+03</totfact>
</mgrwt>
</event>
<event>
 6    4  0.6326233E-003  0.1282936E+03  0.7818608E-02  0.1230010E+00
         -4   -1    0    0    0  501 -0.00000000000E+00  0.00000000000E+00  0.10591465328E+03  0.10592226716E+03  0.12700000000E+01 0.  1.
         21   -1    0    0  501  502  0.00000000000E+00 -0.00000000000E+00 -0.11131400669E+03  0.11131400669E+03  0.00000000000E+00 0. -1.
         25    2    1    2    0    0  0.28810109375E+02  0.21982271342E+01  0.63033936324E+02  0.14294238010E+03  0.12499756916E+03 0.  0.
    9000005    1    3    3    0    0  0.51347697689E+02 -0.47211200691E+02  0.53228713589E+02  0.87748387330E+02  0.10000000000E+01 0.  0.
    9000005    1    3    3    0    0 -0.22537588314E+02  0.49409427825E+02  0.98052227349E+01  0.55193992770E+02  0.10000000000E+01 0.  0.
         -4    1    1    2    0  502 -0.28810109375E+02 -0.21982271342E+01 -0.68433289729E+02  0.74293893746E+02  0.12700000000E+01 0. -1.
<mgrwt>
<rscale>  1 0.12829360E+03</rscale>
<asrwt>0</asrwt>
<pdfrwt beam="2">  1       21 0.17125232E-01 0.12829360E+03</pdfrwt>
<pdfrwt beam="1">  1       -4 0.16295705E-01 0.12829360E+03</pdfrwt>
<totfact> 0.40416196E+04</totfact>
</mgrwt>
</event>
<event>
 6    4  0.6326233E-003  0.1290275E+03  0.7818608E-02  0.1228906E+00
         21   -1    0    0  501  502  0.00000000000E+00  0.00000000000E+00  0.20600227543E+03  0.20600227543E+03  0.00000000000E+00 0. -1.
         -4   -1    0    0    0  501 -0.00000000000E+00 -0.00000000000E+00 -0.37263159894E+02  0.37284795632E+02  0.12700000000E+01 0. -1.
         25    2    1    2    0    0 -0.28708539077E+02  0.14303753466E+02  0.87398137948E+02  0.15584140156E+03  0.12497731932E+03 0.  0.
    9000005    1    3    3    0    0 -0.72940245971E+02 -0.16864059006E+02  0.48873989957E+02  0.89411089149E+02  0.10000000000E+01 0.  0.
    9000005    1    3    3    0    0  0.44231706894E+02  0.31167812472E+02  0.38524147991E+02  0.66430312415E+02  0.10000000000E+01 0.  0.
         -4    1    1    2    0  502  0.28708539077E+02 -0.14303753466E+02  0.81340977592E+02  0.87445669502E+02  0.12700000000E+01 0.  1.
<mgrwt>
<rscale>  1 0.12902755E+03</rscale>
<asrwt>0</asrwt>
<pdfrwt beam="1">  1       21 0.31692657E-01 0.12902755E+03</pdfrwt>
<pdfrwt beam="2">  1       -4 0.57347594E-02 0.12902755E+03</pdfrwt>
<totfact> 0.73722968E+04</totfact>
</mgrwt>
</event>
<event>
 6    4  0.6326233E-003  0.1415495E+03  0.7818608E-02  0.1211259E+00
         -4   -1    0    0    0  501 -0.00000000000E+00  0.00000000000E+00  0.83461008873E+03  0.83461105499E+03  0.12700000000E+01 0.  1.
         21   -1    0    0  501  502  0.00000000000E+00 -0.00000000000E+00 -0.29054110683E+02  0.29054110683E+02  0.00000000000E+00 0. -1.
         25    2    1    2    0    0 -0.66201722181E+02 -0.53528164598E+01  0.77959724804E+03  0.79234343527E+03  0.12499971841E+03 0.  0.
    9000005    1    3    3    0    0 -0.93383324297E+02 -0.29070467850E+02  0.66621411626E+03  0.67335561634E+03  0.10000000000E+01 0.  0.
    9000005    1    3    3    0    0  0.27181602116E+02  0.23717651390E+02  0.11338313178E+03  0.11898781892E+03  0.10000000000E+01 0.  0.
         -4    1    1    2    0  502  0.66201722181E+02  0.53528164598E+01  0.25958730010E+02  0.71321730402E+02  0.12700000000E+01 0. -1.
<mgrwt>
<rscale>  1 0.14154946E+03</rscale>
<asrwt>0</asrwt>
<pdfrwt beam="2">  1       21 0.44698638E-02 0.14154946E+03</pdfrwt>
<pdfrwt beam="1">  1       -4 0.12840374E+00 0.14154946E+03</pdfrwt>
<totfact> 0.62921850E+03</totfact>
</mgrwt>
</event>
<event>
 6    4  0.6326233E-003  0.1453236E+03  0.7818608E-02  0.1206340E+00
         21   -1    0    0  501  502  0.00000000000E+00  0.00000000000E+00  0.21833999854E+03  0.21833999854E+03  0.00000000000E+00 0.  1.
          4   -1    0    0  502    0 -0.00000000000E+00 -0.00000000000E+00 -0.11003666315E+03  0.11004399183E+03  0.12700000000E+01 0. -1.
         25    2    1    2    0    0  0.53338132644E+02 -0.51487697008E+02 -0.49912519228E+02  0.15365617664E+03  0.12499208658E+03 0.  0.
    9000005    1    3    3    0    0  0.20131103927E+02 -0.85208201560E+02 -0.39075889953E+01  0.87646837993E+02  0.10000000000E+01 0.  0.
    9000005    1    3    3    0    0  0.33207028716E+02  0.33720504551E+02 -0.46004930233E+02  0.66009338651E+02  0.10000000000E+01 0.  0.
          4    1    1    2  501    0 -0.53338132644E+02  0.51487697008E+02  0.15821585462E+03  0.17472781372E+03  0.12700000000E+01 0.  1.
<mgrwt>
<rscale>  1 0.14532364E+03</rscale>
<asrwt>0</asrwt>
<pdfrwt beam="1">  1       21 0.33590769E-01 0.14532364E+03</pdfrwt>
<pdfrwt beam="2">  1        4 0.16929565E-01 0.14532364E+03</pdfrwt>
<totfact> 0.10724147E+04</totfact>
</mgrwt>
</event>
<event>
 6    4  0.6326233E-003  0.1307710E+03  0.7818608E-02  0.1226316E+00
         21   -1    0    0  501  502  0.00000000000E+00  0.00000000000E+00  0.93718468580E+03  0.93718468580E+03  0.00000000000E+00 0.  1.
          4   -1    0    0  502    0 -0.00000000000E+00 -0.00000000000E+00 -0.10057872803E+02  0.10137736696E+02  0.12700000000E+01 0. -1.
         25    2    1    2    0    0  0.38081378347E+02  0.49614641389E+01  0.44904844504E+03  0.46770242050E+03  0.12500496249E+03 0.  0.
    9000005    1    3    3    0    0 -0.25285430472E+02  0.31046249283E+02  0.56737668814E+02  0.69450598637E+02  0.10000000000E+01 0.  0.
    9000005    1    3    3    0    0  0.63366808819E+02 -0.26084785144E+02  0.39231077622E+03  0.39825182186E+03  0.10000000000E+01 0.  0.
          4    1    1    2  501    0 -0.38081378347E+02 -0.49614641389E+01  0.47807836796E+03  0.47962000200E+03  0.12700000000E+01 0.  1.
<mgrwt>
<rscale>  1 0.13077098E+03</rscale>
<asrwt>0</asrwt>
<pdfrwt beam="1">  1       21 0.14418219E+00 0.13077098E+03</pdfrwt>
<pdfrwt beam="2">  1        4 0.15535753E-02 0.13077098E+03</pdfrwt>
<totfact> 0.20580263E+04</totfact>
</mgrwt>
</event>
<event>
 6    4  0.6326233E-003  0.1323287E+03  0.7818608E-02  0.1224041E+00
          4   -1    0    0  502    0 -0.00000000000E+00  0.00000000000E+00  0.22668977299E+03  0.22669333047E+03  0.12700000000E+01 0.  1.
         21   -1    0    0  501  502  0.00000000000E+00 -0.00000000000E+00 -0.37210910801E+02  0.37210910801E+02  0.00000000000E+00 0. -1.
         25    2    1    2    0    0  0.23614546379E+02 -0.36442154330E+02  0.17215042789E+03  0.21713282961E+03  0.12500087384E+03 0.  0.
    9000005    1    3    3    0    0  0.44030377631E+02 -0.12915847091E+02  0.39463824020E+01  0.46065900561E+02  0.10000000000E+01 0.  0.
    9000005    1    3    3    0    0 -0.20415831252E+02 -0.23526307239E+02  0.16820404549E+03  0.17106692905E+03  0.10000000000E+01 0.  0.
          4    1    1    2  501    0 -0.23614546379E+02  0.36442154330E+02  0.17328434303E+02  0.46771411656E+02  0.12700000000E+01 0. -1.
<mgrwt>
<rscale>  1 0.13232874E+03</rscale>
<asrwt>0</asrwt>
<pdfrwt beam="2">  1       21 0.57247557E-02 0.13232874E+03</pdfrwt>
<pdfrwt beam="1">  1        4 0.34877289E-01 0.13232874E+03</pdfrwt>
<totfact> 0.68340883E+04</totfact>
</mgrwt>
</event>
<event>
 6    4  0.6326233E-003  0.1281343E+03  0.7818608E-02  0.1230251E+00
          4   -1    0    0  502    0 -0.00000000000E+00  0.00000000000E+00  0.12856689670E+02  0.12919263495E+02  0.12700000000E+01 0. -1.
         21   -1    0    0  501  502  0.00000000000E+00 -0.00000000000E+00 -0.69883456414E+03  0.69883456414E+03  0.00000000000E+00 0.  1.
         25    2    1    2    0    0 -0.26573192344E+02  0.93537660019E+01 -0.32013632130E+03  0.34482701965E+03  0.12499912711E+03 0.  0.
    9000005    1    3    3    0    0  0.18562998820E+02 -0.43369188814E+02 -0.64387606541E+02  0.79826282261E+02  0.10000000000E+01 0.  0.
    9000005    1    3    3    0    0 -0.45136191164E+02  0.52722954816E+02 -0.25574871476E+03  0.26500073739E+03  0.10000000000E+01 0.  0.
          4    1    1    2  501    0  0.26573192344E+02 -0.93537660019E+01 -0.36584155317E+03  0.36692680798E+03  0.12700000000E+01 0.  1.
<mgrwt>
<rscale>  1 0.12813434E+03</rscale>
<asrwt>0</asrwt>
<pdfrwt beam="2">  1       21 0.10751300E+00 0.12813434E+03</pdfrwt>
<pdfrwt beam="1">  1        4 0.19828545E-02 0.12813434E+03</pdfrwt>
<totfact> 0.29140098E+04</totfact>
</mgrwt>
</event>
<event>
 6    4  0.6326233E-003  0.1272120E+03  0.7818608E-02  0.1231652E+00
         21   -1    0    0  501  502  0.00000000000E+00  0.00000000000E+00  0.24678674711E+01  0.24678674711E+01  0.00000000000E+00 0.  1.
         -4   -1    0    0    0  501 -0.00000000000E+00 -0.00000000000E+00 -0.23227615539E+04  0.23227619011E+04  0.12700000000E+01 0.  1.
         25    2    1    2    0    0  0.21670612374E+02 -0.94058383278E+01 -0.18777691240E+04  0.18820732652E+04  0.12499922897E+03 0.  0.
    9000005    1    3    3    0    0 -0.19936892534E+02 -0.55743109332E+02 -0.11960959207E+04  0.11975605310E+04  0.10000000000E+01 0.  0.
    9000005    1    3    3    0    0  0.41607504907E+02  0.46337271004E+02 -0.68167320329E+03  0.68451273416E+03  0.10000000000E+01 0.  0.
         -4    1    1    2    0  502 -0.21670612374E+02  0.94058383278E+01 -0.44252456248E+03  0.44315650343E+03  0.12700000000E+01 0. -1.
<mgrwt>
<rscale>  1 0.12721200E+03</rscale>
<asrwt>0</asrwt>
<pdfrwt beam="1">  1       21 0.37967112E-03 0.12721200E+03</pdfrwt>
<pdfrwt beam="2">  1       -4 0.35737384E+00 0.12721200E+03</pdfrwt>
<totfact> 0.11882170E+04</totfact>
</mgrwt>
</event>
<event>
 6    4  0.6326233E-003  0.1273797E+03  0.7818608E-02  0.1231396E+00
         21   -1    0    0  501  502  0.00000000000E+00  0.00000000000E+00  0.26276191808E+02  0.26276191808E+02  0.00000000000E+00 0.  1.
          4   -1    0    0  502    0 -0.00000000000E+00 -0.00000000000E+00 -0.80031393916E+03  0.80031494683E+03  0.12700000000E+01 0. -1.
         25    2    1    2    0    0 -0.22633689819E+02  0.92735316444E+01 -0.78811402287E+03  0.79834159463E+03  0.12500922516E+03 0.  0.
    9000005    1    3    3    0    0  0.23794268587E+02  0.21805631835E+02 -0.55949215324E+02  0.64598509988E+02  0.10000000000E+01 0.  0.
    9000005    1    3    3    0    0 -0.46427958406E+02 -0.12532100191E+02 -0.73216480754E+03  0.73374308464E+03  0.10000000000E+01 0.  0.
          4    1    1    2  501    0  0.22633689819E+02 -0.92735316444E+01  0.14076275515E+02  0.28249544003E+02  0.12700000000E+01 0.  1.
<mgrwt>
<rscale>  1 0.12737970E+03</rscale>
<asrwt>0</asrwt>
<pdfrwt beam="1">  1       21 0.40424913E-02 0.12737970E+03</pdfrwt>
<pdfrwt beam="2">  1        4 0.12312765E+00 0.12737970E+03</pdfrwt>
<totfact> 0.81682064E+03</totfact>
</mgrwt>
</event>
<event>
 6    4  0.6326233E-003  0.1285651E+03  0.7818608E-02  0.1229601E+00
         -4   -1    0    0    0  501 -0.00000000000E+00  0.00000000000E+00  0.24815935258E+03  0.24816260228E+03  0.12700000000E+01 0. -1.
         21   -1    0    0  501  502  0.00000000000E+00 -0.00000000000E+00 -0.36307745303E+02  0.36307745303E+02  0.00000000000E+00 0.  1.
         25    2    1    2    0    0  0.20395860281E+02 -0.22089389633E+02  0.21862473799E+03  0.25362524342E+03  0.12500022315E+03 0.  0.
    9000005    1    3    3    0    0 -0.16385700581E+02 -0.65244865617E+02  0.84563503464E+02  0.10806187945E+03  0.10000000000E+01 0.  0.
    9000005    1    3    3    0    0  0.36781560862E+02  0.43155475984E+02  0.13406123453E+03  0.14556336397E+03  0.10000000000E+01 0.  0.
         -4    1    1    2    0  502 -0.20395860281E+02  0.22089389633E+02 -0.67731307199E+01  0.30845104161E+02  0.12700000000E+01 0.  1.
<mgrwt>
<rscale>  1 0.12856511E+03</rscale>
<asrwt>0</asrwt>
<pdfrwt beam="2">  1       21 0.55858071E-02 0.12856511E+03</pdfrwt>
<pdfrwt beam="1">  1       -4 0.38180319E-01 0.12856511E+03</pdfrwt>
<totfact> 0.59534593E+04</totfact>
</mgrwt>
</event>
<event>
 6    4  0.6326233E-003  0.1283108E+03  0.7818608E-02  0.1229984E+00
         -4   -1    0    0    0  501 -0.00000000000E+00  0.00000000000E+00  0.52953012297E+03  0.52953164592E+03  0.12700000000E+01 0.  1.
         21   -1    0    0  501  502  0.00000000000E+00 -0.00000000000E+00 -0.43549870457E+02  0.43549870457E+02  0.00000000000E+00 0. -1.
         25    2    1    2    0    0  0.14436930635E+02  0.25104872578E+02  0.51578479170E+03  0.53150504407E+03  0.12499992372E+03 0.  0.
    9000005    1    3    3    0    0  0.42510270983E+02 -0.32170318088E+02  0.13046676674E+03  0.14094193744E+03  0.10000000000E+01 0.  0.
    9000005    1    3    3    0    0 -0.28073340349E+02  0.57275190666E+02  0.38531802496E+03  0.39056310663E+03  0.10000000000E+01 0.  0.
         -4    1    1    2    0  502 -0.14436930635E+02 -0.25104872578E+02 -0.29804539188E+02  0.41576472308E+02  0.12700000000E+01 0. -1.
<mgrwt>
<rscale>  1 0.12831080E+03</rscale>
<asrwt>0</asrwt>
<pdfrwt beam="2">  1       21 0.66999804E-02 0.12831080E+03</pdfrwt>
<pdfrwt beam="1">  1       -4 0.81467710E-01 0.12831080E+03</pdfrwt>
<totfact> 0.90656477E+03</totfact>
</mgrwt>
</event>
<event>
 6    4  0.6326233E-003  0.1272123E+03  0.7818608E-02  0.1231652E+00
         21   -1    0    0  501  502  0.00000000000E+00  0.00000000000E+00  0.12100292099E+03  0.12100292099E+03  0.00000000000E+00 0.  1.
         -4   -1    0    0    0  501 -0.00000000000E+00 -0.00000000000E+00 -0.52731646771E+02  0.52746938026E+02  0.12700000000E+01 0. -1.
         25    2    1    2    0    0 -0.60537759650E+01 -0.22842649353E+02  0.33255956566E+02  0.13148734367E+03  0.12499811225E+03 0.  0.
    9000005    1    3    3    0    0 -0.66555502230E+01  0.11604816178E+02 -0.44476702908E+02  0.46455841493E+02  0.10000000000E+01 0.  0.
    9000005    1    3    3    0    0  0.60177425795E+00 -0.34447465531E+02  0.77732659474E+02  0.85031502178E+02  0.10000000000E+01 0.  0.
         -4    1    1    2    0  502  0.60537759650E+01  0.22842649353E+02  0.35015317651E+02  0.42262515342E+02  0.12700000000E+01 0.  1.
<mgrwt>
<rscale>  1 0.12721227E+03</rscale>
<asrwt>0</asrwt>
<pdfrwt beam="1">  1       21 0.18615834E-01 0.12721227E+03</pdfrwt>
<pdfrwt beam="2">  1       -4 0.81142500E-02 0.12721227E+03</pdfrwt>
<totfact> 0.11369836E+05</totfact>
</mgrwt>
</event>
<event>
 6    4  0.6326233E-003  0.1285144E+03  0.7818608E-02  0.1229677E+00
          4   -1    0    0  502    0 -0.00000000000E+00  0.00000000000E+00  0.55467232819E+01  0.56902582688E+01  0.12700000000E+01 0. -1.
         21   -1    0    0  501  502  0.00000000000E+00 -0.00000000000E+00 -0.11552700634E+04  0.11552700634E+04  0.00000000000E+00 0. -1.
         25    2    1    2    0    0 -0.17617039334E+02  0.24247127427E+02 -0.83803326965E+03  0.84783000345E+03  0.12497067830E+03 0.  0.
    9000005    1    3    3    0    0 -0.20959414935E+02  0.38397217642E+02 -0.94336759540E+02  0.10399070919E+03  0.10000000000E+01 0.  0.
    9000005    1    3    3    0    0  0.33423756006E+01 -0.14150090216E+02 -0.74369651011E+03  0.74383929426E+03  0.10000000000E+01 0.  0.
          4    1    1    2  501    0  0.17617039334E+02 -0.24247127427E+02 -0.31169007047E+03  0.31313031823E+03  0.12700000000E+01 0.  1.
<mgrwt>
<rscale>  1 0.12851441E+03</rscale>
<asrwt>0</asrwt>
<pdfrwt beam="2">  1       21 0.17773377E+00 0.12851441E+03</pdfrwt>
<pdfrwt beam="1">  1        4 0.86443733E-03 0.12851441E+03</pdfrwt>
<totfact> 0.28631509E+04</totfact>
</mgrwt>
</event>
<event>
 6    4  0.6326233E-003  0.1278925E+03  0.7818608E-02  0.1230617E+00
         -4   -1    0    0    0  501 -0.00000000000E+00  0.00000000000E+00  0.45359290933E+02  0.45377066608E+02  0.12700000000E+01 0. -1.
         21   -1    0    0  501  502  0.00000000000E+00 -0.00000000000E+00 -0.41423072034E+03  0.41423072034E+03  0.00000000000E+00 0.  1.
         25    2    1    2    0    0 -0.24316838911E+02 -0.11842007921E+02 -0.46473108445E+02  0.13607443153E+03  0.12499983721E+03 0.  0.
    9000005    1    3    3    0    0  0.18118389462E+02 -0.60507731392E+02 -0.26232503377E+02  0.68400335002E+02  0.10000000000E+01 0.  0.
    9000005    1    3    3    0    0 -0.42435228373E+02  0.48665723471E+02 -0.20240605068E+02  0.67674096533E+02  0.10000000000E+01 0.  0.
         -4    1    1    2    0  502  0.24316838911E+02  0.11842007921E+02 -0.32239832096E+03  0.32353335541E+03  0.12700000000E+01 0.  1.
<mgrwt>
<rscale>  1 0.12789254E+03</rscale>
<asrwt>0</asrwt>
<pdfrwt beam="2">  1       21 0.63727803E-01 0.12789254E+03</pdfrwt>
<pdfrwt beam="1">  1       -4 0.69798696E-02 0.12789254E+03</pdfrwt>
<totfact> 0.12908712E+04</totfact>
</mgrwt>
</event>
<event>
 6    4  0.6326233E-003  0.1308658E+03  0.7818608E-02  0.1226177E+00
         21   -1    0    0  501  502  0.00000000000E+00  0.00000000000E+00  0.80831860135E+03  0.80831860135E+03  0.00000000000E+00 0. -1.
          4   -1    0    0  502    0 -0.00000000000E+00 -0.00000000000E+00 -0.13543979878E+02  0.13603392626E+02  0.12700000000E+01 0. -1.
         25    2    1    2    0    0 -0.38637264255E+02 -0.27599269368E+01  0.32222304148E+03  0.34778376093E+03  0.12500160206E+03 0.  0.
    9000005    1    3    3    0    0 -0.38403366953E+01  0.23268021095E+02  0.29616754599E+03  0.29710665474E+03  0.10000000000E+01 0.  0.
    9000005    1    3    3    0    0 -0.34796927560E+02 -0.26027948032E+02  0.26055495486E+02  0.50677106186E+02  0.10000000000E+01 0.  0.
          4    1    1    2  501    0  0.38637264255E+02  0.27599269368E+01  0.47255157999E+03  0.47413823305E+03  0.12700000000E+01 0.  1.
<mgrwt>
<rscale>  1 0.13086579E+03</rscale>
<asrwt>0</asrwt>
<pdfrwt beam="1">  1       21 0.12435667E+00 0.13086579E+03</pdfrwt>
<pdfrwt beam="2">  1        4 0.20883368E-02 0.13086579E+03</pdfrwt>
<totfact> 0.18956553E+04</totfact>
</mgrwt>
</event>
<event>
 6    4  0.6326233E-003  0.1280778E+03  0.7818608E-02  0.1230336E+00
         21   -1    0    0  501  502  0.00000000000E+00  0.00000000000E+00  0.10560513318E+02  0.10560513318E+02  0.00000000000E+00 0.  1.
         -4   -1    0    0    0  501 -0.00000000000E+00 -0.00000000000E+00 -0.57979034054E+03  0.57979173147E+03  0.12700000000E+01 0.  1.
         25    2    1    2    0    0  0.11957403197E+02  0.25217075384E+02 -0.48405825187E+03  0.50071580951E+03  0.12500020123E+03 0.  0.
    9000005    1    3    3    0    0  0.43386950364E+02  0.60126693094E+02 -0.21113931728E+03  0.22378216637E+03  0.10000000000E+01 0.  0.
    9000005    1    3    3    0    0 -0.31429547168E+02 -0.34909617710E+02 -0.27291893459E+03  0.27693364313E+03  0.10000000000E+01 0.  0.
         -4    1    1    2    0  502 -0.11957403197E+02 -0.25217075384E+02 -0.85171575353E+02  0.89636435283E+02  0.12700000000E+01 0. -1.
<mgrwt>
<rscale>  1 0.12807783E+03</rscale>
<asrwt>0</asrwt>
<pdfrwt beam="1">  1       21 0.16246943E-02 0.12807783E+03</pdfrwt>
<pdfrwt beam="2">  1       -4 0.89204501E-01 0.12807783E+03</pdfrwt>
<totfact> 0.76528640E+04</totfact>
</mgrwt>
</event>
<event>
 6    4  0.6326233E-003  0.1313175E+03  0.7818608E-02  0.1225514E+00
         -4   -1    0    0    0  501 -0.00000000000E+00  0.00000000000E+00  0.11753722333E+03  0.11754408436E+03  0.12700000000E+01 0.  1.
         21   -1    0    0  501  502  0.00000000000E+00 -0.00000000000E+00 -0.64189348920E+02  0.64189348920E+02  0.00000000000E+00 0.  1.
         25    2    1    2    0    0  0.27824347245E+02 -0.29067574541E+02  0.52622035331E+02  0.14146858593E+03  0.12500065606E+03 0.  0.
    9000005    1    3    3    0    0  0.23804018048E+02 -0.26619277242E+02  0.93612098067E+02  0.10019701643E+03  0.10000000000E+01 0.  0.
    9000005    1    3    3    0    0  0.40203291971E+01 -0.24482972990E+01 -0.40990062736E+02  0.41271569508E+02  0.10000000000E+01 0.  0.
         -4    1    1    2    0  502 -0.27824347245E+02  0.29067574541E+02  0.72583907654E+00  0.40264847345E+02  0.12700000000E+01 0. -1.
<mgrwt>
<rscale>  1 0.13131749E+03</rscale>
<asrwt>0</asrwt>
<pdfrwt beam="2">  1       21 0.98752845E-02 0.13131749E+03</pdfrwt>
<pdfrwt beam="1">  1       -4 0.18084144E-01 0.13131749E+03</pdfrwt>
<totfact> 0.90027078E+04</totfact>
</mgrwt>
</event>
<event>
 6    4  0.6326233E-003  0.1285527E+03  0.7818608E-02  0.1229619E+00
         21   -1    0    0  501  502  0.00000000000E+00  0.00000000000E+00  0.95896312350E+01  0.95896312350E+01  0.00000000000E+00 0. -1.
         -4   -1    0    0    0  501 -0.00000000000E+00 -0.00000000000E+00 -0.65641966244E+03  0.65642089100E+03  0.12700000000E+01 0. -1.
         25    2    1    2    0    0 -0.20140560972E+02 -0.22350355782E+02 -0.51994986902E+03  0.53560588636E+03  0.12498247323E+03 0.  0.
    9000005    1    3    3    0    0 -0.54133646408E+02 -0.10987736380E+02 -0.10098326293E+03  0.11510778173E+03  0.10000000000E+01 0.  0.
    9000005    1    3    3    0    0  0.33993085436E+02 -0.11362619402E+02 -0.41896660609E+03  0.42049810463E+03  0.10000000000E+01 0.  0.
         -4    1    1    2    0  502  0.20140560972E+02  0.22350355782E+02 -0.12688016219E+03  0.13040463587E+03  0.12700000000E+01 0.  1.
<mgrwt>
<rscale>  1 0.12855271E+03</rscale>
<asrwt>0</asrwt>
<pdfrwt beam="1">  1       21 0.14753281E-02 0.12855271E+03</pdfrwt>
<pdfrwt beam="2">  1       -4 0.10099419E+00 0.12855271E+03</pdfrwt>
<totfact> 0.67295881E+04</totfact>
</mgrwt>
</event>
<event>
 6    4  0.6326233E-003  0.1397805E+03  0.7818608E-02  0.1213625E+00
         21   -1    0    0  501  502  0.00000000000E+00  0.00000000000E+00  0.20066652188E+03  0.20066652188E+03  0.00000000000E+00 0. -1.
         -4   -1    0    0    0  501 -0.00000000000E+00 -0.00000000000E+00 -0.54681953745E+02  0.54696699767E+02  0.12700000000E+01 0.  1.
         25    2    1    2    0    0  0.56707188735E+02 -0.26411472114E+02  0.68182599261E+02  0.15552319774E+03  0.12500130831E+03 0.  0.
    9000005    1    3    3    0    0  0.37099645282E+02 -0.51356425206E+02  0.94847712863E+02  0.11406557204E+03  0.10000000000E+01 0.  0.
    9000005    1    3    3    0    0  0.19607543454E+02  0.24944953092E+02 -0.26665113601E+02  0.41457625697E+02  0.10000000000E+01 0.  0.
         -4    1    1    2    0  502 -0.56707188735E+02  0.26411472114E+02  0.77801968875E+02  0.99840023910E+02  0.12700000000E+01 0. -1.
<mgrwt>
<rscale>  1 0.13978054E+03</rscale>
<asrwt>0</asrwt>
<pdfrwt beam="1">  1       21 0.30871772E-01 0.13978054E+03</pdfrwt>
<pdfrwt beam="2">  1       -4 0.84140519E-02 0.13978054E+03</pdfrwt>
<totfact> 0.41738963E+04</totfact>
</mgrwt>
</event>
<event>
 6    4  0.6326233E-003  0.1265714E+03  0.7818608E-02  0.1232634E+00
         -4   -1    0    0    0  501 -0.00000000000E+00  0.00000000000E+00  0.60333284282E+02  0.60346649387E+02  0.12700000000E+01 0. -1.
         21   -1    0    0  501  502  0.00000000000E+00 -0.00000000000E+00 -0.14937856069E+03  0.14937856069E+03  0.00000000000E+00 0. -1.
         25    2    1    2    0    0 -0.16459068106E+01 -0.20064719716E+02 -0.86818947092E+01  0.12686878000E+03  0.12496003384E+03 0.  0.
    9000005    1    3    3    0    0 -0.30664361961E+02 -0.46953227339E+02 -0.45951354631E+02  0.72508176397E+02  0.10000000000E+01 0.  0.
    9000005    1    3    3    0    0  0.29018455151E+02  0.26888507623E+02  0.37269459922E+02  0.54360603606E+02  0.10000000000E+01 0.  0.
         -4    1    1    2    0  502  0.16459068106E+01  0.20064719716E+02 -0.80363381699E+02  0.82856430074E+02  0.12700000000E+01 0.  1.
<mgrwt>
<rscale>  1 0.12657137E+03</rscale>
<asrwt>0</asrwt>
<pdfrwt beam="2">  1       21 0.22981317E-01 0.12657137E+03</pdfrwt>
<pdfrwt beam="1">  1       -4 0.92834872E-02 0.12657137E+03</pdfrwt>
<totfact> 0.61451054E+04</totfact>
</mgrwt>
</event>
<event>
 6    4  0.6326233E-003  0.1268703E+03  0.7818608E-02  0.1232175E+00
         -4   -1    0    0    0  501 -0.00000000000E+00  0.00000000000E+00  0.51902160973E+02  0.51917696537E+02  0.12700000000E+01 0.  1.
         21   -1    0    0  501  502  0.00000000000E+00 -0.00000000000E+00 -0.31405634071E+03  0.31405634071E+03  0.00000000000E+00 0. -1.
         25    2    1    2    0    0  0.70635697559E+00 -0.21695054229E+02 -0.26866488918E+02  0.12968378212E+03  0.12499960320E+03 0.  0.
    9000005    1    3    3    0    0  0.91789322832E+01 -0.59904798569E+02  0.24261769090E+02  0.65287603179E+02  0.10000000000E+01 0.  0.
    9000005    1    3    3    0    0 -0.84725753076E+01  0.38209744340E+02 -0.51128258009E+02  0.64396178939E+02  0.10000000000E+01 0.  0.
         -4    1    1    2    0  502 -0.70635697559E+00  0.21695054229E+02 -0.23528769082E+03  0.23629025513E+03  0.12700000000E+01 0. -1.
<mgrwt>
<rscale>  1 0.12687031E+03</rscale>
<asrwt>0</asrwt>
<pdfrwt beam="2">  1       21 0.48316361E-01 0.12687031E+03</pdfrwt>
<pdfrwt beam="1">  1       -4 0.79863403E-02 0.12687031E+03</pdfrwt>
<totfact> 0.18464692E+04</totfact>
</mgrwt>
</event>
<event>
 6    4  0.6326233E-003  0.1352549E+03  0.7818608E-02  0.1219860E+00
         -4   -1    0    0    0  501 -0.00000000000E+00  0.00000000000E+00  0.28889990389E+03  0.28890269533E+03  0.12700000000E+01 0. -1.
         21   -1    0    0  501  502  0.00000000000E+00 -0.00000000000E+00 -0.59195908747E+02  0.59195908747E+02  0.00000000000E+00 0.  1.
         25    2    1    2    0    0  0.51658899822E+02  0.73583698952E+00  0.25643223569E+03  0.28991617435E+03  0.12499885304E+03 0.  0.
    9000005    1    3    3    0    0 -0.38286394816E+01  0.32001488440E+02  0.20644006570E+03  0.20894318479E+03  0.10000000000E+01 0.  0.
    9000005    1    3    3    0    0  0.55487539303E+02 -0.31265651451E+02  0.49992169989E+02  0.80972989563E+02  0.10000000000E+01 0.  0.
         -4    1    1    2    0  502 -0.51658899822E+02 -0.73583698952E+00 -0.26728240541E+02  0.58182429730E+02  0.12700000000E+01 0.  1.
<mgrwt>
<rscale>  1 0.13525493E+03</rscale>
<asrwt>0</asrwt>
<pdfrwt beam="2">  1       21 0.91070631E-02 0.13525493E+03</pdfrwt>
<pdfrwt beam="1">  1       -4 0.44447401E-01 0.13525493E+03</pdfrwt>
<totfact> 0.19194329E+04</totfact>
</mgrwt>
</event>
<event>
 6    4  0.6326233E-003  0.1290617E+03  0.7818608E-02  0.1228855E+00
         21   -1    0    0  501  502  0.00000000000E+00  0.00000000000E+00  0.29529322714E+04  0.29529322714E+04  0.00000000000E+00 0.  1.
         -4   -1    0    0    0  501 -0.00000000000E+00 -0.00000000000E+00 -0.69183154028E+01  0.70339169751E+01  0.12700000000E+01 0. -1.
         25    2    1    2    0    0 -0.10338118114E+01  0.32098164259E+02  0.59962887482E+03  0.61336099726E+03  0.12500225807E+03 0.  0.
    9000005    1    3    3    0    0 -0.61846786581E+01  0.75438514264E+02  0.48168129067E+03  0.48759315568E+03  0.10000000000E+01 0.  0.
    9000005    1    3    3    0    0  0.51508668468E+01 -0.43340350005E+02  0.11794758415E+03  0.12576784157E+03  0.10000000000E+01 0.  0.
         -4    1    1    2    0  502  0.10338118114E+01 -0.32098164259E+02  0.23463850811E+04  0.23466051911E+04  0.12700000000E+01 0.  1.
<mgrwt>
<rscale>  1 0.12906171E+03</rscale>
<asrwt>0</asrwt>
<pdfrwt beam="1">  1       21 0.45429628E+00 0.12906171E+03</pdfrwt>
<pdfrwt beam="2">  1       -4 0.10732720E-02 0.12906171E+03</pdfrwt>
<totfact> 0.46320821E+02</totfact>
</mgrwt>
</event>
<event>
 6    4  0.6326233E-003  0.1284394E+03  0.7818608E-02  0.1229790E+00
         21   -1    0    0  501  502  0.00000000000E+00  0.00000000000E+00  0.44248993457E+01  0.44248993457E+01  0.00000000000E+00 0.  1.
          4   -1    0    0  502    0 -0.00000000000E+00 -0.00000000000E+00 -0.16040791691E+04  0.16040796719E+04  0.12700000000E+01 0.  1.
         25    2    1    2    0    0  0.17170846036E+01 -0.29467560834E+02 -0.14664071513E+04  0.14720212645E+04  0.12500153732E+03 0.  0.
    9000005    1    3    3    0    0  0.57737745721E+02 -0.68962412269E+01 -0.43835153522E+03  0.44219257553E+03  0.10000000000E+01 0.  0.
    9000005    1    3    3    0    0 -0.56020661117E+02 -0.22571319607E+02 -0.10280556161E+04  0.10298286890E+04  0.10000000000E+01 0.  0.
          4    1    1    2  501    0 -0.17170846036E+01  0.29467560834E+02 -0.13324711847E+03  0.13648330667E+03  0.12700000000E+01 0. -1.
<mgrwt>
<rscale>  1 0.12843936E+03</rscale>
<asrwt>0</asrwt>
<pdfrwt beam="1">  1       21 0.68075401E-03 0.12843936E+03</pdfrwt>
<pdfrwt beam="2">  1        4 0.24679537E+00 0.12843936E+03</pdfrwt>
<totfact> 0.21317216E+04</totfact>
</mgrwt>
</event>
<event>
 6    4  0.6326233E-003  0.1348354E+03  0.7818608E-02  0.1220452E+00
          4   -1    0    0  502    0 -0.00000000000E+00  0.00000000000E+00  0.12587531330E+03  0.12588171988E+03  0.12700000000E+01 0.  1.
         21   -1    0    0  501  502  0.00000000000E+00 -0.00000000000E+00 -0.11395626396E+03  0.11395626396E+03  0.00000000000E+00 0. -1.
         25    2    1    2    0    0  0.38755801514E+02  0.32458981988E+02  0.78660346601E+02  0.15610261901E+03  0.12499991949E+03 0.  0.
    9000005    1    3    3    0    0 -0.29651238169E+02 -0.29945605901E+02  0.27135003668E+02  0.50132261687E+02  0.10000000000E+01 0.  0.
    9000005    1    3    3    0    0  0.68407039682E+02  0.62404587889E+02  0.51525342933E+02  0.10597035733E+03  0.10000000000E+01 0.  0.
          4    1    1    2  501    0 -0.38755801514E+02 -0.32458981988E+02 -0.66741297253E+02  0.83735364820E+02  0.12700000000E+01 0. -1.
<mgrwt>
<rscale>  1 0.13483537E+03</rscale>
<asrwt>0</asrwt>
<pdfrwt beam="2">  1       21 0.17531733E-01 0.13483537E+03</pdfrwt>
<pdfrwt beam="1">  1        4 0.19366470E-01 0.13483537E+03</pdfrwt>
<totfact> 0.28662555E+04</totfact>
</mgrwt>
</event>
<event>
 6    4  0.6326233E-003  0.1301737E+03  0.7818608E-02  0.1227198E+00
         -4   -1    0    0    0  501 -0.00000000000E+00  0.00000000000E+00  0.42978271025E+02  0.42997031064E+02  0.12700000000E+01 0. -1.
         21   -1    0    0  501  502  0.00000000000E+00 -0.00000000000E+00 -0.18890155013E+03  0.18890155013E+03  0.00000000000E+00 0.  1.
         25    2    1    2    0    0 -0.35856782516E+02  0.58926404817E+01 -0.70194912748E+02  0.14789363827E+03  0.12499908160E+03 0.  0.
    9000005    1    3    3    0    0  0.22713569958E+01  0.33761903541E+02  0.24690080310E+02  0.41900182088E+02  0.10000000000E+01 0.  0.
    9000005    1    3    3    0    0 -0.38128139512E+02 -0.27869263059E+02 -0.94884993058E+02  0.10599345618E+03  0.10000000000E+01 0.  0.
         -4    1    1    2    0  502  0.35856782516E+02 -0.58926404817E+01 -0.75728366358E+02  0.84004942923E+02  0.12700000000E+01 0.  1.
<mgrwt>
<rscale>  1 0.13017374E+03</rscale>
<asrwt>0</asrwt>
<pdfrwt beam="2">  1       21 0.29061776E-01 0.13017374E+03</pdfrwt>
<pdfrwt beam="1">  1       -4 0.66138133E-02 0.13017374E+03</pdfrwt>
<totfact> 0.69192062E+04</totfact>
</mgrwt>
</event>
<event>
 6    4  0.6326233E-003  0.1380594E+03  0.7818608E-02  0.1215964E+00
         -4   -1    0    0    0  501 -0.00000000000E+00  0.00000000000E+00  0.37975657513E+02  0.37996887551E+02  0.12700000000E+01 0. -1.
         21   -1    0    0  501  502  0.00000000000E+00 -0.00000000000E+00 -0.25537838988E+03  0.25537838988E+03  0.00000000000E+00 0.  1.
         25    2    1    2    0    0 -0.19409935202E+02 -0.55341056249E+02 -0.14541832484E+03  0.20051653569E+03  0.12498405416E+03 0.  0.
    9000005    1    3    3    0    0  0.16614120306E+02 -0.84249814975E+02 -0.64741641235E+02  0.10754785180E+03  0.10000000000E+01 0.  0.
    9000005    1    3    3    0    0 -0.36024055508E+02  0.28908758726E+02 -0.80676683607E+02  0.92968683889E+02  0.10000000000E+01 0.  0.
         -4    1    1    2    0  502  0.19409935202E+02  0.55341056249E+02 -0.71984407527E+02  0.92858741744E+02  0.12700000000E+01 0.  1.
<mgrwt>
<rscale>  1 0.13805938E+03</rscale>
<asrwt>0</asrwt>
<pdfrwt beam="2">  1       21 0.39288982E-01 0.13805938E+03</pdfrwt>
<pdfrwt beam="1">  1       -4 0.58442850E-02 0.13805938E+03</pdfrwt>
<totfact> 0.47204439E+04</totfact>
</mgrwt>
</event>
<event>
 6    4  0.6326233E-003  0.1305927E+03  0.7818608E-02  0.1226579E+00
          4   -1    0    0  502    0 -0.00000000000E+00  0.00000000000E+00  0.23997337481E+02  0.24030919795E+02  0.12700000000E+01 0. -1.
         21   -1    0    0  501  502  0.00000000000E+00 -0.00000000000E+00 -0.36170960404E+03  0.36170960404E+03  0.00000000000E+00 0.  1.
         25    2    1    2    0    0  0.27634463822E+02  0.25796972184E+02 -0.17308968421E+03  0.21682825405E+03  0.12500122243E+03 0.  0.
    9000005    1    3    3    0    0  0.48561612708E+02  0.64044936174E+02 -0.77022573500E+02  0.11132592199E+03  0.10000000000E+01 0.  0.
    9000005    1    3    3    0    0 -0.20927148886E+02 -0.38247963990E+02 -0.96067110712E+02  0.10550233206E+03  0.10000000000E+01 0.  0.
          4    1    1    2  501    0 -0.27634463822E+02 -0.25796972184E+02 -0.16462258234E+03  0.16891226978E+03  0.12700000000E+01 0.  1.
<mgrwt>
<rscale>  1 0.13059270E+03</rscale>
<asrwt>0</asrwt>
<pdfrwt beam="2">  1       21 0.55647628E-01 0.13059270E+03</pdfrwt>
<pdfrwt beam="1">  1        4 0.36946531E-02 0.13059270E+03</pdfrwt>
<totfact> 0.47968610E+04</totfact>
</mgrwt>
</event>
<event>
 6    4  0.6326233E-003  0.1269892E+03  0.7818608E-02  0.1231993E+00
         -4   -1    0    0    0  501 -0.00000000000E+00  0.00000000000E+00  0.12179307567E+03  0.12179969697E+03  0.12700000000E+01 0.  1.
         21   -1    0    0  501  502  0.00000000000E+00 -0.00000000000E+00 -0.48384613256E+02  0.48384613256E+02  0.00000000000E+00 0.  1.
         25    2    1    2    0    0  0.17630143852E+02 -0.13835505546E+02  0.75337293220E+02  0.14765485230E+03  0.12499601783E+03 0.  0.
    9000005    1    3    3    0    0  0.65791022962E+02 -0.32557478859E+02  0.31500291777E+02  0.79885646484E+02  0.10000000000E+01 0.  0.
    9000005    1    3    3    0    0 -0.48160879111E+02  0.18721973313E+02  0.43837001443E+02  0.67769205816E+02  0.10000000000E+01 0.  0.
         -4    1    1    2    0  502 -0.17630143852E+02  0.13835505546E+02 -0.19288308064E+01  0.22529457921E+02  0.12700000000E+01 0. -1.
<mgrwt>
<rscale>  1 0.12698916E+03</rscale>
<asrwt>0</asrwt>
<pdfrwt beam="2">  1       21 0.74437867E-02 0.12698916E+03</pdfrwt>
<pdfrwt beam="1">  1       -4 0.18739187E-01 0.12698916E+03</pdfrwt>
<totfact> 0.13719104E+05</totfact>
</mgrwt>
</event>
<event>
 6    4  0.6326233E-003  0.1339491E+03  0.7818608E-02  0.1221711E+00
         21   -1    0    0  501  502  0.00000000000E+00  0.00000000000E+00  0.41854419086E+02  0.41854419086E+02  0.00000000000E+00 0. -1.
          4   -1    0    0  502    0 -0.00000000000E+00 -0.00000000000E+00 -0.48841388921E+03  0.48841554037E+03  0.12700000000E+01 0.  1.
         25    2    1    2    0    0 -0.27824182966E+02 -0.39279047148E+02 -0.46094626896E+03  0.48001439675E+03  0.12500131806E+03 0.  0.
    9000005    1    3    3    0    0 -0.82490222605E+00  0.24968552422E+02 -0.33611730661E+03  0.33704592102E+03  0.10000000000E+01 0.  0.
    9000005    1    3    3    0    0 -0.26999280740E+02 -0.64247599570E+02 -0.12482896234E+03  0.14296847572E+03  0.10000000000E+01 0.  0.
          4    1    1    2  501    0  0.27824182966E+02  0.39279047148E+02  0.14386798831E+02  0.50255562709E+02  0.12700000000E+01 0. -1.
<mgrwt>
<rscale>  1 0.13394909E+03</rscale>
<asrwt>0</asrwt>
<pdfrwt beam="1">  1       21 0.64391418E-02 0.13394909E+03</pdfrwt>
<pdfrwt beam="2">  1        4 0.75142203E-01 0.13394909E+03</pdfrwt>
<totfact> 0.11636049E+04</totfact>
</mgrwt>
</event>
<event>
 6    4  0.6326233E-003  0.1402860E+03  0.7818608E-02  0.1212945E+00
         21   -1    0    0  501  502  0.00000000000E+00  0.00000000000E+00  0.85326896714E+03  0.85326896714E+03  0.00000000000E+00 0.  1.
         -4   -1    0    0    0  501 -0.00000000000E+00 -0.00000000000E+00 -0.24290642047E+02  0.24323819417E+02  0.12700000000E+01 0. -1.
         25    2    1    2    0    0  0.43097304454E+02  0.47008208377E+02  0.19394194598E+03  0.23936088121E+03  0.12495200573E+03 0.  0.
    9000005    1    3    3    0    0  0.32509414609E+02  0.86504076613E+02  0.96166410570E+02  0.13337464463E+03  0.10000000000E+01 0.  0.
    9000005    1    3    3    0    0  0.10587889845E+02 -0.39495868236E+02  0.97775535406E+02  0.10598623657E+03  0.10000000000E+01 0.  0.
         -4    1    1    2    0  502 -0.43097304454E+02 -0.47008208377E+02  0.63503637911E+03  0.63823190535E+03  0.12700000000E+01 0.  1.
<mgrwt>
<rscale>  1 0.14028597E+03</rscale>
<asrwt>0</asrwt>
<pdfrwt beam="1">  1       21 0.13127213E+00 0.14028597E+03</pdfrwt>
<pdfrwt beam="2">  1       -4 0.37396473E-02 0.14028597E+03</pdfrwt>
<totfact> 0.66964111E+03</totfact>
</mgrwt>
</event>
<event>
 6    4  0.6326233E-003  0.1267743E+03  0.7818608E-02  0.1232322E+00
         -4   -1    0    0    0  501 -0.00000000000E+00  0.00000000000E+00  0.18244058709E+03  0.18244500738E+03  0.12700000000E+01 0. -1.
         21   -1    0    0  501  502  0.00000000000E+00 -0.00000000000E+00 -0.73487948929E+02  0.73487948929E+02  0.00000000000E+00 0.  1.
         25    2    1    2    0    0 -0.10670535055E+02  0.18269795660E+02  0.15795811878E+03  0.20254011238E+03  0.12499633628E+03 0.  0.
    9000005    1    3    3    0    0 -0.56531241091E+01  0.18123768648E+02  0.17944642433E+03  0.18045068026E+03  0.10000000000E+01 0.  0.
    9000005    1    3    3    0    0 -0.50174109458E+01  0.14602701208E+00 -0.21488305543E+02  0.22089432125E+02  0.10000000000E+01 0.  0.
         -4    1    1    2    0  502  0.10670535055E+02 -0.18269795660E+02 -0.49005480620E+02  0.53392843927E+02  0.12700000000E+01 0.  1.
<mgrwt>
<rscale>  1 0.12677433E+03</rscale>
<asrwt>0</asrwt>
<pdfrwt beam="2">  1       21 0.11305838E-01 0.12677433E+03</pdfrwt>
<pdfrwt beam="1">  1       -4 0.28068967E-01 0.12677433E+03</pdfrwt>
<totfact> 0.31715751E+04</totfact>
</mgrwt>
</event>
<event>
 6    4  0.6326233E-003  0.1308359E+03  0.7818608E-02  0.1226221E+00
          4   -1    0    0  502    0 -0.00000000000E+00  0.00000000000E+00  0.19383622862E+03  0.19384038905E+03  0.12700000000E+01 0. -1.
         21   -1    0    0  501  502  0.00000000000E+00 -0.00000000000E+00 -0.15312354277E+03  0.15312354277E+03  0.00000000000E+00 0.  1.
         25    2    1    2    0    0 -0.34907838882E+02  0.16509674106E+02  0.16857566231E+03  0.21339117935E+03  0.12500765954E+03 0.  0.
    9000005    1    3    3    0    0 -0.80866689113E+02  0.21000599161E+02  0.94974105769E+02  0.12649714360E+03  0.10000000000E+01 0.  0.
    9000005    1    3    3    0    0  0.45958850231E+02 -0.44909250550E+01  0.73601556542E+02  0.86894035744E+02  0.10000000000E+01 0.  0.
          4    1    1    2  501    0  0.34907838882E+02 -0.16509674106E+02 -0.12786297646E+03  0.13357275247E+03  0.12700000000E+01 0.  1.
<mgrwt>
<rscale>  1 0.13083593E+03</rscale>
<asrwt>0</asrwt>
<pdfrwt beam="2">  1       21 0.23557468E-01 0.13083593E+03</pdfrwt>
<pdfrwt beam="1">  1        4 0.29821683E-01 0.13083593E+03</pdfrwt>
<totfact> 0.74785752E+03</totfact>
</mgrwt>
</event>
<event>
 6    4  0.6326233E-003  0.1275465E+03  0.7818608E-02  0.1231142E+00
          4   -1    0    0  502    0 -0.00000000000E+00  0.00000000000E+00  0.13910896204E+04  0.13910902001E+04  0.12700000000E+01 0.  1.
         21   -1    0    0  501  502  0.00000000000E+00 -0.00000000000E+00 -0.54328008288E+01  0.54328008288E+01  0.00000000000E+00 0. -1.
         25    2    1    2    0    0  0.74816623883E+01 -0.24224042939E+02  0.13197098256E+04  0.13258590183E+04  0.12500133254E+03 0.  0.
    9000005    1    3    3    0    0 -0.36564102368E+02  0.18082480269E+02  0.18231314208E+03  0.18682342318E+03  0.10000000000E+01 0.  0.
    9000005    1    3    3    0    0  0.44045764757E+02 -0.42306523208E+02  0.11373966835E+04  0.11390355951E+04  0.10000000000E+01 0.  0.
          4    1    1    2  501    0 -0.74816623883E+01  0.24224042939E+02  0.65946993973E+02  0.70663982640E+02  0.12700000000E+01 0. -1.
<mgrwt>
<rscale>  1 0.12754651E+03</rscale>
<asrwt>0</asrwt>
<pdfrwt beam="2">  1       21 0.83581662E-03 0.12754651E+03</pdfrwt>
<pdfrwt beam="1">  1        4 0.21402497E+00 0.12754651E+03</pdfrwt>
<totfact> 0.24075657E+04</totfact>
</mgrwt>
</event>
<event>
 6    4  0.6326233E-003  0.1416417E+03  0.7818608E-02  0.1211137E+00
         -4   -1    0    0    0  501 -0.00000000000E+00  0.00000000000E+00  0.54051291393E+02  0.54066209422E+02  0.12700000000E+01 0. -1.
         21   -1    0    0  501  502  0.00000000000E+00 -0.00000000000E+00 -0.43983367708E+03  0.43983367708E+03  0.00000000000E+00 0.  1.
         25    2    1    2    0    0  0.66391472382E+02  0.53665162544E+01 -0.47914294008E+02  0.14952641572E+03  0.12500296927E+03 0.  0.
    9000005    1    3    3    0    0  0.10091840075E+03  0.20953852708E+02 -0.28478602506E+02  0.10693745067E+03  0.10000000000E+01 0.  0.
    9000005    1    3    3    0    0 -0.34526928373E+02 -0.15587336453E+02 -0.19435691503E+02  0.42588965058E+02  0.10000000000E+01 0.  0.
         -4    1    1    2    0  502 -0.66391472382E+02 -0.53665162544E+01 -0.33786809168E+03  0.34437347078E+03  0.12700000000E+01 0.  1.
<mgrwt>
<rscale>  1 0.14164169E+03</rscale>
<asrwt>0</asrwt>
<pdfrwt beam="2">  1       21 0.67666718E-01 0.14164169E+03</pdfrwt>
<pdfrwt beam="1">  1       -4 0.83168720E-02 0.14164169E+03</pdfrwt>
<totfact> 0.85528389E+03</totfact>
</mgrwt>
</event>
<event>
 6    4  0.6326233E-003  0.1329000E+03  0.7818608E-02  0.1223215E+00
         -4   -1    0    0    0  501 -0.00000000000E+00  0.00000000000E+00  0.43067924839E+03  0.43068112089E+03  0.12700000000E+01 0.  1.
         21   -1    0    0  501  502  0.00000000000E+00 -0.00000000000E+00 -0.62785237499E+02  0.62785237499E+02  0.00000000000E+00 0. -1.
         25    2    1    2    0    0 -0.19301001517E+02 -0.40792939659E+02  0.41044667284E+03  0.43142657660E+03  0.12500330859E+03 0.  0.
    9000005    1    3    3    0    0 -0.22940872894E+02 -0.74374706919E+02  0.37279145611E+03  0.38083113112E+03  0.10000000000E+01 0.  0.
    9000005    1    3    3    0    0  0.36398713771E+01  0.33581767261E+02  0.37655216730E+02  0.50595445477E+02  0.10000000000E+01 0.  0.
         -4    1    1    2    0  502  0.19301001517E+02  0.40792939659E+02 -0.42552661955E+02  0.62039781794E+02  0.12700000000E+01 0. -1.
<mgrwt>
<rscale>  1 0.13290004E+03</rscale>
<asrwt>0</asrwt>
<pdfrwt beam="2">  1       21 0.96592676E-02 0.13290004E+03</pdfrwt>
<pdfrwt beam="1">  1       -4 0.66259476E-01 0.13290004E+03</pdfrwt>
<totfact> 0.75824015E+03</totfact>
</mgrwt>
</event>
<event>
 6    4  0.6326233E-003  0.1360796E+03  0.7818608E-02  0.1218704E+00
         21   -1    0    0  501  502  0.00000000000E+00  0.00000000000E+00  0.43560760743E+02  0.43560760743E+02  0.00000000000E+00 0. -1.
         -4   -1    0    0    0  501 -0.00000000000E+00 -0.00000000000E+00 -0.33141114931E+03  0.33141358269E+03  0.12700000000E+01 0.  1.
         25    2    1    2    0    0  0.52367612230E+02 -0.12262740710E+02 -0.29083126074E+03  0.32109262000E+03  0.12499962710E+03 0.  0.
    9000005    1    3    3    0    0 -0.12808957280E+02 -0.37210331210E+02 -0.25900307439E+02  0.47122224701E+02  0.10000000000E+01 0.  0.
    9000005    1    3    3    0    0  0.65176569510E+02  0.24947590499E+02 -0.26493095330E+03  0.27397039530E+03  0.10000000000E+01 0.  0.
         -4    1    1    2    0  502 -0.52367612230E+02  0.12262740710E+02  0.29808721709E+01  0.53881723425E+02  0.12700000000E+01 0. -1.
<mgrwt>
<rscale>  1 0.13607957E+03</rscale>
<asrwt>0</asrwt>
<pdfrwt beam="1">  1       21 0.67016556E-02 0.13607957E+03</pdfrwt>
<pdfrwt beam="2">  1       -4 0.50987941E-01 0.13607957E+03</pdfrwt>
<totfact> 0.24692985E+04</totfact>
</mgrwt>
</event>
<event>
 6    4  0.6326233E-003  0.1292791E+03  0.7818608E-02  0.1228529E+00
         21   -1    0    0  501  502  0.00000000000E+00  0.00000000000E+00  0.69816198012E+02  0.69816198012E+02  0.00000000000E+00 0. -1.
         -4   -1    0    0    0  501 -0.00000000000E+00 -0.00000000000E+00 -0.11159647276E+03  0.11160369901E+03  0.12700000000E+01 0. -1.
         25    2    1    2    0    0 -0.20531599086E+02 -0.25838445218E+02 -0.61278346105E+02  0.14306680719E+03  0.12499561515E+03 0.  0.
    9000005    1    3    3    0    0  0.22990953333E+02 -0.63070174629E+01  0.31037178190E+02  0.39149314610E+02  0.10000000000E+01 0.  0.
    9000005    1    3    3    0    0 -0.43522552419E+02 -0.19531427755E+02 -0.92315524295E+02  0.10391749258E+03  0.10000000000E+01 0.  0.
         -4    1    1    2    0  502  0.20531599086E+02  0.25838445218E+02  0.19498071359E+02  0.38353089824E+02  0.12700000000E+01 0.  1.
<mgrwt>
<rscale>  1 0.12927906E+03</rscale>
<asrwt>0</asrwt>
<pdfrwt beam="1">  1       21 0.10740954E-01 0.12927906E+03</pdfrwt>
<pdfrwt beam="2">  1       -4 0.17170132E-01 0.12927906E+03</pdfrwt>
<totfact> 0.84990339E+04</totfact>
</mgrwt>
</event>
<event>
 6    4  0.6326233E-003  0.1271246E+03  0.7818608E-02  0.1231786E+00
         21   -1    0    0  501  502  0.00000000000E+00  0.00000000000E+00  0.18782507586E+03  0.18782507586E+03  0.00000000000E+00 0.  1.
         -4   -1    0    0    0  501 -0.00000000000E+00 -0.00000000000E+00 -0.30345179889E+02  0.30371744147E+02  0.12700000000E+01 0.  1.
         25    2    1    2    0    0  0.14631681040E+02 -0.17930055816E+02  0.12491210670E+03  0.17822374420E+03  0.12500038241E+03 0.  0.
    9000005    1    3    3    0    0  0.48473230913E+01  0.14588081796E+02 -0.22321664024E+02  0.27121308163E+02  0.10000000000E+01 0.  0.
    9000005    1    3    3    0    0  0.97843579485E+01 -0.32518137612E+02  0.14723377072E+03  0.15110243603E+03  0.10000000000E+01 0.  0.
         -4    1    1    2    0  502 -0.14631681040E+02  0.17930055816E+02  0.32567789274E+02  0.39973075811E+02  0.12700000000E+01 0. -1.
<mgrwt>
<rscale>  1 0.12712462E+03</rscale>
<asrwt>0</asrwt>
<pdfrwt beam="1">  1       21 0.28896165E-01 0.12712462E+03</pdfrwt>
<pdfrwt beam="2">  1       -4 0.46708630E-02 0.12712462E+03</pdfrwt>
<totfact> 0.12234663E+05</totfact>
</mgrwt>
</event>
<event>
 6    4  0.6326233E-003  0.1278339E+03  0.7818608E-02  0.1230706E+00
          4   -1    0    0  502    0 -0.00000000000E+00  0.00000000000E+00  0.10940244042E+04  0.10940251413E+04  0.12700000000E+01 0. -1.
         21   -1    0    0  501  502  0.00000000000E+00 -0.00000000000E+00 -0.55816543232E+01  0.55816543232E+01  0.00000000000E+00 0. -1.
         25    2    1    2    0    0  0.14764272836E+02  0.22339118990E+02  0.95311132867E+03  0.96164583577E+03  0.12499795446E+03 0.  0.
    9000005    1    3    3    0    0  0.61237785423E+02 -0.17734532794E+02  0.58353130318E+03  0.58700456711E+03  0.10000000000E+01 0.  0.
    9000005    1    3    3    0    0 -0.46473512587E+02  0.40073651784E+02  0.36958002550E+03  0.37464126866E+03  0.10000000000E+01 0.  0.
          4    1    1    2  501    0 -0.14764272836E+02 -0.22339118990E+02  0.13533142116E+03  0.13796095985E+03  0.12700000000E+01 0.  1.
<mgrwt>
<rscale>  1 0.12783391E+03</rscale>
<asrwt>0</asrwt>
<pdfrwt beam="2">  1       21 0.85871693E-03 0.12783391E+03</pdfrwt>
<pdfrwt beam="1">  1        4 0.16832245E+00 0.12783391E+03</pdfrwt>
<totfact> 0.45098125E+04</totfact>
</mgrwt>
</event>
<event>
 6    4  0.6326233E-003  0.1921742E+03  0.7818608E-02  0.1156515E+00
          4   -1    0    0  502    0 -0.00000000000E+00  0.00000000000E+00  0.11193964119E+03  0.11194684529E+03  0.12700000000E+01 0.  1.
         21   -1    0    0  501  502  0.00000000000E+00 -0.00000000000E+00 -0.46963175569E+03  0.46963175569E+03  0.00000000000E+00 0. -1.
         25    2    1    2    0    0 -0.97049724215E+02  0.10902801378E+03  0.32877976418E+01  0.19220234769E+03  0.12500070435E+03 0.  0.
    9000005    1    3    3    0    0 -0.90515586833E+02  0.43155160197E+02 -0.45343379967E+02  0.11005662823E+03  0.10000000000E+01 0.  0.
    9000005    1    3    3    0    0 -0.65341373812E+01  0.65872853578E+02  0.48631177609E+02  0.82145719459E+02  0.10000000000E+01 0.  0.
          4    1    1    2  501    0  0.97049724215E+02 -0.10902801378E+03 -0.36097991213E+03  0.38937625328E+03  0.12700000000E+01 0. -1.
<mgrwt>
<rscale>  1 0.19217423E+03</rscale>
<asrwt>0</asrwt>
<pdfrwt beam="2">  1       21 0.72251040E-01 0.19217423E+03</pdfrwt>
<pdfrwt beam="1">  1        4 0.17222169E-01 0.19217423E+03</pdfrwt>
<totfact> 0.21445084E+03</totfact>
</mgrwt>
</event>
<event>
 6    4  0.6326233E-003  0.1329252E+03  0.7818608E-02  0.1223179E+00
         -4   -1    0    0    0  501 -0.00000000000E+00  0.00000000000E+00  0.70381698139E+02  0.70393155441E+02  0.12700000000E+01 0.  1.
         21   -1    0    0  501  502  0.00000000000E+00 -0.00000000000E+00 -0.22517950769E+03  0.22517950769E+03  0.00000000000E+00 0. -1.
         25    2    1    2    0    0  0.30016447521E+02  0.33796742302E+02  0.14292244197E+01  0.13293285879E+03  0.12500358136E+03 0.  0.
    9000005    1    3    3    0    0  0.40196176209E+02  0.25030910882E+02  0.57941928581E+02  0.74836796892E+02  0.10000000000E+01 0.  0.
    9000005    1    3    3    0    0 -0.10179728688E+02  0.87658314198E+01 -0.56512704162E+02  0.58096061900E+02  0.10000000000E+01 0.  0.
         -4    1    1    2    0  502 -0.30016447521E+02 -0.33796742302E+02 -0.15622703397E+03  0.16263980434E+03  0.12700000000E+01 0. -1.
<mgrwt>
<rscale>  1 0.13292518E+03</rscale>
<asrwt>0</asrwt>
<pdfrwt beam="2">  1       21 0.34643001E-01 0.13292518E+03</pdfrwt>
<pdfrwt beam="1">  1       -4 0.10829110E-01 0.13292518E+03</pdfrwt>
<totfact> 0.21712587E+04</totfact>
</mgrwt>
</event>
<event>
 6    4  0.6326233E-003  0.1326190E+03  0.7818608E-02  0.1223621E+00
         -4   -1    0    0    0  501 -0.00000000000E+00  0.00000000000E+00  0.14847009518E+02  0.14901227856E+02  0.12700000000E+01 0.  1.
         21   -1    0    0  501  502  0.00000000000E+00 -0.00000000000E+00 -0.52687571065E+03  0.52687571065E+03  0.00000000000E+00 0. -1.
         25    2    1    2    0    0 -0.30931046657E+02 -0.31721395172E+02 -0.39200531932E+03  0.41383084970E+03  0.12499930092E+03 0.  0.
    9000005    1    3    3    0    0 -0.43997436218E+02  0.35774886315E+02 -0.24589837396E+03  0.25235417017E+03  0.10000000000E+01 0.  0.
    9000005    1    3    3    0    0  0.13066389560E+02 -0.67496281487E+02 -0.14610694536E+03  0.16147667953E+03  0.10000000000E+01 0.  0.
         -4    1    1    2    0  502  0.30931046657E+02  0.31721395172E+02 -0.12002338181E+03  0.12794608881E+03  0.12700000000E+01 0. -1.
<mgrwt>
<rscale>  1 0.13261901E+03</rscale>
<asrwt>0</asrwt>
<pdfrwt beam="2">  1       21 0.81057817E-01 0.13261901E+03</pdfrwt>
<pdfrwt beam="1">  1       -4 0.22884432E-02 0.13261901E+03</pdfrwt>
<totfact> 0.44969005E+04</totfact>
</mgrwt>
</event>
<event>
 6    4  0.6326233E-003  0.1384219E+03  0.7818608E-02  0.1215468E+00
         -4   -1    0    0    0  501 -0.00000000000E+00  0.00000000000E+00  0.53448807752E+03  0.53448958634E+03  0.12700000000E+01 0. -1.
         21   -1    0    0  501  502  0.00000000000E+00 -0.00000000000E+00 -0.11546653649E+03  0.11546653649E+03  0.00000000000E+00 0.  1.
         25    2    1    2    0    0 -0.10395461423E+02 -0.58543163828E+02  0.51707168575E+03  0.53527913548E+03  0.12500102813E+03 0.  0.
    9000005    1    3    3    0    0 -0.73080440664E+00 -0.13264622672E+02  0.46656659595E+03  0.46675675972E+03  0.10000000000E+01 0.  0.
    9000005    1    3    3    0    0 -0.96646570163E+01 -0.45278541157E+02  0.50505089798E+02  0.68522375762E+02  0.10000000000E+01 0.  0.
         -4    1    1    2    0  502  0.10395461423E+02  0.58543163828E+02 -0.98050144713E+02  0.11467698735E+03  0.12700000000E+01 0.  1.
<mgrwt>
<rscale>  1 0.13842191E+03</rscale>
<asrwt>0</asrwt>
<pdfrwt beam="2">  1       21 0.17764083E-01 0.13842191E+03</pdfrwt>
<pdfrwt beam="1">  1       -4 0.82229587E-01 0.13842191E+03</pdfrwt>
<totfact> 0.15986171E+03</totfact>
</mgrwt>
</event>
<event>
 6    4  0.6326233E-003  0.1345236E+03  0.7818608E-02  0.1220894E+00
          4   -1    0    0  502    0 -0.00000000000E+00  0.00000000000E+00  0.35628653053E+03  0.35628879401E+03  0.12700000000E+01 0. -1.
         21   -1    0    0  501  502  0.00000000000E+00 -0.00000000000E+00 -0.24775974594E+02  0.24775974594E+02  0.00000000000E+00 0.  1.
         25    2    1    2    0    0 -0.49656148958E+02 -0.32268036720E+01  0.20589118215E+03  0.24594265583E+03  0.12498186139E+03 0.  0.
    9000005    1    3    3    0    0 -0.57827645720E+02  0.15601353198E+02  0.26712739319E+02  0.65589704018E+02  0.10000000000E+01 0.  0.
    9000005    1    3    3    0    0  0.81714967622E+01 -0.18828156870E+02  0.17917844283E+03  0.18035295181E+03  0.10000000000E+01 0.  0.
          4    1    1    2  501    0  0.49656148958E+02  0.32268036720E+01  0.12561937378E+03  0.13512211278E+03  0.12700000000E+01 0.  1.
<mgrwt>
<rscale>  1 0.13452365E+03</rscale>
<asrwt>0</asrwt>
<pdfrwt beam="2">  1       21 0.38116887E-02 0.13452365E+03</pdfrwt>
<pdfrwt beam="1">  1        4 0.54815987E-01 0.13452365E+03</pdfrwt>
<totfact> 0.54925843E+04</totfact>
</mgrwt>
</event>
<event>
 6    4  0.6326233E-003  0.1286448E+03  0.7818608E-02  0.1229481E+00
          4   -1    0    0  502    0 -0.00000000000E+00  0.00000000000E+00  0.22408381753E+02  0.22444341666E+02  0.12700000000E+01 0.  1.
         21   -1    0    0  501  502  0.00000000000E+00 -0.00000000000E+00 -0.28551944027E+03  0.28551944027E+03  0.00000000000E+00 0.  1.
         25    2    1    2    0    0  0.29637098843E+02 -0.67953123057E+01 -0.22514290324E+03  0.25930448054E+03  0.12499981141E+03 0.  0.
    9000005    1    3    3    0    0 -0.49188374660E+00 -0.49374746330E+01  0.15740846071E+02  0.16534655739E+02  0.10000000000E+01 0.  0.
    9000005    1    3    3    0    0  0.30128982589E+02 -0.18578376727E+01 -0.24088374931E+03  0.24276982480E+03  0.10000000000E+01 0.  0.
          4    1    1    2  501    0 -0.29637098843E+02  0.67953123057E+01 -0.37968155283E+02  0.48659301400E+02  0.12700000000E+01 0. -1.
<mgrwt>
<rscale>  1 0.12864481E+03</rscale>
<asrwt>0</asrwt>
<pdfrwt beam="2">  1       21 0.43926066E-01 0.12864481E+03</pdfrwt>
<pdfrwt beam="1">  1        4 0.34504269E-02 0.12864481E+03</pdfrwt>
<totfact> 0.86837380E+04</totfact>
</mgrwt>
</event>
<event>
 6    4  0.6326233E-003  0.1279825E+03  0.7818608E-02  0.1230480E+00
          4   -1    0    0  502    0 -0.00000000000E+00  0.00000000000E+00  0.25980652476E+03  0.25980962878E+03  0.12700000000E+01 0. -1.
         21   -1    0    0  501  502  0.00000000000E+00 -0.00000000000E+00 -0.30712516753E+02  0.30712516753E+02  0.00000000000E+00 0.  1.
         25    2    1    2    0    0 -0.27299499197E+02  0.30973533406E+01  0.22977086787E+03  0.26300983387E+03  0.12499865894E+03 0.  0.
    9000005    1    3    3    0    0  0.72590781352E+00 -0.12020704580E+02  0.23081779686E+03  0.23113389978E+03  0.10000000000E+01 0.  0.
    9000005    1    3    3    0    0 -0.28025407010E+02  0.15118057921E+02 -0.10469289963E+01  0.31875934084E+02  0.10000000000E+01 0.  0.
          4    1    1    2  501    0  0.27299499197E+02 -0.30973533406E+01 -0.67685985841E+00  0.27512311669E+02  0.12700000000E+01 0.  1.
<mgrwt>
<rscale>  1 0.12798250E+03</rscale>
<asrwt>0</asrwt>
<pdfrwt beam="2">  1       21 0.47250028E-02 0.12798250E+03</pdfrwt>
<pdfrwt beam="1">  1        4 0.39972492E-01 0.12798250E+03</pdfrwt>
<totfact> 0.72062293E+04</totfact>
</mgrwt>
</event>
<event>
 6    4  0.6326233E-003  0.1990181E+03  0.7818608E-02  0.1150570E+00
         -4   -1    0    0    0  501 -0.00000000000E+00  0.00000000000E+00  0.87443666234E+03  0.87443758459E+03  0.12700000000E+01 0. -1.
         21   -1    0    0  501  502  0.00000000000E+00 -0.00000000000E+00 -0.52129812134E+02  0.52129812134E+02  0.00000000000E+00 0.  1.
         25    2    1    2    0    0 -0.15429370356E+03 -0.13314778630E+02  0.70424630889E+03  0.73182722469E+03  0.12499757167E+03 0.  0.
    9000005    1    3    3    0    0 -0.17520431579E+03 -0.60869017826E+01  0.65017693977E+03  0.67339784352E+03  0.10000000000E+01 0.  0.
    9000005    1    3    3    0    0  0.20910612225E+02 -0.72278768472E+01  0.54069369119E+02  0.58429381173E+02  0.10000000000E+01 0.  0.
         -4    1    1    2    0  502  0.15429370356E+03  0.13314778630E+02  0.11806054132E+03  0.19474017204E+03  0.12700000000E+01 0.  1.
<mgrwt>
<rscale>  1 0.19901815E+03</rscale>
<asrwt>0</asrwt>
<pdfrwt beam="2">  1       21 0.80199717E-02 0.19901815E+03</pdfrwt>
<pdfrwt beam="1">  1       -4 0.13452997E+00 0.19901815E+03</pdfrwt>
<totfact> 0.21043437E+03</totfact>
</mgrwt>
</event>
<event>
 6    4  0.6326233E-003  0.1273613E+03  0.7818608E-02  0.1231424E+00
         21   -1    0    0  501  502  0.00000000000E+00  0.00000000000E+00  0.25827379316E+03  0.25827379316E+03  0.00000000000E+00 0.  1.
          4   -1    0    0  502    0 -0.00000000000E+00 -0.00000000000E+00 -0.29242090031E+02  0.29269655437E+02  0.12700000000E+01 0.  1.
         25    2    1    2    0    0 -0.22647186566E+02  0.90747025483E+01  0.11721957595E+03  0.17309341596E+03  0.12500262548E+03 0.  0.
    9000005    1    3    3    0    0 -0.61438764046E+02  0.62834622010E+01  0.14774455793E+02  0.63509748612E+02  0.10000000000E+01 0.  0.
    9000005    1    3    3    0    0  0.38791577480E+02  0.27912403473E+01  0.10244512015E+03  0.10958366735E+03  0.10000000000E+01 0.  0.
          4    1    1    2  501    0  0.22647186566E+02 -0.90747025483E+01  0.11181212718E+03  0.11445003264E+03  0.12700000000E+01 0. -1.
<mgrwt>
<rscale>  1 0.12736130E+03</rscale>
<asrwt>0</asrwt>
<pdfrwt beam="1">  1       21 0.39734428E-01 0.12736130E+03</pdfrwt>
<pdfrwt beam="2">  1        4 0.45011439E-02 0.12736130E+03</pdfrwt>
<totfact> 0.69620381E+04</totfact>
</mgrwt>
</event>
<event>
 6    4  0.6326233E-003  0.1328277E+03  0.7818608E-02  0.1223319E+00
         21   -1    0    0  501  502  0.00000000000E+00  0.00000000000E+00  0.31233953454E+02  0.31233953454E+02  0.00000000000E+00 0. -1.
          4   -1    0    0  502    0 -0.00000000000E+00 -0.00000000000E+00 -0.59520898257E+03  0.59521033747E+03  0.12700000000E+01 0.  1.
         25    2    1    2    0    0  0.38241358033E+02 -0.23578003988E+02 -0.56607651979E+03  0.58145148150E+03  0.12499950140E+03 0.  0.
    9000005    1    3    3    0    0 -0.91109307772E+01  0.16172147437E+02 -0.84709069516E+01  0.20428012065E+02  0.10000000000E+01 0.  0.
    9000005    1    3    3    0    0  0.47352288810E+02 -0.39750151425E+02 -0.55760561284E+03  0.56102346944E+03  0.10000000000E+01 0.  0.
          4    1    1    2  501    0 -0.38241358033E+02  0.23578003988E+02  0.21014906754E+01  0.44992809418E+02  0.12700000000E+01 0. -1.
<mgrwt>
<rscale>  1 0.13282770E+03</rscale>
<asrwt>0</asrwt>
<pdfrwt beam="1">  1       21 0.48052240E-02 0.13282770E+03</pdfrwt>
<pdfrwt beam="2">  1        4 0.91572696E-01 0.13282770E+03</pdfrwt>
<totfact> 0.12281801E+04</totfact>
</mgrwt>
</event>
<event>
 6    4  0.6326233E-003  0.1272601E+03  0.7818608E-02  0.1231579E+00
          4   -1    0    0  502    0 -0.00000000000E+00  0.00000000000E+00  0.12837518249E+03  0.12838146431E+03  0.12700000000E+01 0. -1.
         21   -1    0    0  501  502  0.00000000000E+00 -0.00000000000E+00 -0.49947787955E+03  0.49947787955E+03  0.00000000000E+00 0.  1.
         25    2    1    2    0    0  0.23564836375E+02 -0.38879348672E+01  0.96459475881E+02  0.15968585463E+03  0.12499889651E+03 0.  0.
    9000005    1    3    3    0    0  0.20304910613E+02  0.55803361408E+02  0.76085824883E+02  0.96521278937E+02  0.10000000000E+01 0.  0.
    9000005    1    3    3    0    0  0.32599257627E+01 -0.59691296275E+02  0.20373650998E+02  0.63164575689E+02  0.10000000000E+01 0.  0.
          4    1    1    2  501    0 -0.23564836375E+02  0.38879348672E+01 -0.46756217294E+03  0.46817348923E+03  0.12700000000E+01 0.  1.
<mgrwt>
<rscale>  1 0.12726013E+03</rscale>
<asrwt>0</asrwt>
<pdfrwt beam="2">  1       21 0.76842751E-01 0.12726013E+03</pdfrwt>
<pdfrwt beam="1">  1        4 0.19750635E-01 0.12726013E+03</pdfrwt>
<totfact> 0.14508985E+03</totfact>
</mgrwt>
</event>
<event>
 6    4  0.6326233E-003  0.1294774E+03  0.7818608E-02  0.1228233E+00
         -4   -1    0    0    0  501 -0.00000000000E+00  0.00000000000E+00  0.18948432205E+04  0.18948436461E+04  0.12700000000E+01 0.  1.
         21   -1    0    0  501  502  0.00000000000E+00 -0.00000000000E+00 -0.47198041756E+01  0.47198041756E+01  0.00000000000E+00 0.  1.
         25    2    1    2    0    0 -0.61390326530E+01  0.33186155858E+02  0.17715159429E+04  0.17762412937E+04  0.12500155466E+03 0.  0.
    9000005    1    3    3    0    0 -0.64543748995E+02  0.13895293401E+02  0.76345627613E+03  0.76630637494E+03  0.10000000000E+01 0.  0.
    9000005    1    3    3    0    0  0.58404716342E+02  0.19290862457E+02  0.10080596668E+04  0.10099349188E+04  0.10000000000E+01 0.  0.
         -4    1    1    2    0  502  0.61390326530E+01 -0.33186155858E+02  0.11860747343E+03  0.12332215663E+03  0.12700000000E+01 0. -1.
<mgrwt>
<rscale>  1 0.12947740E+03</rscale>
<asrwt>0</asrwt>
<pdfrwt beam="2">  1       21 0.72612523E-03 0.12947740E+03</pdfrwt>
<pdfrwt beam="1">  1       -4 0.29152691E+00 0.12947740E+03</pdfrwt>
<totfact> 0.10683055E+04</totfact>
</mgrwt>
</event>
<event>
 6    4  0.6326233E-003  0.1316311E+03  0.7818608E-02  0.1225055E+00
         21   -1    0    0  501  502  0.00000000000E+00  0.00000000000E+00  0.10411037749E+03  0.10411037749E+03  0.00000000000E+00 0. -1.
          4   -1    0    0  502    0 -0.00000000000E+00 -0.00000000000E+00 -0.16224477188E+03  0.16224974238E+03  0.12700000000E+01 0.  1.
         25    2    1    2    0    0  0.41250805735E+02  0.35966213476E+00 -0.12903114633E+03  0.18432524517E+03  0.12500000381E+03 0.  0.
    9000005    1    3    3    0    0 -0.24816981920E+02 -0.12795450871E+02 -0.11116798435E+03  0.11462515823E+03  0.10000000000E+01 0.  0.
    9000005    1    3    3    0    0  0.66067787654E+02  0.13155113006E+02 -0.17863161985E+02  0.69700086943E+02  0.10000000000E+01 0.  0.
          4    1    1    2  501    0 -0.41250805735E+02 -0.35966213476E+00  0.70896751947E+02  0.82034874701E+02  0.12700000000E+01 0. -1.
<mgrwt>
<rscale>  1 0.13163115E+03</rscale>
<asrwt>0</asrwt>
<pdfrwt beam="1">  1       21 0.16016981E-01 0.13163115E+03</pdfrwt>
<pdfrwt beam="2">  1        4 0.24961712E-01 0.13163115E+03</pdfrwt>
<totfact> 0.21247924E+04</totfact>
</mgrwt>
</event>
<event>
 6    4  0.6326233E-003  0.1306413E+03  0.7818608E-02  0.1226507E+00
         21   -1    0    0  501  502  0.00000000000E+00  0.00000000000E+00  0.45691094362E+02  0.45691094362E+02  0.00000000000E+00 0. -1.
          4   -1    0    0  502    0 -0.00000000000E+00 -0.00000000000E+00 -0.26355687895E+03  0.26355993880E+03  0.12700000000E+01 0.  1.
         25    2    1    2    0    0  0.34888976583E+02 -0.14971525048E+02 -0.23398528103E+03  0.26798557164E+03  0.12500307043E+03 0.  0.
    9000005    1    3    3    0    0  0.68340047279E+02  0.25186104570E+02 -0.96550708054E+02  0.12094519896E+03  0.10000000000E+01 0.  0.
    9000005    1    3    3    0    0 -0.33451070696E+02 -0.40157629618E+02 -0.13743457298E+03  0.14704037268E+03  0.10000000000E+01 0.  0.
          4    1    1    2  501    0 -0.34888976583E+02  0.14971525048E+02  0.16119496447E+02  0.41265461527E+02  0.12700000000E+01 0. -1.
<mgrwt>
<rscale>  1 0.13064132E+03</rscale>
<asrwt>0</asrwt>
<pdfrwt beam="1">  1       21 0.70293992E-02 0.13064132E+03</pdfrwt>
<pdfrwt beam="2">  1        4 0.40548805E-01 0.13064132E+03</pdfrwt>
<totfact> 0.35866400E+04</totfact>
</mgrwt>
</event>
<event>
 6    4  0.6326233E-003  0.1489582E+03  0.7818608E-02  0.1201759E+00
         21   -1    0    0  501  502  0.00000000000E+00  0.00000000000E+00  0.41731053907E+02  0.41731053907E+02  0.00000000000E+00 0. -1.
          4   -1    0    0  502    0 -0.00000000000E+00 -0.00000000000E+00 -0.32971652264E+03  0.32971896852E+03  0.12700000000E+01 0.  1.
         25    2    1    2    0    0  0.66267513439E+02  0.46564150843E+02 -0.22007622937E+03  0.26574817205E+03  0.12501576195E+03 0.  0.
    9000005    1    3    3    0    0  0.60583642426E+02 -0.28201513968E+02 -0.14487745442E+03  0.15954992923E+03  0.10000000000E+01 0.  0.
    9000005    1    3    3    0    0  0.56838710134E+01  0.74765664811E+02 -0.75198774950E+02  0.10619824282E+03  0.10000000000E+01 0.  0.
          4    1    1    2  501    0 -0.66267513439E+02 -0.46564150843E+02 -0.67909239366E+02  0.10570185037E+03  0.12700000000E+01 0. -1.
<mgrwt>
<rscale>  1 0.14895820E+03</rscale>
<asrwt>0</asrwt>
<pdfrwt beam="1">  1       21 0.64201621E-02 0.14895820E+03</pdfrwt>
<pdfrwt beam="2">  1        4 0.50727294E-01 0.14895820E+03</pdfrwt>
<totfact> 0.27113377E+04</totfact>
</mgrwt>
</event>
<event>
 6    4  0.6326233E-003  0.1342415E+03  0.7818608E-02  0.1221295E+00
          4   -1    0    0  502    0 -0.00000000000E+00  0.00000000000E+00  0.24544509904E+03  0.24544838468E+03  0.12700000000E+01 0.  1.
         21   -1    0    0  501  502  0.00000000000E+00 -0.00000000000E+00 -0.38381580512E+02  0.38381580512E+02  0.00000000000E+00 0.  1.
         25    2    1    2    0    0 -0.34695905928E+01 -0.48825916225E+02  0.18860510875E+03  0.23150087247E+03  0.12499903501E+03 0.  0.
    9000005    1    3    3    0    0  0.12890907614E+02 -0.89237915234E+02  0.13589836656E+03  0.16309183624E+03  0.10000000000E+01 0.  0.
    9000005    1    3    3    0    0 -0.16360498206E+02  0.40411999008E+02  0.52706742191E+02  0.68409036229E+02  0.10000000000E+01 0.  0.
          4    1    1    2  501    0  0.34695905928E+01  0.48825916225E+02  0.18458409780E+02  0.52329092728E+02  0.12700000000E+01 0. -1.
<mgrwt>
<rscale>  1 0.13424145E+03</rscale>
<asrwt>0</asrwt>
<pdfrwt beam="2">  1       21 0.59048587E-02 0.13424145E+03</pdfrwt>
<pdfrwt beam="1">  1        4 0.37762652E-01 0.13424145E+03</pdfrwt>
<totfact> 0.55686476E+04</totfact>
</mgrwt>
</event>
<event>
 6    4  0.6326233E-003  0.1270103E+03  0.7818608E-02  0.1231961E+00
          4   -1    0    0  502    0 -0.00000000000E+00  0.00000000000E+00  0.15542404080E+03  0.15542922943E+03  0.12700000000E+01 0.  1.
         21   -1    0    0  501  502  0.00000000000E+00 -0.00000000000E+00 -0.13339658675E+03  0.13339658675E+03  0.00000000000E+00 0. -1.
         25    2    1    2    0    0 -0.22328034527E+02 -0.28643715780E+01  0.12809500862E+03  0.18038834672E+03  0.12499951459E+03 0.  0.
    9000005    1    3    3    0    0 -0.57347018821E+02  0.41245257966E+02  0.73371240577E+02  0.10185377173E+03  0.10000000000E+01 0.  0.
    9000005    1    3    3    0    0  0.35018984293E+02 -0.44109629544E+02  0.54723768043E+02  0.78534574986E+02  0.10000000000E+01 0.  0.
          4    1    1    2  501    0  0.22328034527E+02  0.28643715780E+01 -0.10606755457E+03  0.10843746946E+03  0.12700000000E+01 0. -1.
<mgrwt>
<rscale>  1 0.12701033E+03</rscale>
<asrwt>0</asrwt>
<pdfrwt beam="2">  1       21 0.20522552E-01 0.12701033E+03</pdfrwt>
<pdfrwt beam="1">  1        4 0.23912255E-01 0.12701033E+03</pdfrwt>
<totfact> 0.14548119E+04</totfact>
</mgrwt>
</event>
<event>
 6    4  0.6326233E-003  0.1349173E+03  0.7818608E-02  0.1220337E+00
         -4   -1    0    0    0  501 -0.00000000000E+00  0.00000000000E+00  0.13622552100E+03  0.13623144083E+03  0.12700000000E+01 0.  1.
         21   -1    0    0  501  502  0.00000000000E+00 -0.00000000000E+00 -0.81732864242E+02  0.81732864242E+02  0.00000000000E+00 0.  1.
         25    2    1    2    0    0  0.33049101456E+02 -0.38537609426E+02  0.84290790963E+02  0.15908364484E+03  0.12500111267E+03 0.  0.
    9000005    1    3    3    0    0 -0.30516431723E+02  0.25066403125E+02  0.62115599634E+01  0.39989506722E+02  0.10000000000E+01 0.  0.
    9000005    1    3    3    0    0  0.63565533179E+02 -0.63604012551E+02  0.78079231000E+02  0.11909413812E+03  0.10000000000E+01 0.  0.
         -4    1    1    2    0  502 -0.33049101456E+02  0.38537609426E+02 -0.29798134207E+02  0.58880660234E+02  0.12700000000E+01 0. -1.
<mgrwt>
<rscale>  1 0.13491727E+03</rscale>
<asrwt>0</asrwt>
<pdfrwt beam="2">  1       21 0.12574287E-01 0.13491727E+03</pdfrwt>
<pdfrwt beam="1">  1       -4 0.20958987E-01 0.13491727E+03</pdfrwt>
<totfact> 0.45278943E+04</totfact>
</mgrwt>
</event>
<event>
 6    4  0.6326233E-003  0.1340978E+03  0.7818608E-02  0.1221499E+00
         21   -1    0    0  501  502  0.00000000000E+00  0.00000000000E+00  0.60825414167E+02  0.60825414167E+02  0.00000000000E+00 0. -1.
          4   -1    0    0  502    0 -0.00000000000E+00 -0.00000000000E+00 -0.15656426478E+03  0.15656941562E+03  0.12700000000E+01 0. -1.
         25    2    1    2    0    0  0.38900819395E+02  0.29054353463E+02 -0.10191919187E+03  0.16843322521E+03  0.12499920191E+03 0.  0.
    9000005    1    3    3    0    0  0.96646755378E+01 -0.43674503280E+02 -0.71502748515E+02  0.84347562118E+02  0.10000000000E+01 0.  0.
    9000005    1    3    3    0    0  0.29236143858E+02  0.72728856743E+02 -0.30416443351E+02  0.84085663088E+02  0.10000000000E+01 0.  0.
          4    1    1    2  501    0 -0.38900819395E+02 -0.29054353463E+02  0.61803412529E+01  0.48961604577E+02  0.12700000000E+01 0.  1.
<mgrwt>
<rscale>  1 0.13409784E+03</rscale>
<asrwt>0</asrwt>
<pdfrwt beam="1">  1       21 0.93577561E-02 0.13409784E+03</pdfrwt>
<pdfrwt beam="2">  1        4 0.24088226E-01 0.13409784E+03</pdfrwt>
<totfact> 0.59074449E+04</totfact>
</mgrwt>
</event>
<event>
 6    4  0.6326233E-003  0.1268389E+03  0.7818608E-02  0.1232223E+00
          4   -1    0    0  502    0 -0.00000000000E+00  0.00000000000E+00  0.49667778510E+03  0.49667940878E+03  0.12700000000E+01 0.  1.
         21   -1    0    0  501  502  0.00000000000E+00 -0.00000000000E+00 -0.13336164446E+02  0.13336164446E+02  0.00000000000E+00 0.  1.
         25    2    1    2    0    0 -0.18783656035E+02  0.10497183625E+02  0.46410332523E+03  0.48112367975E+03  0.12500032851E+03 0.  0.
    9000005    1    3    3    0    0  0.43891758508E+02  0.12648500203E+02  0.32917022788E+03  0.33232590923E+03  0.10000000000E+01 0.  0.
    9000005    1    3    3    0    0 -0.62675414543E+02 -0.21513165776E+01  0.13493309735E+03  0.14879777052E+03  0.10000000000E+01 0.  0.
          4    1    1    2  501    0  0.18783656035E+02 -0.10497183625E+02  0.19238295420E+02  0.28891893478E+02  0.12700000000E+01 0. -1.
<mgrwt>
<rscale>  1 0.12683887E+03</rscale>
<asrwt>0</asrwt>
<pdfrwt beam="2">  1       21 0.20517180E-02 0.12683887E+03</pdfrwt>
<pdfrwt beam="1">  1        4 0.76416729E-01 0.12683887E+03</pdfrwt>
<totfact> 0.74044224E+04</totfact>
</mgrwt>
</event>
<event>
 6    4  0.6326233E-003  0.1393184E+03  0.7818608E-02  0.1214249E+00
         21   -1    0    0  501  502  0.00000000000E+00  0.00000000000E+00  0.13402978897E+03  0.13402978897E+03  0.00000000000E+00 0. -1.
         -4   -1    0    0    0  501 -0.00000000000E+00 -0.00000000000E+00 -0.22603609608E+03  0.22603966385E+03  0.12700000000E+01 0.  1.
         25    2    1    2    0    0  0.59636119052E+02 -0.15091566690E+02  0.91395544196E+02  0.16662159409E+03  0.12500155214E+03 0.  0.
    9000005    1    3    3    0    0  0.46096326234E+02 -0.11459644698E+02  0.12309554631E+03  0.13194585356E+03  0.10000000000E+01 0.  0.
    9000005    1    3    3    0    0  0.13539792818E+02 -0.36319219920E+01 -0.31700002118E+02  0.34675740529E+02  0.10000000000E+01 0.  0.
         -4    1    1    2    0  502 -0.59636119052E+02  0.15091566690E+02 -0.18340185131E+03  0.19344785873E+03  0.12700000000E+01 0. -1.
<mgrwt>
<rscale>  1 0.13931838E+03</rscale>
<asrwt>0</asrwt>
<pdfrwt beam="1">  1       21 0.20619968E-01 0.13931838E+03</pdfrwt>
<pdfrwt beam="2">  1       -4 0.34775521E-01 0.13931838E+03</pdfrwt>
<totfact> 0.71874502E+03</totfact>
</mgrwt>
</event>
<event>
 6    4  0.6326233E-003  0.1300302E+03  0.7818608E-02  0.1227411E+00
          4   -1    0    0  502    0 -0.00000000000E+00  0.00000000000E+00  0.11630581355E+03  0.11631274722E+03  0.12700000000E+01 0. -1.
         21   -1    0    0  501  502  0.00000000000E+00 -0.00000000000E+00 -0.10181348179E+03  0.10181348179E+03  0.00000000000E+00 0.  1.
         25    2    1    2    0    0  0.10319860292E+02 -0.34318547031E+02  0.73285550385E+02  0.14926028937E+03  0.12499439948E+03 0.  0.
    9000005    1    3    3    0    0  0.54289030733E+02  0.19709789684E+02  0.48141621240E+02  0.75195680481E+02  0.10000000000E+01 0.  0.
    9000005    1    3    3    0    0 -0.43969170441E+02 -0.54028336715E+02  0.25143929144E+02  0.74064608892E+02  0.10000000000E+01 0.  0.
          4    1    1    2  501    0 -0.10319860292E+02  0.34318547031E+02 -0.58793218616E+02  0.68865939637E+02  0.12700000000E+01 0.  1.
<mgrwt>
<rscale>  1 0.13003024E+03</rscale>
<asrwt>0</asrwt>
<pdfrwt beam="2">  1       21 0.15663613E-01 0.13003024E+03</pdfrwt>
<pdfrwt beam="1">  1        4 0.17894345E-01 0.13003024E+03</pdfrwt>
<totfact> 0.40346009E+04</totfact>
</mgrwt>
</event>
<event>
 6    4  0.6326233E-003  0.1385131E+03  0.7818608E-02  0.1215344E+00
         -4   -1    0    0    0  501 -0.00000000000E+00  0.00000000000E+00  0.21056849837E+02  0.21095113772E+02  0.12700000000E+01 0.  1.
         21   -1    0    0  501  502  0.00000000000E+00 -0.00000000000E+00 -0.14132193717E+04  0.14132193717E+04  0.00000000000E+00 0. -1.
         25    2    1    2    0    0  0.59558103519E+02 -0.36951026123E+01 -0.21573407583E+03  0.25637292368E+03  0.12500025216E+03 0.  0.
    9000005    1    3    3    0    0  0.88486935415E+02  0.48806696749E+01 -0.20663864880E+03  0.22484281143E+03  0.10000000000E+01 0.  0.
    9000005    1    3    3    0    0 -0.28928831896E+02 -0.85757722871E+01 -0.90954270361E+01  0.31530112245E+02  0.10000000000E+01 0.  0.
         -4    1    1    2    0  502 -0.59558103519E+02  0.36951026123E+01 -0.11764284461E+04  0.11779415618E+04  0.12700000000E+01 0. -1.
<mgrwt>
<rscale>  1 0.13851312E+03</rscale>
<asrwt>0</asrwt>
<pdfrwt beam="2">  1       21 0.21741843E+00 0.13851312E+03</pdfrwt>
<pdfrwt beam="1">  1       -4 0.32425016E-02 0.13851312E+03</pdfrwt>
<totfact> 0.21175727E+03</totfact>
</mgrwt>
</event>
<event>
 6    4  0.6326233E-003  0.1274774E+03  0.7818608E-02  0.1231248E+00
         21   -1    0    0  501  502  0.00000000000E+00  0.00000000000E+00  0.15045800921E+03  0.15045800921E+03  0.00000000000E+00 0. -1.
          4   -1    0    0  502    0 -0.00000000000E+00 -0.00000000000E+00 -0.63197733651E+02  0.63210493106E+02  0.12700000000E+01 0. -1.
         25    2    1    2    0    0  0.49979683006E+01  0.24501229034E+02  0.48837177381E+01  0.12757088278E+03  0.12500075809E+03 0.  0.
    9000005    1    3    3    0    0  0.45237268093E+02 -0.79872381210E+01 -0.38588355339E+02  0.60002229668E+02  0.10000000000E+01 0.  0.
    9000005    1    3    3    0    0 -0.40239299792E+02  0.32488467155E+02  0.43472073077E+02  0.67568653113E+02  0.10000000000E+01 0.  0.
          4    1    1    2  501    0 -0.49979683006E+01 -0.24501229034E+02  0.82376557824E+02  0.86097619539E+02  0.12700000000E+01 0.  1.
<mgrwt>
<rscale>  1 0.12747737E+03</rscale>
<asrwt>0</asrwt>
<pdfrwt beam="1">  1       21 0.23147386E-01 0.12747737E+03</pdfrwt>
<pdfrwt beam="2">  1        4 0.97241221E-02 0.12747737E+03</pdfrwt>
<totfact> 0.56144150E+04</totfact>
</mgrwt>
</event>
<event>
 6    4  0.6326233E-003  0.1266098E+03  0.7818608E-02  0.1232575E+00
         21   -1    0    0  501  502  0.00000000000E+00  0.00000000000E+00  0.55134230770E+02  0.55134230770E+02  0.00000000000E+00 0.  1.
         -4   -1    0    0    0  501 -0.00000000000E+00 -0.00000000000E+00 -0.35553386077E+03  0.35553612904E+03  0.12700000000E+01 0. -1.
         25    2    1    2    0    0 -0.12157611226E+02  0.16037715695E+02 -0.34186763462E+03  0.36455936175E+03  0.12500013122E+03 0.  0.
    9000005    1    3    3    0    0  0.32652666364E+02 -0.30353984003E+02 -0.56427356159E+02  0.71920841824E+02  0.10000000000E+01 0.  0.
    9000005    1    3    3    0    0 -0.44810277590E+02  0.46391699698E+02 -0.28544027846E+03  0.29263851992E+03  0.10000000000E+01 0.  0.
         -4    1    1    2    0  502  0.12157611226E+02 -0.16037715695E+02  0.41468004617E+02  0.46110998062E+02  0.12700000000E+01 0.  1.
<mgrwt>
<rscale>  1 0.12660983E+03</rscale>
<asrwt>0</asrwt>
<pdfrwt beam="1">  1       21 0.84821895E-02 0.12660983E+03</pdfrwt>
<pdfrwt beam="2">  1       -4 0.54698816E-01 0.12660983E+03</pdfrwt>
<totfact> 0.14148372E+04</totfact>
</mgrwt>
</event>
<event>
 6    4  0.6326233E-003  0.1331257E+03  0.7818608E-02  0.1222890E+00
         -4   -1    0    0    0  501 -0.00000000000E+00  0.00000000000E+00  0.11403157021E+03  0.11403864215E+03  0.12700000000E+01 0. -1.
         21   -1    0    0  501  502  0.00000000000E+00 -0.00000000000E+00 -0.13552852309E+03  0.13552852309E+03  0.00000000000E+00 0.  1.
         25    2    1    2    0    0  0.41272990557E+02  0.19843111124E+02  0.67656695008E+02  0.14933146980E+03  0.12500100274E+03 0.  0.
    9000005    1    3    3    0    0 -0.37944397467E+02  0.13667605107E+02  0.55997488811E+02  0.69016660899E+02  0.10000000000E+01 0.  0.
    9000005    1    3    3    0    0  0.79217388023E+02  0.61755060173E+01  0.11659206197E+02  0.80314808902E+02  0.10000000000E+01 0.  0.
         -4    1    1    2    0  502 -0.41272990557E+02 -0.19843111124E+02 -0.89153647890E+02  0.10023569544E+03  0.12700000000E+01 0.  1.
<mgrwt>
<rscale>  1 0.13312573E+03</rscale>
<asrwt>0</asrwt>
<pdfrwt beam="2">  1       21 0.20850542E-01 0.13312573E+03</pdfrwt>
<pdfrwt beam="1">  1       -4 0.17544320E-01 0.13312573E+03</pdfrwt>
<totfact> 0.24802021E+04</totfact>
</mgrwt>
</event>
<event>
 6    4  0.6326233E-003  0.1269864E+03  0.7818608E-02  0.1231997E+00
         -4   -1    0    0    0  501 -0.00000000000E+00  0.00000000000E+00  0.93805813171E+02  0.93814409792E+02  0.12700000000E+01 0.  1.
         21   -1    0    0  501  502  0.00000000000E+00 -0.00000000000E+00 -0.85487663178E+02  0.85487663178E+02  0.00000000000E+00 0.  1.
         25    2    1    2    0    0 -0.22264037936E+02  0.22105442302E+01  0.46331873428E+02  0.13517464431E+03  0.12499987231E+03 0.  0.
    9000005    1    3    3    0    0  0.44020315228E+02  0.29364354498E+02  0.32816127714E+02  0.62273202150E+02  0.10000000000E+01 0.  0.
    9000005    1    3    3    0    0 -0.66284353164E+02 -0.27153810268E+02  0.13515745714E+02  0.72901442157E+02  0.10000000000E+01 0.  0.
         -4    1    1    2    0  502  0.22264037936E+02 -0.22105442302E+01 -0.38013723435E+02  0.44127428663E+02  0.12700000000E+01 0. -1.
<mgrwt>
<rscale>  1 0.12698638E+03</rscale>
<asrwt>0</asrwt>
<pdfrwt beam="2">  1       21 0.13151948E-01 0.12698638E+03</pdfrwt>
<pdfrwt beam="1">  1       -4 0.14433050E-01 0.12698638E+03</pdfrwt>
<totfact> 0.80308680E+04</totfact>
</mgrwt>
</event>
<event>
 6    4  0.6326233E-003  0.1513328E+03  0.7818608E-02  0.1198845E+00
         21   -1    0    0  501  502  0.00000000000E+00  0.00000000000E+00  0.16047781799E+03  0.16047781799E+03  0.00000000000E+00 0. -1.
         -4   -1    0    0    0  501 -0.00000000000E+00 -0.00000000000E+00 -0.15308622628E+03  0.15309149414E+03  0.12700000000E+01 0.  1.
         25    2    1    2    0    0  0.85064138911E+02 -0.63563640647E+01 -0.96238283730E+02  0.17934161351E+03  0.12500118395E+03 0.  0.
    9000005    1    3    3    0    0  0.36715297665E+02  0.11155065140E+02  0.26243690673E+02  0.46499245811E+02  0.10000000000E+01 0.  0.
    9000005    1    3    3    0    0  0.48348841246E+02 -0.17511429204E+02 -0.12248197440E+03  0.13284236770E+03  0.10000000000E+01 0.  0.
         -4    1    1    2    0  502 -0.85064138911E+02  0.63563640647E+01  0.10362987544E+03  0.13422769862E+03  0.12700000000E+01 0. -1.
<mgrwt>
<rscale>  1 0.15133277E+03</rscale>
<asrwt>0</asrwt>
<pdfrwt beam="1">  1       21 0.24688895E-01 0.15133277E+03</pdfrwt>
<pdfrwt beam="2">  1       -4 0.23552519E-01 0.15133277E+03</pdfrwt>
<totfact> 0.10739064E+04</totfact>
</mgrwt>
</event>
<event>
 6    4  0.6326233E-003  0.1323256E+03  0.7818608E-02  0.1224045E+00
          4   -1    0    0  502    0 -0.00000000000E+00  0.00000000000E+00  0.18523671239E+03  0.18524106596E+03  0.12700000000E+01 0.  1.
         21   -1    0    0  501  502  0.00000000000E+00 -0.00000000000E+00 -0.41944258197E+02  0.41944258197E+02  0.00000000000E+00 0.  1.
         25    2    1    2    0    0  0.27483721802E+02 -0.33607620959E+02  0.11531753190E+03  0.17552260716E+03  0.12500090123E+03 0.  0.
    9000005    1    3    3    0    0  0.76537923757E+02 -0.95700067473E+01  0.59554882214E+02  0.97454721783E+02  0.10000000000E+01 0.  0.
    9000005    1    3    3    0    0 -0.49054201955E+02 -0.24037614212E+02  0.55762649689E+02  0.78067885374E+02  0.10000000000E+01 0.  0.
          4    1    1    2  501    0 -0.27483721802E+02  0.33607620959E+02  0.27974922292E+02  0.51662717001E+02  0.12700000000E+01 0. -1.
<mgrwt>
<rscale>  1 0.13232555E+03</rscale>
<asrwt>0</asrwt>
<pdfrwt beam="2">  1       21 0.64529629E-02 0.13232555E+03</pdfrwt>
<pdfrwt beam="1">  1        4 0.28499769E-01 0.13232555E+03</pdfrwt>
<totfact> 0.81876628E+04</totfact>
</mgrwt>
</event>
<event>
 6    4  0.6326233E-003  0.1407964E+03  0.7818608E-02  0.1212261E+00
         21   -1    0    0  501  502  0.00000000000E+00  0.00000000000E+00  0.14611591382E+02  0.14611591382E+02  0.00000000000E+00 0.  1.
          4   -1    0    0  502    0 -0.00000000000E+00 -0.00000000000E+00 -0.81764414590E+03  0.81764513221E+03  0.12700000000E+01 0. -1.
         25    2    1    2    0    0 -0.57856254328E+02 -0.29176605083E+02 -0.66534183529E+03  0.68007601683E+03  0.12500004172E+03 0.  0.
    9000005    1    3    3    0    0 -0.45102211431E+02 -0.30355405965E+02 -0.66500488553E+03  0.66722421863E+03  0.10000000000E+01 0.  0.
    9000005    1    3    3    0    0 -0.12754042896E+02  0.11788008823E+01 -0.33694975654E+00  0.12851798196E+02  0.10000000000E+01 0.  0.
          4    1    1    2  501    0  0.57856254328E+02  0.29176605083E+02 -0.13769071922E+03  0.15218070676E+03  0.12700000000E+01 0.  1.
<mgrwt>
<rscale>  1 0.14079642E+03</rscale>
<asrwt>0</asrwt>
<pdfrwt beam="1">  1       21 0.22479365E-02 0.14079642E+03</pdfrwt>
<pdfrwt beam="2">  1        4 0.12579577E+00 0.14079642E+03</pdfrwt>
<totfact> 0.20522914E+04</totfact>
</mgrwt>
</event>
<event>
 6    4  0.6326233E-003  0.1287695E+03  0.7818608E-02  0.1229293E+00
         21   -1    0    0  501  502  0.00000000000E+00  0.00000000000E+00  0.43263814709E+02  0.43263814709E+02  0.00000000000E+00 0. -1.
          4   -1    0    0  502    0 -0.00000000000E+00 -0.00000000000E+00 -0.31702782156E+03  0.31703036533E+03  0.12700000000E+01 0.  1.
         25    2    1    2    0    0  0.28234247790E+02 -0.12623649464E+02 -0.29558904896E+03  0.32241972114E+03  0.12500024578E+03 0.  0.
    9000005    1    3    3    0    0 -0.18392597204E+02 -0.58871155136E+02 -0.11953192902E+03  0.13451015796E+03  0.10000000000E+01 0.  0.
    9000005    1    3    3    0    0  0.46626844994E+02  0.46247505673E+02 -0.17605711994E+03  0.18790956319E+03  0.10000000000E+01 0.  0.
          4    1    1    2  501    0 -0.28234247790E+02  0.12623649464E+02  0.21825042105E+02  0.37874458900E+02  0.12700000000E+01 0. -1.
<mgrwt>
<rscale>  1 0.12876953E+03</rscale>
<asrwt>0</asrwt>
<pdfrwt beam="1">  1       21 0.66559716E-02 0.12876953E+03</pdfrwt>
<pdfrwt beam="2">  1        4 0.48775139E-01 0.12876953E+03</pdfrwt>
<totfact> 0.27174224E+04</totfact>
</mgrwt>
</event>
<event>
 6    4  0.6326233E-003  0.1508982E+03  0.7818608E-02  0.1199374E+00
         21   -1    0    0  501  502  0.00000000000E+00  0.00000000000E+00  0.63982987364E+02  0.63982987364E+02  0.00000000000E+00 0. -1.
         -4   -1    0    0    0  501 -0.00000000000E+00 -0.00000000000E+00 -0.31030838997E+03  0.31031098883E+03  0.12700000000E+01 0.  1.
         25    2    1    2    0    0 -0.79943158918E+02 -0.27475957517E+02 -0.24734996592E+03  0.28974517650E+03  0.12499769905E+03 0.  0.
    9000005    1    3    3    0    0 -0.47936029152E+02  0.43392451665E+01 -0.23904805461E+03  0.24384762527E+03  0.10000000000E+01 0.  0.
    9000005    1    3    3    0    0 -0.32007129766E+02 -0.31815202684E+02 -0.83019113108E+01  0.45897551231E+02  0.10000000000E+01 0.  0.
         -4    1    1    2    0  502  0.79943158918E+02  0.27475957517E+02  0.10245633061E+01  0.84548799691E+02  0.12700000000E+01 0. -1.
<mgrwt>
<rscale>  1 0.15089818E+03</rscale>
<asrwt>0</asrwt>
<pdfrwt beam="1">  1       21 0.98435366E-02 0.15089818E+03</pdfrwt>
<pdfrwt beam="2">  1       -4 0.47740921E-01 0.15089818E+03</pdfrwt>
<totfact> 0.14663232E+04</totfact>
</mgrwt>
</event>
<event>
 6    4  0.6326233E-003  0.1276711E+03  0.7818608E-02  0.1230953E+00
         21   -1    0    0  501  502  0.00000000000E+00  0.00000000000E+00  0.21661180995E+03  0.21661180995E+03  0.00000000000E+00 0. -1.
         -4   -1    0    0    0  501 -0.00000000000E+00 -0.00000000000E+00 -0.32294699134E+02  0.32319661077E+02  0.12700000000E+01 0. -1.
         25    2    1    2    0    0 -0.21658366152E+02  0.14319055883E+02  0.10449165262E+03  0.16498007519E+03  0.12500319819E+03 0.  0.
    9000005    1    3    3    0    0 -0.68298263892E+02  0.28435623404E+02  0.39895004383E+02  0.84058603984E+02  0.10000000000E+01 0.  0.
    9000005    1    3    3    0    0  0.46639897740E+02 -0.14116567521E+02  0.64596648234E+02  0.80921471210E+02  0.10000000000E+01 0.  0.
         -4    1    1    2    0  502  0.21658366152E+02 -0.14319055883E+02  0.79825458202E+02  0.83951395836E+02  0.12700000000E+01 0.  1.
<mgrwt>
<rscale>  1 0.12767114E+03</rscale>
<asrwt>0</asrwt>
<pdfrwt beam="1">  1       21 0.33324893E-01 0.12767114E+03</pdfrwt>
<pdfrwt beam="2">  1       -4 0.49706219E-02 0.12767114E+03</pdfrwt>
<totfact> 0.84075765E+04</totfact>
</mgrwt>
</event>
<event>
 6    4  0.6326233E-003  0.1522327E+03  0.7818608E-02  0.1197756E+00
         -4   -1    0    0    0  501 -0.00000000000E+00  0.00000000000E+00  0.53172998883E+03  0.53173150548E+03  0.12700000000E+01 0. -1.
         21   -1    0    0  501  502  0.00000000000E+00 -0.00000000000E+00 -0.31166335882E+02  0.31166335882E+02  0.00000000000E+00 0.  1.
         25    2    1    2    0    0 -0.73535976548E+02  0.46297631048E+02  0.41014604709E+03  0.43748665033E+03  0.12499511505E+03 0.  0.
    9000005    1    3    3    0    0  0.11128041658E+02  0.33284533746E+02  0.25438117147E+02  0.43356560079E+02  0.10000000000E+01 0.  0.
    9000005    1    3    3    0    0 -0.84664018206E+02  0.13013097302E+02  0.38470792994E+03  0.39413009025E+03  0.10000000000E+01 0.  0.
         -4    1    1    2    0  502  0.73535976548E+02 -0.46297631048E+02  0.90417605857E+02  0.12541119103E+03  0.12700000000E+01 0.  1.
<mgrwt>
<rscale>  1 0.15223268E+03</rscale>
<asrwt>0</asrwt>
<pdfrwt beam="2">  1       21 0.47948213E-02 0.15223268E+03</pdfrwt>
<pdfrwt beam="1">  1       -4 0.81806714E-01 0.15223268E+03</pdfrwt>
<totfact> 0.16086632E+04</totfact>
</mgrwt>
</event>
<event>
 6    4  0.6326233E-003  0.1291146E+03  0.7818608E-02  0.1228775E+00
         21   -1    0    0  501  502  0.00000000000E+00  0.00000000000E+00  0.80685948461E+03  0.80685948461E+03  0.00000000000E+00 0. -1.
          4   -1    0    0  502    0 -0.00000000000E+00 -0.00000000000E+00 -0.86516993888E+01  0.87444154930E+01  0.12700000000E+01 0. -1.
         25    2    1    2    0    0 -0.32260546398E+02 -0.20994520111E+01  0.53230723105E+03  0.54774224148E+03  0.12500169726E+03 0.  0.
    9000005    1    3    3    0    0  0.11897841613E+02 -0.53252550905E+02  0.32900873032E+03  0.33350432897E+03  0.10000000000E+01 0.  0.
    9000005    1    3    3    0    0 -0.44158388011E+02  0.51153098894E+02  0.20329850073E+03  0.21423791251E+03  0.10000000000E+01 0.  0.
          4    1    1    2  501    0  0.32260546398E+02  0.20994520111E+01  0.26590055417E+03  0.26786165863E+03  0.12700000000E+01 0.  1.
<mgrwt>
<rscale>  1 0.12911458E+03</rscale>
<asrwt>0</asrwt>
<pdfrwt beam="1">  1       21 0.12413217E+00 0.12911458E+03</pdfrwt>
<pdfrwt beam="2">  1        4 0.13382402E-02 0.12911458E+03</pdfrwt>
<totfact> 0.37567048E+04</totfact>
</mgrwt>
</event>
<event>
 6    4  0.6326233E-003  0.1277008E+03  0.7818608E-02  0.1230908E+00
         -4   -1    0    0    0  501 -0.00000000000E+00  0.00000000000E+00  0.26755367772E+03  0.26755669187E+03  0.12700000000E+01 0. -1.
         21   -1    0    0  501  502  0.00000000000E+00 -0.00000000000E+00 -0.23166778160E+02  0.23166778160E+02  0.00000000000E+00 0. -1.
         25    2    1    2    0    0 -0.10452478363E+02 -0.23936180739E+02  0.22285438296E+03  0.25684933205E+03  0.12500123327E+03 0.  0.
    9000005    1    3    3    0    0  0.12086695991E+02  0.11400578388E+02  0.21317199057E+03  0.21382085719E+03  0.10000000000E+01 0.  0.
    9000005    1    3    3    0    0 -0.22539174354E+02 -0.35336759127E+02  0.96823923902E+01  0.43028474857E+02  0.10000000000E+01 0.  0.
         -4    1    1    2    0  502  0.10452478363E+02  0.23936180739E+02  0.21532516601E+02  0.33874137973E+02  0.12700000000E+01 0.  1.
<mgrwt>
<rscale>  1 0.12770084E+03</rscale>
<asrwt>0</asrwt>
<pdfrwt beam="2">  1       21 0.35641199E-02 0.12770084E+03</pdfrwt>
<pdfrwt beam="1">  1       -4 0.41165012E-01 0.12770084E+03</pdfrwt>
<totfact> 0.10865637E+05</totfact>
</mgrwt>
</event>
<event>
 6    4  0.6326233E-003  0.1266887E+03  0.7818608E-02  0.1232453E+00
         21   -1    0    0  501  502  0.00000000000E+00  0.00000000000E+00  0.12276843870E+03  0.12276843870E+03  0.00000000000E+00 0. -1.
         -4   -1    0    0    0  501 -0.00000000000E+00 -0.00000000000E+00 -0.74790329881E+02  0.74801111915E+02  0.12700000000E+01 0. -1.
         25    2    1    2    0    0  0.17496437319E+02  0.10929324092E+02 -0.18427392407E+02  0.12802187677E+03  0.12499782677E+03 0.  0.
    9000005    1    3    3    0    0 -0.33454666976E+02 -0.40012754449E+02 -0.20209980986E+02  0.55943530390E+02  0.10000000000E+01 0.  0.
    9000005    1    3    3    0    0  0.50951104294E+02  0.50942078541E+02  0.17825885789E+01  0.72078346381E+02  0.10000000000E+01 0.  0.
         -4    1    1    2    0  502 -0.17496437319E+02 -0.10929324092E+02  0.66405501222E+02  0.69547673839E+02  0.12700000000E+01 0.  1.
<mgrwt>
<rscale>  1 0.12668872E+03</rscale>
<asrwt>0</asrwt>
<pdfrwt beam="1">  1       21 0.18887452E-01 0.12668872E+03</pdfrwt>
<pdfrwt beam="2">  1       -4 0.11507539E-01 0.12668872E+03</pdfrwt>
<totfact> 0.61560877E+04</totfact>
</mgrwt>
</event>
<event>
 6    4  0.6326233E-003  0.1266894E+03  0.7818608E-02  0.1232452E+00
          4   -1    0    0  502    0 -0.00000000000E+00  0.00000000000E+00  0.26436372510E+02  0.26466860250E+02  0.12700000000E+01 0.  1.
         21   -1    0    0  501  502  0.00000000000E+00 -0.00000000000E+00 -0.20516828144E+03  0.20516828144E+03  0.00000000000E+00 0.  1.
         25    2    1    2    0    0 -0.20578029088E+02  0.12011886415E+01 -0.15393431034E+03  0.19936391718E+03  0.12500120575E+03 0.  0.
    9000005    1    3    3    0    0 -0.17722209666E+02  0.62551969941E+02 -0.85307466257E+02  0.10726224619E+03  0.10000000000E+01 0.  0.
    9000005    1    3    3    0    0 -0.28558194215E+01 -0.61350781300E+02 -0.68626844080E+02  0.92101670989E+02  0.10000000000E+01 0.  0.
          4    1    1    2  501    0  0.20578029088E+02 -0.12011886415E+01 -0.24797598590E+02  0.32271224506E+02  0.12700000000E+01 0. -1.
<mgrwt>
<rscale>  1 0.12668938E+03</rscale>
<asrwt>0</asrwt>
<pdfrwt beam="2">  1       21 0.31564351E-01 0.12668938E+03</pdfrwt>
<pdfrwt beam="1">  1        4 0.40697818E-02 0.12668938E+03</pdfrwt>
<totfact> 0.12844006E+05</totfact>
</mgrwt>
</event>
<event>
 6    4  0.6326233E-003  0.1364407E+03  0.7818608E-02  0.1218200E+00
         21   -1    0    0  501  502  0.00000000000E+00  0.00000000000E+00  0.78702565562E+02  0.78702565562E+02  0.00000000000E+00 0. -1.
          4   -1    0    0  502    0 -0.00000000000E+00 -0.00000000000E+00 -0.15207455575E+03  0.15207985865E+03  0.12700000000E+01 0.  1.
         25    2    1    2    0    0 -0.89648244827E+01 -0.53961483050E+02 -0.10074229539E+03  0.16960271976E+03  0.12499545087E+03 0.  0.
    9000005    1    3    3    0    0 -0.61853823295E+02 -0.39803109670E+02 -0.85441163287E+02  0.11274473548E+03  0.10000000000E+01 0.  0.
    9000005    1    3    3    0    0  0.52888998813E+02 -0.14158373380E+02 -0.15301132099E+02  0.56857984274E+02  0.10000000000E+01 0.  0.
          4    1    1    2  501    0  0.89648244827E+01  0.53961483050E+02  0.27370305194E+02  0.61179704457E+02  0.12700000000E+01 0. -1.
<mgrwt>
<rscale>  1 0.13644073E+03</rscale>
<asrwt>0</asrwt>
<pdfrwt beam="1">  1       21 0.12108087E-01 0.13644073E+03</pdfrwt>
<pdfrwt beam="2">  1        4 0.23397281E-01 0.13644073E+03</pdfrwt>
<totfact> 0.39685742E+04</totfact>
</mgrwt>
</event>
<event>
 6    4  0.6326233E-003  0.1339664E+03  0.7818608E-02  0.1221686E+00
         -4   -1    0    0    0  501 -0.00000000000E+00  0.00000000000E+00  0.56959382259E+03  0.56959523842E+03  0.12700000000E+01 0.  1.
         21   -1    0    0  501  502  0.00000000000E+00 -0.00000000000E+00 -0.23624892422E+02  0.23624892422E+02  0.00000000000E+00 0. -1.
         25    2    1    2    0    0  0.45844460527E+02 -0.14834169558E+02  0.52288965413E+03  0.53977826495E+03  0.12500087109E+03 0.  0.
    9000005    1    3    3    0    0  0.15824299586E+02 -0.25670867058E+02  0.20738050815E+02  0.36612410799E+02  0.10000000000E+01 0.  0.
    9000005    1    3    3    0    0  0.30020160941E+02  0.10836697501E+02  0.50215160331E+03  0.50316585415E+03  0.10000000000E+01 0.  0.
         -4    1    1    2    0  502 -0.45844460527E+02  0.14834169558E+02  0.23079276041E+02  0.53441865892E+02  0.12700000000E+01 0. -1.
<mgrwt>
<rscale>  1 0.13396636E+03</rscale>
<asrwt>0</asrwt>
<pdfrwt beam="2">  1       21 0.36345993E-02 0.13396636E+03</pdfrwt>
<pdfrwt beam="1">  1       -4 0.87632543E-01 0.13396636E+03</pdfrwt>
<totfact> 0.21615731E+04</totfact>
</mgrwt>
</event>
<event>
 6    4  0.6326233E-003  0.1281771E+03  0.7818608E-02  0.1230186E+00
         -4   -1    0    0    0  501 -0.00000000000E+00  0.00000000000E+00  0.59505447820E+02  0.59518998817E+02  0.12700000000E+01 0.  1.
         21   -1    0    0  501  502  0.00000000000E+00 -0.00000000000E+00 -0.23786664736E+03  0.23786664736E+03  0.00000000000E+00 0. -1.
         25    2    1    2    0    0  0.28306062728E+02 -0.19229993945E+01 -0.12134275214E+02  0.12875013869E+03  0.12499770584E+03 0.  0.
    9000005    1    3    3    0    0 -0.23767417326E+02  0.48080470411E+02 -0.17301087784E+02  0.56364433820E+02  0.10000000000E+01 0.  0.
    9000005    1    3    3    0    0  0.52073480054E+02 -0.50003469806E+02  0.51668125699E+01  0.72385704871E+02  0.10000000000E+01 0.  0.
         -4    1    1    2    0  502 -0.28306062728E+02  0.19229993945E+01 -0.16622692432E+03  0.16863550748E+03  0.12700000000E+01 0. -1.
<mgrwt>
<rscale>  1 0.12817706E+03</rscale>
<asrwt>0</asrwt>
<pdfrwt beam="2">  1       21 0.36594869E-01 0.12817706E+03</pdfrwt>
<pdfrwt beam="1">  1       -4 0.91559873E-02 0.12817706E+03</pdfrwt>
<totfact> 0.25760066E+04</totfact>
</mgrwt>
</event>
<event>
 6    4  0.6326233E-003  0.1268348E+03  0.7818608E-02  0.1232229E+00
          4   -1    0    0  502    0 -0.00000000000E+00  0.00000000000E+00  0.24779076216E+03  0.24779401670E+03  0.12700000000E+01 0. -1.
         21   -1    0    0  501  502  0.00000000000E+00 -0.00000000000E+00 -0.47218503886E+02  0.47218503886E+02  0.00000000000E+00 0.  1.
         25    2    1    2    0    0  0.21487367566E+02 -0.83769463358E+00  0.22753707837E+03  0.26049986900E+03  0.12499860406E+03 0.  0.
    9000005    1    3    3    0    0 -0.25372706236E+02  0.79601886434E+01  0.20678637459E+03  0.20849159106E+03  0.10000000000E+01 0.  0.
    9000005    1    3    3    0    0  0.46860073802E+02 -0.87978832770E+01  0.20750703777E+02  0.52008277939E+02  0.10000000000E+01 0.  0.
          4    1    1    2  501    0 -0.21487367566E+02  0.83769463358E+00 -0.26964820093E+02  0.34512651591E+02  0.12700000000E+01 0.  1.
<mgrwt>
<rscale>  1 0.12683477E+03</rscale>
<asrwt>0</asrwt>
<pdfrwt beam="2">  1       21 0.72643854E-02 0.12683477E+03</pdfrwt>
<pdfrwt beam="1">  1        4 0.38123219E-01 0.12683477E+03</pdfrwt>
<totfact> 0.38119976E+04</totfact>
</mgrwt>
</event>
<event>
 6    4  0.6326233E-003  0.1273427E+03  0.7818608E-02  0.1231453E+00
         21   -1    0    0  501  502  0.00000000000E+00  0.00000000000E+00  0.19117546085E+03  0.19117546085E+03  0.00000000000E+00 0.  1.
          4   -1    0    0  502    0 -0.00000000000E+00 -0.00000000000E+00 -0.23044265371E+03  0.23044615325E+03  0.12700000000E+01 0. -1.
         25    2    1    2    0    0 -0.84194314187E+01 -0.22803570069E+02 -0.21193307183E+03  0.24724842724E+03  0.12500107281E+03 0.  0.
    9000005    1    3    3    0    0 -0.23900821534E+02  0.29599250246E+02 -0.11885558023E+02  0.39870181522E+02  0.10000000000E+01 0.  0.
    9000005    1    3    3    0    0  0.15481390115E+02 -0.52402820315E+02 -0.20004751381E+03  0.20737824572E+03  0.10000000000E+01 0.  0.
          4    1    1    2  501    0  0.84194314187E+01  0.22803570069E+02  0.17266587897E+03  0.17437318686E+03  0.12700000000E+01 0.  1.
<mgrwt>
<rscale>  1 0.12734268E+03</rscale>
<asrwt>0</asrwt>
<pdfrwt beam="1">  1       21 0.29411609E-01 0.12734268E+03</pdfrwt>
<pdfrwt beam="2">  1        4 0.35453310E-01 0.12734268E+03</pdfrwt>
<totfact> 0.35188032E+03</totfact>
</mgrwt>
</event>
<event>
 6    4  0.6326233E-003  0.1281553E+03  0.7818608E-02  0.1230219E+00
         -4   -1    0    0    0  501 -0.00000000000E+00  0.00000000000E+00  0.88252473091E+03  0.88252564471E+03  0.12700000000E+01 0.  1.
         21   -1    0    0  501  502  0.00000000000E+00 -0.00000000000E+00 -0.13780476767E+02  0.13780476767E+02  0.00000000000E+00 0. -1.
         25    2    1    2    0    0  0.23306460590E+02  0.15976576269E+02  0.85554951623E+03  0.86509464757E+03  0.12500132978E+03 0.  0.
    9000005    1    3    3    0    0  0.82772702040E+00 -0.52330009757E+02  0.46898018531E+03  0.47189249757E+03  0.10000000000E+01 0.  0.
    9000005    1    3    3    0    0  0.22478733569E+02  0.68306586026E+02  0.38656933092E+03  0.39320215000E+03  0.10000000000E+01 0.  0.
         -4    1    1    2    0  502 -0.23306460590E+02 -0.15976576269E+02  0.13194737913E+02  0.31211473901E+02  0.12700000000E+01 0. -1.
<mgrwt>
<rscale>  1 0.12815528E+03</rscale>
<asrwt>0</asrwt>
<pdfrwt beam="2">  1       21 0.21200740E-02 0.12815528E+03</pdfrwt>
<pdfrwt beam="1">  1       -4 0.13577756E+00 0.12815528E+03</pdfrwt>
<totfact> 0.18533176E+04</totfact>
</mgrwt>
</event>
<event>
 6    4  0.6326233E-003  0.1301989E+03  0.7818608E-02  0.1227161E+00
          4   -1    0    0  502    0 -0.00000000000E+00  0.00000000000E+00  0.18585347332E+03  0.18585781244E+03  0.12700000000E+01 0. -1.
         21   -1    0    0  501  502  0.00000000000E+00 -0.00000000000E+00 -0.53572546216E+02  0.53572546216E+02  0.00000000000E+00 0.  1.
         25    2    1    2    0    0 -0.35246431802E+02  0.91683474615E+01  0.15023826252E+03  0.19880464826E+03  0.12500153237E+03 0.  0.
    9000005    1    3    3    0    0 -0.67557115453E+02  0.42115065393E+02  0.68931630715E+02  0.10531007689E+03  0.10000000000E+01 0.  0.
    9000005    1    3    3    0    0  0.32310683651E+02 -0.32946717932E+02  0.81306631808E+02  0.93494571375E+02  0.10000000000E+01 0.  0.
          4    1    1    2  501    0  0.35246431802E+02 -0.91683474615E+01 -0.17957335416E+02  0.40625710396E+02  0.12700000000E+01 0.  1.
<mgrwt>
<rscale>  1 0.13019890E+03</rscale>
<asrwt>0</asrwt>
<pdfrwt beam="2">  1       21 0.82419303E-02 0.13019890E+03</pdfrwt>
<pdfrwt beam="1">  1        4 0.28594333E-01 0.13019890E+03</pdfrwt>
<totfact> 0.53356830E+04</totfact>
</mgrwt>
</event>
<event>
 6    4  0.6326233E-003  0.1282682E+03  0.7818608E-02  0.1230048E+00
         21   -1    0    0  501  502  0.00000000000E+00  0.00000000000E+00  0.12986918313E+02  0.12986918313E+02  0.00000000000E+00 0. -1.
          4   -1    0    0  502    0 -0.00000000000E+00 -0.00000000000E+00 -0.77006542425E+03  0.77006647150E+03  0.12700000000E+01 0. -1.
         25    2    1    2    0    0  0.22884616840E+02 -0.17428599438E+02 -0.73668720902E+03  0.74777053766E+03  0.12500108515E+03 0.  0.
    9000005    1    3    3    0    0  0.43447915511E+02 -0.28363816974E+02 -0.71173007909E+03  0.71361959961E+03  0.10000000000E+01 0.  0.
    9000005    1    3    3    0    0 -0.20563298671E+02  0.10935217536E+02 -0.24957129931E+02  0.34150938043E+02  0.10000000000E+01 0.  0.
          4    1    1    2  501    0 -0.22884616840E+02  0.17428599438E+02 -0.20391296921E+02  0.35282852158E+02  0.12700000000E+01 0.  1.
<mgrwt>
<rscale>  1 0.12826821E+03</rscale>
<asrwt>0</asrwt>
<pdfrwt beam="1">  1       21 0.19979872E-02 0.12826821E+03</pdfrwt>
<pdfrwt beam="2">  1        4 0.11847647E+00 0.12826821E+03</pdfrwt>
<totfact> 0.28415747E+04</totfact>
</mgrwt>
</event>
<event>
 6    4  0.6326233E-003  0.1302887E+03  0.7818608E-02  0.1227028E+00
         21   -1    0    0  501  502  0.00000000000E+00  0.00000000000E+00  0.62295599718E+03  0.62295599718E+03  0.00000000000E+00 0.  1.
         -4   -1    0    0    0  501 -0.00000000000E+00 -0.00000000000E+00 -0.11538343888E+02  0.11608026519E+02  0.12700000000E+01 0.  1.
         25    2    1    2    0    0 -0.20926117049E+02  0.30195860341E+02  0.51899946754E+03  0.53510334647E+03  0.12500180696E+03 0.  0.
    9000005    1    3    3    0    0  0.33749806277E+02  0.58964644473E+02  0.24717340790E+03  0.25634268527E+03  0.10000000000E+01 0.  0.
    9000005    1    3    3    0    0 -0.54675923326E+02 -0.28768784132E+02  0.27182605964E+03  0.27876066120E+03  0.10000000000E+01 0.  0.
         -4    1    1    2    0  502  0.20926117049E+02 -0.30195860341E+02  0.92418185760E+02  0.99460677233E+02  0.12700000000E+01 0. -1.
<mgrwt>
<rscale>  1 0.13028870E+03</rscale>
<asrwt>0</asrwt>
<pdfrwt beam="1">  1       21 0.95839358E-01 0.13028870E+03</pdfrwt>
<pdfrwt beam="2">  1       -4 0.17805901E-02 0.13028870E+03</pdfrwt>
<totfact> 0.45104500E+04</totfact>
</mgrwt>
</event>
<event>
 6    4  0.6326233E-003  0.1294153E+03  0.7818608E-02  0.1228326E+00
         21   -1    0    0  501  502  0.00000000000E+00  0.00000000000E+00  0.35324829962E+03  0.35324829962E+03  0.00000000000E+00 0. -1.
         -4   -1    0    0    0  501 -0.00000000000E+00 -0.00000000000E+00 -0.76853020483E+02  0.76863513173E+02  0.12700000000E+01 0.  1.
         25    2    1    2    0    0  0.41716835687E+01 -0.33186720459E+02 -0.20766543182E+02  0.13107080741E+03  0.12501818220E+03 0.  0.
    9000005    1    3    3    0    0  0.32589675790E+02  0.33343008842E+02  0.16773268676E+02  0.49559920790E+02  0.10000000000E+01 0.  0.
    9000005    1    3    3    0    0 -0.28417992221E+02 -0.66529729301E+02 -0.37539811858E+02  0.81510886617E+02  0.10000000000E+01 0.  0.
         -4    1    1    2    0  502 -0.41716835687E+01  0.33186720459E+02  0.29716182231E+03  0.29904100538E+03  0.12700000000E+01 0. -1.
<mgrwt>
<rscale>  1 0.12941525E+03</rscale>
<asrwt>0</asrwt>
<pdfrwt beam="1">  1       21 0.54345891E-01 0.12941525E+03</pdfrwt>
<pdfrwt beam="2">  1       -4 0.11824525E-01 0.12941525E+03</pdfrwt>
<totfact> 0.74999765E+03</totfact>
</mgrwt>
</event>
<event>
 6    4  0.6326233E-003  0.1311689E+03  0.7818608E-02  0.1225732E+00
          4   -1    0    0  502    0 -0.00000000000E+00  0.00000000000E+00  0.73350177830E+02  0.73361171526E+02  0.12700000000E+01 0. -1.
         21   -1    0    0  501  502  0.00000000000E+00 -0.00000000000E+00 -0.29597874760E+03  0.29597874760E+03  0.00000000000E+00 0.  1.
         25    2    1    2    0    0  0.35928452220E+02 -0.17012827716E+02  0.11672352331E+02  0.13168717880E+03  0.12499991706E+03 0.  0.
    9000005    1    3    3    0    0  0.50556211162E+02 -0.60849677173E+02 -0.11552628948E+02  0.79956719134E+02  0.10000000000E+01 0.  0.
    9000005    1    3    3    0    0 -0.14627758942E+02  0.43836849458E+02  0.23224981279E+02  0.51730459668E+02  0.10000000000E+01 0.  0.
          4    1    1    2  501    0 -0.35928452220E+02  0.17012827716E+02 -0.23430092210E+03  0.23765274032E+03  0.12700000000E+01 0.  1.
<mgrwt>
<rscale>  1 0.13116886E+03</rscale>
<asrwt>0</asrwt>
<pdfrwt beam="2">  1       21 0.45535192E-01 0.13116886E+03</pdfrwt>
<pdfrwt beam="1">  1        4 0.11285698E-01 0.13116886E+03</pdfrwt>
<totfact> 0.11706537E+04</totfact>
</mgrwt>
</event>
<event>
 6    4  0.6326233E-003  0.1268189E+03  0.7818608E-02  0.1232254E+00
         21   -1    0    0  501  502  0.00000000000E+00  0.00000000000E+00  0.22833560486E+02  0.22833560486E+02  0.00000000000E+00 0. -1.
         -4   -1    0    0    0  501 -0.00000000000E+00 -0.00000000000E+00 -0.31101012310E+03  0.31101271609E+03  0.12700000000E+01 0. -1.
         25    2    1    2    0    0  0.17134150191E+02 -0.12832401822E+02 -0.16137188495E+03  0.20524111021E+03  0.12499911371E+03 0.  0.
    9000005    1    3    3    0    0  0.60004751047E+02 -0.34631969216E+02 -0.54885950380E+02  0.88393500831E+02  0.10000000000E+01 0.  0.
    9000005    1    3    3    0    0 -0.42870600857E+02  0.21799567394E+02 -0.10648593457E+03  0.11684760938E+03  0.10000000000E+01 0.  0.
         -4    1    1    2    0  502 -0.17134150191E+02  0.12832401822E+02 -0.12680467766E+03  0.12860516636E+03  0.12700000000E+01 0.  1.
<mgrwt>
<rscale>  1 0.12681888E+03</rscale>
<asrwt>0</asrwt>
<pdfrwt beam="1">  1       21 0.35128556E-02 0.12681888E+03</pdfrwt>
<pdfrwt beam="2">  1       -4 0.47850626E-01 0.12681888E+03</pdfrwt>
<totfact> 0.82320950E+04</totfact>
</mgrwt>
</event>
<event>
 6    4  0.6326233E-003  0.1291508E+03  0.7818608E-02  0.1228721E+00
          4   -1    0    0  502    0 -0.00000000000E+00  0.00000000000E+00  0.16359679871E+03  0.16360172813E+03  0.12700000000E+01 0. -1.
         21   -1    0    0  501  502  0.00000000000E+00 -0.00000000000E+00 -0.44025331051E+02  0.44025331051E+02  0.00000000000E+00 0. -1.
         25    2    1    2    0    0  0.53197886051E+01 -0.32040685707E+02  0.66179825624E+02  0.14511957139E+03  0.12500005996E+03 0.  0.
    9000005    1    3    3    0    0  0.46746719556E+02 -0.73936966640E+01 -0.15890678365E+02  0.49934318845E+02  0.10000000000E+01 0.  0.
    9000005    1    3    3    0    0 -0.41426930951E+02 -0.24646989043E+02  0.82070503988E+02  0.95185252544E+02  0.10000000000E+01 0.  0.
          4    1    1    2  501    0 -0.53197886051E+01  0.32040685707E+02  0.53391642037E+02  0.62507487797E+02  0.12700000000E+01 0.  1.
<mgrwt>
<rscale>  1 0.12915077E+03</rscale>
<asrwt>0</asrwt>
<pdfrwt beam="2">  1       21 0.67731280E-02 0.12915077E+03</pdfrwt>
<pdfrwt beam="1">  1        4 0.25170526E-01 0.12915077E+03</pdfrwt>
<totfact> 0.94659344E+04</totfact>
</mgrwt>
</event>
<event>
 6    4  0.6326233E-003  0.1488408E+03  0.7818608E-02  0.1201905E+00
         21   -1    0    0  501  502  0.00000000000E+00  0.00000000000E+00  0.69861472818E+02  0.69861472818E+02  0.00000000000E+00 0.  1.
         -4   -1    0    0    0  501 -0.00000000000E+00 -0.00000000000E+00 -0.29678240830E+03  0.29678512560E+03  0.12700000000E+01 0. -1.
         25    2    1    2    0    0 -0.80815266756E+02 -0.20141790821E+00 -0.24230675341E+03  0.28436972315E+03  0.12498971473E+03 0.  0.
    9000005    1    3    3    0    0 -0.93433900036E+02 -0.25970460684E+02 -0.23575271862E+03  0.25492097371E+03  0.10000000000E+01 0.  0.
    9000005    1    3    3    0    0  0.12618633280E+02  0.25769042776E+02 -0.65540347893E+01  0.29448749438E+02  0.10000000000E+01 0.  0.
         -4    1    1    2    0  502  0.80815266756E+02  0.20141790821E+00  0.15385817925E+02  0.82276875264E+02  0.12700000000E+01 0.  1.
<mgrwt>
<rscale>  1 0.14884078E+03</rscale>
<asrwt>0</asrwt>
<pdfrwt beam="1">  1       21 0.10747919E-01 0.14884078E+03</pdfrwt>
<pdfrwt beam="2">  1       -4 0.45659930E-01 0.14884078E+03</pdfrwt>
<totfact> 0.13727978E+04</totfact>
</mgrwt>
</event>
<event>
 6    4  0.6326233E-003  0.1273298E+03  0.7818608E-02  0.1231473E+00
          4   -1    0    0  502    0 -0.00000000000E+00  0.00000000000E+00  0.14167612461E+03  0.14168181670E+03  0.12700000000E+01 0. -1.
         21   -1    0    0  501  502  0.00000000000E+00 -0.00000000000E+00 -0.95130385655E+02  0.95130385655E+02  0.00000000000E+00 0.  1.
         25    2    1    2    0    0  0.30547075445E+01 -0.24038453213E+02  0.11038544255E+03  0.16851652807E+03  0.12500278331E+03 0.  0.
    9000005    1    3    3    0    0  0.20179233366E+02 -0.64414906489E+02  0.24032485274E+02  0.71659207264E+02  0.10000000000E+01 0.  0.
    9000005    1    3    3    0    0 -0.17124525822E+02  0.40376453276E+02  0.86352957277E+02  0.96857320809E+02  0.10000000000E+01 0.  0.
          4    1    1    2  501    0 -0.30547075445E+01  0.24038453213E+02 -0.63839703595E+02  0.68295674286E+02  0.12700000000E+01 0.  1.
<mgrwt>
<rscale>  1 0.12732979E+03</rscale>
<asrwt>0</asrwt>
<pdfrwt beam="2">  1       21 0.14635444E-01 0.12732979E+03</pdfrwt>
<pdfrwt beam="1">  1        4 0.21797417E-01 0.12732979E+03</pdfrwt>
<totfact> 0.31925997E+04</totfact>
</mgrwt>
</event>
<event>
 6    4  0.6326233E-003  0.1281785E+03  0.7818608E-02  0.1230184E+00
         -4   -1    0    0    0  501 -0.00000000000E+00  0.00000000000E+00  0.12469946980E+03  0.12470593678E+03  0.12700000000E+01 0.  1.
         21   -1    0    0  501  502  0.00000000000E+00 -0.00000000000E+00 -0.58773477546E+02  0.58773477546E+02  0.00000000000E+00 0. -1.
         25    2    1    2    0    0  0.23320092095E+02 -0.16141236807E+02  0.80708703903E+02  0.15147148274E+03  0.12500139590E+03 0.  0.
    9000005    1    3    3    0    0 -0.29997643500E+00 -0.69248345110E+02  0.52202872897E+02  0.86726946360E+02  0.10000000000E+01 0.  0.
    9000005    1    3    3    0    0  0.23620068530E+02  0.53107108303E+02  0.28505831007E+02  0.64744536380E+02  0.10000000000E+01 0.  0.
         -4    1    1    2    0  502 -0.23320092095E+02  0.16141236807E+02 -0.14782711647E+02  0.32007931589E+02  0.12700000000E+01 0. -1.
<mgrwt>
<rscale>  1 0.12817845E+03</rscale>
<asrwt>0</asrwt>
<pdfrwt beam="2">  1       21 0.90420735E-02 0.12817845E+03</pdfrwt>
<pdfrwt beam="1">  1       -4 0.19186087E-01 0.12817845E+03</pdfrwt>
<totfact> 0.94147346E+04</totfact>
</mgrwt>
</event>
<event>
 6    4  0.6326233E-003  0.1273237E+03  0.7818608E-02  0.1231482E+00
         21   -1    0    0  501  502  0.00000000000E+00  0.00000000000E+00  0.25648498911E+02  0.25648498911E+02  0.00000000000E+00 0. -1.
          4   -1    0    0  502    0 -0.00000000000E+00 -0.00000000000E+00 -0.25138607779E+03  0.25138928578E+03  0.12700000000E+01 0. -1.
         25    2    1    2    0    0  0.21292665943E+02  0.11529156568E+02 -0.21635378801E+03  0.25103840960E+03  0.12500008974E+03 0.  0.
    9000005    1    3    3    0    0  0.38220001232E+02  0.13589945916E+02 -0.72269265579E+01  0.41215089369E+02  0.10000000000E+01 0.  0.
    9000005    1    3    3    0    0 -0.16927335289E+02 -0.20607893482E+01 -0.20912686145E+03  0.20982332023E+03  0.10000000000E+01 0.  0.
          4    1    1    2  501    0 -0.21292665943E+02 -0.11529156568E+02 -0.93837908690E+01  0.25999375092E+02  0.12700000000E+01 0.  1.
<mgrwt>
<rscale>  1 0.12732369E+03</rscale>
<asrwt>0</asrwt>
<pdfrwt beam="1">  1       21 0.39459227E-02 0.12732369E+03</pdfrwt>
<pdfrwt beam="2">  1        4 0.38677449E-01 0.12732369E+03</pdfrwt>
<totfact> 0.10372051E+05</totfact>
</mgrwt>
</event>
<event>
 6    4  0.6326233E-003  0.1280910E+03  0.7818608E-02  0.1230316E+00
         -4   -1    0    0    0  501 -0.00000000000E+00  0.00000000000E+00  0.18097930089E+02  0.18142435710E+02  0.12700000000E+01 0.  1.
         21   -1    0    0  501  502  0.00000000000E+00 -0.00000000000E+00 -0.34505797420E+03  0.34505797420E+03  0.00000000000E+00 0.  1.
         25    2    1    2    0    0  0.10471505513E+02  0.25943191847E+02 -0.28818315376E+03  0.31536776670E+03  0.12499838612E+03 0.  0.
    9000005    1    3    3    0    0 -0.18291040541E+02  0.21031827774E+01 -0.27518243184E+03  0.27579948574E+03  0.10000000000E+01 0.  0.
    9000005    1    3    3    0    0  0.28762546054E+02  0.23840009070E+02 -0.13000721923E+02  0.39568280965E+02  0.10000000000E+01 0.  0.
         -4    1    1    2    0  502 -0.10471505513E+02 -0.25943191847E+02 -0.38776890354E+02  0.47832643210E+02  0.12700000000E+01 0. -1.
<mgrwt>
<rscale>  1 0.12809098E+03</rscale>
<asrwt>0</asrwt>
<pdfrwt beam="2">  1       21 0.53085838E-01 0.12809098E+03</pdfrwt>
<pdfrwt beam="1">  1       -4 0.27879004E-02 0.12809098E+03</pdfrwt>
<totfact> 0.82177241E+04</totfact>
</mgrwt>
</event>
<event>
 6    4  0.6326233E-003  0.1281136E+03  0.7818608E-02  0.1230282E+00
         21   -1    0    0  501  502  0.00000000000E+00  0.00000000000E+00  0.20197551969E+03  0.20197551969E+03  0.00000000000E+00 0. -1.
          4   -1    0    0  502    0 -0.00000000000E+00 -0.00000000000E+00 -0.41379498530E+02  0.41398983062E+02  0.12700000000E+01 0. -1.
         25    2    1    2    0    0 -0.17812190940E+02  0.21724050137E+02  0.64865265449E+02  0.14359875926E+03  0.12499556992E+03 0.  0.
    9000005    1    3    3    0    0  0.27405675663E+02 -0.31086043732E+02  0.61268727341E+02  0.73974793838E+02  0.10000000000E+01 0.  0.
    9000005    1    3    3    0    0 -0.45217866603E+02  0.52810093870E+02  0.35965381083E+01  0.69623965422E+02  0.10000000000E+01 0.  0.
          4    1    1    2  501    0  0.17812190940E+02 -0.21724050137E+02  0.95730755714E+02  0.99775743495E+02  0.12700000000E+01 0.  1.
<mgrwt>
<rscale>  1 0.12811363E+03</rscale>
<asrwt>0</asrwt>
<pdfrwt beam="1">  1       21 0.31073156E-01 0.12811363E+03</pdfrwt>
<pdfrwt beam="2">  1        4 0.63678827E-02 0.12811363E+03</pdfrwt>
<totfact> 0.64562238E+04</totfact>
</mgrwt>
</event>
<event>
 6    4  0.6326233E-003  0.1277260E+03  0.7818608E-02  0.1230869E+00
          4   -1    0    0  502    0 -0.00000000000E+00  0.00000000000E+00  0.25032222795E+03  0.25032544958E+03  0.12700000000E+01 0.  1.
         21   -1    0    0  501  502  0.00000000000E+00 -0.00000000000E+00 -0.23689817855E+02  0.23689817855E+02  0.00000000000E+00 0.  1.
         25    2    1    2    0    0  0.24867441177E+02 -0.83750442901E+01  0.18973839462E+03  0.22872385240E+03  0.12500164506E+03 0.  0.
    9000005    1    3    3    0    0  0.54445379069E+02 -0.15365795449E+01  0.19070563837E+03  0.19833381176E+03  0.10000000000E+01 0.  0.
    9000005    1    3    3    0    0 -0.29577937892E+02 -0.68384647452E+01 -0.96724375222E+00  0.30390040646E+02  0.10000000000E+01 0.  0.
          4    1    1    2  501    0 -0.24867441177E+02  0.83750442901E+01  0.36894015474E+02  0.45291415030E+02  0.12700000000E+01 0. -1.
<mgrwt>
<rscale>  1 0.12772604E+03</rscale>
<asrwt>0</asrwt>
<pdfrwt beam="2">  1       21 0.36445876E-02 0.12772604E+03</pdfrwt>
<pdfrwt beam="1">  1        4 0.38513976E-01 0.12772604E+03</pdfrwt>
<totfact> 0.11934891E+05</totfact>
</mgrwt>
</event>
<event>
 6    4  0.6326233E-003  0.1289027E+03  0.7818608E-02  0.1229093E+00
          4   -1    0    0  502    0 -0.00000000000E+00  0.00000000000E+00  0.13334735583E+03  0.13335340344E+03  0.12700000000E+01 0.  1.
         21   -1    0    0  501  502  0.00000000000E+00 -0.00000000000E+00 -0.61722136869E+02  0.61722136869E+02  0.00000000000E+00 0.  1.
         25    2    1    2    0    0 -0.18991931562E+01 -0.31436764331E+02  0.91262538007E+02  0.15793911229E+03  0.12499614099E+03 0.  0.
    9000005    1    3    3    0    0  0.19793160538E+02  0.38879976743E+02  0.40532788089E+01  0.43827512646E+02  0.10000000000E+01 0.  0.
    9000005    1    3    3    0    0 -0.21692353694E+02 -0.70316741074E+02  0.87209259198E+02  0.11411159965E+03  0.10000000000E+01 0.  0.
          4    1    1    2  501    0  0.18991931562E+01  0.31436764331E+02 -0.19637319043E+02  0.37136428012E+02  0.12700000000E+01 0. -1.
<mgrwt>
<rscale>  1 0.12890272E+03</rscale>
<asrwt>0</asrwt>
<pdfrwt beam="2">  1       21 0.94957134E-02 0.12890272E+03</pdfrwt>
<pdfrwt beam="1">  1        4 0.20516448E-01 0.12890272E+03</pdfrwt>
<totfact> 0.76713893E+04</totfact>
</mgrwt>
</event>
<event>
 6    4  0.6326233E-003  0.1275135E+03  0.7818608E-02  0.1231193E+00
         21   -1    0    0  501  502  0.00000000000E+00  0.00000000000E+00  0.44924350775E+03  0.44924350775E+03  0.00000000000E+00 0. -1.
          4   -1    0    0  502    0 -0.00000000000E+00 -0.00000000000E+00 -0.52839221727E+02  0.52854481861E+02  0.12700000000E+01 0.  1.
         25    2    1    2    0    0 -0.14645033330E+01 -0.25134170579E+02  0.25126693334E+02  0.12996557362E+03  0.12500331318E+03 0.  0.
    9000005    1    3    3    0    0  0.33583815205E+02 -0.16174468897E+02  0.65732964807E+02  0.75573201270E+02  0.10000000000E+01 0.  0.
    9000005    1    3    3    0    0 -0.35048318538E+02 -0.89597016822E+01 -0.40606271474E+02  0.54392372347E+02  0.10000000000E+01 0.  0.
          4    1    1    2  501    0  0.14645033330E+01  0.25134170579E+02  0.37127759269E+03  0.37213241600E+03  0.12700000000E+01 0. -1.
<mgrwt>
<rscale>  1 0.12751353E+03</rscale>
<asrwt>0</asrwt>
<pdfrwt beam="1">  1       21 0.69114383E-01 0.12751353E+03</pdfrwt>
<pdfrwt beam="2">  1        4 0.81304233E-02 0.12751353E+03</pdfrwt>
<totfact> 0.84236956E+03</totfact>
</mgrwt>
</event>
<event>
 6    4  0.6326233E-003  0.1303247E+03  0.7818608E-02  0.1226975E+00
         21   -1    0    0  501  502  0.00000000000E+00  0.00000000000E+00  0.46458638421E+02  0.46458638421E+02  0.00000000000E+00 0. -1.
          4   -1    0    0  502    0 -0.00000000000E+00 -0.00000000000E+00 -0.16559406080E+03  0.16559893077E+03  0.12700000000E+01 0. -1.
         25    2    1    2    0    0  0.21178937585E+02  0.30188454688E+02 -0.11693216286E+03  0.17509329663E+03  0.12499856646E+03 0.  0.
    9000005    1    3    3    0    0  0.60058757327E+01 -0.44260934030E+02 -0.77571050499E+02  0.89517421210E+02  0.10000000000E+01 0.  0.
    9000005    1    3    3    0    0  0.15173061852E+02  0.74449388719E+02 -0.39361112365E+02  0.85575875416E+02  0.10000000000E+01 0.  0.
          4    1    1    2  501    0 -0.21178937585E+02 -0.30188454688E+02 -0.22032595138E+01  0.36964272564E+02  0.12700000000E+01 0.  1.
<mgrwt>
<rscale>  1 0.13032472E+03</rscale>
<asrwt>0</asrwt>
<pdfrwt beam="1">  1       21 0.71474828E-02 0.13032472E+03</pdfrwt>
<pdfrwt beam="2">  1        4 0.25477719E-01 0.13032472E+03</pdfrwt>
<totfact> 0.84534625E+04</totfact>
</mgrwt>
</event>
<event>
 6    4  0.6326233E-003  0.1577107E+03  0.7818608E-02  0.1191306E+00
         -4   -1    0    0    0  501 -0.00000000000E+00  0.00000000000E+00  0.45287050374E+03  0.45287228449E+03  0.12700000000E+01 0. -1.
         21   -1    0    0  501  502  0.00000000000E+00 -0.00000000000E+00 -0.38480802085E+03  0.38480802085E+03  0.00000000000E+00 0.  1.
         25    2    1    2    0    0 -0.22980394864E+02  0.93378885987E+02  0.43271459751E+03  0.46055898204E+03  0.12499975255E+03 0.  0.
    9000005    1    3    3    0    0 -0.72212421641E+02  0.56205858070E+02  0.30972075672E+03  0.32295770538E+03  0.10000000000E+01 0.  0.
    9000005    1    3    3    0    0  0.49232026777E+02  0.37173027917E+02  0.12299384079E+03  0.13760127666E+03  0.10000000000E+01 0.  0.
         -4    1    1    2    0  502  0.22980394864E+02 -0.93378885987E+02 -0.36465211462E+03  0.37712132331E+03  0.12700000000E+01 0.  1.
<mgrwt>
<rscale>  1 0.15771066E+03</rscale>
<asrwt>0</asrwt>
<pdfrwt beam="2">  1       21 0.59201234E-01 0.15771066E+03</pdfrwt>
<pdfrwt beam="1">  1       -4 0.69672683E-01 0.15771066E+03</pdfrwt>
<totfact> 0.21698045E+02</totfact>
</mgrwt>
</event>
<event>
 6    4  0.6326233E-003  0.1294311E+03  0.7818608E-02  0.1228302E+00
          4   -1    0    0  502    0 -0.00000000000E+00  0.00000000000E+00  0.68793500036E+03  0.68793617263E+03  0.12700000000E+01 0. -1.
         21   -1    0    0  501  502  0.00000000000E+00 -0.00000000000E+00 -0.12325659047E+02  0.12325659047E+02  0.00000000000E+00 0. -1.
         25    2    1    2    0    0 -0.20868112790E+02 -0.26316451544E+02  0.63245522354E+03  0.64556334419E+03  0.12499755128E+03 0.  0.
    9000005    1    3    3    0    0  0.49352270954E+02  0.73673524658E+01  0.29865551615E+03  0.30279703079E+03  0.10000000000E+01 0.  0.
    9000005    1    3    3    0    0 -0.70220383744E+02 -0.33683804010E+02  0.33379970739E+03  0.34276631339E+03  0.10000000000E+01 0.  0.
          4    1    1    2  501    0  0.20868112790E+02  0.26316451544E+02  0.43154117776E+02  0.54698487495E+02  0.12700000000E+01 0.  1.
<mgrwt>
<rscale>  1 0.12943115E+03</rscale>
<asrwt>0</asrwt>
<pdfrwt beam="2">  1       21 0.18962558E-02 0.12943115E+03</pdfrwt>
<pdfrwt beam="1">  1        4 0.10584125E+00 0.12943115E+03</pdfrwt>
<totfact> 0.40383974E+04</totfact>
</mgrwt>
</event>
<event>
 6    4  0.6326233E-003  0.1267154E+03  0.7818608E-02  0.1232413E+00
         21   -1    0    0  501  502  0.00000000000E+00  0.00000000000E+00  0.14085645427E+02  0.14085645427E+02  0.00000000000E+00 0. -1.
          4   -1    0    0  502    0 -0.00000000000E+00 -0.00000000000E+00 -0.10658347860E+04  0.10658355427E+04  0.12700000000E+01 0.  1.
         25    2    1    2    0    0  0.12700350604E+02  0.16458617269E+02 -0.10514839102E+04  0.10590916841E+04  0.12499838793E+03 0.  0.
    9000005    1    3    3    0    0 -0.18889253302E+02  0.45597971781E+02 -0.90714321178E+03  0.90848543500E+03  0.10000000000E+01 0.  0.
    9000005    1    3    3    0    0  0.31589603905E+02 -0.29139354512E+02 -0.14434069842E+03  0.15060624913E+03  0.10000000000E+01 0.  0.
          4    1    1    2  501    0 -0.12700350604E+02 -0.16458617269E+02 -0.26523038934E+00  0.20829503955E+02  0.12700000000E+01 0. -1.
<mgrwt>
<rscale>  1 0.12671536E+03</rscale>
<asrwt>0</asrwt>
<pdfrwt beam="1">  1       21 0.21670215E-02 0.12671536E+03</pdfrwt>
<pdfrwt beam="2">  1        4 0.16397911E+00 0.12671536E+03</pdfrwt>
<totfact> 0.11058363E+04</totfact>
</mgrwt>
</event>
<event>
 6    4  0.6326233E-003  0.1365504E+03  0.7818608E-02  0.1218047E+00
          4   -1    0    0  502    0 -0.00000000000E+00  0.00000000000E+00  0.11429498738E+04  0.11429505794E+04  0.12700000000E+01 0. -1.
         21   -1    0    0  501  502  0.00000000000E+00 -0.00000000000E+00 -0.13688196554E+02  0.13688196554E+02  0.00000000000E+00 0.  1.
         25    2    1    2    0    0 -0.37738644962E+02 -0.39951075900E+02  0.10573075422E+04  0.10660887663E+04  0.12500290058E+03 0.  0.
    9000005    1    3    3    0    0 -0.65766596821E+02  0.18983854311E+02  0.43294304825E+03  0.43832215893E+03  0.10000000000E+01 0.  0.
    9000005    1    3    3    0    0  0.28027951858E+02 -0.58934930211E+02  0.62436449391E+03  0.62776660738E+03  0.10000000000E+01 0.  0.
          4    1    1    2  501    0  0.37738644962E+02  0.39951075900E+02  0.71954135111E+02  0.90550009656E+02  0.12700000000E+01 0.  1.
<mgrwt>
<rscale>  1 0.13655043E+03</rscale>
<asrwt>0</asrwt>
<pdfrwt beam="2">  1       21 0.21058773E-02 0.13655043E+03</pdfrwt>
<pdfrwt beam="1">  1        4 0.17584295E+00 0.13655043E+03</pdfrwt>
<totfact> 0.96839692E+03</totfact>
</mgrwt>
</event>
<event>
 6    4  0.6326233E-003  0.1297958E+03  0.7818608E-02  0.1227759E+00
          4   -1    0    0  502    0 -0.00000000000E+00  0.00000000000E+00  0.61251963584E+03  0.61252095245E+03  0.12700000000E+01 0. -1.
         21   -1    0    0  501  502  0.00000000000E+00 -0.00000000000E+00 -0.14854846374E+02  0.14854846374E+02  0.00000000000E+00 0.  1.
         25    2    1    2    0    0 -0.25383753321E+02 -0.23999374252E+02  0.56436230434E+03  0.57909564438E+03  0.12500659937E+03 0.  0.
    9000005    1    3    3    0    0 -0.70022085779E+02 -0.37891884974E+02  0.41554745139E+03  0.42310704532E+03  0.10000000000E+01 0.  0.
    9000005    1    3    3    0    0  0.44638332459E+02  0.13892510721E+02  0.14881485295E+03  0.15598859906E+03  0.10000000000E+01 0.  0.
          4    1    1    2  501    0  0.25383753321E+02  0.23999374252E+02  0.33302485125E+02  0.48280154439E+02  0.12700000000E+01 0.  1.
<mgrwt>
<rscale>  1 0.12979582E+03</rscale>
<asrwt>0</asrwt>
<pdfrwt beam="2">  1       21 0.22853615E-02 0.12979582E+03</pdfrwt>
<pdfrwt beam="1">  1        4 0.94238048E-01 0.12979582E+03</pdfrwt>
<totfact> 0.39068903E+04</totfact>
</mgrwt>
</event>
<event>
 6    4  0.6326233E-003  0.1267893E+03  0.7818608E-02  0.1232299E+00
         21   -1    0    0  501  502  0.00000000000E+00  0.00000000000E+00  0.22049208295E+02  0.22049208295E+02  0.00000000000E+00 0. -1.
         -4   -1    0    0    0  501 -0.00000000000E+00 -0.00000000000E+00 -0.50526202612E+03  0.50526362222E+03  0.12700000000E+01 0.  1.
         25    2    1    2    0    0 -0.12433675306E+02  0.17278891644E+02 -0.48903771704E+03  0.50520629915E+03  0.12498943809E+03 0.  0.
    9000005    1    3    3    0    0  0.44213514581E+02  0.40530361896E+02 -0.16822844616E+03  0.17860390591E+03  0.10000000000E+01 0.  0.
    9000005    1    3    3    0    0 -0.56647189887E+02 -0.23251470253E+02 -0.32080927088E+03  0.32660239325E+03  0.10000000000E+01 0.  0.
         -4    1    1    2    0  502  0.12433675306E+02 -0.17278891644E+02  0.58248992160E+01  0.22106531364E+02  0.12700000000E+01 0. -1.
<mgrwt>
<rscale>  1 0.12678926E+03</rscale>
<asrwt>0</asrwt>
<pdfrwt beam="1">  1       21 0.33921858E-02 0.12678926E+03</pdfrwt>
<pdfrwt beam="2">  1       -4 0.77735558E-01 0.12678926E+03</pdfrwt>
<totfact> 0.31410076E+04</totfact>
</mgrwt>
</event>
<event>
 6    4  0.6326233E-003  0.1373123E+03  0.7818608E-02  0.1216992E+00
         21   -1    0    0  501  502  0.00000000000E+00  0.00000000000E+00  0.10525336230E+03  0.10525336230E+03  0.00000000000E+00 0. -1.
         -4   -1    0    0    0  501 -0.00000000000E+00 -0.00000000000E+00 -0.15632089741E+03  0.15632605627E+03  0.12700000000E+01 0.  1.
         25    2    1    2    0    0  0.31335600657E+02  0.47400031087E+02 -0.11277383786E+03  0.17768684730E+03  0.12500397747E+03 0.  0.
    9000005    1    3    3    0    0 -0.42221470001E+02  0.32816697892E+02 -0.79083858985E+02  0.95471697071E+02  0.10000000000E+01 0.  0.
    9000005    1    3    3    0    0  0.73557070658E+02  0.14583333195E+02 -0.33689978871E+02  0.82215150229E+02  0.10000000000E+01 0.  0.
         -4    1    1    2    0  502 -0.31335600657E+02 -0.47400031087E+02  0.61706302743E+02  0.83892571267E+02  0.12700000000E+01 0. -1.
<mgrwt>
<rscale>  1 0.13731233E+03</rscale>
<asrwt>0</asrwt>
<pdfrwt beam="1">  1       21 0.16192825E-01 0.13731233E+03</pdfrwt>
<pdfrwt beam="2">  1       -4 0.24050355E-01 0.13731233E+03</pdfrwt>
<totfact> 0.22401460E+04</totfact>
</mgrwt>
</event>
<event>
 6    4  0.6326233E-003  0.1276655E+03  0.7818608E-02  0.1230961E+00
         -4   -1    0    0    0  501 -0.00000000000E+00  0.00000000000E+00  0.89883002443E+03  0.89883092165E+03  0.12700000000E+01 0. -1.
         21   -1    0    0  501  502  0.00000000000E+00 -0.00000000000E+00 -0.76454224432E+01  0.76454224432E+01  0.00000000000E+00 0. -1.
         25    2    1    2    0    0 -0.13178853537E+02 -0.22387225213E+02  0.83322211316E+03  0.84294577630E+03  0.12499448744E+03 0.  0.
    9000005    1    3    3    0    0 -0.17412804426E+02  0.43231636229E+02  0.16389865272E+03  0.17039937938E+03  0.10000000000E+01 0.  0.
    9000005    1    3    3    0    0  0.42339508886E+01 -0.65618861442E+02  0.66932346044E+03  0.67254639692E+03  0.10000000000E+01 0.  0.
         -4    1    1    2    0  502  0.13178853537E+02  0.22387225213E+02  0.57962488822E+02  0.63530567790E+02  0.12700000000E+01 0.  1.
<mgrwt>
<rscale>  1 0.12766555E+03</rscale>
<asrwt>0</asrwt>
<pdfrwt beam="2">  1       21 0.11762196E-02 0.12766555E+03</pdfrwt>
<pdfrwt beam="1">  1       -4 0.13828964E+00 0.12766555E+03</pdfrwt>
<totfact> 0.45427350E+04</totfact>
</mgrwt>
</event>
<event>
 6    4  0.6326233E-003  0.1449765E+03  0.7818608E-02  0.1206785E+00
          4   -1    0    0  502    0 -0.00000000000E+00  0.00000000000E+00  0.16172121199E+03  0.16172619859E+03  0.12700000000E+01 0. -1.
         21   -1    0    0  501  502  0.00000000000E+00 -0.00000000000E+00 -0.10349843803E+03  0.10349843803E+03  0.00000000000E+00 0.  1.
         25    2    1    2    0    0  0.18695805860E+02 -0.71021580465E+02  0.10422822282E+03  0.17855450178E+03  0.12499835848E+03 0.  0.
    9000005    1    3    3    0    0 -0.35833367760E+02 -0.44858499279E+01 -0.81413936010E+01  0.37032895976E+02  0.10000000000E+01 0.  0.
    9000005    1    3    3    0    0  0.54529173620E+02 -0.66535730538E+02  0.11236961642E+03  0.14152160580E+03  0.10000000000E+01 0.  0.
          4    1    1    2  501    0 -0.18695805860E+02  0.71021580465E+02 -0.46005448851E+02  0.86670134836E+02  0.12700000000E+01 0.  1.
<mgrwt>
<rscale>  1 0.14497651E+03</rscale>
<asrwt>0</asrwt>
<pdfrwt beam="2">  1       21 0.15922837E-01 0.14497651E+03</pdfrwt>
<pdfrwt beam="1">  1        4 0.24881170E-01 0.14497651E+03</pdfrwt>
<totfact> 0.21810906E+04</totfact>
</mgrwt>
</event>
<event>
 6    4  0.6326233E-003  0.1273414E+03  0.7818608E-02  0.1231455E+00
          4   -1    0    0  502    0 -0.00000000000E+00  0.00000000000E+00  0.36201198635E+02  0.36223468672E+02  0.12700000000E+01 0.  1.
         21   -1    0    0  501  502  0.00000000000E+00 -0.00000000000E+00 -0.18524752118E+03  0.18524752118E+03  0.00000000000E+00 0.  1.
         25    2    1    2    0    0  0.22614396307E+02 -0.89588302685E+01 -0.85408997852E+02  0.15333147449E+03  0.12499669033E+03 0.  0.
    9000005    1    3    3    0    0 -0.17944562622E+02  0.45112454206E+02 -0.67941088818E+02  0.83511271107E+02  0.10000000000E+01 0.  0.
    9000005    1    3    3    0    0  0.40558958929E+02 -0.54071284474E+02 -0.17467909034E+02  0.69820203381E+02  0.10000000000E+01 0.  0.
          4    1    1    2  501    0 -0.22614396307E+02  0.89588302685E+01 -0.63637324695E+02  0.68139515367E+02  0.12700000000E+01 0. -1.
<mgrwt>
<rscale>  1 0.12734145E+03</rscale>
<asrwt>0</asrwt>
<pdfrwt beam="2">  1       21 0.28499618E-01 0.12734145E+03</pdfrwt>
<pdfrwt beam="1">  1        4 0.55714632E-02 0.12734145E+03</pdfrwt>
<totfact> 0.94650624E+04</totfact>
</mgrwt>
</event>
<event>
 6    4  0.6326233E-003  0.1349405E+03  0.7818608E-02  0.1220304E+00
         -4   -1    0    0    0  501 -0.00000000000E+00  0.00000000000E+00  0.65178800418E+03  0.65178924147E+03  0.12700000000E+01 0.  1.
         21   -1    0    0  501  502  0.00000000000E+00 -0.00000000000E+00 -0.15548686867E+02  0.15548686867E+02  0.00000000000E+00 0.  1.
         25    2    1    2    0    0 -0.26970197525E+02 -0.43091752837E+02  0.55755271035E+03  0.57364969144E+03  0.12499861181E+03 0.  0.
    9000005    1    3    3    0    0  0.33026064618E+02  0.88779472026E+00  0.37593438248E+03  0.37738464337E+03  0.10000000000E+01 0.  0.
    9000005    1    3    3    0    0 -0.59996262142E+02 -0.43979547557E+02  0.18161832787E+03  0.19626504807E+03  0.10000000000E+01 0.  0.
         -4    1    1    2    0  502  0.26970197525E+02  0.43091752837E+02  0.78686606959E+02  0.93688236891E+02  0.12700000000E+01 0. -1.
<mgrwt>
<rscale>  1 0.13494052E+03</rscale>
<asrwt>0</asrwt>
<pdfrwt beam="2">  1       21 0.23921062E-02 0.13494052E+03</pdfrwt>
<pdfrwt beam="1">  1       -4 0.10027914E+00 0.13494052E+03</pdfrwt>
<totfact> 0.31607083E+04</totfact>
</mgrwt>
</event>
<event>
 6    4  0.6326233E-003  0.1275387E+03  0.7818608E-02  0.1231154E+00
         21   -1    0    0  501  502  0.00000000000E+00  0.00000000000E+00  0.16518537679E+02  0.16518537679E+02  0.00000000000E+00 0. -1.
          4   -1    0    0  502    0 -0.00000000000E+00 -0.00000000000E+00 -0.79000193117E+03  0.79000295199E+03  0.12700000000E+01 0. -1.
         25    2    1    2    0    0  0.20055869143E+02  0.15416597420E+02 -0.77053891408E+03  0.78102262260E+03  0.12500483807E+03 0.  0.
    9000005    1    3    3    0    0  0.49821247364E+02  0.26070285742E+02 -0.15876228736E+03  0.16842885849E+03  0.10000000000E+01 0.  0.
    9000005    1    3    3    0    0 -0.29765378221E+02 -0.10653688322E+02 -0.61177662672E+03  0.61259376410E+03  0.10000000000E+01 0.  0.
          4    1    1    2  501    0 -0.20055869143E+02 -0.15416597420E+02 -0.29444794191E+01  0.25498867075E+02  0.12700000000E+01 0.  1.
<mgrwt>
<rscale>  1 0.12753870E+03</rscale>
<asrwt>0</asrwt>
<pdfrwt beam="1">  1       21 0.25413134E-02 0.12753870E+03</pdfrwt>
<pdfrwt beam="2">  1        4 0.12154260E+00 0.12753870E+03</pdfrwt>
<totfact> 0.18082730E+04</totfact>
</mgrwt>
</event>
<event>
 6    4  0.6326233E-003  0.1342384E+03  0.7818608E-02  0.1221299E+00
         -4   -1    0    0    0  501 -0.00000000000E+00  0.00000000000E+00  0.91652750445E+02  0.91661548995E+02  0.12700000000E+01 0.  1.
         21   -1    0    0  501  502  0.00000000000E+00 -0.00000000000E+00 -0.35881991156E+03  0.35881991156E+03  0.00000000000E+00 0. -1.
         25    2    1    2    0    0 -0.22848752520E+02  0.43276066885E+02  0.39501825909E+02  0.13992975156E+03  0.12500023066E+03 0.  0.
    9000005    1    3    3    0    0 -0.26269616550E+01  0.74072315580E+02  0.62097483838E+02  0.96699050471E+02  0.10000000000E+01 0.  0.
    9000005    1    3    3    0    0 -0.20221790865E+02 -0.30796248695E+02 -0.22595657929E+02  0.43230701090E+02  0.10000000000E+01 0.  0.
         -4    1    1    2    0  502  0.22848752520E+02 -0.43276066885E+02 -0.30666898703E+03  0.31055170900E+03  0.12700000000E+01 0. -1.
<mgrwt>
<rscale>  1 0.13423837E+03</rscale>
<asrwt>0</asrwt>
<pdfrwt beam="2">  1       21 0.55203063E-01 0.13423837E+03</pdfrwt>
<pdfrwt beam="1">  1       -4 0.14101273E-01 0.13423837E+03</pdfrwt>
<totfact> 0.53734691E+03</totfact>
</mgrwt>
</event>
<event>
 6    4  0.6326233E-003  0.1276438E+03  0.7818608E-02  0.1230994E+00
          4   -1    0    0  502    0 -0.00000000000E+00  0.00000000000E+00  0.16687782560E+03  0.16688265811E+03  0.12700000000E+01 0. -1.
         21   -1    0    0  501  502  0.00000000000E+00 -0.00000000000E+00 -0.65604230744E+02  0.65604230744E+02  0.00000000000E+00 0.  1.
         25    2    1    2    0    0  0.18477466975E+02 -0.17915349776E+02  0.13776876003E+03  0.18781154303E+03  0.12502226966E+03 0.  0.
    9000005    1    3    3    0    0 -0.29515140659E+02  0.41497325823E+02  0.48581932993E+02  0.70387326927E+02  0.10000000000E+01 0.  0.
    9000005    1    3    3    0    0  0.47992607634E+02 -0.59412675599E+02  0.89186827039E+02  0.11742421610E+03  0.10000000000E+01 0.  0.
          4    1    1    2  501    0 -0.18477466975E+02  0.17915349776E+02 -0.36495165176E+02  0.44675345825E+02  0.12700000000E+01 0.  1.
<mgrwt>
<rscale>  1 0.12764382E+03</rscale>
<asrwt>0</asrwt>
<pdfrwt beam="2">  1       21 0.10092959E-01 0.12764382E+03</pdfrwt>
<pdfrwt beam="1">  1        4 0.25674829E-01 0.12764382E+03</pdfrwt>
<totfact> 0.45733066E+04</totfact>
</mgrwt>
</event>
<event>
 6    4  0.6326233E-003  0.1299777E+03  0.7818608E-02  0.1227489E+00
         -4   -1    0    0    0  501 -0.00000000000E+00  0.00000000000E+00  0.87952964158E+02  0.87962132785E+02  0.12700000000E+01 0. -1.
         21   -1    0    0  501  502  0.00000000000E+00 -0.00000000000E+00 -0.84480218127E+02  0.84480218127E+02  0.00000000000E+00 0. -1.
         25    2    1    2    0    0  0.12038246785E+01  0.35598971754E+02  0.22699976299E+02  0.13194500202E+03  0.12500183458E+03 0.  0.
    9000005    1    3    3    0    0  0.43835230197E+02 -0.29000849644E+02  0.87653245704E+01  0.53295474492E+02  0.10000000000E+01 0.  0.
    9000005    1    3    3    0    0 -0.42631405519E+02  0.64599821397E+02  0.13934651729E+02  0.78649527525E+02  0.10000000000E+01 0.  0.
         -4    1    1    2    0  502 -0.12038246785E+01 -0.35598971754E+02 -0.19227230269E+02  0.40497348896E+02  0.12700000000E+01 0.  1.
<mgrwt>
<rscale>  1 0.12997767E+03</rscale>
<asrwt>0</asrwt>
<pdfrwt beam="2">  1       21 0.12996957E-01 0.12997767E+03</pdfrwt>
<pdfrwt beam="1">  1       -4 0.13532665E-01 0.12997767E+03</pdfrwt>
<totfact> 0.92002866E+04</totfact>
</mgrwt>
</event>
<event>
 6    4  0.6326233E-003  0.1304313E+03  0.7818608E-02  0.1226817E+00
         -4   -1    0    0    0  501 -0.00000000000E+00  0.00000000000E+00  0.11659053693E+03  0.11659745367E+03  0.12700000000E+01 0.  1.
         21   -1    0    0  501  502  0.00000000000E+00 -0.00000000000E+00 -0.64246658985E+02  0.64246658985E+02  0.00000000000E+00 0.  1.
         25    2    1    2    0    0 -0.20351458897E+01  0.37203354883E+02  0.58689602459E+02  0.14302728369E+03  0.12499641198E+03 0.  0.
    9000005    1    3    3    0    0  0.36968163863E+02  0.51381464887E+02  0.75246587956E+02  0.98334882277E+02  0.10000000000E+01 0.  0.
    9000005    1    3    3    0    0 -0.39003309752E+02 -0.14178110004E+02 -0.16556985497E+02  0.44692401409E+02  0.10000000000E+01 0.  0.
         -4    1    1    2    0  502  0.20351458897E+01 -0.37203354883E+02 -0.63457245158E+01  0.37816828965E+02  0.12700000000E+01 0. -1.
<mgrwt>
<rscale>  1 0.13043134E+03</rscale>
<asrwt>0</asrwt>
<pdfrwt beam="2">  1       21 0.98841014E-02 0.13043134E+03</pdfrwt>
<pdfrwt beam="1">  1       -4 0.17938503E-01 0.13043134E+03</pdfrwt>
<totfact> 0.91100637E+04</totfact>
</mgrwt>
</event>
<event>
 6    4  0.6326233E-003  0.1286922E+03  0.7818608E-02  0.1229409E+00
         21   -1    0    0  501  502  0.00000000000E+00  0.00000000000E+00  0.87623054248E+02  0.87623054248E+02  0.00000000000E+00 0. -1.
         -4   -1    0    0    0  501 -0.00000000000E+00 -0.00000000000E+00 -0.72511741001E+02  0.72522861796E+02  0.12700000000E+01 0. -1.
         25    2    1    2    0    0  0.27815113711E+02 -0.12850638076E+02  0.14106574899E+02  0.12946299166E+03  0.12499140492E+03 0.  0.
    9000005    1    3    3    0    0  0.42563352286E+01  0.33604235462E+02  0.54064522288E+02  0.63807002757E+02  0.10000000000E+01 0.  0.
    9000005    1    3    3    0    0  0.23558778483E+02 -0.46454873537E+02 -0.39957947389E+02  0.65655988901E+02  0.10000000000E+01 0.  0.
         -4    1    1    2    0  502 -0.27815113711E+02  0.12850638076E+02  0.10047383472E+01  0.30682924386E+02  0.12700000000E+01 0.  1.
<mgrwt>
<rscale>  1 0.12869215E+03</rscale>
<asrwt>0</asrwt>
<pdfrwt beam="1">  1       21 0.13480470E-01 0.12869215E+03</pdfrwt>
<pdfrwt beam="2">  1       -4 0.11157216E-01 0.12869215E+03</pdfrwt>
<totfact> 0.11978871E+05</totfact>
</mgrwt>
</event>
<event>
 6    4  0.6326233E-003  0.1474662E+03  0.7818608E-02  0.1203622E+00
         21   -1    0    0  501  502  0.00000000000E+00  0.00000000000E+00  0.73636408246E+01  0.73636408246E+01  0.00000000000E+00 0.  1.
          4   -1    0    0  502    0 -0.00000000000E+00 -0.00000000000E+00 -0.18712021657E+04  0.18712025967E+04  0.12700000000E+01 0. -1.
         25    2    1    2    0    0 -0.56382903984E+01 -0.78035756006E+02 -0.14429366542E+04  0.14504525059E+04  0.12499965742E+03 0.  0.
    9000005    1    3    3    0    0  0.52246012541E+02 -0.34290590287E+01 -0.58249870228E+03  0.58484796522E+03  0.10000000000E+01 0.  0.
    9000005    1    3    3    0    0 -0.57884302939E+02 -0.74606696978E+02 -0.86043795193E+03  0.86560454070E+03  0.10000000000E+01 0.  0.
          4    1    1    2  501    0  0.56382903984E+01  0.78035756006E+02 -0.42090187065E+03  0.42811373156E+03  0.12700000000E+01 0.  1.
<mgrwt>
<rscale>  1 0.14746621E+03</rscale>
<asrwt>0</asrwt>
<pdfrwt beam="1">  1       21 0.11328661E-02 0.14746621E+03</pdfrwt>
<pdfrwt beam="2">  1        4 0.28788614E+00 0.14746621E+03</pdfrwt>
<totfact> 0.56024339E+03</totfact>
</mgrwt>
</event>
<event>
 6    4  0.6326233E-003  0.1280658E+03  0.7818608E-02  0.1230354E+00
         21   -1    0    0  501  502  0.00000000000E+00  0.00000000000E+00  0.14774778696E+03  0.14774778696E+03  0.00000000000E+00 0. -1.
         -4   -1    0    0    0  501 -0.00000000000E+00 -0.00000000000E+00 -0.43182782409E+02  0.43201453640E+02  0.12700000000E+01 0. -1.
         25    2    1    2    0    0 -0.20698862838E+01  0.27766971663E+02  0.68084258366E+02  0.14503903600E+03  0.12500226630E+03 0.  0.
    9000005    1    3    3    0    0  0.11988536902E+02 -0.41576531414E+02 -0.46884431036E+01  0.43535209661E+02  0.10000000000E+01 0.  0.
    9000005    1    3    3    0    0 -0.14058423186E+02  0.69343503077E+02  0.72772701470E+02  0.10150382634E+03  0.10000000000E+01 0.  0.
         -4    1    1    2    0  502  0.20698862838E+01 -0.27766971663E+02  0.36480746184E+02  0.45910204603E+02  0.12700000000E+01 0.  1.
<mgrwt>
<rscale>  1 0.12806583E+03</rscale>
<asrwt>0</asrwt>
<pdfrwt beam="1">  1       21 0.22730428E-01 0.12806583E+03</pdfrwt>
<pdfrwt beam="2">  1       -4 0.66453612E-02 0.12806583E+03</pdfrwt>
<totfact> 0.10916170E+05</totfact>
</mgrwt>
</event>
<event>
 6    4  0.6326233E-003  0.1278975E+03  0.7818608E-02  0.1230609E+00
         -4   -1    0    0    0  501 -0.00000000000E+00  0.00000000000E+00  0.11138079898E+02  0.11210250837E+02  0.12700000000E+01 0. -1.
         21   -1    0    0  501  502  0.00000000000E+00 -0.00000000000E+00 -0.62017055390E+03  0.62017055390E+03  0.00000000000E+00 0. -1.
         25    2    1    2    0    0 -0.18569995452E+02  0.19729076277E+02 -0.38444465310E+03  0.40516103686E+03  0.12499477312E+03 0.  0.
    9000005    1    3    3    0    0  0.11124104686E+02 -0.22423764454E+01  0.60658199331E+01  0.12906127562E+02  0.10000000000E+01 0.  0.
    9000005    1    3    3    0    0 -0.29694100138E+02  0.21971452722E+02 -0.39051047303E+03  0.39225490930E+03  0.10000000000E+01 0.  0.
         -4    1    1    2    0  502  0.18569995452E+02 -0.19729076277E+02 -0.22458782090E+03  0.22621976788E+03  0.12700000000E+01 0.  1.
<mgrwt>
<rscale>  1 0.12789752E+03</rscale>
<asrwt>0</asrwt>
<pdfrwt beam="2">  1       21 0.95410856E-01 0.12789752E+03</pdfrwt>
<pdfrwt beam="1">  1       -4 0.17192024E-02 0.12789752E+03</pdfrwt>
<totfact> 0.48004578E+04</totfact>
</mgrwt>
</event>
<event>
 6    4  0.6326233E-003  0.1276090E+03  0.7818608E-02  0.1231047E+00
          4   -1    0    0  502    0 -0.00000000000E+00  0.00000000000E+00  0.17868006197E+02  0.17913083081E+02  0.12700000000E+01 0.  1.
         21   -1    0    0  501  502  0.00000000000E+00 -0.00000000000E+00 -0.58734827519E+03  0.58734827519E+03  0.00000000000E+00 0.  1.
         25    2    1    2    0    0 -0.43100304337E+01  0.25327774764E+02 -0.21623628557E+03  0.25108202903E+03  0.12499592621E+03 0.  0.
    9000005    1    3    3    0    0 -0.56262907888E+02 -0.17044632830E+02 -0.80465995173E+02  0.99658470244E+02  0.10000000000E+01 0.  0.
    9000005    1    3    3    0    0  0.51952877454E+02  0.42372407594E+02 -0.13577029040E+03  0.15142355879E+03  0.10000000000E+01 0.  0.
          4    1    1    2  501    0  0.43100304337E+01 -0.25327774764E+02 -0.35324398342E+03  0.35417932924E+03  0.12700000000E+01 0. -1.
<mgrwt>
<rscale>  1 0.12760899E+03</rscale>
<asrwt>0</asrwt>
<pdfrwt beam="2">  1       21 0.90361256E-01 0.12760899E+03</pdfrwt>
<pdfrwt beam="1">  1        4 0.27524976E-02 0.12760899E+03</pdfrwt>
<totfact> 0.26301518E+04</totfact>
</mgrwt>
</event>
<event>
 6    4  0.6326233E-003  0.1311681E+03  0.7818608E-02  0.1225733E+00
         -4   -1    0    0    0  501 -0.00000000000E+00  0.00000000000E+00  0.34373714624E+03  0.34373949236E+03  0.12700000000E+01 0.  1.
         21   -1    0    0  501  502  0.00000000000E+00 -0.00000000000E+00 -0.35340975075E+02  0.35340975075E+02  0.00000000000E+00 0.  1.
         25    2    1    2    0    0  0.11538031610E+00  0.39751064964E+02  0.31268092472E+03  0.33907881132E+03  0.12499967650E+03 0.  0.
    9000005    1    3    3    0    0 -0.12875892767E+02  0.75471130639E+02  0.27533524616E+03  0.28578344590E+03  0.10000000000E+01 0.  0.
    9000005    1    3    3    0    0  0.12991273083E+02 -0.35720065675E+02  0.37345678566E+02  0.53295365424E+02  0.10000000000E+01 0.  0.
         -4    1    1    2    0  502 -0.11538031610E+00 -0.39751064964E+02 -0.42847535563E+01  0.40001656109E+02  0.12700000000E+01 0. -1.
<mgrwt>
<rscale>  1 0.13116813E+03</rscale>
<asrwt>0</asrwt>
<pdfrwt beam="2">  1       21 0.54370733E-02 0.13116813E+03</pdfrwt>
<pdfrwt beam="1">  1       -4 0.52884571E-01 0.13116813E+03</pdfrwt>
<totfact> 0.32543405E+04</totfact>
</mgrwt>
</event>
<event>
 6    4  0.6326233E-003  0.1452963E+03  0.7818608E-02  0.1206375E+00
         21   -1    0    0  501  502  0.00000000000E+00  0.00000000000E+00  0.27945430262E+03  0.27945430262E+03  0.00000000000E+00 0.  1.
         -4   -1    0    0    0  501 -0.00000000000E+00 -0.00000000000E+00 -0.49501282224E+02  0.49517571041E+02  0.12700000000E+01 0. -1.
         25    2    1    2    0    0 -0.70847124474E+02 -0.21578816894E+02  0.90806573488E+02  0.17133841601E+03  0.12500423443E+03 0.  0.
    9000005    1    3    3    0    0 -0.75124140511E+02  0.14058519316E+02  0.10736815520E+03  0.13179605155E+03  0.10000000000E+01 0.  0.
    9000005    1    3    3    0    0  0.42770160372E+01 -0.35637336209E+02 -0.16561581710E+02  0.39542364459E+02  0.10000000000E+01 0.  0.
         -4    1    1    2    0  502  0.70847124474E+02  0.21578816894E+02  0.13914644691E+03  0.15763345766E+03  0.12700000000E+01 0.  1.
<mgrwt>
<rscale>  1 0.14529631E+03</rscale>
<asrwt>0</asrwt>
<pdfrwt beam="1">  1       21 0.42992969E-01 0.14529631E+03</pdfrwt>
<pdfrwt beam="2">  1       -4 0.76170570E-02 0.14529631E+03</pdfrwt>
<totfact> 0.25644293E+04</totfact>
</mgrwt>
</event>
<event>
 6    4  0.6326233E-003  0.1279754E+03  0.7818608E-02  0.1230491E+00
         21   -1    0    0  501  502  0.00000000000E+00  0.00000000000E+00  0.93034914144E+03  0.93034914144E+03  0.00000000000E+00 0. -1.
          4   -1    0    0  502    0 -0.00000000000E+00 -0.00000000000E+00 -0.46494495769E+02  0.46511837598E+02  0.12700000000E+01 0.  1.
         25    2    1    2    0    0  0.10307480430E+02 -0.25425977152E+02  0.42193221369E+02  0.13475154997E+03  0.12499995129E+03 0.  0.
    9000005    1    3    3    0    0 -0.34276766670E+02 -0.61257381856E+02  0.16931865222E+02  0.72215314339E+02  0.10000000000E+01 0.  0.
    9000005    1    3    3    0    0  0.44584247100E+02  0.35831404704E+02  0.25261356147E+02  0.62536235631E+02  0.10000000000E+01 0.  0.
          4    1    1    2  501    0 -0.10307480430E+02  0.25425977152E+02  0.84166142430E+03  0.84210942907E+03  0.12700000000E+01 0. -1.
<mgrwt>
<rscale>  1 0.12797544E+03</rscale>
<asrwt>0</asrwt>
<pdfrwt beam="1">  1       21 0.14313062E+00 0.12797544E+03</pdfrwt>
<pdfrwt beam="2">  1        4 0.71544007E-02 0.12797544E+03</pdfrwt>
<totfact> 0.18872073E+03</totfact>
</mgrwt>
</event>
<event>
 6    4  0.6326233E-003  0.1344350E+03  0.7818608E-02  0.1221020E+00
          4   -1    0    0  502    0 -0.00000000000E+00  0.00000000000E+00  0.10789778225E+04  0.10789785699E+04  0.12700000000E+01 0. -1.
         21   -1    0    0  501  502  0.00000000000E+00 -0.00000000000E+00 -0.10446177077E+02  0.10446177077E+02  0.00000000000E+00 0.  1.
         25    2    1    2    0    0  0.38498948469E+02 -0.31067921017E+02  0.96887596077E+03  0.97815816112E+03  0.12500150422E+03 0.  0.
    9000005    1    3    3    0    0 -0.26474418362E+02 -0.54179060831E+02  0.58831221076E+03  0.59139540308E+03  0.10000000000E+01 0.  0.
    9000005    1    3    3    0    0  0.64973366831E+02  0.23111139814E+02  0.38056375001E+03  0.38676275804E+03  0.10000000000E+01 0.  0.
          4    1    1    2  501    0 -0.38498948469E+02  0.31067921017E+02  0.99655684660E+02  0.11126658589E+03  0.12700000000E+01 0.  1.
<mgrwt>
<rscale>  1 0.13443497E+03</rscale>
<asrwt>0</asrwt>
<pdfrwt beam="2">  1       21 0.16071050E-02 0.13443497E+03</pdfrwt>
<pdfrwt beam="1">  1        4 0.16600250E+00 0.13443497E+03</pdfrwt>
<totfact> 0.17424253E+04</totfact>
</mgrwt>
</event>
<event>
 6    4  0.6326233E-003  0.1658651E+03  0.7818608E-02  0.1182230E+00
         21   -1    0    0  501  502  0.00000000000E+00  0.00000000000E+00  0.16676506738E+04  0.16676506738E+04  0.00000000000E+00 0. -1.
         -4   -1    0    0    0  501 -0.00000000000E+00 -0.00000000000E+00 -0.18598925973E+02  0.18642235578E+02  0.12700000000E+01 0.  1.
         25    2    1    2    0    0 -0.51033572424E+02 -0.96350076313E+02  0.40751150172E+03  0.43997370536E+03  0.12499389844E+03 0.  0.
    9000005    1    3    3    0    0 -0.82255430001E+02 -0.97202075537E+02  0.36914608284E+03  0.39049203542E+03  0.10000000000E+01 0.  0.
    9000005    1    3    3    0    0  0.31221857577E+02  0.85199922391E+00  0.38365418883E+02  0.49481669932E+02  0.10000000000E+01 0.  0.
         -4    1    1    2    0  502  0.51033572424E+02  0.96350076313E+02  0.12415402462E+04  0.12463192041E+04  0.12700000000E+01 0. -1.
<mgrwt>
<rscale>  1 0.16586512E+03</rscale>
<asrwt>0</asrwt>
<pdfrwt beam="1">  1       21 0.25656152E+00 0.16586512E+03</pdfrwt>
<pdfrwt beam="2">  1       -4 0.28647432E-02 0.16586512E+03</pdfrwt>
<totfact> 0.15017742E+03</totfact>
</mgrwt>
</event>
<event>
 6    4  0.6326233E-003  0.1397756E+03  0.7818608E-02  0.1213631E+00
         21   -1    0    0  501  502  0.00000000000E+00  0.00000000000E+00  0.13887616830E+03  0.13887616830E+03  0.00000000000E+00 0. -1.
         -4   -1    0    0    0  501 -0.00000000000E+00 -0.00000000000E+00 -0.33924198655E+03  0.33924436376E+03  0.12700000000E+01 0.  1.
         25    2    1    2    0    0 -0.49665357168E+02 -0.38033597981E+02 -0.31661891723E+03  0.34609932846E+03  0.12499601648E+03 0.  0.
    9000005    1    3    3    0    0  0.13422384338E+02  0.23830391611E+02 -0.18841870034E+03  0.19039604671E+03  0.10000000000E+01 0.  0.
    9000005    1    3    3    0    0 -0.63087741507E+02 -0.61863989592E+02 -0.12820021689E+03  0.15570328175E+03  0.10000000000E+01 0.  0.
         -4    1    1    2    0  502  0.49665357168E+02  0.38033597981E+02  0.11625309898E+03  0.13202120360E+03  0.12700000000E+01 0. -1.
<mgrwt>
<rscale>  1 0.13977556E+03</rscale>
<asrwt>0</asrwt>
<pdfrwt beam="1">  1       21 0.21365565E-01 0.13977556E+03</pdfrwt>
<pdfrwt beam="2">  1       -4 0.52191704E-01 0.13977556E+03</pdfrwt>
<totfact> 0.30010981E+03</totfact>
</mgrwt>
</event>
<event>
 6    4  0.6326233E-003  0.1363054E+03  0.7818608E-02  0.1218389E+00
         -4   -1    0    0    0  501 -0.00000000000E+00  0.00000000000E+00  0.27464432585E+03  0.27464726218E+03  0.12700000000E+01 0. -1.
         21   -1    0    0  501  502  0.00000000000E+00 -0.00000000000E+00 -0.35706998792E+02  0.35706998792E+02  0.00000000000E+00 0. -1.
         25    2    1    2    0    0 -0.41400904401E+02  0.35220042296E+02  0.20527119978E+03  0.24640500538E+03  0.12499869981E+03 0.  0.
    9000005    1    3    3    0    0  0.44065705089E+02  0.25325321025E+01  0.55909175660E+02  0.71239286961E+02  0.10000000000E+01 0.  0.
    9000005    1    3    3    0    0 -0.85466609490E+02  0.32687510193E+02  0.14936202412E+03  0.17516571842E+03  0.10000000000E+01 0.  0.
         -4    1    1    2    0  502  0.41400904401E+02 -0.35220042296E+02  0.33666127282E+02  0.63949255591E+02  0.12700000000E+01 0.  1.
<mgrwt>
<rscale>  1 0.13630540E+03</rscale>
<asrwt>0</asrwt>
<pdfrwt beam="2">  1       21 0.54933846E-02 0.13630540E+03</pdfrwt>
<pdfrwt beam="1">  1       -4 0.42254935E-01 0.13630540E+03</pdfrwt>
<totfact> 0.50540212E+04</totfact>
</mgrwt>
</event>
<event>
 6    4  0.6326233E-003  0.1311086E+03  0.7818608E-02  0.1225820E+00
         21   -1    0    0  501  502  0.00000000000E+00  0.00000000000E+00  0.54516893594E+02  0.54516893594E+02  0.00000000000E+00 0.  1.
         -4   -1    0    0    0  501 -0.00000000000E+00 -0.00000000000E+00 -0.55913514313E+03  0.55913658545E+03  0.12700000000E+01 0. -1.
         25    2    1    2    0    0 -0.32403436515E+02  0.22839851631E+02 -0.54291309519E+03  0.55851955461E+03  0.12497128641E+03 0.  0.
    9000005    1    3    3    0    0  0.28902441959E+02  0.15791169551E+02 -0.41694163621E+03  0.41824160505E+03  0.10000000000E+01 0.  0.
    9000005    1    3    3    0    0 -0.61305878475E+02  0.70486820799E+01 -0.12597145898E+03  0.14027794956E+03  0.10000000000E+01 0.  0.
         -4    1    1    2    0  502  0.32403436515E+02 -0.22839851631E+02  0.38294845651E+02  0.55133924438E+02  0.12700000000E+01 0.  1.
<mgrwt>
<rscale>  1 0.13110860E+03</rscale>
<asrwt>0</asrwt>
<pdfrwt beam="1">  1       21 0.83872138E-02 0.13110860E+03</pdfrwt>
<pdfrwt beam="2">  1       -4 0.86022046E-01 0.13110860E+03</pdfrwt>
<totfact> 0.54709271E+03</totfact>
</mgrwt>
</event>
<event>
 6    4  0.6326233E-003  0.1270308E+03  0.7818608E-02  0.1231929E+00
          4   -1    0    0  502    0 -0.00000000000E+00  0.00000000000E+00  0.91086897036E+01  0.91967998846E+01  0.12700000000E+01 0. -1.
         21   -1    0    0  501  502  0.00000000000E+00 -0.00000000000E+00 -0.61676106149E+03  0.61676106149E+03  0.00000000000E+00 0. -1.
         25    2    1    2    0    0  0.22403581971E+02 -0.30832774165E+01 -0.49408136352E+03  0.51015020229E+03  0.12500163211E+03 0.  0.
    9000005    1    3    3    0    0 -0.47844198745E+02 -0.15772315054E+02 -0.27947083920E+03  0.28397673010E+03  0.10000000000E+01 0.  0.
    9000005    1    3    3    0    0  0.70247780716E+02  0.12689037637E+02 -0.21461052432E+03  0.22617347219E+03  0.10000000000E+01 0.  0.
          4    1    1    2  501    0 -0.22403581971E+02  0.30832774165E+01 -0.11357100827E+03  0.11580765909E+03  0.12700000000E+01 0.  1.
<mgrwt>
<rscale>  1 0.12703084E+03</rscale>
<asrwt>0</asrwt>
<pdfrwt beam="2">  1       21 0.94886340E-01 0.12703084E+03</pdfrwt>
<pdfrwt beam="1">  1        4 0.14082148E-02 0.12703084E+03</pdfrwt>
<totfact> 0.65864836E+04</totfact>
</mgrwt>
</event>
<event>
 6    4  0.6326233E-003  0.1295372E+03  0.7818608E-02  0.1228144E+00
         21   -1    0    0  501  502  0.00000000000E+00  0.00000000000E+00  0.10436898046E+03  0.10436898046E+03  0.00000000000E+00 0.  1.
         -4   -1    0    0    0  501 -0.00000000000E+00 -0.00000000000E+00 -0.27762812422E+03  0.27763102899E+03  0.12700000000E+01 0. -1.
         25    2    1    2    0    0  0.32750670536E+02 -0.90512278770E+01 -0.25909632112E+03  0.28967360442E+03  0.12500144932E+03 0.  0.
    9000005    1    3    3    0    0 -0.46859799084E+02  0.33037636713E+01 -0.72106800621E+02  0.86064779791E+02  0.10000000000E+01 0.  0.
    9000005    1    3    3    0    0  0.79610469619E+02 -0.12354991548E+02 -0.18698952050E+03  0.20360882463E+03  0.10000000000E+01 0.  0.
         -4    1    1    2    0  502 -0.32750670536E+02  0.90512278770E+01  0.85837177365E+02  0.92326405023E+02  0.12700000000E+01 0.  1.
<mgrwt>
<rscale>  1 0.12953723E+03</rscale>
<asrwt>0</asrwt>
<pdfrwt beam="1">  1       21 0.16056766E-01 0.12953723E+03</pdfrwt>
<pdfrwt beam="2">  1       -4 0.42712837E-01 0.12953723E+03</pdfrwt>
<totfact> 0.75639546E+03</totfact>
</mgrwt>
</event>
<event>
 6    4  0.6326233E-003  0.1294093E+03  0.7818608E-02  0.1228335E+00
         -4   -1    0    0    0  501 -0.00000000000E+00  0.00000000000E+00  0.61794124457E+03  0.61794254963E+03  0.12700000000E+01 0. -1.
         21   -1    0    0  501  502  0.00000000000E+00 -0.00000000000E+00 -0.13486114652E+02  0.13486114652E+02  0.00000000000E+00 0. -1.
         25    2    1    2    0    0  0.49231600740E+01  0.33127143976E+02  0.56513869731E+03  0.57976591226E+03  0.12500048261E+03 0.  0.
    9000005    1    3    3    0    0 -0.20121216452E+02 -0.19735503078E+02  0.44745065148E+03  0.44833853163E+03  0.10000000000E+01 0.  0.
    9000005    1    3    3    0    0  0.25044376526E+02  0.52862647054E+02  0.11768804582E+03  0.13142738063E+03  0.10000000000E+01 0.  0.
         -4    1    1    2    0  502 -0.49231600740E+01 -0.33127143976E+02  0.39316432615E+02  0.51662752024E+02  0.12700000000E+01 0.  1.
<mgrwt>
<rscale>  1 0.12940930E+03</rscale>
<asrwt>0</asrwt>
<pdfrwt beam="2">  1       21 0.20747873E-02 0.12940930E+03</pdfrwt>
<pdfrwt beam="1">  1       -4 0.95072562E-01 0.12940930E+03</pdfrwt>
<totfact> 0.44761390E+04</totfact>
</mgrwt>
</event>
<event>
 6    4  0.6326233E-003  0.1345344E+03  0.7818608E-02  0.1220878E+00
         -4   -1    0    0    0  501 -0.00000000000E+00  0.00000000000E+00  0.50053700052E+03  0.50053861168E+03  0.12700000000E+01 0.  1.
         21   -1    0    0  501  502  0.00000000000E+00 -0.00000000000E+00 -0.17492253426E+02  0.17492253426E+02  0.00000000000E+00 0.  1.
         25    2    1    2    0    0 -0.19449844281E+02  0.45792663995E+02  0.38935825678E+03  0.41194582429E+03  0.12499698201E+03 0.  0.
    9000005    1    3    3    0    0  0.96093645073E+00 -0.10908346032E+02  0.31946665099E+03  0.31965584072E+03  0.10000000000E+01 0.  0.
    9000005    1    3    3    0    0 -0.20410780732E+02  0.56701010027E+02  0.69891605792E+02  0.92289983575E+02  0.10000000000E+01 0.  0.
         -4    1    1    2    0  502  0.19449844281E+02 -0.45792663995E+02  0.93686490310E+02  0.10608504082E+03  0.12700000000E+01 0. -1.
<mgrwt>
<rscale>  1 0.13453442E+03</rscale>
<asrwt>0</asrwt>
<pdfrwt beam="2">  1       21 0.26911163E-02 0.13453442E+03</pdfrwt>
<pdfrwt beam="1">  1       -4 0.77009352E-01 0.13453442E+03</pdfrwt>
<totfact> 0.47237064E+04</totfact>
</mgrwt>
</event>
<event>
 6    4  0.6326233E-003  0.1267264E+03  0.7818608E-02  0.1232396E+00
         -4   -1    0    0    0  501 -0.00000000000E+00  0.00000000000E+00  0.87620316428E+02  0.87629519860E+02  0.12700000000E+01 0.  1.
         21   -1    0    0  501  502  0.00000000000E+00 -0.00000000000E+00 -0.63023739847E+02  0.63023739847E+02  0.00000000000E+00 0.  1.
         25    2    1    2    0    0  0.15335656994E+02  0.14121076556E+02  0.14810713320E+02  0.12758893231E+03  0.12499996496E+03 0.  0.
    9000005    1    3    3    0    0 -0.15877309769E+02  0.31356570004E+02 -0.45510237896E+02  0.57510913758E+02  0.10000000000E+01 0.  0.
    9000005    1    3    3    0    0  0.31212966763E+02 -0.17235493448E+02  0.60320951216E+02  0.70078018552E+02  0.10000000000E+01 0.  0.
         -4    1    1    2    0  502 -0.15335656994E+02 -0.14121076556E+02  0.97858632610E+01  0.23064327398E+02  0.12700000000E+01 0. -1.
<mgrwt>
<rscale>  1 0.12672639E+03</rscale>
<asrwt>0</asrwt>
<pdfrwt beam="2">  1       21 0.96959600E-02 0.12672639E+03</pdfrwt>
<pdfrwt beam="1">  1       -4 0.13481741E-01 0.12672639E+03</pdfrwt>
<totfact> 0.15466353E+05</totfact>
</mgrwt>
</event>
<event>
 6    4  0.6326233E-003  0.1292376E+03  0.7818608E-02  0.1228591E+00
         21   -1    0    0  501  502  0.00000000000E+00  0.00000000000E+00  0.70782353157E+02  0.70782353157E+02  0.00000000000E+00 0. -1.
         -4   -1    0    0    0  501 -0.00000000000E+00 -0.00000000000E+00 -0.10410676069E+03  0.10411450678E+03  0.12700000000E+01 0. -1.
         25    2    1    2    0    0 -0.31336807509E+02 -0.97381245814E+01 -0.49370527801E+02  0.13834665541E+03  0.12500208587E+03 0.  0.
    9000005    1    3    3    0    0 -0.43517495706E+02 -0.87864114692E+01  0.32837732042E+02  0.55229431508E+02  0.10000000000E+01 0.  0.
    9000005    1    3    3    0    0  0.12180688197E+02 -0.95171311223E+00 -0.82208259843E+02  0.83117223902E+02  0.10000000000E+01 0.  0.
         -4    1    1    2    0  502  0.31336807509E+02  0.97381245814E+01  0.16046120268E+02  0.36550204525E+02  0.12700000000E+01 0.  1.
<mgrwt>
<rscale>  1 0.12923756E+03</rscale>
<asrwt>0</asrwt>
<pdfrwt beam="1">  1       21 0.10889593E-01 0.12923756E+03</pdfrwt>
<pdfrwt beam="2">  1       -4 0.16017897E-01 0.12923756E+03</pdfrwt>
<totfact> 0.93754979E+04</totfact>
</mgrwt>
</event>
<event>
 6    4  0.6326233E-003  0.1286103E+03  0.7818608E-02  0.1229532E+00
         21   -1    0    0  501  502  0.00000000000E+00  0.00000000000E+00  0.45313906686E+03  0.45313906686E+03  0.00000000000E+00 0. -1.
         -4   -1    0    0    0  501 -0.00000000000E+00 -0.00000000000E+00 -0.14711819472E+02  0.14766534196E+02  0.12700000000E+01 0. -1.
         25    2    1    2    0    0  0.28545742084E+02 -0.10207543740E+02  0.30380368762E+03  0.32990498844E+03  0.12498626901E+03 0.  0.
    9000005    1    3    3    0    0 -0.17987553742E+02  0.49582334488E+02  0.11880018542E+03  0.12998632250E+03  0.10000000000E+01 0.  0.
    9000005    1    3    3    0    0  0.46533295827E+02 -0.59789878228E+02  0.18500350221E+03  0.19991866593E+03  0.10000000000E+01 0.  0.
         -4    1    1    2    0  502 -0.28545742084E+02  0.10207543740E+02  0.13462355977E+03  0.13800061262E+03  0.12700000000E+01 0.  1.
<mgrwt>
<rscale>  1 0.12861034E+03</rscale>
<asrwt>0</asrwt>
<pdfrwt beam="1">  1       21 0.69713692E-01 0.12861034E+03</pdfrwt>
<pdfrwt beam="2">  1       -4 0.22677029E-02 0.12861034E+03</pdfrwt>
<totfact> 0.63431840E+04</totfact>
</mgrwt>
</event>
<event>
 6    4  0.6326233E-003  0.1302099E+03  0.7818608E-02  0.1227145E+00
         21   -1    0    0  501  502  0.00000000000E+00  0.00000000000E+00  0.99853648064E+01  0.99853648064E+01  0.00000000000E+00 0. -1.
          4   -1    0    0  502    0 -0.00000000000E+00 -0.00000000000E+00 -0.94998712566E+03  0.94998797457E+03  0.12700000000E+01 0. -1.
         25    2    1    2    0    0  0.34482677184E+01  0.36309793872E+02 -0.88118931093E+03  0.89075767028E+03  0.12499733514E+03 0.  0.
    9000005    1    3    3    0    0 -0.56523977459E+02  0.97186500619E+01 -0.56035630315E+03  0.56328465154E+03  0.10000000000E+01 0.  0.
    9000005    1    3    3    0    0  0.59972245177E+02  0.26591143810E+02 -0.32083300778E+03  0.32747301874E+03  0.10000000000E+01 0.  0.
          4    1    1    2  501    0 -0.34482677184E+01 -0.36309793872E+02 -0.58812449923E+02  0.69215669088E+02  0.12700000000E+01 0.  1.
<mgrwt>
<rscale>  1 0.13020993E+03</rscale>
<asrwt>0</asrwt>
<pdfrwt beam="1">  1       21 0.15362092E-02 0.13020993E+03</pdfrwt>
<pdfrwt beam="2">  1        4 0.14615822E+00 0.13020993E+03</pdfrwt>
<totfact> 0.25918447E+04</totfact>
</mgrwt>
</event>
<event>
 6    4  0.6326233E-003  0.1280024E+03  0.7818608E-02  0.1230450E+00
         21   -1    0    0  501  502  0.00000000000E+00  0.00000000000E+00  0.60020257001E+01  0.60020257001E+01  0.00000000000E+00 0. -1.
         -4   -1    0    0    0  501 -0.00000000000E+00 -0.00000000000E+00 -0.10354531339E+04  0.10354539128E+04  0.12700000000E+01 0. -1.
         25    2    1    2    0    0  0.27203675894E+02 -0.43497978537E+01 -0.77302423847E+03  0.78355031007E+03  0.12500261768E+03 0.  0.
    9000005    1    3    3    0    0 -0.15120811080E+02 -0.57014184221E+02 -0.41931510166E+03  0.42344469605E+03  0.10000000000E+01 0.  0.
    9000005    1    3    3    0    0  0.42324486974E+02  0.52664386368E+02 -0.35370913681E+03  0.36010561402E+03  0.10000000000E+01 0.  0.
         -4    1    1    2    0  502 -0.27203675894E+02  0.43497978537E+01 -0.25642686974E+03  0.25790562838E+03  0.12700000000E+01 0.  1.
<mgrwt>
<rscale>  1 0.12800240E+03</rscale>
<asrwt>0</asrwt>
<pdfrwt beam="1">  1       21 0.92338911E-03 0.12800240E+03</pdfrwt>
<pdfrwt beam="2">  1       -4 0.15931079E+00 0.12800240E+03</pdfrwt>
<totfact> 0.46488151E+04</totfact>
</mgrwt>
</event>
<event>
 6    4  0.6326233E-003  0.2188875E+03  0.7818608E-02  0.1134715E+00
         21   -1    0    0  501  502  0.00000000000E+00  0.00000000000E+00  0.29623678884E+03  0.29623678884E+03  0.00000000000E+00 0. -1.
          4   -1    0    0  502    0 -0.00000000000E+00 -0.00000000000E+00 -0.18412587684E+03  0.18413025667E+03  0.12700000000E+01 0.  1.
         25    2    1    2    0    0 -0.30387058899E+02 -0.17708338430E+03 -0.64735500927E+02  0.22825959816E+03  0.12501944142E+03 0.  0.
    9000005    1    3    3    0    0 -0.17526884698E+02  0.16180763770E+02  0.48485702838E+00  0.23879779935E+02  0.10000000000E+01 0.  0.
    9000005    1    3    3    0    0 -0.12860174201E+02 -0.19326414807E+03 -0.65220357955E+02  0.20437981823E+03  0.10000000000E+01 0.  0.
          4    1    1    2  501    0  0.30387058899E+02  0.17708338430E+03  0.17684641293E+03  0.25210744735E+03  0.12700000000E+01 0. -1.
<mgrwt>
<rscale>  1 0.21888755E+03</rscale>
<asrwt>0</asrwt>
<pdfrwt beam="1">  1       21 0.45574891E-01 0.21888755E+03</pdfrwt>
<pdfrwt beam="2">  1        4 0.28327604E-01 0.21888755E+03</pdfrwt>
<totfact> 0.23057666E+03</totfact>
</mgrwt>
</event>
<event>
 6    4  0.6326233E-003  0.1277752E+03  0.7818608E-02  0.1230795E+00
         21   -1    0    0  501  502  0.00000000000E+00  0.00000000000E+00  0.35641873669E+03  0.35641873669E+03  0.00000000000E+00 0. -1.
          4   -1    0    0  502    0 -0.00000000000E+00 -0.00000000000E+00 -0.17703666114E+02  0.17749160371E+02  0.12700000000E+01 0. -1.
         25    2    1    2    0    0 -0.17620265411E+02  0.19779248163E+02  0.23930244871E+03  0.27127875917E+03  0.12499924321E+03 0.  0.
    9000005    1    3    3    0    0 -0.17725078262E+02  0.12349871214E+02 -0.85922791520E+01  0.23270689276E+02  0.10000000000E+01 0.  0.
    9000005    1    3    3    0    0  0.10481285084E+00  0.74293769496E+01  0.24789472787E+03  0.24800806989E+03  0.10000000000E+01 0.  0.
          4    1    1    2  501    0  0.17620265411E+02 -0.19779248163E+02  0.99412621865E+02  0.10288913790E+03  0.12700000000E+01 0.  1.
<mgrwt>
<rscale>  1 0.12777521E+03</rscale>
<asrwt>0</asrwt>
<pdfrwt beam="1">  1       21 0.54833647E-01 0.12777521E+03</pdfrwt>
<pdfrwt beam="2">  1        4 0.27273148E-02 0.12777521E+03</pdfrwt>
<totfact> 0.79459063E+04</totfact>
</mgrwt>
</event>
<event>
 6    4  0.6326233E-003  0.1273952E+03  0.7818608E-02  0.1231373E+00
         21   -1    0    0  501  502  0.00000000000E+00  0.00000000000E+00  0.64208183444E+02  0.64208183444E+02  0.00000000000E+00 0. -1.
         -4   -1    0    0    0  501 -0.00000000000E+00 -0.00000000000E+00 -0.14094258642E+03  0.14094830813E+03  0.12700000000E+01 0. -1.
         25    2    1    2    0    0  0.20063480130E+02 -0.14232679349E+02 -0.10683467572E+03  0.16626238257E+03  0.12499767807E+03 0.  0.
    9000005    1    3    3    0    0  0.37241397141E+02 -0.22923545129E+02 -0.12939447143E+03  0.13658821260E+03  0.10000000000E+01 0.  0.
    9000005    1    3    3    0    0 -0.17177917011E+02  0.86908657802E+01  0.22559795713E+02  0.29674169971E+02  0.10000000000E+01 0.  0.
         -4    1    1    2    0  502 -0.20063480130E+02  0.14232679349E+02  0.30100272747E+02  0.38894109012E+02  0.12700000000E+01 0.  1.
<mgrwt>
<rscale>  1 0.12739518E+03</rscale>
<asrwt>0</asrwt>
<pdfrwt beam="1">  1       21 0.98781822E-02 0.12739518E+03</pdfrwt>
<pdfrwt beam="2">  1       -4 0.21684881E-01 0.12739518E+03</pdfrwt>
<totfact> 0.64679414E+04</totfact>
</mgrwt>
</event>
<event>
 6    4  0.6326233E-003  0.1527271E+03  0.7818608E-02  0.1197161E+00
          4   -1    0    0  502    0 -0.00000000000E+00  0.00000000000E+00  0.70765796091E+03  0.70765910052E+03  0.12700000000E+01 0. -1.
         21   -1    0    0  501  502  0.00000000000E+00 -0.00000000000E+00 -0.14678043913E+03  0.14678043913E+03  0.00000000000E+00 0.  1.
         25    2    1    2    0    0 -0.87140518543E+02  0.10355026626E+02  0.68533722623E+03  0.70214860925E+03  0.12499943708E+03 0.  0.
    9000005    1    3    3    0    0 -0.46195673707E+02  0.47103842117E+02  0.14851051078E+03  0.16250902751E+03  0.10000000000E+01 0.  0.
    9000005    1    3    3    0    0 -0.40944844836E+02 -0.36748815491E+02  0.53682671545E+03  0.53963958174E+03  0.10000000000E+01 0.  0.
          4    1    1    2  501    0  0.87140518543E+02 -0.10355026626E+02 -0.12445970444E+03  0.15229093039E+03  0.12700000000E+01 0.  1.
<mgrwt>
<rscale>  1 0.15272706E+03</rscale>
<asrwt>0</asrwt>
<pdfrwt beam="2">  1       21 0.22581606E-01 0.15272706E+03</pdfrwt>
<pdfrwt beam="1">  1        4 0.10887096E+00 0.15272706E+03</pdfrwt>
<totfact> 0.54022403E+02</totfact>
</mgrwt>
</event>
<event>
 6    4  0.6326233E-003  0.1277693E+03  0.7818608E-02  0.1230804E+00
         21   -1    0    0  501  502  0.00000000000E+00  0.00000000000E+00  0.18468570920E+03  0.18468570920E+03  0.00000000000E+00 0. -1.
         -4   -1    0    0    0  501 -0.00000000000E+00 -0.00000000000E+00 -0.33555404851E+02  0.33579429636E+02  0.12700000000E+01 0. -1.
         25    2    1    2    0    0 -0.22451728646E+02 -0.14040135995E+02  0.10640858437E+03  0.16627619120E+03  0.12499511749E+03 0.  0.
    9000005    1    3    3    0    0  0.56946348550E+01 -0.44478275037E+02  0.11542920477E+03  0.12383717991E+03  0.10000000000E+01 0.  0.
    9000005    1    3    3    0    0 -0.28146363501E+02  0.30438139042E+02 -0.90206203980E+01  0.42439011288E+02  0.10000000000E+01 0.  0.
         -4    1    1    2    0  502  0.22451728646E+02  0.14040135995E+02  0.44721719983E+02  0.51988947636E+02  0.12700000000E+01 0.  1.
<mgrwt>
<rscale>  1 0.12776926E+03</rscale>
<asrwt>0</asrwt>
<pdfrwt beam="1">  1       21 0.28413185E-01 0.12776926E+03</pdfrwt>
<pdfrwt beam="2">  1       -4 0.51645540E-02 0.12776926E+03</pdfrwt>
<totfact> 0.10763237E+05</totfact>
</mgrwt>
</event>
<event>
 6    4  0.6326233E-003  0.1674029E+03  0.7818608E-02  0.1180584E+00
          4   -1    0    0  502    0 -0.00000000000E+00  0.00000000000E+00  0.19823201974E+04  0.19823206042E+04  0.12700000000E+01 0.  1.
         21   -1    0    0  501  502  0.00000000000E+00 -0.00000000000E+00 -0.52369426227E+02  0.52369426227E+02  0.00000000000E+00 0. -1.
         25    2    1    2    0    0  0.66576115625E+02  0.89248913811E+02  0.19150410481E+04  0.19223438666E+04  0.12500391021E+03 0.  0.
    9000005    1    3    3    0    0  0.18075266909E+02  0.87035289794E+02  0.16793868126E+04  0.16817380662E+04  0.10000000000E+01 0.  0.
    9000005    1    3    3    0    0  0.48500848716E+02  0.22136240170E+01  0.23565423552E+03  0.24060580038E+03  0.10000000000E+01 0.  0.
          4    1    1    2  501    0 -0.66576115625E+02 -0.89248913811E+02  0.14909723010E+02  0.11234616383E+03  0.12700000000E+01 0. -1.
<mgrwt>
<rscale>  1 0.16740288E+03</rscale>
<asrwt>0</asrwt>
<pdfrwt beam="2">  1       21 0.80568363E-02 0.16740288E+03</pdfrwt>
<pdfrwt beam="1">  1        4 0.30497350E+00 0.16740288E+03</pdfrwt>
<totfact> 0.17415634E+02</totfact>
</mgrwt>
</event>
<event>
 6    4  0.6326233E-003  0.1290616E+03  0.7818608E-02  0.1228855E+00
          4   -1    0    0  502    0 -0.00000000000E+00  0.00000000000E+00  0.10318897003E+03  0.10319678501E+03  0.12700000000E+01 0. -1.
         21   -1    0    0  501  502  0.00000000000E+00 -0.00000000000E+00 -0.86221811050E+02  0.86221811050E+02  0.00000000000E+00 0.  1.
         25    2    1    2    0    0 -0.13698170822E+02 -0.29055633225E+02  0.54415610818E+02  0.14006407093E+03  0.12500006224E+03 0.  0.
    9000005    1    3    3    0    0  0.17566982963E+02 -0.46559417837E+02 -0.22941210448E+02  0.54805815536E+02  0.10000000000E+01 0.  0.
    9000005    1    3    3    0    0 -0.31265153785E+02  0.17503784612E+02  0.77356821266E+02  0.85258255397E+02  0.10000000000E+01 0.  0.
          4    1    1    2  501    0  0.13698170822E+02  0.29055633225E+02 -0.37448451834E+02  0.49354525129E+02  0.12700000000E+01 0.  1.
<mgrwt>
<rscale>  1 0.12906156E+03</rscale>
<asrwt>0</asrwt>
<pdfrwt beam="2">  1       21 0.13264894E-01 0.12906156E+03</pdfrwt>
<pdfrwt beam="1">  1        4 0.15876547E-01 0.12906156E+03</pdfrwt>
<totfact> 0.67115548E+04</totfact>
</mgrwt>
</event>
<event>
 6    4  0.6326233E-003  0.1284773E+03  0.7818608E-02  0.1229733E+00
         -4   -1    0    0    0  501 -0.00000000000E+00  0.00000000000E+00  0.52097430809E+03  0.52097585605E+03  0.12700000000E+01 0.  1.
         21   -1    0    0  501  502  0.00000000000E+00 -0.00000000000E+00 -0.25949591926E+02  0.25949591926E+02  0.00000000000E+00 0. -1.
         25    2    1    2    0    0  0.21664312628E+02  0.20318327023E+02  0.50047385743E+03  0.51670156843E+03  0.12499700790E+03 0.  0.
    9000005    1    3    3    0    0 -0.18347131282E+02  0.56984842427E+02  0.14148665166E+03  0.15363385724E+03  0.10000000000E+01 0.  0.
    9000005    1    3    3    0    0  0.40011443910E+02 -0.36666515404E+02  0.35898720578E+03  0.36306771119E+03  0.10000000000E+01 0.  0.
         -4    1    1    2    0  502 -0.21664312628E+02 -0.20318327023E+02 -0.54491412697E+01  0.30223879553E+02  0.12700000000E+01 0. -1.
<mgrwt>
<rscale>  1 0.12847735E+03</rscale>
<asrwt>0</asrwt>
<pdfrwt beam="2">  1       21 0.39922453E-02 0.12847735E+03</pdfrwt>
<pdfrwt beam="1">  1       -4 0.80152395E-01 0.12847735E+03</pdfrwt>
<totfact> 0.22462112E+04</totfact>
</mgrwt>
</event>
<event>
 6    4  0.6326233E-003  0.1374970E+03  0.7818608E-02  0.1216737E+00
         -4   -1    0    0    0  501 -0.00000000000E+00  0.00000000000E+00  0.24576883443E+02  0.24609674922E+02  0.12700000000E+01 0. -1.
         21   -1    0    0  501  502  0.00000000000E+00 -0.00000000000E+00 -0.42313034168E+03  0.42313034168E+03  0.00000000000E+00 0.  1.
         25    2    1    2    0    0  0.54608809566E+02 -0.17283516726E+02 -0.21283699865E+03  0.25338709460E+03  0.12499835871E+03 0.  0.
    9000005    1    3    3    0    0  0.48145206668E+02  0.48897790757E+02 -0.84644773449E+02  0.10897106285E+03  0.10000000000E+01 0.  0.
    9000005    1    3    3    0    0  0.64636028976E+01 -0.66181307484E+02 -0.12819222521E+03  0.14441603175E+03  0.10000000000E+01 0.  0.
         -4    1    1    2    0  502 -0.54608809566E+02  0.17283516726E+02 -0.18571645959E+03  0.19435292201E+03  0.12700000000E+01 0.  1.
<mgrwt>
<rscale>  1 0.13749702E+03</rscale>
<asrwt>0</asrwt>
<pdfrwt beam="2">  1       21 0.65096971E-01 0.13749702E+03</pdfrwt>
<pdfrwt beam="1">  1       -4 0.37837283E-02 0.13749702E+03</pdfrwt>
<totfact> 0.33259260E+04</totfact>
</mgrwt>
</event>
<event>
 6    4  0.6326233E-003  0.1272479E+03  0.7818608E-02  0.1231597E+00
         -4   -1    0    0    0  501 -0.00000000000E+00  0.00000000000E+00  0.24399980032E+03  0.24400310542E+03  0.12700000000E+01 0. -1.
         21   -1    0    0  501  502  0.00000000000E+00 -0.00000000000E+00 -0.23826849415E+02  0.23826849415E+02  0.00000000000E+00 0. -1.
         25    2    1    2    0    0  0.39701169160E+01  0.23474526344E+02  0.19740441491E+03  0.23486278410E+03  0.12500083644E+03 0.  0.
    9000005    1    3    3    0    0  0.64151436837E+02  0.54982844379E+01  0.10274947556E+03  0.12126043340E+03  0.10000000000E+01 0.  0.
    9000005    1    3    3    0    0 -0.60181319921E+02  0.17976241906E+02  0.94654939352E+02  0.11360235070E+03  0.10000000000E+01 0.  0.
         -4    1    1    2    0  502 -0.39701169160E+01 -0.23474526344E+02  0.22768535990E+02  0.32967170739E+02  0.12700000000E+01 0.  1.
<mgrwt>
<rscale>  1 0.12724789E+03</rscale>
<asrwt>0</asrwt>
<pdfrwt beam="2">  1       21 0.36656693E-02 0.12724789E+03</pdfrwt>
<pdfrwt beam="1">  1       -4 0.37541287E-01 0.12724789E+03</pdfrwt>
<totfact> 0.12419183E+05</totfact>
</mgrwt>
</event>
<event>
 6    4  0.6326233E-003  0.1289814E+03  0.7818608E-02  0.1228975E+00
         21   -1    0    0  501  502  0.00000000000E+00  0.00000000000E+00  0.42454288365E+02  0.42454288365E+02  0.00000000000E+00 0. -1.
          4   -1    0    0  502    0 -0.00000000000E+00 -0.00000000000E+00 -0.15907692022E+03  0.15908198970E+03  0.12700000000E+01 0. -1.
         25    2    1    2    0    0 -0.31755311409E+02 -0.17436548602E+01 -0.75217317901E+02  0.14931125477E+03  0.12499906301E+03 0.  0.
    9000005    1    3    3    0    0 -0.31709104387E+02 -0.58134681902E+02 -0.17257607940E+02  0.68439269230E+02  0.10000000000E+01 0.  0.
    9000005    1    3    3    0    0 -0.46207022103E-01  0.56391027042E+02 -0.57959709961E+02  0.80871985537E+02  0.10000000000E+01 0.  0.
          4    1    1    2  501    0  0.31755311409E+02  0.17436548602E+01 -0.41405313955E+02  0.52225023300E+02  0.12700000000E+01 0.  1.
<mgrwt>
<rscale>  1 0.12898142E+03</rscale>
<asrwt>0</asrwt>
<pdfrwt beam="1">  1       21 0.65314290E-02 0.12898142E+03</pdfrwt>
<pdfrwt beam="2">  1        4 0.24475223E-01 0.12898142E+03</pdfrwt>
<totfact> 0.10602661E+05</totfact>
</mgrwt>
</event>
<event>
 6    4  0.6326233E-003  0.1344713E+03  0.7818608E-02  0.1220968E+00
         21   -1    0    0  501  502  0.00000000000E+00  0.00000000000E+00  0.89619743443E+02  0.89619743443E+02  0.00000000000E+00 0. -1.
          4   -1    0    0  502    0 -0.00000000000E+00 -0.00000000000E+00 -0.11994285235E+03  0.11994957578E+03  0.12700000000E+01 0.  1.
         25    2    1    2    0    0 -0.11946736898E+02 -0.48114279899E+02 -0.64701096618E+02  0.14922723282E+03  0.12499930663E+03 0.  0.
    9000005    1    3    3    0    0 -0.38321205848E+02 -0.71869231943E+02 -0.76563913723E+02  0.11178879283E+03  0.10000000000E+01 0.  0.
    9000005    1    3    3    0    0  0.26374468950E+02  0.23754952045E+02  0.11862817105E+02  0.37438439988E+02  0.10000000000E+01 0.  0.
          4    1    1    2  501    0  0.11946736898E+02  0.48114279899E+02  0.34377987711E+02  0.60342086405E+02  0.12700000000E+01 0. -1.
<mgrwt>
<rscale>  1 0.13447132E+03</rscale>
<asrwt>0</asrwt>
<pdfrwt beam="1">  1       21 0.13787653E-01 0.13447132E+03</pdfrwt>
<pdfrwt beam="2">  1        4 0.18453956E-01 0.13447132E+03</pdfrwt>
<totfact> 0.48252375E+04</totfact>
</mgrwt>
</event>
<event>
 6    4  0.6326233E-003  0.1284957E+03  0.7818608E-02  0.1229705E+00
         -4   -1    0    0    0  501 -0.00000000000E+00  0.00000000000E+00  0.11517062063E+02  0.11586872682E+02  0.12700000000E+01 0.  1.
         21   -1    0    0  501  502  0.00000000000E+00 -0.00000000000E+00 -0.62419175349E+03  0.62419175349E+03  0.00000000000E+00 0.  1.
         25    2    1    2    0    0  0.14762150092E+02  0.25885162237E+02 -0.37859890697E+03  0.39981030527E+03  0.12499274036E+03 0.  0.
    9000005    1    3    3    0    0  0.59102881478E+02 -0.17819789068E+02 -0.24092747276E+03  0.24871216821E+03  0.10000000000E+01 0.  0.
    9000005    1    3    3    0    0 -0.44340731385E+02  0.43704951305E+02 -0.13767143421E+03  0.15109813707E+03  0.10000000000E+01 0.  0.
         -4    1    1    2    0  502 -0.14762150092E+02 -0.25885162237E+02 -0.23407578445E+03  0.23596832089E+03  0.12700000000E+01 0. -1.
<mgrwt>
<rscale>  1 0.12849571E+03</rscale>
<asrwt>0</asrwt>
<pdfrwt beam="2">  1       21 0.96029481E-01 0.12849571E+03</pdfrwt>
<pdfrwt beam="1">  1       -4 0.17773255E-02 0.12849571E+03</pdfrwt>
<totfact> 0.44964684E+04</totfact>
</mgrwt>
</event>
<event>
 6    4  0.6326233E-003  0.1284570E+03  0.7818608E-02  0.1229763E+00
         -4   -1    0    0    0  501 -0.00000000000E+00  0.00000000000E+00  0.90814634904E+03  0.90814723705E+03  0.12700000000E+01 0.  1.
         21   -1    0    0  501  502  0.00000000000E+00 -0.00000000000E+00 -0.69693733164E+01  0.69693733164E+01  0.00000000000E+00 0.  1.
         25    2    1    2    0    0  0.29296750725E+02  0.48975734854E+01  0.76727349067E+03  0.77795232188E+03  0.12497567684E+03 0.  0.
    9000005    1    3    3    0    0 -0.24068154397E+02 -0.23272882617E+02  0.58477490957E+03  0.58573338473E+03  0.10000000000E+01 0.  0.
    9000005    1    3    3    0    0  0.53364905123E+02  0.28170456102E+02  0.18249858110E+03  0.19221893715E+03  0.10000000000E+01 0.  0.
         -4    1    1    2    0  502 -0.29296750725E+02 -0.48975734854E+01  0.13390348505E+03  0.13716428849E+03  0.12700000000E+01 0. -1.
<mgrwt>
<rscale>  1 0.12845702E+03</rscale>
<asrwt>0</asrwt>
<pdfrwt beam="2">  1       21 0.10722120E-02 0.12845702E+03</pdfrwt>
<pdfrwt beam="1">  1       -4 0.13972370E+00 0.12845702E+03</pdfrwt>
<totfact> 0.51295580E+04</totfact>
</mgrwt>
</event>
<event>
 6    4  0.6326233E-003  0.1379966E+03  0.7818608E-02  0.1216050E+00
         -4   -1    0    0    0  501 -0.00000000000E+00  0.00000000000E+00  0.16900916180E+02  0.16948565359E+02  0.12700000000E+01 0.  1.
         21   -1    0    0  501  502  0.00000000000E+00 -0.00000000000E+00 -0.88302689159E+03  0.88302689159E+03  0.00000000000E+00 0. -1.
         25    2    1    2    0    0  0.34391821593E+02  0.47259631947E+02 -0.29294502820E+03  0.32382071962E+03  0.12500719460E+03 0.  0.
    9000005    1    3    3    0    0  0.79513778299E+02  0.13185844049E+02 -0.15428759878E+03  0.17407461205E+03  0.10000000000E+01 0.  0.
    9000005    1    3    3    0    0 -0.45121956705E+02  0.34073787898E+02 -0.13865742941E+03  0.14974610756E+03  0.10000000000E+01 0.  0.
         -4    1    1    2    0  502 -0.34391821593E+02 -0.47259631947E+02 -0.57318094721E+03  0.57615473733E+03  0.12700000000E+01 0. -1.
<mgrwt>
<rscale>  1 0.13799663E+03</rscale>
<asrwt>0</asrwt>
<pdfrwt beam="2">  1       21 0.13585029E+00 0.13799663E+03</pdfrwt>
<pdfrwt beam="1">  1       -4 0.26038765E-02 0.13799663E+03</pdfrwt>
<totfact> 0.10840356E+04</totfact>
</mgrwt>
</event>
<event>
 6    4  0.6326233E-003  0.1292181E+03  0.7818608E-02  0.1228621E+00
         -4   -1    0    0    0  501 -0.00000000000E+00  0.00000000000E+00  0.82508931693E+02  0.82518705207E+02  0.12700000000E+01 0.  1.
         21   -1    0    0  501  502  0.00000000000E+00 -0.00000000000E+00 -0.21346657054E+03  0.21346657054E+03  0.00000000000E+00 0. -1.
         25    2    1    2    0    0  0.42138742898E+00  0.32742549600E+02  0.29227704541E+02  0.13248234226E+03  0.12500024071E+03 0.  0.
    9000005    1    3    3    0    0 -0.61450998120E+02  0.16910609092E+02  0.24995154784E+02  0.68468617866E+02  0.10000000000E+01 0.  0.
    9000005    1    3    3    0    0  0.61872385549E+02  0.15831940508E+02  0.42325497569E+01  0.64013724397E+02  0.10000000000E+01 0.  0.
         -4    1    1    2    0  502 -0.42138742898E+00 -0.32742549600E+02 -0.16018534339E+03  0.16350293349E+03  0.12700000000E+01 0. -1.
<mgrwt>
<rscale>  1 0.12921808E+03</rscale>
<asrwt>0</asrwt>
<pdfrwt beam="2">  1       21 0.32841011E-01 0.12921808E+03</pdfrwt>
<pdfrwt beam="1">  1       -4 0.12694724E-01 0.12921808E+03</pdfrwt>
<totfact> 0.18330144E+04</totfact>
</mgrwt>
</event>
<event>
 6    4  0.6326233E-003  0.1476733E+03  0.7818608E-02  0.1203361E+00
         21   -1    0    0  501  502  0.00000000000E+00  0.00000000000E+00  0.77349818155E+02  0.77349818155E+02  0.00000000000E+00 0. -1.
          4   -1    0    0  502    0 -0.00000000000E+00 -0.00000000000E+00 -0.10268035531E+04  0.10268043385E+04  0.12700000000E+01 0.  1.
         25    2    1    2    0    0  0.78026619012E+02  0.97735580869E+01 -0.99988241099E+03  0.10107285714E+04  0.12499493399E+03 0.  0.
    9000005    1    3    3    0    0  0.11168073751E+03  0.17699670506E+02 -0.76215096441E+03  0.77049397014E+03  0.10000000000E+01 0.  0.
    9000005    1    3    3    0    0 -0.33654118500E+02 -0.79261124193E+01 -0.23773144658E+03  0.24023460126E+03  0.10000000000E+01 0.  0.
          4    1    1    2  501    0 -0.78026619012E+02 -0.97735580869E+01  0.50428676046E+02  0.93425585253E+02  0.12700000000E+01 0. -1.
<mgrwt>
<rscale>  1 0.14767332E+03</rscale>
<asrwt>0</asrwt>
<pdfrwt beam="1">  1       21 0.11899973E-01 0.14767332E+03</pdfrwt>
<pdfrwt beam="2">  1        4 0.15797062E+00 0.14767332E+03</pdfrwt>
<totfact> 0.69376567E+02</totfact>
</mgrwt>
</event>
<event>
 6    4  0.6326233E-003  0.2823789E+03  0.7818608E-02  0.1094397E+00
         21   -1    0    0  501  502  0.00000000000E+00  0.00000000000E+00  0.64514899669E+03  0.64514899669E+03  0.00000000000E+00 0. -1.
          4   -1    0    0  502    0 -0.00000000000E+00 -0.00000000000E+00 -0.27881200918E+03  0.27881490162E+03  0.12700000000E+01 0.  1.
         25    2    1    2    0    0  0.31473567754E+02  0.25124115090E+03 -0.17088512872E+03  0.33005993601E+03  0.12500053106E+03 0.  0.
    9000005    1    3    3    0    0 -0.39051224366E+01  0.10216904948E+02 -0.62448292169E+02  0.63406816060E+02  0.10000000000E+01 0.  0.
    9000005    1    3    3    0    0  0.35378690190E+02  0.24102424595E+03 -0.10843683655E+03  0.26665311995E+03  0.10000000000E+01 0.  0.
          4    1    1    2  501    0 -0.31473567754E+02 -0.25124115090E+03  0.53722211623E+03  0.59390396230E+03  0.12700000000E+01 0. -1.
<mgrwt>
<rscale>  1 0.28237888E+03</rscale>
<asrwt>0</asrwt>
<pdfrwt beam="1">  1       21 0.99253692E-01 0.28237888E+03</pdfrwt>
<pdfrwt beam="2">  1        4 0.42894474E-01 0.28237888E+03</pdfrwt>
<totfact> 0.18257662E+02</totfact>
</mgrwt>
</event>
<event>
 6    4  0.6326233E-003  0.1282799E+03  0.7818608E-02  0.1230031E+00
          4   -1    0    0  502    0 -0.00000000000E+00  0.00000000000E+00  0.53694517877E+03  0.53694668069E+03  0.12700000000E+01 0.  1.
         21   -1    0    0  501  502  0.00000000000E+00 -0.00000000000E+00 -0.11663576475E+02  0.11663576475E+02  0.00000000000E+00 0.  1.
         25    2    1    2    0    0 -0.26480635316E+02  0.11291300559E+02  0.45250556369E+03  0.47033713145E+03  0.12500805786E+03 0.  0.
    9000005    1    3    3    0    0 -0.42905239009E+02 -0.21369243474E+02  0.63246540249E+02  0.79363902087E+02  0.10000000000E+01 0.  0.
    9000005    1    3    3    0    0  0.16424603693E+02  0.32660544033E+02  0.38925902344E+03  0.39097322936E+03  0.10000000000E+01 0.  0.
          4    1    1    2  501    0  0.26480635316E+02 -0.11291300559E+02  0.72776038600E+02  0.78273125716E+02  0.12700000000E+01 0. -1.
<mgrwt>
<rscale>  1 0.12827990E+03</rscale>
<asrwt>0</asrwt>
<pdfrwt beam="2">  1       21 0.17943968E-02 0.12827990E+03</pdfrwt>
<pdfrwt beam="1">  1        4 0.82612365E-01 0.12827990E+03</pdfrwt>
<totfact> 0.77495977E+04</totfact>
</mgrwt>
</event>
<event>
 6    4  0.6326233E-003  0.1284081E+03  0.7818608E-02  0.1229837E+00
         21   -1    0    0  501  502  0.00000000000E+00  0.00000000000E+00  0.96182283403E+02  0.96182283403E+02  0.00000000000E+00 0.  1.
          4   -1    0    0  502    0 -0.00000000000E+00 -0.00000000000E+00 -0.83077271869E+02  0.83086978529E+02  0.12700000000E+01 0.  1.
         25    2    1    2    0    0 -0.17585476941E+02 -0.23544865087E+02 -0.25317452307E+02  0.13088012783E+03  0.12500009920E+03 0.  0.
    9000005    1    3    3    0    0 -0.66890302893E+01 -0.35153186982E+01  0.50823552881E+02  0.51391965512E+02  0.10000000000E+01 0.  0.
    9000005    1    3    3    0    0 -0.10896446652E+02 -0.20029546389E+02 -0.76141005188E+02  0.79488162321E+02  0.10000000000E+01 0.  0.
          4    1    1    2  501    0  0.17585476941E+02  0.23544865087E+02  0.38422463841E+02  0.48389134099E+02  0.12700000000E+01 0. -1.
<mgrwt>
<rscale>  1 0.12840808E+03</rscale>
<asrwt>0</asrwt>
<pdfrwt beam="1">  1       21 0.14797274E-01 0.12840808E+03</pdfrwt>
<pdfrwt beam="2">  1        4 0.12782510E-01 0.12840808E+03</pdfrwt>
<totfact> 0.80315762E+04</totfact>
</mgrwt>
</event>
<event>
 6    4  0.6326233E-003  0.1337447E+03  0.7818608E-02  0.1222003E+00
         -4   -1    0    0    0  501 -0.00000000000E+00  0.00000000000E+00  0.48447676177E+02  0.48464319112E+02  0.12700000000E+01 0.  1.
         21   -1    0    0  501  502  0.00000000000E+00 -0.00000000000E+00 -0.21432281652E+03  0.21432281652E+03  0.00000000000E+00 0.  1.
         25    2    1    2    0    0 -0.47271851017E+02 -0.53220584550E+01 -0.59756817601E+02  0.14648724945E+03  0.12499873918E+03 0.  0.
    9000005    1    3    3    0    0 -0.23667924125E+02  0.29155651706E+02 -0.88243636281E+02  0.95907048765E+02  0.10000000000E+01 0.  0.
    9000005    1    3    3    0    0 -0.23603926892E+02 -0.34477710161E+02  0.28486818680E+02  0.50580200683E+02  0.10000000000E+01 0.  0.
         -4    1    1    2    0  502  0.47271851017E+02  0.53220584550E+01 -0.10611832275E+03  0.11629988619E+03  0.12700000000E+01 0. -1.
<mgrwt>
<rscale>  1 0.13374467E+03</rscale>
<asrwt>0</asrwt>
<pdfrwt beam="2">  1       21 0.32972741E-01 0.13374467E+03</pdfrwt>
<pdfrwt beam="1">  1       -4 0.74550583E-02 0.13374467E+03</pdfrwt>
<totfact> 0.44656340E+04</totfact>
</mgrwt>
</event>
<event>
 6    4  0.6326233E-003  0.1289849E+03  0.7818608E-02  0.1228970E+00
          4   -1    0    0  502    0 -0.00000000000E+00  0.00000000000E+00  0.75269099033E+03  0.75269206175E+03  0.12700000000E+01 0. -1.
         21   -1    0    0  501  502  0.00000000000E+00 -0.00000000000E+00 -0.86838002964E+01  0.86838002964E+01  0.00000000000E+00 0. -1.
         25    2    1    2    0    0  0.28257908824E+02  0.14622288954E+02  0.62583979904E+03  0.63899340440E+03  0.12499918424E+03 0.  0.
    9000005    1    3    3    0    0  0.69651115599E+02  0.39927400052E+02  0.40573858056E+03  0.41360642033E+03  0.10000000000E+01 0.  0.
    9000005    1    3    3    0    0 -0.41393206776E+02 -0.25305111098E+02  0.22010121848E+03  0.22538698407E+03  0.10000000000E+01 0.  0.
          4    1    1    2  501    0 -0.28257908824E+02 -0.14622288954E+02  0.11816739100E+03  0.12238245765E+03  0.12700000000E+01 0.  1.
<mgrwt>
<rscale>  1 0.12898495E+03</rscale>
<asrwt>0</asrwt>
<pdfrwt beam="2">  1       21 0.13359699E-02 0.12898495E+03</pdfrwt>
<pdfrwt beam="1">  1        4 0.11580579E+00 0.12898495E+03</pdfrwt>
<totfact> 0.57197663E+04</totfact>
</mgrwt>
</event>
<event>
 6    4  0.6326233E-003  0.1288873E+03  0.7818608E-02  0.1229116E+00
          4   -1    0    0  502    0 -0.00000000000E+00  0.00000000000E+00  0.17202189365E+02  0.17249006318E+02  0.12700000000E+01 0.  1.
         21   -1    0    0  501  502  0.00000000000E+00 -0.00000000000E+00 -0.41708824500E+03  0.41708824500E+03  0.00000000000E+00 0.  1.
         25    2    1    2    0    0  0.31299018632E+02  0.30837713701E+01 -0.25096945184E+03  0.28213046435E+03  0.12499117947E+03 0.  0.
    9000005    1    3    3    0    0  0.51524768346E+02  0.28456960413E+02 -0.24112473764E+03  0.24820704956E+03  0.10000000000E+01 0.  0.
    9000005    1    3    3    0    0 -0.20225749715E+02 -0.25373189043E+02 -0.98447142065E+01  0.33923414798E+02  0.10000000000E+01 0.  0.
          4    1    1    2  501    0 -0.31299018632E+02 -0.30837713701E+01 -0.14891660379E+03  0.15220678696E+03  0.12700000000E+01 0. -1.
<mgrwt>
<rscale>  1 0.12888729E+03</rscale>
<asrwt>0</asrwt>
<pdfrwt beam="2">  1       21 0.64167414E-01 0.12888729E+03</pdfrwt>
<pdfrwt beam="1">  1        4 0.26502410E-02 0.12888729E+03</pdfrwt>
<totfact> 0.59603533E+04</totfact>
</mgrwt>
</event>
<event>
 6    4  0.6326233E-003  0.1285426E+03  0.7818608E-02  0.1229634E+00
         21   -1    0    0  501  502  0.00000000000E+00  0.00000000000E+00  0.20497995057E+02  0.20497995057E+02  0.00000000000E+00 0. -1.
         -4   -1    0    0    0  501 -0.00000000000E+00 -0.00000000000E+00 -0.39793989305E+03  0.39794191960E+03  0.12700000000E+01 0.  1.
         25    2    1    2    0    0 -0.84727422361E+00  0.29888178472E+02 -0.36324090418E+03  0.38531436242E+03  0.12501672821E+03 0.  0.
    9000005    1    3    3    0    0 -0.58815697632E+02  0.10716653266E+01 -0.22656509792E+03  0.23407942743E+03  0.10000000000E+01 0.  0.
    9000005    1    3    3    0    0  0.57968423408E+02  0.28816513146E+02 -0.13667580627E+03  0.15123493499E+03  0.10000000000E+01 0.  0.
         -4    1    1    2    0  502  0.84727422361E+00 -0.29888178472E+02 -0.14200993809E+02  0.33125552240E+02  0.12700000000E+01 0. -1.
<mgrwt>
<rscale>  1 0.12854261E+03</rscale>
<asrwt>0</asrwt>
<pdfrwt beam="1">  1       21 0.31535381E-02 0.12854261E+03</pdfrwt>
<pdfrwt beam="2">  1       -4 0.61224697E-01 0.12854261E+03</pdfrwt>
<totfact> 0.59276556E+04</totfact>
</mgrwt>
</event>
<event>
 6    4  0.6326233E-003  0.1289983E+03  0.7818608E-02  0.1228950E+00
          4   -1    0    0  502    0 -0.00000000000E+00  0.00000000000E+00  0.53020112004E+02  0.53035320089E+02  0.12700000000E+01 0.  1.
         21   -1    0    0  501  502  0.00000000000E+00 -0.00000000000E+00 -0.14137474304E+03  0.14137474304E+03  0.00000000000E+00 0.  1.
         25    2    1    2    0    0  0.30757001549E+02  0.83698330593E+01 -0.96953373861E+02  0.16137071496E+03  0.12499801476E+03 0.  0.
    9000005    1    3    3    0    0 -0.38154493849E+02  0.14503356263E+02 -0.80481003928E+02  0.90245801770E+02  0.10000000000E+01 0.  0.
    9000005    1    3    3    0    0  0.68911495397E+02 -0.61335232038E+01 -0.16472369933E+02  0.71124913188E+02  0.10000000000E+01 0.  0.
          4    1    1    2  501    0 -0.30757001549E+02 -0.83698330593E+01  0.85987428218E+01  0.33039348175E+02  0.12700000000E+01 0. -1.
<mgrwt>
<rscale>  1 0.12899826E+03</rscale>
<asrwt>0</asrwt>
<pdfrwt beam="2">  1       21 0.21749960E-01 0.12899826E+03</pdfrwt>
<pdfrwt beam="1">  1        4 0.81585490E-02 0.12899826E+03</pdfrwt>
<totfact> 0.84657519E+04</totfact>
</mgrwt>
</event>
<event>
 6    4  0.6326233E-003  0.1306752E+03  0.7818608E-02  0.1226457E+00
         21   -1    0    0  501  502  0.00000000000E+00  0.00000000000E+00  0.42312482480E+02  0.42312482480E+02  0.00000000000E+00 0. -1.
          4   -1    0    0  502    0 -0.00000000000E+00 -0.00000000000E+00 -0.35548579413E+03  0.35548806271E+03  0.12700000000E+01 0.  1.
         25    2    1    2    0    0 -0.29079676308E+02  0.24622350725E+02 -0.33089125112E+03  0.35575977915E+03  0.12499645060E+03 0.  0.
    9000005    1    3    3    0    0  0.19367183341E+02  0.63298859471E+02 -0.13624589231E+03  0.15147863405E+03  0.10000000000E+01 0.  0.
    9000005    1    3    3    0    0 -0.48446859650E+02 -0.38676508746E+02 -0.19464535881E+03  0.20428114511E+03  0.10000000000E+01 0.  0.
          4    1    1    2  501    0  0.29079676308E+02 -0.24622350725E+02  0.17717939477E+02  0.42040766034E+02  0.12700000000E+01 0. -1.
<mgrwt>
<rscale>  1 0.13067517E+03</rscale>
<asrwt>0</asrwt>
<pdfrwt beam="1">  1       21 0.65096124E-02 0.13067517E+03</pdfrwt>
<pdfrwt beam="2">  1        4 0.54691765E-01 0.13067517E+03</pdfrwt>
<totfact> 0.22368330E+04</totfact>
</mgrwt>
</event>
<event>
 6    4  0.6326233E-003  0.1280054E+03  0.7818608E-02  0.1230446E+00
         -4   -1    0    0    0  501 -0.00000000000E+00  0.00000000000E+00  0.23098531687E+02  0.23133418815E+02  0.12700000000E+01 0.  1.
         21   -1    0    0  501  502  0.00000000000E+00 -0.00000000000E+00 -0.27734118691E+03  0.27734118691E+03  0.00000000000E+00 0.  1.
         25    2    1    2    0    0 -0.25075354993E+02  0.11455082172E+02 -0.17689494746E+03  0.21835108211E+03  0.12500152113E+03 0.  0.
    9000005    1    3    3    0    0  0.26232013043E+02  0.54157282733E+02 -0.69932045697E+02  0.92263865065E+02  0.10000000000E+01 0.  0.
    9000005    1    3    3    0    0 -0.51307368036E+02 -0.42702200562E+02 -0.10696290177E+03  0.12608721704E+03  0.10000000000E+01 0.  0.
         -4    1    1    2    0  502  0.25075354993E+02 -0.11455082172E+02 -0.77347707759E+02  0.82123523616E+02  0.12700000000E+01 0. -1.
<mgrwt>
<rscale>  1 0.12800536E+03</rscale>
<asrwt>0</asrwt>
<pdfrwt beam="2">  1       21 0.42667876E-01 0.12800536E+03</pdfrwt>
<pdfrwt beam="1">  1       -4 0.35565274E-02 0.12800536E+03</pdfrwt>
<totfact> 0.87742788E+04</totfact>
</mgrwt>
</event>
<event>
 6    4  0.6326233E-003  0.1268097E+03  0.7818608E-02  0.1232268E+00
          4   -1    0    0  502    0 -0.00000000000E+00  0.00000000000E+00  0.23341465629E+03  0.23341811128E+03  0.12700000000E+01 0.  1.
         21   -1    0    0  501  502  0.00000000000E+00 -0.00000000000E+00 -0.24045763500E+02  0.24045763500E+02  0.00000000000E+00 0.  1.
         25    2    1    2    0    0  0.13510289859E+02 -0.16571065796E+02  0.19091299847E+03  0.22919090024E+03  0.12499427033E+03 0.  0.
    9000005    1    3    3    0    0 -0.25685906460E+02  0.40990275635E+02  0.12186342741E+03  0.13111698375E+03  0.10000000000E+01 0.  0.
    9000005    1    3    3    0    0  0.39196196319E+02 -0.57561341431E+02  0.69049571057E+02  0.98073916494E+02  0.10000000000E+01 0.  0.
          4    1    1    2  501    0 -0.13510289859E+02  0.16571065796E+02  0.18455894325E+02  0.28272974534E+02  0.12700000000E+01 0. -1.
<mgrwt>
<rscale>  1 0.12680968E+03</rscale>
<asrwt>0</asrwt>
<pdfrwt beam="2">  1       21 0.36993484E-02 0.12680968E+03</pdfrwt>
<pdfrwt beam="1">  1        4 0.35912791E-01 0.12680968E+03</pdfrwt>
<totfact> 0.13324896E+05</totfact>
</mgrwt>
</event>
<event>
 6    4  0.6326233E-003  0.1378953E+03  0.7818608E-02  0.1216189E+00
         -4   -1    0    0    0  501 -0.00000000000E+00  0.00000000000E+00  0.65473709128E+03  0.65473832299E+03  0.12700000000E+01 0. -1.
         21   -1    0    0  501  502  0.00000000000E+00 -0.00000000000E+00 -0.41819249178E+02  0.41819249178E+02  0.00000000000E+00 0.  1.
         25    2    1    2    0    0 -0.58223653222E+02  0.59119709749E-01  0.62245320191E+03  0.63754457973E+03  0.12500042114E+03 0.  0.
    9000005    1    3    3    0    0 -0.90356088209E+02  0.11852722186E+02  0.30709549957E+03  0.32033319459E+03  0.10000000000E+01 0.  0.
    9000005    1    3    3    0    0  0.32132434987E+02 -0.11793602476E+02  0.31535770234E+03  0.31721138514E+03  0.10000000000E+01 0.  0.
         -4    1    1    2    0  502  0.58223653222E+02 -0.59119709749E-01 -0.95353598137E+01  0.59012992438E+02  0.12700000000E+01 0.  1.
<mgrwt>
<rscale>  1 0.13789526E+03</rscale>
<asrwt>0</asrwt>
<pdfrwt beam="2">  1       21 0.64337311E-02 0.13789526E+03</pdfrwt>
<pdfrwt beam="1">  1       -4 0.10073035E+00 0.13789526E+03</pdfrwt>
<totfact> 0.60465274E+03</totfact>
</mgrwt>
</event>
<event>
 6    4  0.6326233E-003  0.1309709E+03  0.7818608E-02  0.1226022E+00
         21   -1    0    0  501  502  0.00000000000E+00  0.00000000000E+00  0.11779926476E+03  0.11779926476E+03  0.00000000000E+00 0.  1.
         -4   -1    0    0    0  501 -0.00000000000E+00 -0.00000000000E+00 -0.24191314231E+03  0.24191647593E+03  0.12700000000E+01 0. -1.
         25    2    1    2    0    0 -0.36208683836E+02  0.14591263956E+02 -0.22008156822E+03  0.25610404096E+03  0.12501763619E+03 0.  0.
    9000005    1    3    3    0    0  0.16075176404E+02  0.36984673285E+01 -0.19736955893E+03  0.19806017457E+03  0.10000000000E+01 0.  0.
    9000005    1    3    3    0    0 -0.52283860240E+02  0.10892796628E+02 -0.22712009282E+02  0.58043866391E+02  0.10000000000E+01 0.  0.
         -4    1    1    2    0  502  0.36208683836E+02 -0.14591263956E+02  0.95967690658E+02  0.10361169972E+03  0.12700000000E+01 0.  1.
<mgrwt>
<rscale>  1 0.13097092E+03</rscale>
<asrwt>0</asrwt>
<pdfrwt beam="1">  1       21 0.18122964E-01 0.13097092E+03</pdfrwt>
<pdfrwt beam="2">  1       -4 0.37218189E-01 0.13097092E+03</pdfrwt>
<totfact> 0.79591558E+03</totfact>
</mgrwt>
</event>
<event>
 6    4  0.6326233E-003  0.1267861E+03  0.7818608E-02  0.1232304E+00
          4   -1    0    0  502    0 -0.00000000000E+00  0.00000000000E+00  0.53575322252E+02  0.53590372777E+02  0.12700000000E+01 0.  1.
         21   -1    0    0  501  502  0.00000000000E+00 -0.00000000000E+00 -0.12012650373E+03  0.12012650373E+03  0.00000000000E+00 0.  1.
         25    2    1    2    0    0 -0.18585774132E+02 -0.10227127507E+02 -0.28220259708E+02  0.12988883068E+03  0.12499880056E+03 0.  0.
    9000005    1    3    3    0    0  0.16623980044E+02  0.37667374429E+02  0.26592896397E+02  0.49024177175E+02  0.10000000000E+01 0.  0.
    9000005    1    3    3    0    0 -0.35209754175E+02 -0.47894501936E+02 -0.54813156105E+02  0.80864653508E+02  0.10000000000E+01 0.  0.
          4    1    1    2  501    0  0.18585774132E+02  0.10227127507E+02 -0.38330921774E+02  0.43828045829E+02  0.12700000000E+01 0. -1.
<mgrwt>
<rscale>  1 0.12678614E+03</rscale>
<asrwt>0</asrwt>
<pdfrwt beam="2">  1       21 0.18481000E-01 0.12678614E+03</pdfrwt>
<pdfrwt beam="1">  1        4 0.82440315E-02 0.12678614E+03</pdfrwt>
<totfact> 0.11218189E+05</totfact>
</mgrwt>
</event>
<event>
 6    4  0.6326233E-003  0.1290703E+03  0.7818608E-02  0.1228842E+00
         21   -1    0    0  501  502  0.00000000000E+00  0.00000000000E+00  0.26282077944E+03  0.26282077944E+03  0.00000000000E+00 0. -1.
         -4   -1    0    0    0  501 -0.00000000000E+00 -0.00000000000E+00 -0.34598349822E+02  0.34621650890E+02  0.12700000000E+01 0. -1.
         25    2    1    2    0    0  0.30171072548E+02 -0.11174157204E+02  0.94680564425E+02  0.16007359082E+03  0.12499595910E+03 0.  0.
    9000005    1    3    3    0    0  0.34710677506E+02  0.14990553090E+02  0.11849804869E+03  0.12438784248E+03  0.10000000000E+01 0.  0.
    9000005    1    3    3    0    0 -0.45396049582E+01 -0.26164710294E+02 -0.23817484264E+02  0.35685748340E+02  0.10000000000E+01 0.  0.
         -4    1    1    2    0  502 -0.30171072548E+02  0.11174157204E+02  0.13354186519E+03  0.13736883951E+03  0.12700000000E+01 0.  1.
<mgrwt>
<rscale>  1 0.12907031E+03</rscale>
<asrwt>0</asrwt>
<pdfrwt beam="1">  1       21 0.40433965E-01 0.12907031E+03</pdfrwt>
<pdfrwt beam="2">  1       -4 0.53248517E-02 0.12907031E+03</pdfrwt>
<totfact> 0.51428166E+04</totfact>
</mgrwt>
</event>
<event>
 6    4  0.6326233E-003  0.1347635E+03  0.7818608E-02  0.1220554E+00
         21   -1    0    0  501  502  0.00000000000E+00  0.00000000000E+00  0.21475288096E+03  0.21475288096E+03  0.00000000000E+00 0.  1.
         -4   -1    0    0    0  501 -0.00000000000E+00 -0.00000000000E+00 -0.40739267633E+02  0.40759058223E+02  0.12700000000E+01 0.  1.
         25    2    1    2    0    0  0.31320064268E+02 -0.39440866785E+02  0.10939995083E+03  0.17357863289E+03  0.12499865662E+03 0.  0.
    9000005    1    3    3    0    0  0.64590101377E+02  0.61977202090E+01  0.95405163671E+02  0.11538387317E+03  0.10000000000E+01 0.  0.
    9000005    1    3    3    0    0 -0.33270037109E+02 -0.45638586994E+02  0.13994787159E+02  0.58194759727E+02  0.10000000000E+01 0.  0.
         -4    1    1    2    0  502 -0.31320064268E+02  0.39440866785E+02  0.64613662500E+02  0.81933306294E+02  0.12700000000E+01 0. -1.
<mgrwt>
<rscale>  1 0.13476347E+03</rscale>
<asrwt>0</asrwt>
<pdfrwt beam="1">  1       21 0.33038904E-01 0.13476347E+03</pdfrwt>
<pdfrwt beam="2">  1       -4 0.62693910E-02 0.13476347E+03</pdfrwt>
<totfact> 0.59131615E+04</totfact>
</mgrwt>
</event>
<event>
 6    4  0.6326233E-003  0.1373337E+03  0.7818608E-02  0.1216962E+00
          4   -1    0    0  502    0 -0.00000000000E+00  0.00000000000E+00  0.27155679818E+02  0.27185360884E+02  0.12700000000E+01 0. -1.
         21   -1    0    0  501  502  0.00000000000E+00 -0.00000000000E+00 -0.42100588635E+03  0.42100588635E+03  0.00000000000E+00 0. -1.
         25    2    1    2    0    0  0.24423952105E+02 -0.51372687294E+02 -0.17716569775E+03  0.22416117853E+03  0.12499946826E+03 0.  0.
    9000005    1    3    3    0    0  0.45665981701E+02 -0.15692497136E+02 -0.17610831530E+03  0.18261099383E+03  0.10000000000E+01 0.  0.
    9000005    1    3    3    0    0 -0.21242029596E+02 -0.35680190159E+02 -0.10573824534E+01  0.41550184702E+02  0.10000000000E+01 0.  0.
          4    1    1    2  501    0 -0.24423952105E+02  0.51372687294E+02 -0.21668450878E+03  0.22403006870E+03  0.12700000000E+01 0.  1.
<mgrwt>
<rscale>  1 0.13733372E+03</rscale>
<asrwt>0</asrwt>
<pdfrwt beam="2">  1       21 0.64770136E-01 0.13733372E+03</pdfrwt>
<pdfrwt beam="1">  1        4 0.41802274E-02 0.13733372E+03</pdfrwt>
<totfact> 0.28697431E+04</totfact>
</mgrwt>
</event>
<event>
 6    4  0.6326233E-003  0.1297822E+03  0.7818608E-02  0.1227779E+00
         21   -1    0    0  501  502  0.00000000000E+00  0.00000000000E+00  0.57648581889E+02  0.57648581889E+02  0.00000000000E+00 0.  1.
         -4   -1    0    0    0  501 -0.00000000000E+00 -0.00000000000E+00 -0.11862570237E+03  0.11863250045E+03  0.12700000000E+01 0.  1.
         25    2    1    2    0    0 -0.33671770962E+02  0.91688667328E+01 -0.41284890231E+02  0.13619052099E+03  0.12500223826E+03 0.  0.
    9000005    1    3    3    0    0 -0.35384031009E+02  0.51218016270E+02 -0.63213287405E+02  0.88725613809E+02  0.10000000000E+01 0.  0.
    9000005    1    3    3    0    0  0.17122600477E+01 -0.42049149537E+02  0.21928397174E+02  0.47464907183E+02  0.10000000000E+01 0.  0.
         -4    1    1    2    0  502  0.33671770962E+02 -0.91688667328E+01 -0.19692230252E+02  0.40090561348E+02  0.12700000000E+01 0. -1.
<mgrwt>
<rscale>  1 0.12978219E+03</rscale>
<asrwt>0</asrwt>
<pdfrwt beam="1">  1       21 0.88690128E-02 0.12978219E+03</pdfrwt>
<pdfrwt beam="2">  1       -4 0.18251707E-01 0.12978219E+03</pdfrwt>
<totfact> 0.10662054E+05</totfact>
</mgrwt>
</event>
<event>
 6    4  0.6326233E-003  0.1269033E+03  0.7818608E-02  0.1232124E+00
         21   -1    0    0  501  502  0.00000000000E+00  0.00000000000E+00  0.50009674229E+02  0.50009674229E+02  0.00000000000E+00 0.  1.
         -4   -1    0    0    0  501 -0.00000000000E+00 -0.00000000000E+00 -0.11534596544E+03  0.11535295681E+03  0.12700000000E+01 0.  1.
         25    2    1    2    0    0 -0.98957150308E+01  0.19664071917E+02 -0.66519907512E+02  0.14328063049E+03  0.12497935861E+03 0.  0.
    9000005    1    3    3    0    0  0.35192635807E+02  0.56548554622E+02 -0.22682395177E+02  0.70368684057E+02  0.10000000000E+01 0.  0.
    9000005    1    3    3    0    0 -0.45088350838E+02 -0.36884482705E+02 -0.43837512334E+02  0.72911946438E+02  0.10000000000E+01 0.  0.
         -4    1    1    2    0  502  0.98957150308E+01 -0.19664071917E+02  0.11836162986E+01  0.22082000540E+02  0.12700000000E+01 0. -1.
<mgrwt>
<rscale>  1 0.12690327E+03</rscale>
<asrwt>0</asrwt>
<pdfrwt beam="1">  1       21 0.76937961E-02 0.12690327E+03</pdfrwt>
<pdfrwt beam="2">  1       -4 0.17747311E-01 0.12690327E+03</pdfrwt>
<totfact> 0.14276892E+05</totfact>
</mgrwt>
</event>
<event>
 6    4  0.6326233E-003  0.1287169E+03  0.7818608E-02  0.1229372E+00
         21   -1    0    0  501  502  0.00000000000E+00  0.00000000000E+00  0.95060870236E+01  0.95060870236E+01  0.00000000000E+00 0. -1.
          4   -1    0    0  502    0 -0.00000000000E+00 -0.00000000000E+00 -0.71564170306E+03  0.71564282995E+03  0.12700000000E+01 0.  1.
         25    2    1    2    0    0  0.25751783619E+02  0.16595833438E+02 -0.63105413693E+03  0.64404763800E+03  0.12501783962E+03 0.  0.
    9000005    1    3    3    0    0  0.45390255536E+02  0.17430481998E+01 -0.76707571744E+02  0.89153603839E+02  0.10000000000E+01 0.  0.
    9000005    1    3    3    0    0 -0.19638471916E+02  0.14852785238E+02 -0.55434656519E+03  0.55489403416E+03  0.10000000000E+01 0.  0.
          4    1    1    2  501    0 -0.25751783619E+02 -0.16595833438E+02 -0.75081479106E+02  0.81101278978E+02  0.12700000000E+01 0. -1.
<mgrwt>
<rscale>  1 0.12871688E+03</rscale>
<asrwt>0</asrwt>
<pdfrwt beam="1">  1       21 0.14624749E-02 0.12871688E+03</pdfrwt>
<pdfrwt beam="2">  1        4 0.11010534E+00 0.12871688E+03</pdfrwt>
<totfact> 0.55776722E+04</totfact>
</mgrwt>
</event>
<event>
 6    4  0.6326233E-003  0.1280811E+03  0.7818608E-02  0.1230331E+00
          4   -1    0    0  502    0 -0.00000000000E+00  0.00000000000E+00  0.79708586317E+03  0.79708687492E+03  0.12700000000E+01 0. -1.
         21   -1    0    0  501  502  0.00000000000E+00 -0.00000000000E+00 -0.24428304004E+02  0.24428304004E+02  0.00000000000E+00 0.  1.
         25    2    1    2    0    0 -0.11835522327E+02  0.25279322964E+02  0.78171797653E+03  0.79214124795E+03  0.12500255242E+03 0.  0.
    9000005    1    3    3    0    0  0.68615580793E+01 -0.49447656167E+02  0.35977243939E+03  0.36322081414E+03  0.10000000000E+01 0.  0.
    9000005    1    3    3    0    0 -0.18697080406E+02  0.74726979131E+02  0.42194553714E+03  0.42892043381E+03  0.10000000000E+01 0.  0.
          4    1    1    2  501    0  0.11835522327E+02 -0.25279322964E+02 -0.90604173614E+01  0.29373930977E+02  0.12700000000E+01 0.  1.
<mgrwt>
<rscale>  1 0.12808108E+03</rscale>
<asrwt>0</asrwt>
<pdfrwt beam="2">  1       21 0.37582012E-02 0.12808108E+03</pdfrwt>
<pdfrwt beam="1">  1        4 0.12263119E+00 0.12808108E+03</pdfrwt>
<totfact> 0.93135865E+03</totfact>
</mgrwt>
</event>
<event>
 6    4  0.6326233E-003  0.1266601E+03  0.7818608E-02  0.1232497E+00
          4   -1    0    0  502    0 -0.00000000000E+00  0.00000000000E+00  0.11859726807E+04  0.11859733607E+04  0.12700000000E+01 0.  1.
         21   -1    0    0  501  502  0.00000000000E+00 -0.00000000000E+00 -0.52135286375E+01  0.52135286375E+01  0.00000000000E+00 0.  1.
         25    2    1    2    0    0  0.17342151204E+02  0.10845047781E+02  0.11183378592E+04  0.11254876049E+04  0.12499766491E+03 0.  0.
    9000005    1    3    3    0    0 -0.17272806696E+00 -0.25215560675E+02  0.46555975379E+02  0.52955766246E+02  0.10000000000E+01 0.  0.
    9000005    1    3    3    0    0  0.17514879271E+02  0.36060608456E+02  0.10717818838E+04  0.10725318387E+04  0.10000000000E+01 0.  0.
          4    1    1    2  501    0 -0.17342151204E+02 -0.10845047781E+02  0.62421292915E+02  0.65699284463E+02  0.12700000000E+01 0. -1.
<mgrwt>
<rscale>  1 0.12666010E+03</rscale>
<asrwt>0</asrwt>
<pdfrwt beam="2">  1       21 0.80208228E-03 0.12666010E+03</pdfrwt>
<pdfrwt beam="1">  1        4 0.18246907E+00 0.12666010E+03</pdfrwt>
<totfact> 0.40354755E+04</totfact>
</mgrwt>
</event>
<event>
 6    4  0.6326233E-003  0.1589051E+03  0.7818608E-02  0.1189938E+00
         21   -1    0    0  501  502  0.00000000000E+00  0.00000000000E+00  0.60532809964E+03  0.60532809964E+03  0.00000000000E+00 0.  1.
          4   -1    0    0  502    0 -0.00000000000E+00 -0.00000000000E+00 -0.42662025394E+03  0.42662214426E+03  0.12700000000E+01 0. -1.
         25    2    1    2    0    0 -0.97196769192E+02  0.13301436181E+02 -0.40760546139E+03  0.43748489830E+03  0.12500673557E+03 0.  0.
    9000005    1    3    3    0    0  0.21867938013E+02  0.31049691504E+02 -0.83217759047E+02  0.91479426519E+02  0.10000000000E+01 0.  0.
    9000005    1    3    3    0    0 -0.11906470720E+03 -0.17748255323E+02 -0.32438770234E+03  0.34600547178E+03  0.10000000000E+01 0.  0.
          4    1    1    2  501    0  0.97196769192E+02 -0.13301436181E+02  0.58631330709E+03  0.59446534560E+03  0.12700000000E+01 0.  1.
<mgrwt>
<rscale>  1 0.15890508E+03</rscale>
<asrwt>0</asrwt>
<pdfrwt beam="1">  1       21 0.93127400E-01 0.15890508E+03</pdfrwt>
<pdfrwt beam="2">  1        4 0.65634133E-01 0.15890508E+03</pdfrwt>
<totfact> 0.90264588E+01</totfact>
</mgrwt>
</event>
<event>
 6    4  0.6326233E-003  0.1285278E+03  0.7818608E-02  0.1229657E+00
          4   -1    0    0  502    0 -0.00000000000E+00  0.00000000000E+00  0.25287355596E+02  0.25319226944E+02  0.12700000000E+01 0. -1.
         21   -1    0    0  501  502  0.00000000000E+00 -0.00000000000E+00 -0.24831669549E+03  0.24831669549E+03  0.00000000000E+00 0. -1.
         25    2    1    2    0    0  0.29088646311E+02  0.69473684097E+01 -0.18417388930E+03  0.22458723017E+03  0.12499994873E+03 0.  0.
    9000005    1    3    3    0    0  0.71075629451E+02 -0.16301594449E+02 -0.14619774330E+03  0.16337768277E+03  0.10000000000E+01 0.  0.
    9000005    1    3    3    0    0 -0.41986983140E+02  0.23248962858E+02 -0.37976146007E+02  0.61209547398E+02  0.10000000000E+01 0.  0.
          4    1    1    2  501    0 -0.29088646311E+02 -0.69473684097E+01 -0.38855450591E+02  0.49048692263E+02  0.12700000000E+01 0.  1.
<mgrwt>
<rscale>  1 0.12852783E+03</rscale>
<asrwt>0</asrwt>
<pdfrwt beam="2">  1       21 0.38202567E-01 0.12852783E+03</pdfrwt>
<pdfrwt beam="1">  1        4 0.38930640E-02 0.12852783E+03</pdfrwt>
<totfact> 0.94941164E+04</totfact>
</mgrwt>
</event>
<event>
 6    4  0.6326233E-003  0.1334346E+03  0.7818608E-02  0.1222447E+00
         -4   -1    0    0    0  501 -0.00000000000E+00  0.00000000000E+00  0.17674901626E+04  0.17674906189E+04  0.12700000000E+01 0.  1.
         21   -1    0    0  501  502  0.00000000000E+00 -0.00000000000E+00 -0.79276734849E+01  0.79276734849E+01  0.00000000000E+00 0. -1.
         25    2    1    2    0    0 -0.39872266362E+02 -0.24285066947E+02  0.16609963690E+04  0.16663474207E+04  0.12500090661E+03 0.  0.
    9000005    1    3    3    0    0 -0.19835491137E+02  0.28462840263E+02  0.13771833072E+03  0.14202435919E+03  0.10000000000E+01 0.  0.
    9000005    1    3    3    0    0 -0.20036775226E+02 -0.52747907210E+02  0.15232780383E+04  0.15243230615E+04  0.10000000000E+01 0.  0.
         -4    1    1    2    0  502  0.39872266362E+02  0.24285066947E+02  0.98566120127E+02  0.10907087163E+03  0.12700000000E+01 0. -1.
<mgrwt>
<rscale>  1 0.13343459E+03</rscale>
<asrwt>0</asrwt>
<pdfrwt beam="2">  1       21 0.12196435E-02 0.13343459E+03</pdfrwt>
<pdfrwt beam="1">  1       -4 0.27192911E+00 0.13343459E+03</pdfrwt>
<totfact> 0.61292750E+03</totfact>
</mgrwt>
</event>
<event>
 6    4  0.6326233E-003  0.1410829E+03  0.7818608E-02  0.1211879E+00
         21   -1    0    0  501  502  0.00000000000E+00  0.00000000000E+00  0.64493290663E+02  0.64493290663E+02  0.00000000000E+00 0.  1.
          4   -1    0    0  502    0 -0.00000000000E+00 -0.00000000000E+00 -0.34788645327E+03  0.34788877140E+03  0.12700000000E+01 0. -1.
         25    2    1    2    0    0  0.29730000799E+02  0.58272589031E+02 -0.31089309642E+03  0.34140722963E+03  0.12499924585E+03 0.  0.
    9000005    1    3    3    0    0  0.61527608439E+02  0.21895309762E+02 -0.27094862494E+03  0.27870990033E+03  0.10000000000E+01 0.  0.
    9000005    1    3    3    0    0 -0.31797607640E+02  0.36377279269E+02 -0.39944471484E+02  0.62697329296E+02  0.10000000000E+01 0.  0.
          4    1    1    2  501    0 -0.29730000799E+02 -0.58272589031E+02  0.27499933812E+02  0.70974832438E+02  0.12700000000E+01 0.  1.
<mgrwt>
<rscale>  1 0.14108288E+03</rscale>
<asrwt>0</asrwt>
<pdfrwt beam="1">  1       21 0.99220450E-02 0.14108288E+03</pdfrwt>
<pdfrwt beam="2">  1        4 0.53522131E-01 0.14108288E+03</pdfrwt>
<totfact> 0.11378552E+04</totfact>
</mgrwt>
</event>
<event>
 6    4  0.6326233E-003  0.1307087E+03  0.7818608E-02  0.1226408E+00
         -4   -1    0    0    0  501 -0.00000000000E+00  0.00000000000E+00  0.52108611320E+03  0.52108766083E+03  0.12700000000E+01 0. -1.
         21   -1    0    0  501  502  0.00000000000E+00 -0.00000000000E+00 -0.19639747830E+02  0.19639747830E+02  0.00000000000E+00 0. -1.
         25    2    1    2    0    0 -0.88225290264E+01  0.37158062484E+02  0.47877346777E+03  0.49629508021E+03  0.12500485821E+03 0.  0.
    9000005    1    3    3    0    0  0.33654118298E+01  0.80982475886E+02  0.36214862660E+03  0.37110930350E+03  0.10000000000E+01 0.  0.
    9000005    1    3    3    0    0 -0.12187940856E+02 -0.43824413403E+02  0.11662484116E+03  0.12518577670E+03  0.10000000000E+01 0.  0.
         -4    1    1    2    0  502  0.88225290264E+01 -0.37158062484E+02  0.22672897602E+02  0.44432328452E+02  0.12700000000E+01 0.  1.
<mgrwt>
<rscale>  1 0.13070873E+03</rscale>
<asrwt>0</asrwt>
<pdfrwt beam="2">  1       21 0.30215001E-02 0.13070873E+03</pdfrwt>
<pdfrwt beam="1">  1       -4 0.80170361E-01 0.13070873E+03</pdfrwt>
<totfact> 0.35635561E+04</totfact>
</mgrwt>
</event>
<event>
 6    4  0.6326233E-003  0.1283144E+03  0.7818608E-02  0.1229979E+00
         21   -1    0    0  501  502  0.00000000000E+00  0.00000000000E+00  0.15488264986E+02  0.15488264986E+02  0.00000000000E+00 0.  1.
          4   -1    0    0  502    0 -0.00000000000E+00 -0.00000000000E+00 -0.51020614900E+03  0.51020772963E+03  0.12700000000E+01 0. -1.
         25    2    1    2    0    0 -0.18017368137E+02  0.22738907591E+02 -0.47110808013E+03  0.48826981111E+03  0.12499160691E+03 0.  0.
    9000005    1    3    3    0    0  0.95176233711E+01  0.40712742022E+02 -0.47103300757E+02  0.62990741064E+02  0.10000000000E+01 0.  0.
    9000005    1    3    3    0    0 -0.27534991508E+02 -0.17973834432E+02 -0.42400477938E+03  0.42527907004E+03  0.10000000000E+01 0.  0.
          4    1    1    2  501    0  0.18017368137E+02 -0.22738907591E+02 -0.23609803876E+02  0.37426183509E+02  0.12700000000E+01 0.  1.
<mgrwt>
<rscale>  1 0.12831440E+03</rscale>
<asrwt>0</asrwt>
<pdfrwt beam="1">  1       21 0.23828099E-02 0.12831440E+03</pdfrwt>
<pdfrwt beam="2">  1        4 0.78497385E-01 0.12831440E+03</pdfrwt>
<totfact> 0.54875121E+04</totfact>
</mgrwt>
</event>
<event>
 6    4  0.6326233E-003  0.1309033E+03  0.7818608E-02  0.1226122E+00
         -4   -1    0    0    0  501 -0.00000000000E+00  0.00000000000E+00  0.47514284444E+02  0.47531254204E+02  0.12700000000E+01 0.  1.
         21   -1    0    0  501  502  0.00000000000E+00 -0.00000000000E+00 -0.13180757010E+04  0.13180757010E+04  0.00000000000E+00 0. -1.
         25    2    1    2    0    0  0.74539525641E+01 -0.38145151555E+02 -0.43517921701E+02  0.13794740746E+03  0.12500025488E+03 0.  0.
    9000005    1    3    3    0    0  0.73239099987E+00  0.20470873823E+02  0.34495041689E+02  0.40131047492E+02  0.10000000000E+01 0.  0.
    9000005    1    3    3    0    0  0.67215615642E+01 -0.58616025378E+02 -0.78012963390E+02  0.97816359970E+02  0.10000000000E+01 0.  0.
         -4    1    1    2    0  502 -0.74539525641E+01  0.38145151555E+02 -0.12270434949E+04  0.12276595478E+04  0.12700000000E+01 0. -1.
<mgrwt>
<rscale>  1 0.13090331E+03</rscale>
<asrwt>0</asrwt>
<pdfrwt beam="2">  1       21 0.20278085E+00 0.13090331E+03</pdfrwt>
<pdfrwt beam="1">  1       -4 0.73112433E-02 0.13090331E+03</pdfrwt>
<totfact> 0.70664522E+02</totfact>
</mgrwt>
</event>
<event>
 6    4  0.6326233E-003  0.1364915E+03  0.7818608E-02  0.1218129E+00
         -4   -1    0    0    0  501 -0.00000000000E+00  0.00000000000E+00  0.83736147322E+03  0.83736243631E+03  0.12700000000E+01 0. -1.
         21   -1    0    0  501  502  0.00000000000E+00 -0.00000000000E+00 -0.24782152492E+02  0.24782152492E+02  0.00000000000E+00 0.  1.
         25    2    1    2    0    0 -0.36326915308E+02  0.41061966907E+02  0.79183543630E+03  0.80351309945E+03  0.12499685157E+03 0.  0.
    9000005    1    3    3    0    0  0.43467818310E+02  0.12839852144E+02  0.40474951299E+03  0.40728059284E+03  0.10000000000E+01 0.  0.
    9000005    1    3    3    0    0 -0.79794733618E+02  0.28222114762E+02  0.38708592331E+03  0.39623250662E+03  0.10000000000E+01 0.  0.
         -4    1    1    2    0  502  0.36326915308E+02 -0.41061966907E+02  0.20743884428E+02  0.58631489348E+02  0.12700000000E+01 0.  1.
<mgrwt>
<rscale>  1 0.13649155E+03</rscale>
<asrwt>0</asrwt>
<pdfrwt beam="2">  1       21 0.38126395E-02 0.13649155E+03</pdfrwt>
<pdfrwt beam="1">  1       -4 0.12882740E+00 0.13649155E+03</pdfrwt>
<totfact> 0.81130274E+03</totfact>
</mgrwt>
</event>
<event>
 6    4  0.6326233E-003  0.1369712E+03  0.7818608E-02  0.1217464E+00
         21   -1    0    0  501  502  0.00000000000E+00  0.00000000000E+00  0.22263080397E+03  0.22263080397E+03  0.00000000000E+00 0. -1.
          4   -1    0    0  502    0 -0.00000000000E+00 -0.00000000000E+00 -0.12406065472E+03  0.12406715500E+03  0.12700000000E+01 0.  1.
         25    2    1    2    0    0  0.55996370737E+02  0.12869972322E+01 -0.80631899653E+02  0.15894216777E+03  0.12499543814E+03 0.  0.
    9000005    1    3    3    0    0 -0.23135725003E+02 -0.31681109497E+02 -0.58427069770E+02  0.70382362509E+02  0.10000000000E+01 0.  0.
    9000005    1    3    3    0    0  0.79132095739E+02  0.32968106730E+02 -0.22204829883E+02  0.88559805259E+02  0.10000000000E+01 0.  0.
          4    1    1    2  501    0 -0.55996370737E+02 -0.12869972322E+01  0.17920204890E+03  0.18775579120E+03  0.12700000000E+01 0. -1.
<mgrwt>
<rscale>  1 0.13697120E+03</rscale>
<asrwt>0</asrwt>
<pdfrwt beam="1">  1       21 0.34250893E-01 0.13697120E+03</pdfrwt>
<pdfrwt beam="2">  1        4 0.19087033E-01 0.13697120E+03</pdfrwt>
<totfact> 0.83023687E+03</totfact>
</mgrwt>
</event>
<event>
 6    4  0.6326233E-003  0.1767259E+03  0.7818608E-02  0.1171010E+00
         21   -1    0    0  501  502  0.00000000000E+00  0.00000000000E+00  0.14426510932E+03  0.14426510932E+03  0.00000000000E+00 0. -1.
          4   -1    0    0  502    0 -0.00000000000E+00 -0.00000000000E+00 -0.42991344177E+03  0.42991531760E+03  0.12700000000E+01 0.  1.
         25    2    1    2    0    0 -0.12177837354E+03 -0.27885652802E+02 -0.37902758159E+03  0.41820325243E+03  0.12499788335E+03 0.  0.
    9000005    1    3    3    0    0 -0.14526112484E+03 -0.35136074591E+02 -0.29572497954E+03  0.33134513977E+03  0.10000000000E+01 0.  0.
    9000005    1    3    3    0    0  0.23482751308E+02  0.72504217886E+01 -0.83302602054E+02  0.86858112655E+02  0.10000000000E+01 0.  0.
          4    1    1    2  501    0  0.12177837354E+03  0.27885652802E+02  0.93379249148E+02  0.15597717450E+03  0.12700000000E+01 0. -1.
<mgrwt>
<rscale>  1 0.17672593E+03</rscale>
<asrwt>0</asrwt>
<pdfrwt beam="1">  1       21 0.22194632E-01 0.17672593E+03</pdfrwt>
<pdfrwt beam="2">  1        4 0.66141103E-01 0.17672593E+03</pdfrwt>
<totfact> 0.17163435E+03</totfact>
</mgrwt>
</event>
<event>
 6    4  0.6326233E-003  0.1281823E+03  0.7818608E-02  0.1230178E+00
         -4   -1    0    0    0  501 -0.00000000000E+00  0.00000000000E+00  0.26162022464E+03  0.26162330714E+03  0.12700000000E+01 0. -1.
         21   -1    0    0  501  502  0.00000000000E+00 -0.00000000000E+00 -0.36158612777E+02  0.36158612777E+02  0.00000000000E+00 0. -1.
         25    2    1    2    0    0 -0.77064416622E+01  0.27315931699E+02  0.23510608517E+03  0.26777895118E+03  0.12500058418E+03 0.  0.
    9000005    1    3    3    0    0 -0.46799685534E+02  0.59811697050E+02  0.12107825721E+03  0.14292863268E+03  0.10000000000E+01 0.  0.
    9000005    1    3    3    0    0  0.39093243871E+02 -0.32495765351E+02  0.11402782796E+03  0.12485031850E+03  0.10000000000E+01 0.  0.
         -4    1    1    2    0  502  0.77064416622E+01 -0.27315931699E+02 -0.96444733048E+01  0.30002968737E+02  0.12700000000E+01 0.  1.
<mgrwt>
<rscale>  1 0.12818227E+03</rscale>
<asrwt>0</asrwt>
<pdfrwt beam="2">  1       21 0.55628637E-02 0.12818227E+03</pdfrwt>
<pdfrwt beam="1">  1       -4 0.40251217E-01 0.12818227E+03</pdfrwt>
<totfact> 0.54033413E+04</totfact>
</mgrwt>
</event>
<event>
 6    4  0.6326233E-003  0.1287354E+03  0.7818608E-02  0.1229344E+00
         21   -1    0    0  501  502  0.00000000000E+00  0.00000000000E+00  0.19188212128E+02  0.19188212128E+02  0.00000000000E+00 0. -1.
         -4   -1    0    0    0  501 -0.00000000000E+00 -0.00000000000E+00 -0.44542728214E+03  0.44542909264E+03  0.12700000000E+01 0.  1.
         25    2    1    2    0    0 -0.17948345166E+02 -0.25020164530E+02 -0.41009541742E+03  0.42982675798E+03  0.12499855501E+03 0.  0.
    9000005    1    3    3    0    0 -0.20047654417E+02 -0.36223220644E+01 -0.40765508870E+03  0.40816504138E+03  0.10000000000E+01 0.  0.
    9000005    1    3    3    0    0  0.20993092509E+01 -0.21397842466E+02 -0.24403287219E+01  0.21661716594E+02  0.10000000000E+01 0.  0.
         -4    1    1    2    0  502  0.17948345166E+02  0.25020164530E+02 -0.16143652587E+02  0.34790546793E+02  0.12700000000E+01 0. -1.
<mgrwt>
<rscale>  1 0.12873535E+03</rscale>
<asrwt>0</asrwt>
<pdfrwt beam="1">  1       21 0.29520326E-02 0.12873535E+03</pdfrwt>
<pdfrwt beam="2">  1       -4 0.68530648E-01 0.12873535E+03</pdfrwt>
<totfact> 0.51996185E+04</totfact>
</mgrwt>
</event>
<event>
 6    4  0.6326233E-003  0.1281824E+03  0.7818608E-02  0.1230178E+00
         21   -1    0    0  501  502  0.00000000000E+00  0.00000000000E+00  0.14369061042E+02  0.14369061042E+02  0.00000000000E+00 0. -1.
         -4   -1    0    0    0  501 -0.00000000000E+00 -0.00000000000E+00 -0.14237473464E+04  0.14237479128E+04  0.12700000000E+01 0.  1.
         25    2    1    2    0    0  0.10614324719E+02 -0.26329018984E+02 -0.14031924441E+04  0.14090350437E+04  0.12499935213E+03 0.  0.
    9000005    1    3    3    0    0 -0.49505073848E+01  0.39989014773E+02 -0.93953368713E+03  0.94039788285E+03  0.10000000000E+01 0.  0.
    9000005    1    3    3    0    0  0.15564832104E+02 -0.66318033757E+02 -0.46365875702E+03  0.46863716088E+03  0.10000000000E+01 0.  0.
         -4    1    1    2    0  502 -0.10614324719E+02  0.26329018984E+02 -0.61858412330E+01  0.29081930157E+02  0.12700000000E+01 0. -1.
<mgrwt>
<rscale>  1 0.12818237E+03</rscale>
<asrwt>0</asrwt>
<pdfrwt beam="1">  1       21 0.22106256E-02 0.12818237E+03</pdfrwt>
<pdfrwt beam="2">  1       -4 0.21904233E+00 0.12818237E+03</pdfrwt>
<totfact> 0.47787492E+03</totfact>
</mgrwt>
</event>
<event>
 6    4  0.6326233E-003  0.1367808E+03  0.7818608E-02  0.1217727E+00
         21   -1    0    0  501  502  0.00000000000E+00  0.00000000000E+00  0.56770790426E+02  0.56770790426E+02  0.00000000000E+00 0. -1.
          4   -1    0    0  502    0 -0.00000000000E+00 -0.00000000000E+00 -0.39037260827E+03  0.39037467411E+03  0.12700000000E+01 0.  1.
         25    2    1    2    0    0 -0.22267023740E+01 -0.55496800487E+02 -0.36038608972E+03  0.38546999788E+03  0.12499653009E+03 0.  0.
    9000005    1    3    3    0    0 -0.32193229901E+02 -0.72455325620E+02 -0.33045907117E+03  0.33983874997E+03  0.10000000000E+01 0.  0.
    9000005    1    3    3    0    0  0.29966527527E+02  0.16958525133E+02 -0.29927018552E+02  0.45631247913E+02  0.10000000000E+01 0.  0.
          4    1    1    2  501    0  0.22267023740E+01  0.55496800487E+02  0.26784271874E+02  0.61675466659E+02  0.12700000000E+01 0. -1.
<mgrwt>
<rscale>  1 0.13678079E+03</rscale>
<asrwt>0</asrwt>
<pdfrwt beam="1">  1       21 0.87339678E-02 0.13678079E+03</pdfrwt>
<pdfrwt beam="2">  1        4 0.60058576E-01 0.13678079E+03</pdfrwt>
<totfact> 0.11153084E+04</totfact>
</mgrwt>
</event>
<event>
 6    4  0.6326233E-003  0.1452682E+03  0.7818608E-02  0.1206411E+00
         -4   -1    0    0    0  501 -0.00000000000E+00  0.00000000000E+00  0.18166157725E+03  0.18166601650E+03  0.12700000000E+01 0.  1.
         21   -1    0    0  501  502  0.00000000000E+00 -0.00000000000E+00 -0.90696838644E+02  0.90696838644E+02  0.00000000000E+00 0. -1.
         25    2    1    2    0    0 -0.53241452740E+02  0.51382175224E+02  0.12430884299E+03  0.19119498947E+03  0.12501222074E+03 0.  0.
    9000005    1    3    3    0    0 -0.85794524942E+02  0.14823296477E+02  0.10978996992E+03  0.14012590097E+03  0.10000000000E+01 0.  0.
    9000005    1    3    3    0    0  0.32553072202E+02  0.36558878747E+02  0.14518873068E+02  0.51069088500E+02  0.10000000000E+01 0.  0.
         -4    1    1    2    0  502  0.53241452740E+02 -0.51382175224E+02 -0.33344104378E+02  0.81167865670E+02  0.12700000000E+01 0. -1.
<mgrwt>
<rscale>  1 0.14526815E+03</rscale>
<asrwt>0</asrwt>
<pdfrwt beam="2">  1       21 0.13953360E-01 0.14526815E+03</pdfrwt>
<pdfrwt beam="1">  1       -4 0.27948960E-01 0.14526815E+03</pdfrwt>
<totfact> 0.22305865E+04</totfact>
</mgrwt>
</event>
<event>
 6    4  0.6326233E-003  0.1317029E+03  0.7818608E-02  0.1224951E+00
         21   -1    0    0  501  502  0.00000000000E+00  0.00000000000E+00  0.79656460483E+02  0.79656460483E+02  0.00000000000E+00 0.  1.
         -4   -1    0    0    0  501 -0.00000000000E+00 -0.00000000000E+00 -0.11760386215E+03  0.11761071930E+03  0.12700000000E+01 0. -1.
         25    2    1    2    0    0 -0.15735131086E+02  0.38376043683E+02 -0.65864619074E+02  0.14725419140E+03  0.12500133503E+03 0.  0.
    9000005    1    3    3    0    0 -0.39870832811E+02  0.59380154611E+02 -0.84105955757E+02  0.11041058765E+03  0.10000000000E+01 0.  0.
    9000005    1    3    3    0    0  0.24135701725E+02 -0.21004110928E+02  0.18241336683E+02  0.36843603755E+02  0.10000000000E+01 0.  0.
         -4    1    1    2    0  502  0.15735131086E+02 -0.38376043683E+02  0.27917217402E+02  0.50012988379E+02  0.12700000000E+01 0.  1.
<mgrwt>
<rscale>  1 0.13170288E+03</rscale>
<asrwt>0</asrwt>
<pdfrwt beam="1">  1       21 0.12254840E-01 0.13170288E+03</pdfrwt>
<pdfrwt beam="2">  1       -4 0.18094208E-01 0.13170288E+03</pdfrwt>
<totfact> 0.61509730E+04</totfact>
</mgrwt>
</event>
<event>
 6    4  0.6326233E-003  0.1268979E+03  0.7818608E-02  0.1232133E+00
         21   -1    0    0  501  502  0.00000000000E+00  0.00000000000E+00  0.20577960799E+02  0.20577960799E+02  0.00000000000E+00 0.  1.
         -4   -1    0    0    0  501 -0.00000000000E+00 -0.00000000000E+00 -0.12903007821E+04  0.12903014071E+04  0.12700000000E+01 0. -1.
         25    2    1    2    0    0  0.69642488677E+01  0.20675362869E+02 -0.12803189602E+04  0.12865922838E+04  0.12500837411E+03 0.  0.
    9000005    1    3    3    0    0  0.64598314901E+02  0.17700723688E+01 -0.76181775600E+03  0.76455435961E+03  0.10000000000E+01 0.  0.
    9000005    1    3    3    0    0 -0.57634066033E+02  0.18905290500E+02 -0.51850120418E+03  0.52203792421E+03  0.10000000000E+01 0.  0.
         -4    1    1    2    0  502 -0.69642488677E+01 -0.20675362869E+02  0.10596138911E+02  0.24287084054E+02  0.12700000000E+01 0.  1.
<mgrwt>
<rscale>  1 0.12689785E+03</rscale>
<asrwt>0</asrwt>
<pdfrwt beam="1">  1       21 0.31658396E-02 0.12689785E+03</pdfrwt>
<pdfrwt beam="2">  1       -4 0.19851091E+00 0.12689785E+03</pdfrwt>
<totfact> 0.35434321E+03</totfact>
</mgrwt>
</event>
<event>
 6    4  0.6326233E-003  0.1269848E+03  0.7818608E-02  0.1232000E+00
          4   -1    0    0  502    0 -0.00000000000E+00  0.00000000000E+00  0.50515365838E+02  0.50531327766E+02  0.12700000000E+01 0.  1.
         21   -1    0    0  501  502  0.00000000000E+00 -0.00000000000E+00 -0.25884167834E+03  0.25884167834E+03  0.00000000000E+00 0. -1.
         25    2    1    2    0    0 -0.20554662797E+02 -0.85791472822E+01 -0.31086323895E+02  0.13073448173E+03  0.12501619594E+03 0.  0.
    9000005    1    3    3    0    0 -0.26383522828E+02 -0.62536068119E+02 -0.34887274054E+02  0.76321504070E+02  0.10000000000E+01 0.  0.
    9000005    1    3    3    0    0  0.58288600317E+01  0.53956920837E+02  0.38009501586E+01  0.54412977658E+02  0.10000000000E+01 0.  0.
          4    1    1    2  501    0  0.20554662797E+02  0.85791472822E+01 -0.17723998860E+03  0.17863852437E+03  0.12700000000E+01 0. -1.
<mgrwt>
<rscale>  1 0.12698482E+03</rscale>
<asrwt>0</asrwt>
<pdfrwt beam="2">  1       21 0.39821797E-01 0.12698482E+03</pdfrwt>
<pdfrwt beam="1">  1        4 0.77730622E-02 0.12698482E+03</pdfrwt>
<totfact> 0.28561119E+04</totfact>
</mgrwt>
</event>
<event>
 6    4  0.6326233E-003  0.1266602E+03  0.7818608E-02  0.1232497E+00
          4   -1    0    0  502    0 -0.00000000000E+00  0.00000000000E+00  0.15556467024E+03  0.15556985417E+03  0.12700000000E+01 0. -1.
         21   -1    0    0  501  502  0.00000000000E+00 -0.00000000000E+00 -0.61447125557E+02  0.61447125557E+02  0.00000000000E+00 0. -1.
         25    2    1    2    0    0  0.18242506574E+02 -0.92075285390E+01  0.12630251789E+03  0.17887182239E+03  0.12500094076E+03 0.  0.
    9000005    1    3    3    0    0 -0.22711721920E+02  0.47269128617E+02  0.31571487594E+02  0.61220516673E+02  0.10000000000E+01 0.  0.
    9000005    1    3    3    0    0  0.40954228494E+02 -0.56476657156E+02  0.94731030296E+02  0.11765130571E+03  0.10000000000E+01 0.  0.
          4    1    1    2  501    0 -0.18242506574E+02  0.92075285390E+01 -0.32184973210E+02  0.38145157339E+02  0.12700000000E+01 0.  1.
<mgrwt>
<rscale>  1 0.12666019E+03</rscale>
<asrwt>0</asrwt>
<pdfrwt beam="2">  1       21 0.94534040E-02 0.12666019E+03</pdfrwt>
<pdfrwt beam="1">  1        4 0.23934434E-01 0.12666019E+03</pdfrwt>
<totfact> 0.58287973E+04</totfact>
</mgrwt>
</event>
<event>
 6    4  0.6326233E-003  0.1268868E+03  0.7818608E-02  0.1232150E+00
         -4   -1    0    0    0  501 -0.00000000000E+00  0.00000000000E+00  0.12097367548E+03  0.12098034162E+03  0.12700000000E+01 0.  1.
         21   -1    0    0  501  502  0.00000000000E+00 -0.00000000000E+00 -0.47286839506E+02  0.47286839506E+02  0.00000000000E+00 0.  1.
         25    2    1    2    0    0  0.21777848756E+02 -0.12744103506E+01  0.73036358857E+02  0.14640546028E+03  0.12499740104E+03 0.  0.
    9000005    1    3    3    0    0  0.11809442638E+02  0.44639453235E+02  0.86033720206E+02  0.97647041599E+02  0.10000000000E+01 0.  0.
    9000005    1    3    3    0    0  0.99684061172E+01 -0.45913863586E+02 -0.12997361349E+02  0.48758418678E+02  0.10000000000E+01 0.  0.
         -4    1    1    2    0  502 -0.21777848756E+02  0.12744103506E+01  0.65047711848E+00  0.21861720853E+02  0.12700000000E+01 0. -1.
<mgrwt>
<rscale>  1 0.12688676E+03</rscale>
<asrwt>0</asrwt>
<pdfrwt beam="2">  1       21 0.72748985E-02 0.12688676E+03</pdfrwt>
<pdfrwt beam="1">  1       -4 0.18613159E-01 0.12688676E+03</pdfrwt>
<totfact> 0.14440716E+05</totfact>
</mgrwt>
</event>
<event>
 6    4  0.6326233E-003  0.1308559E+03  0.7818608E-02  0.1226191E+00
          4   -1    0    0  502    0 -0.00000000000E+00  0.00000000000E+00  0.20712594639E+03  0.20712983988E+03  0.12700000000E+01 0. -1.
         21   -1    0    0  501  502  0.00000000000E+00 -0.00000000000E+00 -0.43413072991E+02  0.43413072991E+02  0.00000000000E+00 0.  1.
         25    2    1    2    0    0 -0.28889437534E+02  0.25778337982E+02  0.16642518385E+03  0.21170875473E+03  0.12499653076E+03 0.  0.
    9000005    1    3    3    0    0 -0.80665596499E+01 -0.30481688255E+02 -0.32732000726E+01  0.31716187384E+02  0.10000000000E+01 0.  0.
    9000005    1    3    3    0    0 -0.20822877884E+02  0.56260026237E+02  0.16969838392E+03  0.17999256735E+03  0.10000000000E+01 0.  0.
          4    1    1    2  501    0  0.28889437534E+02 -0.25778337982E+02 -0.27123104497E+01  0.38834158136E+02  0.12700000000E+01 0.  1.
<mgrwt>
<rscale>  1 0.13085586E+03</rscale>
<asrwt>0</asrwt>
<pdfrwt beam="2">  1       21 0.66789345E-02 0.13085586E+03</pdfrwt>
<pdfrwt beam="1">  1        4 0.31867258E-01 0.13085586E+03</pdfrwt>
<totfact> 0.62420930E+04</totfact>
</mgrwt>
</event>
<event>
 6    4  0.6326233E-003  0.1303015E+03  0.7818608E-02  0.1227009E+00
         21   -1    0    0  501  502  0.00000000000E+00  0.00000000000E+00  0.68116421669E+02  0.68116421669E+02  0.00000000000E+00 0. -1.
         -4   -1    0    0    0  501 -0.00000000000E+00 -0.00000000000E+00 -0.10251979581E+03  0.10252766180E+03  0.12700000000E+01 0.  1.
         25    2    1    2    0    0  0.36442414823E+02 -0.49960132622E+01 -0.28236273751E+02  0.13332578000E+03  0.12500186683E+03 0.  0.
    9000005    1    3    3    0    0 -0.16500582342E+02  0.47171821844E+02 -0.31218687874E+02  0.58932643469E+02  0.10000000000E+01 0.  0.
    9000005    1    3    3    0    0  0.52942997165E+02 -0.52167835106E+02  0.29824141234E+01  0.74393136528E+02  0.10000000000E+01 0.  0.
         -4    1    1    2    0  502 -0.36442414823E+02  0.49960132622E+01 -0.61671003943E+01  0.37318303470E+02  0.12700000000E+01 0. -1.
<mgrwt>
<rscale>  1 0.13030148E+03</rscale>
<asrwt>0</asrwt>
<pdfrwt beam="1">  1       21 0.10479450E-01 0.13030148E+03</pdfrwt>
<pdfrwt beam="2">  1       -4 0.15773792E-01 0.13030148E+03</pdfrwt>
<totfact> 0.10315777E+05</totfact>
</mgrwt>
</event>
<event>
 6    4  0.6326233E-003  0.1272287E+03  0.7818608E-02  0.1231627E+00
         21   -1    0    0  501  502  0.00000000000E+00  0.00000000000E+00  0.23493723578E+02  0.23493723578E+02  0.00000000000E+00 0.  1.
         -4   -1    0    0    0  501 -0.00000000000E+00 -0.00000000000E+00 -0.91996730526E+03  0.91996818187E+03  0.12700000000E+01 0. -1.
         25    2    1    2    0    0  0.23555685030E+02  0.26611932769E+01 -0.90814117154E+03  0.91701010400E+03  0.12500076456E+03 0.  0.
    9000005    1    3    3    0    0 -0.21862598431E+02  0.52168793050E+02 -0.52307732515E+03  0.52612778321E+03  0.10000000000E+01 0.  0.
    9000005    1    3    3    0    0  0.45418283461E+02 -0.49507599773E+02 -0.38506384639E+03  0.39088232079E+03  0.10000000000E+01 0.  0.
         -4    1    1    2    0  502 -0.23555685030E+02 -0.26611932769E+01  0.11667589856E+02  0.26451801450E+02  0.12700000000E+01 0.  1.
<mgrwt>
<rscale>  1 0.12722871E+03</rscale>
<asrwt>0</asrwt>
<pdfrwt beam="1">  1       21 0.36144195E-02 0.12722871E+03</pdfrwt>
<pdfrwt beam="2">  1       -4 0.14153612E+00 0.12722871E+03</pdfrwt>
<totfact> 0.69836992E+03</totfact>
</mgrwt>
</event>
<event>
 6    4  0.6326233E-003  0.1277625E+03  0.7818608E-02  0.1230814E+00
         -4   -1    0    0    0  501 -0.00000000000E+00  0.00000000000E+00  0.42750957209E+03  0.42751145848E+03  0.12700000000E+01 0.  1.
         21   -1    0    0  501  502  0.00000000000E+00 -0.00000000000E+00 -0.17583978365E+02  0.17583978365E+02  0.00000000000E+00 0. -1.
         25    2    1    2    0    0  0.21407836324E+02 -0.15450291589E+02  0.39409137497E+03  0.41428403717E+03  0.12500497854E+03 0.  0.
    9000005    1    3    3    0    0 -0.40030703613E+02 -0.22545065195E+02  0.66058117745E+02  0.80469945423E+02  0.10000000000E+01 0.  0.
    9000005    1    3    3    0    0  0.61438539937E+02  0.70947736058E+01  0.32803325722E+03  0.33381409175E+03  0.10000000000E+01 0.  0.
         -4    1    1    2    0  502 -0.21407836324E+02  0.15450291589E+02  0.15834218755E+02  0.30811399674E+02  0.12700000000E+01 0. -1.
<mgrwt>
<rscale>  1 0.12776248E+03</rscale>
<asrwt>0</asrwt>
<pdfrwt beam="2">  1       21 0.27052278E-02 0.12776248E+03</pdfrwt>
<pdfrwt beam="1">  1       -4 0.65774368E-01 0.12776248E+03</pdfrwt>
<totfact> 0.65412225E+04</totfact>
</mgrwt>
</event>
<event>
 6    4  0.6326233E-003  0.1270783E+03  0.7818608E-02  0.1231857E+00
         21   -1    0    0  501  502  0.00000000000E+00  0.00000000000E+00  0.74331220043E+01  0.74331220043E+01  0.00000000000E+00 0.  1.
          4   -1    0    0  502    0 -0.00000000000E+00 -0.00000000000E+00 -0.80982959546E+03  0.80983059129E+03  0.12700000000E+01 0.  1.
         25    2    1    2    0    0  0.16576707628E+02 -0.15832335604E+02 -0.58413299196E+03  0.59779615226E+03  0.12499374898E+03 0.  0.
    9000005    1    3    3    0    0  0.19749307956E+02  0.20883851190E+02 -0.27011487733E+02  0.39456189309E+02  0.10000000000E+01 0.  0.
    9000005    1    3    3    0    0 -0.31726003277E+01 -0.36716186794E+02 -0.55712150422E+03  0.55833996296E+03  0.10000000000E+01 0.  0.
          4    1    1    2  501    0 -0.16576707628E+02  0.15832335604E+02 -0.21826348150E+03  0.21946756103E+03  0.12700000000E+01 0. -1.
<mgrwt>
<rscale>  1 0.12707827E+03</rscale>
<asrwt>0</asrwt>
<pdfrwt beam="1">  1       21 0.11435584E-02 0.12707827E+03</pdfrwt>
<pdfrwt beam="2">  1        4 0.12459746E+00 0.12707827E+03</pdfrwt>
<totfact> 0.61279824E+04</totfact>
</mgrwt>
</event>
<event>
 6    4  0.6326233E-003  0.1278255E+03  0.7818608E-02  0.1230718E+00
         21   -1    0    0  501  502  0.00000000000E+00  0.00000000000E+00  0.18163237719E+02  0.18163237719E+02  0.00000000000E+00 0. -1.
          4   -1    0    0  502    0 -0.00000000000E+00 -0.00000000000E+00 -0.61753493095E+03  0.61753623686E+03  0.12700000000E+01 0.  1.
         25    2    1    2    0    0  0.99668810603E+01  0.24797306948E+02 -0.59501648586E+03  0.60859180259E+03  0.12500047432E+03 0.  0.
    9000005    1    3    3    0    0 -0.28700879880E+02  0.65092434367E+02 -0.36710224666E+03  0.37393291514E+03  0.10000000000E+01 0.  0.
    9000005    1    3    3    0    0  0.38667760941E+02 -0.40295127419E+02 -0.22791423920E+03  0.23465888745E+03  0.10000000000E+01 0.  0.
          4    1    1    2  501    0 -0.99668810603E+01 -0.24797306948E+02 -0.43552073700E+01  0.27107671998E+02  0.12700000000E+01 0. -1.
<mgrwt>
<rscale>  1 0.12782552E+03</rscale>
<asrwt>0</asrwt>
<pdfrwt beam="1">  1       21 0.27943442E-02 0.12782552E+03</pdfrwt>
<pdfrwt beam="2">  1        4 0.95008892E-01 0.12782552E+03</pdfrwt>
<totfact> 0.27589604E+04</totfact>
</mgrwt>
</event>
<event>
 6    4  0.6326233E-003  0.1290782E+03  0.7818608E-02  0.1228830E+00
          4   -1    0    0  502    0 -0.00000000000E+00  0.00000000000E+00  0.12506044760E+03  0.12506689591E+03  0.12700000000E+01 0. -1.
         21   -1    0    0  501  502  0.00000000000E+00 -0.00000000000E+00 -0.72670342197E+02  0.72670342197E+02  0.00000000000E+00 0.  1.
         25    2    1    2    0    0 -0.96715149363E+00  0.32144639861E+02  0.82886451476E+02  0.15339929411E+03  0.12500786512E+03 0.  0.
    9000005    1    3    3    0    0  0.41249902685E+02  0.45063406919E+02  0.18702786018E+01  0.61129068836E+02  0.10000000000E+01 0.  0.
    9000005    1    3    3    0    0 -0.42217054178E+02 -0.12918767059E+02  0.81016172874E+02  0.92270225279E+02  0.10000000000E+01 0.  0.
          4    1    1    2  501    0  0.96715149363E+00 -0.32144639861E+02 -0.30496346075E+02  0.44337943995E+02  0.12700000000E+01 0.  1.
<mgrwt>
<rscale>  1 0.12907819E+03</rscale>
<asrwt>0</asrwt>
<pdfrwt beam="2">  1       21 0.11180053E-01 0.12907819E+03</pdfrwt>
<pdfrwt beam="1">  1        4 0.19241419E-01 0.12907819E+03</pdfrwt>
<totfact> 0.64667150E+04</totfact>
</mgrwt>
</event>
<event>
 6    4  0.6326233E-003  0.1526933E+03  0.7818608E-02  0.1197202E+00
         21   -1    0    0  501  502  0.00000000000E+00  0.00000000000E+00  0.47883135210E+03  0.47883135210E+03  0.00000000000E+00 0.  1.
         -4   -1    0    0    0  501 -0.00000000000E+00 -0.00000000000E+00 -0.36595947391E+02  0.36617977354E+02  0.12700000000E+01 0. -1.
         25    2    1    2    0    0  0.26948431550E+02 -0.83428631558E+02  0.16560779204E+03  0.22525800719E+03  0.12501469711E+03 0.  0.
    9000005    1    3    3    0    0 -0.47489938603E+02 -0.51013430576E+02  0.93805566733E+02  0.11686808254E+03  0.10000000000E+01 0.  0.
    9000005    1    3    3    0    0  0.74438370153E+02 -0.32415200982E+02  0.71802225311E+02  0.10838992465E+03  0.10000000000E+01 0.  0.
         -4    1    1    2    0  502 -0.26948431550E+02  0.83428631558E+02  0.27662761267E+03  0.29019132226E+03  0.12700000000E+01 0.  1.
<mgrwt>
<rscale>  1 0.15269325E+03</rscale>
<asrwt>0</asrwt>
<pdfrwt beam="1">  1       21 0.73666357E-01 0.15269325E+03</pdfrwt>
<pdfrwt beam="2">  1       -4 0.56319703E-02 0.15269325E+03</pdfrwt>
<totfact> 0.13533294E+04</totfact>
</mgrwt>
</event>
<event>
 6    4  0.6326233E-003  0.1269870E+03  0.7818608E-02  0.1231996E+00
         -4   -1    0    0    0  501 -0.00000000000E+00  0.00000000000E+00  0.18186855625E+02  0.18231144164E+02  0.12700000000E+01 0. -1.
         21   -1    0    0  501  502  0.00000000000E+00 -0.00000000000E+00 -0.47752686634E+03  0.47752686634E+03  0.00000000000E+00 0.  1.
         25    2    1    2    0    0 -0.11708478473E+02  0.19070116176E+02 -0.20997609006E+03  0.24538881187E+03  0.12499981118E+03 0.  0.
    9000005    1    3    3    0    0  0.25266492340E+02 -0.45227214185E+02 -0.10172419606E+03  0.11416088911E+03  0.10000000000E+01 0.  0.
    9000005    1    3    3    0    0 -0.36974970812E+02  0.64297330361E+02 -0.10825189400E+03  0.13122792276E+03  0.10000000000E+01 0.  0.
         -4    1    1    2    0  502  0.11708478473E+02 -0.19070116176E+02 -0.24936392065E+03  0.25036919863E+03  0.12700000000E+01 0.  1.
<mgrwt>
<rscale>  1 0.12698705E+03</rscale>
<asrwt>0</asrwt>
<pdfrwt beam="2">  1       21 0.73465663E-01 0.12698705E+03</pdfrwt>
<pdfrwt beam="1">  1       -4 0.28015148E-02 0.12698705E+03</pdfrwt>
<totfact> 0.40677491E+04</totfact>
</mgrwt>
</event>
<event>
 6    4  0.6326233E-003  0.1295389E+03  0.7818608E-02  0.1228142E+00
         21   -1    0    0  501  502  0.00000000000E+00  0.00000000000E+00  0.21379848197E+02  0.21379848197E+02  0.00000000000E+00 0. -1.
          4   -1    0    0  502    0 -0.00000000000E+00 -0.00000000000E+00 -0.11468151743E+04  0.11468158775E+04  0.12700000000E+01 0.  1.
         25    2    1    2    0    0  0.28966317519E+02 -0.17799249971E+02 -0.11267274917E+04  0.11341495300E+04  0.12499781943E+03 0.  0.
    9000005    1    3    3    0    0  0.58138905940E+02 -0.18081141380E+02 -0.10543515130E+04  0.10561085044E+04  0.10000000000E+01 0.  0.
    9000005    1    3    3    0    0 -0.29172588422E+02  0.28189140943E+00 -0.72375978713E+02  0.78041025574E+02  0.10000000000E+01 0.  0.
          4    1    1    2  501    0 -0.28966317519E+02  0.17799249971E+02  0.12921656534E+01  0.34046195708E+02  0.12700000000E+01 0. -1.
<mgrwt>
<rscale>  1 0.12953886E+03</rscale>
<asrwt>0</asrwt>
<pdfrwt beam="1">  1       21 0.32892069E-02 0.12953886E+03</pdfrwt>
<pdfrwt beam="2">  1        4 0.17643609E+00 0.12953886E+03</pdfrwt>
<totfact> 0.46161165E+03</totfact>
</mgrwt>
</event>
<event>
 6    4  0.6326233E-003  0.1317333E+03  0.7818608E-02  0.1224906E+00
         21   -1    0    0  501  502  0.00000000000E+00  0.00000000000E+00  0.33154680902E+03  0.33154680902E+03  0.00000000000E+00 0. -1.
         -4   -1    0    0    0  501 -0.00000000000E+00 -0.00000000000E+00 -0.76197436276E+02  0.76208019231E+02  0.12700000000E+01 0.  1.
         25    2    1    2    0    0 -0.16166667040E+02  0.38279510599E+02 -0.16484241138E+02  0.13276063087E+03  0.12500789115E+03 0.  0.
    9000005    1    3    3    0    0 -0.56067361732E+02 -0.18872234325E+02  0.61092009716E+01  0.59481363607E+02  0.10000000000E+01 0.  0.
    9000005    1    3    3    0    0  0.39900694692E+02  0.57151744924E+02 -0.22593442110E+02  0.73279267266E+02  0.10000000000E+01 0.  0.
         -4    1    1    2    0  502  0.16166667040E+02 -0.38279510599E+02  0.27183361388E+03  0.27499419738E+03  0.12700000000E+01 0. -1.
<mgrwt>
<rscale>  1 0.13173327E+03</rscale>
<asrwt>0</asrwt>
<pdfrwt beam="1">  1       21 0.51007201E-01 0.13173327E+03</pdfrwt>
<pdfrwt beam="2">  1       -4 0.11723684E-01 0.13173327E+03</pdfrwt>
<totfact> 0.86940684E+03</totfact>
</mgrwt>
</event>
<event>
 6    4  0.6326233E-003  0.1311050E+03  0.7818608E-02  0.1225825E+00
         21   -1    0    0  501  502  0.00000000000E+00  0.00000000000E+00  0.20511510403E+02  0.20511510403E+02  0.00000000000E+00 0. -1.
          4   -1    0    0  502    0 -0.00000000000E+00 -0.00000000000E+00 -0.36476730528E+03  0.36476951613E+03  0.12700000000E+01 0.  1.
         25    2    1    2    0    0 -0.36836811983E+02 -0.14365343562E+02 -0.28875817048E+03  0.31712742776E+03  0.12500084242E+03 0.  0.
    9000005    1    3    3    0    0  0.19553129052E+00  0.59485194061E+01 -0.27137371097E+03  0.27144081145E+03  0.10000000000E+01 0.  0.
    9000005    1    3    3    0    0 -0.37032343274E+02 -0.20313862968E+02 -0.17384459507E+02  0.45686616305E+02  0.10000000000E+01 0.  0.
          4    1    1    2  501    0  0.36836811983E+02  0.14365343562E+02 -0.55497624395E+02  0.68153598777E+02  0.12700000000E+01 0. -1.
<mgrwt>
<rscale>  1 0.13110501E+03</rscale>
<asrwt>0</asrwt>
<pdfrwt beam="1">  1       21 0.31556171E-02 0.13110501E+03</pdfrwt>
<pdfrwt beam="2">  1        4 0.56121240E-01 0.13110501E+03</pdfrwt>
<totfact> 0.71219953E+04</totfact>
</mgrwt>
</event>
<event>
 6    4  0.6326233E-003  0.1266098E+03  0.7818608E-02  0.1232575E+00
         -4   -1    0    0    0  501 -0.00000000000E+00  0.00000000000E+00  0.26501680729E+03  0.26501985029E+03  0.12700000000E+01 0. -1.
         21   -1    0    0  501  502  0.00000000000E+00 -0.00000000000E+00 -0.23480642675E+02  0.23480642675E+02  0.00000000000E+00 0. -1.
         25    2    1    2    0    0  0.19403798727E+02 -0.53700087468E+01  0.23561213681E+03  0.26747547443E+03  0.12499882403E+03 0.  0.
    9000005    1    3    3    0    0  0.55921839483E+02 -0.38488600652E+02  0.83776534556E+02  0.10783381776E+03  0.10000000000E+01 0.  0.
    9000005    1    3    3    0    0 -0.36518040757E+02  0.33118591905E+02  0.15183560225E+03  0.15964165666E+03  0.10000000000E+01 0.  0.
         -4    1    1    2    0  502 -0.19403798727E+02  0.53700087468E+01  0.59240278049E+01  0.21025018535E+02  0.12700000000E+01 0.  1.
<mgrwt>
<rscale>  1 0.12660984E+03</rscale>
<asrwt>0</asrwt>
<pdfrwt beam="2">  1       21 0.36124068E-02 0.12660984E+03</pdfrwt>
<pdfrwt beam="1">  1       -4 0.40774690E-01 0.12660984E+03</pdfrwt>
<totfact> 0.10814198E+05</totfact>
</mgrwt>
</event>
<event>
 6    4  0.6326233E-003  0.1294544E+03  0.7818608E-02  0.1228268E+00
         21   -1    0    0  501  502  0.00000000000E+00  0.00000000000E+00  0.18733982737E+02  0.18733982737E+02  0.00000000000E+00 0. -1.
          4   -1    0    0  502    0 -0.00000000000E+00 -0.00000000000E+00 -0.36085215921E+03  0.36085439405E+03  0.12700000000E+01 0. -1.
         25    2    1    2    0    0 -0.33117199009E+02  0.60888101169E+01 -0.28921234626E+03  0.31686308485E+03  0.12499844331E+03 0.  0.
    9000005    1    3    3    0    0 -0.60467489198E+02 -0.24262982308E+02 -0.25611155393E+03  0.26427095492E+03  0.10000000000E+01 0.  0.
    9000005    1    3    3    0    0  0.27350290189E+02  0.30351792425E+02 -0.33100792335E+02  0.52592129925E+02  0.10000000000E+01 0.  0.
          4    1    1    2  501    0  0.33117199009E+02 -0.60888101169E+01 -0.52905830208E+02  0.62725291939E+02  0.12700000000E+01 0.  1.
<mgrwt>
<rscale>  1 0.12945437E+03</rscale>
<asrwt>0</asrwt>
<pdfrwt beam="1">  1       21 0.28821511E-02 0.12945437E+03</pdfrwt>
<pdfrwt beam="2">  1        4 0.55519201E-01 0.12945437E+03</pdfrwt>
<totfact> 0.84355061E+04</totfact>
</mgrwt>
</event>
<event>
 6    4  0.6326233E-003  0.1277500E+03  0.7818608E-02  0.1230833E+00
          4   -1    0    0  502    0 -0.00000000000E+00  0.00000000000E+00  0.58025935061E+02  0.58039831493E+02  0.12700000000E+01 0.  1.
         21   -1    0    0  501  502  0.00000000000E+00 -0.00000000000E+00 -0.30655530039E+03  0.30655530039E+03  0.00000000000E+00 0. -1.
         25    2    1    2    0    0 -0.15829504702E+02 -0.21072147361E+02 -0.13919473065E+02  0.12850611676E+03  0.12500184679E+03 0.  0.
    9000005    1    3    3    0    0  0.28338903474E+02 -0.60444149222E+02 -0.18117402813E+02  0.69179685674E+02  0.10000000000E+01 0.  0.
    9000005    1    3    3    0    0 -0.44168408175E+02  0.39372001861E+02  0.41979297480E+01  0.59326431086E+02  0.10000000000E+01 0.  0.
          4    1    1    2  501    0  0.15829504702E+02  0.21072147361E+02 -0.23460989226E+03  0.23608901512E+03  0.12700000000E+01 0. -1.
<mgrwt>
<rscale>  1 0.12775003E+03</rscale>
<asrwt>0</asrwt>
<pdfrwt beam="2">  1       21 0.47162354E-01 0.12775003E+03</pdfrwt>
<pdfrwt beam="1">  1        4 0.89283382E-02 0.12775003E+03</pdfrwt>
<totfact> 0.16132210E+04</totfact>
</mgrwt>
</event>
<event>
 6    4  0.6326233E-003  0.1266076E+03  0.7818608E-02  0.1232578E+00
         21   -1    0    0  501  502  0.00000000000E+00  0.00000000000E+00  0.44759919577E+03  0.44759919577E+03  0.00000000000E+00 0. -1.
         -4   -1    0    0    0  501 -0.00000000000E+00 -0.00000000000E+00 -0.20336843694E+02  0.20376459738E+02  0.12700000000E+01 0.  1.
         25    2    1    2    0    0 -0.17220513053E+02 -0.10611756960E+02  0.18102805537E+03  0.22090866615E+03  0.12498130458E+03 0.  0.
    9000005    1    3    3    0    0  0.24302162899E+02 -0.72169007017E+01 -0.85743357279E+01  0.26780552841E+02  0.10000000000E+01 0.  0.
    9000005    1    3    3    0    0 -0.41522675952E+02 -0.33948562581E+01  0.18960239110E+03  0.19412811331E+03  0.10000000000E+01 0.  0.
         -4    1    1    2    0  502  0.17220513053E+02  0.10611756960E+02  0.24623429670E+03  0.24706698935E+03  0.12700000000E+01 0. -1.
<mgrwt>
<rscale>  1 0.12660759E+03</rscale>
<asrwt>0</asrwt>
<pdfrwt beam="1">  1       21 0.68861407E-01 0.12660759E+03</pdfrwt>
<pdfrwt beam="2">  1       -4 0.31319315E-02 0.12660759E+03</pdfrwt>
<totfact> 0.39350750E+04</totfact>
</mgrwt>
</event>
<event>
 6    4  0.6326233E-003  0.1266693E+03  0.7818608E-02  0.1232483E+00
         -4   -1    0    0    0  501 -0.00000000000E+00  0.00000000000E+00  0.71767390013E+02  0.71778626131E+02  0.12700000000E+01 0.  1.
         21   -1    0    0  501  502  0.00000000000E+00 -0.00000000000E+00 -0.75610010877E+02  0.75610010877E+02  0.00000000000E+00 0.  1.
         25    2    1    2    0    0  0.17268965550E+02 -0.11017937405E+02 -0.55743424365E+01  0.12679194127E+03  0.12500204383E+03 0.  0.
    9000005    1    3    3    0    0  0.10939765788E+01  0.18263283513E+02  0.54789115510E+02  0.57771891848E+02  0.10000000000E+01 0.  0.
    9000005    1    3    3    0    0  0.16174988971E+02 -0.29281220918E+02 -0.60363457946E+02  0.69020049420E+02  0.10000000000E+01 0.  0.
         -4    1    1    2    0  502 -0.17268965550E+02  0.11017937405E+02  0.17317215726E+01  0.20596695741E+02  0.12700000000E+01 0. -1.
<mgrwt>
<rscale>  1 0.12666935E+03</rscale>
<asrwt>0</asrwt>
<pdfrwt beam="2">  1       21 0.11632309E-01 0.12666935E+03</pdfrwt>
<pdfrwt beam="1">  1       -4 0.11042822E-01 0.12666935E+03</pdfrwt>
<totfact> 0.15804391E+05</totfact>
</mgrwt>
</event>
<event>
 6    4  0.6326233E-003  0.1284092E+03  0.7818608E-02  0.1229835E+00
         21   -1    0    0  501  502  0.00000000000E+00  0.00000000000E+00  0.11371722300E+02  0.11371722300E+02  0.00000000000E+00 0. -1.
          4   -1    0    0  502    0 -0.00000000000E+00 -0.00000000000E+00 -0.55041069723E+03  0.55041216240E+03  0.12700000000E+01 0. -1.
         25    2    1    2    0    0 -0.27270292740E+02 -0.11091366753E+02 -0.45240739015E+03  0.47027797416E+03  0.12498895567E+03 0.  0.
    9000005    1    3    3    0    0 -0.20403498832E+02  0.20701340058E+02 -0.42949754556E+03  0.43048111444E+03  0.10000000000E+01 0.  0.
    9000005    1    3    3    0    0 -0.68667939081E+01 -0.31792706811E+02 -0.22909844585E+02  0.39796859723E+02  0.10000000000E+01 0.  0.
          4    1    1    2  501    0  0.27270292740E+02  0.11091366753E+02 -0.86631584780E+02  0.91505910542E+02  0.12700000000E+01 0.  1.
<mgrwt>
<rscale>  1 0.12840921E+03</rscale>
<asrwt>0</asrwt>
<pdfrwt beam="1">  1       21 0.17494958E-02 0.12840921E+03</pdfrwt>
<pdfrwt beam="2">  1        4 0.84684133E-01 0.12840921E+03</pdfrwt>
<totfact> 0.76397659E+04</totfact>
</mgrwt>
</event>
<event>
 6    4  0.6326233E-003  0.1275507E+03  0.7818608E-02  0.1231136E+00
         21   -1    0    0  501  502  0.00000000000E+00  0.00000000000E+00  0.17598149634E+03  0.17598149634E+03  0.00000000000E+00 0. -1.
          4   -1    0    0  502    0 -0.00000000000E+00 -0.00000000000E+00 -0.37763591119E+02  0.37784940310E+02  0.12700000000E+01 0.  1.
         25    2    1    2    0    0 -0.13793796573E+02 -0.21323913280E+02  0.80851694759E+02  0.15101714897E+03  0.12499681850E+03 0.  0.
    9000005    1    3    3    0    0  0.36748774187E+02  0.30572560337E+02  0.83790564329E+01  0.48542377739E+02  0.10000000000E+01 0.  0.
    9000005    1    3    3    0    0 -0.50542570761E+02 -0.51896473617E+02  0.72472638326E+02  0.10247477123E+03  0.10000000000E+01 0.  0.
          4    1    1    2  501    0  0.13793796573E+02  0.21323913280E+02  0.57366210462E+02  0.62749287680E+02  0.12700000000E+01 0. -1.
<mgrwt>
<rscale>  1 0.12755071E+03</rscale>
<asrwt>0</asrwt>
<pdfrwt beam="1">  1       21 0.27074076E-01 0.12755071E+03</pdfrwt>
<pdfrwt beam="2">  1        4 0.58117781E-02 0.12755071E+03</pdfrwt>
<totfact> 0.97533012E+04</totfact>
</mgrwt>
</event>
<event>
 6    4  0.6326233E-003  0.1272225E+03  0.7818608E-02  0.1231636E+00
          4   -1    0    0  502    0 -0.00000000000E+00  0.00000000000E+00  0.14517429471E+02  0.14572874063E+02  0.12700000000E+01 0.  1.
         21   -1    0    0  501  502  0.00000000000E+00 -0.00000000000E+00 -0.40522040903E+03  0.40522040903E+03  0.00000000000E+00 0.  1.
         25    2    1    2    0    0 -0.15894731660E+02  0.17536333716E+02 -0.29625694472E+03  0.32241858468E+03  0.12500160381E+03 0.  0.
    9000005    1    3    3    0    0 -0.58131114691E+02 -0.55526170618E+01 -0.24593361429E+03  0.25277341769E+03  0.10000000000E+01 0.  0.
    9000005    1    3    3    0    0  0.42236383031E+02  0.23088950778E+02 -0.50323330433E+02  0.69645166992E+02  0.10000000000E+01 0.  0.
          4    1    1    2  501    0  0.15894731660E+02 -0.17536333716E+02 -0.94446034833E+02  0.97374698410E+02  0.12700000000E+01 0. -1.
<mgrwt>
<rscale>  1 0.12722251E+03</rscale>
<asrwt>0</asrwt>
<pdfrwt beam="2">  1       21 0.62341594E-01 0.12722251E+03</pdfrwt>
<pdfrwt beam="1">  1        4 0.22378690E-02 0.12722251E+03</pdfrwt>
<totfact> 0.82295080E+04</totfact>
</mgrwt>
</event>
<event>
 6    4  0.6326233E-003  0.1267338E+03  0.7818608E-02  0.1232384E+00
          4   -1    0    0  502    0 -0.00000000000E+00  0.00000000000E+00  0.14508230066E+03  0.14508785912E+03  0.12700000000E+01 0. -1.
         21   -1    0    0  501  502  0.00000000000E+00 -0.00000000000E+00 -0.40841978444E+02  0.40841978444E+02  0.00000000000E+00 0. -1.
         25    2    1    2    0    0  0.20444581996E+02 -0.43090772831E+01  0.10558629705E+03  0.16495428922E+03  0.12499960931E+03 0.  0.
    9000005    1    3    3    0    0  0.59486545033E+02 -0.39444902492E+02  0.77570805037E+02  0.10541716732E+03  0.10000000000E+01 0.  0.
    9000005    1    3    3    0    0 -0.39041963037E+02  0.35135825209E+02  0.28015492016E+02  0.59537121897E+02  0.10000000000E+01 0.  0.
          4    1    1    2  501    0 -0.20444581996E+02  0.43090772831E+01 -0.13459748385E+01  0.20975548343E+02  0.12700000000E+01 0.  1.
<mgrwt>
<rscale>  1 0.12673378E+03</rscale>
<asrwt>0</asrwt>
<pdfrwt beam="2">  1       21 0.62833814E-02 0.12673378E+03</pdfrwt>
<pdfrwt beam="1">  1        4 0.22322300E-01 0.12673378E+03</pdfrwt>
<totfact> 0.13366672E+05</totfact>
</mgrwt>
</event>
<event>
 6    4  0.6326233E-003  0.1347752E+03  0.7818608E-02  0.1220537E+00
         -4   -1    0    0    0  501 -0.00000000000E+00  0.00000000000E+00  0.28360300794E+03  0.28360585152E+03  0.12700000000E+01 0. -1.
         21   -1    0    0  501  502  0.00000000000E+00 -0.00000000000E+00 -0.39122277651E+02  0.39122277651E+02  0.00000000000E+00 0.  1.
         25    2    1    2    0    0 -0.21559688434E+02 -0.45550411796E+02  0.23576589390E+03  0.27156934250E+03  0.12499876351E+03 0.  0.
    9000005    1    3    3    0    0  0.40422116427E+02  0.16950704566E+02  0.53589638813E+02  0.69239607667E+02  0.10000000000E+01 0.  0.
    9000005    1    3    3    0    0 -0.61981804860E+02 -0.62501116362E+02  0.18217625509E+03  0.20232973483E+03  0.10000000000E+01 0.  0.
         -4    1    1    2    0  502  0.21559688434E+02  0.45550411796E+02  0.87148363952E+01  0.51158786670E+02  0.12700000000E+01 0.  1.
<mgrwt>
<rscale>  1 0.13477519E+03</rscale>
<asrwt>0</asrwt>
<pdfrwt beam="2">  1       21 0.60188121E-02 0.13477519E+03</pdfrwt>
<pdfrwt beam="1">  1       -4 0.43633035E-01 0.13477519E+03</pdfrwt>
<totfact> 0.40563623E+04</totfact>
</mgrwt>
</event>
<event>
 6    4  0.6326233E-003  0.1278961E+03  0.7818608E-02  0.1230611E+00
         -4   -1    0    0    0  501 -0.00000000000E+00  0.00000000000E+00  0.71538280392E+02  0.71549552490E+02  0.12700000000E+01 0. -1.
         21   -1    0    0  501  502  0.00000000000E+00 -0.00000000000E+00 -0.34104598239E+03  0.34104598239E+03  0.00000000000E+00 0.  1.
         25    2    1    2    0    0 -0.40061358611E+01  0.26771324784E+02  0.13215059752E+02  0.12857700403E+03  0.12499862081E+03 0.  0.
    9000005    1    3    3    0    0  0.13237815964E+02  0.73203633485E+02  0.23417997789E+02  0.77996245726E+02  0.10000000000E+01 0.  0.
    9000005    1    3    3    0    0 -0.17243951825E+02 -0.46432308701E+02 -0.10202938037E+02  0.50580758303E+02  0.10000000000E+01 0.  0.
         -4    1    1    2    0  502  0.40061358611E+01 -0.26771324784E+02 -0.28272276175E+03  0.28401853085E+03  0.12700000000E+01 0.  1.
<mgrwt>
<rscale>  1 0.12789608E+03</rscale>
<asrwt>0</asrwt>
<pdfrwt beam="2">  1       21 0.52468614E-01 0.12789608E+03</pdfrwt>
<pdfrwt beam="1">  1       -4 0.11006938E-01 0.12789608E+03</pdfrwt>
<totfact> 0.91082190E+03</totfact>
</mgrwt>
</event>
<event>
 6    4  0.6326233E-003  0.1300482E+03  0.7818608E-02  0.1227384E+00
         -4   -1    0    0    0  501 -0.00000000000E+00  0.00000000000E+00  0.97907854103E+02  0.97916090583E+02  0.12700000000E+01 0.  1.
         21   -1    0    0  501  502  0.00000000000E+00 -0.00000000000E+00 -0.35932681974E+03  0.35932681974E+03  0.00000000000E+00 0. -1.
         25    2    1    2    0    0 -0.15465300949E+02  0.32400860031E+02  0.53251379837E+02  0.14052847983E+03  0.12499421156E+03 0.  0.
    9000005    1    3    3    0    0 -0.12387216039E+02  0.31961910663E+02 -0.36867195384E+02  0.50350739318E+02  0.10000000000E+01 0.  0.
    9000005    1    3    3    0    0 -0.30780849100E+01  0.43894936830E+00  0.90118575220E+02  0.90177740507E+02  0.10000000000E+01 0.  0.
         -4    1    1    2    0  502  0.15465300949E+02 -0.32400860031E+02 -0.31467034548E+03  0.31671443050E+03  0.12700000000E+01 0. -1.
<mgrwt>
<rscale>  1 0.13004824E+03</rscale>
<asrwt>0</asrwt>
<pdfrwt beam="2">  1       21 0.55281049E-01 0.13004824E+03</pdfrwt>
<pdfrwt beam="1">  1       -4 0.15063553E-01 0.13004824E+03</pdfrwt>
<totfact> 0.47672855E+03</totfact>
</mgrwt>
</event>
<event>
 6    4  0.6326233E-003  0.1276343E+03  0.7818608E-02  0.1231009E+00
          4   -1    0    0  502    0 -0.00000000000E+00  0.00000000000E+00  0.59157437694E+02  0.59171068391E+02  0.12700000000E+01 0. -1.
         21   -1    0    0  501  502  0.00000000000E+00 -0.00000000000E+00 -0.11710533872E+03  0.11710533872E+03  0.00000000000E+00 0. -1.
         25    2    1    2    0    0 -0.13208508589E+01  0.25765419299E+02 -0.18275550979E+02  0.12893604656E+03  0.12499962744E+03 0.  0.
    9000005    1    3    3    0    0 -0.62836649178E+02  0.70655586246E+01 -0.66317185893E+01  0.63587312336E+02  0.10000000000E+01 0.  0.
    9000005    1    3    3    0    0  0.61515798320E+02  0.18699860674E+02 -0.11643832390E+02  0.65348734225E+02  0.10000000000E+01 0.  0.
          4    1    1    2  501    0  0.13208508589E+01 -0.25765419299E+02 -0.39672350043E+02  0.47340360546E+02  0.12700000000E+01 0.  1.
<mgrwt>
<rscale>  1 0.12763428E+03</rscale>
<asrwt>0</asrwt>
<pdfrwt beam="2">  1       21 0.18016206E-01 0.12763428E+03</pdfrwt>
<pdfrwt beam="1">  1        4 0.91027226E-02 0.12763428E+03</pdfrwt>
<totfact> 0.99766991E+04</totfact>
</mgrwt>
</event>
<event>
 6    4  0.6326233E-003  0.1348365E+03  0.7818608E-02  0.1220451E+00
         -4   -1    0    0    0  501 -0.00000000000E+00  0.00000000000E+00  0.70595424802E+02  0.70606847422E+02  0.12700000000E+01 0. -1.
         21   -1    0    0  501  502  0.00000000000E+00 -0.00000000000E+00 -0.13189682275E+03  0.13189682275E+03  0.00000000000E+00 0.  1.
         25    2    1    2    0    0 -0.41669383974E+02  0.28512532294E+02 -0.18109378547E+02  0.13604717690E+03  0.12502632799E+03 0.  0.
    9000005    1    3    3    0    0  0.27561870434E+02  0.15206200245E+02 -0.49659601382E+02  0.58804432122E+02  0.10000000000E+01 0.  0.
    9000005    1    3    3    0    0 -0.69231254408E+02  0.13306332049E+02  0.31550222835E+02  0.77242744775E+02  0.10000000000E+01 0.  0.
         -4    1    1    2    0  502  0.41669383974E+02 -0.28512532294E+02 -0.43192019402E+02  0.66456493276E+02  0.12700000000E+01 0.  1.
<mgrwt>
<rscale>  1 0.13483651E+03</rscale>
<asrwt>0</asrwt>
<pdfrwt beam="2">  1       21 0.20291819E-01 0.13483651E+03</pdfrwt>
<pdfrwt beam="1">  1       -4 0.10862184E-01 0.13483651E+03</pdfrwt>
<totfact> 0.59944816E+04</totfact>
</mgrwt>
</event>
<event>
 6    4  0.6326233E-003  0.1269811E+03  0.7818608E-02  0.1232005E+00
         21   -1    0    0  501  502  0.00000000000E+00  0.00000000000E+00  0.23709131278E+02  0.23709131278E+02  0.00000000000E+00 0. -1.
         -4   -1    0    0    0  501 -0.00000000000E+00 -0.00000000000E+00 -0.23730623875E+03  0.23730963708E+03  0.12700000000E+01 0. -1.
         25    2    1    2    0    0 -0.13560230377E+02 -0.17749140012E+02 -0.17210290998E+03  0.21387756403E+03  0.12500115582E+03 0.  0.
    9000005    1    3    3    0    0 -0.31957802931E+02  0.48254088024E+02 -0.68798158578E+02  0.89910760217E+02  0.10000000000E+01 0.  0.
    9000005    1    3    3    0    0  0.18397572554E+02 -0.66003228035E+02 -0.10330475140E+03  0.12396680382E+03  0.10000000000E+01 0.  0.
         -4    1    1    2    0  502  0.13560230377E+02  0.17749140012E+02 -0.41494197501E+02  0.47141204326E+02  0.12700000000E+01 0.  1.
<mgrwt>
<rscale>  1 0.12698110E+03</rscale>
<asrwt>0</asrwt>
<pdfrwt beam="1">  1       21 0.36475585E-02 0.12698110E+03</pdfrwt>
<pdfrwt beam="2">  1       -4 0.36511532E-01 0.12698110E+03</pdfrwt>
<totfact> 0.13212229E+05</totfact>
</mgrwt>
</event>
<event>
 6    4  0.6326233E-003  0.1272368E+03  0.7818608E-02  0.1231614E+00
         21   -1    0    0  501  502  0.00000000000E+00  0.00000000000E+00  0.11963254511E+02  0.11963254511E+02  0.00000000000E+00 0.  1.
          4   -1    0    0  502    0 -0.00000000000E+00 -0.00000000000E+00 -0.10326270680E+04  0.10326278490E+04  0.12700000000E+01 0. -1.
         25    2    1    2    0    0 -0.20048252451E+02 -0.12726615859E+02 -0.10109136452E+04  0.10188893942E+04  0.12500120153E+03 0.  0.
    9000005    1    3    3    0    0 -0.34381644909E+02 -0.21254640933E+02 -0.99498067747E+03  0.99580189085E+03  0.10000000000E+01 0.  0.
    9000005    1    3    3    0    0  0.14333392457E+02  0.85280250737E+01 -0.15932967760E+02  0.23087503387E+02  0.10000000000E+01 0.  0.
          4    1    1    2  501    0  0.20048252451E+02  0.12726615859E+02 -0.97501682659E+01  0.25701709258E+02  0.12700000000E+01 0.  1.
<mgrwt>
<rscale>  1 0.12723679E+03</rscale>
<asrwt>0</asrwt>
<pdfrwt beam="1">  1       21 0.18405013E-02 0.12723679E+03</pdfrwt>
<pdfrwt beam="2">  1        4 0.15887090E+00 0.12723679E+03</pdfrwt>
<totfact> 0.15635085E+04</totfact>
</mgrwt>
</event>
<event>
 6    4  0.6326233E-003  0.1272602E+03  0.7818608E-02  0.1231579E+00
          4   -1    0    0  502    0 -0.00000000000E+00  0.00000000000E+00  0.71211302831E+03  0.71211416079E+03  0.12700000000E+01 0. -1.
         21   -1    0    0  501  502  0.00000000000E+00 -0.00000000000E+00 -0.80335883429E+01  0.80335883429E+01  0.00000000000E+00 0. -1.
         25    2    1    2    0    0 -0.23806000823E+02 -0.18639137584E+01  0.60216353663E+03  0.61546411095E+03  0.12499978867E+03 0.  0.
    9000005    1    3    3    0    0 -0.72404702610E+02  0.64253391068E+01  0.26811054227E+03  0.27779126843E+03  0.10000000000E+01 0.  0.
    9000005    1    3    3    0    0  0.48598701786E+02 -0.82892528652E+01  0.33405299436E+03  0.33767284252E+03  0.10000000000E+01 0.  0.
          4    1    1    2  501    0  0.23806000823E+02  0.18639137584E+01  0.10191590334E+03  0.10468363818E+03  0.12700000000E+01 0.  1.
<mgrwt>
<rscale>  1 0.12726015E+03</rscale>
<asrwt>0</asrwt>
<pdfrwt beam="2">  1       21 0.12359372E-02 0.12726015E+03</pdfrwt>
<pdfrwt beam="1">  1        4 0.10956361E+00 0.12726015E+03</pdfrwt>
<totfact> 0.73631068E+04</totfact>
</mgrwt>
</event>
<event>
 6    4  0.6326233E-003  0.1274268E+03  0.7818608E-02  0.1231325E+00
         21   -1    0    0  501  502  0.00000000000E+00  0.00000000000E+00  0.18693212800E+04  0.18693212800E+04  0.00000000000E+00 0. -1.
         -4   -1    0    0    0  501 -0.00000000000E+00 -0.00000000000E+00 -0.87845814251E+01  0.88759095767E+01  0.12700000000E+01 0.  1.
         25    2    1    2    0    0  0.19788615827E+02 -0.14811317217E+02  0.45674394054E+03  0.47418626196E+03  0.12500647737E+03 0.  0.
    9000005    1    3    3    0    0  0.37840017114E+01  0.48984582381E+02  0.99923355044E+02  0.11135297420E+03  0.10000000000E+01 0.  0.
    9000005    1    3    3    0    0  0.16004614115E+02 -0.63795899598E+02  0.35682058549E+03  0.36283328776E+03  0.10000000000E+01 0.  0.
         -4    1    1    2    0  502 -0.19788615827E+02  0.14811317217E+02  0.14037927580E+04  0.14040109276E+04  0.12700000000E+01 0. -1.
<mgrwt>
<rscale>  1 0.12742678E+03</rscale>
<asrwt>0</asrwt>
<pdfrwt beam="1">  1       21 0.28758757E+00 0.12742678E+03</pdfrwt>
<pdfrwt beam="2">  1       -4 0.13585340E-02 0.12742678E+03</pdfrwt>
<totfact> 0.32018554E+03</totfact>
</mgrwt>
</event>
<event>
 6    4  0.6326233E-003  0.1300047E+03  0.7818608E-02  0.1227449E+00
         21   -1    0    0  501  502  0.00000000000E+00  0.00000000000E+00  0.14952694252E+03  0.14952694252E+03  0.00000000000E+00 0.  1.
          4   -1    0    0  502    0 -0.00000000000E+00 -0.00000000000E+00 -0.57662678930E+02  0.57676662883E+02  0.12700000000E+01 0. -1.
         25    2    1    2    0    0 -0.32375188147E+01  0.35578973609E+02  0.26464196869E+02  0.13267088428E+03  0.12499945971E+03 0.  0.
    9000005    1    3    3    0    0  0.52229150812E+02 -0.14751819520E+02  0.18482361604E+02  0.57341939836E+02  0.10000000000E+01 0.  0.
    9000005    1    3    3    0    0 -0.55466669627E+02  0.50330793129E+02  0.79818352645E+01  0.75328944441E+02  0.10000000000E+01 0.  0.
          4    1    1    2  501    0  0.32375188147E+01 -0.35578973609E+02  0.65400066722E+02  0.74532721126E+02  0.12700000000E+01 0.  1.
<mgrwt>
<rscale>  1 0.13000465E+03</rscale>
<asrwt>0</asrwt>
<pdfrwt beam="1">  1       21 0.23004145E-01 0.13000465E+03</pdfrwt>
<pdfrwt beam="2">  1        4 0.88726720E-02 0.13000465E+03</pdfrwt>
<totfact> 0.66377378E+04</totfact>
</mgrwt>
</event>
<event>
 6    4  0.6326233E-003  0.1278013E+03  0.7818608E-02  0.1230755E+00
         21   -1    0    0  501  502  0.00000000000E+00  0.00000000000E+00  0.24460507048E+02  0.24460507048E+02  0.00000000000E+00 0. -1.
         -4   -1    0    0    0  501 -0.00000000000E+00 -0.00000000000E+00 -0.26115874764E+03  0.26116183559E+03  0.12700000000E+01 0. -1.
         25    2    1    2    0    0  0.17649625984E+02  0.19906635919E+02 -0.21925831860E+03  0.25378608611E+03  0.12500153509E+03 0.  0.
    9000005    1    3    3    0    0  0.80186824001E+01  0.55667705216E+02 -0.20738933154E+03  0.21488259005E+03  0.10000000000E+01 0.  0.
    9000005    1    3    3    0    0  0.96309435839E+01 -0.35761069297E+02 -0.11868987069E+02  0.38903496059E+02  0.10000000000E+01 0.  0.
         -4    1    1    2    0  502 -0.17649625984E+02 -0.19906635919E+02 -0.17439921989E+02  0.31836256532E+02  0.12700000000E+01 0.  1.
<mgrwt>
<rscale>  1 0.12780128E+03</rscale>
<asrwt>0</asrwt>
<pdfrwt beam="1">  1       21 0.37631548E-02 0.12780128E+03</pdfrwt>
<pdfrwt beam="2">  1       -4 0.40181044E-01 0.12780128E+03</pdfrwt>
<totfact> 0.10417730E+05</totfact>
</mgrwt>
</event>
<event>
 6    4  0.6326233E-003  0.1543141E+03  0.7818608E-02  0.1195270E+00
         -4   -1    0    0    0  501 -0.00000000000E+00  0.00000000000E+00  0.61983655669E+03  0.61983785776E+03  0.12700000000E+01 0.  1.
         21   -1    0    0  501  502  0.00000000000E+00 -0.00000000000E+00 -0.27668973768E+02  0.27668973768E+02  0.00000000000E+00 0. -1.
         25    2    1    2    0    0 -0.86330776297E+02  0.27099810670E+02  0.47515336638E+03  0.49958339712E+03  0.12500178566E+03 0.  0.
    9000005    1    3    3    0    0 -0.15048153741E+02 -0.21962348088E+02  0.13459351121E+02  0.29848715168E+02  0.10000000000E+01 0.  0.
    9000005    1    3    3    0    0 -0.71282622556E+02  0.49062158758E+02  0.46169401526E+03  0.46973468195E+03  0.10000000000E+01 0.  0.
         -4    1    1    2    0  502  0.86330776297E+02 -0.27099810670E+02  0.11701421654E+03  0.14792343441E+03  0.12700000000E+01 0. -1.
<mgrwt>
<rscale>  1 0.15431412E+03</rscale>
<asrwt>0</asrwt>
<pdfrwt beam="2">  1       21 0.42567657E-02 0.15431412E+03</pdfrwt>
<pdfrwt beam="1">  1       -4 0.95361802E-01 0.15431412E+03</pdfrwt>
<totfact> 0.13912624E+04</totfact>
</mgrwt>
</event>
<event>
 6    4  0.6326233E-003  0.1270747E+03  0.7818608E-02  0.1231862E+00
         21   -1    0    0  501  502  0.00000000000E+00  0.00000000000E+00  0.44728515727E+02  0.44728515727E+02  0.00000000000E+00 0.  1.
         -4   -1    0    0    0  501 -0.00000000000E+00 -0.00000000000E+00 -0.12577723587E+03  0.12578364744E+03  0.12700000000E+01 0.  1.
         25    2    1    2    0    0  0.22795752166E+02  0.20289266425E+01 -0.67591223881E+02  0.14393247232E+03  0.12499688068E+03 0.  0.
    9000005    1    3    3    0    0  0.25801584015E+02 -0.47893608906E+02  0.62226351143E+01  0.54765323878E+02  0.10000000000E+01 0.  0.
    9000005    1    3    3    0    0 -0.30058318485E+01  0.49922535548E+02 -0.73813858996E+02  0.89167148437E+02  0.10000000000E+01 0.  0.
         -4    1    1    2    0  502 -0.22795752166E+02 -0.20289266425E+01 -0.13457496263E+02  0.26579690853E+02  0.12700000000E+01 0. -1.
<mgrwt>
<rscale>  1 0.12707471E+03</rscale>
<asrwt>0</asrwt>
<pdfrwt beam="1">  1       21 0.68813102E-02 0.12707471E+03</pdfrwt>
<pdfrwt beam="2">  1       -4 0.19352224E-01 0.12707471E+03</pdfrwt>
<totfact> 0.14818820E+05</totfact>
</mgrwt>
</event>
<event>
 6    4  0.6326233E-003  0.1295244E+03  0.7818608E-02  0.1228163E+00
         21   -1    0    0  501  502  0.00000000000E+00  0.00000000000E+00  0.54701537681E+02  0.54701537681E+02  0.00000000000E+00 0.  1.
         -4   -1    0    0    0  501 -0.00000000000E+00 -0.00000000000E+00 -0.29928162577E+03  0.29928432038E+03  0.12700000000E+01 0.  1.
         25    2    1    2    0    0  0.27648132032E+01  0.33862030863E+02 -0.27776288113E+03  0.30647804838E+03  0.12498917825E+03 0.  0.
    9000005    1    3    3    0    0 -0.49371784350E+02  0.54407208440E+02 -0.15700389363E+03  0.17334630090E+03  0.10000000000E+01 0.  0.
    9000005    1    3    3    0    0  0.52136597554E+02 -0.20545177577E+02 -0.12075898750E+03  0.13313174748E+03  0.10000000000E+01 0.  0.
         -4    1    1    2    0  502 -0.27648132032E+01 -0.33862030863E+02  0.33182793041E+02  0.47507809676E+02  0.12700000000E+01 0. -1.
<mgrwt>
<rscale>  1 0.12952442E+03</rscale>
<asrwt>0</asrwt>
<pdfrwt beam="1">  1       21 0.84156210E-02 0.12952442E+03</pdfrwt>
<pdfrwt beam="2">  1       -4 0.46044670E-01 0.12952442E+03</pdfrwt>
<totfact> 0.20415601E+04</totfact>
</mgrwt>
</event>
<event>
 6    4  0.6326233E-003  0.1295075E+03  0.7818608E-02  0.1228188E+00
         21   -1    0    0  501  502  0.00000000000E+00  0.00000000000E+00  0.52412353157E+01  0.52412353157E+01  0.00000000000E+00 0. -1.
         -4   -1    0    0    0  501 -0.00000000000E+00 -0.00000000000E+00 -0.17591387817E+04  0.17591392402E+04  0.12700000000E+01 0.  1.
         25    2    1    2    0    0  0.10915499832E+02 -0.32057024860E+02 -0.16504575623E+04  0.16555308351E+04  0.12500152125E+03 0.  0.
    9000005    1    3    3    0    0  0.63696546464E+01  0.48219576228E+02 -0.69017233754E+03  0.69188478487E+03  0.10000000000E+01 0.  0.
    9000005    1    3    3    0    0  0.45458451860E+01 -0.80276601088E+02 -0.96028522472E+03  0.96364605027E+03  0.10000000000E+01 0.  0.
         -4    1    1    2    0  502 -0.10915499832E+02  0.32057024860E+02 -0.10343998417E+03  0.10884964035E+03  0.12700000000E+01 0. -1.
<mgrwt>
<rscale>  1 0.12950746E+03</rscale>
<asrwt>0</asrwt>
<pdfrwt beam="1">  1       21 0.80634470E-03 0.12950746E+03</pdfrwt>
<pdfrwt beam="2">  1       -4 0.27064834E+00 0.12950746E+03</pdfrwt>
<totfact> 0.11946393E+04</totfact>
</mgrwt>
</event>
<event>
 6    4  0.6326233E-003  0.1332731E+03  0.7818608E-02  0.1222678E+00
         21   -1    0    0  501  502  0.00000000000E+00  0.00000000000E+00  0.32263886694E+03  0.32263886694E+03  0.00000000000E+00 0. -1.
         -4   -1    0    0    0  501 -0.00000000000E+00 -0.00000000000E+00 -0.56988450456E+02  0.57002599813E+02  0.12700000000E+01 0.  1.
         25    2    1    2    0    0 -0.28469090736E+02 -0.36415808087E+02  0.26272166025E+02  0.13583793950E+03  0.12500047558E+03 0.  0.
    9000005    1    3    3    0    0 -0.40099793017E+01 -0.33655958327E+02 -0.47329691202E+02  0.58222874664E+02  0.10000000000E+01 0.  0.
    9000005    1    3    3    0    0 -0.24459111434E+02 -0.27598497597E+01  0.73601857227E+02  0.77615064840E+02  0.10000000000E+01 0.  0.
         -4    1    1    2    0  502  0.28469090736E+02  0.36415808087E+02  0.23937825046E+03  0.24380352725E+03  0.12700000000E+01 0. -1.
<mgrwt>
<rscale>  1 0.13327310E+03</rscale>
<asrwt>0</asrwt>
<pdfrwt beam="1">  1       21 0.49636748E-01 0.13327310E+03</pdfrwt>
<pdfrwt beam="2">  1       -4 0.87687348E-02 0.13327310E+03</pdfrwt>
<totfact> 0.15021872E+04</totfact>
</mgrwt>
</event>
<event>
 6    4  0.6326233E-003  0.1323269E+03  0.7818608E-02  0.1224043E+00
         -4   -1    0    0    0  501 -0.00000000000E+00  0.00000000000E+00  0.40708034314E+03  0.40708232419E+03  0.12700000000E+01 0.  1.
         21   -1    0    0  501  502  0.00000000000E+00 -0.00000000000E+00 -0.20205139445E+02  0.20205139445E+02  0.00000000000E+00 0. -1.
         25    2    1    2    0    0 -0.15102206332E+02  0.40697637046E+02  0.33135212823E+03  0.35679775441E+03  0.12500412143E+03 0.  0.
    9000005    1    3    3    0    0  0.79243410883E+01 -0.43910657922E+02  0.11312488281E+03  0.12161077326E+03  0.10000000000E+01 0.  0.
    9000005    1    3    3    0    0 -0.23026547420E+02  0.84608294968E+02  0.21822724542E+03  0.23518698116E+03  0.10000000000E+01 0.  0.
         -4    1    1    2    0  502  0.15102206332E+02 -0.40697637046E+02  0.55523075461E+02  0.70489709220E+02  0.12700000000E+01 0. -1.
<mgrwt>
<rscale>  1 0.13232689E+03</rscale>
<asrwt>0</asrwt>
<pdfrwt beam="2">  1       21 0.31084833E-02 0.13232689E+03</pdfrwt>
<pdfrwt beam="1">  1       -4 0.62630961E-01 0.13232689E+03</pdfrwt>
<totfact> 0.58088833E+04</totfact>
</mgrwt>
</event>
<event>
 6    4  0.6326233E-003  0.1266475E+03  0.7818608E-02  0.1232517E+00
         21   -1    0    0  501  502  0.00000000000E+00  0.00000000000E+00  0.46258856604E+02  0.46258856604E+02  0.00000000000E+00 0.  1.
          4   -1    0    0  502    0 -0.00000000000E+00 -0.00000000000E+00 -0.13745255429E+03  0.13745842128E+03  0.12700000000E+01 0. -1.
         25    2    1    2    0    0  0.17901298083E+02  0.96792328377E+01 -0.10013624159E+03  0.16145237247E+03  0.12500183069E+03 0.  0.
    9000005    1    3    3    0    0  0.18658657331E+02  0.52941241197E+02 -0.43118711249E+01  0.56307306323E+02  0.10000000000E+01 0.  0.
    9000005    1    3    3    0    0 -0.75735924707E+00 -0.43262008359E+02 -0.95824370469E+02  0.10514506615E+03  0.10000000000E+01 0.  0.
          4    1    1    2  501    0 -0.17901298083E+02 -0.96792328377E+01  0.89425439061E+01  0.22264905410E+02  0.12700000000E+01 0.  1.
<mgrwt>
<rscale>  1 0.12664755E+03</rscale>
<asrwt>0</asrwt>
<pdfrwt beam="1">  1       21 0.71167471E-02 0.12664755E+03</pdfrwt>
<pdfrwt beam="2">  1        4 0.21148339E-01 0.12664755E+03</pdfrwt>
<totfact> 0.11919936E+05</totfact>
</mgrwt>
</event>
<event>
 6    4  0.6326233E-003  0.1299773E+03  0.7818608E-02  0.1227489E+00
         21   -1    0    0  501  502  0.00000000000E+00  0.00000000000E+00  0.19673283068E+03  0.19673283068E+03  0.00000000000E+00 0. -1.
         -4   -1    0    0    0  501 -0.00000000000E+00 -0.00000000000E+00 -0.42901333710E+02  0.42920127377E+02  0.12700000000E+01 0.  1.
         25    2    1    2    0    0 -0.31386557802E+02  0.16819442583E+02  0.67937472671E+02  0.14666152851E+03  0.12500437629E+03 0.  0.
    9000005    1    3    3    0    0  0.27669400458E+02  0.38288723980E+02  0.69212458339E+02  0.83803260647E+02  0.10000000000E+01 0.  0.
    9000005    1    3    3    0    0 -0.59055958261E+02 -0.21469281397E+02 -0.12749856684E+01  0.62858267859E+02  0.10000000000E+01 0.  0.
         -4    1    1    2    0  502  0.31386557802E+02 -0.16819442583E+02  0.85894024295E+02  0.92991429546E+02  0.12700000000E+01 0. -1.
<mgrwt>
<rscale>  1 0.12997732E+03</rscale>
<asrwt>0</asrwt>
<pdfrwt beam="1">  1       21 0.30266589E-01 0.12997732E+03</pdfrwt>
<pdfrwt beam="2">  1       -4 0.66019663E-02 0.12997732E+03</pdfrwt>
<totfact> 0.64158617E+04</totfact>
</mgrwt>
</event>
<event>
 6    4  0.6326233E-003  0.1272493E+03  0.7818608E-02  0.1231595E+00
         21   -1    0    0  501  502  0.00000000000E+00  0.00000000000E+00  0.87412104936E+02  0.87412104936E+02  0.00000000000E+00 0.  1.
         -4   -1    0    0    0  501 -0.00000000000E+00 -0.00000000000E+00 -0.13276573005E+03  0.13277180414E+03  0.12700000000E+01 0. -1.
         25    2    1    2    0    0  0.10579054024E+02  0.21352932316E+02 -0.99160078870E+02  0.16132295879E+03  0.12499804674E+03 0.  0.
    9000005    1    3    3    0    0  0.40280723641E+02  0.61430057990E+02 -0.39034019345E+02  0.83191606475E+02  0.10000000000E+01 0.  0.
    9000005    1    3    3    0    0 -0.29701669617E+02 -0.40077125674E+02 -0.60126059525E+02  0.78131352313E+02  0.10000000000E+01 0.  0.
         -4    1    1    2    0  502 -0.10579054024E+02 -0.21352932316E+02  0.53806453760E+02  0.58860950288E+02  0.12700000000E+01 0.  1.
<mgrwt>
<rscale>  1 0.12724927E+03</rscale>
<asrwt>0</asrwt>
<pdfrwt beam="1">  1       21 0.13448016E-01 0.12724927E+03</pdfrwt>
<pdfrwt beam="2">  1       -4 0.20426674E-01 0.12724927E+03</pdfrwt>
<totfact> 0.41780105E+04</totfact>
</mgrwt>
</event>
<event>
 6    4  0.6326233E-003  0.1312355E+03  0.7818608E-02  0.1225634E+00
         21   -1    0    0  501  502  0.00000000000E+00  0.00000000000E+00  0.25364210903E+03  0.25364210903E+03  0.00000000000E+00 0. -1.
          4   -1    0    0  502    0 -0.00000000000E+00 -0.00000000000E+00 -0.34638648948E+02  0.34661922926E+02  0.12700000000E+01 0.  1.
         25    2    1    2    0    0  0.17704490500E+02 -0.35836419221E+02  0.10684604298E+03  0.16923011778E+03  0.12500023175E+03 0.  0.
    9000005    1    3    3    0    0  0.10183427682E+02 -0.82671333621E+02  0.60953590522E+02  0.10322108215E+03  0.10000000000E+01 0.  0.
    9000005    1    3    3    0    0  0.75210628183E+01  0.46834914400E+02  0.45892452462E+02  0.66009035637E+02  0.10000000000E+01 0.  0.
          4    1    1    2  501    0 -0.17704490500E+02  0.35836419221E+02  0.11215741710E+03  0.11907391417E+03  0.12700000000E+01 0. -1.
<mgrwt>
<rscale>  1 0.13123550E+03</rscale>
<asrwt>0</asrwt>
<pdfrwt beam="1">  1       21 0.39021862E-01 0.13123550E+03</pdfrwt>
<pdfrwt beam="2">  1        4 0.53310580E-02 0.13123550E+03</pdfrwt>
<totfact> 0.55215415E+04</totfact>
</mgrwt>
</event>
<event>
 6    4  0.6326233E-003  0.1317453E+03  0.7818608E-02  0.1224889E+00
          4   -1    0    0  502    0 -0.00000000000E+00  0.00000000000E+00  0.56011171651E+02  0.56025567822E+02  0.12700000000E+01 0.  1.
         21   -1    0    0  501  502  0.00000000000E+00 -0.00000000000E+00 -0.21620788201E+03  0.21620788201E+03  0.00000000000E+00 0. -1.
         25    2    1    2    0    0  0.33530851349E+02 -0.24661683637E+02 -0.29424776810E+02  0.13499122551E+03  0.12499718734E+03 0.  0.
    9000005    1    3    3    0    0  0.69772255747E+02  0.21507010879E+02 -0.15027464966E+02  0.74548936225E+02  0.10000000000E+01 0.  0.
    9000005    1    3    3    0    0 -0.36241404398E+02 -0.46168694516E+02 -0.14397311844E+02  0.60442289288E+02  0.10000000000E+01 0.  0.
          4    1    1    2  501    0 -0.33530851349E+02  0.24661683637E+02 -0.13077193355E+03  0.13724222432E+03  0.12700000000E+01 0. -1.
<mgrwt>
<rscale>  1 0.13174526E+03</rscale>
<asrwt>0</asrwt>
<pdfrwt beam="2">  1       21 0.33262752E-01 0.13174526E+03</pdfrwt>
<pdfrwt beam="1">  1        4 0.86184975E-02 0.13174526E+03</pdfrwt>
<totfact> 0.34470836E+04</totfact>
</mgrwt>
</event>
<event>
 6    4  0.6326233E-003  0.1303318E+03  0.7818608E-02  0.1226964E+00
         21   -1    0    0  501  502  0.00000000000E+00  0.00000000000E+00  0.70118362206E+02  0.70118362206E+02  0.00000000000E+00 0.  1.
         -4   -1    0    0    0  501 -0.00000000000E+00 -0.00000000000E+00 -0.24703192248E+03  0.24703518701E+03  0.12700000000E+01 0. -1.
         25    2    1    2    0    0  0.17456564583E+02  0.32493153744E+02 -0.22288869006E+03  0.25819710643E+03  0.12500336367E+03 0.  0.
    9000005    1    3    3    0    0 -0.37242599433E+02 -0.20228996671E+02 -0.13756172587E+03  0.14394600357E+03  0.10000000000E+01 0.  0.
    9000005    1    3    3    0    0  0.54699164016E+02  0.52722150414E+02 -0.85326964184E+02  0.11425110286E+03  0.10000000000E+01 0.  0.
         -4    1    1    2    0  502 -0.17456564583E+02 -0.32493153744E+02  0.45975129786E+02  0.58956442787E+02  0.12700000000E+01 0.  1.
<mgrwt>
<rscale>  1 0.13033180E+03</rscale>
<asrwt>0</asrwt>
<pdfrwt beam="1">  1       21 0.10787440E-01 0.13033180E+03</pdfrwt>
<pdfrwt beam="2">  1       -4 0.38006048E-01 0.13033180E+03</pdfrwt>
<totfact> 0.19369854E+04</totfact>
</mgrwt>
</event>
<event>
 6    4  0.6326233E-003  0.1279831E+03  0.7818608E-02  0.1230479E+00
         -4   -1    0    0    0  501 -0.00000000000E+00  0.00000000000E+00  0.25214357347E+02  0.25246320849E+02  0.12700000000E+01 0.  1.
         21   -1    0    0  501  502  0.00000000000E+00 -0.00000000000E+00 -0.11248164972E+04  0.11248164972E+04  0.00000000000E+00 0. -1.
         25    2    1    2    0    0 -0.27065884973E+01  0.27230696879E+02 -0.13853155399E+03  0.18860188781E+03  0.12502337445E+03 0.  0.
    9000005    1    3    3    0    0 -0.51654308852E+02  0.50294048446E+02 -0.63420688480E+02  0.96025218872E+02  0.10000000000E+01 0.  0.
    9000005    1    3    3    0    0  0.48947720355E+02 -0.23063351567E+02 -0.75110865511E+02  0.92576668936E+02  0.10000000000E+01 0.  0.
         -4    1    1    2    0  502  0.27065884973E+01 -0.27230696879E+02 -0.96107058582E+03  0.96146093020E+03  0.12700000000E+01 0. -1.
<mgrwt>
<rscale>  1 0.12798313E+03</rscale>
<asrwt>0</asrwt>
<pdfrwt beam="2">  1       21 0.17304868E+00 0.12798313E+03</pdfrwt>
<pdfrwt beam="1">  1       -4 0.38816461E-02 0.12798313E+03</pdfrwt>
<totfact> 0.30663987E+03</totfact>
</mgrwt>
</event>
<event>
 6    4  0.6326233E-003  0.1274790E+03  0.7818608E-02  0.1231245E+00
          4   -1    0    0  502    0 -0.00000000000E+00  0.00000000000E+00  0.63303035764E+01  0.64564420055E+01  0.12700000000E+01 0. -1.
         21   -1    0    0  501  502  0.00000000000E+00 -0.00000000000E+00 -0.91087741667E+03  0.91087741667E+03  0.00000000000E+00 0. -1.
         25    2    1    2    0    0 -0.23032124895E+02 -0.98000807169E+01 -0.74400231005E+03  0.75484457582E+03  0.12499750367E+03 0.  0.
    9000005    1    3    3    0    0 -0.22862615779E+02 -0.35076723592E+02 -0.79467953989E+02  0.89828900970E+02  0.10000000000E+01 0.  0.
    9000005    1    3    3    0    0 -0.16950911656E+00  0.25276642876E+02 -0.66453435606E+03  0.66501567485E+03  0.10000000000E+01 0.  0.
          4    1    1    2  501    0  0.23032124895E+02  0.98000807169E+01 -0.16054480305E+03  0.16248928286E+03  0.12700000000E+01 0.  1.
<mgrwt>
<rscale>  1 0.12747900E+03</rscale>
<asrwt>0</asrwt>
<pdfrwt beam="2">  1       21 0.14013504E+00 0.12747900E+03</pdfrwt>
<pdfrwt beam="1">  1        4 0.98366355E-03 0.12747900E+03</pdfrwt>
<totfact> 0.44128933E+04</totfact>
</mgrwt>
</event>
<event>
 6    4  0.6326233E-003  0.1659918E+03  0.7818608E-02  0.1182093E+00
         21   -1    0    0  501  502  0.00000000000E+00  0.00000000000E+00  0.38117072692E+02  0.38117072692E+02  0.00000000000E+00 0.  1.
          4   -1    0    0  502    0 -0.00000000000E+00 -0.00000000000E+00 -0.94251137621E+03  0.94251223185E+03  0.12700000000E+01 0. -1.
         25    2    1    2    0    0  0.19724083844E+02  0.10740918019E+03 -0.83476486271E+03  0.85110848228E+03  0.12501000408E+03 0.  0.
    9000005    1    3    3    0    0  0.70331811731E+02  0.68883845522E+02 -0.41290798775E+03  0.42448269018E+03  0.10000000000E+01 0.  0.
    9000005    1    3    3    0    0 -0.50607727887E+02  0.38525334667E+02 -0.42185687496E+03  0.42662579210E+03  0.10000000000E+01 0.  0.
          4    1    1    2  501    0 -0.19724083844E+02 -0.10740918019E+03 -0.69629440812E+02  0.12952082226E+03  0.12700000000E+01 0.  1.
<mgrwt>
<rscale>  1 0.16599178E+03</rscale>
<asrwt>0</asrwt>
<pdfrwt beam="1">  1       21 0.58641653E-02 0.16599178E+03</pdfrwt>
<pdfrwt beam="2">  1        4 0.14500344E+00 0.16599178E+03</pdfrwt>
<totfact> 0.29686108E+03</totfact>
</mgrwt>
</event>
<event>
 6    4  0.6326233E-003  0.1392441E+03  0.7818608E-02  0.1214350E+00
         -4   -1    0    0    0  501 -0.00000000000E+00  0.00000000000E+00  0.50207967636E+02  0.50224027259E+02  0.12700000000E+01 0.  1.
         21   -1    0    0  501  502  0.00000000000E+00 -0.00000000000E+00 -0.52881065163E+03  0.52881065163E+03  0.00000000000E+00 0. -1.
         25    2    1    2    0    0  0.36733875067E+02 -0.49138329874E+02 -0.52934963761E+02  0.14896657499E+03  0.12499990815E+03 0.  0.
    9000005    1    3    3    0    0  0.37319396658E+02 -0.77528882504E+02  0.31367841987E+01  0.86106355192E+02  0.10000000000E+01 0.  0.
    9000005    1    3    3    0    0 -0.58552159155E+00  0.28390552630E+02 -0.56071747960E+02  0.62860219801E+02  0.10000000000E+01 0.  0.
         -4    1    1    2    0  502 -0.36733875067E+02  0.49138329874E+02 -0.42566772023E+03  0.43006810389E+03  0.12700000000E+01 0. -1.
<mgrwt>
<rscale>  1 0.13924414E+03</rscale>
<asrwt>0</asrwt>
<pdfrwt beam="2">  1       21 0.81355491E-01 0.13924414E+03</pdfrwt>
<pdfrwt beam="1">  1       -4 0.77256548E-02 0.13924414E+03</pdfrwt>
<totfact> 0.64273608E+03</totfact>
</mgrwt>
</event>
<event>
 6    4  0.6326233E-003  0.1270001E+03  0.7818608E-02  0.1231976E+00
         21   -1    0    0  501  502  0.00000000000E+00  0.00000000000E+00  0.35068975014E+01  0.35068975014E+01  0.00000000000E+00 0.  1.
         -4   -1    0    0    0  501 -0.00000000000E+00 -0.00000000000E+00 -0.18037413255E+04  0.18037417726E+04  0.12700000000E+01 0. -1.
         25    2    1    2    0    0  0.84914308758E+01  0.20782438932E+02 -0.16887763861E+04  0.16935450107E+04  0.12500002686E+03 0.  0.
    9000005    1    3    3    0    0 -0.16877089672E+02 -0.41886870325E+02 -0.32873363182E+03  0.33182246270E+03  0.10000000000E+01 0.  0.
    9000005    1    3    3    0    0  0.25368520548E+02  0.62669309257E+02 -0.13600427543E+04  0.13617225480E+04  0.10000000000E+01 0.  0.
         -4    1    1    2    0  502 -0.84914308758E+01 -0.20782438932E+02 -0.11145804191E+03  0.11370365945E+03  0.12700000000E+01 0.  1.
<mgrwt>
<rscale>  1 0.12700008E+03</rscale>
<asrwt>0</asrwt>
<pdfrwt beam="1">  1       21 0.53952211E-03 0.12700008E+03</pdfrwt>
<pdfrwt beam="2">  1       -4 0.27751669E+00 0.12700008E+03</pdfrwt>
<totfact> 0.20366027E+04</totfact>
</mgrwt>
</event>
<event>
 6    4  0.6326233E-003  0.1268849E+03  0.7818608E-02  0.1232153E+00
         -4   -1    0    0    0  501 -0.00000000000E+00  0.00000000000E+00  0.84348454627E+03  0.84348550236E+03  0.12700000000E+01 0. -1.
         21   -1    0    0  501  502  0.00000000000E+00 -0.00000000000E+00 -0.27143875179E+02  0.27143875179E+02  0.00000000000E+00 0.  1.
         25    2    1    2    0    0 -0.57665230226E+01 -0.21062525015E+02  0.83332853542E+03  0.84293311097E+03  0.12499159522E+03 0.  0.
    9000005    1    3    3    0    0 -0.19644299109E+02 -0.40743425724E+02  0.80262583666E+03  0.80389996822E+03  0.10000000000E+01 0.  0.
    9000005    1    3    3    0    0  0.13877776087E+02  0.19680900709E+02  0.30702698760E+02  0.39033142750E+02  0.10000000000E+01 0.  0.
         -4    1    1    2    0  502  0.57665230226E+01  0.21062525015E+02 -0.16987864327E+02  0.27696266575E+02  0.12700000000E+01 0.  1.
<mgrwt>
<rscale>  1 0.12688491E+03</rscale>
<asrwt>0</asrwt>
<pdfrwt beam="2">  1       21 0.41759814E-02 0.12688491E+03</pdfrwt>
<pdfrwt beam="1">  1       -4 0.12976919E+00 0.12688491E+03</pdfrwt>
<totfact> 0.68089977E+03</totfact>
</mgrwt>
</event>
<event>
 6    4  0.6326233E-003  0.1482935E+03  0.7818608E-02  0.1202586E+00
         -4   -1    0    0    0  501 -0.00000000000E+00  0.00000000000E+00  0.81009570641E+03  0.81009670191E+03  0.12700000000E+01 0. -1.
         21   -1    0    0  501  502  0.00000000000E+00 -0.00000000000E+00 -0.18783725005E+02  0.18783725005E+02  0.00000000000E+00 0.  1.
         25    2    1    2    0    0  0.46503638443E+02 -0.64835618919E+02  0.64895803914E+03  0.66568574670E+03  0.12499892374E+03 0.  0.
    9000005    1    3    3    0    0  0.37560387507E+01 -0.36472004976E+02  0.57209403648E+03  0.57326861204E+03  0.10000000000E+01 0.  0.
    9000005    1    3    3    0    0  0.42747599693E+02 -0.28363613942E+02  0.76864002658E+02  0.92417134667E+02  0.10000000000E+01 0.  0.
         -4    1    1    2    0  502 -0.46503638443E+02  0.64835618919E+02  0.14235394227E+03  0.16319468021E+03  0.12700000000E+01 0.  1.
<mgrwt>
<rscale>  1 0.14829355E+03</rscale>
<asrwt>0</asrwt>
<pdfrwt beam="2">  1       21 0.28898045E-02 0.14829355E+03</pdfrwt>
<pdfrwt beam="1">  1       -4 0.12463346E+00 0.14829355E+03</pdfrwt>
<totfact> 0.13999631E+04</totfact>
</mgrwt>
</event>
<event>
 6    4  0.6326233E-003  0.1446500E+03  0.7818608E-02  0.1207206E+00
         21   -1    0    0  501  502  0.00000000000E+00  0.00000000000E+00  0.88380080684E+01  0.88380080684E+01  0.00000000000E+00 0. -1.
          4   -1    0    0  502    0 -0.00000000000E+00 -0.00000000000E+00 -0.20673187255E+04  0.20673191156E+04  0.12700000000E+01 0.  1.
         25    2    1    2    0    0  0.42259382520E+02 -0.59269273419E+02 -0.18438458641E+04  0.18495110662E+04  0.12499964558E+03 0.  0.
    9000005    1    3    3    0    0  0.61789593671E+02 -0.67128062766E+02 -0.17787452275E+04  0.17810838596E+04  0.10000000000E+01 0.  0.
    9000005    1    3    3    0    0 -0.19530211151E+02  0.78587893469E+01 -0.65100636567E+02  0.68427206571E+02  0.10000000000E+01 0.  0.
          4    1    1    2  501    0 -0.42259382520E+02  0.59269273419E+02 -0.21463485337E+03  0.22664605746E+03  0.12700000000E+01 0. -1.
<mgrwt>
<rscale>  1 0.14464997E+03</rscale>
<asrwt>0</asrwt>
<pdfrwt beam="1">  1       21 0.13596936E-02 0.14464997E+03</pdfrwt>
<pdfrwt beam="2">  1        4 0.31805608E+00 0.14464997E+03</pdfrwt>
<totfact> 0.27958273E+03</totfact>
</mgrwt>
</event>
<event>
 6    4  0.6326233E-003  0.1266091E+03  0.7818608E-02  0.1232576E+00
         21   -1    0    0  501  502  0.00000000000E+00  0.00000000000E+00  0.95613768574E+03  0.95613768574E+03  0.00000000000E+00 0.  1.
         -4   -1    0    0    0  501 -0.00000000000E+00 -0.00000000000E+00 -0.46911403035E+02  0.46928590803E+02  0.12700000000E+01 0. -1.
         25    2    1    2    0    0  0.20123115334E+02  0.50242661121E+00  0.38820708049E+02  0.13242704615E+03  0.12499873190E+03 0.  0.
    9000005    1    3    3    0    0 -0.26375688583E+01 -0.68424745564E+01 -0.44820739795E+02  0.45427689169E+02  0.10000000000E+01 0.  0.
    9000005    1    3    3    0    0  0.22760684192E+02  0.73449011676E+01  0.83641447844E+02  0.86999356983E+02  0.10000000000E+01 0.  0.
         -4    1    1    2    0  502 -0.20123115334E+02 -0.50242661121E+00  0.87040557466E+03  0.87063923039E+03  0.12700000000E+01 0.  1.
<mgrwt>
<rscale>  1 0.12660914E+03</rscale>
<asrwt>0</asrwt>
<pdfrwt beam="1">  1       21 0.14709809E+00 0.12660914E+03</pdfrwt>
<pdfrwt beam="2">  1       -4 0.72185267E-02 0.12660914E+03</pdfrwt>
<totfact> 0.17335142E+03</totfact>
</mgrwt>
</event>
<event>
 6    4  0.6326233E-003  0.1274639E+03  0.7818608E-02  0.1231268E+00
         -4   -1    0    0    0  501 -0.00000000000E+00  0.00000000000E+00  0.41202171773E+03  0.41202367503E+03  0.12700000000E+01 0.  1.
         21   -1    0    0  501  502  0.00000000000E+00 -0.00000000000E+00 -0.15469617199E+02  0.15469617199E+02  0.00000000000E+00 0.  1.
         25    2    1    2    0    0 -0.23909961703E+02 -0.70958196561E+01  0.36856829225E+03  0.38998671478E+03  0.12500005893E+03 0.  0.
    9000005    1    3    3    0    0 -0.13454521634E+02 -0.63980814976E+02  0.24455275141E+03  0.25314347129E+03  0.10000000000E+01 0.  0.
    9000005    1    3    3    0    0 -0.10455440069E+02  0.56884995320E+02  0.12401554084E+03  0.13684324349E+03  0.10000000000E+01 0.  0.
         -4    1    1    2    0  502  0.23909961703E+02  0.70958196561E+01  0.27983808288E+02  0.37506577444E+02  0.12700000000E+01 0. -1.
<mgrwt>
<rscale>  1 0.12746392E+03</rscale>
<asrwt>0</asrwt>
<pdfrwt beam="2">  1       21 0.23799414E-02 0.12746392E+03</pdfrwt>
<pdfrwt beam="1">  1       -4 0.63392109E-01 0.12746392E+03</pdfrwt>
<totfact> 0.87121714E+04</totfact>
</mgrwt>
</event>
<event>
 6    4  0.6326233E-003  0.1895941E+03  0.7818608E-02  0.1158828E+00
          4   -1    0    0  502    0 -0.00000000000E+00  0.00000000000E+00  0.56694450206E+03  0.56694592450E+03  0.12700000000E+01 0.  1.
         21   -1    0    0  501  502  0.00000000000E+00 -0.00000000000E+00 -0.47714047909E+03  0.47714047909E+03  0.00000000000E+00 0. -1.
         25    2    1    2    0    0  0.28436995956E+02 -0.13968670177E+03  0.53975873930E+03  0.57208863131E+03  0.12499947215E+03 0.  0.
    9000005    1    3    3    0    0  0.58137770286E+02 -0.30937165101E+02  0.30003226091E+03  0.30717660410E+03  0.10000000000E+01 0.  0.
    9000005    1    3    3    0    0 -0.29700774331E+02 -0.10874953667E+03  0.23972647839E+03  0.26491202721E+03  0.10000000000E+01 0.  0.
          4    1    1    2  501    0 -0.28436995956E+02  0.13968670177E+03 -0.44995471633E+03  0.47199777228E+03  0.12700000000E+01 0. -1.
<mgrwt>
<rscale>  1 0.18959405E+03</rscale>
<asrwt>0</asrwt>
<pdfrwt beam="2">  1       21 0.73406227E-01 0.18959405E+03</pdfrwt>
<pdfrwt beam="1">  1        4 0.87222471E-01 0.18959405E+03</pdfrwt>
<totfact> 0.82140059E+01</totfact>
</mgrwt>
</event>
<event>
 6    4  0.6326233E-003  0.1299651E+03  0.7818608E-02  0.1227508E+00
          4   -1    0    0  502    0 -0.00000000000E+00  0.00000000000E+00  0.74183563301E+02  0.74194433511E+02  0.12700000000E+01 0. -1.
         21   -1    0    0  501  502  0.00000000000E+00 -0.00000000000E+00 -0.10317161694E+03  0.10317161694E+03  0.00000000000E+00 0. -1.
         25    2    1    2    0    0  0.35542639663E+02  0.45190621379E+00  0.23137246404E+01  0.12998569928E+03  0.12500978059E+03 0.  0.
    9000005    1    3    3    0    0  0.63042543470E+02 -0.19817082769E+02  0.41459996252E+02  0.78019294702E+02  0.10000000000E+01 0.  0.
    9000005    1    3    3    0    0 -0.27499903807E+02  0.20268988982E+02 -0.39146271611E+02  0.51966404579E+02  0.10000000000E+01 0.  0.
          4    1    1    2  501    0 -0.35542639663E+02 -0.45190621379E+00 -0.31301778279E+02  0.47380351169E+02  0.12700000000E+01 0.  1.
<mgrwt>
<rscale>  1 0.12996511E+03</rscale>
<asrwt>0</asrwt>
<pdfrwt beam="2">  1       21 0.15872557E-01 0.12996511E+03</pdfrwt>
<pdfrwt beam="1">  1        4 0.11414293E-01 0.12996511E+03</pdfrwt>
<totfact> 0.86010094E+04</totfact>
</mgrwt>
</event>
<event>
 6    4  0.6326233E-003  0.1286290E+03  0.7818608E-02  0.1229504E+00
         21   -1    0    0  501  502  0.00000000000E+00  0.00000000000E+00  0.27098492124E+03  0.27098492124E+03  0.00000000000E+00 0. -1.
          4   -1    0    0  502    0 -0.00000000000E+00 -0.00000000000E+00 -0.32101995102E+02  0.32127106772E+02  0.12700000000E+01 0. -1.
         25    2    1    2    0    0 -0.30099440531E+02 -0.37999251602E+01  0.10562806346E+03  0.16644130299E+03  0.12500001519E+03 0.  0.
    9000005    1    3    3    0    0 -0.48732263486E+02  0.50202967529E+02  0.70717159323E+02  0.99484109665E+02  0.10000000000E+01 0.  0.
    9000005    1    3    3    0    0  0.18632822955E+02 -0.54002892689E+02  0.34910904139E+02  0.66957193324E+02  0.10000000000E+01 0.  0.
          4    1    1    2  501    0  0.30099440531E+02  0.37999251602E+01  0.13325486267E+03  0.13667072502E+03  0.12700000000E+01 0.  1.
<mgrwt>
<rscale>  1 0.12862900E+03</rscale>
<asrwt>0</asrwt>
<pdfrwt beam="1">  1       21 0.41689986E-01 0.12862900E+03</pdfrwt>
<pdfrwt beam="2">  1        4 0.49409292E-02 0.12862900E+03</pdfrwt>
<totfact> 0.54530624E+04</totfact>
</mgrwt>
</event>
<event>
 6    4  0.6326233E-003  0.1289003E+03  0.7818608E-02  0.1229097E+00
         -4   -1    0    0    0  501 -0.00000000000E+00  0.00000000000E+00  0.83318387804E+02  0.83328066378E+02  0.12700000000E+01 0. -1.
         21   -1    0    0  501  502  0.00000000000E+00 -0.00000000000E+00 -0.81555105965E+03  0.81555105965E+03  0.00000000000E+00 0.  1.
         25    2    1    2    0    0 -0.75045858170E+01 -0.30551282127E+02  0.32953107185E+02  0.13304586155E+03  0.12500237740E+03 0.  0.
    9000005    1    3    3    0    0  0.23779062583E+02 -0.71622855607E+02  0.30332419800E+02  0.81340844313E+02  0.10000000000E+01 0.  0.
    9000005    1    3    3    0    0 -0.31283648400E+02  0.41071573480E+02  0.26206873845E+01  0.51705017239E+02  0.10000000000E+01 0.  0.
         -4    1    1    2    0  502  0.75045858170E+01  0.30551282127E+02 -0.76518577903E+03  0.76583326448E+03  0.12700000000E+01 0.  1.
<mgrwt>
<rscale>  1 0.12890033E+03</rscale>
<asrwt>0</asrwt>
<pdfrwt beam="2">  1       21 0.12546939E+00 0.12890033E+03</pdfrwt>
<pdfrwt beam="1">  1       -4 0.12819034E-01 0.12890033E+03</pdfrwt>
<totfact> 0.98693246E+02</totfact>
</mgrwt>
</event>
<event>
 6    4  0.6326233E-003  0.1327878E+03  0.7818608E-02  0.1223377E+00
         -4   -1    0    0    0  501 -0.00000000000E+00  0.00000000000E+00  0.14166571263E+03  0.14167140515E+03  0.12700000000E+01 0.  1.
         21   -1    0    0  501  502  0.00000000000E+00 -0.00000000000E+00 -0.55675856591E+02  0.55675856591E+02  0.00000000000E+00 0.  1.
         25    2    1    2    0    0  0.11561691735E+02  0.43285481286E+02  0.65545462585E+02  0.14808376887E+03  0.12500115732E+03 0.  0.
    9000005    1    3    3    0    0  0.33191708564E+02  0.19657346511E+02  0.96251595076E+02  0.10369894090E+03  0.10000000000E+01 0.  0.
    9000005    1    3    3    0    0 -0.21630016828E+02  0.23628134775E+02 -0.30706132491E+02  0.44384827965E+02  0.10000000000E+01 0.  0.
         -4    1    1    2    0  502 -0.11561691735E+02 -0.43285481286E+02  0.20444393459E+02  0.49263492871E+02  0.12700000000E+01 0. -1.
<mgrwt>
<rscale>  1 0.13278778E+03</rscale>
<asrwt>0</asrwt>
<pdfrwt beam="2">  1       21 0.85655165E-02 0.13278778E+03</pdfrwt>
<pdfrwt beam="1">  1       -4 0.21796277E-01 0.13278778E+03</pdfrwt>
<totfact> 0.82591957E+04</totfact>
</mgrwt>
</event>
<event>
 6    4  0.6326233E-003  0.1287576E+03  0.7818608E-02  0.1229311E+00
         -4   -1    0    0    0  501 -0.00000000000E+00  0.00000000000E+00  0.20677547459E+04  0.20677551359E+04  0.12700000000E+01 0. -1.
         21   -1    0    0  501  502  0.00000000000E+00 -0.00000000000E+00 -0.39525661536E+01  0.39525661536E+01  0.00000000000E+00 0. -1.
         25    2    1    2    0    0 -0.12784727464E+01  0.30883884230E+02  0.19335386924E+04  0.19378210417E+04  0.12499226261E+03 0.  0.
    9000005    1    3    3    0    0 -0.22088789217E+01  0.28852436946E+02  0.95780373417E+02  0.10006109232E+03  0.10000000000E+01 0.  0.
    9000005    1    3    3    0    0  0.93040617527E+00  0.20314472840E+01  0.18377583190E+04  0.18377599494E+04  0.10000000000E+01 0.  0.
         -4    1    1    2    0  502  0.12784727464E+01 -0.30883884230E+02  0.13026348733E+03  0.13388666039E+03  0.12700000000E+01 0.  1.
<mgrwt>
<rscale>  1 0.12875758E+03</rscale>
<asrwt>0</asrwt>
<pdfrwt beam="2">  1       21 0.60808875E-03 0.12875758E+03</pdfrwt>
<pdfrwt beam="1">  1       -4 0.31813098E+00 0.12875758E+03</pdfrwt>
<totfact> 0.98706194E+03</totfact>
</mgrwt>
</event>
<event>
 6    4  0.6326233E-003  0.1275656E+03  0.7818608E-02  0.1231113E+00
         -4   -1    0    0    0  501 -0.00000000000E+00  0.00000000000E+00  0.48693807242E+03  0.48693972858E+03  0.12700000000E+01 0. -1.
         21   -1    0    0  501  502  0.00000000000E+00 -0.00000000000E+00 -0.34740998303E+02  0.34740998303E+02  0.00000000000E+00 0.  1.
         25    2    1    2    0    0 -0.10006170365E+02  0.23429939811E+02  0.47228641653E+03  0.48921104713E+03  0.12499561541E+03 0.  0.
    9000005    1    3    3    0    0 -0.29781332136E+02  0.69787634487E+02  0.24904869941E+03  0.26035263845E+03  0.10000000000E+01 0.  0.
    9000005    1    3    3    0    0  0.19775161771E+02 -0.46357694676E+02  0.22323771711E+03  0.22885840868E+03  0.10000000000E+01 0.  0.
         -4    1    1    2    0  502  0.10006170365E+02 -0.23429939811E+02 -0.20089342411E+02  0.32469679755E+02  0.12700000000E+01 0.  1.
<mgrwt>
<rscale>  1 0.12756563E+03</rscale>
<asrwt>0</asrwt>
<pdfrwt beam="2">  1       21 0.53447693E-02 0.12756563E+03</pdfrwt>
<pdfrwt beam="1">  1       -4 0.74915458E-01 0.12756563E+03</pdfrwt>
<totfact> 0.15979755E+04</totfact>
</mgrwt>
</event>
<event>
 6    4  0.6326233E-003  0.1285607E+03  0.7818608E-02  0.1229607E+00
          4   -1    0    0  502    0 -0.00000000000E+00  0.00000000000E+00  0.10670033751E+03  0.10670789533E+03  0.12700000000E+01 0. -1.
         21   -1    0    0  501  502  0.00000000000E+00 -0.00000000000E+00 -0.81664794167E+02  0.81664794167E+02  0.00000000000E+00 0. -1.
         25    2    1    2    0    0  0.13422276339E+02  0.27160587866E+02  0.60185221712E+02  0.14195105850E+03  0.12493993381E+03 0.  0.
    9000005    1    3    3    0    0  0.53071800030E+02  0.62232619482E+01 -0.14013057286E+02  0.55251341361E+02  0.10000000000E+01 0.  0.
    9000005    1    3    3    0    0 -0.39649523691E+02  0.20937325918E+02  0.74198278998E+02  0.86699717138E+02  0.10000000000E+01 0.  0.
          4    1    1    2  501    0 -0.13422276339E+02 -0.27160587866E+02 -0.35149678366E+02  0.46421630998E+02  0.12700000000E+01 0.  1.
<mgrwt>
<rscale>  1 0.12856066E+03</rscale>
<asrwt>0</asrwt>
<pdfrwt beam="2">  1       21 0.12563815E-01 0.12856066E+03</pdfrwt>
<pdfrwt beam="1">  1        4 0.16416777E-01 0.12856066E+03</pdfrwt>
<totfact> 0.69675490E+04</totfact>
</mgrwt>
</event>
<event>
 6    4  0.6326233E-003  0.1437919E+03  0.7818608E-02  0.1208316E+00
         21   -1    0    0  501  502  0.00000000000E+00  0.00000000000E+00  0.25511079369E+02  0.25511079369E+02  0.00000000000E+00 0.  1.
         -4   -1    0    0    0  501 -0.00000000000E+00 -0.00000000000E+00 -0.45505105306E+03  0.45505282528E+03  0.12700000000E+01 0. -1.
         25    2    1    2    0    0  0.86320469729E+01 -0.70543234505E+02 -0.26988261636E+03  0.30579850527E+03  0.12500095616E+03 0.  0.
    9000005    1    3    3    0    0 -0.57660314133E+02 -0.23508813748E+02 -0.10862997135E+03  0.12521520206E+03  0.10000000000E+01 0.  0.
    9000005    1    3    3    0    0  0.66292361106E+02 -0.47034420757E+02 -0.16125264501E+03  0.18058330321E+03  0.10000000000E+01 0.  0.
         -4    1    1    2    0  502 -0.86320469729E+01  0.70543234505E+02 -0.15965735733E+03  0.17476539938E+03  0.12700000000E+01 0.  1.
<mgrwt>
<rscale>  1 0.14379186E+03</rscale>
<asrwt>0</asrwt>
<pdfrwt beam="1">  1       21 0.39247819E-02 0.14379186E+03</pdfrwt>
<pdfrwt beam="2">  1       -4 0.70010414E-01 0.14379186E+03</pdfrwt>
<totfact> 0.31450751E+04</totfact>
</mgrwt>
</event>
<event>
 6    4  0.6326233E-003  0.1318472E+03  0.7818608E-02  0.1224740E+00
         -4   -1    0    0    0  501 -0.00000000000E+00  0.00000000000E+00  0.55641879280E+03  0.55642024216E+03  0.12700000000E+01 0.  1.
         21   -1    0    0  501  502  0.00000000000E+00 -0.00000000000E+00 -0.19251411962E+02  0.19251411962E+02  0.00000000000E+00 0.  1.
         25    2    1    2    0    0  0.38848144347E+02 -0.15771650164E+02  0.50736291088E+03  0.52421446222E+03  0.12500302318E+03 0.  0.
    9000005    1    3    3    0    0 -0.33724479322E+02 -0.37656582989E+02  0.13373049289E+03  0.14296923961E+03  0.10000000000E+01 0.  0.
    9000005    1    3    3    0    0  0.72572623670E+02  0.21884932825E+02  0.37363241799E+03  0.38124522261E+03  0.10000000000E+01 0.  0.
         -4    1    1    2    0  502 -0.38848144347E+02  0.15771650164E+02  0.29804469967E+02  0.51457191899E+02  0.12700000000E+01 0. -1.
<mgrwt>
<rscale>  1 0.13184718E+03</rscale>
<asrwt>0</asrwt>
<pdfrwt beam="2">  1       21 0.29617561E-02 0.13184718E+03</pdfrwt>
<pdfrwt beam="1">  1       -4 0.85606213E-01 0.13184718E+03</pdfrwt>
<totfact> 0.31860206E+04</totfact>
</mgrwt>
</event>
<event>
 6    4  0.6326233E-003  0.1324033E+03  0.7818608E-02  0.1223933E+00
         21   -1    0    0  501  502  0.00000000000E+00  0.00000000000E+00  0.16566011852E+03  0.16566011852E+03  0.00000000000E+00 0.  1.
         -4   -1    0    0    0  501 -0.00000000000E+00 -0.00000000000E+00 -0.61361387953E+02  0.61374529176E+02  0.12700000000E+01 0. -1.
         25    2    1    2    0    0  0.33736568011E+02  0.27697776063E+02  0.22488818451E+02  0.13429955488E+03  0.12500120265E+03 0.  0.
    9000005    1    3    3    0    0 -0.14287866607E+02  0.47215794757E+02  0.54380062483E+02  0.73427961993E+02  0.10000000000E+01 0.  0.
    9000005    1    3    3    0    0  0.48024434618E+02 -0.19518018694E+02 -0.31891244033E+02  0.60871592882E+02  0.10000000000E+01 0.  0.
         -4    1    1    2    0  502 -0.33736568011E+02 -0.27697776063E+02  0.81809912113E+02  0.92735092818E+02  0.12700000000E+01 0.  1.
<mgrwt>
<rscale>  1 0.13240326E+03</rscale>
<asrwt>0</asrwt>
<pdfrwt beam="1">  1       21 0.25486172E-01 0.13240326E+03</pdfrwt>
<pdfrwt beam="2">  1       -4 0.94415990E-02 0.13240326E+03</pdfrwt>
<totfact> 0.49431363E+04</totfact>
</mgrwt>
</event>
<event>
 6    4  0.6326233E-003  0.1272371E+03  0.7818608E-02  0.1231614E+00
         21   -1    0    0  501  502  0.00000000000E+00  0.00000000000E+00  0.12500742031E+04  0.12500742031E+04  0.00000000000E+00 0.  1.
         -4   -1    0    0    0  501 -0.00000000000E+00 -0.00000000000E+00 -0.54259232641E+01  0.55725706158E+01  0.12700000000E+01 0.  1.
         25    2    1    2    0    0 -0.10433076986E+02 -0.21299156634E+02  0.77307468654E+03  0.78347543833E+03  0.12500715309E+03 0.  0.
    9000005    1    3    3    0    0 -0.49930226826E+02 -0.54694946085E+02  0.39576335533E+03  0.40263407468E+03  0.10000000000E+01 0.  0.
    9000005    1    3    3    0    0  0.39497149841E+02  0.33395789451E+02  0.37731133121E+03  0.38084136364E+03  0.10000000000E+01 0.  0.
         -4    1    1    2    0  502  0.10433076986E+02  0.21299156634E+02  0.47157359326E+03  0.47217133536E+03  0.12700000000E+01 0. -1.
<mgrwt>
<rscale>  1 0.12723715E+03</rscale>
<asrwt>0</asrwt>
<pdfrwt beam="1">  1       21 0.19231888E+00 0.12723715E+03</pdfrwt>
<pdfrwt beam="2">  1       -4 0.84608861E-03 0.12723715E+03</pdfrwt>
<totfact> 0.23705659E+04</totfact>
</mgrwt>
</event>
<event>
 6    4  0.6326233E-003  0.1274950E+03  0.7818608E-02  0.1231221E+00
          4   -1    0    0  502    0 -0.00000000000E+00  0.00000000000E+00  0.20503091875E+04  0.20503095808E+04  0.12700000000E+01 0.  1.
         21   -1    0    0  501  502  0.00000000000E+00 -0.00000000000E+00 -0.11195061270E+02  0.11195061270E+02  0.00000000000E+00 0. -1.
         25    2    1    2    0    0 -0.21168680876E+02 -0.13490580798E+02  0.20311377496E+04  0.20351352601E+04  0.12499944172E+03 0.  0.
    9000005    1    3    3    0    0 -0.45579202915E+02  0.43993652245E+02  0.11872023661E+04  0.11888916533E+04  0.10000000000E+01 0.  0.
    9000005    1    3    3    0    0  0.24410522039E+02 -0.57484233043E+02  0.84393538348E+03  0.84624360684E+03  0.10000000000E+01 0.  0.
          4    1    1    2  501    0  0.21168680876E+02  0.13490580798E+02  0.79763766272E+01  0.26369381950E+02  0.12700000000E+01 0. -1.
<mgrwt>
<rscale>  1 0.12749498E+03</rscale>
<asrwt>0</asrwt>
<pdfrwt beam="2">  1       21 0.17223187E-02 0.12749498E+03</pdfrwt>
<pdfrwt beam="1">  1        4 0.31543746E+00 0.12749498E+03</pdfrwt>
<totfact> 0.19804898E+03</totfact>
</mgrwt>
</event>
<event>
 6    4  0.6326233E-003  0.1276857E+03  0.7818608E-02  0.1230931E+00
         21   -1    0    0  501  502  0.00000000000E+00  0.00000000000E+00  0.10195911453E+02  0.10195911453E+02  0.00000000000E+00 0.  1.
         -4   -1    0    0    0  501 -0.00000000000E+00 -0.00000000000E+00 -0.59026376822E+03  0.59026513447E+03  0.12700000000E+01 0.  1.
         25    2    1    2    0    0  0.14325819363E+02  0.21793632149E+02 -0.44821415347E+03  0.46604674804E+03  0.12499380979E+03 0.  0.
    9000005    1    3    3    0    0  0.53825001745E+02  0.26870998010E+02 -0.10901966546E+03  0.12452095729E+03  0.10000000000E+01 0.  0.
    9000005    1    3    3    0    0 -0.39499182382E+02 -0.50773658603E+01 -0.33919448800E+03  0.34152579075E+03  0.10000000000E+01 0.  0.
         -4    1    1    2    0  502 -0.14325819363E+02 -0.21793632149E+02 -0.13185370330E+03  0.13441429789E+03  0.12700000000E+01 0. -1.
<mgrwt>
<rscale>  1 0.12768572E+03</rscale>
<asrwt>0</asrwt>
<pdfrwt beam="1">  1       21 0.15686014E-02 0.12768572E+03</pdfrwt>
<pdfrwt beam="2">  1       -4 0.90816021E-01 0.12768572E+03</pdfrwt>
<totfact> 0.77714040E+04</totfact>
</mgrwt>
</event>
<event>
 6    4  0.6326233E-003  0.1299224E+03  0.7818608E-02  0.1227571E+00
         21   -1    0    0  501  502  0.00000000000E+00  0.00000000000E+00  0.27816164990E+03  0.27816164990E+03  0.00000000000E+00 0.  1.
         -4   -1    0    0    0  501 -0.00000000000E+00 -0.00000000000E+00 -0.35457166925E+02  0.35479903979E+02  0.12700000000E+01 0.  1.
         25    2    1    2    0    0 -0.24503600430E+02  0.25580576292E+02  0.92947318021E+02  0.15974674022E+03  0.12500009906E+03 0.  0.
    9000005    1    3    3    0    0  0.37472871241E+02 -0.81450711499E+01 -0.53615696420E+01  0.38733766821E+02  0.10000000000E+01 0.  0.
    9000005    1    3    3    0    0 -0.61976471672E+02  0.33725647442E+02  0.98308887663E+02  0.12101297339E+03  0.10000000000E+01 0.  0.
         -4    1    1    2    0  502  0.24503600430E+02 -0.25580576292E+02  0.14975716496E+03  0.15389481367E+03  0.12700000000E+01 0. -1.
<mgrwt>
<rscale>  1 0.12992235E+03</rscale>
<asrwt>0</asrwt>
<pdfrwt beam="1">  1       21 0.42794099E-01 0.12992235E+03</pdfrwt>
<pdfrwt beam="2">  1       -4 0.54569210E-02 0.12992235E+03</pdfrwt>
<totfact> 0.44139801E+04</totfact>
</mgrwt>
</event>
<event>
 6    4  0.6326233E-003  0.1301005E+03  0.7818608E-02  0.1227307E+00
         -4   -1    0    0    0  501 -0.00000000000E+00  0.00000000000E+00  0.36838672804E+02  0.36860557700E+02  0.12700000000E+01 0. -1.
         21   -1    0    0  501  502  0.00000000000E+00 -0.00000000000E+00 -0.26020737611E+03  0.26020737611E+03  0.00000000000E+00 0. -1.
         25    2    1    2    0    0  0.10913055444E+02 -0.34375406028E+02 -0.22611845151E+03  0.26087487738E+03  0.12500153686E+03 0.  0.
    9000005    1    3    3    0    0  0.18238332307E+02  0.18345985731E+02 -0.19983139970E+03  0.20150136542E+03  0.10000000000E+01 0.  0.
    9000005    1    3    3    0    0 -0.73252768627E+01 -0.52721391759E+02 -0.26287051806E+02  0.59373511962E+02  0.10000000000E+01 0.  0.
         -4    1    1    2    0  502 -0.10913055444E+02  0.34375406028E+02  0.27497482024E+01  0.36193056432E+02  0.12700000000E+01 0.  1.
<mgrwt>
<rscale>  1 0.13010053E+03</rscale>
<asrwt>0</asrwt>
<pdfrwt beam="2">  1       21 0.40031904E-01 0.13010053E+03</pdfrwt>
<pdfrwt beam="1">  1       -4 0.56694100E-02 0.13010053E+03</pdfrwt>
<totfact> 0.47457576E+04</totfact>
</mgrwt>
</event>
<event>
 6    4  0.6326233E-003  0.1376447E+03  0.7818608E-02  0.1216534E+00
         21   -1    0    0  501  502  0.00000000000E+00  0.00000000000E+00  0.71034934688E+03  0.71034934688E+03  0.00000000000E+00 0. -1.
          4   -1    0    0  502    0 -0.00000000000E+00 -0.00000000000E+00 -0.18706550929E+02  0.18749611934E+02  0.12700000000E+01 0. -1.
         25    2    1    2    0    0 -0.57531917901E+02 -0.33770505372E+01  0.26534561124E+03  0.29892198518E+03  0.12499893510E+03 0.  0.
    9000005    1    3    3    0    0 -0.54858491092E+02  0.55767531395E+02  0.14304599070E+03  0.16304179544E+03  0.10000000000E+01 0.  0.
    9000005    1    3    3    0    0 -0.26734268091E+01 -0.59144581932E+02  0.12229962053E+03  0.13588018974E+03  0.10000000000E+01 0.  0.
          4    1    1    2  501    0  0.57531917901E+02  0.33770505372E+01  0.42629718472E+03  0.43017697364E+03  0.12700000000E+01 0.  1.
<mgrwt>
<rscale>  1 0.13764469E+03</rscale>
<asrwt>0</asrwt>
<pdfrwt beam="1">  1       21 0.10928449E+00 0.13764469E+03</pdfrwt>
<pdfrwt beam="2">  1        4 0.28813312E-02 0.13764469E+03</pdfrwt>
<totfact> 0.15783459E+04</totfact>
</mgrwt>
</event>
<event>
 6    4  0.6326233E-003  0.1284391E+03  0.7818608E-02  0.1229790E+00
         21   -1    0    0  501  502  0.00000000000E+00  0.00000000000E+00  0.68234204467E+02  0.68234204467E+02  0.00000000000E+00 0.  1.
         -4   -1    0    0    0  501 -0.00000000000E+00 -0.00000000000E+00 -0.91440141180E+02  0.91448960186E+02  0.12700000000E+01 0.  1.
         25    2    1    2    0    0  0.81102248712E+01 -0.28385289026E+02 -0.19003620345E+02  0.12983734847E+03  0.12500039637E+03 0.  0.
    9000005    1    3    3    0    0  0.53613792534E+02  0.22925190282E+02  0.12163235963E+01  0.58330802690E+02  0.10000000000E+01 0.  0.
    9000005    1    3    3    0    0 -0.45503567663E+02 -0.51310479308E+02 -0.20219943942E+02  0.71506545784E+02  0.10000000000E+01 0.  0.
         -4    1    1    2    0  502 -0.81102248712E+01  0.28385289026E+02 -0.42023163678E+01  0.29845816179E+02  0.12700000000E+01 0. -1.
<mgrwt>
<rscale>  1 0.12843909E+03</rscale>
<asrwt>0</asrwt>
<pdfrwt beam="1">  1       21 0.10497570E-01 0.12843909E+03</pdfrwt>
<pdfrwt beam="2">  1       -4 0.14069301E-01 0.12843909E+03</pdfrwt>
<totfact> 0.12527026E+05</totfact>
</mgrwt>
</event>
<event>
 6    4  0.6326233E-003  0.1268222E+03  0.7818608E-02  0.1232249E+00
         -4   -1    0    0    0  501 -0.00000000000E+00  0.00000000000E+00  0.62270941658E+03  0.62271071165E+03  0.12700000000E+01 0. -1.
         21   -1    0    0  501  502  0.00000000000E+00 -0.00000000000E+00 -0.84375432722E+02  0.84375432722E+02  0.00000000000E+00 0.  1.
         25    2    1    2    0    0 -0.78031516542E+01  0.19917923315E+02  0.61476383614E+03  0.62770889281E+03  0.12500506805E+03 0.  0.
    9000005    1    3    3    0    0 -0.63786066093E+02 -0.66491681110E+01  0.27949145055E+03  0.28675659468E+03  0.10000000000E+01 0.  0.
    9000005    1    3    3    0    0  0.55982914439E+02  0.26567091426E+02  0.33527238560E+03  0.34095229813E+03  0.10000000000E+01 0.  0.
         -4    1    1    2    0  502  0.78031516542E+01 -0.19917923315E+02 -0.76429852284E+02  0.79377251559E+02  0.12700000000E+01 0.  1.
<mgrwt>
<rscale>  1 0.12682224E+03</rscale>
<asrwt>0</asrwt>
<pdfrwt beam="2">  1       21 0.12980836E-01 0.12682224E+03</pdfrwt>
<pdfrwt beam="1">  1       -4 0.95802281E-01 0.12682224E+03</pdfrwt>
<totfact> 0.19883322E+03</totfact>
</mgrwt>
</event>
<event>
 6    4  0.6326233E-003  0.1480935E+03  0.7818608E-02  0.1202835E+00
          4   -1    0    0  502    0 -0.00000000000E+00  0.00000000000E+00  0.59877520369E+02  0.59890987181E+02  0.12700000000E+01 0. -1.
         21   -1    0    0  501  502  0.00000000000E+00 -0.00000000000E+00 -0.42339192351E+03  0.42339192351E+03  0.00000000000E+00 0.  1.
         25    2    1    2    0    0 -0.83833743733E+01  0.78969535779E+02 -0.44653253513E+02  0.15467902424E+03  0.12500087577E+03 0.  0.
    9000005    1    3    3    0    0 -0.51435913872E+02  0.14017803659E+02 -0.54360148902E+02  0.76145767078E+02  0.10000000000E+01 0.  0.
    9000005    1    3    3    0    0  0.43052539499E+02  0.64951732120E+02  0.97068953893E+01  0.78533257164E+02  0.10000000000E+01 0.  0.
          4    1    1    2  501    0  0.83833743733E+01 -0.78969535779E+02 -0.31886114963E+03  0.32860388645E+03  0.12700000000E+01 0.  1.
<mgrwt>
<rscale>  1 0.14809351E+03</rscale>
<asrwt>0</asrwt>
<pdfrwt beam="2">  1       21 0.65137219E-01 0.14809351E+03</pdfrwt>
<pdfrwt beam="1">  1        4 0.92131087E-02 0.14809351E+03</pdfrwt>
<totfact> 0.78512653E+03</totfact>
</mgrwt>
</event>
<event>
 6    4  0.6326233E-003  0.1285326E+03  0.7818608E-02  0.1229649E+00
         21   -1    0    0  501  502  0.00000000000E+00  0.00000000000E+00  0.12215933243E+02  0.12215933243E+02  0.00000000000E+00 0. -1.
         -4   -1    0    0    0  501 -0.00000000000E+00 -0.00000000000E+00 -0.53602718221E+03  0.53602868670E+03  0.12700000000E+01 0. -1.
         25    2    1    2    0    0 -0.29085572694E+01  0.29785126245E+02 -0.37405561233E+03  0.39552272546E+03  0.12500004716E+03 0.  0.
    9000005    1    3    3    0    0  0.82095797195E+00  0.78903670429E+02 -0.24420149493E+03  0.25663560413E+03  0.10000000000E+01 0.  0.
    9000005    1    3    3    0    0 -0.37295152413E+01 -0.49118544183E+02 -0.12985411740E+03  0.13888712133E+03  0.10000000000E+01 0.  0.
         -4    1    1    2    0  502  0.29085572694E+01 -0.29785126245E+02 -0.14975563663E+03  0.15272189448E+03  0.12700000000E+01 0.  1.
<mgrwt>
<rscale>  1 0.12853258E+03</rscale>
<asrwt>0</asrwt>
<pdfrwt beam="1">  1       21 0.18793744E-02 0.12853258E+03</pdfrwt>
<pdfrwt beam="2">  1       -4 0.82470911E-01 0.12853258E+03</pdfrwt>
<totfact> 0.72233803E+04</totfact>
</mgrwt>
</event>
<event>
 6    4  0.6326233E-003  0.1390448E+03  0.7818608E-02  0.1214620E+00
          4   -1    0    0  502    0 -0.00000000000E+00  0.00000000000E+00  0.32173017348E+03  0.32173268007E+03  0.12700000000E+01 0. -1.
         21   -1    0    0  501  502  0.00000000000E+00 -0.00000000000E+00 -0.48373913241E+02  0.48373913241E+02  0.00000000000E+00 0.  1.
         25    2    1    2    0    0 -0.59005218704E+02  0.15048314887E+02  0.27610249125E+03  0.30913756593E+03  0.12500152551E+03 0.  0.
    9000005    1    3    3    0    0 -0.71755143342E+02 -0.23930603319E+02  0.85459067109E+02  0.11413030501E+03  0.10000000000E+01 0.  0.
    9000005    1    3    3    0    0  0.12749924638E+02  0.38978918206E+02  0.19064342414E+03  0.19500726092E+03  0.10000000000E+01 0.  0.
          4    1    1    2  501    0  0.59005218704E+02 -0.15048314887E+02 -0.27462310115E+01  0.60969027383E+02  0.12700000000E+01 0.  1.
<mgrwt>
<rscale>  1 0.13904477E+03</rscale>
<asrwt>0</asrwt>
<pdfrwt beam="2">  1       21 0.74421407E-02 0.13904477E+03</pdfrwt>
<pdfrwt beam="1">  1        4 0.49498424E-01 0.13904477E+03</pdfrwt>
<totfact> 0.21967807E+04</totfact>
</mgrwt>
</event>
<event>
 6    4  0.6326233E-003  0.1356777E+03  0.7818608E-02  0.1219266E+00
         21   -1    0    0  501  502  0.00000000000E+00  0.00000000000E+00  0.35398997811E+02  0.35398997811E+02  0.00000000000E+00 0. -1.
          4   -1    0    0  502    0 -0.00000000000E+00 -0.00000000000E+00 -0.26295668098E+03  0.26295974781E+03  0.12700000000E+01 0. -1.
         25    2    1    2    0    0  0.14373278115E+02  0.50766845300E+02 -0.13256422108E+03  0.18968844405E+03  0.12499827755E+03 0.  0.
    9000005    1    3    3    0    0 -0.49266888365E+02  0.38029249955E+02 -0.31983705764E+02  0.69981480233E+02  0.10000000000E+01 0.  0.
    9000005    1    3    3    0    0  0.63640166480E+02  0.12737595345E+02 -0.10058051531E+03  0.11970696381E+03  0.10000000000E+01 0.  0.
          4    1    1    2  501    0 -0.14373278115E+02 -0.50766845300E+02 -0.94993462086E+02  0.10867030158E+03  0.12700000000E+01 0.  1.
<mgrwt>
<rscale>  1 0.13567768E+03</rscale>
<asrwt>0</asrwt>
<pdfrwt beam="1">  1       21 0.54459996E-02 0.13567768E+03</pdfrwt>
<pdfrwt beam="2">  1        4 0.40456862E-01 0.13567768E+03</pdfrwt>
<totfact> 0.55859079E+04</totfact>
</mgrwt>
</event>
<event>
 6    4  0.6326233E-003  0.1364649E+03  0.7818608E-02  0.1218166E+00
         -4   -1    0    0    0  501 -0.00000000000E+00  0.00000000000E+00  0.25015519940E+03  0.25015842318E+03  0.12700000000E+01 0.  1.
         21   -1    0    0  501  502  0.00000000000E+00 -0.00000000000E+00 -0.45127185576E+02  0.45127185576E+02  0.00000000000E+00 0.  1.
         25    2    1    2    0    0  0.45361639688E+02 -0.30657659654E+02  0.19742069092E+03  0.23999497020E+03  0.12500034426E+03 0.  0.
    9000005    1    3    3    0    0 -0.49763216831E+01 -0.48462064625E+02  0.17572015738E+03  0.18235106031E+03  0.10000000000E+01 0.  0.
    9000005    1    3    3    0    0  0.50337961371E+02  0.17804404971E+02  0.21700533537E+02  0.57643909888E+02  0.10000000000E+01 0.  0.
         -4    1    1    2    0  502 -0.45361639688E+02  0.30657659654E+02  0.76073229077E+01  0.55290638561E+02  0.12700000000E+01 0. -1.
<mgrwt>
<rscale>  1 0.13646485E+03</rscale>
<asrwt>0</asrwt>
<pdfrwt beam="2">  1       21 0.69426441E-02 0.13646485E+03</pdfrwt>
<pdfrwt beam="1">  1       -4 0.38487037E-01 0.13646485E+03</pdfrwt>
<totfact> 0.40800986E+04</totfact>
</mgrwt>
</event>
<event>
 6    4  0.6326233E-003  0.1287231E+03  0.7818608E-02  0.1229363E+00
         -4   -1    0    0    0  501 -0.00000000000E+00  0.00000000000E+00  0.41939039054E+03  0.41939231345E+03  0.12700000000E+01 0. -1.
         21   -1    0    0  501  502  0.00000000000E+00 -0.00000000000E+00 -0.15268867788E+02  0.15268867788E+02  0.00000000000E+00 0. -1.
         25    2    1    2    0    0  0.29693898314E+02  0.79119614601E+01  0.33980712893E+03  0.36337106352E+03  0.12500127279E+03 0.  0.
    9000005    1    3    3    0    0  0.18781079467E+02 -0.51325819817E+02  0.24514336657E+03  0.25116396816E+03  0.10000000000E+01 0.  0.
    9000005    1    3    3    0    0  0.10912818847E+02  0.59237781278E+02  0.94663762354E+02  0.11220709536E+03  0.10000000000E+01 0.  0.
         -4    1    1    2    0  502 -0.29693898314E+02 -0.79119614601E+01  0.64314393827E+02  0.71290117720E+02  0.12700000000E+01 0.  1.
<mgrwt>
<rscale>  1 0.12872313E+03</rscale>
<asrwt>0</asrwt>
<pdfrwt beam="2">  1       21 0.23490569E-02 0.12872313E+03</pdfrwt>
<pdfrwt beam="1">  1       -4 0.64525800E-01 0.12872313E+03</pdfrwt>
<totfact> 0.85830988E+04</totfact>
</mgrwt>
</event>
<event>
 6    4  0.6326233E-003  0.1275813E+03  0.7818608E-02  0.1231089E+00
         21   -1    0    0  501  502  0.00000000000E+00  0.00000000000E+00  0.10967652095E+02  0.10967652095E+02  0.00000000000E+00 0. -1.
          4   -1    0    0  502    0 -0.00000000000E+00 -0.00000000000E+00 -0.11045782554E+04  0.11045789855E+04  0.12700000000E+01 0.  1.
         25    2    1    2    0    0  0.15129472051E+02 -0.20574233669E+02 -0.10781370178E+04  0.10856594369E+04  0.12499913541E+03 0.  0.
    9000005    1    3    3    0    0 -0.40596231695E+01  0.52100222656E+02 -0.41723091100E+03  0.42049202946E+03  0.10000000000E+01 0.  0.
    9000005    1    3    3    0    0  0.19189095220E+02 -0.72674456325E+02 -0.66090610679E+03  0.66516740748E+03  0.10000000000E+01 0.  0.
          4    1    1    2  501    0 -0.15129472051E+02  0.20574233669E+02 -0.15473585549E+02  0.29887200694E+02  0.12700000000E+01 0. -1.
<mgrwt>
<rscale>  1 0.12758128E+03</rscale>
<asrwt>0</asrwt>
<pdfrwt beam="1">  1       21 0.16873307E-02 0.12758128E+03</pdfrwt>
<pdfrwt beam="2">  1        4 0.16994087E+00 0.12758128E+03</pdfrwt>
<totfact> 0.15068829E+04</totfact>
</mgrwt>
</event>
<event>
 6    4  0.6326233E-003  0.1309458E+03  0.7818608E-02  0.1226059E+00
         21   -1    0    0  501  502  0.00000000000E+00  0.00000000000E+00  0.12855401758E+03  0.12855401758E+03  0.00000000000E+00 0.  1.
         -4   -1    0    0    0  501 -0.00000000000E+00 -0.00000000000E+00 -0.62682826456E+02  0.62695690702E+02  0.12700000000E+01 0. -1.
         25    2    1    2    0    0  0.38681097057E+02  0.50815973253E+01  0.22439163863E+02  0.13285447052E+03  0.12499897744E+03 0.  0.
    9000005    1    3    3    0    0  0.50023092459E+02 -0.33997630030E+02 -0.29144099985E+02  0.67145567171E+02  0.10000000000E+01 0.  0.
    9000005    1    3    3    0    0 -0.11341995402E+02  0.39079227355E+02  0.51583263848E+02  0.65708903351E+02  0.10000000000E+01 0.  0.
         -4    1    1    2    0  502 -0.38681097057E+02 -0.50815973253E+01  0.43432027256E+02  0.58395237755E+02  0.12700000000E+01 0.  1.
<mgrwt>
<rscale>  1 0.13094577E+03</rscale>
<asrwt>0</asrwt>
<pdfrwt beam="1">  1       21 0.19777541E-01 0.13094577E+03</pdfrwt>
<pdfrwt beam="2">  1       -4 0.96449839E-02 0.13094577E+03</pdfrwt>
<totfact> 0.76542912E+04</totfact>
</mgrwt>
</event>
<event>
 6    4  0.6326233E-003  0.1313193E+03  0.7818608E-02  0.1225511E+00
         21   -1    0    0  501  502  0.00000000000E+00  0.00000000000E+00  0.39445044654E+02  0.39445044654E+02  0.00000000000E+00 0.  1.
          4   -1    0    0  502    0 -0.00000000000E+00 -0.00000000000E+00 -0.21475144488E+03  0.21475520012E+03  0.12700000000E+01 0. -1.
         25    2    1    2    0    0  0.41421454923E+01  0.40042345287E+02 -0.16805377554E+03  0.21327641003E+03  0.12499683524E+03 0.  0.
    9000005    1    3    3    0    0 -0.13653036172E+02  0.55948929866E+02 -0.17823296897E+03  0.18730904778E+03  0.10000000000E+01 0.  0.
    9000005    1    3    3    0    0  0.17795181664E+02 -0.15906584579E+02  0.10179193439E+02  0.25967362255E+02  0.10000000000E+01 0.  0.
          4    1    1    2  501    0 -0.41421454923E+01 -0.40042345287E+02 -0.72526246950E+01  0.40923834746E+02  0.12700000000E+01 0.  1.
<mgrwt>
<rscale>  1 0.13131929E+03</rscale>
<asrwt>0</asrwt>
<pdfrwt beam="1">  1       21 0.60684684E-02 0.13131929E+03</pdfrwt>
<pdfrwt beam="2">  1        4 0.33040545E-01 0.13131929E+03</pdfrwt>
<totfact> 0.68617054E+04</totfact>
</mgrwt>
</event>
<event>
 6    4  0.6326233E-003  0.1267215E+03  0.7818608E-02  0.1232403E+00
          4   -1    0    0  502    0 -0.00000000000E+00  0.00000000000E+00  0.41951277435E+03  0.41951469669E+03  0.12700000000E+01 0. -1.
         21   -1    0    0  501  502  0.00000000000E+00 -0.00000000000E+00 -0.13004048445E+02  0.13004048445E+02  0.00000000000E+00 0. -1.
         25    2    1    2    0    0  0.16128925428E+02  0.13092555121E+02  0.35647203474E+03  0.37832612020E+03  0.12500713756E+03 0.  0.
    9000005    1    3    3    0    0  0.11767373993E+02  0.56764674876E+01  0.36554663594E+03  0.36578140524E+03  0.10000000000E+01 0.  0.
    9000005    1    3    3    0    0  0.43615514353E+01  0.74160876332E+01 -0.90746011943E+01  0.12544714965E+02  0.10000000000E+01 0.  0.
          4    1    1    2  501    0 -0.16128925428E+02 -0.13092555121E+02  0.50036691161E+02  0.54192624936E+02  0.12700000000E+01 0.  1.
<mgrwt>
<rscale>  1 0.12672151E+03</rscale>
<asrwt>0</asrwt>
<pdfrwt beam="2">  1       21 0.20006232E-02 0.12672151E+03</pdfrwt>
<pdfrwt beam="1">  1        4 0.64545334E-01 0.12672151E+03</pdfrwt>
<totfact> 0.11096343E+05</totfact>
</mgrwt>
</event>
<event>
 6    4  0.6326233E-003  0.1347499E+03  0.7818608E-02  0.1220573E+00
          4   -1    0    0  502    0 -0.00000000000E+00  0.00000000000E+00  0.71089968331E+03  0.71090081772E+03  0.12700000000E+01 0.  1.
         21   -1    0    0  501  502  0.00000000000E+00 -0.00000000000E+00 -0.14880505342E+02  0.14880505342E+02  0.00000000000E+00 0.  1.
         25    2    1    2    0    0  0.24878096058E+02  0.43754491322E+02  0.62087254489E+03  0.63532688957E+03  0.12499665773E+03 0.  0.
    9000005    1    3    3    0    0 -0.33485144697E+02 -0.18849421592E+02  0.94144881716E+02  0.10168979478E+03  0.10000000000E+01 0.  0.
    9000005    1    3    3    0    0  0.58363240754E+02  0.62603912914E+02  0.52672766317E+03  0.53363709479E+03  0.10000000000E+01 0.  0.
          4    1    1    2  501    0 -0.24878096058E+02 -0.43754491322E+02  0.75146633079E+02  0.90454433487E+02  0.12700000000E+01 0. -1.
<mgrwt>
<rscale>  1 0.13474992E+03</rscale>
<asrwt>0</asrwt>
<pdfrwt beam="2">  1       21 0.22893091E-02 0.13474992E+03</pdfrwt>
<pdfrwt beam="1">  1        4 0.10937341E+00 0.13474992E+03</pdfrwt>
<totfact> 0.27707210E+04</totfact>
</mgrwt>
</event>
<event>
 6    4  0.6326233E-003  0.1266580E+03  0.7818608E-02  0.1232501E+00
         21   -1    0    0  501  502  0.00000000000E+00  0.00000000000E+00  0.25794102704E+02  0.25794102704E+02  0.00000000000E+00 0.  1.
          4   -1    0    0  502    0 -0.00000000000E+00 -0.00000000000E+00 -0.24142917389E+03  0.24143251418E+03  0.12700000000E+01 0. -1.
         25    2    1    2    0    0 -0.18002516920E+02 -0.96636909905E+01 -0.21121930468E+03  0.24628408999E+03  0.12499912309E+03 0.  0.
    9000005    1    3    3    0    0 -0.24074127360E+02  0.10470762911E+02  0.68906960015E+01  0.27160305143E+02  0.10000000000E+01 0.  0.
    9000005    1    3    3    0    0  0.60716104398E+01 -0.20134453901E+02 -0.21811000068E+03  0.21912378484E+03  0.10000000000E+01 0.  0.
          4    1    1    2  501    0  0.18002516920E+02  0.96636909905E+01 -0.44157665034E+01  0.20942526897E+02  0.12700000000E+01 0.  1.
<mgrwt>
<rscale>  1 0.12665804E+03</rscale>
<asrwt>0</asrwt>
<pdfrwt beam="1">  1       21 0.39683234E-02 0.12665804E+03</pdfrwt>
<pdfrwt beam="2">  1        4 0.37145613E-01 0.12665804E+03</pdfrwt>
<totfact> 0.11108446E+05</totfact>
</mgrwt>
</event>
<event>
 6    4  0.6326233E-003  0.1269300E+03  0.7818608E-02  0.1232084E+00
         -4   -1    0    0    0  501 -0.00000000000E+00  0.00000000000E+00  0.51912302374E+03  0.51912457722E+03  0.12700000000E+01 0. -1.
         21   -1    0    0  501  502  0.00000000000E+00 -0.00000000000E+00 -0.17713708192E+02  0.17713708192E+02  0.00000000000E+00 0.  1.
         25    2    1    2    0    0  0.14822293287E+02 -0.16353253052E+02  0.49865938644E+03  0.51456039786E+03  0.12499636034E+03 0.  0.
    9000005    1    3    3    0    0  0.34721193509E+02  0.41778813381E+02  0.13131437797E+03  0.14211085950E+03  0.10000000000E+01 0.  0.
    9000005    1    3    3    0    0 -0.19898900222E+02 -0.58132066432E+02  0.36734500848E+03  0.37244953837E+03  0.10000000000E+01 0.  0.
         -4    1    1    2    0  502 -0.14822293287E+02  0.16353253052E+02  0.27499291051E+01  0.22277887551E+02  0.12700000000E+01 0.  1.
<mgrwt>
<rscale>  1 0.12692998E+03</rscale>
<asrwt>0</asrwt>
<pdfrwt beam="2">  1       21 0.27251863E-02 0.12692998E+03</pdfrwt>
<pdfrwt beam="1">  1       -4 0.79868690E-01 0.12692998E+03</pdfrwt>
<totfact> 0.42385698E+04</totfact>
</mgrwt>
</event>
<event>
 6    4  0.6326233E-003  0.1351616E+03  0.7818608E-02  0.1219992E+00
         -4   -1    0    0    0  501 -0.00000000000E+00  0.00000000000E+00  0.36776506246E+02  0.36798428114E+02  0.12700000000E+01 0. -1.
         21   -1    0    0  501  502  0.00000000000E+00 -0.00000000000E+00 -0.24465830877E+03  0.24465830877E+03  0.00000000000E+00 0.  1.
         25    2    1    2    0    0  0.30694138437E+02  0.41205433628E+02 -0.12601243795E+03  0.18479121226E+03  0.12501455801E+03 0.  0.
    9000005    1    3    3    0    0  0.73128380599E+02  0.53906751274E+02 -0.84965156171E+02  0.12439363185E+03  0.10000000000E+01 0.  0.
    9000005    1    3    3    0    0 -0.42434242161E+02 -0.12701317645E+02 -0.41047281775E+02  0.60397580406E+02  0.10000000000E+01 0.  0.
         -4    1    1    2    0  502 -0.30694138437E+02 -0.41205433628E+02 -0.81869364578E+02  0.96665524627E+02  0.12700000000E+01 0.  1.
<mgrwt>
<rscale>  1 0.13516160E+03</rscale>
<asrwt>0</asrwt>
<pdfrwt beam="2">  1       21 0.37639741E-01 0.13516160E+03</pdfrwt>
<pdfrwt beam="1">  1       -4 0.56598638E-02 0.13516160E+03</pdfrwt>
<totfact> 0.54030793E+04</totfact>
</mgrwt>
</event>
<event>
 6    4  0.6326233E-003  0.1285200E+03  0.7818608E-02  0.1229668E+00
          4   -1    0    0  502    0 -0.00000000000E+00  0.00000000000E+00  0.33184457408E+04  0.33184459839E+04  0.12700000000E+01 0. -1.
         21   -1    0    0  501  502  0.00000000000E+00 -0.00000000000E+00 -0.19108327412E+01  0.19108327412E+01  0.00000000000E+00 0. -1.
         25    2    1    2    0    0 -0.20700845955E+02 -0.21551759503E+02  0.25462272545E+04  0.25494686941E+04  0.12499754856E+03 0.  0.
    9000005    1    3    3    0    0 -0.31309732984E+01 -0.53490619723E+02  0.49066683524E+03  0.49358483830E+03  0.10000000000E+01 0.  0.
    9000005    1    3    3    0    0 -0.17569872657E+02  0.31938860221E+02  0.20555604192E+04  0.20558838558E+04  0.10000000000E+01 0.  0.
          4    1    1    2  501    0  0.20700845955E+02  0.21551759503E+02  0.77030765361E+03  0.77088812254E+03  0.12700000000E+01 0.  1.
<mgrwt>
<rscale>  1 0.12852000E+03</rscale>
<asrwt>0</asrwt>
<pdfrwt beam="2">  1       21 0.29397692E-03 0.12852000E+03</pdfrwt>
<pdfrwt beam="1">  1        4 0.51055798E+00 0.12852000E+03</pdfrwt>
<totfact> 0.15069806E+03</totfact>
</mgrwt>
</event>
<event>
 6    4  0.6326233E-003  0.1283996E+03  0.7818608E-02  0.1229850E+00
         21   -1    0    0  501  502  0.00000000000E+00  0.00000000000E+00  0.19275537694E+03  0.19275537694E+03  0.00000000000E+00 0. -1.
         -4   -1    0    0    0  501 -0.00000000000E+00 -0.00000000000E+00 -0.32273589367E+02  0.32298567625E+02  0.12700000000E+01 0. -1.
         25    2    1    2    0    0 -0.21870083314E+02 -0.19557401456E+02  0.13179751268E+03  0.18400284200E+03  0.12500267605E+03 0.  0.
    9000005    1    3    3    0    0 -0.16328779686E+02 -0.24238107007E+02 -0.17795003863E+02  0.34231229014E+02  0.10000000000E+01 0.  0.
    9000005    1    3    3    0    0 -0.55413036277E+01  0.46807055504E+01  0.14959251654E+03  0.14977161298E+03  0.10000000000E+01 0.  0.
         -4    1    1    2    0  502  0.21870083314E+02  0.19557401456E+02  0.28684274898E+02  0.41051102571E+02  0.12700000000E+01 0.  1.
<mgrwt>
<rscale>  1 0.12839962E+03</rscale>
<asrwt>0</asrwt>
<pdfrwt beam="1">  1       21 0.29654673E-01 0.12839962E+03</pdfrwt>
<pdfrwt beam="2">  1       -4 0.49674109E-02 0.12839962E+03</pdfrwt>
<totfact> 0.10561004E+05</totfact>
</mgrwt>
</event>
<event>
 6    4  0.6326233E-003  0.1273888E+03  0.7818608E-02  0.1231383E+00
          4   -1    0    0  502    0 -0.00000000000E+00  0.00000000000E+00  0.50294749959E+02  0.50310781881E+02  0.12700000000E+01 0. -1.
         21   -1    0    0  501  502  0.00000000000E+00 -0.00000000000E+00 -0.16405180313E+03  0.16405180313E+03  0.00000000000E+00 0. -1.
         25    2    1    2    0    0  0.19058422999E+02 -0.15484241652E+02 -0.13222835734E+03  0.18360893150E+03  0.12499966406E+03 0.  0.
    9000005    1    3    3    0    0 -0.47616616036E+02  0.36889092853E+01 -0.91328560552E+02  0.10306724090E+03  0.10000000000E+01 0.  0.
    9000005    1    3    3    0    0  0.66675039035E+02 -0.19173150938E+02 -0.40899796789E+02  0.80541690600E+02  0.10000000000E+01 0.  0.
          4    1    1    2  501    0 -0.19058422999E+02  0.15484241652E+02  0.18471304167E+02  0.30753653513E+02  0.12700000000E+01 0.  1.
<mgrwt>
<rscale>  1 0.12738878E+03</rscale>
<asrwt>0</asrwt>
<pdfrwt beam="2">  1       21 0.25238739E-01 0.12738878E+03</pdfrwt>
<pdfrwt beam="1">  1        4 0.77392652E-02 0.12738878E+03</pdfrwt>
<totfact> 0.69754722E+04</totfact>
</mgrwt>
</event>
<event>
 6    4  0.6326233E-003  0.1301454E+03  0.7818608E-02  0.1227240E+00
         21   -1    0    0  501  502  0.00000000000E+00  0.00000000000E+00  0.17835088387E+03  0.17835088387E+03  0.00000000000E+00 0.  1.
         -4   -1    0    0    0  501 -0.00000000000E+00 -0.00000000000E+00 -0.15412279167E+03  0.15412802410E+03  0.12700000000E+01 0. -1.
         25    2    1    2    0    0 -0.33661989477E+02 -0.13442937218E+02 -0.12407078031E+03  0.17980929547E+03  0.12499592839E+03 0.  0.
    9000005    1    3    3    0    0 -0.16039864483E+02 -0.13035544183E+02 -0.14835181984E+03  0.14978806733E+03  0.10000000000E+01 0.  0.
    9000005    1    3    3    0    0 -0.17622124995E+02 -0.40739303446E+00  0.24281039528E+02  0.30021228139E+02  0.10000000000E+01 0.  0.
         -4    1    1    2    0  502  0.33661989477E+02  0.13442937218E+02  0.14829887250E+03  0.15266961250E+03  0.12700000000E+01 0.  1.
<mgrwt>
<rscale>  1 0.13014540E+03</rscale>
<asrwt>0</asrwt>
<pdfrwt beam="1">  1       21 0.27438598E-01 0.13014540E+03</pdfrwt>
<pdfrwt beam="2">  1       -4 0.23711949E-01 0.13014540E+03</pdfrwt>
<totfact> 0.85765863E+03</totfact>
</mgrwt>
</event>
<event>
 6    4  0.6326233E-003  0.1299558E+03  0.7818608E-02  0.1227521E+00
          4   -1    0    0  502    0 -0.00000000000E+00  0.00000000000E+00  0.16986475186E+02  0.17033885031E+02  0.12700000000E+01 0.  1.
         21   -1    0    0  501  502  0.00000000000E+00 -0.00000000000E+00 -0.42663539148E+03  0.42663539148E+03  0.00000000000E+00 0. -1.
         25    2    1    2    0    0  0.47889476968E+01 -0.35236137139E+02 -0.27132163537E+03  0.30083871631E+03  0.12499593605E+03 0.  0.
    9000005    1    3    3    0    0 -0.48956332587E+02  0.24949863787E+01 -0.19044484638E+03  0.19665499478E+03  0.10000000000E+01 0.  0.
    9000005    1    3    3    0    0  0.53745280284E+02 -0.37731123518E+02 -0.80876788988E+02  0.10418372153E+03  0.10000000000E+01 0.  0.
          4    1    1    2  501    0 -0.47889476968E+01  0.35236137139E+02 -0.13832728092E+03  0.14283056020E+03  0.12700000000E+01 0. -1.
<mgrwt>
<rscale>  1 0.12995577E+03</rscale>
<asrwt>0</asrwt>
<pdfrwt beam="2">  1       21 0.65636213E-01 0.12995577E+03</pdfrwt>
<pdfrwt beam="1">  1        4 0.26170962E-02 0.12995577E+03</pdfrwt>
<totfact> 0.57945140E+04</totfact>
</mgrwt>
</event>
<event>
 6    4  0.6326233E-003  0.1367434E+03  0.7818608E-02  0.1217779E+00
          4   -1    0    0  502    0 -0.00000000000E+00  0.00000000000E+00  0.36526550825E+02  0.36548622616E+02  0.12700000000E+01 0.  1.
         21   -1    0    0  501  502  0.00000000000E+00 -0.00000000000E+00 -0.30476459187E+03  0.30476459187E+03  0.00000000000E+00 0. -1.
         25    2    1    2    0    0  0.66783300547E+01  0.55049128691E+02 -0.11611006808E+03  0.17938872677E+03  0.12499504279E+03 0.  0.
    9000005    1    3    3    0    0  0.38229665718E+02  0.83982366161E+02 -0.91724399607E+02  0.13011114729E+03  0.10000000000E+01 0.  0.
    9000005    1    3    3    0    0 -0.31551335663E+02 -0.28933237471E+02 -0.24385668472E+02  0.49277579481E+02  0.10000000000E+01 0.  0.
          4    1    1    2  501    0 -0.66783300547E+01 -0.55049128691E+02 -0.15212797297E+03  0.16192448771E+03  0.12700000000E+01 0. -1.
<mgrwt>
<rscale>  1 0.13674344E+03</rscale>
<asrwt>0</asrwt>
<pdfrwt beam="2">  1       21 0.46886859E-01 0.13674344E+03</pdfrwt>
<pdfrwt beam="1">  1        4 0.56213709E-02 0.13674344E+03</pdfrwt>
<totfact> 0.35128596E+04</totfact>
</mgrwt>
</event>
<event>
 6    4  0.6326233E-003  0.1304205E+03  0.7818608E-02  0.1226833E+00
         -4   -1    0    0    0  501 -0.00000000000E+00  0.00000000000E+00  0.10739071992E+02  0.10813906197E+02  0.12700000000E+01 0.  1.
         21   -1    0    0  501  502  0.00000000000E+00 -0.00000000000E+00 -0.65720784575E+03  0.65720784575E+03  0.00000000000E+00 0.  1.
         25    2    1    2    0    0 -0.13022396822E+01 -0.37183375131E+02 -0.47668785718E+03  0.49420727686E+03  0.12500088043E+03 0.  0.
    9000005    1    3    3    0    0 -0.23677951181E+02  0.37471950572E+02 -0.97731615671E+02  0.10731850331E+03  0.10000000000E+01 0.  0.
    9000005    1    3    3    0    0  0.22375711499E+02 -0.74655325704E+02 -0.37895624151E+03  0.38688877355E+03  0.10000000000E+01 0.  0.
         -4    1    1    2    0  502  0.13022396822E+01  0.37183375131E+02 -0.16978091658E+03  0.17381447508E+03  0.12700000000E+01 0. -1.
<mgrwt>
<rscale>  1 0.13042055E+03</rscale>
<asrwt>0</asrwt>
<pdfrwt beam="2">  1       21 0.10110888E+00 0.13042055E+03</pdfrwt>
<pdfrwt beam="1">  1       -4 0.16580161E-02 0.13042055E+03</pdfrwt>
<totfact> 0.44406196E+04</totfact>
</mgrwt>
</event>
<event>
 6    4  0.6326233E-003  0.1303202E+03  0.7818608E-02  0.1226981E+00
         21   -1    0    0  501  502  0.00000000000E+00  0.00000000000E+00  0.83513070517E+02  0.83513070517E+02  0.00000000000E+00 0. -1.
         -4   -1    0    0    0  501 -0.00000000000E+00 -0.00000000000E+00 -0.85848451532E+02  0.85857844898E+02  0.12700000000E+01 0. -1.
         25    2    1    2    0    0  0.36860977399E+02  0.47301702249E+00  0.94116924434E+01  0.13065965046E+03  0.12499763559E+03 0.  0.
    9000005    1    3    3    0    0 -0.41896235026E+00  0.35192242834E+02 -0.44324618387E+02  0.56606901349E+02  0.10000000000E+01 0.  0.
    9000005    1    3    3    0    0  0.37279939749E+02 -0.34719225812E+02  0.53736310830E+02  0.74052749107E+02  0.10000000000E+01 0.  0.
         -4    1    1    2    0  502 -0.36860977399E+02 -0.47301702249E+00 -0.11747073458E+02  0.38711264959E+02  0.12700000000E+01 0.  1.
<mgrwt>
<rscale>  1 0.13032024E+03</rscale>
<asrwt>0</asrwt>
<pdfrwt beam="1">  1       21 0.12848165E-01 0.13032024E+03</pdfrwt>
<pdfrwt beam="2">  1       -4 0.13208919E-01 0.13032024E+03</pdfrwt>
<totfact> 0.97953790E+04</totfact>
</mgrwt>
</event>
<event>
 6    4  0.6326233E-003  0.1356449E+03  0.7818608E-02  0.1219312E+00
         21   -1    0    0  501  502  0.00000000000E+00  0.00000000000E+00  0.13119552305E+02  0.13119552305E+02  0.00000000000E+00 0.  1.
          4   -1    0    0  502    0 -0.00000000000E+00 -0.00000000000E+00 -0.68033336602E+03  0.68033455139E+03  0.12700000000E+01 0.  1.
         25    2    1    2    0    0  0.26365526167E+02 -0.45601527127E+02 -0.50481637171E+03  0.52272278754E+03  0.12499961290E+03 0.  0.
    9000005    1    3    3    0    0 -0.25592126842E+02 -0.23717864097E+02 -0.34640534020E+02  0.49177846952E+02  0.10000000000E+01 0.  0.
    9000005    1    3    3    0    0  0.51957653008E+02 -0.21883663030E+02 -0.47017583768E+03  0.47354494059E+03  0.10000000000E+01 0.  0.
          4    1    1    2  501    0 -0.26365526167E+02  0.45601527127E+02 -0.16239744201E+03  0.17073131616E+03  0.12700000000E+01 0. -1.
<mgrwt>
<rscale>  1 0.13564492E+03</rscale>
<asrwt>0</asrwt>
<pdfrwt beam="1">  1       21 0.20183921E-02 0.13564492E+03</pdfrwt>
<pdfrwt beam="2">  1        4 0.10467152E+00 0.13564492E+03</pdfrwt>
<totfact> 0.37696487E+04</totfact>
</mgrwt>
</event>
<event>
 6    4  0.6326233E-003  0.1287645E+03  0.7818608E-02  0.1229301E+00
         21   -1    0    0  501  502  0.00000000000E+00  0.00000000000E+00  0.37342279167E+03  0.37342279167E+03  0.00000000000E+00 0. -1.
         -4   -1    0    0    0  501 -0.00000000000E+00 -0.00000000000E+00 -0.23377394125E+02  0.23411865711E+02  0.12700000000E+01 0. -1.
         25    2    1    2    0    0  0.71405833785E+01 -0.30079094218E+02  0.16538907144E+03  0.20960402017E+03  0.12499824191E+03 0.  0.
    9000005    1    3    3    0    0  0.59969687399E+02  0.11440594503E+02  0.88032608856E+02  0.10713538552E+03  0.10000000000E+01 0.  0.
    9000005    1    3    3    0    0 -0.52829104020E+02 -0.41519688720E+02  0.77356462589E+02  0.10246863465E+03  0.10000000000E+01 0.  0.
         -4    1    1    2    0  502 -0.71405833785E+01  0.30079094218E+02  0.18465632610E+03  0.18723063720E+03  0.12700000000E+01 0.  1.
<mgrwt>
<rscale>  1 0.12876451E+03</rscale>
<asrwt>0</asrwt>
<pdfrwt beam="1">  1       21 0.57449656E-01 0.12876451E+03</pdfrwt>
<pdfrwt beam="2">  1       -4 0.35993402E-02 0.12876451E+03</pdfrwt>
<totfact> 0.46679163E+04</totfact>
</mgrwt>
</event>
<event>
 6    4  0.6326233E-003  0.1290617E+03  0.7818608E-02  0.1228855E+00
         -4   -1    0    0    0  501 -0.00000000000E+00  0.00000000000E+00  0.15987100636E+02  0.16037465098E+02  0.12700000000E+01 0.  1.
         21   -1    0    0  501  502  0.00000000000E+00 -0.00000000000E+00 -0.41544779120E+03  0.41544779120E+03  0.00000000000E+00 0.  1.
         25    2    1    2    0    0  0.13645719233E+02 -0.29083772933E+02 -0.34350762281E+03  0.36695285984E+03  0.12499937166E+03 0.  0.
    9000005    1    3    3    0    0 -0.41753279497E+02 -0.20047924092E+02 -0.27261572853E+03  0.27652412382E+03  0.10000000000E+01 0.  0.
    9000005    1    3    3    0    0  0.55398998730E+02 -0.90358488419E+01 -0.70891894280E+02  0.90428736026E+02  0.10000000000E+01 0.  0.
         -4    1    1    2    0  502 -0.13645719233E+02  0.29083772933E+02 -0.55953067746E+02  0.64532396451E+02  0.12700000000E+01 0. -1.
<mgrwt>
<rscale>  1 0.12906167E+03</rscale>
<asrwt>0</asrwt>
<pdfrwt beam="2">  1       21 0.63915050E-01 0.12906167E+03</pdfrwt>
<pdfrwt beam="1">  1       -4 0.24635772E-02 0.12906167E+03</pdfrwt>
<totfact> 0.67344042E+04</totfact>
</mgrwt>
</event>
<event>
 6    4  0.6326233E-003  0.1269693E+03  0.7818608E-02  0.1232023E+00
         -4   -1    0    0    0  501 -0.00000000000E+00  0.00000000000E+00  0.90608202755E+02  0.90617102727E+02  0.12700000000E+01 0. -1.
         21   -1    0    0  501  502  0.00000000000E+00 -0.00000000000E+00 -0.65608926427E+02  0.65608926427E+02  0.00000000000E+00 0. -1.
         25    2    1    2    0    0 -0.24162910004E+01  0.22148535002E+02  0.63241193554E+01  0.12712670866E+03  0.12499923802E+03 0.  0.
    9000005    1    3    3    0    0 -0.34562513473E+02 -0.11134349956E+02 -0.45120899154E+02  0.57926130778E+02  0.10000000000E+01 0.  0.
    9000005    1    3    3    0    0  0.32146222472E+02  0.33282884959E+02  0.51445018509E+02  0.69200577887E+02  0.10000000000E+01 0.  0.
         -4    1    1    2    0  502  0.24162910004E+01 -0.22148535002E+02  0.18675156973E+02  0.29099320489E+02  0.12700000000E+01 0.  1.
<mgrwt>
<rscale>  1 0.12696931E+03</rscale>
<asrwt>0</asrwt>
<pdfrwt beam="2">  1       21 0.10093681E-01 0.12696931E+03</pdfrwt>
<pdfrwt beam="1">  1       -4 0.13941354E-01 0.12696931E+03</pdfrwt>
<totfact> 0.13609316E+05</totfact>
</mgrwt>
</event>
<event>
 6    4  0.6326233E-003  0.1282673E+03  0.7818608E-02  0.1230050E+00
         21   -1    0    0  501  502  0.00000000000E+00  0.00000000000E+00  0.67900848431E+03  0.67900848431E+03  0.00000000000E+00 0. -1.
         -4   -1    0    0    0  501 -0.00000000000E+00 -0.00000000000E+00 -0.16598997602E+02  0.16647510967E+02  0.12700000000E+01 0.  1.
         25    2    1    2    0    0 -0.28481048844E+02  0.40161695649E+01  0.23879064417E+03  0.27105990908E+03  0.12500081122E+03 0.  0.
    9000005    1    3    3    0    0  0.10629152967E+02  0.22110185436E+02 -0.36452317925E+01  0.24821903788E+02  0.10000000000E+01 0.  0.
    9000005    1    3    3    0    0 -0.39110201811E+02 -0.18094015871E+02  0.24243587596E+03  0.24623800529E+03  0.10000000000E+01 0.  0.
         -4    1    1    2    0  502  0.28481048844E+02 -0.40161695649E+01  0.42361884254E+03  0.42459608620E+03  0.12700000000E+01 0. -1.
<mgrwt>
<rscale>  1 0.12826731E+03</rscale>
<asrwt>0</asrwt>
<pdfrwt beam="1">  1       21 0.10446282E+00 0.12826731E+03</pdfrwt>
<pdfrwt beam="2">  1       -4 0.25575156E-02 0.12826731E+03</pdfrwt>
<totfact> 0.21053990E+04</totfact>
</mgrwt>
</event>
<event>
 6    4  0.6326233E-003  0.1469708E+03  0.7818608E-02  0.1204245E+00
         21   -1    0    0  501  502  0.00000000000E+00  0.00000000000E+00  0.10571834105E+03  0.10571834105E+03  0.00000000000E+00 0. -1.
          4   -1    0    0  502    0 -0.00000000000E+00 -0.00000000000E+00 -0.14340958138E+03  0.14341520467E+03  0.12700000000E+01 0.  1.
         25    2    1    2    0    0 -0.39546344348E+02  0.66422891176E+02 -0.73042079876E+02  0.16412055507E+03  0.12499798935E+03 0.  0.
    9000005    1    3    3    0    0 -0.40053372868E+02 -0.24587454576E+02 -0.53148197724E+02  0.70954538417E+02  0.10000000000E+01 0.  0.
    9000005    1    3    3    0    0  0.50702852029E+00  0.91010345752E+02 -0.19893882151E+02  0.93166016653E+02  0.10000000000E+01 0.  0.
          4    1    1    2  501    0  0.39546344348E+02 -0.66422891176E+02  0.35350839547E+02  0.85012990655E+02  0.12700000000E+01 0. -1.
<mgrwt>
<rscale>  1 0.14697078E+03</rscale>
<asrwt>0</asrwt>
<pdfrwt beam="1">  1       21 0.16264360E-01 0.14697078E+03</pdfrwt>
<pdfrwt beam="2">  1        4 0.22064032E-01 0.14697078E+03</pdfrwt>
<totfact> 0.26196550E+04</totfact>
</mgrwt>
</event>
<event>
 6    4  0.6326233E-003  0.1290757E+03  0.7818608E-02  0.1228834E+00
          4   -1    0    0  502    0 -0.00000000000E+00  0.00000000000E+00  0.29354486725E+03  0.29354761451E+03  0.12700000000E+01 0.  1.
         21   -1    0    0  501  502  0.00000000000E+00 -0.00000000000E+00 -0.23591431865E+02  0.23591431865E+02  0.00000000000E+00 0. -1.
         25    2    1    2    0    0  0.92754630411E+01 -0.30815455896E+02  0.24295275573E+03  0.27511195823E+03  0.12499968603E+03 0.  0.
    9000005    1    3    3    0    0 -0.29989850580E+02 -0.43339467295E+02  0.35382385650E+02  0.63487115051E+02  0.10000000000E+01 0.  0.
    9000005    1    3    3    0    0  0.39265313621E+02  0.12524011399E+02  0.20757037008E+03  0.21162484318E+03  0.10000000000E+01 0.  0.
          4    1    1    2  501    0 -0.92754630411E+01  0.30815455896E+02  0.27000679653E+02  0.42027088151E+02  0.12700000000E+01 0. -1.
<mgrwt>
<rscale>  1 0.12907575E+03</rscale>
<asrwt>0</asrwt>
<pdfrwt beam="2">  1       21 0.36294513E-02 0.12907575E+03</pdfrwt>
<pdfrwt beam="1">  1        4 0.45163587E-01 0.12907575E+03</pdfrwt>
<totfact> 0.87836555E+04</totfact>
</mgrwt>
</event>
<event>
 6    4  0.6326233E-003  0.1300458E+03  0.7818608E-02  0.1227388E+00
         21   -1    0    0  501  502  0.00000000000E+00  0.00000000000E+00  0.49805141002E+02  0.49805141002E+02  0.00000000000E+00 0. -1.
         -4   -1    0    0    0  501 -0.00000000000E+00 -0.00000000000E+00 -0.25745736998E+03  0.25746050232E+03  0.12700000000E+01 0.  1.
         25    2    1    2    0    0  0.35058966607E+02 -0.75499640646E+01 -0.23054935662E+03  0.26469776281E+03  0.12500306677E+03 0.  0.
    9000005    1    3    3    0    0  0.16408206121E+02  0.41891342606E+02 -0.23026030666E+02  0.50550092993E+02  0.10000000000E+01 0.  0.
    9000005    1    3    3    0    0  0.18650760486E+02 -0.49441306670E+02 -0.20752332595E+03  0.21414766981E+03  0.10000000000E+01 0.  0.
         -4    1    1    2    0  502 -0.35058966607E+02  0.75499640646E+01  0.22897127647E+02  0.42567880513E+02  0.12700000000E+01 0. -1.
<mgrwt>
<rscale>  1 0.13004576E+03</rscale>
<asrwt>0</asrwt>
<pdfrwt beam="1">  1       21 0.76623295E-02 0.13004576E+03</pdfrwt>
<pdfrwt beam="2">  1       -4 0.39610312E-01 0.13004576E+03</pdfrwt>
<totfact> 0.32374467E+04</totfact>
</mgrwt>
</event>
<event>
 6    4  0.6326233E-003  0.1413903E+03  0.7818608E-02  0.1211470E+00
          4   -1    0    0  502    0 -0.00000000000E+00  0.00000000000E+00  0.12108846730E+03  0.12109512712E+03  0.12700000000E+01 0.  1.
         21   -1    0    0  501  502  0.00000000000E+00 -0.00000000000E+00 -0.14884030084E+03  0.14884030084E+03  0.00000000000E+00 0. -1.
         25    2    1    2    0    0  0.51952253676E+02  0.40832872760E+02  0.65348634154E+02  0.15576156867E+03  0.12499944851E+03 0.  0.
    9000005    1    3    3    0    0  0.53376541397E+02 -0.23784050039E+02 -0.68615410014E+01  0.58845704624E+02  0.10000000000E+01 0.  0.
    9000005    1    3    3    0    0 -0.14242877215E+01  0.64616922799E+02  0.72210175155E+02  0.96915864044E+02  0.10000000000E+01 0.  0.
          4    1    1    2  501    0 -0.51952253676E+02 -0.40832872760E+02 -0.93100467701E+02  0.11417385929E+03  0.12700000000E+01 0. -1.
<mgrwt>
<rscale>  1 0.14139032E+03</rscale>
<asrwt>0</asrwt>
<pdfrwt beam="2">  1       21 0.22898508E-01 0.14139032E+03</pdfrwt>
<pdfrwt beam="1">  1        4 0.18629924E-01 0.14139032E+03</pdfrwt>
<totfact> 0.18818502E+04</totfact>
</mgrwt>
</event>
<event>
 6    4  0.6326233E-003  0.1408737E+03  0.7818608E-02  0.1212158E+00
         -4   -1    0    0    0  501 -0.00000000000E+00  0.00000000000E+00  0.40814075820E+03  0.40814273411E+03  0.12700000000E+01 0.  1.
         21   -1    0    0  501  502  0.00000000000E+00 -0.00000000000E+00 -0.42567429949E+02  0.42567429949E+02  0.00000000000E+00 0. -1.
         25    2    1    2    0    0 -0.57183013342E+02  0.30811145036E+02  0.35871000827E+03  0.38538067811E+03  0.12500469332E+03 0.  0.
    9000005    1    3    3    0    0 -0.41537341571E+02 -0.41279113674E+02  0.22681201515E+03  0.23425201426E+03  0.10000000000E+01 0.  0.
    9000005    1    3    3    0    0 -0.15645671771E+02  0.72090258710E+02  0.13189799312E+03  0.15112866384E+03  0.10000000000E+01 0.  0.
         -4    1    1    2    0  502  0.57183013342E+02 -0.30811145036E+02  0.68633199835E+01  0.65329485950E+02  0.12700000000E+01 0. -1.
<mgrwt>
<rscale>  1 0.14087369E+03</rscale>
<asrwt>0</asrwt>
<pdfrwt beam="2">  1       21 0.65488356E-02 0.14087369E+03</pdfrwt>
<pdfrwt beam="1">  1       -4 0.62792493E-01 0.14087369E+03</pdfrwt>
<totfact> 0.16714495E+04</totfact>
</mgrwt>
</event>
<event>
 6    4  0.6326233E-003  0.1381156E+03  0.7818608E-02  0.1215887E+00
          4   -1    0    0  502    0 -0.00000000000E+00  0.00000000000E+00  0.22027306759E+03  0.22027672870E+03  0.12700000000E+01 0. -1.
         21   -1    0    0  501  502  0.00000000000E+00 -0.00000000000E+00 -0.45570874725E+02  0.45570874725E+02  0.00000000000E+00 0. -1.
         25    2    1    2    0    0 -0.35139422341E+02 -0.47069879884E+02  0.98576174612E+02  0.16968557272E+03  0.12500231515E+03 0.  0.
    9000005    1    3    3    0    0 -0.39303529500E+02 -0.69417866197E+02  0.12622388362E+02  0.80770862732E+02  0.10000000000E+01 0.  0.
    9000005    1    3    3    0    0  0.41641071592E+01  0.22347986313E+02  0.85953786250E+02  0.88914709983E+02  0.10000000000E+01 0.  0.
          4    1    1    2  501    0  0.35139422341E+02  0.47069879884E+02  0.76126018254E+02  0.96162030708E+02  0.12700000000E+01 0.  1.
<mgrwt>
<rscale>  1 0.13811564E+03</rscale>
<asrwt>0</asrwt>
<pdfrwt beam="2">  1       21 0.70109039E-02 0.13811564E+03</pdfrwt>
<pdfrwt beam="1">  1        4 0.33889806E-01 0.13811564E+03</pdfrwt>
<totfact> 0.51421452E+04</totfact>
</mgrwt>
</event>
<event>
 6    4  0.6326233E-003  0.1272634E+03  0.7818608E-02  0.1231574E+00
         21   -1    0    0  501  502  0.00000000000E+00  0.00000000000E+00  0.74762642698E+02  0.74762642698E+02  0.00000000000E+00 0.  1.
         -4   -1    0    0    0  501 -0.00000000000E+00 -0.00000000000E+00 -0.81861368140E+02  0.81871218959E+02  0.12700000000E+01 0.  1.
         25    2    1    2    0    0 -0.23888219802E+02 -0.11229704665E+01 -0.20938095772E+02  0.12897433926E+03  0.12499627285E+03 0.  0.
    9000005    1    3    3    0    0 -0.13505261529E+02 -0.52357972808E+02 -0.45994397388E+02  0.70994605405E+02  0.10000000000E+01 0.  0.
    9000005    1    3    3    0    0 -0.10382958273E+02  0.51235002341E+02  0.25056301617E+02  0.57979733857E+02  0.10000000000E+01 0.  0.
         -4    1    1    2    0  502  0.23888219802E+02  0.11229704665E+01  0.13839370329E+02  0.27659522394E+02  0.12700000000E+01 0. -1.
<mgrwt>
<rscale>  1 0.12726341E+03</rscale>
<asrwt>0</asrwt>
<pdfrwt beam="1">  1       21 0.11501945E-01 0.12726341E+03</pdfrwt>
<pdfrwt beam="2">  1       -4 0.12595644E-01 0.12726341E+03</pdfrwt>
<totfact> 0.12890604E+05</totfact>
</mgrwt>
</event>
<event>
 6    4  0.6326233E-003  0.1270153E+03  0.7818608E-02  0.1231953E+00
         21   -1    0    0  501  502  0.00000000000E+00  0.00000000000E+00  0.42594067429E+02  0.42594067429E+02  0.00000000000E+00 0. -1.
         -4   -1    0    0    0  501 -0.00000000000E+00 -0.00000000000E+00 -0.24044623944E+03  0.24044959339E+03  0.12700000000E+01 0.  1.
         25    2    1    2    0    0  0.22502152216E+02 -0.10335211978E+01 -0.21832097450E+03  0.25258057175E+03  0.12500192918E+03 0.  0.
    9000005    1    3    3    0    0  0.41634367385E+02  0.39349501252E+02 -0.19275085320E+03  0.20108628796E+03  0.10000000000E+01 0.  0.
    9000005    1    3    3    0    0 -0.19132215169E+02 -0.40383022450E+02 -0.25570121297E+02  0.51494283786E+02  0.10000000000E+01 0.  0.
         -4    1    1    2    0  502 -0.22502152216E+02  0.10335211978E+01  0.20468802487E+02  0.30463089069E+02  0.12700000000E+01 0. -1.
<mgrwt>
<rscale>  1 0.12701534E+03</rscale>
<asrwt>0</asrwt>
<pdfrwt beam="1">  1       21 0.65529335E-02 0.12701534E+03</pdfrwt>
<pdfrwt beam="2">  1       -4 0.36993443E-01 0.12701534E+03</pdfrwt>
<totfact> 0.48211067E+04</totfact>
</mgrwt>
</event>
<event>
 6    4  0.6326233E-003  0.1283156E+03  0.7818608E-02  0.1229977E+00
          4   -1    0    0  502    0 -0.00000000000E+00  0.00000000000E+00  0.75480749306E+02  0.75491432731E+02  0.12700000000E+01 0. -1.
         21   -1    0    0  501  502  0.00000000000E+00 -0.00000000000E+00 -0.91112292934E+02  0.91112292934E+02  0.00000000000E+00 0. -1.
         25    2    1    2    0    0 -0.24760031067E+02 -0.15225162911E+02  0.87928873907E+01  0.12861648498E+03  0.12498008088E+03 0.  0.
    9000005    1    3    3    0    0 -0.51114802985E+02  0.41029753368E+02  0.10887594436E+02  0.66450759651E+02  0.10000000000E+01 0.  0.
    9000005    1    3    3    0    0  0.26354771918E+02 -0.56254916278E+02 -0.20947070453E+01  0.62165725331E+02  0.10000000000E+01 0.  0.
          4    1    1    2  501    0  0.24760031067E+02  0.15225162911E+02 -0.24424431019E+02  0.37987240683E+02  0.12700000000E+01 0.  1.
<mgrwt>
<rscale>  1 0.12831557E+03</rscale>
<asrwt>0</asrwt>
<pdfrwt beam="2">  1       21 0.14017276E-01 0.12831557E+03</pdfrwt>
<pdfrwt beam="1">  1        4 0.11613926E-01 0.12831557E+03</pdfrwt>
<totfact> 0.10428942E+05</totfact>
</mgrwt>
</event>
<event>
 6    4  0.6326233E-003  0.1327044E+03  0.7818608E-02  0.1223497E+00
         21   -1    0    0  501  502  0.00000000000E+00  0.00000000000E+00  0.43642492406E+01  0.43642492406E+01  0.00000000000E+00 0. -1.
          4   -1    0    0  502    0 -0.00000000000E+00 -0.00000000000E+00 -0.23280750207E+04  0.23280753671E+04  0.12700000000E+01 0.  1.
         25    2    1    2    0    0 -0.14818693369E+02 -0.41958974738E+02 -0.21085480430E+04  0.21127198815E+04  0.12502119450E+03 0.  0.
    9000005    1    3    3    0    0 -0.57231158000E+02  0.79749334549E+01 -0.60759488237E+03  0.61033723964E+03  0.10000000000E+01 0.  0.
    9000005    1    3    3    0    0  0.42412464631E+02 -0.49933908193E+02 -0.15009531606E+04  0.15023826419E+04  0.10000000000E+01 0.  0.
          4    1    1    2  501    0  0.14818693369E+02  0.41958974738E+02 -0.21516272851E+03  0.21971973483E+03  0.12700000000E+01 0. -1.
<mgrwt>
<rscale>  1 0.13270436E+03</rscale>
<asrwt>0</asrwt>
<pdfrwt beam="1">  1       21 0.67142281E-03 0.13270436E+03</pdfrwt>
<pdfrwt beam="2">  1        4 0.35817971E+00 0.13270436E+03</pdfrwt>
<totfact> 0.48747918E+03</totfact>
</mgrwt>
</event>
<event>
 6    4  0.6326233E-003  0.1291045E+03  0.7818608E-02  0.1228791E+00
          4   -1    0    0  502    0 -0.00000000000E+00  0.00000000000E+00  0.22420279795E+03  0.22420639489E+03  0.12700000000E+01 0. -1.
         21   -1    0    0  501  502  0.00000000000E+00 -0.00000000000E+00 -0.29721652207E+02  0.29721652207E+02  0.00000000000E+00 0.  1.
         25    2    1    2    0    0  0.29434826755E+02  0.13284833895E+02  0.16956180761E+03  0.21311772793E+03  0.12500025407E+03 0.  0.
    9000005    1    3    3    0    0  0.45025392742E+02 -0.38175612922E+02  0.13956302339E+03  0.15153712718E+03  0.10000000000E+01 0.  0.
    9000005    1    3    3    0    0 -0.15590565987E+02  0.51460446817E+02  0.29998784215E+02  0.61580600751E+02  0.10000000000E+01 0.  0.
          4    1    1    2  501    0 -0.29434826755E+02 -0.13284833895E+02  0.24919338133E+02  0.40810319169E+02  0.12700000000E+01 0.  1.
<mgrwt>
<rscale>  1 0.12910445E+03</rscale>
<asrwt>0</asrwt>
<pdfrwt beam="2">  1       21 0.45725620E-02 0.12910445E+03</pdfrwt>
<pdfrwt beam="1">  1        4 0.34495101E-01 0.12910445E+03</pdfrwt>
<totfact> 0.10151459E+05</totfact>
</mgrwt>
</event>
<event>
 6    4  0.6326233E-003  0.1363121E+03  0.7818608E-02  0.1218379E+00
         21   -1    0    0  501  502  0.00000000000E+00  0.00000000000E+00  0.55162696559E+02  0.55162696559E+02  0.00000000000E+00 0. -1.
         -4   -1    0    0    0  501 -0.00000000000E+00 -0.00000000000E+00 -0.52163331170E+03  0.52163485771E+03  0.12700000000E+01 0.  1.
         25    2    1    2    0    0  0.24141166784E+02 -0.48718023362E+02 -0.49636152934E+03  0.51473853892E+03  0.12499901564E+03 0.  0.
    9000005    1    3    3    0    0 -0.50649385350E+01 -0.87501003573E+02 -0.30993267232E+03  0.32208902589E+03  0.10000000000E+01 0.  0.
    9000005    1    3    3    0    0  0.29206105319E+02  0.38782980211E+02 -0.18642885702E+03  0.19264951303E+03  0.10000000000E+01 0.  0.
         -4    1    1    2    0  502 -0.24141166784E+02  0.48718023362E+02  0.29890914196E+02  0.62059015344E+02  0.12700000000E+01 0. -1.
<mgrwt>
<rscale>  1 0.13631213E+03</rscale>
<asrwt>0</asrwt>
<pdfrwt beam="1">  1       21 0.84865688E-02 0.13631213E+03</pdfrwt>
<pdfrwt beam="2">  1       -4 0.80252521E-01 0.13631213E+03</pdfrwt>
<totfact> 0.62747594E+03</totfact>
</mgrwt>
</event>
<event>
 6    4  0.6326233E-003  0.1593877E+03  0.7818608E-02  0.1189390E+00
         -4   -1    0    0    0  501 -0.00000000000E+00  0.00000000000E+00  0.30102970660E+03  0.30103238556E+03  0.12700000000E+01 0. -1.
         21   -1    0    0  501  502  0.00000000000E+00 -0.00000000000E+00 -0.58186072818E+02  0.58186072818E+02  0.00000000000E+00 0.  1.
         25    2    1    2    0    0 -0.96441003671E+00 -0.98886252588E+02  0.18674744692E+03  0.24551790377E+03  0.12500004441E+03 0.  0.
    9000005    1    3    3    0    0  0.16466030563E+02 -0.71167756285E+02  0.20223217154E+02  0.75802098976E+02  0.10000000000E+01 0.  0.
    9000005    1    3    3    0    0 -0.17430440600E+02 -0.27718496303E+02  0.16652422977E+03  0.16971580479E+03  0.10000000000E+01 0.  0.
         -4    1    1    2    0  502  0.96441003671E+00  0.98886252588E+02  0.56096186856E+02  0.11370055460E+03  0.12700000000E+01 0.  1.
<mgrwt>
<rscale>  1 0.15938768E+03</rscale>
<asrwt>0</asrwt>
<pdfrwt beam="2">  1       21 0.89517037E-02 0.15938768E+03</pdfrwt>
<pdfrwt beam="1">  1       -4 0.46313534E-01 0.15938768E+03</pdfrwt>
<totfact> 0.18507328E+04</totfact>
</mgrwt>
</event>
<event>
 6    4  0.6326233E-003  0.1268975E+03  0.7818608E-02  0.1232133E+00
          4   -1    0    0  502    0 -0.00000000000E+00  0.00000000000E+00  0.64545458100E+03  0.64545583043E+03  0.12700000000E+01 0. -1.
         21   -1    0    0  501  502  0.00000000000E+00 -0.00000000000E+00 -0.86141516943E+01  0.86141516943E+01  0.00000000000E+00 0.  1.
         25    2    1    2    0    0 -0.17905687236E+02  0.12526519850E+02  0.55799907910E+03  0.57224639911E+03  0.12500176671E+03 0.  0.
    9000005    1    3    3    0    0  0.46279079277E+02 -0.24832851453E+02  0.22034141058E+03  0.22651657976E+03  0.10000000000E+01 0.  0.
    9000005    1    3    3    0    0 -0.64184766513E+02  0.37359371303E+02  0.33765766851E+03  0.34572981934E+03  0.10000000000E+01 0.  0.
          4    1    1    2  501    0  0.17905687236E+02 -0.12526519850E+02  0.78841350210E+02  0.81823583018E+02  0.12700000000E+01 0.  1.
<mgrwt>
<rscale>  1 0.12689747E+03</rscale>
<asrwt>0</asrwt>
<pdfrwt beam="2">  1       21 0.13252546E-02 0.12689747E+03</pdfrwt>
<pdfrwt beam="1">  1        4 0.99307964E-01 0.12689747E+03</pdfrwt>
<totfact> 0.82848324E+04</totfact>
</mgrwt>
</event>
<event>
 6    4  0.6326233E-003  0.1659842E+03  0.7818608E-02  0.1182102E+00
         -4   -1    0    0    0  501 -0.00000000000E+00  0.00000000000E+00  0.61693667393E+03  0.61693798111E+03  0.12700000000E+01 0.  1.
         21   -1    0    0  501  502  0.00000000000E+00 -0.00000000000E+00 -0.32646514994E+02  0.32646514994E+02  0.00000000000E+00 0. -1.
         25    2    1    2    0    0  0.62120415993E+02 -0.89814223515E+02  0.42673668423E+03  0.45788094600E+03  0.12500088888E+03 0.  0.
    9000005    1    3    3    0    0  0.79937096327E+02 -0.88203958816E+02  0.42319240841E+03  0.43961652864E+03  0.10000000000E+01 0.  0.
    9000005    1    3    3    0    0 -0.17816680334E+02 -0.16102646993E+01  0.35442758179E+01  0.18264417363E+02  0.10000000000E+01 0.  0.
         -4    1    1    2    0  502 -0.62120415993E+02  0.89814223515E+02  0.15755347471E+03  0.19170355010E+03  0.12700000000E+01 0. -1.
<mgrwt>
<rscale>  1 0.16598423E+03</rscale>
<asrwt>0</asrwt>
<pdfrwt beam="2">  1       21 0.50225412E-02 0.16598423E+03</pdfrwt>
<pdfrwt beam="1">  1       -4 0.94915327E-01 0.16598423E+03</pdfrwt>
<totfact> 0.10713275E+04</totfact>
</mgrwt>
</event>
<event>
 6    4  0.6326233E-003  0.1266153E+03  0.7818608E-02  0.1232566E+00
         -4   -1    0    0    0  501 -0.00000000000E+00  0.00000000000E+00  0.31769755895E+02  0.31795129967E+02  0.12700000000E+01 0.  1.
         21   -1    0    0  501  502  0.00000000000E+00 -0.00000000000E+00 -0.20565144291E+03  0.20565144291E+03  0.00000000000E+00 0.  1.
         25    2    1    2    0    0  0.16972399612E+02  0.10865827130E+02 -0.10142751982E+03  0.16223123008E+03  0.12500120675E+03 0.  0.
    9000005    1    3    3    0    0  0.52364172008E+02  0.40000791503E+02 -0.95450937570E+02  0.11599116912E+03  0.10000000000E+01 0.  0.
    9000005    1    3    3    0    0 -0.35391772396E+02 -0.29134964373E+02 -0.59765822506E+01  0.46240060962E+02  0.10000000000E+01 0.  0.
         -4    1    1    2    0  502 -0.16972399612E+02 -0.10865827130E+02 -0.72454167197E+02  0.75215342797E+02  0.12700000000E+01 0. -1.
<mgrwt>
<rscale>  1 0.12661528E+03</rscale>
<asrwt>0</asrwt>
<pdfrwt beam="2">  1       21 0.31638685E-01 0.12661528E+03</pdfrwt>
<pdfrwt beam="1">  1       -4 0.48899080E-02 0.12661528E+03</pdfrwt>
<totfact> 0.95387560E+04</totfact>
</mgrwt>
</event>
<event>
 6    4  0.6326233E-003  0.1268256E+03  0.7818608E-02  0.1232244E+00
          4   -1    0    0  502    0 -0.00000000000E+00  0.00000000000E+00  0.71674806831E+02  0.71686057461E+02  0.12700000000E+01 0. -1.
         21   -1    0    0  501  502  0.00000000000E+00 -0.00000000000E+00 -0.16810359849E+03  0.16810359849E+03  0.00000000000E+00 0.  1.
         25    2    1    2    0    0 -0.11284852987E+02 -0.18239225910E+02  0.13719469546E+02  0.12756546241E+03  0.12499882434E+03 0.  0.
    9000005    1    3    3    0    0  0.31121359901E+02 -0.31217761483E+02  0.52560143598E+02  0.68605075389E+02  0.10000000000E+01 0.  0.
    9000005    1    3    3    0    0 -0.42406212888E+02  0.12978535573E+02 -0.38840674052E+02  0.58960387023E+02  0.10000000000E+01 0.  0.
          4    1    1    2  501    0  0.11284852987E+02  0.18239225910E+02 -0.11014826121E+03  0.11222419354E+03  0.12700000000E+01 0.  1.
<mgrwt>
<rscale>  1 0.12682556E+03</rscale>
<asrwt>0</asrwt>
<pdfrwt beam="2">  1       21 0.25862092E-01 0.12682556E+03</pdfrwt>
<pdfrwt beam="1">  1        4 0.11028128E-01 0.12682556E+03</pdfrwt>
<totfact> 0.36816892E+04</totfact>
</mgrwt>
</event>
<event>
 6    4  0.6326233E-003  0.1554422E+03  0.7818608E-02  0.1193941E+00
          4   -1    0    0  502    0 -0.00000000000E+00  0.00000000000E+00  0.81929010816E+02  0.81938853503E+02  0.12700000000E+01 0.  1.
         21   -1    0    0  501  502  0.00000000000E+00 -0.00000000000E+00 -0.21715800574E+03  0.21715800574E+03  0.00000000000E+00 0. -1.
         25    2    1    2    0    0 -0.68755272918E+02  0.61705199196E+02 -0.28676107874E+02  0.15806512593E+03  0.12500978246E+03 0.  0.
    9000005    1    3    3    0    0 -0.50868302501E+02  0.23852603692E+02 -0.76228479024E+02  0.94701171675E+02  0.10000000000E+01 0.  0.
    9000005    1    3    3    0    0 -0.17886970417E+02  0.37852595504E+02  0.47552371150E+02  0.63363954257E+02  0.10000000000E+01 0.  0.
          4    1    1    2  501    0  0.68755272918E+02 -0.61705199196E+02 -0.10655288705E+03  0.14103173331E+03  0.12700000000E+01 0. -1.
<mgrwt>
<rscale>  1 0.15544216E+03</rscale>
<asrwt>0</asrwt>
<pdfrwt beam="2">  1       21 0.33408924E-01 0.15544216E+03</pdfrwt>
<pdfrwt beam="1">  1        4 0.12605506E-01 0.15544216E+03</pdfrwt>
<totfact> 0.18236284E+04</totfact>
</mgrwt>
</event>
<event>
 6    4  0.6326233E-003  0.1281626E+03  0.7818608E-02  0.1230208E+00
         21   -1    0    0  501  502  0.00000000000E+00  0.00000000000E+00  0.29067100774E+02  0.29067100774E+02  0.00000000000E+00 0.  1.
         -4   -1    0    0    0  501 -0.00000000000E+00 -0.00000000000E+00 -0.22114697626E+03  0.22115062290E+03  0.12700000000E+01 0.  1.
         25    2    1    2    0    0  0.16936907707E+02 -0.22637833896E+02 -0.17583501836E+03  0.21758585812E+03  0.12500528632E+03 0.  0.
    9000005    1    3    3    0    0  0.11805851797E+02 -0.67001685500E+02 -0.51099326674E+02  0.85092568319E+02  0.10000000000E+01 0.  0.
    9000005    1    3    3    0    0  0.51310559108E+01  0.44363851604E+02 -0.12473569168E+03  0.13249328981E+03  0.10000000000E+01 0.  0.
         -4    1    1    2    0  502 -0.16936907707E+02  0.22637833896E+02 -0.16244857131E+02  0.32631865552E+02  0.12700000000E+01 0. -1.
<mgrwt>
<rscale>  1 0.12816260E+03</rscale>
<asrwt>0</asrwt>
<pdfrwt beam="1">  1       21 0.44718617E-02 0.12816260E+03</pdfrwt>
<pdfrwt beam="2">  1       -4 0.34025026E-01 0.12816260E+03</pdfrwt>
<totfact> 0.10806110E+05</totfact>
</mgrwt>
</event>
<event>
 6    4  0.6326233E-003  0.1278507E+03  0.7818608E-02  0.1230680E+00
         21   -1    0    0  501  502  0.00000000000E+00  0.00000000000E+00  0.91120277827E+02  0.91120277827E+02  0.00000000000E+00 0. -1.
         -4   -1    0    0    0  501 -0.00000000000E+00 -0.00000000000E+00 -0.65792089156E+02  0.65804345567E+02  0.12700000000E+01 0. -1.
         25    2    1    2    0    0  0.83076800230E+01  0.25523778755E+02  0.23484423034E+02  0.12998964240E+03  0.12500123270E+03 0.  0.
    9000005    1    3    3    0    0  0.60923167094E+02  0.19914068776E+01  0.36276252886E+02  0.70940570294E+02  0.10000000000E+01 0.  0.
    9000005    1    3    3    0    0 -0.52615487071E+02  0.23532371877E+02 -0.12791829852E+02  0.59049072108E+02  0.10000000000E+01 0.  0.
         -4    1    1    2    0  502 -0.83076800230E+01 -0.25523778755E+02  0.18437656365E+01  0.26934980992E+02  0.12700000000E+01 0.  1.
<mgrwt>
<rscale>  1 0.12785065E+03</rscale>
<asrwt>0</asrwt>
<pdfrwt beam="1">  1       21 0.14018504E-01 0.12785065E+03</pdfrwt>
<pdfrwt beam="2">  1       -4 0.10123483E-01 0.12785065E+03</pdfrwt>
<totfact> 0.13151806E+05</totfact>
</mgrwt>
</event>
<event>
 6    4  0.6326233E-003  0.1266927E+03  0.7818608E-02  0.1232447E+00
         21   -1    0    0  501  502  0.00000000000E+00  0.00000000000E+00  0.25228047114E+03  0.25228047114E+03  0.00000000000E+00 0. -1.
         -4   -1    0    0    0  501 -0.00000000000E+00 -0.00000000000E+00 -0.38156039303E+02  0.38177169032E+02  0.12700000000E+01 0.  1.
         25    2    1    2    0    0 -0.13367259332E+02  0.15731350517E+02  0.69778964903E+02  0.14463793733E+03  0.12499947985E+03 0.  0.
    9000005    1    3    3    0    0  0.42437062165E+01  0.69665947961E+02  0.41916806135E+02  0.81420955437E+02  0.10000000000E+01 0.  0.
    9000005    1    3    3    0    0 -0.17610965549E+02 -0.53934597444E+02  0.27862158768E+02  0.63216981897E+02  0.10000000000E+01 0.  0.
         -4    1    1    2    0  502  0.13367259332E+02 -0.15731350517E+02  0.14434546693E+03  0.14581970284E+03  0.12700000000E+01 0. -1.
<mgrwt>
<rscale>  1 0.12669266E+03</rscale>
<asrwt>0</asrwt>
<pdfrwt beam="1">  1       21 0.38812379E-01 0.12669266E+03</pdfrwt>
<pdfrwt beam="2">  1       -4 0.58720313E-02 0.12669266E+03</pdfrwt>
<totfact> 0.47544845E+04</totfact>
</mgrwt>
</event>
<event>
 6    4  0.6326233E-003  0.1544864E+03  0.7818608E-02  0.1195066E+00
          4   -1    0    0  502    0 -0.00000000000E+00  0.00000000000E+00  0.23187635451E+04  0.23187638929E+04  0.12700000000E+01 0. -1.
         21   -1    0    0  501  502  0.00000000000E+00 -0.00000000000E+00 -0.65684750113E+02  0.65684750113E+02  0.00000000000E+00 0.  1.
         25    2    1    2    0    0  0.39518450899E+02 -0.81730154835E+02  0.22834818277E+04  0.22887016667E+04  0.12499814337E+03 0.  0.
    9000005    1    3    3    0    0  0.32124133279E+02 -0.56713306326E+02  0.41929126748E+03  0.42432832339E+03  0.10000000000E+01 0.  0.
    9000005    1    3    3    0    0  0.73943176195E+01 -0.25016848509E+02  0.18641905602E+04  0.18643733433E+04  0.10000000000E+01 0.  0.
          4    1    1    2  501    0 -0.39518450899E+02  0.81730154835E+02 -0.30403032675E+02  0.95746976279E+02  0.12700000000E+01 0.  1.
<mgrwt>
<rscale>  1 0.15448645E+03</rscale>
<asrwt>0</asrwt>
<pdfrwt beam="2">  1       21 0.10105348E-01 0.15448645E+03</pdfrwt>
<pdfrwt beam="1">  1        4 0.35673376E+00 0.15448645E+03</pdfrwt>
<totfact> 0.57719222E+01</totfact>
</mgrwt>
</event>
<event>
 6    4  0.6326233E-003  0.1367279E+03  0.7818608E-02  0.1217801E+00
          4   -1    0    0  502    0 -0.00000000000E+00  0.00000000000E+00  0.96261072168E+01  0.97095231680E+01  0.12700000000E+01 0. -1.
         21   -1    0    0  501  502  0.00000000000E+00 -0.00000000000E+00 -0.23519397252E+04  0.23519397252E+04  0.00000000000E+00 0.  1.
         25    2    1    2    0    0 -0.27075894287E+02  0.48281813503E+02 -0.49585121968E+03  0.51435684086E+03  0.12502115869E+03 0.  0.
    9000005    1    3    3    0    0  0.31025322127E+02  0.66218355572E+02 -0.32119313008E+03  0.32941382491E+03  0.10000000000E+01 0.  0.
    9000005    1    3    3    0    0 -0.58101216414E+02 -0.17936542069E+02 -0.17465808960E+03  0.18494301596E+03  0.10000000000E+01 0.  0.
          4    1    1    2  501    0  0.27075894287E+02 -0.48281813503E+02 -0.18464623984E+04  0.18472924075E+04  0.12700000000E+01 0.  1.
<mgrwt>
<rscale>  1 0.13672793E+03</rscale>
<asrwt>0</asrwt>
<pdfrwt beam="2">  1       21 0.36183696E+00 0.13672793E+03</pdfrwt>
<pdfrwt beam="1">  1        4 0.14873822E-02 0.13672793E+03</pdfrwt>
<totfact> 0.10480864E+03</totfact>
</mgrwt>
</event>
<event>
 6    4  0.6326233E-003  0.1266119E+03  0.7818608E-02  0.1232571E+00
          4   -1    0    0  502    0 -0.00000000000E+00  0.00000000000E+00  0.79370098838E+01  0.80379739920E+01  0.12700000000E+01 0. -1.
         21   -1    0    0  501  502  0.00000000000E+00 -0.00000000000E+00 -0.86721463807E+03  0.86721463807E+03  0.00000000000E+00 0.  1.
         25    2    1    2    0    0  0.18845447917E+02  0.69725922717E+01 -0.51311878418E+03  0.52850872079E+03  0.12500725308E+03 0.  0.
    9000005    1    3    3    0    0  0.26511800816E+02 -0.53179434118E+02 -0.17042421378E+03  0.18048916986E+03  0.10000000000E+01 0.  0.
    9000005    1    3    3    0    0 -0.76663528987E+01  0.60152026390E+02 -0.34269457040E+03  0.34801955093E+03  0.10000000000E+01 0.  0.
          4    1    1    2  501    0 -0.18845447917E+02 -0.69725922717E+01 -0.34615884401E+03  0.34674389128E+03  0.12700000000E+01 0.  1.
<mgrwt>
<rscale>  1 0.12661193E+03</rscale>
<asrwt>0</asrwt>
<pdfrwt beam="2">  1       21 0.13341765E+00 0.12661193E+03</pdfrwt>
<pdfrwt beam="1">  1        4 0.12289163E-02 0.12661193E+03</pdfrwt>
<totfact> 0.35684188E+04</totfact>
</mgrwt>
</event>
<event>
 6    4  0.6326233E-003  0.1286821E+03  0.7818608E-02  0.1229425E+00
         -4   -1    0    0    0  501 -0.00000000000E+00  0.00000000000E+00  0.12590286867E+02  0.12654178100E+02  0.12700000000E+01 0. -1.
         21   -1    0    0  501  502  0.00000000000E+00 -0.00000000000E+00 -0.61438575895E+03  0.61438575895E+03  0.00000000000E+00 0. -1.
         25    2    1    2    0    0 -0.28083984842E+02 -0.11993021428E+02 -0.34122098525E+03  0.36467908087E+03  0.12500611378E+03 0.  0.
    9000005    1    3    3    0    0  0.14202523129E+02 -0.59654832833E+02 -0.21050652189E+03  0.21925876608E+03  0.10000000000E+01 0.  0.
    9000005    1    3    3    0    0 -0.42286507971E+02  0.47661811405E+02 -0.13071446336E+03  0.14542031479E+03  0.10000000000E+01 0.  0.
         -4    1    1    2    0  502  0.28083984842E+02  0.11993021428E+02 -0.26057448683E+03  0.26236085618E+03  0.12700000000E+01 0.  1.
<mgrwt>
<rscale>  1 0.12868205E+03</rscale>
<asrwt>0</asrwt>
<pdfrwt beam="2">  1       21 0.94520903E-01 0.12868205E+03</pdfrwt>
<pdfrwt beam="1">  1       -4 0.19419825E-02 0.12868205E+03</pdfrwt>
<totfact> 0.40719069E+04</totfact>
</mgrwt>
</event>
<event>
 6    4  0.6326233E-003  0.1278473E+03  0.7818608E-02  0.1230685E+00
         -4   -1    0    0    0  501 -0.00000000000E+00  0.00000000000E+00  0.38342568952E+01  0.40391120235E+01  0.12700000000E+01 0.  1.
         21   -1    0    0  501  502  0.00000000000E+00 -0.00000000000E+00 -0.18130780741E+04  0.18130780741E+04  0.00000000000E+00 0.  1.
         25    2    1    2    0    0  0.26725284193E+02  0.23750356659E+01 -0.11066980196E+04  0.11140580903E+04  0.12500016133E+03 0.  0.
    9000005    1    3    3    0    0  0.58703858297E+01 -0.49454862305E+02 -0.21857919337E+03  0.22418320323E+03  0.10000000000E+01 0.  0.
    9000005    1    3    3    0    0  0.20854898363E+02  0.51829897971E+02 -0.88811882625E+03  0.88987488708E+03  0.10000000000E+01 0.  0.
         -4    1    1    2    0  502 -0.26725284193E+02 -0.23750356659E+01 -0.70254579757E+03  0.70305909581E+03  0.12700000000E+01 0. -1.
<mgrwt>
<rscale>  1 0.12784726E+03</rscale>
<asrwt>0</asrwt>
<pdfrwt beam="2">  1       21 0.27893470E+00 0.12784726E+03</pdfrwt>
<pdfrwt beam="1">  1       -4 0.60567883E-03 0.12784726E+03</pdfrwt>
<totfact> 0.12028372E+04</totfact>
</mgrwt>
</event>
<event>
 6    4  0.6326233E-003  0.1268468E+03  0.7818608E-02  0.1232211E+00
         21   -1    0    0  501  502  0.00000000000E+00  0.00000000000E+00  0.16437111822E+03  0.16437111822E+03  0.00000000000E+00 0.  1.
         -4   -1    0    0    0  501 -0.00000000000E+00 -0.00000000000E+00 -0.49467329536E+02  0.49483629529E+02  0.12700000000E+01 0.  1.
         25    2    1    2    0    0 -0.14270911491E+02  0.16160327750E+02  0.35722451876E+02  0.13178092667E+03  0.12500121583E+03 0.  0.
    9000005    1    3    3    0    0 -0.39195055145E+02  0.50209585107E+02 -0.15346486264E+02  0.65526860333E+02  0.10000000000E+01 0.  0.
    9000005    1    3    3    0    0  0.24924143654E+02 -0.34049257357E+02  0.51068938140E+02  0.66254066337E+02  0.10000000000E+01 0.  0.
         -4    1    1    2    0  502  0.14270911491E+02 -0.16160327750E+02  0.79181336807E+02  0.82073821077E+02  0.12700000000E+01 0. -1.
<mgrwt>
<rscale>  1 0.12684683E+03</rscale>
<asrwt>0</asrwt>
<pdfrwt beam="1">  1       21 0.25287864E-01 0.12684683E+03</pdfrwt>
<pdfrwt beam="2">  1       -4 0.76119897E-02 0.12684683E+03</pdfrwt>
<totfact> 0.71387162E+04</totfact>
</mgrwt>
</event>
<event>
 6    4  0.6326233E-003  0.1394069E+03  0.7818608E-02  0.1214129E+00
         21   -1    0    0  501  502  0.00000000000E+00  0.00000000000E+00  0.39075865771E+03  0.39075865771E+03  0.00000000000E+00 0. -1.
         -4   -1    0    0    0  501 -0.00000000000E+00 -0.00000000000E+00 -0.77124452732E+02  0.77134908500E+02  0.12700000000E+01 0.  1.
         25    2    1    2    0    0  0.41739298201E+02  0.45464829031E+02 -0.87222137510E+01  0.13967946948E+03  0.12500022996E+03 0.  0.
    9000005    1    3    3    0    0  0.85091177056E+02  0.14993898751E+02 -0.55391067555E+01  0.86585259231E+02  0.10000000000E+01 0.  0.
    9000005    1    3    3    0    0 -0.43351878854E+02  0.30470930280E+02 -0.31831069956E+01  0.53094210254E+02  0.10000000000E+01 0.  0.
         -4    1    1    2    0  502 -0.41739298201E+02 -0.45464829031E+02  0.32235641873E+03  0.32821409672E+03  0.12700000000E+01 0. -1.
<mgrwt>
<rscale>  1 0.13940688E+03</rscale>
<asrwt>0</asrwt>
<pdfrwt beam="1">  1       21 0.60116716E-01 0.13940688E+03</pdfrwt>
<pdfrwt beam="2">  1       -4 0.11866264E-01 0.13940688E+03</pdfrwt>
<totfact> 0.60538339E+03</totfact>
</mgrwt>
</event>
<event>
 6    4  0.6326233E-003  0.1277316E+03  0.7818608E-02  0.1230861E+00
         21   -1    0    0  501  502  0.00000000000E+00  0.00000000000E+00  0.11324328142E+02  0.11324328142E+02  0.00000000000E+00 0. -1.
         -4   -1    0    0    0  501 -0.00000000000E+00 -0.00000000000E+00 -0.81446352420E+03  0.81446451436E+03  0.12700000000E+01 0. -1.
         25    2    1    2    0    0  0.17866377748E+02 -0.19272146397E+02 -0.78107812052E+03  0.79145333560E+03  0.12499891594E+03 0.  0.
    9000005    1    3    3    0    0 -0.46100086385E+02 -0.39305727651E+02 -0.38677016056E+03  0.39148731179E+03  0.10000000000E+01 0.  0.
    9000005    1    3    3    0    0  0.63966464133E+02  0.20033581254E+02 -0.39430795997E+03  0.39996602381E+03  0.10000000000E+01 0.  0.
         -4    1    1    2    0  502 -0.17866377748E+02  0.19272146397E+02 -0.22061075529E+02  0.34335506900E+02  0.12700000000E+01 0.  1.
<mgrwt>
<rscale>  1 0.12773156E+03</rscale>
<asrwt>0</asrwt>
<pdfrwt beam="1">  1       21 0.17422038E-02 0.12773156E+03</pdfrwt>
<pdfrwt beam="2">  1       -4 0.12530767E+00 0.12773156E+03</pdfrwt>
<totfact> 0.30925201E+04</totfact>
</mgrwt>
</event>
<event>
 6    4  0.6326233E-003  0.1297811E+03  0.7818608E-02  0.1227781E+00
         21   -1    0    0  501  502  0.00000000000E+00  0.00000000000E+00  0.78658984851E+02  0.78658984851E+02  0.00000000000E+00 0. -1.
          4   -1    0    0  502    0 -0.00000000000E+00 -0.00000000000E+00 -0.98288397040E+02  0.98296601633E+02  0.12700000000E+01 0. -1.
         25    2    1    2    0    0  0.33183200853E+02 -0.10841845492E+02 -0.40879735653E+02  0.13606720696E+03  0.12499784635E+03 0.  0.
    9000005    1    3    3    0    0  0.70356944739E+02 -0.39621688873E+02 -0.37174599009E+02  0.88898417948E+02  0.10000000000E+01 0.  0.
    9000005    1    3    3    0    0 -0.37173743886E+02  0.28779843382E+02 -0.37051366441E+01  0.47168789015E+02  0.10000000000E+01 0.  0.
          4    1    1    2  501    0 -0.33183200853E+02  0.10841845492E+02  0.21250323464E+02  0.40888379521E+02  0.12700000000E+01 0.  1.
<mgrwt>
<rscale>  1 0.12978109E+03</rscale>
<asrwt>0</asrwt>
<pdfrwt beam="1">  1       21 0.12101382E-01 0.12978109E+03</pdfrwt>
<pdfrwt beam="2">  1        4 0.15122712E-01 0.12978109E+03</pdfrwt>
<totfact> 0.86107437E+04</totfact>
</mgrwt>
</event>
<event>
 6    4  0.6326233E-003  0.1281133E+03  0.7818608E-02  0.1230282E+00
          4   -1    0    0  502    0 -0.00000000000E+00  0.00000000000E+00  0.22164346861E+02  0.22200702056E+02  0.12700000000E+01 0.  1.
         21   -1    0    0  501  502  0.00000000000E+00 -0.00000000000E+00 -0.38249435191E+03  0.38249435191E+03  0.00000000000E+00 0. -1.
         25    2    1    2    0    0  0.49667331185E+00  0.28067367843E+02 -0.17301518133E+03  0.21528417807E+03  0.12500000214E+03 0.  0.
    9000005    1    3    3    0    0  0.48005964963E+02  0.52520048818E+02 -0.73361374981E+02  0.10220479215E+03  0.10000000000E+01 0.  0.
    9000005    1    3    3    0    0 -0.47509291651E+02 -0.24452680975E+02 -0.99653806347E+02  0.11307938592E+03  0.10000000000E+01 0.  0.
          4    1    1    2  501    0 -0.49667331185E+00 -0.28067367843E+02 -0.18731482372E+03  0.18941087589E+03  0.12700000000E+01 0. -1.
<mgrwt>
<rscale>  1 0.12811333E+03</rscale>
<asrwt>0</asrwt>
<pdfrwt beam="2">  1       21 0.58845282E-01 0.12811333E+03</pdfrwt>
<pdfrwt beam="1">  1        4 0.34128584E-02 0.12811333E+03</pdfrwt>
<totfact> 0.48225462E+04</totfact>
</mgrwt>
</event>
<event>
 6    4  0.6326233E-003  0.1547052E+03  0.7818608E-02  0.1194808E+00
          4   -1    0    0  502    0 -0.00000000000E+00  0.00000000000E+00  0.74633272924E+02  0.74644077645E+02  0.12700000000E+01 0.  1.
         21   -1    0    0  501  502  0.00000000000E+00 -0.00000000000E+00 -0.21855769769E+03  0.21855769769E+03  0.00000000000E+00 0. -1.
         25    2    1    2    0    0  0.81116423213E+02  0.41590361719E+02 -0.50678177899E+02  0.16279430715E+03  0.12499630564E+03 0.  0.
    9000005    1    3    3    0    0  0.11354208413E+03  0.43857859615E+02 -0.34766009006E+02  0.12658985782E+03  0.10000000000E+01 0.  0.
    9000005    1    3    3    0    0 -0.32425660921E+02 -0.22674978966E+01 -0.15912168893E+02  0.36204449337E+02  0.10000000000E+01 0.  0.
          4    1    1    2  501    0 -0.81116423213E+02 -0.41590361719E+02 -0.93246246867E+02  0.13040746818E+03  0.12700000000E+01 0. -1.
<mgrwt>
<rscale>  1 0.15470523E+03</rscale>
<asrwt>0</asrwt>
<pdfrwt beam="2">  1       21 0.33624262E-01 0.15470523E+03</pdfrwt>
<pdfrwt beam="1">  1        4 0.11483157E-01 0.15470523E+03</pdfrwt>
<totfact> 0.21123077E+04</totfact>
</mgrwt>
</event>
<event>
 6    4  0.6326233E-003  0.1268689E+03  0.7818608E-02  0.1232177E+00
         -4   -1    0    0    0  501 -0.00000000000E+00  0.00000000000E+00  0.19433066384E+02  0.19474521023E+02  0.12700000000E+01 0. -1.
         21   -1    0    0  501  502  0.00000000000E+00 -0.00000000000E+00 -0.34842804895E+03  0.34842804895E+03  0.00000000000E+00 0. -1.
         25    2    1    2    0    0  0.21369068303E+02 -0.37594319766E+01 -0.19829223966E+03  0.23540505939E+03  0.12499983706E+03 0.  0.
    9000005    1    3    3    0    0  0.23524759553E+02  0.20675691182E+02 -0.20699834950E+03  0.20935666986E+03  0.10000000000E+01 0.  0.
    9000005    1    3    3    0    0 -0.21556912504E+01 -0.24435123159E+02  0.87061098381E+01  0.26048389529E+02  0.10000000000E+01 0.  0.
         -4    1    1    2    0  502 -0.21369068303E+02  0.37594319766E+01 -0.13070274290E+03  0.13249751058E+03  0.12700000000E+01 0.  1.
<mgrwt>
<rscale>  1 0.12686895E+03</rscale>
<asrwt>0</asrwt>
<pdfrwt beam="2">  1       21 0.53604313E-01 0.12686895E+03</pdfrwt>
<pdfrwt beam="1">  1       -4 0.29930695E-02 0.12686895E+03</pdfrwt>
<totfact> 0.71994796E+04</totfact>
</mgrwt>
</event>
<event>
 6    4  0.6326233E-003  0.1272706E+03  0.7818608E-02  0.1231563E+00
         21   -1    0    0  501  502  0.00000000000E+00  0.00000000000E+00  0.24274734810E+04  0.24274734810E+04  0.00000000000E+00 0.  1.
          4   -1    0    0  502    0 -0.00000000000E+00 -0.00000000000E+00 -0.22260914767E+01  0.25628857295E+01  0.12700000000E+01 0.  1.
         25    2    1    2    0    0  0.23818366616E+02  0.25495035789E+01  0.21405209128E+04  0.21443011851E+04  0.12499591936E+03 0.  0.
    9000005    1    3    3    0    0  0.53545536594E+02 -0.15145169295E+02  0.45034953597E+03  0.45377550088E+03  0.10000000000E+01 0.  0.
    9000005    1    3    3    0    0 -0.29727169977E+02  0.17694672874E+02  0.16901713768E+04  0.16905256842E+04  0.10000000000E+01 0.  0.
          4    1    1    2  501    0 -0.23818366616E+02 -0.25495035789E+01  0.28472647672E+03  0.28573518160E+03  0.12700000000E+01 0. -1.
<mgrwt>
<rscale>  1 0.12727056E+03</rscale>
<asrwt>0</asrwt>
<pdfrwt beam="1">  1       21 0.37345549E+00 0.12727056E+03</pdfrwt>
<pdfrwt beam="2">  1        4 0.36841036E-03 0.12727056E+03</pdfrwt>
<totfact> 0.72462725E+03</totfact>
</mgrwt>
</event>
<event>
 6    4  0.6326233E-003  0.1268176E+03  0.7818608E-02  0.1232256E+00
         21   -1    0    0  501  502  0.00000000000E+00  0.00000000000E+00  0.34920824978E+02  0.34920824978E+02  0.00000000000E+00 0. -1.
         -4   -1    0    0    0  501 -0.00000000000E+00 -0.00000000000E+00 -0.17056053004E+03  0.17056525820E+03  0.12700000000E+01 0.  1.
         25    2    1    2    0    0 -0.15476907371E+02  0.14765244839E+02 -0.13320662152E+03  0.18392037168E+03  0.12500060794E+03 0.  0.
    9000005    1    3    3    0    0 -0.68590783090E+02 -0.23969558230E+01 -0.55673463266E+02  0.88379722981E+02  0.10000000000E+01 0.  0.
    9000005    1    3    3    0    0  0.53113875719E+02  0.17162200662E+02 -0.77533158256E+02  0.95540648703E+02  0.10000000000E+01 0.  0.
         -4    1    1    2    0  502  0.15476907371E+02 -0.14765244839E+02 -0.24330835364E+01  0.21565711498E+02  0.12700000000E+01 0. -1.
<mgrwt>
<rscale>  1 0.12681758E+03</rscale>
<asrwt>0</asrwt>
<pdfrwt beam="1">  1       21 0.53724346E-02 0.12681758E+03</pdfrwt>
<pdfrwt beam="2">  1       -4 0.26242222E-01 0.12681758E+03</pdfrwt>
<totfact> 0.12945794E+05</totfact>
</mgrwt>
</event>
<event>
 6    4  0.6326233E-003  0.1267991E+03  0.7818608E-02  0.1232284E+00
         21   -1    0    0  501  502  0.00000000000E+00  0.00000000000E+00  0.65226799396E+03  0.65226799396E+03  0.00000000000E+00 0.  1.
          4   -1    0    0  502    0 -0.00000000000E+00 -0.00000000000E+00 -0.14943272153E+02  0.14997142482E+02  0.12700000000E+01 0.  1.
         25    2    1    2    0    0  0.19648967312E+02 -0.81874383141E+01  0.25933062795E+03  0.28867001768E+03  0.12499955380E+03 0.  0.
    9000005    1    3    3    0    0  0.18132888293E+02 -0.32275478922E+02  0.26178287887E+03  0.26438945487E+03  0.10000000000E+01 0.  0.
    9000005    1    3    3    0    0  0.15160790189E+01  0.24088040608E+02 -0.24522509127E+01  0.24280562812E+02  0.10000000000E+01 0.  0.
          4    1    1    2  501    0 -0.19648967312E+02  0.81874383141E+01  0.37799409385E+03  0.37859511876E+03  0.12700000000E+01 0. -1.
<mgrwt>
<rscale>  1 0.12679907E+03</rscale>
<asrwt>0</asrwt>
<pdfrwt beam="1">  1       21 0.10034890E+00 0.12679907E+03</pdfrwt>
<pdfrwt beam="2">  1        4 0.23032044E-02 0.12679907E+03</pdfrwt>
<totfact> 0.27201283E+04</totfact>
</mgrwt>
</event>
<event>
 6    4  0.6326233E-003  0.1269780E+03  0.7818608E-02  0.1232010E+00
         21   -1    0    0  501  502  0.00000000000E+00  0.00000000000E+00  0.23935892899E+03  0.23935892899E+03  0.00000000000E+00 0. -1.
          4   -1    0    0  502    0 -0.00000000000E+00 -0.00000000000E+00 -0.26966013085E+02  0.26995902684E+02  0.12700000000E+01 0. -1.
         25    2    1    2    0    0 -0.22143011985E+02  0.30484970948E+01  0.13306610022E+03  0.18392933258E+03  0.12499522407E+03 0.  0.
    9000005    1    3    3    0    0 -0.68294385317E+02 -0.10344718842E+02  0.11168434182E+03  0.13132223148E+03  0.10000000000E+01 0.  0.
    9000005    1    3    3    0    0  0.46151373332E+02  0.13393215937E+02  0.21381758402E+02  0.52607101098E+02  0.10000000000E+01 0.  0.
          4    1    1    2  501    0  0.22143011985E+02 -0.30484970948E+01  0.79326815685E+02  0.82425499095E+02  0.12700000000E+01 0.  1.
<mgrwt>
<rscale>  1 0.12697800E+03</rscale>
<asrwt>0</asrwt>
<pdfrwt beam="1">  1       21 0.36824449E-01 0.12697800E+03</pdfrwt>
<pdfrwt beam="2">  1        4 0.41511759E-02 0.12697800E+03</pdfrwt>
<totfact> 0.92077156E+04</totfact>
</mgrwt>
</event>
<event>
 6    4  0.6326233E-003  0.1266770E+03  0.7818608E-02  0.1232471E+00
         21   -1    0    0  501  502  0.00000000000E+00  0.00000000000E+00  0.81399262530E+03  0.81399262530E+03  0.00000000000E+00 0. -1.
         -4   -1    0    0    0  501 -0.00000000000E+00 -0.00000000000E+00 -0.81345547364E+01  0.82330966689E+01  0.12700000000E+01 0.  1.
         25    2    1    2    0    0  0.17155480423E+02  0.11300686748E+02  0.50432935718E+03  0.51999535631E+03  0.12500021618E+03 0.  0.
    9000005    1    3    3    0    0 -0.23716495306E+02 -0.19377209719E+02  0.29874959741E+02  0.42795579510E+02  0.10000000000E+01 0.  0.
    9000005    1    3    3    0    0  0.40871975729E+02  0.30677896467E+02  0.47445439744E+03  0.47719977680E+03  0.10000000000E+01 0.  0.
         -4    1    1    2    0  502 -0.17155480423E+02 -0.11300686748E+02  0.30152871339E+03  0.30223036566E+03  0.12700000000E+01 0. -1.
<mgrwt>
<rscale>  1 0.12667703E+03</rscale>
<asrwt>0</asrwt>
<pdfrwt beam="1">  1       21 0.12522957E+00 0.12667703E+03</pdfrwt>
<pdfrwt beam="2">  1       -4 0.12591270E-02 0.12667703E+03</pdfrwt>
<totfact> 0.40253281E+04</totfact>
</mgrwt>
</event>
<event>
 6    4  0.6326233E-003  0.1305855E+03  0.7818608E-02  0.1226590E+00
          4   -1    0    0  502    0 -0.00000000000E+00  0.00000000000E+00  0.31512558077E+02  0.31538139079E+02  0.12700000000E+01 0. -1.
         21   -1    0    0  501  502  0.00000000000E+00 -0.00000000000E+00 -0.23137063433E+03  0.23137063433E+03  0.00000000000E+00 0. -1.
         25    2    1    2    0    0  0.17203399249E+02 -0.33634426109E+02 -0.17198635857E+03  0.21594413659E+03  0.12500132409E+03 0.  0.
    9000005    1    3    3    0    0 -0.32569769732E+01 -0.45785547097E+02 -0.18373645274E+03  0.18938587141E+03  0.10000000000E+01 0.  0.
    9000005    1    3    3    0    0  0.20460376223E+02  0.12151120988E+02  0.11750094168E+02  0.26558265181E+02  0.10000000000E+01 0.  0.
          4    1    1    2  501    0 -0.17203399249E+02  0.33634426109E+02 -0.27871717679E+02  0.46964636822E+02  0.12700000000E+01 0.  1.
<mgrwt>
<rscale>  1 0.13058546E+03</rscale>
<asrwt>0</asrwt>
<pdfrwt beam="2">  1       21 0.35595482E-01 0.13058546E+03</pdfrwt>
<pdfrwt beam="1">  1        4 0.48503218E-02 0.13058546E+03</pdfrwt>
<totfact> 0.77064413E+04</totfact>
</mgrwt>
</event>
<event>
 6    4  0.6326233E-003  0.1325374E+03  0.7818608E-02  0.1223738E+00
         21   -1    0    0  501  502  0.00000000000E+00  0.00000000000E+00  0.27819454237E+02  0.27819454237E+02  0.00000000000E+00 0. -1.
          4   -1    0    0  502    0 -0.00000000000E+00 -0.00000000000E+00 -0.30343669154E+03  0.30343934924E+03  0.12700000000E+01 0. -1.
         25    2    1    2    0    0 -0.39406342648E+02 -0.19671667184E+02 -0.24170271371E+03  0.27565626630E+03  0.12500536391E+03 0.  0.
    9000005    1    3    3    0    0 -0.71844256275E+01 -0.42792339314E+02 -0.23033463224E+03  0.23438823155E+03  0.10000000000E+01 0.  0.
    9000005    1    3    3    0    0 -0.32221917021E+02  0.23120672130E+02 -0.11368081461E+02  0.41268034753E+02  0.10000000000E+01 0.  0.
          4    1    1    2  501    0  0.39406342648E+02  0.19671667184E+02 -0.33914523593E+02  0.55602537184E+02  0.12700000000E+01 0.  1.
<mgrwt>
<rscale>  1 0.13253745E+03</rscale>
<asrwt>0</asrwt>
<pdfrwt beam="1">  1       21 0.42799160E-02 0.13253745E+03</pdfrwt>
<pdfrwt beam="2">  1        4 0.46685003E-01 0.13253745E+03</pdfrwt>
<totfact> 0.62738522E+04</totfact>
</mgrwt>
</event>
<event>
 6    4  0.6326233E-003  0.1278806E+03  0.7818608E-02  0.1230635E+00
         21   -1    0    0  501  502  0.00000000000E+00  0.00000000000E+00  0.27962938969E+03  0.27962938969E+03  0.00000000000E+00 0.  1.
         -4   -1    0    0    0  501 -0.00000000000E+00 -0.00000000000E+00 -0.25913136932E+02  0.25944239546E+02  0.12700000000E+01 0. -1.
         25    2    1    2    0    0  0.26203568096E+02 -0.64789090955E+01  0.14403391358E+03  0.19261154855E+03  0.12499934853E+03 0.  0.
    9000005    1    3    3    0    0 -0.44225590391E+02  0.20779725167E+02  0.79238127956E+02  0.93098768765E+02  0.10000000000E+01 0.  0.
    9000005    1    3    3    0    0  0.70429158487E+02 -0.27258634263E+02  0.64795785623E+02  0.99512779790E+02  0.10000000000E+01 0.  0.
         -4    1    1    2    0  502 -0.26203568096E+02  0.64789090955E+01  0.10968233918E+03  0.11296208068E+03  0.12700000000E+01 0.  1.
<mgrwt>
<rscale>  1 0.12788057E+03</rscale>
<asrwt>0</asrwt>
<pdfrwt beam="1">  1       21 0.43019904E-01 0.12788057E+03</pdfrwt>
<pdfrwt beam="2">  1       -4 0.39892510E-02 0.12788057E+03</pdfrwt>
<totfact> 0.71961161E+04</totfact>
</mgrwt>
</event>
<event>
 6    4  0.6326233E-003  0.1362643E+03  0.7818608E-02  0.1218446E+00
         -4   -1    0    0    0  501 -0.00000000000E+00  0.00000000000E+00  0.30092578525E+02  0.30119365569E+02  0.12700000000E+01 0.  1.
         21   -1    0    0  501  502  0.00000000000E+00 -0.00000000000E+00 -0.89589901782E+03  0.89589901782E+03  0.00000000000E+00 0. -1.
         25    2    1    2    0    0 -0.21339781565E+02  0.49876161446E+02 -0.13037748488E+03  0.18859016474E+03  0.12499977567E+03 0.  0.
    9000005    1    3    3    0    0 -0.66543270255E+02  0.34272473665E+02 -0.11704457481E+03  0.13893538700E+03  0.10000000000E+01 0.  0.
    9000005    1    3    3    0    0  0.45203488691E+02  0.15603687782E+02 -0.13332910066E+02  0.49654777746E+02  0.10000000000E+01 0.  0.
         -4    1    1    2    0  502  0.21339781565E+02 -0.49876161446E+02 -0.73542895441E+03  0.73742821864E+03  0.12700000000E+01 0. -1.
<mgrwt>
<rscale>  1 0.13626431E+03</rscale>
<asrwt>0</asrwt>
<pdfrwt beam="2">  1       21 0.13783059E+00 0.13626431E+03</pdfrwt>
<pdfrwt beam="1">  1       -4 0.46317581E-02 0.13626431E+03</pdfrwt>
<totfact> 0.42093340E+03</totfact>
</mgrwt>
</event>
<event>
 6    4  0.6326233E-003  0.1281637E+03  0.7818608E-02  0.1230206E+00
         -4   -1    0    0    0  501 -0.00000000000E+00  0.00000000000E+00  0.14810265866E+02  0.14864618226E+02  0.12700000000E+01 0. -1.
         21   -1    0    0  501  502  0.00000000000E+00 -0.00000000000E+00 -0.62915307243E+03  0.62915307243E+03  0.00000000000E+00 0. -1.
         25    2    1    2    0    0 -0.23895885698E+02  0.15159439573E+02 -0.27394273772E+03  0.30244099103E+03  0.12500043017E+03 0.  0.
    9000005    1    3    3    0    0  0.27987437297E+02 -0.42198445013E+02 -0.11606859315E+03  0.12663697613E+03  0.10000000000E+01 0.  0.
    9000005    1    3    3    0    0 -0.51883322995E+02  0.57357884585E+02 -0.15787414458E+03  0.17580401490E+03  0.10000000000E+01 0.  0.
         -4    1    1    2    0  502  0.23895885698E+02 -0.15159439573E+02 -0.34040006884E+03  0.34157669963E+03  0.12700000000E+01 0.  1.
<mgrwt>
<rscale>  1 0.12816368E+03</rscale>
<asrwt>0</asrwt>
<pdfrwt beam="2">  1       21 0.96792793E-01 0.12816368E+03</pdfrwt>
<pdfrwt beam="1">  1       -4 0.22827817E-02 0.12816368E+03</pdfrwt>
<totfact> 0.30025668E+04</totfact>
</mgrwt>
</event>
<event>
 6    4  0.6326233E-003  0.1281756E+03  0.7818608E-02  0.1230188E+00
         -4   -1    0    0    0  501 -0.00000000000E+00  0.00000000000E+00  0.73862851983E+02  0.73873769384E+02  0.12700000000E+01 0.  1.
         21   -1    0    0  501  502  0.00000000000E+00 -0.00000000000E+00 -0.27229524909E+03  0.27229524909E+03  0.00000000000E+00 0. -1.
         25    2    1    2    0    0 -0.10891440437E+02 -0.26298824879E+02  0.16609814938E+02  0.12924733324E+03  0.12497493962E+03 0.  0.
    9000005    1    3    3    0    0 -0.47872511859E+02  0.63644672239E+01 -0.33603092456E+02  0.58842600702E+02  0.10000000000E+01 0.  0.
    9000005    1    3    3    0    0  0.36981071421E+02 -0.32663292103E+02  0.50212907394E+02  0.70404732536E+02  0.10000000000E+01 0.  0.
         -4    1    1    2    0  502  0.10891440437E+02  0.26298824879E+02 -0.21504221205E+03  0.21692168524E+03  0.12700000000E+01 0. -1.
<mgrwt>
<rscale>  1 0.12817561E+03</rscale>
<asrwt>0</asrwt>
<pdfrwt beam="2">  1       21 0.41891577E-01 0.12817561E+03</pdfrwt>
<pdfrwt beam="1">  1       -4 0.11364583E-01 0.12817561E+03</pdfrwt>
<totfact> 0.13669474E+04</totfact>
</mgrwt>
</event>
<event>
 6    4  0.6326233E-003  0.1304746E+03  0.7818608E-02  0.1226753E+00
         21   -1    0    0  501  502  0.00000000000E+00  0.00000000000E+00  0.27877991600E+03  0.27877991600E+03  0.00000000000E+00 0. -1.
          4   -1    0    0  502    0 -0.00000000000E+00 -0.00000000000E+00 -0.43933490579E+02  0.43951842902E+02  0.12700000000E+01 0.  1.
         25    2    1    2    0    0 -0.33199735110E+02  0.17212594238E+02  0.59435568851E+02  0.14337435784E+03  0.12500049532E+03 0.  0.
    9000005    1    3    3    0    0 -0.42652074724E+02 -0.32587286075E+02 -0.12735607865E+02  0.55175414812E+02  0.10000000000E+01 0.  0.
    9000005    1    3    3    0    0  0.94523396144E+01  0.49799880313E+02  0.72171176716E+02  0.88198943032E+02  0.10000000000E+01 0.  0.
          4    1    1    2  501    0  0.33199735110E+02 -0.17212594238E+02  0.17541085657E+03  0.17935740106E+03  0.12700000000E+01 0. -1.
<mgrwt>
<rscale>  1 0.13047459E+03</rscale>
<asrwt>0</asrwt>
<pdfrwt beam="1">  1       21 0.42889217E-01 0.13047459E+03</pdfrwt>
<pdfrwt beam="2">  1        4 0.67606330E-02 0.13047459E+03</pdfrwt>
<totfact> 0.31036804E+04</totfact>
</mgrwt>
</event>
<event>
 6    4  0.6326233E-003  0.1289895E+03  0.7818608E-02  0.1228963E+00
          4   -1    0    0  502    0 -0.00000000000E+00  0.00000000000E+00  0.96675995829E+02  0.96684337250E+02  0.12700000000E+01 0. -1.
         21   -1    0    0  501  502  0.00000000000E+00 -0.00000000000E+00 -0.68271959460E+02  0.68271959460E+02  0.00000000000E+00 0. -1.
         25    2    1    2    0    0  0.28627718386E+02 -0.13920832857E+02  0.31989054234E+02  0.13289695953E+03  0.12499986566E+03 0.  0.
    9000005    1    3    3    0    0  0.21935328415E+02 -0.26831062681E+02  0.77610971933E+02  0.85003103012E+02  0.10000000000E+01 0.  0.
    9000005    1    3    3    0    0  0.66923899705E+01  0.12910229824E+02 -0.45621917698E+02  0.47893856517E+02  0.10000000000E+01 0.  0.
          4    1    1    2  501    0 -0.28627718386E+02  0.13920832857E+02 -0.35850178651E+01  0.32059337181E+02  0.12700000000E+01 0.  1.
<mgrwt>
<rscale>  1 0.12898954E+03</rscale>
<asrwt>0</asrwt>
<pdfrwt beam="2">  1       21 0.10503378E-01 0.12898954E+03</pdfrwt>
<pdfrwt beam="1">  1        4 0.14874780E-01 0.12898954E+03</pdfrwt>
<totfact> 0.11367757E+05</totfact>
</mgrwt>
</event>
<event>
 6    4  0.6326233E-003  0.1399660E+03  0.7818608E-02  0.1213375E+00
         -4   -1    0    0    0  501 -0.00000000000E+00  0.00000000000E+00  0.44221881567E+03  0.44222063931E+03  0.12700000000E+01 0. -1.
         21   -1    0    0  501  502  0.00000000000E+00 -0.00000000000E+00 -0.32144333958E+02  0.32144333958E+02  0.00000000000E+00 0.  1.
         25    2    1    2    0    0  0.62021004502E+02 -0.10899540126E+02  0.37922746728E+03  0.40423255442E+03  0.12500032455E+03 0.  0.
    9000005    1    3    3    0    0 -0.13096563105E+02 -0.63032521363E+01 -0.28223056711E+01  0.14839688742E+02  0.10000000000E+01 0.  0.
    9000005    1    3    3    0    0  0.75117567607E+02 -0.45962879898E+01  0.38204977296E+03  0.38939286568E+03  0.10000000000E+01 0.  0.
         -4    1    1    2    0  502 -0.62021004502E+02  0.10899540126E+02  0.30847014430E+02  0.70132418849E+02  0.12700000000E+01 0.  1.
<mgrwt>
<rscale>  1 0.13996602E+03</rscale>
<asrwt>0</asrwt>
<pdfrwt beam="2">  1       21 0.49452825E-02 0.13996602E+03</pdfrwt>
<pdfrwt beam="1">  1       -4 0.68035730E-01 0.13996602E+03</pdfrwt>
<totfact> 0.22656650E+04</totfact>
</mgrwt>
</event>
<event>
 6    4  0.6326233E-003  0.1756957E+03  0.7818608E-02  0.1172035E+00
         21   -1    0    0  501  502  0.00000000000E+00  0.00000000000E+00  0.39912282928E+03  0.39912282928E+03  0.00000000000E+00 0. -1.
          4   -1    0    0  502    0 -0.00000000000E+00 -0.00000000000E+00 -0.82690998186E+02  0.82700750184E+02  0.12700000000E+01 0. -1.
         25    2    1    2    0    0 -0.12329827708E+03 -0.65093184274E+01  0.31223807591E+03  0.35827586868E+03  0.12499658265E+03 0.  0.
    9000005    1    3    3    0    0 -0.48864469949E+02  0.53115291501E+01  0.14661655362E+02  0.51302172501E+02  0.10000000000E+01 0.  0.
    9000005    1    3    3    0    0 -0.74433807128E+02 -0.11820847577E+02  0.29757642055E+03  0.30697369618E+03  0.10000000000E+01 0.  0.
          4    1    1    2  501    0  0.12329827708E+03  0.65093184274E+01  0.41937551836E+01  0.12354771078E+03  0.12700000000E+01 0.  1.
<mgrwt>
<rscale>  1 0.17569571E+03</rscale>
<asrwt>0</asrwt>
<pdfrwt beam="1">  1       21 0.61403511E-01 0.17569571E+03</pdfrwt>
<pdfrwt beam="2">  1        4 0.12722598E-01 0.17569571E+03</pdfrwt>
<totfact> 0.51912342E+03</totfact>
</mgrwt>
</event>
<event>
 6    4  0.6326233E-003  0.1266571E+03  0.7818608E-02  0.1232502E+00
          4   -1    0    0  502    0 -0.00000000000E+00  0.00000000000E+00  0.55006975233E+01  0.56454028415E+01  0.12700000000E+01 0. -1.
         21   -1    0    0  501  502  0.00000000000E+00 -0.00000000000E+00 -0.10933874235E+04  0.10933874235E+04  0.00000000000E+00 0. -1.
         25    2    1    2    0    0 -0.94500009158E+01  0.18097725433E+02 -0.75770063893E+03  0.76821369878E+03  0.12500079428E+03 0.  0.
    9000005    1    3    3    0    0  0.44484401252E+02 -0.23764643376E+02 -0.19638266533E+03  0.20275791346E+03  0.10000000000E+01 0.  0.
    9000005    1    3    3    0    0 -0.53934402168E+02  0.41862368809E+02 -0.56131797360E+03  0.56545578532E+03  0.10000000000E+01 0.  0.
          4    1    1    2  501    0  0.94500009158E+01 -0.18097725433E+02 -0.33018608700E+03  0.33081912752E+03  0.12700000000E+01 0.  1.
<mgrwt>
<rscale>  1 0.12665713E+03</rscale>
<asrwt>0</asrwt>
<pdfrwt beam="2">  1       21 0.16821342E+00 0.12665713E+03</pdfrwt>
<pdfrwt beam="1">  1        4 0.85744925E-03 0.12665713E+03</pdfrwt>
<totfact> 0.33635292E+04</totfact>
</mgrwt>
</event>
<event>
 6    4  0.6326233E-003  0.1397687E+03  0.7818608E-02  0.1213641E+00
         -4   -1    0    0    0  501 -0.00000000000E+00  0.00000000000E+00  0.16904148166E+02  0.16951788261E+02  0.12700000000E+01 0. -1.
         21   -1    0    0  501  502  0.00000000000E+00 -0.00000000000E+00 -0.62915292501E+03  0.62915292501E+03  0.00000000000E+00 0. -1.
         25    2    1    2    0    0  0.51371330971E+02 -0.35630818294E+02 -0.35895456704E+03  0.38520600021E+03  0.12500684997E+03 0.  0.
    9000005    1    3    3    0    0 -0.39968553961E+01  0.43143894624E+02 -0.10366431098E+03  0.11235951169E+03  0.10000000000E+01 0.  0.
    9000005    1    3    3    0    0  0.55368186367E+02 -0.78774712918E+02 -0.25529025606E+03  0.27284648851E+03  0.10000000000E+01 0.  0.
         -4    1    1    2    0  502 -0.51371330971E+02  0.35630818294E+02 -0.25329420980E+03  0.26089871306E+03  0.12700000000E+01 0.  1.
<mgrwt>
<rscale>  1 0.13976867E+03</rscale>
<asrwt>0</asrwt>
<pdfrwt beam="2">  1       21 0.96792746E-01 0.13976867E+03</pdfrwt>
<pdfrwt beam="1">  1       -4 0.26044017E-02 0.13976867E+03</pdfrwt>
<totfact> 0.24646469E+04</totfact>
</mgrwt>
</event>
<event>
 6    4  0.6326233E-003  0.1941865E+03  0.7818608E-02  0.1154739E+00
         -4   -1    0    0    0  501 -0.00000000000E+00  0.00000000000E+00  0.45703897287E+03  0.45704073738E+03  0.12700000000E+01 0. -1.
         21   -1    0    0  501  502  0.00000000000E+00 -0.00000000000E+00 -0.92207598026E+02  0.92207598026E+02  0.00000000000E+00 0.  1.
         25    2    1    2    0    0  0.78901029399E+02  0.12592741985E+03  0.34953511131E+03  0.39985397110E+03  0.12500126660E+03 0.  0.
    9000005    1    3    3    0    0  0.93162145457E+02  0.49439326537E+02  0.13289273101E+03  0.16966116324E+03  0.10000000000E+01 0.  0.
    9000005    1    3    3    0    0 -0.14261116058E+02  0.76488093308E+02  0.21664238030E+03  0.23019280786E+03  0.10000000000E+01 0.  0.
         -4    1    1    2    0  502 -0.78901029399E+02 -0.12592741985E+03  0.15296263534E+02  0.14939436431E+03  0.12700000000E+01 0.  1.
<mgrwt>
<rscale>  1 0.19418652E+03</rscale>
<asrwt>0</asrwt>
<pdfrwt beam="2">  1       21 0.14185785E-01 0.19418652E+03</pdfrwt>
<pdfrwt beam="1">  1       -4 0.70314495E-01 0.19418652E+03</pdfrwt>
<totfact> 0.34474458E+03</totfact>
</mgrwt>
</event>
<event>
 6    4  0.6326233E-003  0.1273917E+03  0.7818608E-02  0.1231378E+00
         -4   -1    0    0    0  501 -0.00000000000E+00  0.00000000000E+00  0.13534619979E+04  0.13534625938E+04  0.12700000000E+01 0.  1.
         21   -1    0    0  501  502  0.00000000000E+00 -0.00000000000E+00 -0.47732144011E+01  0.47732144011E+01  0.00000000000E+00 0.  1.
         25    2    1    2    0    0  0.22462536384E+02 -0.99344412212E+01  0.12521443914E+04  0.12586080449E+04  0.12500150043E+03 0.  0.
    9000005    1    3    3    0    0 -0.52117495358E+02 -0.48424392541E+01  0.47515044717E+03  0.47802576289E+03  0.10000000000E+01 0.  0.
    9000005    1    3    3    0    0  0.74580031742E+02 -0.50920019671E+01  0.77699394426E+03  0.78058228204E+03  0.10000000000E+01 0.  0.
         -4    1    1    2    0  502 -0.22462536384E+02  0.99344412212E+01  0.96544392108E+02  0.99627763252E+02  0.12700000000E+01 0. -1.
<mgrwt>
<rscale>  1 0.12739166E+03</rscale>
<asrwt>0</asrwt>
<pdfrwt beam="2">  1       21 0.73434176E-03 0.12739166E+03</pdfrwt>
<pdfrwt beam="1">  1       -4 0.20823766E+00 0.12739166E+03</pdfrwt>
<totfact> 0.31945601E+04</totfact>
</mgrwt>
</event>
<event>
 6    4  0.6326233E-003  0.1276063E+03  0.7818608E-02  0.1231051E+00
         21   -1    0    0  501  502  0.00000000000E+00  0.00000000000E+00  0.82549157341E+02  0.82549157341E+02  0.00000000000E+00 0.  1.
          4   -1    0    0  502    0 -0.00000000000E+00 -0.00000000000E+00 -0.15581745096E+03  0.15582262648E+03  0.12700000000E+01 0. -1.
         25    2    1    2    0    0 -0.60266489139E+01 -0.24952581728E+02 -0.12623698786E+03  0.17949693944E+03  0.12499768931E+03 0.  0.
    9000005    1    3    3    0    0  0.19107558263E+01 -0.73459873765E+02 -0.50379577340E+02  0.89101660222E+02  0.10000000000E+01 0.  0.
    9000005    1    3    3    0    0 -0.79374047401E+01  0.48507292037E+02 -0.75857410517E+02  0.90395279220E+02  0.10000000000E+01 0.  0.
          4    1    1    2  501    0  0.60266489139E+01  0.24952581728E+02  0.52968694237E+02  0.58874844384E+02  0.12700000000E+01 0.  1.
<mgrwt>
<rscale>  1 0.12760632E+03</rscale>
<asrwt>0</asrwt>
<pdfrwt beam="1">  1       21 0.12699870E-01 0.12760632E+03</pdfrwt>
<pdfrwt beam="2">  1        4 0.23973065E-01 0.12760632E+03</pdfrwt>
<totfact> 0.34600213E+04</totfact>
</mgrwt>
</event>
<event>
 6    4  0.6326233E-003  0.1413643E+03  0.7818608E-02  0.1211505E+00
         -4   -1    0    0    0  501 -0.00000000000E+00  0.00000000000E+00  0.51518010811E+02  0.51533662183E+02  0.12700000000E+01 0.  1.
         21   -1    0    0  501  502  0.00000000000E+00 -0.00000000000E+00 -0.35303018017E+03  0.35303018017E+03  0.00000000000E+00 0. -1.
         25    2    1    2    0    0 -0.27542639339E+02  0.60012948265E+02 -0.58935947372E+02  0.15315782151E+03  0.12499488572E+03 0.  0.
    9000005    1    3    3    0    0 -0.69769004728E+02  0.55831765912E+02 -0.64695608938E+02  0.11032416744E+03  0.10000000000E+01 0.  0.
    9000005    1    3    3    0    0  0.42226365389E+02  0.41811823534E+01  0.57596615656E+01  0.42833654072E+02  0.10000000000E+01 0.  0.
         -4    1    1    2    0  502  0.27542639339E+02 -0.60012948265E+02 -0.24257622198E+03  0.25140602083E+03  0.12700000000E+01 0. -1.
<mgrwt>
<rscale>  1 0.14136433E+03</rscale>
<asrwt>0</asrwt>
<pdfrwt beam="2">  1       21 0.54312336E-01 0.14136433E+03</pdfrwt>
<pdfrwt beam="1">  1       -4 0.79272274E-02 0.14136433E+03</pdfrwt>
<totfact> 0.14801396E+04</totfact>
</mgrwt>
</event>
<event>
 6    4  0.6326233E-003  0.1277127E+03  0.7818608E-02  0.1230890E+00
         21   -1    0    0  501  502  0.00000000000E+00  0.00000000000E+00  0.58211266177E+02  0.58211266177E+02  0.00000000000E+00 0.  1.
         -4   -1    0    0    0  501 -0.00000000000E+00 -0.00000000000E+00 -0.19639203453E+03  0.19639614081E+03  0.12700000000E+01 0. -1.
         25    2    1    2    0    0  0.22488329731E+02 -0.13475235659E+02 -0.17046512486E+03  0.21299972110E+03  0.12499286157E+03 0.  0.
    9000005    1    3    3    0    0  0.55089439376E+02  0.33257909604E+02 -0.56757618808E+02  0.85810035396E+02  0.10000000000E+01 0.  0.
    9000005    1    3    3    0    0 -0.32601109645E+02 -0.46733145263E+02 -0.11370750605E+03  0.12718968570E+03  0.10000000000E+01 0.  0.
         -4    1    1    2    0  502 -0.22488329731E+02  0.13475235659E+02  0.32284356508E+02  0.41607685892E+02  0.12700000000E+01 0.  1.
<mgrwt>
<rscale>  1 0.12771266E+03</rscale>
<asrwt>0</asrwt>
<pdfrwt beam="1">  1       21 0.89555791E-02 0.12771266E+03</pdfrwt>
<pdfrwt beam="2">  1       -4 0.30215542E-01 0.12771266E+03</pdfrwt>
<totfact> 0.41550060E+04</totfact>
</mgrwt>
</event>
<event>
 6    4  0.6326233E-003  0.1270944E+03  0.7818608E-02  0.1231832E+00
         21   -1    0    0  501  502  0.00000000000E+00  0.00000000000E+00  0.24432155017E+03  0.24432155017E+03  0.00000000000E+00 0.  1.
          4   -1    0    0  502    0 -0.00000000000E+00 -0.00000000000E+00 -0.30429528265E+02  0.30456018953E+02  0.12700000000E+01 0.  1.
         25    2    1    2    0    0 -0.94294333393E+01  0.21036863368E+02  0.10918133304E+03  0.16755161566E+03  0.12498606559E+03 0.  0.
    9000005    1    3    3    0    0  0.88481059803E+01  0.28939872191E+02 -0.20358346547E+02  0.36486538010E+02  0.10000000000E+01 0.  0.
    9000005    1    3    3    0    0 -0.18277539320E+02 -0.79030088223E+01  0.12953967958E+03  0.13106507765E+03  0.10000000000E+01 0.  0.
          4    1    1    2  501    0  0.94294333393E+01 -0.21036863368E+02  0.10471068887E+03  0.10722595347E+03  0.12700000000E+01 0. -1.
<mgrwt>
<rscale>  1 0.12709438E+03</rscale>
<asrwt>0</asrwt>
<pdfrwt beam="1">  1       21 0.37587929E-01 0.12709438E+03</pdfrwt>
<pdfrwt beam="2">  1        4 0.46837577E-02 0.12709438E+03</pdfrwt>
<totfact> 0.72943256E+04</totfact>
</mgrwt>
</event>
<event>
 6    4  0.6326233E-003  0.1334654E+03  0.7818608E-02  0.1222402E+00
         21   -1    0    0  501  502  0.00000000000E+00  0.00000000000E+00  0.46785691110E+01  0.46785691110E+01  0.00000000000E+00 0. -1.
         -4   -1    0    0    0  501 -0.00000000000E+00 -0.00000000000E+00 -0.17388103456E+04  0.17388108094E+04  0.12700000000E+01 0. -1.
         25    2    1    2    0    0 -0.25494546810E+02  0.39222993615E+02 -0.13125084934E+04  0.13192769071E+04  0.12499838895E+03 0.  0.
    9000005    1    3    3    0    0 -0.15452871828E+02  0.70516159718E+02 -0.41978250589E+03  0.42594562127E+03  0.10000000000E+01 0.  0.
    9000005    1    3    3    0    0 -0.10041674982E+02 -0.31293166103E+02 -0.89272598746E+03  0.89333128579E+03  0.10000000000E+01 0.  0.
         -4    1    1    2    0  502  0.25494546810E+02 -0.39222993615E+02 -0.42162328315E+03  0.42421247145E+03  0.12700000000E+01 0.  1.
<mgrwt>
<rscale>  1 0.13346540E+03</rscale>
<asrwt>0</asrwt>
<pdfrwt beam="1">  1       21 0.71977821E-03 0.13346540E+03</pdfrwt>
<pdfrwt beam="2">  1       -4 0.26752319E+00 0.13346540E+03</pdfrwt>
<totfact> 0.14899251E+04</totfact>
</mgrwt>
</event>
<event>
 6    4  0.6326233E-003  0.1270986E+03  0.7818608E-02  0.1231825E+00
         21   -1    0    0  501  502  0.00000000000E+00  0.00000000000E+00  0.11060634933E+03  0.11060634933E+03  0.00000000000E+00 0. -1.
         -4   -1    0    0    0  501 -0.00000000000E+00 -0.00000000000E+00 -0.75028494030E+02  0.75039241843E+02  0.12700000000E+01 0.  1.
         25    2    1    2    0    0  0.93812421912E+00  0.22973772094E+02 -0.17014720660E+02  0.12823247222E+03  0.12500156772E+03 0.  0.
    9000005    1    3    3    0    0 -0.37672625735E+02 -0.11256298279E+02  0.36663103514E+02  0.53769081636E+02  0.10000000000E+01 0.  0.
    9000005    1    3    3    0    0  0.38610749954E+02  0.34230070373E+02 -0.53677824174E+02  0.74463390588E+02  0.10000000000E+01 0.  0.
         -4    1    1    2    0  502 -0.93812421912E+00 -0.22973772094E+02  0.52592575962E+02  0.57413118950E+02  0.12700000000E+01 0. -1.
<mgrwt>
<rscale>  1 0.12709865E+03</rscale>
<asrwt>0</asrwt>
<pdfrwt beam="1">  1       21 0.17016361E-01 0.12709865E+03</pdfrwt>
<pdfrwt beam="2">  1       -4 0.11544233E-01 0.12709865E+03</pdfrwt>
<totfact> 0.74131435E+04</totfact>
</mgrwt>
</event>
<event>
 6    4  0.6326233E-003  0.1474206E+03  0.7818608E-02  0.1203679E+00
         21   -1    0    0  501  502  0.00000000000E+00  0.00000000000E+00  0.32174931658E+02  0.32174931658E+02  0.00000000000E+00 0.  1.
          4   -1    0    0  502    0 -0.00000000000E+00 -0.00000000000E+00 -0.42543771213E+03  0.42543960771E+03  0.12700000000E+01 0. -1.
         25    2    1    2    0    0 -0.13353821912E+02 -0.77014507492E+02 -0.31077865480E+03  0.34397122539E+03  0.12499309056E+03 0.  0.
    9000005    1    3    3    0    0  0.19027615429E+02 -0.44745265471E+02 -0.25236717557E+02  0.54791247878E+02  0.10000000000E+01 0.  0.
    9000005    1    3    3    0    0 -0.32381437342E+02 -0.32269242020E+02 -0.28554193725E+03  0.28917997751E+03  0.10000000000E+01 0.  0.
          4    1    1    2  501    0  0.13353821912E+02  0.77014507492E+02 -0.82484125673E+02  0.11364331398E+03  0.12700000000E+01 0.  1.
<mgrwt>
<rscale>  1 0.14742059E+03</rscale>
<asrwt>0</asrwt>
<pdfrwt beam="1">  1       21 0.49499893E-02 0.14742059E+03</pdfrwt>
<pdfrwt beam="2">  1        4 0.65454032E-01 0.14742059E+03</pdfrwt>
<totfact> 0.24711085E+04</totfact>
</mgrwt>
</event>
<event>
 6    4  0.6326233E-003  0.1270336E+03  0.7818608E-02  0.1231925E+00
         -4   -1    0    0    0  501 -0.00000000000E+00  0.00000000000E+00  0.69862176547E+03  0.69862291981E+03  0.12700000000E+01 0.  1.
         21   -1    0    0  501  502  0.00000000000E+00 -0.00000000000E+00 -0.91059744881E+01  0.91059744881E+01  0.00000000000E+00 0.  1.
         25    2    1    2    0    0 -0.22581663278E+02 -0.15096465316E+01  0.64888339047E+03  0.66120131732E+03  0.12500126815E+03 0.  0.
    9000005    1    3    3    0    0  0.21152181352E+01 -0.48799961461E+02  0.51136075702E+03  0.51368933627E+03  0.10000000000E+01 0.  0.
    9000005    1    3    3    0    0 -0.24696881413E+02  0.47290314929E+02  0.13752263346E+03  0.14751198104E+03  0.10000000000E+01 0.  0.
         -4    1    1    2    0  502  0.22581663278E+02  0.15096465316E+01  0.40632400508E+02  0.46527576985E+02  0.12700000000E+01 0. -1.
<mgrwt>
<rscale>  1 0.12703357E+03</rscale>
<asrwt>0</asrwt>
<pdfrwt beam="2">  1       21 0.14009197E-02 0.12703357E+03</pdfrwt>
<pdfrwt beam="1">  1       -4 0.10748713E+00 0.12703357E+03</pdfrwt>
<totfact> 0.63093053E+04</totfact>
</mgrwt>
</event>
<event>
 6    4  0.6326233E-003  0.1285014E+03  0.7818608E-02  0.1229696E+00
         -4   -1    0    0    0  501 -0.00000000000E+00  0.00000000000E+00  0.80454727231E+01  0.81450924696E+01  0.12700000000E+01 0.  1.
         21   -1    0    0  501  502  0.00000000000E+00 -0.00000000000E+00 -0.93997137429E+03  0.93997137429E+03  0.00000000000E+00 0.  1.
         25    2    1    2    0    0 -0.28470074938E+02 -0.89194682999E+01 -0.86917481905E+03  0.87862248617E+03  0.12499001978E+03 0.  0.
    9000005    1    3    3    0    0  0.22492172745E+02  0.47151219665E+02 -0.31824768454E+03  0.32250848681E+03  0.10000000000E+01 0.  0.
    9000005    1    3    3    0    0 -0.50962247683E+02 -0.56070687965E+02 -0.55092713452E+03  0.55611399936E+03  0.10000000000E+01 0.  0.
         -4    1    1    2    0  502  0.28470074938E+02  0.89194682999E+01 -0.62751082515E+02  0.69493980593E+02  0.12700000000E+01 0. -1.
<mgrwt>
<rscale>  1 0.12850139E+03</rscale>
<asrwt>0</asrwt>
<pdfrwt beam="2">  1       21 0.14461096E+00 0.12850139E+03</pdfrwt>
<pdfrwt beam="1">  1       -4 0.12454943E-02 0.12850139E+03</pdfrwt>
<totfact> 0.28543283E+04</totfact>
</mgrwt>
</event>
<event>
 6    4  0.6326233E-003  0.1272810E+03  0.7818608E-02  0.1231547E+00
          4   -1    0    0  502    0 -0.00000000000E+00  0.00000000000E+00  0.23162900711E+03  0.23163248873E+03  0.12700000000E+01 0. -1.
         21   -1    0    0  501  502  0.00000000000E+00 -0.00000000000E+00 -0.11327308283E+03  0.11327308283E+03  0.00000000000E+00 0.  1.
         25    2    1    2    0    0 -0.19090950390E+02 -0.14534639827E+02  0.21252233873E+03  0.24772199963E+03  0.12499889799E+03 0.  0.
    9000005    1    3    3    0    0 -0.30101419823E+02 -0.66550728592E+02  0.10699826921E+03  0.12955587430E+03  0.10000000000E+01 0.  0.
    9000005    1    3    3    0    0  0.11010469433E+02  0.52016088765E+02  0.10552406952E+03  0.11816612533E+03  0.10000000000E+01 0.  0.
          4    1    1    2  501    0  0.19090950390E+02  0.14534639827E+02 -0.94166414454E+02  0.97183571929E+02  0.12700000000E+01 0.  1.
<mgrwt>
<rscale>  1 0.12728097E+03</rscale>
<asrwt>0</asrwt>
<pdfrwt beam="2">  1       21 0.17426628E-01 0.12728097E+03</pdfrwt>
<pdfrwt beam="1">  1        4 0.35636047E-01 0.12728097E+03</pdfrwt>
<totfact> 0.92788017E+03</totfact>
</mgrwt>
</event>
<event>
 6    4  0.6326233E-003  0.1270679E+03  0.7818608E-02  0.1231872E+00
         -4   -1    0    0    0  501 -0.00000000000E+00  0.00000000000E+00  0.69124324017E+01  0.70281307406E+01  0.12700000000E+01 0. -1.
         21   -1    0    0  501  502  0.00000000000E+00 -0.00000000000E+00 -0.89742733941E+03  0.89742733941E+03  0.00000000000E+00 0.  1.
         25    2    1    2    0    0  0.16543567823E+02 -0.15742012858E+02 -0.61482641873E+03  0.62781986855E+03  0.12499904627E+03 0.  0.
    9000005    1    3    3    0    0  0.36313491891E+02  0.43471463504E+02 -0.40368792836E+03  0.40764369409E+03  0.10000000000E+01 0.  0.
    9000005    1    3    3    0    0 -0.19769924069E+02 -0.59213476362E+02 -0.21113849037E+03  0.22017617446E+03  0.10000000000E+01 0.  0.
         -4    1    1    2    0  502 -0.16543567823E+02  0.15742012858E+02 -0.27568848828E+03  0.27663560160E+03  0.12700000000E+01 0.  1.
<mgrwt>
<rscale>  1 0.12706794E+03</rscale>
<asrwt>0</asrwt>
<pdfrwt beam="2">  1       21 0.13806579E+00 0.12706794E+03</pdfrwt>
<pdfrwt beam="1">  1       -4 0.10724198E-02 0.12706794E+03</pdfrwt>
<totfact> 0.40230003E+04</totfact>
</mgrwt>
</event>
<event>
 6    4  0.6326233E-003  0.1275582E+03  0.7818608E-02  0.1231125E+00
         -4   -1    0    0    0  501 -0.00000000000E+00  0.00000000000E+00  0.29548557579E+02  0.29575837351E+02  0.12700000000E+01 0. -1.
         21   -1    0    0  501  502  0.00000000000E+00 -0.00000000000E+00 -0.31636955495E+03  0.31636955495E+03  0.00000000000E+00 0.  1.
         25    2    1    2    0    0  0.84725212949E+01 -0.23905945351E+02 -0.11340651099E+03  0.17068137766E+03  0.12501127191E+03 0.  0.
    9000005    1    3    3    0    0 -0.41595835967E+01 -0.68814304867E+02 -0.10119066503E+03  0.12244697375E+03  0.10000000000E+01 0.  0.
    9000005    1    3    3    0    0  0.12632104892E+02  0.44908359516E+02 -0.12215845954E+02  0.48234403913E+02  0.10000000000E+01 0.  0.
         -4    1    1    2    0  502 -0.84725212949E+01  0.23905945351E+02 -0.17341448638E+03  0.17526401464E+03  0.12700000000E+01 0.  1.
<mgrwt>
<rscale>  1 0.12755821E+03</rscale>
<asrwt>0</asrwt>
<pdfrwt beam="2">  1       21 0.48672240E-01 0.12755821E+03</pdfrwt>
<pdfrwt beam="1">  1       -4 0.45482264E-02 0.12755821E+03</pdfrwt>
<totfact> 0.45410916E+04</totfact>
</mgrwt>
</event>
<event>
 6    4  0.6326233E-003  0.1307103E+03  0.7818608E-02  0.1226406E+00
         21   -1    0    0  501  502  0.00000000000E+00  0.00000000000E+00  0.62655954382E+01  0.62655954382E+01  0.00000000000E+00 0.  1.
         -4   -1    0    0    0  501 -0.00000000000E+00 -0.00000000000E+00 -0.14023391117E+04  0.14023396868E+04  0.12700000000E+01 0.  1.
         25    2    1    2    0    0 -0.34625717935E+02 -0.16249965808E+02 -0.12736454358E+04  0.12803350615E+04  0.12498868705E+03 0.  0.
    9000005    1    3    3    0    0  0.10553063416E+02 -0.56728553994E+01 -0.94610120351E+01  0.15298992927E+02  0.10000000000E+01 0.  0.
    9000005    1    3    3    0    0 -0.45178781352E+02 -0.10577110409E+02 -0.12641844238E+04  0.12650360686E+04  0.10000000000E+01 0.  0.
         -4    1    1    2    0  502  0.34625717935E+02  0.16249965808E+02 -0.12242808046E+03  0.12827022070E+03  0.12700000000E+01 0. -1.
<mgrwt>
<rscale>  1 0.13071027E+03</rscale>
<asrwt>0</asrwt>
<pdfrwt beam="1">  1       21 0.96393717E-03 0.13071027E+03</pdfrwt>
<pdfrwt beam="2">  1       -4 0.21575456E+00 0.13071027E+03</pdfrwt>
<totfact> 0.18834012E+04</totfact>
</mgrwt>
</event>
<event>
 6    4  0.6326233E-003  0.1287468E+03  0.7818608E-02  0.1229327E+00
         21   -1    0    0  501  502  0.00000000000E+00  0.00000000000E+00  0.12265648650E+03  0.12265648650E+03  0.00000000000E+00 0.  1.
          4   -1    0    0  502    0 -0.00000000000E+00 -0.00000000000E+00 -0.15825003930E+03  0.15825513527E+03  0.12700000000E+01 0. -1.
         25    2    1    2    0    0 -0.10500291993E+02 -0.28985594657E+02 -0.12917270039E+03  0.18237690407E+03  0.12500131113E+03 0.  0.
    9000005    1    3    3    0    0 -0.17042181766E+02  0.75736378793E+01  0.20751273932E+02  0.27917939033E+02  0.10000000000E+01 0.  0.
    9000005    1    3    3    0    0  0.65418897729E+01 -0.36559232536E+02 -0.14992397432E+03  0.15445896504E+03  0.10000000000E+01 0.  0.
          4    1    1    2  501    0  0.10500291993E+02  0.28985594657E+02  0.93579147583E+02  0.98534717698E+02  0.12700000000E+01 0.  1.
<mgrwt>
<rscale>  1 0.12874684E+03</rscale>
<asrwt>0</asrwt>
<pdfrwt beam="1">  1       21 0.18870229E-01 0.12874684E+03</pdfrwt>
<pdfrwt beam="2">  1        4 0.24347058E-01 0.12874684E+03</pdfrwt>
<totfact> 0.16455149E+04</totfact>
</mgrwt>
</event>
<event>
 6    4  0.6326233E-003  0.1277392E+03  0.7818608E-02  0.1230849E+00
         21   -1    0    0  501  502  0.00000000000E+00  0.00000000000E+00  0.14846277480E+03  0.14846277480E+03  0.00000000000E+00 0.  1.
          4   -1    0    0  502    0 -0.00000000000E+00 -0.00000000000E+00 -0.52743188377E+02  0.52758476287E+02  0.12700000000E+01 0. -1.
         25    2    1    2    0    0 -0.11251746045E+02 -0.23739589018E+02  0.31124136867E+02  0.13147632382E+03  0.12500856752E+03 0.  0.
    9000005    1    3    3    0    0 -0.43516820335E+02  0.29433424255E+02 -0.14294430438E+02  0.54455218822E+02  0.10000000000E+01 0.  0.
    9000005    1    3    3    0    0  0.32265074290E+02 -0.53173013273E+02  0.45418567305E+02  0.77021105000E+02  0.10000000000E+01 0.  0.
          4    1    1    2  501    0  0.11251746045E+02  0.23739589018E+02  0.64595449557E+02  0.69744927266E+02  0.12700000000E+01 0.  1.
<mgrwt>
<rscale>  1 0.12773923E+03</rscale>
<asrwt>0</asrwt>
<pdfrwt beam="1">  1       21 0.22840427E-01 0.12773923E+03</pdfrwt>
<pdfrwt beam="2">  1        4 0.81159306E-02 0.12773923E+03</pdfrwt>
<totfact> 0.77837535E+04</totfact>
</mgrwt>
</event>
<event>
 6    4  0.6326233E-003  0.1312895E+03  0.7818608E-02  0.1225555E+00
         21   -1    0    0  501  502  0.00000000000E+00  0.00000000000E+00  0.59826421881E+02  0.59826421881E+02  0.00000000000E+00 0. -1.
          4   -1    0    0  502    0 -0.00000000000E+00 -0.00000000000E+00 -0.25711238877E+03  0.25711552531E+03  0.12700000000E+01 0.  1.
         25    2    1    2    0    0  0.11988678607E+01 -0.40135051118E+02 -0.23019988091E+03  0.26500738983E+03  0.12499868752E+03 0.  0.
    9000005    1    3    3    0    0  0.17821618430E+02  0.41801075058E+02 -0.58968260909E+02  0.74452641015E+02  0.10000000000E+01 0.  0.
    9000005    1    3    3    0    0 -0.16622750569E+02 -0.81936126176E+02 -0.17123162000E+03  0.19055474882E+03  0.10000000000E+01 0.  0.
          4    1    1    2  501    0 -0.11988678607E+01  0.40135051118E+02  0.32913914021E+02  0.51934557364E+02  0.12700000000E+01 0. -1.
<mgrwt>
<rscale>  1 0.13128949E+03</rscale>
<asrwt>0</asrwt>
<pdfrwt beam="1">  1       21 0.92040649E-02 0.13128949E+03</pdfrwt>
<pdfrwt beam="2">  1        4 0.39557030E-01 0.13128949E+03</pdfrwt>
<totfact> 0.23664585E+04</totfact>
</mgrwt>
</event>
<event>
 6    4  0.6326233E-003  0.1266997E+03  0.7818608E-02  0.1232437E+00
          4   -1    0    0  502    0 -0.00000000000E+00  0.00000000000E+00  0.11964769138E+02  0.12031982402E+02  0.12700000000E+01 0. -1.
         21   -1    0    0  501  502  0.00000000000E+00 -0.00000000000E+00 -0.61386052573E+03  0.61386052573E+03  0.00000000000E+00 0.  1.
         25    2    1    2    0    0  0.40955127874E+01 -0.20280762238E+02 -0.33444851386E+03  0.35764314078E+03  0.12499890071E+03 0.  0.
    9000005    1    3    3    0    0 -0.17643619259E+02  0.79653013243E+01  0.18384310006E+01  0.19471085082E+02  0.10000000000E+01 0.  0.
    9000005    1    3    3    0    0  0.21739132046E+02 -0.28246063563E+02 -0.33628694486E+03  0.33817205570E+03  0.10000000000E+01 0.  0.
          4    1    1    2  501    0 -0.40955127874E+01  0.20280762238E+02 -0.26744724273E+03  0.26824936735E+03  0.12700000000E+01 0.  1.
<mgrwt>
<rscale>  1 0.12669968E+03</rscale>
<asrwt>0</asrwt>
<pdfrwt beam="2">  1       21 0.94440076E-01 0.12669968E+03</pdfrwt>
<pdfrwt beam="1">  1        4 0.18460051E-02 0.12669968E+03</pdfrwt>
<totfact> 0.44035985E+04</totfact>
</mgrwt>
</event>
<event>
 6    4  0.6326233E-003  0.1352707E+03  0.7818608E-02  0.1219838E+00
          4   -1    0    0  502    0 -0.00000000000E+00  0.00000000000E+00  0.72281125061E+03  0.72281236632E+03  0.12700000000E+01 0. -1.
         21   -1    0    0  501  502  0.00000000000E+00 -0.00000000000E+00 -0.14419984513E+02  0.14419984513E+02  0.00000000000E+00 0.  1.
         25    2    1    2    0    0  0.24427102179E+02  0.45568612353E+02  0.62203589172E+03  0.63657428937E+03  0.12499997422E+03 0.  0.
    9000005    1    3    3    0    0 -0.47430239786E+02  0.30831013648E+01  0.30725132342E+03  0.31090755685E+03  0.10000000000E+01 0.  0.
    9000005    1    3    3    0    0  0.71857341965E+02  0.42485510988E+02  0.31478456829E+03  0.32566673253E+03  0.10000000000E+01 0.  0.
          4    1    1    2  501    0 -0.24427102179E+02 -0.45568612353E+02  0.86355374382E+02  0.10065806146E+03  0.12700000000E+01 0.  1.
<mgrwt>
<rscale>  1 0.13527075E+03</rscale>
<asrwt>0</asrwt>
<pdfrwt beam="2">  1       21 0.22184597E-02 0.13527075E+03</pdfrwt>
<pdfrwt beam="1">  1        4 0.11120609E+00 0.13527075E+03</pdfrwt>
<totfact> 0.28049525E+04</totfact>
</mgrwt>
</event>
<event>
 6    4  0.6326233E-003  0.1306565E+03  0.7818608E-02  0.1226485E+00
         -4   -1    0    0    0  501 -0.00000000000E+00  0.00000000000E+00  0.69283499427E+03  0.69283615826E+03  0.12700000000E+01 0. -1.
         21   -1    0    0  501  502  0.00000000000E+00 -0.00000000000E+00 -0.10409923495E+02  0.10409923495E+02  0.00000000000E+00 0. -1.
         25    2    1    2    0    0  0.36874444620E+02 -0.93893988638E+01  0.49205701096E+03  0.50910825294E+03  0.12499290259E+03 0.  0.
    9000005    1    3    3    0    0  0.12618245060E+02 -0.15662078116E+02  0.48146962047E+03  0.48189056458E+03  0.10000000000E+01 0.  0.
    9000005    1    3    3    0    0  0.24256199560E+02  0.62726792521E+01  0.10587390492E+02  0.27217688358E+02  0.10000000000E+01 0.  0.
         -4    1    1    2    0  502 -0.36874444620E+02  0.93893988638E+01  0.19036805982E+03  0.19413782881E+03  0.12700000000E+01 0.  1.
<mgrwt>
<rscale>  1 0.13065646E+03</rscale>
<asrwt>0</asrwt>
<pdfrwt beam="2">  1       21 0.16015272E-02 0.13065646E+03</pdfrwt>
<pdfrwt beam="1">  1       -4 0.10659601E+00 0.13065646E+03</pdfrwt>
<totfact> 0.52158193E+04</totfact>
</mgrwt>
</event>
<event>
 6    4  0.6326233E-003  0.1274520E+03  0.7818608E-02  0.1231286E+00
         -4   -1    0    0    0  501 -0.00000000000E+00  0.00000000000E+00  0.26373814150E+02  0.26404374123E+02  0.12700000000E+01 0. -1.
         21   -1    0    0  501  502  0.00000000000E+00 -0.00000000000E+00 -0.40274423330E+03  0.40274423330E+03  0.00000000000E+00 0.  1.
         25    2    1    2    0    0  0.16452569810E+02  0.18781163173E+02 -0.13194855156E+03  0.18345147394E+03  0.12498241432E+03 0.  0.
    9000005    1    3    3    0    0 -0.49627471141E+02 -0.54635316596E+01 -0.85813901082E+02  0.99286261331E+02  0.10000000000E+01 0.  0.
    9000005    1    3    3    0    0  0.66080040951E+02  0.24244694832E+02 -0.46134650478E+02  0.84165212614E+02  0.10000000000E+01 0.  0.
         -4    1    1    2    0  502 -0.16452569810E+02 -0.18781163173E+02 -0.24442186759E+03  0.24569713348E+03  0.12700000000E+01 0.  1.
<mgrwt>
<rscale>  1 0.12745204E+03</rscale>
<asrwt>0</asrwt>
<pdfrwt beam="2">  1       21 0.61960647E-01 0.12745204E+03</pdfrwt>
<pdfrwt beam="1">  1       -4 0.40600149E-02 0.12745204E+03</pdfrwt>
<totfact> 0.32827156E+04</totfact>
</mgrwt>
</event>
<event>
 6    4  0.6326233E-003  0.1350566E+03  0.7818608E-02  0.1220140E+00
         -4   -1    0    0    0  501 -0.00000000000E+00  0.00000000000E+00  0.31496738501E+03  0.31496994543E+03  0.12700000000E+01 0. -1.
         21   -1    0    0  501  502  0.00000000000E+00 -0.00000000000E+00 -0.66284531327E+02  0.66284531327E+02  0.00000000000E+00 0.  1.
         25    2    1    2    0    0  0.53585275750E+01  0.50859940886E+02  0.28709882751E+03  0.31727911158E+03  0.12499940192E+03 0.  0.
    9000005    1    3    3    0    0 -0.31667344594E+02  0.28074640443E+02  0.26526040534E+03  0.26861699275E+03  0.10000000000E+01 0.  0.
    9000005    1    3    3    0    0  0.37025872169E+02  0.22785300443E+02  0.21838422166E+02  0.48662118828E+02  0.10000000000E+01 0.  0.
         -4    1    1    2    0  502 -0.53585275750E+01 -0.50859940886E+02 -0.38415973824E+02  0.63975365177E+02  0.12700000000E+01 0.  1.
<mgrwt>
<rscale>  1 0.13505665E+03</rscale>
<asrwt>0</asrwt>
<pdfrwt beam="2">  1       21 0.10197620E-01 0.13505665E+03</pdfrwt>
<pdfrwt beam="1">  1       -4 0.48457653E-01 0.13505665E+03</pdfrwt>
<totfact> 0.13236493E+04</totfact>
</mgrwt>
</event>
<event>
 6    4  0.6326233E-003  0.1438598E+03  0.7818608E-02  0.1208228E+00
         -4   -1    0    0    0  501 -0.00000000000E+00  0.00000000000E+00  0.66597779174E+02  0.66609887336E+02  0.12700000000E+01 0. -1.
         21   -1    0    0  501  502  0.00000000000E+00 -0.00000000000E+00 -0.19053820800E+03  0.19053820800E+03  0.00000000000E+00 0.  1.
         25    2    1    2    0    0  0.67887038752E+02  0.21361645470E+02 -0.44727270383E+02  0.15065252126E+03  0.12502273200E+03 0.  0.
    9000005    1    3    3    0    0 -0.88284496974E+01  0.44840491578E+02  0.17672780095E+02  0.49009574221E+02  0.10000000000E+01 0.  0.
    9000005    1    3    3    0    0  0.76715488449E+02 -0.23478846108E+02 -0.62400050477E+02  0.10164294704E+03  0.10000000000E+01 0.  0.
         -4    1    1    2    0  502 -0.67887038752E+02 -0.21361645470E+02 -0.79213158442E+02  0.10649557408E+03  0.12700000000E+01 0.  1.
<mgrwt>
<rscale>  1 0.14385984E+03</rscale>
<asrwt>0</asrwt>
<pdfrwt beam="2">  1       21 0.29313570E-01 0.14385984E+03</pdfrwt>
<pdfrwt beam="1">  1       -4 0.10247069E-01 0.14385984E+03</pdfrwt>
<totfact> 0.33251578E+04</totfact>
</mgrwt>
</event>
<event>
 6    4  0.6326233E-003  0.1964215E+03  0.7818608E-02  0.1152794E+00
          4   -1    0    0  502    0 -0.00000000000E+00  0.00000000000E+00  0.88440727939E+02  0.88449846005E+02  0.12700000000E+01 0.  1.
         21   -1    0    0  501  502  0.00000000000E+00 -0.00000000000E+00 -0.36173867606E+03  0.36173867606E+03  0.00000000000E+00 0. -1.
         25    2    1    2    0    0  0.13965745943E+03 -0.58758433065E+02 -0.10142306494E+03  0.22106116054E+03  0.12499855667E+03 0.  0.
    9000005    1    3    3    0    0  0.94283887761E+02 -0.47273466366E+02  0.41667200118E+01  0.10555848459E+03  0.10000000000E+01 0.  0.
    9000005    1    3    3    0    0  0.45373571666E+02 -0.11484966700E+02 -0.10558978495E+03  0.11550267595E+03  0.10000000000E+01 0.  0.
          4    1    1    2  501    0 -0.13965745943E+03  0.58758433065E+02 -0.17187488318E+03  0.22912736152E+03  0.12700000000E+01 0. -1.
<mgrwt>
<rscale>  1 0.19642148E+03</rscale>
<asrwt>0</asrwt>
<pdfrwt beam="2">  1       21 0.55652103E-01 0.19642148E+03</pdfrwt>
<pdfrwt beam="1">  1        4 0.13607139E-01 0.19642148E+03</pdfrwt>
<totfact> 0.57236656E+03</totfact>
</mgrwt>
</event>
<event>
 6    4  0.6326233E-003  0.2092519E+03  0.7818608E-02  0.1142160E+00
         21   -1    0    0  501  502  0.00000000000E+00  0.00000000000E+00  0.68043410855E+03  0.68043410855E+03  0.00000000000E+00 0. -1.
         -4   -1    0    0    0  501 -0.00000000000E+00 -0.00000000000E+00 -0.60489062414E+02  0.60502393107E+02  0.12700000000E+01 0.  1.
         25    2    1    2    0    0 -0.16776793822E+03 -0.38896152071E+01  0.20323311356E+03  0.29170197733E+03  0.12500053971E+03 0.  0.
    9000005    1    3    3    0    0 -0.47544946636E+02  0.22074236468E+01 -0.82890622900E+01  0.48322905784E+02  0.10000000000E+01 0.  0.
    9000005    1    3    3    0    0 -0.12022299158E+03 -0.60970388539E+01  0.21152217585E+03  0.24337907154E+03  0.10000000000E+01 0.  0.
         -4    1    1    2    0  502  0.16776793822E+03  0.38896152071E+01  0.41671193258E+03  0.44923452433E+03  0.12700000000E+01 0. -1.
<mgrwt>
<rscale>  1 0.20925187E+03</rscale>
<asrwt>0</asrwt>
<pdfrwt beam="1">  1       21 0.10468217E+00 0.20925187E+03</pdfrwt>
<pdfrwt beam="2">  1       -4 0.93071266E-02 0.20925187E+03</pdfrwt>
<totfact> 0.26542652E+03</totfact>
</mgrwt>
</event>
<event>
 6    4  0.6326233E-003  0.1323379E+03  0.7818608E-02  0.1224027E+00
         21   -1    0    0  501  502  0.00000000000E+00  0.00000000000E+00  0.23764549431E+03  0.23764549431E+03  0.00000000000E+00 0. -1.
         -4   -1    0    0    0  501 -0.00000000000E+00 -0.00000000000E+00 -0.38578482208E+02  0.38599380688E+02  0.12700000000E+01 0. -1.
         25    2    1    2    0    0 -0.26425404935E+02  0.34493361568E+02  0.93378765246E+02  0.16196577611E+03  0.12500089926E+03 0.  0.
    9000005    1    3    3    0    0 -0.59840776744E+02 -0.14858482832E+02  0.79764871939E+02  0.10082225880E+03  0.10000000000E+01 0.  0.
    9000005    1    3    3    0    0  0.33415371809E+02  0.49351844401E+02  0.13613893307E+02  0.61143517317E+02  0.10000000000E+01 0.  0.
         -4    1    1    2    0  502  0.26425404935E+02 -0.34493361568E+02  0.10568824685E+03  0.11427909888E+03  0.12700000000E+01 0.  1.
<mgrwt>
<rscale>  1 0.13233790E+03</rscale>
<asrwt>0</asrwt>
<pdfrwt beam="1">  1       21 0.36560844E-01 0.13233790E+03</pdfrwt>
<pdfrwt beam="2">  1       -4 0.59370199E-02 0.13233790E+03</pdfrwt>
<totfact> 0.52842801E+04</totfact>
</mgrwt>
</event>
<event>
 6    4  0.6326233E-003  0.1266107E+03  0.7818608E-02  0.1232573E+00
         -4   -1    0    0    0  501 -0.00000000000E+00  0.00000000000E+00  0.36102941093E+02  0.36125271702E+02  0.12700000000E+01 0.  1.
         21   -1    0    0  501  502  0.00000000000E+00 -0.00000000000E+00 -0.15603195775E+03  0.15603195775E+03  0.00000000000E+00 0.  1.
         25    2    1    2    0    0 -0.17907430251E+02  0.91273747806E+01 -0.87219883077E+02  0.15374518254E+03  0.12500515238E+03 0.  0.
    9000005    1    3    3    0    0  0.25449803223E+02  0.27025405567E+02 -0.98690828233E+02  0.10544640633E+03  0.10000000000E+01 0.  0.
    9000005    1    3    3    0    0 -0.43357233474E+02 -0.17898030786E+02  0.11470945156E+02  0.48298776210E+02  0.10000000000E+01 0.  0.
         -4    1    1    2    0  502  0.17907430251E+02 -0.91273747806E+01 -0.32709133576E+02  0.38412046911E+02  0.12700000000E+01 0. -1.
<mgrwt>
<rscale>  1 0.12661071E+03</rscale>
<asrwt>0</asrwt>
<pdfrwt beam="2">  1       21 0.24004917E-01 0.12661071E+03</pdfrwt>
<pdfrwt beam="1">  1       -4 0.55564139E-02 0.12661071E+03</pdfrwt>
<totfact> 0.13157767E+05</totfact>
</mgrwt>
</event>
<event>
 6    4  0.6326233E-003  0.1267928E+03  0.7818608E-02  0.1232294E+00
          4   -1    0    0  502    0 -0.00000000000E+00  0.00000000000E+00  0.53760485338E+02  0.53775484041E+02  0.12700000000E+01 0. -1.
         21   -1    0    0  501  502  0.00000000000E+00 -0.00000000000E+00 -0.12127245857E+03  0.12127245857E+03  0.00000000000E+00 0. -1.
         25    2    1    2    0    0 -0.21211454343E+02  0.13622757020E+01 -0.27526461333E+02  0.12974633500E+03  0.12499849512E+03 0.  0.
    9000005    1    3    3    0    0 -0.13287126017E+02 -0.53966050289E+02  0.17164074916E+02  0.58176350602E+02  0.10000000000E+01 0.  0.
    9000005    1    3    3    0    0 -0.79243283257E+01  0.55328325991E+02 -0.44690536249E+02  0.71569984397E+02  0.10000000000E+01 0.  0.
          4    1    1    2  501    0  0.21211454343E+02 -0.13622757020E+01 -0.39985511896E+02  0.45301607610E+02  0.12700000000E+01 0.  1.
<mgrwt>
<rscale>  1 0.12679277E+03</rscale>
<asrwt>0</asrwt>
<pdfrwt beam="2">  1       21 0.18657301E-01 0.12679277E+03</pdfrwt>
<pdfrwt beam="1">  1        4 0.82725092E-02 0.12679277E+03</pdfrwt>
<totfact> 0.10961711E+05</totfact>
</mgrwt>
</event>
<event>
 6    4  0.6326233E-003  0.1281188E+03  0.7818608E-02  0.1230274E+00
         -4   -1    0    0    0  501 -0.00000000000E+00  0.00000000000E+00  0.12255741831E+02  0.12321367937E+02  0.12700000000E+01 0.  1.
         21   -1    0    0  501  502  0.00000000000E+00 -0.00000000000E+00 -0.49772472538E+03  0.49772472538E+03  0.00000000000E+00 0.  1.
         25    2    1    2    0    0  0.42228386903E+01  0.27777727463E+02 -0.38847161131E+03  0.40905333303E+03  0.12500000783E+03 0.  0.
    9000005    1    3    3    0    0 -0.10477439754E+02  0.18731922481E+02 -0.13316964524E+01  0.21527542337E+02  0.10000000000E+01 0.  0.
    9000005    1    3    3    0    0  0.14700278444E+02  0.90458049826E+01 -0.38713991486E+03  0.38752579069E+03  0.10000000000E+01 0.  0.
         -4    1    1    2    0  502 -0.42228386903E+01 -0.27777727463E+02 -0.96997372239E+02  0.10099276029E+03  0.12700000000E+01 0. -1.
<mgrwt>
<rscale>  1 0.12811884E+03</rscale>
<asrwt>0</asrwt>
<pdfrwt beam="2">  1       21 0.76573032E-01 0.12811884E+03</pdfrwt>
<pdfrwt beam="1">  1       -4 0.18906716E-02 0.12811884E+03</pdfrwt>
<totfact> 0.68275057E+04</totfact>
</mgrwt>
</event>
<event>
 6    4  0.6326233E-003  0.1296826E+03  0.7818608E-02  0.1227927E+00
         21   -1    0    0  501  502  0.00000000000E+00  0.00000000000E+00  0.30859712215E+02  0.30859712215E+02  0.00000000000E+00 0.  1.
          4   -1    0    0  502    0 -0.00000000000E+00 -0.00000000000E+00 -0.41375205046E+03  0.41375399957E+03  0.12700000000E+01 0. -1.
         25    2    1    2    0    0  0.32009056939E+02  0.12958349826E+02 -0.38852976743E+03  0.40960097033E+03  0.12500030463E+03 0.  0.
    9000005    1    3    3    0    0 -0.29196363982E+02  0.59891839334E+01 -0.19883507902E+02  0.35842040685E+02  0.10000000000E+01 0.  0.
    9000005    1    3    3    0    0  0.61205420921E+02  0.69691658929E+01 -0.36864625953E+03  0.37375892965E+03  0.10000000000E+01 0.  0.
          4    1    1    2  501    0 -0.32009056939E+02 -0.12958349826E+02  0.56374291872E+01  0.35012741455E+02  0.12700000000E+01 0.  1.
<mgrwt>
<rscale>  1 0.12968259E+03</rscale>
<asrwt>0</asrwt>
<pdfrwt beam="1">  1       21 0.47476481E-02 0.12968259E+03</pdfrwt>
<pdfrwt beam="2">  1        4 0.63656321E-01 0.12968259E+03</pdfrwt>
<totfact> 0.27726549E+04</totfact>
</mgrwt>
</event>
<event>
 6    4  0.6326233E-003  0.1317188E+03  0.7818608E-02  0.1224927E+00
         -4   -1    0    0    0  501 -0.00000000000E+00  0.00000000000E+00  0.18863532653E+03  0.18863960167E+03  0.12700000000E+01 0.  1.
         21   -1    0    0  501  502  0.00000000000E+00 -0.00000000000E+00 -0.66516891589E+02  0.66516891589E+02  0.00000000000E+00 0. -1.
         25    2    1    2    0    0 -0.66816144921E+01 -0.40971030484E+02  0.15411083032E+03  0.20273135069E+03  0.12500633271E+03 0.  0.
    9000005    1    3    3    0    0 -0.13097582954E+02  0.35382732115E+02  0.92626633050E+01  0.38862338358E+02  0.10000000000E+01 0.  0.
    9000005    1    3    3    0    0  0.64159684622E+01 -0.76353762599E+02  0.14484816702E+03  0.16386901233E+03  0.10000000000E+01 0.  0.
         -4    1    1    2    0  502  0.66816144921E+01  0.40971030484E+02 -0.31992395376E+02  0.52425142566E+02  0.12700000000E+01 0. -1.
<mgrwt>
<rscale>  1 0.13171884E+03</rscale>
<asrwt>0</asrwt>
<pdfrwt beam="2">  1       21 0.10233368E-01 0.13171884E+03</pdfrwt>
<pdfrwt beam="1">  1       -4 0.29022081E-01 0.13171884E+03</pdfrwt>
<totfact> 0.35657640E+04</totfact>
</mgrwt>
</event>
<event>
 6    4  0.6326233E-003  0.1505743E+03  0.7818608E-02  0.1199769E+00
          4   -1    0    0  502    0 -0.00000000000E+00  0.00000000000E+00  0.96882987199E+02  0.96891310800E+02  0.12700000000E+01 0. -1.
         21   -1    0    0  501  502  0.00000000000E+00 -0.00000000000E+00 -0.48082567411E+03  0.48082567411E+03  0.00000000000E+00 0.  1.
         25    2    1    2    0    0  0.55596784362E+02  0.62899829459E+02  0.31535090390E+02  0.15384107464E+03  0.12500089337E+03 0.  0.
    9000005    1    3    3    0    0  0.32416355129E+02 -0.36309704150E+02  0.97494759469E+01  0.49651454929E+02  0.10000000000E+01 0.  0.
    9000005    1    3    3    0    0  0.23180429234E+02  0.99209533610E+02  0.21785614443E+02  0.10418961971E+03  0.10000000000E+01 0.  0.
          4    1    1    2  501    0 -0.55596784362E+02 -0.62899829459E+02 -0.41547777730E+03  0.42387591027E+03  0.12700000000E+01 0.  1.
<mgrwt>
<rscale>  1 0.15057428E+03</rscale>
<asrwt>0</asrwt>
<pdfrwt beam="2">  1       21 0.73973182E-01 0.15057428E+03</pdfrwt>
<pdfrwt beam="1">  1        4 0.14905844E-01 0.15057428E+03</pdfrwt>
<totfact> 0.26116274E+03</totfact>
</mgrwt>
</event>
<event>
 6    4  0.6326233E-003  0.1291062E+03  0.7818608E-02  0.1228788E+00
         21   -1    0    0  501  502  0.00000000000E+00  0.00000000000E+00  0.32461077249E+02  0.32461077249E+02  0.00000000000E+00 0. -1.
         -4   -1    0    0    0  501 -0.00000000000E+00 -0.00000000000E+00 -0.20581311078E+04  0.20581314997E+04  0.12700000000E+01 0.  1.
         25    2    1    2    0    0  0.30948671865E+02  0.91541040914E+01 -0.20475268592E+04  0.20515931953E+04  0.12500712747E+03 0.  0.
    9000005    1    3    3    0    0 -0.15420302583E+02 -0.48547137910E+02 -0.10997634591E+04  0.11009429033E+04  0.10000000000E+01 0.  0.
    9000005    1    3    3    0    0  0.46368974449E+02  0.57701242002E+02 -0.94776340010E+03  0.95065029201E+03  0.10000000000E+01 0.  0.
         -4    1    1    2    0  502 -0.30948671865E+02 -0.91541040914E+01  0.21856828599E+02  0.38999381641E+02  0.12700000000E+01 0. -1.
<mgrwt>
<rscale>  1 0.12910616E+03</rscale>
<asrwt>0</asrwt>
<pdfrwt beam="1">  1       21 0.49940122E-02 0.12910616E+03</pdfrwt>
<pdfrwt beam="2">  1       -4 0.31663747E+00 0.12910616E+03</pdfrwt>
<totfact> 0.34023465E+02</totfact>
</mgrwt>
</event>
<event>
 6    4  0.6326233E-003  0.1367980E+03  0.7818608E-02  0.1217704E+00
         -4   -1    0    0    0  501 -0.00000000000E+00  0.00000000000E+00  0.59754264906E+02  0.59767759490E+02  0.12700000000E+01 0.  1.
         21   -1    0    0  501  502  0.00000000000E+00 -0.00000000000E+00 -0.18345714830E+03  0.18345714830E+03  0.00000000000E+00 0. -1.
         25    2    1    2    0    0 -0.53766473175E+02 -0.14052675256E+02 -0.39603995734E+02  0.14241544829E+03  0.12500148844E+03 0.  0.
    9000005    1    3    3    0    0 -0.92265905031E+02  0.29595598714E+01 -0.39237831529E+02  0.10031133360E+03  0.10000000000E+01 0.  0.
    9000005    1    3    3    0    0  0.38499431856E+02 -0.17012235127E+02 -0.36616420464E+00  0.42104114686E+02  0.10000000000E+01 0.  0.
         -4    1    1    2    0  502  0.53766473175E+02  0.14052675256E+02 -0.84098887665E+02  0.10080945951E+03  0.12700000000E+01 0. -1.
<mgrwt>
<rscale>  1 0.13679797E+03</rscale>
<asrwt>0</asrwt>
<pdfrwt beam="2">  1       21 0.28224177E-01 0.13679797E+03</pdfrwt>
<pdfrwt beam="1">  1       -4 0.91943400E-02 0.13679797E+03</pdfrwt>
<totfact> 0.42695592E+04</totfact>
</mgrwt>
</event>
<event>
 6    4  0.6326233E-003  0.1278006E+03  0.7818608E-02  0.1230756E+00
          4   -1    0    0  502    0 -0.00000000000E+00  0.00000000000E+00  0.23408281516E+02  0.23442707683E+02  0.12700000000E+01 0.  1.
         21   -1    0    0  501  502  0.00000000000E+00 -0.00000000000E+00 -0.25725684129E+03  0.25725684129E+03  0.00000000000E+00 0.  1.
         25    2    1    2    0    0 -0.26600336338E+02  0.36273875774E+00 -0.20370195248E+03  0.24047343427E+03  0.12500111069E+03 0.  0.
    9000005    1    3    3    0    0 -0.38274079219E+02  0.12657103306E+02 -0.21585530886E+03  0.21958966680E+03  0.10000000000E+01 0.  0.
    9000005    1    3    3    0    0  0.11673742881E+02 -0.12294364548E+02  0.12153356378E+02  0.20883767470E+02  0.10000000000E+01 0.  0.
          4    1    1    2  501    0  0.26600336338E+02 -0.36273875774E+00 -0.30146607301E+02  0.40226114707E+02  0.12700000000E+01 0. -1.
<mgrwt>
<rscale>  1 0.12780058E+03</rscale>
<asrwt>0</asrwt>
<pdfrwt beam="2">  1       21 0.39577975E-01 0.12780058E+03</pdfrwt>
<pdfrwt beam="1">  1        4 0.36041634E-02 0.12780058E+03</pdfrwt>
<totfact> 0.99886924E+04</totfact>
</mgrwt>
</event>
<event>
 6    4  0.6326233E-003  0.1287314E+03  0.7818608E-02  0.1229350E+00
         21   -1    0    0  501  502  0.00000000000E+00  0.00000000000E+00  0.20468151827E+02  0.20468151827E+02  0.00000000000E+00 0. -1.
         -4   -1    0    0    0  501 -0.00000000000E+00 -0.00000000000E+00 -0.33233398253E+03  0.33233640914E+03  0.12700000000E+01 0. -1.
         25    2    1    2    0    0 -0.41003769281E+01  0.30501907038E+02 -0.28156031585E+03  0.30959325973E+03  0.12499838235E+03 0.  0.
    9000005    1    3    3    0    0 -0.16567742934E+02 -0.23015197469E+02 -0.23740161829E+03  0.23909144231E+03  0.10000000000E+01 0.  0.
    9000005    1    3    3    0    0  0.12467366005E+02  0.53517104507E+02 -0.44158697556E+02  0.70501817422E+02  0.10000000000E+01 0.  0.
         -4    1    1    2    0  502  0.41003769281E+01 -0.30501907038E+02 -0.30305514853E+02  0.43211301235E+02  0.12700000000E+01 0.  1.
<mgrwt>
<rscale>  1 0.12873141E+03</rscale>
<asrwt>0</asrwt>
<pdfrwt beam="1">  1       21 0.31489463E-02 0.12873141E+03</pdfrwt>
<pdfrwt beam="2">  1       -4 0.51131525E-01 0.12873141E+03</pdfrwt>
<totfact> 0.86336790E+04</totfact>
</mgrwt>
</event>
<event>
 6    4  0.6326233E-003  0.1346839E+03  0.7818608E-02  0.1220667E+00
          4   -1    0    0  502    0 -0.00000000000E+00  0.00000000000E+00  0.47708785665E+03  0.47708954701E+03  0.12700000000E+01 0.  1.
         21   -1    0    0  501  502  0.00000000000E+00 -0.00000000000E+00 -0.22777213491E+02  0.22777213491E+02  0.00000000000E+00 0. -1.
         25    2    1    2    0    0  0.42451767857E+02 -0.26715936546E+02  0.41445225285E+03  0.43578713786E+03  0.12499546300E+03 0.  0.
    9000005    1    3    3    0    0  0.63760127297E+02 -0.23414791522E+02  0.10176013500E+03  0.12235085357E+03  0.10000000000E+01 0.  0.
    9000005    1    3    3    0    0 -0.21308359441E+02 -0.33011450245E+01  0.31269211785E+03  0.31343628429E+03  0.10000000000E+01 0.  0.
          4    1    1    2  501    0 -0.42451767857E+02  0.26715936546E+02  0.39858390308E+02  0.64079622640E+02  0.12700000000E+01 0. -1.
<mgrwt>
<rscale>  1 0.13468392E+03</rscale>
<asrwt>0</asrwt>
<pdfrwt beam="2">  1       21 0.35041871E-02 0.13468392E+03</pdfrwt>
<pdfrwt beam="1">  1        4 0.73400978E-01 0.13468392E+03</pdfrwt>
<totfact> 0.33999107E+04</totfact>
</mgrwt>
</event>
<event>
 6    4  0.6326233E-003  0.1280282E+03  0.7818608E-02  0.1230411E+00
         -4   -1    0    0    0  501 -0.00000000000E+00  0.00000000000E+00  0.74664885008E+03  0.74664993017E+03  0.12700000000E+01 0.  1.
         21   -1    0    0  501  502  0.00000000000E+00 -0.00000000000E+00 -0.78156686665E+02  0.78156686665E+02  0.00000000000E+00 0. -1.
         25    2    1    2    0    0 -0.28684040532E+01 -0.27529920089E+02  0.73849972177E+03  0.74951521381E+03  0.12500036976E+03 0.  0.
    9000005    1    3    3    0    0  0.47823347077E+01  0.73616179445E+01 -0.12320028542E+01  0.89208729982E+01  0.10000000000E+01 0.  0.
    9000005    1    3    3    0    0 -0.76507387609E+01 -0.34891538033E+02  0.73973172462E+03  0.74059434081E+03  0.10000000000E+01 0.  0.
         -4    1    1    2    0  502  0.28684040532E+01  0.27529920089E+02 -0.70007558358E+02  0.75291403023E+02  0.12700000000E+01 0. -1.
<mgrwt>
<rscale>  1 0.12802819E+03</rscale>
<asrwt>0</asrwt>
<pdfrwt beam="2">  1       21 0.12024106E-01 0.12802819E+03</pdfrwt>
<pdfrwt beam="1">  1       -4 0.11486993E+00 0.12802819E+03</pdfrwt>
<totfact> 0.14927281E+03</totfact>
</mgrwt>
</event>
<event>
 6    4  0.6326233E-003  0.1282396E+03  0.7818608E-02  0.1230091E+00
          4   -1    0    0  502    0 -0.00000000000E+00  0.00000000000E+00  0.16800013931E+03  0.16800493954E+03  0.12700000000E+01 0.  1.
         21   -1    0    0  501  502  0.00000000000E+00 -0.00000000000E+00 -0.68648247383E+02  0.68648247383E+02  0.00000000000E+00 0.  1.
         25    2    1    2    0    0 -0.43428162720E+01  0.28313122629E+02  0.13809395404E+03  0.18845512428E+03  0.12499960304E+03 0.  0.
    9000005    1    3    3    0    0  0.47015249699E+02  0.58441455966E+01  0.97235972894E+01  0.48374953088E+02  0.10000000000E+01 0.  0.
    9000005    1    3    3    0    0 -0.51358065971E+02  0.22468977032E+02  0.12837035675E+03  0.14008017119E+03  0.10000000000E+01 0.  0.
          4    1    1    2  501    0  0.43428162720E+01 -0.28313122629E+02 -0.38742062107E+02  0.48198062643E+02  0.12700000000E+01 0. -1.
<mgrwt>
<rscale>  1 0.12823959E+03</rscale>
<asrwt>0</asrwt>
<pdfrwt beam="2">  1       21 0.10561269E-01 0.12823959E+03</pdfrwt>
<pdfrwt beam="1">  1        4 0.25847448E-01 0.12823959E+03</pdfrwt>
<totfact> 0.41742018E+04</totfact>
</mgrwt>
</event>
<event>
 6    4  0.6326233E-003  0.1267389E+03  0.7818608E-02  0.1232376E+00
         21   -1    0    0  501  502  0.00000000000E+00  0.00000000000E+00  0.55648957633E+03  0.55648957633E+03  0.00000000000E+00 0. -1.
          4   -1    0    0  502    0 -0.00000000000E+00 -0.00000000000E+00 -0.16454361877E+02  0.16503300421E+02  0.12700000000E+01 0.  1.
         25    2    1    2    0    0 -0.23366539129E+01 -0.20736900805E+02  0.23293598388E+03  0.26518282278E+03  0.12500911129E+03 0.  0.
    9000005    1    3    3    0    0 -0.37729421748E+02  0.38776969338E+02  0.72743792414E+02  0.90663233735E+02  0.10000000000E+01 0.  0.
    9000005    1    3    3    0    0  0.35392767835E+02 -0.59513870143E+02  0.16019219147E+03  0.17451958905E+03  0.10000000000E+01 0.  0.
          4    1    1    2  501    0  0.23366539129E+01  0.20736900805E+02  0.30709923058E+03  0.30781005397E+03  0.12700000000E+01 0. -1.
<mgrwt>
<rscale>  1 0.12673893E+03</rscale>
<asrwt>0</asrwt>
<pdfrwt beam="1">  1       21 0.85613766E-01 0.12673893E+03</pdfrwt>
<pdfrwt beam="2">  1        4 0.25353167E-02 0.12673893E+03</pdfrwt>
<totfact> 0.33772278E+04</totfact>
</mgrwt>
</event>
<event>
 6    4  0.6326233E-003  0.1267014E+03  0.7818608E-02  0.1232434E+00
         -4   -1    0    0    0  501 -0.00000000000E+00  0.00000000000E+00  0.40510085184E+02  0.40529987683E+02  0.12700000000E+01 0. -1.
         21   -1    0    0  501  502  0.00000000000E+00 -0.00000000000E+00 -0.30225214788E+03  0.30225214788E+03  0.00000000000E+00 0.  1.
         25    2    1    2    0    0  0.71333594491E+01 -0.19378094250E+02 -0.60367684868E+02  0.14034782943E+03  0.12500744176E+03 0.  0.
    9000005    1    3    3    0    0 -0.31305454848E+00  0.53417643883E+02 -0.22853221173E+02  0.58110346748E+02  0.10000000000E+01 0.  0.
    9000005    1    3    3    0    0  0.74464139976E+01 -0.72795738133E+02 -0.37514463695E+02  0.82237482683E+02  0.10000000000E+01 0.  0.
         -4    1    1    2    0  502 -0.71333594491E+01  0.19378094250E+02 -0.20137437782E+03  0.20243430613E+03  0.12700000000E+01 0.  1.
<mgrwt>
<rscale>  1 0.12670144E+03</rscale>
<asrwt>0</asrwt>
<pdfrwt beam="2">  1       21 0.46500332E-01 0.12670144E+03</pdfrwt>
<pdfrwt beam="1">  1       -4 0.62340568E-02 0.12670144E+03</pdfrwt>
<totfact> 0.29976332E+04</totfact>
</mgrwt>
</event>
<event>
 6    4  0.6326233E-003  0.1292512E+03  0.7818608E-02  0.1228571E+00
         21   -1    0    0  501  502  0.00000000000E+00  0.00000000000E+00  0.13935530490E+04  0.13935530490E+04  0.00000000000E+00 0. -1.
          4   -1    0    0  502    0 -0.00000000000E+00 -0.00000000000E+00 -0.78005632013E+01  0.79032706051E+01  0.12700000000E+01 0.  1.
         25    2    1    2    0    0 -0.18919084156E+02  0.26881358123E+02  0.54715601809E+03  0.56221488372E+03  0.12500131271E+03 0.  0.
    9000005    1    3    3    0    0 -0.32074803360E+02  0.20794278723E+02  0.41807087558E+02  0.56657105541E+02  0.10000000000E+01 0.  0.
    9000005    1    3    3    0    0  0.13155719204E+02  0.60870794000E+01  0.50534893053E+03  0.50555777818E+03  0.10000000000E+01 0.  0.
          4    1    1    2  501    0  0.18919084156E+02 -0.26881358123E+02  0.83859646771E+03  0.83924143589E+03  0.12700000000E+01 0. -1.
<mgrwt>
<rscale>  1 0.12925118E+03</rscale>
<asrwt>0</asrwt>
<pdfrwt beam="1">  1       21 0.21439258E+00 0.12925118E+03</pdfrwt>
<pdfrwt beam="2">  1        4 0.12080328E-02 0.12925118E+03</pdfrwt>
<totfact> 0.10109824E+04</totfact>
</mgrwt>
</event>
<event>
 6    4  0.6326233E-003  0.1269839E+03  0.7818608E-02  0.1232001E+00
          4   -1    0    0  502    0 -0.00000000000E+00  0.00000000000E+00  0.56070128272E+03  0.56070272100E+03  0.12700000000E+01 0. -1.
         21   -1    0    0  501  502  0.00000000000E+00 -0.00000000000E+00 -0.11180059816E+02  0.11180059816E+02  0.00000000000E+00 0.  1.
         25    2    1    2    0    0  0.63836687779E+01 -0.21435423257E+02  0.51717728943E+03  0.53253851148E+03  0.12499875565E+03 0.  0.
    9000005    1    3    3    0    0  0.34040649581E+02 -0.64897599614E+02  0.25388353764E+03  0.26425047766E+03  0.10000000000E+01 0.  0.
    9000005    1    3    3    0    0 -0.27656980803E+02  0.43462176357E+02  0.26329375179E+03  0.26828803382E+03  0.10000000000E+01 0.  0.
          4    1    1    2  501    0 -0.63836687779E+01  0.21435423257E+02  0.32343933473E+02  0.39344269338E+02  0.12700000000E+01 0.  1.
<mgrwt>
<rscale>  1 0.12698393E+03</rscale>
<asrwt>0</asrwt>
<pdfrwt beam="2">  1       21 0.17200096E-02 0.12698393E+03</pdfrwt>
<pdfrwt beam="1">  1        4 0.86267373E-01 0.12698393E+03</pdfrwt>
<totfact> 0.75205593E+04</totfact>
</mgrwt>
</event>
<event>
 6    4  0.6326233E-003  0.1289286E+03  0.7818608E-02  0.1229054E+00
         21   -1    0    0  501  502  0.00000000000E+00  0.00000000000E+00  0.10135603146E+03  0.10135603146E+03  0.00000000000E+00 0. -1.
         -4   -1    0    0    0  501 -0.00000000000E+00 -0.00000000000E+00 -0.64304131565E+02  0.64316671527E+02  0.12700000000E+01 0. -1.
         25    2    1    2    0    0 -0.25105402390E+02 -0.19159274425E+02  0.36752834080E+02  0.13406477098E+03  0.12500093191E+03 0.  0.
    9000005    1    3    3    0    0  0.11658082384E+01  0.40564181217E+02 -0.22075733410E+02  0.46207682394E+02  0.10000000000E+01 0.  0.
    9000005    1    3    3    0    0 -0.26271210628E+02 -0.59723455642E+02  0.58828567490E+02  0.87857088585E+02  0.10000000000E+01 0.  0.
         -4    1    1    2    0  502  0.25105402390E+02  0.19159274425E+02  0.29906581800E+00  0.31607932011E+02  0.12700000000E+01 0.  1.
<mgrwt>
<rscale>  1 0.12892863E+03</rscale>
<asrwt>0</asrwt>
<pdfrwt beam="1">  1       21 0.15593236E-01 0.12892863E+03</pdfrwt>
<pdfrwt beam="2">  1       -4 0.98945200E-02 0.12892863E+03</pdfrwt>
<totfact> 0.11297649E+05</totfact>
</mgrwt>
</event>
<event>
 6    4  0.6326233E-003  0.1268804E+03  0.7818608E-02  0.1232159E+00
         21   -1    0    0  501  502  0.00000000000E+00  0.00000000000E+00  0.17151260604E+03  0.17151260604E+03  0.00000000000E+00 0.  1.
          4   -1    0    0  502    0 -0.00000000000E+00 -0.00000000000E+00 -0.20569259202E+03  0.20569651264E+03  0.12700000000E+01 0. -1.
         25    2    1    2    0    0 -0.19515966421E+02  0.96342041392E+01 -0.18527126038E+03  0.22455304467E+03  0.12499975646E+03 0.  0.
    9000005    1    3    3    0    0  0.27116237624E+02  0.27909017264E+02 -0.16660703878E+03  0.17109386008E+03  0.10000000000E+01 0.  0.
    9000005    1    3    3    0    0 -0.46632204045E+02 -0.18274813125E+02 -0.18664221599E+02  0.53459184587E+02  0.10000000000E+01 0.  0.
          4    1    1    2  501    0  0.19515966421E+02 -0.96342041392E+01  0.15109127439E+03  0.15265607401E+03  0.12700000000E+01 0.  1.
<mgrwt>
<rscale>  1 0.12688038E+03</rscale>
<asrwt>0</asrwt>
<pdfrwt beam="1">  1       21 0.26386555E-01 0.12688038E+03</pdfrwt>
<pdfrwt beam="2">  1        4 0.31645677E-01 0.12688038E+03</pdfrwt>
<totfact> 0.53818498E+03</totfact>
</mgrwt>
</event>
<event>
 6    4  0.6326233E-003  0.1268146E+03  0.7818608E-02  0.1232260E+00
         -4   -1    0    0    0  501 -0.00000000000E+00  0.00000000000E+00  0.53351335316E+03  0.53351486474E+03  0.12700000000E+01 0.  1.
         21   -1    0    0  501  502  0.00000000000E+00 -0.00000000000E+00 -0.13688818562E+02  0.13688818562E+02  0.00000000000E+00 0.  1.
         25    2    1    2    0    0  0.20141229490E+02  0.71572468386E+01  0.50615511535E+03  0.52179972239E+03  0.12500021671E+03 0.  0.
    9000005    1    3    3    0    0  0.34824466468E+02  0.11791556797E+02  0.50498836673E+03  0.50632601633E+03  0.10000000000E+01 0.  0.
    9000005    1    3    3    0    0 -0.14683236978E+02 -0.46343099585E+01  0.11667486240E+01  0.15473706062E+02  0.10000000000E+01 0.  0.
         -4    1    1    2    0  502 -0.20141229490E+02 -0.71572468386E+01  0.13669419242E+02  0.25403960913E+02  0.12700000000E+01 0. -1.
<mgrwt>
<rscale>  1 0.12681463E+03</rscale>
<asrwt>0</asrwt>
<pdfrwt beam="2">  1       21 0.21059725E-02 0.12681463E+03</pdfrwt>
<pdfrwt beam="1">  1       -4 0.82083609E-01 0.12681463E+03</pdfrwt>
<totfact> 0.60633150E+04</totfact>
</mgrwt>
</event>
<event>
 6    4  0.6326233E-003  0.1290133E+03  0.7818608E-02  0.1228927E+00
         -4   -1    0    0    0  501 -0.00000000000E+00  0.00000000000E+00  0.15291084560E+03  0.15291611950E+03  0.12700000000E+01 0.  1.
         21   -1    0    0  501  502  0.00000000000E+00 -0.00000000000E+00 -0.56645842826E+02  0.56645842826E+02  0.00000000000E+00 0.  1.
         25    2    1    2    0    0 -0.27805232145E+02  0.15674752243E+02  0.11474428873E+03  0.17265768477E+03  0.12500238206E+03 0.  0.
    9000005    1    3    3    0    0 -0.52277330713E+02  0.24937972797E+02  0.31312092835E+01  0.58014017834E+02  0.10000000000E+01 0.  0.
    9000005    1    3    3    0    0  0.24472098569E+02 -0.92632205540E+01  0.11161307945E+03  0.11464366693E+03  0.10000000000E+01 0.  0.
         -4    1    1    2    0  502  0.27805232145E+02 -0.15674752243E+02 -0.18479285958E+02  0.36904277557E+02  0.12700000000E+01 0. -1.
<mgrwt>
<rscale>  1 0.12901327E+03</rscale>
<asrwt>0</asrwt>
<pdfrwt beam="2">  1       21 0.87147451E-02 0.12901327E+03</pdfrwt>
<pdfrwt beam="1">  1       -4 0.23526246E-01 0.12901327E+03</pdfrwt>
<totfact> 0.69461174E+04</totfact>
</mgrwt>
</event>
<event>
 6    4  0.6326233E-003  0.1454460E+03  0.7818608E-02  0.1206183E+00
         21   -1    0    0  501  502  0.00000000000E+00  0.00000000000E+00  0.97991838308E+01  0.97991838308E+01  0.00000000000E+00 0.  1.
          4   -1    0    0  502    0 -0.00000000000E+00 -0.00000000000E+00 -0.13678363124E+04  0.13678369019E+04  0.12700000000E+01 0. -1.
         25    2    1    2    0    0  0.57481747427E+02 -0.47168975803E+02 -0.10829573904E+04  0.10926807580E+04  0.12500186413E+03 0.  0.
    9000005    1    3    3    0    0  0.79521263357E+02 -0.21470862354E+02 -0.99537200640E+03  0.99877477960E+03  0.10000000000E+01 0.  0.
    9000005    1    3    3    0    0 -0.22039515930E+02 -0.25698113449E+02 -0.87585383964E+02  0.93905978411E+02  0.10000000000E+01 0.  0.
          4    1    1    2  501    0 -0.57481747427E+02  0.47168975803E+02 -0.27507973817E+03  0.28495532776E+03  0.12700000000E+01 0.  1.
<mgrwt>
<rscale>  1 0.14544597E+03</rscale>
<asrwt>0</asrwt>
<pdfrwt beam="1">  1       21 0.15075671E-02 0.14544597E+03</pdfrwt>
<pdfrwt beam="2">  1        4 0.21044268E+00 0.14544597E+03</pdfrwt>
<totfact> 0.10054856E+04</totfact>
</mgrwt>
</event>
<event>
 6    4  0.6326233E-003  0.1281297E+03  0.7818608E-02  0.1230258E+00
          4   -1    0    0  502    0 -0.00000000000E+00  0.00000000000E+00  0.22314765969E+02  0.22350876499E+02  0.12700000000E+01 0. -1.
         21   -1    0    0  501  502  0.00000000000E+00 -0.00000000000E+00 -0.29030404957E+03  0.29030404957E+03  0.00000000000E+00 0. -1.
         25    2    1    2    0    0 -0.13916103257E+02 -0.24455951364E+02 -0.24425442422E+03  0.27582140959E+03  0.12500189897E+03 0.  0.
    9000005    1    3    3    0    0 -0.58604737438E+02  0.58882841190E+01 -0.61133170447E+02  0.84896711768E+02  0.10000000000E+01 0.  0.
    9000005    1    3    3    0    0  0.44688634181E+02 -0.30344235483E+02 -0.18312125378E+03  0.19092469782E+03  0.10000000000E+01 0.  0.
          4    1    1    2  501    0  0.13916103257E+02  0.24455951364E+02 -0.23734859382E+02  0.36833516488E+02  0.12700000000E+01 0.  1.
<mgrwt>
<rscale>  1 0.12812972E+03</rscale>
<asrwt>0</asrwt>
<pdfrwt beam="2">  1       21 0.44662158E-01 0.12812972E+03</pdfrwt>
<pdfrwt beam="1">  1        4 0.34360326E-02 0.12812972E+03</pdfrwt>
<totfact> 0.84473036E+04</totfact>
</mgrwt>
</event>
<event>
 6    4  0.6326233E-003  0.1324155E+03  0.7818608E-02  0.1223915E+00
         21   -1    0    0  501  502  0.00000000000E+00  0.00000000000E+00  0.17581363061E+03  0.17581363061E+03  0.00000000000E+00 0.  1.
          4   -1    0    0  502    0 -0.00000000000E+00 -0.00000000000E+00 -0.65312829044E+02  0.65325175374E+02  0.12700000000E+01 0.  1.
         25    2    1    2    0    0 -0.47161735254E+01 -0.43430628038E+02  0.11492300511E+02  0.13291331025E+03  0.12500165330E+03 0.  0.
    9000005    1    3    3    0    0 -0.23464402551E+02  0.84977773880E+01 -0.46533871836E+02  0.52812798029E+02  0.10000000000E+01 0.  0.
    9000005    1    3    3    0    0  0.18748229026E+02 -0.51928405426E+02  0.58026172346E+02  0.80100512226E+02  0.10000000000E+01 0.  0.
          4    1    1    2  501    0  0.47161735254E+01  0.43430628038E+02  0.99008501052E+02  0.10822549573E+03  0.12700000000E+01 0. -1.
<mgrwt>
<rscale>  1 0.13241554E+03</rscale>
<asrwt>0</asrwt>
<pdfrwt beam="1">  1       21 0.27048251E-01 0.13241554E+03</pdfrwt>
<pdfrwt beam="2">  1        4 0.10049430E-01 0.13241554E+03</pdfrwt>
<totfact> 0.39752416E+04</totfact>
</mgrwt>
</event>
<event>
 6    4  0.6326233E-003  0.1272239E+03  0.7818608E-02  0.1231634E+00
          4   -1    0    0  502    0 -0.00000000000E+00  0.00000000000E+00  0.84400260367E+03  0.84400355918E+03  0.12700000000E+01 0. -1.
         21   -1    0    0  501  502  0.00000000000E+00 -0.00000000000E+00 -0.68571244890E+01  0.68571244890E+01  0.00000000000E+00 0. -1.
         25    2    1    2    0    0  0.22935252319E+02 -0.59175922834E+01  0.66176783711E+03  0.67388618286E+03  0.12499949407E+03 0.  0.
    9000005    1    3    3    0    0 -0.12357708863E+02 -0.51890480105E+02  0.15735002574E+03  0.16614862472E+03  0.10000000000E+01 0.  0.
    9000005    1    3    3    0    0  0.35292961182E+02  0.45972887822E+02  0.50441781137E+03  0.50773755814E+03  0.10000000000E+01 0.  0.
          4    1    1    2  501    0 -0.22935252319E+02  0.59175922834E+01  0.17537764207E+03  0.17697450081E+03  0.12700000000E+01 0.  1.
<mgrwt>
<rscale>  1 0.12722389E+03</rscale>
<asrwt>0</asrwt>
<pdfrwt beam="2">  1       21 0.10549429E-02 0.12722389E+03</pdfrwt>
<pdfrwt beam="1">  1        4 0.12985559E+00 0.12722389E+03</pdfrwt>
<totfact> 0.62959916E+04</totfact>
</mgrwt>
</event>
<event>
 6    4  0.6326233E-003  0.1268503E+03  0.7818608E-02  0.1232206E+00
         -4   -1    0    0    0  501 -0.00000000000E+00  0.00000000000E+00  0.54040462360E+03  0.54040611590E+03  0.12700000000E+01 0. -1.
         21   -1    0    0  501  502  0.00000000000E+00 -0.00000000000E+00 -0.13369645296E+02  0.13369645296E+02  0.00000000000E+00 0. -1.
         25    2    1    2    0    0 -0.20203161917E+02 -0.75252443442E+01  0.30000272177E+03  0.32571862919E+03  0.12500478103E+03 0.  0.
    9000005    1    3    3    0    0  0.20956398306E+02  0.27801353582E+01  0.27629461165E+03  0.27710397365E+03  0.10000000000E+01 0.  0.
    9000005    1    3    3    0    0 -0.41159560223E+02 -0.10305379702E+02  0.23708110120E+02  0.48614655548E+02  0.10000000000E+01 0.  0.
         -4    1    1    2    0  502  0.20203161917E+02  0.75252443442E+01  0.22703225653E+03  0.22805713201E+03  0.12700000000E+01 0.  1.
<mgrwt>
<rscale>  1 0.12685028E+03</rscale>
<asrwt>0</asrwt>
<pdfrwt beam="2">  1       21 0.20568689E-02 0.12685028E+03</pdfrwt>
<pdfrwt beam="1">  1       -4 0.83143910E-01 0.12685028E+03</pdfrwt>
<totfact> 0.61221302E+04</totfact>
</mgrwt>
</event>
<event>
 6    4  0.6326233E-003  0.1282013E+03  0.7818608E-02  0.1230149E+00
          4   -1    0    0  502    0 -0.00000000000E+00  0.00000000000E+00  0.10884189088E+02  0.10958032310E+02  0.12700000000E+01 0.  1.
         21   -1    0    0  501  502  0.00000000000E+00 -0.00000000000E+00 -0.67702589233E+03  0.67702589233E+03  0.00000000000E+00 0.  1.
         25    2    1    2    0    0 -0.19683558908E+02 -0.20582648201E+02 -0.39353198079E+03  0.41388766131E+03  0.12499795350E+03 0.  0.
    9000005    1    3    3    0    0  0.30293912076E+02 -0.51665722494E+02 -0.27616776931E+03  0.28258928642E+03  0.10000000000E+01 0.  0.
    9000005    1    3    3    0    0 -0.49977470984E+02  0.31083074293E+02 -0.11736421148E+03  0.13129837489E+03  0.10000000000E+01 0.  0.
          4    1    1    2  501    0  0.19683558908E+02  0.20582648201E+02 -0.27260972245E+03  0.27409626333E+03  0.12700000000E+01 0. -1.
<mgrwt>
<rscale>  1 0.12820131E+03</rscale>
<asrwt>0</asrwt>
<pdfrwt beam="2">  1       21 0.10415783E+00 0.12820131E+03</pdfrwt>
<pdfrwt beam="1">  1        4 0.16802624E-02 0.12820131E+03</pdfrwt>
<totfact> 0.40499708E+04</totfact>
</mgrwt>
</event>
<event>
 6    4  0.6326233E-003  0.1274309E+03  0.7818608E-02  0.1231318E+00
         21   -1    0    0  501  502  0.00000000000E+00  0.00000000000E+00  0.23979140369E+03  0.23979140369E+03  0.00000000000E+00 0. -1.
          4   -1    0    0  502    0 -0.00000000000E+00 -0.00000000000E+00 -0.33692108449E+02  0.33716035824E+02  0.12700000000E+01 0. -1.
         25    2    1    2    0    0 -0.23173169712E+02  0.87830183279E+01  0.93103853857E+02  0.15781941127E+03  0.12499800704E+03 0.  0.
    9000005    1    3    3    0    0 -0.49868584424E+02 -0.44266774258E+02  0.37769630745E+02  0.76641816408E+02  0.10000000000E+01 0.  0.
    9000005    1    3    3    0    0  0.26695414713E+02  0.53049792586E+02  0.55334223112E+02  0.81177594862E+02  0.10000000000E+01 0.  0.
          4    1    1    2  501    0  0.23173169712E+02 -0.87830183279E+01  0.11299544138E+03  0.11568802824E+03  0.12700000000E+01 0.  1.
<mgrwt>
<rscale>  1 0.12743092E+03</rscale>
<asrwt>0</asrwt>
<pdfrwt beam="1">  1       21 0.36890984E-01 0.12743092E+03</pdfrwt>
<pdfrwt beam="2">  1        4 0.51855007E-02 0.12743092E+03</pdfrwt>
<totfact> 0.64314432E+04</totfact>
</mgrwt>
</event>
<event>
 6    4  0.6326233E-003  0.1292451E+03  0.7818608E-02  0.1228580E+00
          4   -1    0    0  502    0 -0.00000000000E+00  0.00000000000E+00  0.11396403120E+04  0.11396410197E+04  0.12700000000E+01 0. -1.
         21   -1    0    0  501  502  0.00000000000E+00 -0.00000000000E+00 -0.10241952167E+02  0.10241952167E+02  0.00000000000E+00 0. -1.
         25    2    1    2    0    0 -0.31595865242E+02  0.90223782742E+01  0.10938449029E+04  0.11014540217E+04  0.12499835326E+03 0.  0.
    9000005    1    3    3    0    0  0.10591439189E+02  0.61031222593E+02  0.48711810321E+03  0.49104178559E+03  0.10000000000E+01 0.  0.
    9000005    1    3    3    0    0 -0.42187304431E+02 -0.52008844319E+02  0.60672679964E+03  0.61041223607E+03  0.10000000000E+01 0.  0.
          4    1    1    2  501    0  0.31595865242E+02 -0.90223782742E+01  0.35553457024E+02  0.48428950190E+02  0.12700000000E+01 0.  1.
<mgrwt>
<rscale>  1 0.12924508E+03</rscale>
<asrwt>0</asrwt>
<pdfrwt beam="2">  1       21 0.15756859E-02 0.12924508E+03</pdfrwt>
<pdfrwt beam="1">  1        4 0.17533529E+00 0.12924508E+03</pdfrwt>
<totfact> 0.15488524E+04</totfact>
</mgrwt>
</event>
<event>
 6    4  0.6326233E-003  0.1326130E+03  0.7818608E-02  0.1223629E+00
         21   -1    0    0  501  502  0.00000000000E+00  0.00000000000E+00  0.65297564116E+03  0.65297564116E+03  0.00000000000E+00 0.  1.
         -4   -1    0    0    0  501 -0.00000000000E+00 -0.00000000000E+00 -0.16711355592E+02  0.16759543721E+02  0.12700000000E+01 0.  1.
         25    2    1    2    0    0 -0.14994416047E+01 -0.44268999420E+02  0.27009676902E+03  0.30089612010E+03  0.12499687124E+03 0.  0.
    9000005    1    3    3    0    0 -0.60502877803E+02 -0.37503452275E+01  0.11225258031E+03  0.12757862320E+03  0.10000000000E+01 0.  0.
    9000005    1    3    3    0    0  0.59003436199E+02 -0.40518654192E+02  0.15784418871E+03  0.17331749689E+03  0.10000000000E+01 0.  0.
         -4    1    1    2    0  502  0.14994416047E+01  0.44268999420E+02  0.36616751655E+03  0.36883906478E+03  0.12700000000E+01 0. -1.
<mgrwt>
<rscale>  1 0.13261301E+03</rscale>
<asrwt>0</asrwt>
<pdfrwt beam="1">  1       21 0.10045777E+00 0.13261301E+03</pdfrwt>
<pdfrwt beam="2">  1       -4 0.25747801E-02 0.13261301E+03</pdfrwt>
<totfact> 0.22908648E+04</totfact>
</mgrwt>
</event>
<event>
 6    4  0.6326233E-003  0.1322905E+03  0.7818608E-02  0.1224096E+00
         -4   -1    0    0    0  501 -0.00000000000E+00  0.00000000000E+00  0.88690653000E+02  0.88699745375E+02  0.12700000000E+01 0. -1.
         21   -1    0    0  501  502  0.00000000000E+00 -0.00000000000E+00 -0.10567033817E+03  0.10567033817E+03  0.00000000000E+00 0. -1.
         25    2    1    2    0    0  0.97022810223E+01  0.42212444494E+02  0.24322293392E+02  0.13450781613E+03  0.12499901566E+03 0.  0.
    9000005    1    3    3    0    0  0.18542357782E+02  0.14431715461E+02 -0.49679108055E+02  0.54964599702E+02  0.10000000000E+01 0.  0.
    9000005    1    3    3    0    0 -0.88400767598E+01  0.27780729033E+02  0.74001401448E+02  0.79543216423E+02  0.10000000000E+01 0.  0.
         -4    1    1    2    0  502 -0.97022810223E+01 -0.42212444494E+02 -0.41301978558E+02  0.59862267415E+02  0.12700000000E+01 0.  1.
<mgrwt>
<rscale>  1 0.13229051E+03</rscale>
<asrwt>0</asrwt>
<pdfrwt beam="2">  1       21 0.16256975E-01 0.13229051E+03</pdfrwt>
<pdfrwt beam="1">  1       -4 0.13646002E-01 0.13229051E+03</pdfrwt>
<totfact> 0.60769485E+04</totfact>
</mgrwt>
</event>
<event>
 6    4  0.6326233E-003  0.1285276E+03  0.7818608E-02  0.1229657E+00
         21   -1    0    0  501  502  0.00000000000E+00  0.00000000000E+00  0.19483001109E+03  0.19483001109E+03  0.00000000000E+00 0. -1.
         -4   -1    0    0    0  501 -0.00000000000E+00 -0.00000000000E+00 -0.38860241053E+02  0.38880988088E+02  0.12700000000E+01 0. -1.
         25    2    1    2    0    0  0.22620494410E+02  0.19601167304E+02  0.78387646838E+02  0.15054555403E+03  0.12499379238E+03 0.  0.
    9000005    1    3    3    0    0 -0.27539433783E+02 -0.34238045933E+02  0.12987802273E+01  0.43969887792E+02  0.10000000000E+01 0.  0.
    9000005    1    3    3    0    0  0.50159928193E+02  0.53839213237E+02  0.77088866611E+02  0.10657566624E+03  0.10000000000E+01 0.  0.
         -4    1    1    2    0  502 -0.22620494410E+02 -0.19601167304E+02  0.77582123196E+02  0.83165445148E+02  0.12700000000E+01 0.  1.
<mgrwt>
<rscale>  1 0.12852759E+03</rscale>
<asrwt>0</asrwt>
<pdfrwt beam="1">  1       21 0.29973847E-01 0.12852759E+03</pdfrwt>
<pdfrwt beam="2">  1       -4 0.59804131E-02 0.12852759E+03</pdfrwt>
<totfact> 0.76686549E+04</totfact>
</mgrwt>
</event>
<event>
 6    4  0.6326233E-003  0.1289838E+03  0.7818608E-02  0.1228971E+00
         21   -1    0    0  501  502  0.00000000000E+00  0.00000000000E+00  0.33487153188E+02  0.33487153188E+02  0.00000000000E+00 0.  1.
          4   -1    0    0  502    0 -0.00000000000E+00 -0.00000000000E+00 -0.20505855043E+03  0.20506248317E+03  0.12700000000E+01 0.  1.
         25    2    1    2    0    0 -0.30942907096E+02 -0.73440983862E+01 -0.15796418073E+03  0.20393506541E+03  0.12500171691E+03 0.  0.
    9000005    1    3    3    0    0 -0.61924332114E+02 -0.28989593941E+02 -0.38163056494E+02  0.78309886640E+02  0.10000000000E+01 0.  0.
    9000005    1    3    3    0    0  0.30981425018E+02  0.21645495554E+02 -0.11980112423E+03  0.12562517877E+03  0.10000000000E+01 0.  0.
          4    1    1    2  501    0  0.30942907096E+02  0.73440983862E+01 -0.13607216517E+02  0.34614570949E+02  0.12700000000E+01 0. -1.
<mgrwt>
<rscale>  1 0.12898383E+03</rscale>
<asrwt>0</asrwt>
<pdfrwt beam="1">  1       21 0.51518697E-02 0.12898383E+03</pdfrwt>
<pdfrwt beam="2">  1        4 0.31549625E-01 0.12898383E+03</pdfrwt>
<totfact> 0.98561963E+04</totfact>
</mgrwt>
</event>
<event>
 6    4  0.6326233E-003  0.1284913E+03  0.7818608E-02  0.1229712E+00
         -4   -1    0    0    0  501 -0.00000000000E+00  0.00000000000E+00  0.73528898060E+02  0.73539865039E+02  0.12700000000E+01 0. -1.
         21   -1    0    0  501  502  0.00000000000E+00 -0.00000000000E+00 -0.10023789181E+03  0.10023789181E+03  0.00000000000E+00 0. -1.
         25    2    1    2    0    0 -0.27614588959E+02  0.11087617125E+02  0.71411376846E+01  0.12868956466E+03  0.12499802969E+03 0.  0.
    9000005    1    3    3    0    0  0.47630967434E+02  0.22399524268E+01  0.20211603893E+02  0.51799955382E+02  0.10000000000E+01 0.  0.
    9000005    1    3    3    0    0 -0.75245556394E+02  0.88476646986E+01 -0.13070466208E+02  0.76889609276E+02  0.10000000000E+01 0.  0.
         -4    1    1    2    0  502  0.27614588959E+02 -0.11087617125E+02 -0.33850131431E+02  0.45088192188E+02  0.12700000000E+01 0.  1.
<mgrwt>
<rscale>  1 0.12849128E+03</rscale>
<asrwt>0</asrwt>
<pdfrwt beam="2">  1       21 0.15421214E-01 0.12849128E+03</pdfrwt>
<pdfrwt beam="1">  1       -4 0.11313601E-01 0.12849128E+03</pdfrwt>
<totfact> 0.91850225E+04</totfact>
</mgrwt>
</event>
<event>
 6    4  0.6326233E-003  0.1272629E+03  0.7818608E-02  0.1231575E+00
          4   -1    0    0  502    0 -0.00000000000E+00  0.00000000000E+00  0.16992084758E+03  0.16992559355E+03  0.12700000000E+01 0.  1.
         21   -1    0    0  501  502  0.00000000000E+00 -0.00000000000E+00 -0.33962240594E+02  0.33962240594E+02  0.00000000000E+00 0. -1.
         25    2    1    2    0    0 -0.11797811728E+02 -0.20770006829E+02  0.12142999136E+03  0.17590078147E+03  0.12500104230E+03 0.  0.
    9000005    1    3    3    0    0 -0.16929439739E+02 -0.50255476749E+02  0.23268210375E+01  0.53090799290E+02  0.10000000000E+01 0.  0.
    9000005    1    3    3    0    0  0.51316280110E+01  0.29485469920E+02  0.11910317032E+03  0.12280998218E+03  0.10000000000E+01 0.  0.
          4    1    1    2  501    0  0.11797811728E+02  0.20770006829E+02  0.14528615629E+02  0.27987052673E+02  0.12700000000E+01 0. -1.
<mgrwt>
<rscale>  1 0.12726289E+03</rscale>
<asrwt>0</asrwt>
<pdfrwt beam="2">  1       21 0.52249602E-02 0.12726289E+03</pdfrwt>
<pdfrwt beam="1">  1        4 0.26143860E-01 0.12726289E+03</pdfrwt>
<totfact> 0.13669129E+05</totfact>
</mgrwt>
</event>
<event>
 6    4  0.6326233E-003  0.1277775E+03  0.7818608E-02  0.1230791E+00
         21   -1    0    0  501  502  0.00000000000E+00  0.00000000000E+00  0.75835161832E+03  0.75835161832E+03  0.00000000000E+00 0. -1.
         -4   -1    0    0    0  501 -0.00000000000E+00 -0.00000000000E+00 -0.91202193104E+01  0.92082191693E+01  0.12700000000E+01 0. -1.
         25    2    1    2    0    0  0.12260236013E+02  0.23500802200E+02  0.46965143977E+03  0.48672328787E+03  0.12499793194E+03 0.  0.
    9000005    1    3    3    0    0  0.67052572024E+02  0.20008384989E+02  0.21084327811E+03  0.22215370987E+03  0.10000000000E+01 0.  0.
    9000005    1    3    3    0    0 -0.54792336011E+02  0.34924172117E+01  0.25880816166E+03  0.26456957801E+03  0.10000000000E+01 0.  0.
         -4    1    1    2    0  502 -0.12260236013E+02 -0.23500802200E+02  0.27957995924E+03  0.28083654962E+03  0.12700000000E+01 0.  1.
<mgrwt>
<rscale>  1 0.12777748E+03</rscale>
<asrwt>0</asrwt>
<pdfrwt beam="1">  1       21 0.11666943E+00 0.12777748E+03</pdfrwt>
<pdfrwt beam="2">  1       -4 0.14099623E-02 0.12777748E+03</pdfrwt>
<totfact> 0.40342035E+04</totfact>
</mgrwt>
</event>
<event>
 6    4  0.6326233E-003  0.1348863E+03  0.7818608E-02  0.1220380E+00
         21   -1    0    0  501  502  0.00000000000E+00  0.00000000000E+00  0.28997747285E+03  0.28997747285E+03  0.00000000000E+00 0.  1.
         -4   -1    0    0    0  501 -0.00000000000E+00 -0.00000000000E+00 -0.49844372971E+02  0.49860549705E+02  0.12700000000E+01 0. -1.
         25    2    1    2    0    0 -0.49120702435E+02 -0.12533694024E+02  0.51296426799E+02  0.14431094286E+03  0.12499755171E+03 0.  0.
    9000005    1    3    3    0    0 -0.62293045770E+02 -0.38020633425E+02  0.76772765446E+02  0.10592945592E+03  0.10000000000E+01 0.  0.
    9000005    1    3    3    0    0  0.13172343335E+02  0.25486939401E+02 -0.25476338647E+02  0.38381486942E+02  0.10000000000E+01 0.  0.
         -4    1    1    2    0  502  0.49120702435E+02  0.12533694024E+02  0.18883667308E+03  0.19552707969E+03  0.12700000000E+01 0.  1.
<mgrwt>
<rscale>  1 0.13488634E+03</rscale>
<asrwt>0</asrwt>
<pdfrwt beam="1">  1       21 0.44611918E-01 0.13488634E+03</pdfrwt>
<pdfrwt beam="2">  1       -4 0.76698235E-02 0.13488634E+03</pdfrwt>
<totfact> 0.23363767E+04</totfact>
</mgrwt>
</event>
<event>
 6    4  0.6326233E-003  0.1318627E+03  0.7818608E-02  0.1224718E+00
         21   -1    0    0  501  502  0.00000000000E+00  0.00000000000E+00  0.17767061905E+03  0.17767061905E+03  0.00000000000E+00 0. -1.
          4   -1    0    0  502    0 -0.00000000000E+00 -0.00000000000E+00 -0.42997323862E+02  0.43016075592E+02  0.12700000000E+01 0. -1.
         25    2    1    2    0    0 -0.39915178141E+02 -0.12579681902E+02  0.11236589470E+03  0.17324512153E+03  0.12504522382E+03 0.  0.
    9000005    1    3    3    0    0  0.45590215564E+02 -0.37923364730E+01  0.35236962025E+02  0.57753727705E+02  0.10000000000E+01 0.  0.
    9000005    1    3    3    0    0 -0.85505393705E+02 -0.87873454294E+01  0.77128932675E+02  0.11549139383E+03  0.10000000000E+01 0.  0.
          4    1    1    2  501    0  0.39915178141E+02  0.12579681902E+02  0.22307400491E+02  0.47441573113E+02  0.12700000000E+01 0.  1.
<mgrwt>
<rscale>  1 0.13186272E+03</rscale>
<asrwt>0</asrwt>
<pdfrwt beam="1">  1       21 0.27333941E-01 0.13186272E+03</pdfrwt>
<pdfrwt beam="2">  1        4 0.66167646E-02 0.13186272E+03</pdfrwt>
<totfact> 0.77885544E+04</totfact>
</mgrwt>
</event>
<event>
 6    4  0.6326233E-003  0.1674543E+03  0.7818608E-02  0.1180529E+00
         -4   -1    0    0    0  501 -0.00000000000E+00  0.00000000000E+00  0.60201550863E+02  0.60214945207E+02  0.12700000000E+01 0.  1.
         21   -1    0    0  501  502  0.00000000000E+00 -0.00000000000E+00 -0.94470282416E+03  0.94470282416E+03  0.00000000000E+00 0. -1.
         25    2    1    2    0    0  0.10989689700E+03  0.18443212551E+02 -0.67817773154E+02  0.18066596781E+03  0.12499384589E+03 0.  0.
    9000005    1    3    3    0    0 -0.12199434097E+01  0.50889832671E+02 -0.12817214641E+02  0.52502802995E+02  0.10000000000E+01 0.  0.
    9000005    1    3    3    0    0  0.11111684041E+03 -0.32446620119E+02 -0.55000558513E+02  0.12816316482E+03  0.10000000000E+01 0.  0.
         -4    1    1    2    0  502 -0.10989689700E+03 -0.18443212551E+02 -0.81668350014E+03  0.82425180155E+03  0.12700000000E+01 0. -1.
<mgrwt>
<rscale>  1 0.16745430E+03</rscale>
<asrwt>0</asrwt>
<pdfrwt beam="2">  1       21 0.14533890E+00 0.16745430E+03</pdfrwt>
<pdfrwt beam="1">  1       -4 0.92628725E-02 0.16745430E+03</pdfrwt>
<totfact> 0.11821996E+03</totfact>
</mgrwt>
</event>
<event>
 6    4  0.6326233E-003  0.1268560E+03  0.7818608E-02  0.1232197E+00
          4   -1    0    0  502    0 -0.00000000000E+00  0.00000000000E+00  0.12773340762E+03  0.12773972100E+03  0.12700000000E+01 0. -1.
         21   -1    0    0  501  502  0.00000000000E+00 -0.00000000000E+00 -0.28125682720E+03  0.28125682720E+03  0.00000000000E+00 0.  1.
         25    2    1    2    0    0 -0.18061361489E+02  0.11858008706E+02  0.95655997904E+02  0.15887893557E+03  0.12500248430E+03 0.  0.
    9000005    1    3    3    0    0 -0.64245081624E+02  0.34254244121E+02  0.39669626059E+02  0.82918411616E+02  0.10000000000E+01 0.  0.
    9000005    1    3    3    0    0  0.46183720136E+02 -0.22396235416E+02  0.55986371845E+02  0.75960523950E+02  0.10000000000E+01 0.  0.
          4    1    1    2  501    0  0.18061361489E+02 -0.11858008706E+02 -0.24917941749E+03  0.25011761264E+03  0.12700000000E+01 0.  1.
<mgrwt>
<rscale>  1 0.12685601E+03</rscale>
<asrwt>0</asrwt>
<pdfrwt beam="2">  1       21 0.43270281E-01 0.12685601E+03</pdfrwt>
<pdfrwt beam="1">  1        4 0.19652000E-01 0.12685601E+03</pdfrwt>
<totfact> 0.49226476E+03</totfact>
</mgrwt>
</event>
<event>
 6    4  0.6326233E-003  0.1276038E+03  0.7818608E-02  0.1231055E+00
         21   -1    0    0  501  502  0.00000000000E+00  0.00000000000E+00  0.10812161988E+03  0.10812161988E+03  0.00000000000E+00 0.  1.
          4   -1    0    0  502    0 -0.00000000000E+00 -0.00000000000E+00 -0.54912777062E+02  0.54927461116E+02  0.12700000000E+01 0.  1.
         25    2    1    2    0    0  0.22810677529E+02 -0.11771247453E+02  0.37805444027E+02  0.13308632294E+03  0.12499531383E+03 0.  0.
    9000005    1    3    3    0    0  0.78938649538E+01 -0.65627928628E+02  0.91197020631E+00  0.66114822918E+02  0.10000000000E+01 0.  0.
    9000005    1    3    3    0    0  0.14916812576E+02  0.53856681175E+02  0.36893473820E+02  0.66971500022E+02  0.10000000000E+01 0.  0.
          4    1    1    2  501    0 -0.22810677529E+02  0.11771247453E+02  0.15403398791E+02  0.29962758055E+02  0.12700000000E+01 0. -1.
<mgrwt>
<rscale>  1 0.12760375E+03</rscale>
<asrwt>0</asrwt>
<pdfrwt beam="1">  1       21 0.16634095E-01 0.12760375E+03</pdfrwt>
<pdfrwt beam="2">  1        4 0.84498229E-02 0.12760375E+03</pdfrwt>
<totfact> 0.13062582E+05</totfact>
</mgrwt>
</event>
<event>
 6    4  0.6326233E-003  0.1329002E+03  0.7818608E-02  0.1223215E+00
         21   -1    0    0  501  502  0.00000000000E+00  0.00000000000E+00  0.12004673851E+03  0.12004673851E+03  0.00000000000E+00 0.  1.
         -4   -1    0    0    0  501 -0.00000000000E+00 -0.00000000000E+00 -0.67919360435E+02  0.67931233037E+02  0.12700000000E+01 0.  1.
         25    2    1    2    0    0 -0.12076264701E+02 -0.43525977945E+02  0.24874712639E+02  0.13520802178E+03  0.12498844306E+03 0.  0.
    9000005    1    3    3    0    0  0.41513799540E+02  0.28461248771E+01  0.45230439140E+02  0.61467785090E+02  0.10000000000E+01 0.  0.
    9000005    1    3    3    0    0 -0.53590064241E+02 -0.46372102822E+02 -0.20355726501E+02  0.73740236689E+02  0.10000000000E+01 0.  0.
         -4    1    1    2    0  502  0.12076264701E+02  0.43525977945E+02  0.27252665438E+02  0.52769949770E+02  0.12700000000E+01 0. -1.
<mgrwt>
<rscale>  1 0.13290018E+03</rscale>
<asrwt>0</asrwt>
<pdfrwt beam="1">  1       21 0.18468729E-01 0.13290018E+03</pdfrwt>
<pdfrwt beam="2">  1       -4 0.10450562E-01 0.13290018E+03</pdfrwt>
<totfact> 0.76003645E+04</totfact>
</mgrwt>
</event>
<event>
 6    4  0.6326233E-003  0.1267052E+03  0.7818608E-02  0.1232428E+00
         21   -1    0    0  501  502  0.00000000000E+00  0.00000000000E+00  0.21658861304E+02  0.21658861304E+02  0.00000000000E+00 0. -1.
          4   -1    0    0  502    0 -0.00000000000E+00 -0.00000000000E+00 -0.41649312382E+03  0.41649506010E+03  0.12700000000E+01 0.  1.
         25    2    1    2    0    0 -0.52486345505E+00 -0.20705109086E+02 -0.39752516367E+03  0.41722951286E+03  0.12500093451E+03 0.  0.
    9000005    1    3    3    0    0  0.12618822499E+02  0.99166941409E+01  0.20993918979E+01  0.16216749067E+02  0.10000000000E+01 0.  0.
    9000005    1    3    3    0    0 -0.13143685954E+02 -0.30621803227E+02 -0.39962455557E+03  0.40101276380E+03  0.10000000000E+01 0.  0.
          4    1    1    2  501    0  0.52486345505E+00  0.20705109086E+02  0.26909011544E+01  0.20924408545E+02  0.12700000000E+01 0. -1.
<mgrwt>
<rscale>  1 0.12670521E+03</rscale>
<asrwt>0</asrwt>
<pdfrwt beam="1">  1       21 0.33321329E-02 0.12670521E+03</pdfrwt>
<pdfrwt beam="2">  1        4 0.64078871E-01 0.12670521E+03</pdfrwt>
<totfact> 0.49075136E+04</totfact>
</mgrwt>
</event>
<event>
 6    4  0.6326233E-003  0.1279158E+03  0.7818608E-02  0.1230581E+00
          4   -1    0    0  502    0 -0.00000000000E+00  0.00000000000E+00  0.42345349428E+03  0.42345539873E+03  0.12700000000E+01 0. -1.
         21   -1    0    0  501  502  0.00000000000E+00 -0.00000000000E+00 -0.15571717823E+02  0.15571717823E+02  0.00000000000E+00 0.  1.
         25    2    1    2    0    0  0.73171768935E+01 -0.26194978749E+02  0.37566534582E+03  0.39684620509E+03  0.12499096149E+03 0.  0.
    9000005    1    3    3    0    0  0.73532779550E+01  0.49446257892E+02  0.18728217368E+03  0.19384172846E+03  0.10000000000E+01 0.  0.
    9000005    1    3    3    0    0 -0.36101061483E-01 -0.75641236640E+02  0.18838317215E+03  0.20300447663E+03  0.10000000000E+01 0.  0.
          4    1    1    2  501    0 -0.73171768935E+01  0.26194978749E+02  0.32216430630E+02  0.42180911463E+02  0.12700000000E+01 0.  1.
<mgrwt>
<rscale>  1 0.12791583E+03</rscale>
<asrwt>0</asrwt>
<pdfrwt beam="2">  1       21 0.23956492E-02 0.12791583E+03</pdfrwt>
<pdfrwt beam="1">  1        4 0.65150813E-01 0.12791583E+03</pdfrwt>
<totfact> 0.81374833E+04</totfact>
</mgrwt>
</event>
<event>
 6    4  0.6326233E-003  0.1266024E+03  0.7818608E-02  0.1232586E+00
          4   -1    0    0  502    0 -0.00000000000E+00  0.00000000000E+00  0.10245066808E+03  0.10245853937E+03  0.12700000000E+01 0.  1.
         21   -1    0    0  501  502  0.00000000000E+00 -0.00000000000E+00 -0.81187023478E+02  0.81187023478E+02  0.00000000000E+00 0.  1.
         25    2    1    2    0    0 -0.14578707593E+02 -0.13790462669E+02  0.59924444231E+02  0.14006820744E+03  0.12500179256E+03 0.  0.
    9000005    1    3    3    0    0  0.53263359750E+02 -0.17337661558E+02  0.13043114626E+02  0.57521325083E+02  0.10000000000E+01 0.  0.
    9000005    1    3    3    0    0 -0.67842067344E+02  0.35471988886E+01  0.46881329605E+02  0.82546882358E+02  0.10000000000E+01 0.  0.
          4    1    1    2  501    0  0.14578707593E+02  0.13790462669E+02 -0.38660799634E+02  0.43577355404E+02  0.12700000000E+01 0. -1.
<mgrwt>
<rscale>  1 0.12660238E+03</rscale>
<asrwt>0</asrwt>
<pdfrwt beam="2">  1       21 0.12490311E-01 0.12660238E+03</pdfrwt>
<pdfrwt beam="1">  1        4 0.15763011E-01 0.12660238E+03</pdfrwt>
<totfact> 0.75456241E+04</totfact>
</mgrwt>
</event>
<event>
 6    4  0.6326233E-003  0.1344159E+03  0.7818608E-02  0.1221047E+00
          4   -1    0    0  502    0 -0.00000000000E+00  0.00000000000E+00  0.26620806889E+03  0.26621109827E+03  0.12700000000E+01 0. -1.
         21   -1    0    0  501  502  0.00000000000E+00 -0.00000000000E+00 -0.90285288342E+02  0.90285288342E+02  0.00000000000E+00 0.  1.
         25    2    1    2    0    0  0.46621088823E+02  0.16787963355E+02  0.24024479140E+03  0.27529111821E+03  0.12494910297E+03 0.  0.
    9000005    1    3    3    0    0  0.85685075461E+02  0.73863323480E+01  0.20311049355E+03  0.22057053895E+03  0.10000000000E+01 0.  0.
    9000005    1    3    3    0    0 -0.39063986637E+02  0.94016310071E+01  0.37134297858E+02  0.54720579264E+02  0.10000000000E+01 0.  0.
          4    1    1    2  501    0 -0.46621088823E+02 -0.16787963355E+02 -0.64322010853E+02  0.81205268405E+02  0.12700000000E+01 0.  1.
<mgrwt>
<rscale>  1 0.13441592E+03</rscale>
<asrwt>0</asrwt>
<pdfrwt beam="2">  1       21 0.13890044E-01 0.13441592E+03</pdfrwt>
<pdfrwt beam="1">  1        4 0.40956007E-01 0.13441592E+03</pdfrwt>
<totfact> 0.10709121E+04</totfact>
</mgrwt>
</event>
<event>
 6    4  0.6326233E-003  0.1297956E+03  0.7818608E-02  0.1227759E+00
          4   -1    0    0  502    0 -0.00000000000E+00  0.00000000000E+00  0.94424764435E+03  0.94424849842E+03  0.12700000000E+01 0. -1.
         21   -1    0    0  501  502  0.00000000000E+00 -0.00000000000E+00 -0.25645968570E+02  0.25645968570E+02  0.00000000000E+00 0.  1.
         25    2    1    2    0    0 -0.30955531514E+02 -0.16236876801E+02  0.92523314078E+03  0.93429291748E+03  0.12500003904E+03 0.  0.
    9000005    1    3    3    0    0 -0.53917623194E+02 -0.59715175559E+02  0.59611803852E+03  0.60152367213E+03  0.10000000000E+01 0.  0.
    9000005    1    3    3    0    0  0.22962091680E+02  0.43478298757E+02  0.32911510226E+03  0.33276924535E+03  0.10000000000E+01 0.  0.
          4    1    1    2  501    0  0.30955531514E+02  0.16236876801E+02 -0.66314649937E+01  0.35601549510E+02  0.12700000000E+01 0.  1.
<mgrwt>
<rscale>  1 0.12979557E+03</rscale>
<asrwt>0</asrwt>
<pdfrwt beam="2">  1       21 0.39455343E-02 0.12979557E+03</pdfrwt>
<pdfrwt beam="1">  1        4 0.14527133E+00 0.12979557E+03</pdfrwt>
<totfact> 0.56665665E+03</totfact>
</mgrwt>
</event>
<event>
 6    4  0.6326233E-003  0.1281051E+03  0.7818608E-02  0.1230295E+00
         21   -1    0    0  501  502  0.00000000000E+00  0.00000000000E+00  0.17970771780E+02  0.17970771780E+02  0.00000000000E+00 0.  1.
          4   -1    0    0  502    0 -0.00000000000E+00 -0.00000000000E+00 -0.43768067508E+03  0.43768251763E+03  0.12700000000E+01 0.  1.
         25    2    1    2    0    0 -0.22650876883E+02 -0.16534507352E+02 -0.40325403289E+03  0.42311314916E+03  0.12499787913E+03 0.  0.
    9000005    1    3    3    0    0  0.18141856226E+02  0.27996041433E+02 -0.29603392214E+02  0.44612398656E+02  0.10000000000E+01 0.  0.
    9000005    1    3    3    0    0 -0.40792733109E+02 -0.44530548785E+02 -0.37365064068E+03  0.37850075050E+03  0.10000000000E+01 0.  0.
          4    1    1    2  501    0  0.22650876883E+02  0.16534507352E+02 -0.16455870411E+02  0.32540140257E+02  0.12700000000E+01 0. -1.
<mgrwt>
<rscale>  1 0.12810512E+03</rscale>
<asrwt>0</asrwt>
<pdfrwt beam="1">  1       21 0.27647345E-02 0.12810512E+03</pdfrwt>
<pdfrwt beam="2">  1        4 0.67339074E-01 0.12810512E+03</pdfrwt>
<totfact> 0.60060134E+04</totfact>
</mgrwt>
</event>
<event>
 6    4  0.6326233E-003  0.1502029E+03  0.7818608E-02  0.1200224E+00
         21   -1    0    0  501  502  0.00000000000E+00  0.00000000000E+00  0.39389295242E+03  0.39389295242E+03  0.00000000000E+00 0.  1.
         -4   -1    0    0    0  501 -0.00000000000E+00 -0.00000000000E+00 -0.82145765874E+02  0.82155582592E+02  0.12700000000E+01 0. -1.
         25    2    1    2    0    0 -0.71637598685E+02 -0.42480534010E+02 -0.32361272590E+01  0.15023778904E+03  0.12499751766E+03 0.  0.
    9000005    1    3    3    0    0 -0.10852266176E+02  0.33177967479E+02  0.31621338873E+02  0.47111126916E+02  0.10000000000E+01 0.  0.
    9000005    1    3    3    0    0 -0.60785332508E+02 -0.75658501489E+02 -0.34857466132E+02  0.10312666212E+03  0.10000000000E+01 0.  0.
         -4    1    1    2    0  502  0.71637598685E+02  0.42480534010E+02  0.31498331381E+03  0.32581074598E+03  0.12700000000E+01 0.  1.
<mgrwt>
<rscale>  1 0.15020293E+03</rscale>
<asrwt>0</asrwt>
<pdfrwt beam="1">  1       21 0.60598915E-01 0.15020293E+03</pdfrwt>
<pdfrwt beam="2">  1       -4 0.12638723E-01 0.15020293E+03</pdfrwt>
<totfact> 0.53632547E+03</totfact>
</mgrwt>
</event>
<event>
 6    4  0.6326233E-003  0.1322557E+03  0.7818608E-02  0.1224147E+00
         21   -1    0    0  501  502  0.00000000000E+00  0.00000000000E+00  0.88104163981E+01  0.88104163981E+01  0.00000000000E+00 0. -1.
          4   -1    0    0  502    0 -0.00000000000E+00 -0.00000000000E+00 -0.11114289142E+04  0.11114296398E+04  0.12700000000E+01 0. -1.
         25    2    1    2    0    0 -0.42365689674E+02 -0.83491228113E+01 -0.53978764774E+03  0.55575379579E+03  0.12500806918E+03 0.  0.
    9000005    1    3    3    0    0 -0.29961051501E+01 -0.59079464974E+02 -0.16028993014E+03  0.17086023976E+03  0.10000000000E+01 0.  0.
    9000005    1    3    3    0    0 -0.39369584524E+02  0.50730342163E+02 -0.37949771760E+03  0.38489355602E+03  0.10000000000E+01 0.  0.
          4    1    1    2  501    0  0.42365689674E+02  0.83491228113E+01 -0.56283085007E+03  0.56448626042E+03  0.12700000000E+01 0.  1.
<mgrwt>
<rscale>  1 0.13225573E+03</rscale>
<asrwt>0</asrwt>
<pdfrwt beam="1">  1       21 0.13554485E-02 0.13225573E+03</pdfrwt>
<pdfrwt beam="2">  1        4 0.17099618E+00 0.13225573E+03</pdfrwt>
<totfact> 0.21111302E+04</totfact>
</mgrwt>
</event>
<event>
 6    4  0.6326233E-003  0.1315891E+03  0.7818608E-02  0.1225117E+00
          4   -1    0    0  502    0 -0.00000000000E+00  0.00000000000E+00  0.69010410996E+02  0.69022095924E+02  0.12700000000E+01 0.  1.
         21   -1    0    0  501  502  0.00000000000E+00 -0.00000000000E+00 -0.16301475486E+03  0.16301475486E+03  0.00000000000E+00 0. -1.
         25    2    1    2    0    0  0.16726786685E+02 -0.37567329410E+02 -0.23927799646E+01  0.13161085230E+03  0.12499840565E+03 0.  0.
    9000005    1    3    3    0    0 -0.25968664971E+02 -0.18388986722E+02  0.51299265516E+02  0.60375003400E+02  0.10000000000E+01 0.  0.
    9000005    1    3    3    0    0  0.42695451657E+02 -0.19178342688E+02 -0.53692045481E+02  0.71235848899E+02  0.10000000000E+01 0.  0.
          4    1    1    2  501    0 -0.16726786685E+02  0.37567329410E+02 -0.91611563905E+02  0.10042599849E+03  0.12700000000E+01 0. -1.
<mgrwt>
<rscale>  1 0.13158910E+03</rscale>
<asrwt>0</asrwt>
<pdfrwt beam="2">  1       21 0.25079193E-01 0.13158910E+03</pdfrwt>
<pdfrwt beam="1">  1        4 0.10618266E-01 0.13158910E+03</pdfrwt>
<totfact> 0.41784704E+04</totfact>
</mgrwt>
</event>
<event>
 6    4  0.6326233E-003  0.1270655E+03  0.7818608E-02  0.1231876E+00
         21   -1    0    0  501  502  0.00000000000E+00  0.00000000000E+00  0.30207734951E+02  0.30207734951E+02  0.00000000000E+00 0. -1.
          4   -1    0    0  502    0 -0.00000000000E+00 -0.00000000000E+00 -0.22336625003E+03  0.22336986044E+03  0.12700000000E+01 0. -1.
         25    2    1    2    0    0  0.22616780790E+02  0.27775946696E+01 -0.11236214957E+03  0.16961987160E+03  0.12500565739E+03 0.  0.
    9000005    1    3    3    0    0  0.12762992914E+02 -0.51661564855E+01  0.26658331424E+02  0.30020822695E+02  0.10000000000E+01 0.  0.
    9000005    1    3    3    0    0  0.98537878765E+01  0.79437511551E+01 -0.13902048100E+03  0.13959904890E+03  0.10000000000E+01 0.  0.
          4    1    1    2  501    0 -0.22616780790E+02 -0.27775946696E+01 -0.80796365506E+02  0.83957723793E+02  0.12700000000E+01 0.  1.
<mgrwt>
<rscale>  1 0.12706553E+03</rscale>
<asrwt>0</asrwt>
<pdfrwt beam="1">  1       21 0.46473436E-02 0.12706553E+03</pdfrwt>
<pdfrwt beam="2">  1        4 0.34366371E-01 0.12706553E+03</pdfrwt>
<totfact> 0.99275493E+04</totfact>
</mgrwt>
</event>
<event>
 6    4  0.6326233E-003  0.1266043E+03  0.7818608E-02  0.1232583E+00
         21   -1    0    0  501  502  0.00000000000E+00  0.00000000000E+00  0.15549994435E+03  0.15549994435E+03  0.00000000000E+00 0. -1.
          4   -1    0    0  502    0 -0.00000000000E+00 -0.00000000000E+00 -0.10393580559E+03  0.10394356441E+03  0.12700000000E+01 0.  1.
         25    2    1    2    0    0 -0.14042104951E+02 -0.14369626866E+02 -0.64193230676E+02  0.14194862221E+03  0.12499989437E+03 0.  0.
    9000005    1    3    3    0    0 -0.54816496099E+02 -0.55428126926E+01  0.10774643777E+02  0.56148588278E+02  0.10000000000E+01 0.  0.
    9000005    1    3    3    0    0  0.40774391148E+02 -0.88268141731E+01 -0.74967874453E+02  0.85800033927E+02  0.10000000000E+01 0.  0.
          4    1    1    2  501    0  0.14042104951E+02  0.14369626866E+02  0.11575736944E+03  0.11749488656E+03  0.12700000000E+01 0. -1.
<mgrwt>
<rscale>  1 0.12660427E+03</rscale>
<asrwt>0</asrwt>
<pdfrwt beam="1">  1       21 0.23923068E-01 0.12660427E+03</pdfrwt>
<pdfrwt beam="2">  1        4 0.15991120E-01 0.12660427E+03</pdfrwt>
<totfact> 0.22471546E+04</totfact>
</mgrwt>
</event>
<event>
 6    4  0.6326233E-003  0.1280236E+03  0.7818608E-02  0.1230418E+00
          4   -1    0    0  502    0 -0.00000000000E+00  0.00000000000E+00  0.51493216174E+02  0.51508875079E+02  0.12700000000E+01 0.  1.
         21   -1    0    0  501  502  0.00000000000E+00 -0.00000000000E+00 -0.13684575025E+03  0.13684575025E+03  0.00000000000E+00 0.  1.
         25    2    1    2    0    0  0.67950885142E+01 -0.26822875339E+02 -0.38084092293E+02  0.13356814563E+03  0.12499764626E+03 0.  0.
    9000005    1    3    3    0    0 -0.58365904967E+02 -0.25572198142E+01 -0.15468414648E+02  0.60443279920E+02  0.10000000000E+01 0.  0.
    9000005    1    3    3    0    0  0.65160993481E+02 -0.24265655525E+02 -0.22615677645E+02  0.73124865708E+02  0.10000000000E+01 0.  0.
          4    1    1    2  501    0 -0.67950885142E+01  0.26822875339E+02 -0.47268441784E+02  0.54786479701E+02  0.12700000000E+01 0. -1.
<mgrwt>
<rscale>  1 0.12802364E+03</rscale>
<asrwt>0</asrwt>
<pdfrwt beam="2">  1       21 0.21053192E-01 0.12802364E+03</pdfrwt>
<pdfrwt beam="1">  1        4 0.79236913E-02 0.12802364E+03</pdfrwt>
<totfact> 0.94304578E+04</totfact>
</mgrwt>
</event>
<event>
 6    4  0.6326233E-003  0.1340616E+03  0.7818608E-02  0.1221551E+00
         21   -1    0    0  501  502  0.00000000000E+00  0.00000000000E+00  0.71608705727E+03  0.71608705727E+03  0.00000000000E+00 0.  1.
          4   -1    0    0  502    0 -0.00000000000E+00 -0.00000000000E+00 -0.11762802607E+02  0.11831163306E+02  0.12700000000E+01 0. -1.
         25    2    1    2    0    0 -0.10474208499E+02 -0.47293238437E+02  0.47661762505E+03  0.49511297683E+03  0.12500455941E+03 0.  0.
    9000005    1    3    3    0    0  0.29511838481E+02  0.17561172250E+02  0.43938568199E+02  0.55775811574E+02  0.10000000000E+01 0.  0.
    9000005    1    3    3    0    0 -0.39986046980E+02 -0.64854410688E+02  0.43267905685E+03  0.43933716526E+03  0.10000000000E+01 0.  0.
          4    1    1    2  501    0  0.10474208499E+02  0.47293238437E+02  0.22770662962E+03  0.23280524375E+03  0.12700000000E+01 0.  1.
<mgrwt>
<rscale>  1 0.13406155E+03</rscale>
<asrwt>0</asrwt>
<pdfrwt beam="1">  1       21 0.11016721E+00 0.13406155E+03</pdfrwt>
<pdfrwt beam="2">  1        4 0.18150076E-02 0.13406155E+03</pdfrwt>
<totfact> 0.31612375E+04</totfact>
</mgrwt>
</event>
<event>
 6    4  0.6326233E-003  0.1299809E+03  0.7818608E-02  0.1227484E+00
          4   -1    0    0  502    0 -0.00000000000E+00  0.00000000000E+00  0.18160345285E+03  0.18160789351E+03  0.12700000000E+01 0. -1.
         21   -1    0    0  501  502  0.00000000000E+00 -0.00000000000E+00 -0.38805799803E+02  0.38805799803E+02  0.00000000000E+00 0. -1.
         25    2    1    2    0    0 -0.35610194991E+02  0.24150901539E-01  0.12597140831E+03  0.18100783103E+03  0.12500781020E+03 0.  0.
    9000005    1    3    3    0    0 -0.28759022883E+02 -0.67978862259E+01 -0.19365886863E+02  0.35345865788E+02  0.10000000000E+01 0.  0.
    9000005    1    3    3    0    0 -0.68511721077E+01  0.68220371274E+01  0.14533729517E+03  0.14566196524E+03  0.10000000000E+01 0.  0.
          4    1    1    2  501    0  0.35610194991E+02 -0.24150901539E-01  0.16826244733E+02  0.39405862284E+02  0.12700000000E+01 0.  1.
<mgrwt>
<rscale>  1 0.12998092E+03</rscale>
<asrwt>0</asrwt>
<pdfrwt beam="2">  1       21 0.59701232E-02 0.12998092E+03</pdfrwt>
<pdfrwt beam="1">  1        4 0.27940932E-01 0.12998092E+03</pdfrwt>
<totfact> 0.96731008E+04</totfact>
</mgrwt>
</event>
<event>
 6    4  0.6326233E-003  0.1288203E+03  0.7818608E-02  0.1229217E+00
         21   -1    0    0  501  502  0.00000000000E+00  0.00000000000E+00  0.10735509448E+04  0.10735509448E+04  0.00000000000E+00 0. -1.
         -4   -1    0    0    0  501 -0.00000000000E+00 -0.00000000000E+00 -0.43270458165E+02  0.43289091580E+02  0.12700000000E+01 0.  1.
         25    2    1    2    0    0 -0.29693430997E+02 -0.91574854345E+01  0.53375824362E+02  0.13944048069E+03  0.12501643750E+03 0.  0.
    9000005    1    3    3    0    0  0.47364955271E+02  0.62631524460E+00  0.43463455668E+01  0.47578587394E+02  0.10000000000E+01 0.  0.
    9000005    1    3    3    0    0 -0.77058386268E+02 -0.97838006791E+01  0.49029478795E+02  0.91861893301E+02  0.10000000000E+01 0.  0.
         -4    1    1    2    0  502  0.29693430997E+02  0.91574854345E+01  0.97690466229E+03  0.97739955570E+03  0.12700000000E+01 0. -1.
<mgrwt>
<rscale>  1 0.12882030E+03</rscale>
<asrwt>0</asrwt>
<pdfrwt beam="1">  1       21 0.16516166E+00 0.12882030E+03</pdfrwt>
<pdfrwt beam="2">  1       -4 0.66584855E-02 0.12882030E+03</pdfrwt>
<totfact> 0.14603199E+03</totfact>
</mgrwt>
</event>
<event>
 6    4  0.6326233E-003  0.1271600E+03  0.7818608E-02  0.1231732E+00
         21   -1    0    0  501  502  0.00000000000E+00  0.00000000000E+00  0.35405188551E+02  0.35405188551E+02  0.00000000000E+00 0. -1.
          4   -1    0    0  502    0 -0.00000000000E+00 -0.00000000000E+00 -0.17816429201E+03  0.17816881839E+03  0.12700000000E+01 0. -1.
         25    2    1    2    0    0  0.18533643473E+02 -0.14181520809E+02 -0.14139371444E+03  0.19016271352E+03  0.12500025463E+03 0.  0.
    9000005    1    3    3    0    0  0.51254054801E+00  0.41051297019E+02 -0.43344734134E+01  0.41294785924E+02  0.10000000000E+01 0.  0.
    9000005    1    3    3    0    0  0.18021102925E+02 -0.55232817828E+02 -0.13705924102E+03  0.14886792759E+03  0.10000000000E+01 0.  0.
          4    1    1    2  501    0 -0.18533643473E+02  0.14181520809E+02 -0.13653890255E+01  0.23411293429E+02  0.12700000000E+01 0.  1.
<mgrwt>
<rscale>  1 0.12716004E+03</rscale>
<asrwt>0</asrwt>
<pdfrwt beam="1">  1       21 0.54469521E-02 0.12716004E+03</pdfrwt>
<pdfrwt beam="2">  1        4 0.27411992E-01 0.12716004E+03</pdfrwt>
<totfact> 0.11668081E+05</totfact>
</mgrwt>
</event>
<event>
 6    4  0.6326233E-003  0.1329399E+03  0.7818608E-02  0.1223158E+00
         21   -1    0    0  501  502  0.00000000000E+00  0.00000000000E+00  0.20149741923E+02  0.20149741923E+02  0.00000000000E+00 0.  1.
          4   -1    0    0  502    0 -0.00000000000E+00 -0.00000000000E+00 -0.39421348376E+03  0.39421552948E+03  0.12700000000E+01 0. -1.
         25    2    1    2    0    0  0.34893689249E+02  0.28812150522E+02 -0.28308561343E+03  0.31274665934E+03  0.12500119532E+03 0.  0.
    9000005    1    3    3    0    0 -0.42589181128E+02 -0.11769945340E+02 -0.11629569163E+03  0.12441084299E+03  0.10000000000E+01 0.  0.
    9000005    1    3    3    0    0  0.77482870377E+02  0.40582095862E+02 -0.16678992180E+03  0.18833581635E+03  0.10000000000E+01 0.  0.
          4    1    1    2  501    0 -0.34893689249E+02 -0.28812150522E+02 -0.90978128412E+02  0.10161861206E+03  0.12700000000E+01 0.  1.
<mgrwt>
<rscale>  1 0.13293987E+03</rscale>
<asrwt>0</asrwt>
<pdfrwt beam="1">  1       21 0.30999605E-02 0.13293987E+03</pdfrwt>
<pdfrwt beam="2">  1        4 0.60651460E-01 0.13293987E+03</pdfrwt>
<totfact> 0.62478404E+04</totfact>
</mgrwt>
</event>
<event>
 6    4  0.6326233E-003  0.1311363E+03  0.7818608E-02  0.1225779E+00
          4   -1    0    0  502    0 -0.00000000000E+00  0.00000000000E+00  0.12226035920E+03  0.12226695519E+03  0.12700000000E+01 0. -1.
         21   -1    0    0  501  502  0.00000000000E+00 -0.00000000000E+00 -0.12642589895E+03  0.12642589895E+03  0.00000000000E+00 0.  1.
         25    2    1    2    0    0  0.31060412350E+02 -0.24638671669E+02  0.81423778006E+02  0.15435856785E+03  0.12499968994E+03 0.  0.
    9000005    1    3    3    0    0  0.21753478966E+02 -0.32899511117E+02  0.11338099178E+03  0.12004932726E+03  0.10000000000E+01 0.  0.
    9000005    1    3    3    0    0  0.93069333840E+01  0.82608394477E+01 -0.31957213774E+02  0.34309240586E+02  0.10000000000E+01 0.  0.
          4    1    1    2  501    0 -0.31060412350E+02  0.24638671669E+02 -0.85589317751E+02  0.94334286291E+02  0.12700000000E+01 0.  1.
<mgrwt>
<rscale>  1 0.13113633E+03</rscale>
<asrwt>0</asrwt>
<pdfrwt beam="2">  1       21 0.19450138E-01 0.13113633E+03</pdfrwt>
<pdfrwt beam="1">  1        4 0.18810284E-01 0.13113633E+03</pdfrwt>
<totfact> 0.24881447E+04</totfact>
</mgrwt>
</event>
<event>
 6    4  0.6326233E-003  0.1337618E+03  0.7818608E-02  0.1221978E+00
         21   -1    0    0  501  502  0.00000000000E+00  0.00000000000E+00  0.30539084418E+03  0.30539084418E+03  0.00000000000E+00 0.  1.
          4   -1    0    0  502    0 -0.00000000000E+00 -0.00000000000E+00 -0.27136595162E+02  0.27166297079E+02  0.12700000000E+01 0.  1.
         25    2    1    2    0    0 -0.32293772705E+02 -0.34985604600E+02  0.19153385822E+03  0.23361817338E+03  0.12500140721E+03 0.  0.
    9000005    1    3    3    0    0 -0.75324540727E+02  0.36770743014E+01  0.11813638080E+03  0.14015888049E+03  0.10000000000E+01 0.  0.
    9000005    1    3    3    0    0  0.43030768022E+02 -0.38662678901E+02  0.73397477421E+02  0.93459292893E+02  0.10000000000E+01 0.  0.
          4    1    1    2  501    0  0.32293772705E+02  0.34985604600E+02  0.86720390804E+02  0.98938967884E+02  0.12700000000E+01 0. -1.
<mgrwt>
<rscale>  1 0.13376185E+03</rscale>
<asrwt>0</asrwt>
<pdfrwt beam="1">  1       21 0.46983204E-01 0.13376185E+03</pdfrwt>
<pdfrwt beam="2">  1        4 0.41773489E-02 0.13376185E+03</pdfrwt>
<totfact> 0.56206716E+04</totfact>
</mgrwt>
</event>
<event>
 6    4  0.6326233E-003  0.1357196E+03  0.7818608E-02  0.1219207E+00
         -4   -1    0    0    0  501 -0.00000000000E+00  0.00000000000E+00  0.60732866402E+02  0.60746143592E+02  0.12700000000E+01 0.  1.
         21   -1    0    0  501  502  0.00000000000E+00 -0.00000000000E+00 -0.14821854383E+03  0.14821854383E+03  0.00000000000E+00 0.  1.
         25    2    1    2    0    0 -0.52758627551E+02  0.35449939452E+01 -0.52353154497E+02  0.14546707463E+03  0.12499510891E+03 0.  0.
    9000005    1    3    3    0    0 -0.53344619678E+02 -0.26023471240E+02  0.23655149018E+02  0.63901765070E+02  0.10000000000E+01 0.  0.
    9000005    1    3    3    0    0  0.58599212657E+00  0.29568465185E+02 -0.76008303515E+02  0.81565309559E+02  0.10000000000E+01 0.  0.
         -4    1    1    2    0  502  0.52758627551E+02 -0.35449939452E+01 -0.35132522934E+02  0.63497612797E+02  0.12700000000E+01 0. -1.
<mgrwt>
<rscale>  1 0.13571963E+03</rscale>
<asrwt>0</asrwt>
<pdfrwt beam="2">  1       21 0.22802853E-01 0.13571963E+03</pdfrwt>
<pdfrwt beam="1">  1       -4 0.93449578E-02 0.13571963E+03</pdfrwt>
<totfact> 0.62199742E+04</totfact>
</mgrwt>
</event>
<event>
 6    4  0.6326233E-003  0.1266312E+03  0.7818608E-02  0.1232542E+00
         21   -1    0    0  501  502  0.00000000000E+00  0.00000000000E+00  0.42995663325E+02  0.42995663325E+02  0.00000000000E+00 0. -1.
          4   -1    0    0  502    0 -0.00000000000E+00 -0.00000000000E+00 -0.12727769129E+03  0.12728402727E+03  0.12700000000E+01 0. -1.
         25    2    1    2    0    0 -0.18979811742E+02  0.70491593292E+01 -0.65207372152E+02  0.14243405728E+03  0.12500214153E+03 0.  0.
    9000005    1    3    3    0    0  0.50110189180E+01  0.47572764582E+02  0.14372777113E+02  0.49958532430E+02  0.10000000000E+01 0.  0.
    9000005    1    3    3    0    0 -0.23990830660E+02 -0.40523605253E+02 -0.79580149265E+02  0.92475524846E+02  0.10000000000E+01 0.  0.
          4    1    1    2  501    0  0.18979811742E+02 -0.70491593292E+01 -0.19074655808E+02  0.27845633324E+02  0.12700000000E+01 0.  1.
<mgrwt>
<rscale>  1 0.12663119E+03</rscale>
<asrwt>0</asrwt>
<pdfrwt beam="1">  1       21 0.66147174E-02 0.12663119E+03</pdfrwt>
<pdfrwt beam="2">  1        4 0.19583114E-01 0.12663119E+03</pdfrwt>
<totfact> 0.15510775E+05</totfact>
</mgrwt>
</event>
<event>
 6    4  0.6326233E-003  0.1278550E+03  0.7818608E-02  0.1230674E+00
         21   -1    0    0  501  502  0.00000000000E+00  0.00000000000E+00  0.98408305275E+02  0.98408305275E+02  0.00000000000E+00 0.  1.
          4   -1    0    0  502    0 -0.00000000000E+00 -0.00000000000E+00 -0.13902523876E+03  0.13903103939E+03  0.12700000000E+01 0. -1.
         25    2    1    2    0    0  0.21238335223E+02  0.16447155458E+02 -0.10642246508E+03  0.16635097224E+03  0.12500131634E+03 0.  0.
    9000005    1    3    3    0    0 -0.13573350703E+02 -0.48927491424E+02 -0.26141163906E+02  0.57118260799E+02  0.10000000000E+01 0.  0.
    9000005    1    3    3    0    0  0.34811685925E+02  0.65374646882E+02 -0.80281301171E+02  0.10923271144E+03  0.10000000000E+01 0.  0.
          4    1    1    2  501    0 -0.21238335223E+02 -0.16447155458E+02  0.65805531587E+02  0.71088372419E+02  0.12700000000E+01 0.  1.
<mgrwt>
<rscale>  1 0.12785502E+03</rscale>
<asrwt>0</asrwt>
<pdfrwt beam="1">  1       21 0.15139739E-01 0.12785502E+03</pdfrwt>
<pdfrwt beam="2">  1        4 0.21389575E-01 0.12785502E+03</pdfrwt>
<totfact> 0.31096861E+04</totfact>
</mgrwt>
</event>
<event>
 6    4  0.6326233E-003  0.1348685E+03  0.7818608E-02  0.1220405E+00
         21   -1    0    0  501  502  0.00000000000E+00  0.00000000000E+00  0.33638976346E+01  0.33638976346E+01  0.00000000000E+00 0. -1.
          4   -1    0    0  502    0 -0.00000000000E+00 -0.00000000000E+00 -0.25887645868E+04  0.25887648983E+04  0.12700000000E+01 0.  1.
         25    2    1    2    0    0 -0.50419961107E+02 -0.46809863449E+01 -0.17459661029E+04  0.17511673690E+04  0.12500175060E+03 0.  0.
    9000005    1    3    3    0    0 -0.16713825193E+02  0.31161810025E+02 -0.14951807558E+04  0.14955991785E+04  0.10000000000E+01 0.  0.
    9000005    1    3    3    0    0 -0.33706135914E+02 -0.35842796370E+02 -0.25078534713E+03  0.25556819048E+03  0.10000000000E+01 0.  0.
          4    1    1    2  501    0  0.50419961107E+02  0.46809863449E+01 -0.83943458630E+03  0.84096142699E+03  0.12700000000E+01 0. -1.
<mgrwt>
<rscale>  1 0.13486854E+03</rscale>
<asrwt>0</asrwt>
<pdfrwt beam="1">  1       21 0.51752408E-03 0.13486854E+03</pdfrwt>
<pdfrwt beam="2">  1        4 0.39828889E+00 0.13486854E+03</pdfrwt>
<totfact> 0.40657363E+03</totfact>
</mgrwt>
</event>
<event>
 6    4  0.6326233E-003  0.1297789E+03  0.7818608E-02  0.1227784E+00
         21   -1    0    0  501  502  0.00000000000E+00  0.00000000000E+00  0.11128996110E+03  0.11128996110E+03  0.00000000000E+00 0.  1.
         -4   -1    0    0    0  501 -0.00000000000E+00 -0.00000000000E+00 -0.64433464887E+02  0.64445979683E+02  0.12700000000E+01 0.  1.
         25    2    1    2    0    0  0.18064599456E+01 -0.34876806495E+02  0.19245936724E+02  0.13119819472E+03  0.12499162088E+03 0.  0.
    9000005    1    3    3    0    0  0.28385235516E+01 -0.80965726444E+02 -0.53426114419E+00  0.81023401000E+02  0.10000000000E+01 0.  0.
    9000005    1    3    3    0    0 -0.10320636060E+01  0.46088919949E+02  0.19780197868E+02  0.50174793723E+02  0.10000000000E+01 0.  0.
         -4    1    1    2    0  502 -0.18064599456E+01  0.34876806495E+02  0.27610559487E+02  0.44537746059E+02  0.12700000000E+01 0. -1.
<mgrwt>
<rscale>  1 0.12977889E+03</rscale>
<asrwt>0</asrwt>
<pdfrwt beam="1">  1       21 0.17121533E-01 0.12977889E+03</pdfrwt>
<pdfrwt beam="2">  1       -4 0.99143608E-02 0.12977889E+03</pdfrwt>
<totfact> 0.95104705E+04</totfact>
</mgrwt>
</event>
<event>
 6    4  0.6326233E-003  0.1312780E+03  0.7818608E-02  0.1225572E+00
         -4   -1    0    0    0  501 -0.00000000000E+00  0.00000000000E+00  0.12556075915E+03  0.12556718177E+03  0.12700000000E+01 0. -1.
         21   -1    0    0  501  502  0.00000000000E+00 -0.00000000000E+00 -0.59972953213E+02  0.59972953213E+02  0.00000000000E+00 0. -1.
         25    2    1    2    0    0  0.96277885395E+01 -0.38801070505E+02  0.62575398610E+02  0.14542897840E+03  0.12504275214E+03 0.  0.
    9000005    1    3    3    0    0 -0.29716131061E+01 -0.37369993396E+02 -0.32428252682E+02  0.49577600415E+02  0.10000000000E+01 0.  0.
    9000005    1    3    3    0    0  0.12599401646E+02 -0.14310771093E+01  0.95003651292E+02  0.95851377989E+02  0.10000000000E+01 0.  0.
         -4    1    1    2    0  502 -0.96277885395E+01  0.38801070505E+02  0.30124073281E+01  0.40111156583E+02  0.12700000000E+01 0.  1.
<mgrwt>
<rscale>  1 0.13127798E+03</rscale>
<asrwt>0</asrwt>
<pdfrwt beam="2">  1       21 0.92266082E-02 0.13127798E+03</pdfrwt>
<pdfrwt beam="1">  1       -4 0.19318568E-01 0.13127798E+03</pdfrwt>
<totfact> 0.90088918E+04</totfact>
</mgrwt>
</event>
<event>
 6    4  0.6326233E-003  0.1268419E+03  0.7818608E-02  0.1232218E+00
         -4   -1    0    0    0  501 -0.00000000000E+00  0.00000000000E+00  0.51003834025E+03  0.51003992141E+03  0.12700000000E+01 0.  1.
         21   -1    0    0  501  502  0.00000000000E+00 -0.00000000000E+00 -0.23465486822E+02  0.23465486822E+02  0.00000000000E+00 0.  1.
         25    2    1    2    0    0  0.20276051537E+02 -0.72578116927E+01  0.49450997446E+03  0.51051834911E+03  0.12500030336E+03 0.  0.
    9000005    1    3    3    0    0 -0.39166221740E+02  0.34021693683E+01  0.37050529974E+03  0.37258656017E+03  0.10000000000E+01 0.  0.
    9000005    1    3    3    0    0  0.59442273277E+02 -0.10659981061E+02  0.12400467472E+03  0.13793178895E+03  0.10000000000E+01 0.  0.
         -4    1    1    2    0  502 -0.20276051537E+02  0.72578116927E+01 -0.79371210324E+01  0.22987059115E+02  0.12700000000E+01 0. -1.
<mgrwt>
<rscale>  1 0.12684191E+03</rscale>
<asrwt>0</asrwt>
<pdfrwt beam="2">  1       21 0.36100753E-02 0.12684191E+03</pdfrwt>
<pdfrwt beam="1">  1       -4 0.78470193E-01 0.12684191E+03</pdfrwt>
<totfact> 0.27764634E+04</totfact>
</mgrwt>
</event>
<event>
 6    4  0.6326233E-003  0.1294027E+03  0.7818608E-02  0.1228345E+00
         21   -1    0    0  501  502  0.00000000000E+00  0.00000000000E+00  0.22431705697E+02  0.22431705697E+02  0.00000000000E+00 0. -1.
          4   -1    0    0  502    0 -0.00000000000E+00 -0.00000000000E+00 -0.37342568127E+03  0.37342784086E+03  0.12700000000E+01 0.  1.
         25    2    1    2    0    0  0.29121375292E+02 -0.16500801744E+02 -0.33422464250E+03  0.35840084411E+03  0.12499888980E+03 0.  0.
    9000005    1    3    3    0    0  0.40702414450E+02  0.20387695609E+02 -0.37003183325E+02  0.58673505524E+02  0.10000000000E+01 0.  0.
    9000005    1    3    3    0    0 -0.11581039158E+02 -0.36888497352E+02 -0.29722145917E+03  0.29972733859E+03  0.10000000000E+01 0.  0.
          4    1    1    2  501    0 -0.29121375292E+02  0.16500801744E+02 -0.16769333072E+02  0.37458702444E+02  0.12700000000E+01 0. -1.
<mgrwt>
<rscale>  1 0.12940268E+03</rscale>
<asrwt>0</asrwt>
<pdfrwt beam="1">  1       21 0.34510320E-02 0.12940268E+03</pdfrwt>
<pdfrwt beam="2">  1        4 0.57453031E-01 0.12940268E+03</pdfrwt>
<totfact> 0.58427270E+04</totfact>
</mgrwt>
</event>
<event>
 6    4  0.6326233E-003  0.1521440E+03  0.7818608E-02  0.1197863E+00
         -4   -1    0    0    0  501 -0.00000000000E+00  0.00000000000E+00  0.19012500454E+03  0.19012924617E+03  0.12700000000E+01 0.  1.
         21   -1    0    0  501  502  0.00000000000E+00 -0.00000000000E+00 -0.14696273810E+03  0.14696273810E+03  0.00000000000E+00 0.  1.
         25    2    1    2    0    0  0.34180202272E+02 -0.79710003333E+02  0.14023349787E+03  0.20691361536E+03  0.12500335771E+03 0.  0.
    9000005    1    3    3    0    0  0.59487797185E+02 -0.10127016789E+03  0.12033492643E+03  0.16815451061E+03  0.10000000000E+01 0.  0.
    9000005    1    3    3    0    0 -0.25307594912E+02  0.21560164558E+02  0.19898571437E+02  0.38759104753E+02  0.10000000000E+01 0.  0.
         -4    1    1    2    0  502 -0.34180202272E+02  0.79710003333E+02 -0.97071231431E+02  0.13017836890E+03  0.12700000000E+01 0. -1.
<mgrwt>
<rscale>  1 0.15214404E+03</rscale>
<asrwt>0</asrwt>
<pdfrwt beam="2">  1       21 0.22609652E-01 0.15214404E+03</pdfrwt>
<pdfrwt beam="1">  1       -4 0.29250749E-01 0.15214404E+03</pdfrwt>
<totfact> 0.84727677E+03</totfact>
</mgrwt>
</event>
<event>
 6    4  0.6326233E-003  0.1267454E+03  0.7818608E-02  0.1232366E+00
         -4   -1    0    0    0  501 -0.00000000000E+00  0.00000000000E+00  0.21793599952E+03  0.21793969989E+03  0.12700000000E+01 0.  1.
         21   -1    0    0  501  502  0.00000000000E+00 -0.00000000000E+00 -0.44485044118E+02  0.44485044118E+02  0.00000000000E+00 0. -1.
         25    2    1    2    0    0  0.20305948909E+02 -0.51094238302E+01  0.19485843357E+03  0.23245257701E+03  0.12500381456E+03 0.  0.
    9000005    1    3    3    0    0 -0.26695221912E+02 -0.35891194102E+02  0.16042879766E+03  0.16655092856E+03  0.10000000000E+01 0.  0.
    9000005    1    3    3    0    0  0.47001170820E+02  0.30781770272E+02  0.34429635910E+02  0.65901648450E+02  0.10000000000E+01 0.  0.
         -4    1    1    2    0  502 -0.20305948909E+02  0.51094238302E+01 -0.21407478164E+02  0.29972166994E+02  0.12700000000E+01 0. -1.
<mgrwt>
<rscale>  1 0.12674538E+03</rscale>
<asrwt>0</asrwt>
<pdfrwt beam="2">  1       21 0.68438531E-02 0.12674538E+03</pdfrwt>
<pdfrwt beam="1">  1       -4 0.33530294E-01 0.12674538E+03</pdfrwt>
<totfact> 0.54099283E+04</totfact>
</mgrwt>
</event>
<event>
 6    4  0.6326233E-003  0.1292494E+03  0.7818608E-02  0.1228574E+00
         21   -1    0    0  501  502  0.00000000000E+00  0.00000000000E+00  0.22477492560E+02  0.22477492560E+02  0.00000000000E+00 0. -1.
         -4   -1    0    0    0  501 -0.00000000000E+00 -0.00000000000E+00 -0.50117771621E+03  0.50117932532E+03  0.12700000000E+01 0. -1.
         25    2    1    2    0    0  0.32446962463E+02  0.52267612355E+01 -0.47291879561E+03  0.49026277325E+03  0.12500110075E+03 0.  0.
    9000005    1    3    3    0    0  0.13459213427E+02 -0.43873080432E+02 -0.68666373842E+02  0.82595814115E+02  0.10000000000E+01 0.  0.
    9000005    1    3    3    0    0  0.18987749036E+02  0.49099841668E+02 -0.40425242177E+03  0.40766695914E+03  0.10000000000E+01 0.  0.
         -4    1    1    2    0  502 -0.32446962463E+02 -0.52267612355E+01 -0.57814280351E+01  0.33394044622E+02  0.12700000000E+01 0.  1.
<mgrwt>
<rscale>  1 0.12924937E+03</rscale>
<asrwt>0</asrwt>
<pdfrwt beam="1">  1       21 0.34580757E-02 0.12924937E+03</pdfrwt>
<pdfrwt beam="2">  1       -4 0.77107149E-01 0.12924937E+03</pdfrwt>
<totfact> 0.31050142E+04</totfact>
</mgrwt>
</event>
<event>
 6    4  0.6326233E-003  0.1272705E+03  0.7818608E-02  0.1231563E+00
         21   -1    0    0  501  502  0.00000000000E+00  0.00000000000E+00  0.25147980323E+02  0.25147980323E+02  0.00000000000E+00 0.  1.
          4   -1    0    0  502    0 -0.00000000000E+00 -0.00000000000E+00 -0.26567920531E+03  0.26568224072E+03  0.12700000000E+01 0. -1.
         25    2    1    2    0    0 -0.51708035942E+01 -0.23363720311E+02 -0.23337345855E+03  0.26582127950E+03  0.12500072338E+03 0.  0.
    9000005    1    3    3    0    0  0.15319538216E+02  0.22647513395E+02 -0.29647659306E+00  0.27362127339E+02  0.10000000000E+01 0.  0.
    9000005    1    3    3    0    0 -0.20490341810E+02 -0.46011233706E+02 -0.23307698195E+03  0.23845915216E+03  0.10000000000E+01 0.  0.
          4    1    1    2  501    0  0.51708035942E+01  0.23363720311E+02 -0.71577664425E+01  0.25008941541E+02  0.12700000000E+01 0.  1.
<mgrwt>
<rscale>  1 0.12727051E+03</rscale>
<asrwt>0</asrwt>
<pdfrwt beam="1">  1       21 0.38689204E-02 0.12727051E+03</pdfrwt>
<pdfrwt beam="2">  1        4 0.40876420E-01 0.12727051E+03</pdfrwt>
<totfact> 0.96135567E+04</totfact>
</mgrwt>
</event>
<event>
 6    4  0.6326233E-003  0.1343726E+03  0.7818608E-02  0.1221108E+00
         21   -1    0    0  501  502  0.00000000000E+00  0.00000000000E+00  0.10433589798E+03  0.10433589798E+03  0.00000000000E+00 0. -1.
          4   -1    0    0  502    0 -0.00000000000E+00 -0.00000000000E+00 -0.22268607280E+03  0.22268969424E+03  0.12700000000E+01 0.  1.
         25    2    1    2    0    0 -0.24893965956E+02  0.42553716259E+02 -0.19443884126E+03  0.23635240782E+03  0.12500187751E+03 0.  0.
    9000005    1    3    3    0    0  0.49623726372E+02  0.11369899976E+02 -0.98884342427E+02  0.11122455674E+03  0.10000000000E+01 0.  0.
    9000005    1    3    3    0    0 -0.74517692329E+02  0.31183816284E+02 -0.95554498835E+02  0.12512785108E+03  0.10000000000E+01 0.  0.
          4    1    1    2  501    0  0.24893965956E+02 -0.42553716259E+02  0.76088666438E+02  0.90673184398E+02  0.12700000000E+01 0. -1.
<mgrwt>
<rscale>  1 0.13437261E+03</rscale>
<asrwt>0</asrwt>
<pdfrwt beam="1">  1       21 0.16051677E-01 0.13437261E+03</pdfrwt>
<pdfrwt beam="2">  1        4 0.34260269E-01 0.13437261E+03</pdfrwt>
<totfact> 0.11681145E+04</totfact>
</mgrwt>
</event>
<event>
 6    4  0.6326233E-003  0.1325795E+03  0.7818608E-02  0.1223678E+00
         -4   -1    0    0    0  501 -0.00000000000E+00  0.00000000000E+00  0.15735858684E+03  0.15736371168E+03  0.12700000000E+01 0. -1.
         21   -1    0    0  501  502  0.00000000000E+00 -0.00000000000E+00 -0.22277096529E+03  0.22277096529E+03  0.00000000000E+00 0.  1.
         25    2    1    2    0    0  0.63129598138E+01  0.43698073256E+02  0.12647451939E+03  0.18322970108E+03  0.12501177639E+03 0.  0.
    9000005    1    3    3    0    0 -0.57636510455E+02  0.83609873815E+01  0.43708385641E+02  0.72823735298E+02  0.10000000000E+01 0.  0.
    9000005    1    3    3    0    0  0.63949470269E+02  0.35337085875E+02  0.82766133746E+02  0.11040596579E+03  0.10000000000E+01 0.  0.
         -4    1    1    2    0  502 -0.63129598138E+01 -0.43698073256E+02 -0.19188689783E+03  0.19690497588E+03  0.12700000000E+01 0.  1.
<mgrwt>
<rscale>  1 0.13257948E+03</rscale>
<asrwt>0</asrwt>
<pdfrwt beam="2">  1       21 0.34272456E-01 0.13257948E+03</pdfrwt>
<pdfrwt beam="1">  1       -4 0.24209686E-01 0.13257948E+03</pdfrwt>
<totfact> 0.53761058E+03</totfact>
</mgrwt>
</event>
<event>
 6    4  0.6326233E-003  0.1306751E+03  0.7818608E-02  0.1226457E+00
         -4   -1    0    0    0  501 -0.00000000000E+00  0.00000000000E+00  0.20367050135E+04  0.20367054095E+04  0.12700000000E+01 0.  1.
         21   -1    0    0  501  502  0.00000000000E+00 -0.00000000000E+00 -0.64858415706E+02  0.64858415706E+02  0.00000000000E+00 0. -1.
         25    2    1    2    0    0 -0.36582273879E+02  0.10605682098E+02  0.20288175402E+04  0.20330215431E+04  0.12500095981E+03 0.  0.
    9000005    1    3    3    0    0 -0.74573826436E+02  0.20018997961E+02  0.83525212404E+03  0.83881411921E+03  0.10000000000E+01 0.  0.
    9000005    1    3    3    0    0  0.37991552557E+02 -0.94133158630E+01  0.11935654162E+04  0.11942074239E+04  0.10000000000E+01 0.  0.
         -4    1    1    2    0  502  0.36582273879E+02 -0.10605682098E+02 -0.56970942405E+02  0.68542282085E+02  0.12700000000E+01 0. -1.
<mgrwt>
<rscale>  1 0.13067511E+03</rscale>
<asrwt>0</asrwt>
<pdfrwt beam="2">  1       21 0.99782194E-02 0.13067511E+03</pdfrwt>
<pdfrwt beam="1">  1       -4 0.31334017E+00 0.13067511E+03</pdfrwt>
<totfact> 0.10864261E+02</totfact>
</mgrwt>
</event>
<event>
 6    4  0.6326233E-003  0.1271168E+03  0.7818608E-02  0.1231798E+00
         21   -1    0    0  501  502  0.00000000000E+00  0.00000000000E+00  0.29208553200E+02  0.29208553200E+02  0.00000000000E+00 0.  1.
          4   -1    0    0  502    0 -0.00000000000E+00 -0.00000000000E+00 -0.20792765026E+03  0.20793152874E+03  0.12700000000E+01 0. -1.
         25    2    1    2    0    0 -0.13858678213E+02  0.18535916128E+02 -0.17023245065E+03  0.21245650003E+03  0.12499213576E+03 0.  0.
    9000005    1    3    3    0    0  0.41171005181E+02  0.15566370478E+02 -0.14555095418E+03  0.15206394649E+03  0.10000000000E+01 0.  0.
    9000005    1    3    3    0    0 -0.55029683394E+02  0.29695456498E+01 -0.24681496468E+02  0.60392553545E+02  0.10000000000E+01 0.  0.
          4    1    1    2  501    0  0.13858678213E+02 -0.18535916128E+02 -0.84866464137E+01  0.24683581909E+02  0.12700000000E+01 0.  1.
<mgrwt>
<rscale>  1 0.12711679E+03</rscale>
<asrwt>0</asrwt>
<pdfrwt beam="1">  1       21 0.44936238E-02 0.12711679E+03</pdfrwt>
<pdfrwt beam="2">  1        4 0.31991290E-01 0.12711679E+03</pdfrwt>
<totfact> 0.12044309E+05</totfact>
</mgrwt>
</event>
<event>
 6    4  0.6326233E-003  0.1285709E+03  0.7818608E-02  0.1229592E+00
          4   -1    0    0  502    0 -0.00000000000E+00  0.00000000000E+00  0.45712968799E+03  0.45713145215E+03  0.12700000000E+01 0.  1.
         21   -1    0    0  501  502  0.00000000000E+00 -0.00000000000E+00 -0.30162929148E+02  0.30162929148E+02  0.00000000000E+00 0. -1.
         25    2    1    2    0    0 -0.30007746146E+02 -0.23604910034E+01  0.43701512396E+03  0.45553561419E+03  0.12499776191E+03 0.  0.
    9000005    1    3    3    0    0 -0.13091339216E+02  0.21263296082E+02  0.90413773857E+01  0.26575504281E+02  0.10000000000E+01 0.  0.
    9000005    1    3    3    0    0 -0.16916406930E+02 -0.23623787085E+02  0.42797374657E+03  0.42896010991E+03  0.10000000000E+01 0.  0.
          4    1    1    2  501    0  0.30007746146E+02  0.23604910034E+01 -0.10048365114E+02  0.31758767105E+02  0.12700000000E+01 0. -1.
<mgrwt>
<rscale>  1 0.12857090E+03</rscale>
<asrwt>0</asrwt>
<pdfrwt beam="2">  1       21 0.46404510E-02 0.12857090E+03</pdfrwt>
<pdfrwt beam="1">  1        4 0.70329831E-01 0.12857090E+03</pdfrwt>
<totfact> 0.23253498E+04</totfact>
</mgrwt>
</event>
<event>
 6    4  0.6326233E-003  0.1277939E+03  0.7818608E-02  0.1230766E+00
          4   -1    0    0  502    0 -0.00000000000E+00  0.00000000000E+00  0.19004923019E+02  0.19047309494E+02  0.12700000000E+01 0.  1.
         21   -1    0    0  501  502  0.00000000000E+00 -0.00000000000E+00 -0.40865151049E+03  0.40865151049E+03  0.00000000000E+00 0.  1.
         25    2    1    2    0    0  0.20444392030E+02 -0.17003240076E+02 -0.20806984583E+03  0.24418094799E+03  0.12499676506E+03 0.  0.
    9000005    1    3    3    0    0 -0.24572640161E+02  0.13177370666E+02  0.12768643974E+01  0.27930057731E+02  0.10000000000E+01 0.  0.
    9000005    1    3    3    0    0  0.45017032192E+02 -0.30180610742E+02 -0.20934671023E+03  0.21625089026E+03  0.10000000000E+01 0.  0.
          4    1    1    2  501    0 -0.20444392030E+02  0.17003240076E+02 -0.18157674164E+03  0.18351787200E+03  0.12700000000E+01 0. -1.
<mgrwt>
<rscale>  1 0.12779388E+03</rscale>
<asrwt>0</asrwt>
<pdfrwt beam="2">  1       21 0.62869465E-01 0.12779388E+03</pdfrwt>
<pdfrwt beam="1">  1        4 0.29272465E-02 0.12779388E+03</pdfrwt>
<totfact> 0.53280356E+04</totfact>
</mgrwt>
</event>
<event>
 6    4  0.6326233E-003  0.1282513E+03  0.7818608E-02  0.1230074E+00
         -4   -1    0    0    0  501 -0.00000000000E+00  0.00000000000E+00  0.56525803864E+02  0.56540069000E+02  0.12700000000E+01 0.  1.
         21   -1    0    0  501  502  0.00000000000E+00 -0.00000000000E+00 -0.36412921153E+03  0.36412921153E+03  0.00000000000E+00 0.  1.
         25    2    1    2    0    0 -0.27238889761E+02 -0.90225207315E+01 -0.17840323981E+02  0.12948614132E+03  0.12500008255E+03 0.  0.
    9000005    1    3    3    0    0 -0.42336853496E+02  0.15655692426E+02 -0.61991930431E+02  0.76690998871E+02  0.10000000000E+01 0.  0.
    9000005    1    3    3    0    0  0.15097963735E+02 -0.24678213158E+02  0.44151606450E+02  0.52795142444E+02  0.10000000000E+01 0.  0.
         -4    1    1    2    0  502  0.27238889761E+02  0.90225207315E+01 -0.28976308368E+03  0.29118313921E+03  0.12700000000E+01 0. -1.
<mgrwt>
<rscale>  1 0.12825125E+03</rscale>
<asrwt>0</asrwt>
<pdfrwt beam="2">  1       21 0.56019879E-01 0.12825125E+03</pdfrwt>
<pdfrwt beam="1">  1       -4 0.86975452E-02 0.12825125E+03</pdfrwt>
<totfact> 0.11802219E+04</totfact>
</mgrwt>
</event>
<event>
 6    4  0.6326233E-003  0.1340908E+03  0.7818608E-02  0.1221509E+00
         -4   -1    0    0    0  501 -0.00000000000E+00  0.00000000000E+00  0.24442751402E+02  0.24475722586E+02  0.12700000000E+01 0. -1.
         21   -1    0    0  501  502  0.00000000000E+00 -0.00000000000E+00 -0.40015956678E+03  0.40015956678E+03  0.00000000000E+00 0. -1.
         25    2    1    2    0    0  0.37694494217E+02  0.30484432261E+02 -0.18907899926E+03  0.23179996374E+03  0.12502071718E+03 0.  0.
    9000005    1    3    3    0    0 -0.27303014715E+02 -0.32616550016E+02 -0.73751368319E+02  0.85144337900E+02  0.10000000000E+01 0.  0.
    9000005    1    3    3    0    0  0.64997508932E+02  0.63100982277E+02 -0.11532763094E+03  0.14665562584E+03  0.10000000000E+01 0.  0.
         -4    1    1    2    0  502 -0.37694494217E+02 -0.30484432261E+02 -0.18663781612E+03  0.19283532563E+03  0.12700000000E+01 0.  1.
<mgrwt>
<rscale>  1 0.13409085E+03</rscale>
<asrwt>0</asrwt>
<pdfrwt beam="2">  1       21 0.61563008E-01 0.13409085E+03</pdfrwt>
<pdfrwt beam="1">  1       -4 0.37631147E-02 0.13409085E+03</pdfrwt>
<totfact> 0.37727830E+04</totfact>
</mgrwt>
</event>
<event>
 6    4  0.6326233E-003  0.1273570E+03  0.7818608E-02  0.1231431E+00
         -4   -1    0    0    0  501 -0.00000000000E+00  0.00000000000E+00  0.23811979786E+03  0.23812318457E+03  0.12700000000E+01 0. -1.
         21   -1    0    0  501  502  0.00000000000E+00 -0.00000000000E+00 -0.31871139554E+02  0.31871139554E+02  0.00000000000E+00 0.  1.
         25    2    1    2    0    0  0.69172662436E+01  0.23406424794E+02  0.20966704043E+03  0.24531624620E+03  0.12499633401E+03 0.  0.
    9000005    1    3    3    0    0 -0.42883125858E+02 -0.60195138747E+01  0.21307157386E+02  0.48272062174E+02  0.10000000000E+01 0.  0.
    9000005    1    3    3    0    0  0.49800392102E+02  0.29425938669E+02  0.18835988304E+03  0.19704418403E+03  0.10000000000E+01 0.  0.
         -4    1    1    2    0  502 -0.69172662436E+01 -0.23406424794E+02 -0.34183821216E+01  0.24678077929E+02  0.12700000000E+01 0.  1.
<mgrwt>
<rscale>  1 0.12735695E+03</rscale>
<asrwt>0</asrwt>
<pdfrwt beam="2">  1       21 0.49032524E-02 0.12735695E+03</pdfrwt>
<pdfrwt beam="1">  1       -4 0.36636021E-01 0.12735695E+03</pdfrwt>
<totfact> 0.80233356E+04</totfact>
</mgrwt>
</event>
<event>
 6    4  0.6326233E-003  0.1298790E+03  0.7818608E-02  0.1227635E+00
          4   -1    0    0  502    0 -0.00000000000E+00  0.00000000000E+00  0.22610772124E+03  0.22611128787E+03  0.12700000000E+01 0. -1.
         21   -1    0    0  501  502  0.00000000000E+00 -0.00000000000E+00 -0.36820736262E+02  0.36820736262E+02  0.00000000000E+00 0.  1.
         25    2    1    2    0    0  0.33680125176E+02  0.10477758971E+02  0.18684659518E+03  0.22755261392E+03  0.12499763080E+03 0.  0.
    9000005    1    3    3    0    0 -0.29065749417E+02  0.20455105859E+02  0.62467857026E+01  0.36100574462E+02  0.10000000000E+01 0.  0.
    9000005    1    3    3    0    0  0.62745874593E+02 -0.99773468879E+01  0.18059980947E+03  0.19145203945E+03  0.10000000000E+01 0.  0.
          4    1    1    2  501    0 -0.33680125176E+02 -0.10477758971E+02  0.24403897969E+01  0.35379410217E+02  0.12700000000E+01 0.  1.
<mgrwt>
<rscale>  1 0.12987895E+03</rscale>
<asrwt>0</asrwt>
<pdfrwt beam="2">  1       21 0.56647288E-02 0.12987895E+03</pdfrwt>
<pdfrwt beam="1">  1        4 0.34787762E-01 0.12987895E+03</pdfrwt>
<totfact> 0.69734526E+04</totfact>
</mgrwt>
</event>
<event>
 6    4  0.6326233E-003  0.1315743E+03  0.7818608E-02  0.1225138E+00
         21   -1    0    0  501  502  0.00000000000E+00  0.00000000000E+00  0.31823728146E+03  0.31823728146E+03  0.00000000000E+00 0.  1.
         -4   -1    0    0    0  501 -0.00000000000E+00 -0.00000000000E+00 -0.56334475615E+02  0.56348789187E+02  0.12700000000E+01 0. -1.
         25    2    1    2    0    0 -0.40137644850E+02  0.86445587704E+01  0.24724882122E+02  0.13387724378E+03  0.12500415063E+03 0.  0.
    9000005    1    3    3    0    0 -0.48765732720E+02 -0.32216785823E+02 -0.29459594282E+02  0.65459038121E+02  0.10000000000E+01 0.  0.
    9000005    1    3    3    0    0  0.86280878697E+01  0.40861344594E+02  0.54184476404E+02  0.68418205658E+02  0.10000000000E+01 0.  0.
         -4    1    1    2    0  502  0.40137644850E+02 -0.86445587704E+01  0.23717792372E+03  0.24070882687E+03  0.12700000000E+01 0.  1.
<mgrwt>
<rscale>  1 0.13157430E+03</rscale>
<asrwt>0</asrwt>
<pdfrwt beam="1">  1       21 0.48959580E-01 0.13157430E+03</pdfrwt>
<pdfrwt beam="2">  1       -4 0.86681386E-02 0.13157430E+03</pdfrwt>
<totfact> 0.15736129E+04</totfact>
</mgrwt>
</event>
<event>
 6    4  0.6326233E-003  0.1320725E+03  0.7818608E-02  0.1224413E+00
          4   -1    0    0  502    0 -0.00000000000E+00  0.00000000000E+00  0.21981223716E+03  0.21981590594E+03  0.12700000000E+01 0. -1.
         21   -1    0    0  501  502  0.00000000000E+00 -0.00000000000E+00 -0.10059711014E+03  0.10059711014E+03  0.00000000000E+00 0.  1.
         25    2    1    2    0    0 -0.41189936674E+02 -0.11040021688E+02  0.19377900797E+03  0.23450679859E+03  0.12499856676E+03 0.  0.
    9000005    1    3    3    0    0  0.37532656389E+02 -0.26433993738E+02  0.10641704080E+03  0.11590100471E+03  0.10000000000E+01 0.  0.
    9000005    1    3    3    0    0 -0.78722593062E+02  0.15393972050E+02  0.87361967171E+02  0.11860579388E+03  0.10000000000E+01 0.  0.
          4    1    1    2  501    0  0.41189936674E+02  0.11040021688E+02 -0.74563880953E+02  0.85906217498E+02  0.12700000000E+01 0.  1.
<mgrwt>
<rscale>  1 0.13207246E+03</rscale>
<asrwt>0</asrwt>
<pdfrwt beam="2">  1       21 0.15476479E-01 0.13207246E+03</pdfrwt>
<pdfrwt beam="1">  1        4 0.33818166E-01 0.13207246E+03</pdfrwt>
<totfact> 0.12775432E+04</totfact>
</mgrwt>
</event>
<event>
 6    4  0.6326233E-003  0.1277273E+03  0.7818608E-02  0.1230868E+00
         -4   -1    0    0    0  501 -0.00000000000E+00  0.00000000000E+00  0.14223469770E+02  0.14280055753E+02  0.12700000000E+01 0. -1.
         21   -1    0    0  501  502  0.00000000000E+00 -0.00000000000E+00 -0.41738449219E+03  0.41738449219E+03  0.00000000000E+00 0. -1.
         25    2    1    2    0    0 -0.13245895283E+02 -0.22678214277E+02 -0.32492449443E+03  0.34912775398E+03  0.12499802550E+03 0.  0.
    9000005    1    3    3    0    0  0.20285415175E+02 -0.57400238059E+02 -0.26634759774E+03  0.27321846245E+03  0.10000000000E+01 0.  0.
    9000005    1    3    3    0    0 -0.33531310459E+02  0.34722023783E+02 -0.58576896685E+02  0.75909291539E+02  0.10000000000E+01 0.  0.
         -4    1    1    2    0  502  0.13245895283E+02  0.22678214277E+02 -0.78236527988E+02  0.82536793954E+02  0.12700000000E+01 0.  1.
<mgrwt>
<rscale>  1 0.12772729E+03</rscale>
<asrwt>0</asrwt>
<pdfrwt beam="2">  1       21 0.64213003E-01 0.12772729E+03</pdfrwt>
<pdfrwt beam="1">  1       -4 0.21927274E-02 0.12772729E+03</pdfrwt>
<totfact> 0.79750272E+04</totfact>
</mgrwt>
</event>
<event>
 6    4  0.6326233E-003  0.1329776E+03  0.7818608E-02  0.1223103E+00
         21   -1    0    0  501  502  0.00000000000E+00  0.00000000000E+00  0.26532423980E+03  0.26532423980E+03  0.00000000000E+00 0.  1.
         -4   -1    0    0    0  501 -0.00000000000E+00 -0.00000000000E+00 -0.48571902128E+02  0.48588502512E+02  0.12700000000E+01 0. -1.
         25    2    1    2    0    0  0.44349417776E+02  0.95164803374E+01  0.51596673871E+02  0.14263682328E+03  0.12500244936E+03 0.  0.
    9000005    1    3    3    0    0 -0.25000179148E+02  0.12568324528E+02  0.66036411541E+02  0.71727117522E+02  0.10000000000E+01 0.  0.
    9000005    1    3    3    0    0  0.69349596924E+02 -0.30518441911E+01 -0.14439737669E+02  0.70909705756E+02  0.10000000000E+01 0.  0.
         -4    1    1    2    0  502 -0.44349417776E+02 -0.95164803374E+01  0.16515566380E+03  0.17127591903E+03  0.12700000000E+01 0.  1.
<mgrwt>
<rscale>  1 0.13297762E+03</rscale>
<asrwt>0</asrwt>
<pdfrwt beam="1">  1       21 0.40819113E-01 0.13297762E+03</pdfrwt>
<pdfrwt beam="2">  1       -4 0.74741112E-02 0.13297762E+03</pdfrwt>
<totfact> 0.29134192E+04</totfact>
</mgrwt>
</event>
<event>
 6    4  0.6326233E-003  0.1270023E+03  0.7818608E-02  0.1231973E+00
          4   -1    0    0  502    0 -0.00000000000E+00  0.00000000000E+00  0.18210176866E+02  0.18254408824E+02  0.12700000000E+01 0.  1.
         21   -1    0    0  501  502  0.00000000000E+00 -0.00000000000E+00 -0.63151074833E+03  0.63151074833E+03  0.00000000000E+00 0. -1.
         25    2    1    2    0    0 -0.15894934346E+02  0.15857616256E+02 -0.20708452607E+03  0.24292710416E+03  0.12500185625E+03 0.  0.
    9000005    1    3    3    0    0  0.88255046780E+01  0.68327689459E+02 -0.11695332856E+03  0.13574109083E+03  0.10000000000E+01 0.  0.
    9000005    1    3    3    0    0 -0.24720439024E+02 -0.52470073203E+02 -0.90131197514E+02  0.10718601333E+03  0.10000000000E+01 0.  0.
          4    1    1    2  501    0  0.15894934346E+02 -0.15857616256E+02 -0.40621604539E+03  0.40683805299E+03  0.12700000000E+01 0. -1.
<mgrwt>
<rscale>  1 0.12700227E+03</rscale>
<asrwt>0</asrwt>
<pdfrwt beam="2">  1       21 0.97155476E-01 0.12700227E+03</pdfrwt>
<pdfrwt beam="1">  1        4 0.28050670E-02 0.12700227E+03</pdfrwt>
<totfact> 0.21599055E+04</totfact>
</mgrwt>
</event>
<event>
 6    4  0.6326233E-003  0.1273089E+03  0.7818608E-02  0.1231504E+00
         21   -1    0    0  501  502  0.00000000000E+00  0.00000000000E+00  0.36400389492E+02  0.36400389492E+02  0.00000000000E+00 0. -1.
         -4   -1    0    0    0  501 -0.00000000000E+00 -0.00000000000E+00 -0.39167977649E+03  0.39168183544E+03  0.12700000000E+01 0.  1.
         25    2    1    2    0    0  0.13186768730E+02 -0.20213681797E+02 -0.37554806768E+03  0.39653993399E+03  0.12500033723E+03 0.  0.
    9000005    1    3    3    0    0 -0.56161585550E+02 -0.10665383112E+02 -0.17760462571E+03  0.18658048441E+03  0.10000000000E+01 0.  0.
    9000005    1    3    3    0    0  0.69348354280E+02 -0.95482986847E+01 -0.19794344197E+03  0.20995944958E+03  0.10000000000E+01 0.  0.
         -4    1    1    2    0  502 -0.13186768730E+02  0.20213681797E+02  0.20268680680E+02  0.31542290941E+02  0.12700000000E+01 0. -1.
<mgrwt>
<rscale>  1 0.12730895E+03</rscale>
<asrwt>0</asrwt>
<pdfrwt beam="1">  1       21 0.56000598E-02 0.12730895E+03</pdfrwt>
<pdfrwt beam="2">  1       -4 0.60260291E-01 0.12730895E+03</pdfrwt>
<totfact> 0.23525371E+04</totfact>
</mgrwt>
</event>
<event>
 6    4  0.6326233E-003  0.1282948E+03  0.7818608E-02  0.1230008E+00
         21   -1    0    0  501  502  0.00000000000E+00  0.00000000000E+00  0.44564118666E+02  0.44564118666E+02  0.00000000000E+00 0.  1.
          4   -1    0    0  502    0 -0.00000000000E+00 -0.00000000000E+00 -0.21996604305E+03  0.21996970927E+03  0.12700000000E+01 0.  1.
         25    2    1    2    0    0 -0.13725702720E+01  0.28875086101E+02 -0.53089684142E+02  0.13884551678E+03  0.12499563361E+03 0.  0.
    9000005    1    3    3    0    0  0.39016165526E+02 -0.31689097363E+01  0.24126945671E+02  0.45993615520E+02  0.10000000000E+01 0.  0.
    9000005    1    3    3    0    0 -0.40388735798E+02  0.32043995838E+02 -0.77216629812E+02  0.92851901263E+02  0.10000000000E+01 0.  0.
          4    1    1    2  501    0  0.13725702720E+01 -0.28875086101E+02 -0.12231224024E+03  0.12568831115E+03  0.12700000000E+01 0. -1.
<mgrwt>
<rscale>  1 0.12829483E+03</rscale>
<asrwt>0</asrwt>
<pdfrwt beam="1">  1       21 0.68560183E-02 0.12829483E+03</pdfrwt>
<pdfrwt beam="2">  1        4 0.33842603E-01 0.12829483E+03</pdfrwt>
<totfact> 0.53070693E+04</totfact>
</mgrwt>
</event>
<event>
 6    4  0.6326233E-003  0.1350934E+03  0.7818608E-02  0.1220088E+00
         21   -1    0    0  501  502  0.00000000000E+00  0.00000000000E+00  0.52024617529E+03  0.52024617529E+03  0.00000000000E+00 0.  1.
          4   -1    0    0  502    0 -0.00000000000E+00 -0.00000000000E+00 -0.50399891585E+02  0.50415890073E+02  0.12700000000E+01 0. -1.
         25    2    1    2    0    0 -0.51228602074E+02  0.12161751051E+00  0.44491022048E+02  0.14223109545E+03  0.12500339599E+03 0.  0.
    9000005    1    3    3    0    0 -0.70756617497E+02  0.92469608671E+01 -0.20091141622E+02  0.74139457622E+02  0.10000000000E+01 0.  0.
    9000005    1    3    3    0    0  0.19528015423E+02 -0.91253433566E+01  0.64582163670E+02  0.68091637828E+02  0.10000000000E+01 0.  0.
          4    1    1    2  501    0  0.51228602074E+02 -0.12161751051E+00  0.42535526166E+03  0.42843096991E+03  0.12700000000E+01 0.  1.
<mgrwt>
<rscale>  1 0.13509342E+03</rscale>
<asrwt>0</asrwt>
<pdfrwt beam="1">  1       21 0.80037869E-01 0.13509342E+03</pdfrwt>
<pdfrwt beam="2">  1        4 0.77551797E-02 0.13509342E+03</pdfrwt>
<totfact> 0.66141357E+03</totfact>
</mgrwt>
</event>
<event>
 6    4  0.6326233E-003  0.1404507E+03  0.7818608E-02  0.1212724E+00
          4   -1    0    0  502    0 -0.00000000000E+00  0.00000000000E+00  0.37040118400E+02  0.37061884343E+02  0.12700000000E+01 0. -1.
         21   -1    0    0  501  502  0.00000000000E+00 -0.00000000000E+00 -0.49067440726E+03  0.49067440726E+03  0.00000000000E+00 0.  1.
         25    2    1    2    0    0 -0.59518367230E+01  0.63766059740E+02 -0.11059324920E+03  0.17876594541E+03  0.12499944693E+03 0.  0.
    9000005    1    3    3    0    0  0.47961003407E+02  0.68486862131E+02 -0.49611163035E+02  0.97226414261E+02  0.10000000000E+01 0.  0.
    9000005    1    3    3    0    0 -0.53912840130E+02 -0.47208023905E+01 -0.60982086167E+02  0.81539531145E+02  0.10000000000E+01 0.  0.
          4    1    1    2  501    0  0.59518367230E+01 -0.63766059740E+02 -0.34304103966E+03  0.34897034619E+03  0.12700000000E+01 0.  1.
<mgrwt>
<rscale>  1 0.14045069E+03</rscale>
<asrwt>0</asrwt>
<pdfrwt beam="2">  1       21 0.75488368E-01 0.14045069E+03</pdfrwt>
<pdfrwt beam="1">  1        4 0.57002807E-02 0.14045069E+03</pdfrwt>
<totfact> 0.12500533E+04</totfact>
</mgrwt>
</event>
<event>
 6    4  0.6326233E-003  0.1289495E+03  0.7818608E-02  0.1229023E+00
         -4   -1    0    0    0  501 -0.00000000000E+00  0.00000000000E+00  0.96119071031E+02  0.96127460779E+02  0.12700000000E+01 0.  1.
         21   -1    0    0  501  502  0.00000000000E+00 -0.00000000000E+00 -0.10216950513E+03  0.10216950513E+03  0.00000000000E+00 0.  1.
         25    2    1    2    0    0 -0.29223893131E+02  0.12176209795E+02  0.46379675002E+02  0.13703665857E+03  0.12500270207E+03 0.  0.
    9000005    1    3    3    0    0 -0.18726736203E+02 -0.42083811475E+02  0.64145092508E+02  0.78976773358E+02  0.10000000000E+01 0.  0.
    9000005    1    3    3    0    0 -0.10497156927E+02  0.54260021270E+02 -0.17765417506E+02  0.58059885213E+02  0.10000000000E+01 0.  0.
         -4    1    1    2    0  502  0.29223893131E+02 -0.12176209795E+02 -0.52430109099E+02  0.61260307335E+02  0.12700000000E+01 0. -1.
<mgrwt>
<rscale>  1 0.12894949E+03</rscale>
<asrwt>0</asrwt>
<pdfrwt beam="2">  1       21 0.15718385E-01 0.12894949E+03</pdfrwt>
<pdfrwt beam="1">  1       -4 0.14788802E-01 0.12894949E+03</pdfrwt>
<totfact> 0.55997645E+04</totfact>
</mgrwt>
</event>
<event>
 6    4  0.6326233E-003  0.1303869E+03  0.7818608E-02  0.1226883E+00
         -4   -1    0    0    0  501 -0.00000000000E+00  0.00000000000E+00  0.32035676445E+02  0.32060840059E+02  0.12700000000E+01 0. -1.
         21   -1    0    0  501  502  0.00000000000E+00 -0.00000000000E+00 -0.21980505543E+03  0.21980505543E+03  0.00000000000E+00 0. -1.
         25    2    1    2    0    0 -0.22358951968E+02 -0.29587359046E+02 -0.15290633211E+03  0.20095048048E+03  0.12500165862E+03 0.  0.
    9000005    1    3    3    0    0 -0.17259662408E+02 -0.46281881029E+02 -0.16967677304E+03  0.17672327455E+03  0.10000000000E+01 0.  0.
    9000005    1    3    3    0    0 -0.50992895599E+01  0.16694521983E+02  0.16770440928E+02  0.24227205931E+02  0.10000000000E+01 0.  0.
         -4    1    1    2    0  502  0.22358951968E+02  0.29587359046E+02 -0.34863046874E+02  0.50915415011E+02  0.12700000000E+01 0.  1.
<mgrwt>
<rscale>  1 0.13038692E+03</rscale>
<asrwt>0</asrwt>
<pdfrwt beam="2">  1       21 0.33816162E-01 0.13038692E+03</pdfrwt>
<pdfrwt beam="1">  1       -4 0.49307835E-02 0.13038692E+03</pdfrwt>
<totfact> 0.82989206E+04</totfact>
</mgrwt>
</event>
<event>
 6    4  0.6326233E-003  0.1299622E+03  0.7818608E-02  0.1227512E+00
         -4   -1    0    0    0  501 -0.00000000000E+00  0.00000000000E+00  0.17589330562E+02  0.17635119779E+02  0.12700000000E+01 0.  1.
         21   -1    0    0  501  502  0.00000000000E+00 -0.00000000000E+00 -0.69693423420E+03  0.69693423420E+03  0.00000000000E+00 0. -1.
         25    2    1    2    0    0  0.12176426036E+01  0.35559966760E+02 -0.23289903004E+03  0.26670606586E+03  0.12499669389E+03 0.  0.
    9000005    1    3    3    0    0  0.20871169536E+02  0.27593246783E+02 -0.18264029135E+01  0.34660189460E+02  0.10000000000E+01 0.  0.
    9000005    1    3    3    0    0 -0.19653526932E+02  0.79667199775E+01 -0.23107262712E+03  0.23204587640E+03  0.10000000000E+01 0.  0.
         -4    1    1    2    0  502 -0.12176426036E+01 -0.35559966760E+02 -0.44644587360E+03  0.44786328812E+03  0.12700000000E+01 0. -1.
<mgrwt>
<rscale>  1 0.12996218E+03</rscale>
<asrwt>0</asrwt>
<pdfrwt beam="2">  1       21 0.10722064E+00 0.12996218E+03</pdfrwt>
<pdfrwt beam="1">  1       -4 0.27096623E-02 0.12996218E+03</pdfrwt>
<totfact> 0.18107566E+04</totfact>
</mgrwt>
</event>
<event>
 6    4  0.6326233E-003  0.1385273E+03  0.7818608E-02  0.1215324E+00
         21   -1    0    0  501  502  0.00000000000E+00  0.00000000000E+00  0.58188866468E+02  0.58188866468E+02  0.00000000000E+00 0.  1.
          4   -1    0    0  502    0 -0.00000000000E+00 -0.00000000000E+00 -0.16953604716E+03  0.16954080390E+03  0.12700000000E+01 0.  1.
         25    2    1    2    0    0 -0.50857352992E+02  0.31218966601E+02 -0.70797429899E+02  0.15557019824E+03  0.12501486420E+03 0.  0.
    9000005    1    3    3    0    0 -0.61233706121E+01  0.73922578992E+02 -0.53123207633E+02  0.91242087557E+02  0.10000000000E+01 0.  0.
    9000005    1    3    3    0    0 -0.44733982380E+02 -0.42703612391E+02 -0.17674222266E+02  0.64328110679E+02  0.10000000000E+01 0.  0.
          4    1    1    2  501    0  0.50857352992E+02 -0.31218966601E+02 -0.40549750796E+02  0.72159472134E+02  0.12700000000E+01 0. -1.
<mgrwt>
<rscale>  1 0.13852729E+03</rscale>
<asrwt>0</asrwt>
<pdfrwt beam="1">  1       21 0.89521333E-02 0.13852729E+03</pdfrwt>
<pdfrwt beam="2">  1        4 0.26083901E-01 0.13852729E+03</pdfrwt>
<totfact> 0.55309925E+04</totfact>
</mgrwt>
</event>
<event>
 6    4  0.6326233E-003  0.1289958E+03  0.7818608E-02  0.1228953E+00
         21   -1    0    0  501  502  0.00000000000E+00  0.00000000000E+00  0.12498637840E+03  0.12498637840E+03  0.00000000000E+00 0. -1.
          4   -1    0    0  502    0 -0.00000000000E+00 -0.00000000000E+00 -0.80951805428E+02  0.80961766916E+02  0.12700000000E+01 0.  1.
         25    2    1    2    0    0 -0.29447135463E+02 -0.12191496570E+02 -0.23630287282E+02  0.13114231273E+03  0.12499659730E+03 0.  0.
    9000005    1    3    3    0    0 -0.44695065514E+01  0.39158750400E+02 -0.53683898031E+02  0.66605894105E+02  0.10000000000E+01 0.  0.
    9000005    1    3    3    0    0 -0.24977628912E+02 -0.51350246970E+02  0.30053610749E+02  0.64536418625E+02  0.10000000000E+01 0.  0.
          4    1    1    2  501    0  0.29447135463E+02  0.12191496570E+02  0.67664860252E+02  0.74805832584E+02  0.12700000000E+01 0. -1.
<mgrwt>
<rscale>  1 0.12899580E+03</rscale>
<asrwt>0</asrwt>
<pdfrwt beam="1">  1       21 0.19228674E-01 0.12899580E+03</pdfrwt>
<pdfrwt beam="2">  1        4 0.12455386E-01 0.12899580E+03</pdfrwt>
<totfact> 0.52151685E+04</totfact>
</mgrwt>
</event>
<event>
 6    4  0.6326233E-003  0.1266010E+03  0.7818608E-02  0.1232588E+00
         21   -1    0    0  501  502  0.00000000000E+00  0.00000000000E+00  0.41192196678E+03  0.41192196678E+03  0.00000000000E+00 0.  1.
         -4   -1    0    0    0  501 -0.00000000000E+00 -0.00000000000E+00 -0.17762737974E+02  0.17808081321E+02  0.12700000000E+01 0.  1.
         25    2    1    2    0    0 -0.15699540393E+00  0.20034687786E+02  0.21542155730E+03  0.24986848612E+03  0.12500559846E+03 0.  0.
    9000005    1    3    3    0    0  0.60847248055E+02  0.23872115215E+02  0.10640639132E+03  0.12488228695E+03  0.10000000000E+01 0.  0.
    9000005    1    3    3    0    0 -0.61004243459E+02 -0.38374274287E+01  0.10901516598E+03  0.12498619917E+03  0.10000000000E+01 0.  0.
         -4    1    1    2    0  502  0.15699540393E+00 -0.20034687786E+02  0.17873767151E+03  0.17986156198E+03  0.12700000000E+01 0. -1.
<mgrwt>
<rscale>  1 0.12660100E+03</rscale>
<asrwt>0</asrwt>
<pdfrwt beam="1">  1       21 0.63372603E-01 0.12660100E+03</pdfrwt>
<pdfrwt beam="2">  1       -4 0.27363678E-02 0.12660100E+03</pdfrwt>
<totfact> 0.58129512E+04</totfact>
</mgrwt>
</event>
<event>
 6    4  0.6326233E-003  0.1309983E+03  0.7818608E-02  0.1225982E+00
         21   -1    0    0  501  502  0.00000000000E+00  0.00000000000E+00  0.19547079240E+03  0.19547079240E+03  0.00000000000E+00 0. -1.
          4   -1    0    0  502    0 -0.00000000000E+00 -0.00000000000E+00 -0.45533074783E+02  0.45550782641E+02  0.12700000000E+01 0. -1.
         25    2    1    2    0    0 -0.26676782056E+02  0.28701617322E+02  0.62390917536E+02  0.14509718480E+03  0.12500053164E+03 0.  0.
    9000005    1    3    3    0    0  0.91025608401E+01 -0.46697983931E+01 -0.34797264262E+02  0.36283787440E+02  0.10000000000E+01 0.  0.
    9000005    1    3    3    0    0 -0.35779342896E+02  0.33371415715E+02  0.97188181798E+02  0.10881339736E+03  0.10000000000E+01 0.  0.
          4    1    1    2  501    0  0.26676782056E+02 -0.28701617322E+02  0.87546800085E+02  0.95924390240E+02  0.12700000000E+01 0.  1.
<mgrwt>
<rscale>  1 0.13099835E+03</rscale>
<asrwt>0</asrwt>
<pdfrwt beam="1">  1       21 0.30072429E-01 0.13099835E+03</pdfrwt>
<pdfrwt beam="2">  1        4 0.70067681E-02 0.13099835E+03</pdfrwt>
<totfact> 0.58986817E+04</totfact>
</mgrwt>
</event>
<event>
 6    4  0.6326233E-003  0.1290538E+03  0.7818608E-02  0.1228867E+00
         21   -1    0    0  501  502  0.00000000000E+00  0.00000000000E+00  0.31737728467E+02  0.31737728467E+02  0.00000000000E+00 0.  1.
         -4   -1    0    0    0  501 -0.00000000000E+00 -0.00000000000E+00 -0.20467374476E+03  0.20467768489E+03  0.12700000000E+01 0.  1.
         25    2    1    2    0    0 -0.31649568500E+02 -0.54743571736E+01 -0.13885013964E+03  0.18956326656E+03  0.12499282771E+03 0.  0.
    9000005    1    3    3    0    0  0.46038240481E+02 -0.18775679475E+02 -0.45718091059E+02  0.67551384711E+02  0.10000000000E+01 0.  0.
    9000005    1    3    3    0    0 -0.77687808982E+02  0.13301322302E+02 -0.93132048584E+02  0.12201188185E+03  0.10000000000E+01 0.  0.
         -4    1    1    2    0  502  0.31649568500E+02  0.54743571736E+01 -0.34085876647E+02  0.46852146797E+02  0.12700000000E+01 0. -1.
<mgrwt>
<rscale>  1 0.12905375E+03</rscale>
<asrwt>0</asrwt>
<pdfrwt beam="1">  1       21 0.48827274E-02 0.12905375E+03</pdfrwt>
<pdfrwt beam="2">  1       -4 0.31490527E-01 0.12905375E+03</pdfrwt>
<totfact> 0.10825192E+05</totfact>
</mgrwt>
</event>
<event>
 6    4  0.6326233E-003  0.1267467E+03  0.7818608E-02  0.1232364E+00
         -4   -1    0    0    0  501 -0.00000000000E+00  0.00000000000E+00  0.13647134379E+03  0.13647725296E+03  0.12700000000E+01 0.  1.
         21   -1    0    0  501  502  0.00000000000E+00 -0.00000000000E+00 -0.56468836770E+02  0.56468836770E+02  0.00000000000E+00 0.  1.
         25    2    1    2    0    0  0.75652029179E+01 -0.19546706990E+02  0.10188383610E+03  0.16261934391E+03  0.12500171562E+03 0.  0.
    9000005    1    3    3    0    0  0.17075184973E+02 -0.33970028886E+02  0.12674489371E+03  0.13232835254E+03  0.10000000000E+01 0.  0.
    9000005    1    3    3    0    0 -0.95099820555E+01  0.14423321896E+02 -0.24861057607E+02  0.30290991376E+02  0.10000000000E+01 0.  0.
         -4    1    1    2    0  502 -0.75652029179E+01  0.19546706990E+02 -0.21881329083E+02  0.30326745816E+02  0.12700000000E+01 0. -1.
<mgrwt>
<rscale>  1 0.12674674E+03</rscale>
<asrwt>0</asrwt>
<pdfrwt beam="2">  1       21 0.86875134E-02 0.12674674E+03</pdfrwt>
<pdfrwt beam="1">  1       -4 0.20997144E-01 0.12674674E+03</pdfrwt>
<totfact> 0.85672516E+04</totfact>
</mgrwt>
</event>
<event>
 6    4  0.6326233E-003  0.1273254E+03  0.7818608E-02  0.1231479E+00
         21   -1    0    0  501  502  0.00000000000E+00  0.00000000000E+00  0.29557535815E+02  0.29557535815E+02  0.00000000000E+00 0. -1.
          4   -1    0    0  502    0 -0.00000000000E+00 -0.00000000000E+00 -0.29760803852E+03  0.29761074828E+03  0.12700000000E+01 0.  1.
         25    2    1    2    0    0  0.23909229436E+02  0.38673432494E+01 -0.27405001379E+03  0.30218399645E+03  0.12500060021E+03 0.  0.
    9000005    1    3    3    0    0 -0.34091017114E+02 -0.31318859146E+02 -0.50272564827E+02  0.68347634636E+02  0.10000000000E+01 0.  0.
    9000005    1    3    3    0    0  0.58000246550E+02  0.35186202396E+02 -0.22377744897E+03  0.23383636181E+03  0.10000000000E+01 0.  0.
          4    1    1    2  501    0 -0.23909229436E+02 -0.38673432494E+01  0.59995110876E+01  0.24984287648E+02  0.12700000000E+01 0. -1.
<mgrwt>
<rscale>  1 0.12732540E+03</rscale>
<asrwt>0</asrwt>
<pdfrwt beam="1">  1       21 0.45473131E-02 0.12732540E+03</pdfrwt>
<pdfrwt beam="2">  1        4 0.45788160E-01 0.12732540E+03</pdfrwt>
<totfact> 0.58630723E+04</totfact>
</mgrwt>
</event>
<event>
 6    4  0.6326233E-003  0.1278121E+03  0.7818608E-02  0.1230739E+00
         21   -1    0    0  501  502  0.00000000000E+00  0.00000000000E+00  0.32431313225E+03  0.32431313225E+03  0.00000000000E+00 0.  1.
         -4   -1    0    0    0  501 -0.00000000000E+00 -0.00000000000E+00 -0.22581250555E+02  0.22616935615E+02  0.12700000000E+01 0. -1.
         25    2    1    2    0    0  0.26404810546E+02  0.39602551889E+01  0.17096718240E+03  0.21346128079E+03  0.12499217295E+03 0.  0.
    9000005    1    3    3    0    0 -0.43257519752E+02 -0.27313932226E+02  0.61792036925E+02  0.80227923668E+02  0.10000000000E+01 0.  0.
    9000005    1    3    3    0    0  0.69662330298E+02  0.31274187415E+02  0.10917514547E+03  0.13323335712E+03  0.10000000000E+01 0.  0.
         -4    1    1    2    0  502 -0.26404810546E+02 -0.39602551889E+01  0.13076469930E+03  0.13346878708E+03  0.12700000000E+01 0.  1.
<mgrwt>
<rscale>  1 0.12781213E+03</rscale>
<asrwt>0</asrwt>
<pdfrwt beam="1">  1       21 0.49894325E-01 0.12781213E+03</pdfrwt>
<pdfrwt beam="2">  1       -4 0.34769751E-02 0.12781213E+03</pdfrwt>
<totfact> 0.66080986E+04</totfact>
</mgrwt>
</event>
<event>
 6    4  0.6326233E-003  0.1268025E+03  0.7818608E-02  0.1232279E+00
          4   -1    0    0  502    0 -0.00000000000E+00  0.00000000000E+00  0.11234336382E+03  0.11235054203E+03  0.12700000000E+01 0.  1.
         21   -1    0    0  501  502  0.00000000000E+00 -0.00000000000E+00 -0.60126944339E+02  0.60126944339E+02  0.00000000000E+00 0.  1.
         25    2    1    2    0    0 -0.20419019089E+01 -0.21217045963E+02  0.69864548898E+02  0.14477546885E+03  0.12499819513E+03 0.  0.
    9000005    1    3    3    0    0  0.20661974470E+02 -0.25276549949E+01 -0.32310392849E+02  0.38448247227E+02  0.10000000000E+01 0.  0.
    9000005    1    3    3    0    0 -0.22703876379E+02 -0.18689390968E+02  0.10217494175E+03  0.10632722162E+03  0.10000000000E+01 0.  0.
          4    1    1    2  501    0  0.20419019089E+01  0.21217045963E+02 -0.17648129416E+02  0.27702017520E+02  0.12700000000E+01 0. -1.
<mgrwt>
<rscale>  1 0.12680253E+03</rscale>
<asrwt>0</asrwt>
<pdfrwt beam="2">  1       21 0.92502992E-02 0.12680253E+03</pdfrwt>
<pdfrwt beam="1">  1        4 0.17285178E-01 0.12680253E+03</pdfrwt>
<totfact> 0.10877141E+05</totfact>
</mgrwt>
</event>
<event>
 6    4  0.6326233E-003  0.1280448E+03  0.7818608E-02  0.1230386E+00
         21   -1    0    0  501  502  0.00000000000E+00  0.00000000000E+00  0.97925897672E+02  0.97925897672E+02  0.00000000000E+00 0.  1.
          4   -1    0    0  502    0 -0.00000000000E+00 -0.00000000000E+00 -0.61997299893E+02  0.62010306354E+02  0.12700000000E+01 0.  1.
         25    2    1    2    0    0  0.23499390674E+02  0.14804547464E+02  0.29349396283E+02  0.13136533110E+03  0.12499626860E+03 0.  0.
    9000005    1    3    3    0    0  0.53896825709E+02 -0.26084663196E+02  0.48360969812E+02  0.76974417027E+02  0.10000000000E+01 0.  0.
    9000005    1    3    3    0    0 -0.30397435035E+02  0.40889210660E+02 -0.19011573529E+02  0.54390914068E+02  0.10000000000E+01 0.  0.
          4    1    1    2  501    0 -0.23499390674E+02 -0.14804547464E+02  0.65792014955E+01  0.28570872930E+02  0.12700000000E+01 0. -1.
<mgrwt>
<rscale>  1 0.12804477E+03</rscale>
<asrwt>0</asrwt>
<pdfrwt beam="1">  1       21 0.15065523E-01 0.12804477E+03</pdfrwt>
<pdfrwt beam="2">  1        4 0.95396800E-02 0.12804477E+03</pdfrwt>
<totfact> 0.12770026E+05</totfact>
</mgrwt>
</event>
<event>
 6    4  0.6326233E-003  0.1268989E+03  0.7818608E-02  0.1232131E+00
         21   -1    0    0  501  502  0.00000000000E+00  0.00000000000E+00  0.24146059304E+04  0.24146059304E+04  0.00000000000E+00 0.  1.
         -4   -1    0    0    0  501 -0.00000000000E+00 -0.00000000000E+00 -0.21388742000E+01  0.24875053454E+01  0.12700000000E+01 0.  1.
         25    2    1    2    0    0  0.16993216689E+02  0.13868667211E+02  0.19720250719E+04  0.19761037944E+04  0.12498885022E+03 0.  0.
    9000005    1    3    3    0    0  0.67929041608E+01 -0.48634121242E+02  0.43315124630E+03  0.43592708503E+03  0.10000000000E+01 0.  0.
    9000005    1    3    3    0    0  0.10200312528E+02  0.62502788453E+02  0.15388738256E+04  0.15401767094E+04  0.10000000000E+01 0.  0.
         -4    1    1    2    0  502 -0.16993216689E+02 -0.13868667211E+02  0.44044198428E+03  0.44098964133E+03  0.12700000000E+01 0. -1.
<mgrwt>
<rscale>  1 0.12689887E+03</rscale>
<asrwt>0</asrwt>
<pdfrwt beam="1">  1       21 0.37147582E+00 0.12689887E+03</pdfrwt>
<pdfrwt beam="2">  1       -4 0.35590297E-03 0.12689887E+03</pdfrwt>
<totfact> 0.78323333E+03</totfact>
</mgrwt>
</event>
<event>
 6    4  0.6326233E-003  0.1334469E+03  0.7818608E-02  0.1222429E+00
         21   -1    0    0  501  502  0.00000000000E+00  0.00000000000E+00  0.59829705516E+02  0.59829705516E+02  0.00000000000E+00 0.  1.
          4   -1    0    0  502    0 -0.00000000000E+00 -0.00000000000E+00 -0.13625924578E+03  0.13626516414E+03  0.12700000000E+01 0.  1.
         25    2    1    2    0    0 -0.45555438551E+02  0.10391684859E+02 -0.50819781674E+02  0.14279611048E+03  0.12499917545E+03 0.  0.
    9000005    1    3    3    0    0  0.62958612394E+01  0.16450969157E+02  0.36793117399E+02  0.40804481897E+02  0.10000000000E+01 0.  0.
    9000005    1    3    3    0    0 -0.51851299791E+02 -0.60592842981E+01 -0.87612899073E+02  0.10199162858E+03  0.10000000000E+01 0.  0.
          4    1    1    2  501    0  0.45555438551E+02 -0.10391684859E+02 -0.25609758585E+02  0.53298759185E+02  0.12700000000E+01 0. -1.
<mgrwt>
<rscale>  1 0.13344691E+03</rscale>
<asrwt>0</asrwt>
<pdfrwt beam="1">  1       21 0.92045701E-02 0.13344691E+03</pdfrwt>
<pdfrwt beam="2">  1        4 0.20964453E-01 0.13344691E+03</pdfrwt>
<totfact> 0.78262832E+04</totfact>
</mgrwt>
</event>
<event>
 6    4  0.6326233E-003  0.1271634E+03  0.7818608E-02  0.1231726E+00
         -4   -1    0    0    0  501 -0.00000000000E+00  0.00000000000E+00  0.19284422778E+02  0.19326196260E+02  0.12700000000E+01 0.  1.
         21   -1    0    0  501  502  0.00000000000E+00 -0.00000000000E+00 -0.30458194099E+03  0.30458194099E+03  0.00000000000E+00 0.  1.
         25    2    1    2    0    0 -0.22676602877E+02 -0.59002991135E+01 -0.21492656034E+03  0.24972777287E+03  0.12498596863E+03 0.  0.
    9000005    1    3    3    0    0 -0.28495914743E+02 -0.11819716840E+02 -0.23022972213E+03  0.23228957750E+03  0.10000000000E+01 0.  0.
    9000005    1    3    3    0    0  0.58193118654E+01  0.59194177266E+01  0.15303161793E+02  0.17438195368E+02  0.10000000000E+01 0.  0.
         -4    1    1    2    0  502  0.22676602877E+02  0.59002991135E+01 -0.70370957876E+02  0.74180364383E+02  0.12700000000E+01 0. -1.
<mgrwt>
<rscale>  1 0.12716342E+03</rscale>
<asrwt>0</asrwt>
<pdfrwt beam="2">  1       21 0.46858758E-01 0.12716342E+03</pdfrwt>
<pdfrwt beam="1">  1       -4 0.29702514E-02 0.12716342E+03</pdfrwt>
<totfact> 0.96187565E+04</totfact>
</mgrwt>
</event>
<event>
 6    4  0.6326233E-003  0.1273831E+03  0.7818608E-02  0.1231391E+00
         21   -1    0    0  501  502  0.00000000000E+00  0.00000000000E+00  0.37498129689E+03  0.37498129689E+03  0.00000000000E+00 0. -1.
          4   -1    0    0  502    0 -0.00000000000E+00 -0.00000000000E+00 -0.29005738748E+02  0.29033528554E+02  0.12700000000E+01 0.  1.
         25    2    1    2    0    0 -0.14930771715E+02 -0.19454630091E+02  0.11462059880E+03  0.17136027318E+03  0.12500020392E+03 0.  0.
    9000005    1    3    3    0    0  0.52044815710E+00 -0.38704415688E+02  0.13430340275E+03  0.13977376954E+03  0.10000000000E+01 0.  0.
    9000005    1    3    3    0    0 -0.15451219872E+02  0.19249785597E+02 -0.19682803952E+02  0.31586503645E+02  0.10000000000E+01 0.  0.
          4    1    1    2  501    0  0.14930771715E+02  0.19454630091E+02  0.23135495935E+03  0.23265455227E+03  0.12700000000E+01 0. -1.
<mgrwt>
<rscale>  1 0.12738313E+03</rscale>
<asrwt>0</asrwt>
<pdfrwt beam="1">  1       21 0.57689427E-01 0.12738313E+03</pdfrwt>
<pdfrwt beam="2">  1        4 0.44647247E-02 0.12738313E+03</pdfrwt>
<totfact> 0.32836640E+04</totfact>
</mgrwt>
</event>
<event>
 6    4  0.6326233E-003  0.1271389E+03  0.7818608E-02  0.1231764E+00
          4   -1    0    0  502    0 -0.00000000000E+00  0.00000000000E+00  0.80989118493E+02  0.80999075392E+02  0.12700000000E+01 0. -1.
         21   -1    0    0  501  502  0.00000000000E+00 -0.00000000000E+00 -0.80578143516E+02  0.80578143516E+02  0.00000000000E+00 0. -1.
         25    2    1    2    0    0 -0.22453999032E+02  0.59216688865E+01  0.22946915236E+02  0.12919312191E+03  0.12500021438E+03 0.  0.
    9000005    1    3    3    0    0  0.38487380402E+02 -0.35056532485E+02  0.19717653115E+02  0.55677866020E+02  0.10000000000E+01 0.  0.
    9000005    1    3    3    0    0 -0.60941379434E+02  0.40978201372E+02  0.32292621208E+01  0.73515255892E+02  0.10000000000E+01 0.  0.
          4    1    1    2  501    0  0.22453999032E+02 -0.59216688865E+01 -0.22535940259E+02  0.32384096996E+02  0.12700000000E+01 0.  1.
<mgrwt>
<rscale>  1 0.12713891E+03</rscale>
<asrwt>0</asrwt>
<pdfrwt beam="2">  1       21 0.12396638E-01 0.12713891E+03</pdfrwt>
<pdfrwt beam="1">  1        4 0.12461400E-01 0.12713891E+03</pdfrwt>
<totfact> 0.11497395E+05</totfact>
</mgrwt>
</event>
<event>
 6    4  0.6326233E-003  0.1272555E+03  0.7818608E-02  0.1231586E+00
         21   -1    0    0  501  502  0.00000000000E+00  0.00000000000E+00  0.71554402645E+01  0.71554402645E+01  0.00000000000E+00 0.  1.
          4   -1    0    0  502    0 -0.00000000000E+00 -0.00000000000E+00 -0.12719655239E+04  0.12719661579E+04  0.12700000000E+01 0.  1.
         25    2    1    2    0    0  0.61394094231E+01 -0.23052855142E+02 -0.12318956134E+04  0.12384509487E+04  0.12499929414E+03 0.  0.
    9000005    1    3    3    0    0  0.46340728836E+02 -0.36161571226E+02 -0.10523422122E+04  0.10539830425E+04  0.10000000000E+01 0.  0.
    9000005    1    3    3    0    0 -0.40201319413E+02  0.13108716084E+02 -0.17955340122E+03  0.18446790618E+03  0.10000000000E+01 0.  0.
          4    1    1    2  501    0 -0.61394094231E+01  0.23052855142E+02 -0.32914470205E+02  0.40670649456E+02  0.12700000000E+01 0. -1.
<mgrwt>
<rscale>  1 0.12725545E+03</rscale>
<asrwt>0</asrwt>
<pdfrwt beam="1">  1       21 0.11008364E-02 0.12725545E+03</pdfrwt>
<pdfrwt beam="2">  1        4 0.19569582E+00 0.12725545E+03</pdfrwt>
<totfact> 0.20211644E+04</totfact>
</mgrwt>
</event>
<event>
 6    4  0.6326233E-003  0.1280668E+03  0.7818608E-02  0.1230353E+00
         21   -1    0    0  501  502  0.00000000000E+00  0.00000000000E+00  0.81398039929E+02  0.81398039929E+02  0.00000000000E+00 0. -1.
          4   -1    0    0  502    0 -0.00000000000E+00 -0.00000000000E+00 -0.13010940892E+03  0.13011560702E+03  0.12700000000E+01 0.  1.
         25    2    1    2    0    0  0.15305787376E+02  0.23210685994E+02 -0.93649545277E+02  0.15865481931E+03  0.12501244453E+03 0.  0.
    9000005    1    3    3    0    0 -0.53807083288E+02 -0.57229984521E+00 -0.29353009526E+02  0.61303579890E+02  0.10000000000E+01 0.  0.
    9000005    1    3    3    0    0  0.69112870665E+02  0.23782985839E+02 -0.64296535751E+02  0.97351239420E+02  0.10000000000E+01 0.  0.
          4    1    1    2  501    0 -0.15305787376E+02 -0.23210685994E+02  0.44938176285E+02  0.52858827638E+02  0.12700000000E+01 0. -1.
<mgrwt>
<rscale>  1 0.12806684E+03</rscale>
<asrwt>0</asrwt>
<pdfrwt beam="1">  1       21 0.12522775E-01 0.12806684E+03</pdfrwt>
<pdfrwt beam="2">  1        4 0.20018071E-01 0.12806684E+03</pdfrwt>
<totfact> 0.49233355E+04</totfact>
</mgrwt>
</event>
<event>
 6    4  0.6326233E-003  0.1336409E+03  0.7818608E-02  0.1222151E+00
         -4   -1    0    0    0  501 -0.00000000000E+00  0.00000000000E+00  0.37838924837E+02  0.37860231547E+02  0.12700000000E+01 0.  1.
         21   -1    0    0  501  502  0.00000000000E+00 -0.00000000000E+00 -0.60087230458E+03  0.60087230458E+03  0.00000000000E+00 0.  1.
         25    2    1    2    0    0  0.43653480123E+02  0.18188338558E+02 -0.85039539258E+02  0.15840330901E+03  0.12499377217E+03 0.  0.
    9000005    1    3    3    0    0  0.85712146919E+02 -0.26124297367E+01 -0.63810808291E+02  0.10689348050E+03  0.10000000000E+01 0.  0.
    9000005    1    3    3    0    0 -0.42058666795E+02  0.20800768295E+02 -0.21228730968E+02  0.51509828506E+02  0.10000000000E+01 0.  0.
         -4    1    1    2    0  502 -0.43653480123E+02 -0.18188338558E+02 -0.47799384048E+03  0.48032922712E+03  0.12700000000E+01 0. -1.
<mgrwt>
<rscale>  1 0.13364088E+03</rscale>
<asrwt>0</asrwt>
<pdfrwt beam="2">  1       21 0.92441887E-01 0.13364088E+03</pdfrwt>
<pdfrwt beam="1">  1       -4 0.58231156E-02 0.13364088E+03</pdfrwt>
<totfact> 0.76195078E+03</totfact>
</mgrwt>
</event>
<event>
 6    4  0.6326233E-003  0.1303429E+03  0.7818608E-02  0.1226948E+00
         21   -1    0    0  501  502  0.00000000000E+00  0.00000000000E+00  0.17406954906E+03  0.17406954906E+03  0.00000000000E+00 0.  1.
         -4   -1    0    0    0  501 -0.00000000000E+00 -0.00000000000E+00 -0.48527965006E+02  0.48544580415E+02  0.12700000000E+01 0. -1.
         25    2    1    2    0    0  0.35361627323E+02  0.10669732377E+02  0.52046978528E+02  0.14035017736E+03  0.12499998574E+03 0.  0.
    9000005    1    3    3    0    0 -0.18929629536E+01 -0.54465353308E+02  0.29577682680E+02  0.62015299180E+02  0.10000000000E+01 0.  0.
    9000005    1    3    3    0    0  0.37254590276E+02  0.65135085685E+02  0.22469295848E+02  0.78334878182E+02  0.10000000000E+01 0.  0.
         -4    1    1    2    0  502 -0.35361627323E+02 -0.10669732377E+02  0.73494605529E+02  0.82263952116E+02  0.12700000000E+01 0.  1.
<mgrwt>
<rscale>  1 0.13034295E+03</rscale>
<asrwt>0</asrwt>
<pdfrwt beam="1">  1       21 0.26779930E-01 0.13034295E+03</pdfrwt>
<pdfrwt beam="2">  1       -4 0.74674754E-02 0.13034295E+03</pdfrwt>
<totfact> 0.66311076E+04</totfact>
</mgrwt>
</event>
<event>
 6    4  0.6326233E-003  0.1265950E+03  0.7818608E-02  0.1232597E+00
         -4   -1    0    0    0  501 -0.00000000000E+00  0.00000000000E+00  0.43212281785E+03  0.43212468409E+03  0.12700000000E+01 0.  1.
         21   -1    0    0  501  502  0.00000000000E+00 -0.00000000000E+00 -0.18425532563E+02  0.18425532563E+02  0.00000000000E+00 0. -1.
         25    2    1    2    0    0  0.15520065401E+02 -0.12682224774E+02  0.41127968448E+03  0.43032229168E+03  0.12499833838E+03 0.  0.
    9000005    1    3    3    0    0 -0.42277422262E+02 -0.21400431669E+02  0.73055577401E+02  0.87083157373E+02  0.10000000000E+01 0.  0.
    9000005    1    3    3    0    0  0.57797487663E+02  0.87182068945E+01  0.33822410708E+03  0.34323913431E+03  0.10000000000E+01 0.  0.
         -4    1    1    2    0  502 -0.15520065401E+02  0.12682224774E+02  0.24176008074E+01  0.20227924978E+02  0.12700000000E+01 0. -1.
<mgrwt>
<rscale>  1 0.12659501E+03</rscale>
<asrwt>0</asrwt>
<pdfrwt beam="2">  1       21 0.28346976E-02 0.12659501E+03</pdfrwt>
<pdfrwt beam="1">  1       -4 0.66483936E-01 0.12659501E+03</pdfrwt>
<totfact> 0.59155116E+04</totfact>
</mgrwt>
</event>
<event>
 6    4  0.6326233E-003  0.1286836E+03  0.7818608E-02  0.1229422E+00
         21   -1    0    0  501  502  0.00000000000E+00  0.00000000000E+00  0.14907094293E+04  0.14907094293E+04  0.00000000000E+00 0.  1.
          4   -1    0    0  502    0 -0.00000000000E+00 -0.00000000000E+00 -0.11635341564E+02  0.11704446733E+02  0.12700000000E+01 0. -1.
         25    2    1    2    0    0  0.16494052884E+02  0.25739769038E+02  0.34969752305E+03  0.37262290985E+03  0.12499954333E+03 0.  0.
    9000005    1    3    3    0    0  0.19293616498E+02  0.29481230515E+02  0.35976042008E+03  0.36148298224E+03  0.10000000000E+01 0.  0.
    9000005    1    3    3    0    0 -0.27995636142E+01 -0.37414614768E+01 -0.10062897038E+02  0.11139927613E+02  0.10000000000E+01 0.  0.
          4    1    1    2  501    0 -0.16494052884E+02 -0.25739769038E+02  0.11293765647E+04  0.11297909661E+04  0.12700000000E+01 0.  1.
<mgrwt>
<rscale>  1 0.12868362E+03</rscale>
<asrwt>0</asrwt>
<pdfrwt beam="1">  1       21 0.22933976E+00 0.12868362E+03</pdfrwt>
<pdfrwt beam="2">  1        4 0.17954111E-02 0.12868362E+03</pdfrwt>
<totfact> 0.45016726E+03</totfact>
</mgrwt>
</event>
<event>
 6    4  0.6326233E-003  0.1290338E+03  0.7818608E-02  0.1228896E+00
         -4   -1    0    0    0  501 -0.00000000000E+00  0.00000000000E+00  0.16460962528E+04  0.16460967427E+04  0.12700000000E+01 0.  1.
         21   -1    0    0  501  502  0.00000000000E+00 -0.00000000000E+00 -0.40900291553E+01  0.40900291553E+01  0.00000000000E+00 0.  1.
         25    2    1    2    0    0  0.24745985417E+02 -0.20318905042E+02  0.14245951804E+04  0.14304269113E+04  0.12499799534E+03 0.  0.
    9000005    1    3    3    0    0  0.29268426599E+02 -0.26063695819E+02  0.14220953297E+04  0.14226356117E+04  0.10000000000E+01 0.  0.
    9000005    1    3    3    0    0 -0.45224411818E+01  0.57447907770E+01  0.24998507085E+01  0.77912995629E+01  0.10000000000E+01 0.  0.
         -4    1    1    2    0  502 -0.24745985417E+02  0.20318905042E+02  0.21741104322E+03  0.21975986055E+03  0.12700000000E+01 0. -1.
<mgrwt>
<rscale>  1 0.12903380E+03</rscale>
<asrwt>0</asrwt>
<pdfrwt beam="2">  1       21 0.62923657E-03 0.12903380E+03</pdfrwt>
<pdfrwt beam="1">  1       -4 0.25326025E+00 0.12903380E+03</pdfrwt>
<totfact> 0.22122230E+04</totfact>
</mgrwt>
</event>
<event>
 6    4  0.6326233E-003  0.1276067E+03  0.7818608E-02  0.1231051E+00
         21   -1    0    0  501  502  0.00000000000E+00  0.00000000000E+00  0.23364225770E+03  0.23364225770E+03  0.00000000000E+00 0. -1.
         -4   -1    0    0    0  501 -0.00000000000E+00 -0.00000000000E+00 -0.30810967280E+02  0.30837130293E+02  0.12700000000E+01 0. -1.
         25    2    1    2    0    0  0.24260933196E+02 -0.82814203939E+01  0.11099978671E+03  0.16912839022E+03  0.12500513959E+03 0.  0.
    9000005    1    3    3    0    0  0.64471730904E+02  0.19381616198E+01  0.11011324655E+03  0.12761774023E+03  0.10000000000E+01 0.  0.
    9000005    1    3    3    0    0 -0.40210797708E+02 -0.10219582014E+02  0.88654016320E+00  0.41510649987E+02  0.10000000000E+01 0.  0.
         -4    1    1    2    0  502 -0.24260933196E+02  0.82814203939E+01  0.91831503716E+02  0.95350997782E+02  0.12700000000E+01 0.  1.
<mgrwt>
<rscale>  1 0.12760666E+03</rscale>
<asrwt>0</asrwt>
<pdfrwt beam="1">  1       21 0.35944962E-01 0.12760666E+03</pdfrwt>
<pdfrwt beam="2">  1       -4 0.47424270E-02 0.12760666E+03</pdfrwt>
<totfact> 0.78144637E+04</totfact>
</mgrwt>
</event>
<event>
 6    4  0.6326233E-003  0.1273582E+03  0.7818608E-02  0.1231429E+00
         21   -1    0    0  501  502  0.00000000000E+00  0.00000000000E+00  0.31516569100E+03  0.31516569100E+03  0.00000000000E+00 0. -1.
          4   -1    0    0  502    0 -0.00000000000E+00 -0.00000000000E+00 -0.18722326554E+02  0.18765351358E+02  0.12700000000E+01 0. -1.
         25    2    1    2    0    0  0.24009173854E+02 -0.44430531695E+01  0.22668380463E+03  0.26001088112E+03  0.12499571942E+03 0.  0.
    9000005    1    3    3    0    0  0.25445743829E+02  0.32358927997E+02  0.13009964383E+02  0.43183854313E+02  0.10000000000E+01 0.  0.
    9000005    1    3    3    0    0 -0.14365699750E+01 -0.36801981166E+02  0.21367384024E+03  0.21682702681E+03  0.10000000000E+01 0.  0.
          4    1    1    2  501    0 -0.24009173854E+02  0.44430531695E+01  0.69759559816E+02  0.73920161231E+02  0.12700000000E+01 0.  1.
<mgrwt>
<rscale>  1 0.12735820E+03</rscale>
<asrwt>0</asrwt>
<pdfrwt beam="1">  1       21 0.48487025E-01 0.12735820E+03</pdfrwt>
<pdfrwt beam="2">  1        4 0.28838646E-02 0.12735820E+03</pdfrwt>
<totfact> 0.93940503E+04</totfact>
</mgrwt>
</event>
<event>
 6    4  0.6326233E-003  0.1268385E+03  0.7818608E-02  0.1232224E+00
         21   -1    0    0  501  502  0.00000000000E+00  0.00000000000E+00  0.16939972113E+02  0.16939972113E+02  0.00000000000E+00 0.  1.
          4   -1    0    0  502    0 -0.00000000000E+00 -0.00000000000E+00 -0.36929846384E+03  0.36930064757E+03  0.12700000000E+01 0. -1.
         25    2    1    2    0    0  0.97434627419E+01 -0.19182787188E+02 -0.33611833866E+03  0.35925414414E+03  0.12500035242E+03 0.  0.
    9000005    1    3    3    0    0  0.27712586924E+02 -0.42932898381E+02 -0.32244095673E+03  0.32646652480E+03  0.10000000000E+01 0.  0.
    9000005    1    3    3    0    0 -0.17969124182E+02  0.23750111193E+02 -0.13677381934E+02  0.32787619342E+02  0.10000000000E+01 0.  0.
          4    1    1    2  501    0 -0.97434627419E+01  0.19182787188E+02 -0.16240153062E+02  0.26986475538E+02  0.12700000000E+01 0.  1.
<mgrwt>
<rscale>  1 0.12683849E+03</rscale>
<asrwt>0</asrwt>
<pdfrwt beam="1">  1       21 0.26061496E-02 0.12683849E+03</pdfrwt>
<pdfrwt beam="2">  1        4 0.56818976E-01 0.12683849E+03</pdfrwt>
<totfact> 0.94484113E+04</totfact>
</mgrwt>
</event>
<event>
 6    4  0.6326233E-003  0.1271604E+03  0.7818608E-02  0.1231731E+00
          4   -1    0    0  502    0 -0.00000000000E+00  0.00000000000E+00  0.39947983129E+02  0.39968165533E+02  0.12700000000E+01 0.  1.
         21   -1    0    0  501  502  0.00000000000E+00 -0.00000000000E+00 -0.15070084150E+03  0.15070084150E+03  0.00000000000E+00 0.  1.
         25    2    1    2    0    0  0.30817687775E+01  0.23129524349E+02 -0.74026317950E+02  0.14713828378E+03  0.12500122643E+03 0.  0.
    9000005    1    3    3    0    0  0.63330543407E+02  0.21465801281E+02 -0.38398486548E+02  0.77116678624E+02  0.10000000000E+01 0.  0.
    9000005    1    3    3    0    0 -0.60248774629E+02  0.16637230679E+01 -0.35627831402E+02  0.70021605160E+02  0.10000000000E+01 0.  0.
          4    1    1    2  501    0 -0.30817687775E+01 -0.23129524349E+02 -0.36726540423E+02  0.43530723252E+02  0.12700000000E+01 0. -1.
<mgrwt>
<rscale>  1 0.12716045E+03</rscale>
<asrwt>0</asrwt>
<pdfrwt beam="2">  1       21 0.23184745E-01 0.12716045E+03</pdfrwt>
<pdfrwt beam="1">  1        4 0.61478076E-02 0.12716045E+03</pdfrwt>
<totfact> 0.11929716E+05</totfact>
</mgrwt>
</event>
<event>
 6    4  0.6326233E-003  0.1288528E+03  0.7818608E-02  0.1229168E+00
         21   -1    0    0  501  502  0.00000000000E+00  0.00000000000E+00  0.53732139589E+02  0.53732139589E+02  0.00000000000E+00 0. -1.
          4   -1    0    0  502    0 -0.00000000000E+00 -0.00000000000E+00 -0.12205540611E+03  0.12206201318E+03  0.12700000000E+01 0. -1.
         25    2    1    2    0    0 -0.20661808828E+02 -0.23464753108E+02 -0.65023485288E+02  0.14432978500E+03  0.12500211285E+03 0.  0.
    9000005    1    3    3    0    0  0.16955663773E+02  0.25515355174E+02  0.21917400471E+02  0.37681564817E+02  0.10000000000E+01 0.  0.
    9000005    1    3    3    0    0 -0.37617472601E+02 -0.48980108282E+02 -0.86940885759E+02  0.10664822019E+03  0.10000000000E+01 0.  0.
          4    1    1    2  501    0  0.20661808828E+02  0.23464753108E+02 -0.32997812324E+01  0.31464367761E+02  0.12700000000E+01 0.  1.
<mgrwt>
<rscale>  1 0.12885276E+03</rscale>
<asrwt>0</asrwt>
<pdfrwt beam="1">  1       21 0.82664830E-02 0.12885276E+03</pdfrwt>
<pdfrwt beam="2">  1        4 0.18779418E-01 0.12885276E+03</pdfrwt>
<totfact> 0.11434809E+05</totfact>
</mgrwt>
</event>
<event>
 6    4  0.6326233E-003  0.1301116E+03  0.7818608E-02  0.1227290E+00
         21   -1    0    0  501  502  0.00000000000E+00  0.00000000000E+00  0.18635803752E+04  0.18635803752E+04  0.00000000000E+00 0.  1.
          4   -1    0    0  502    0 -0.00000000000E+00 -0.00000000000E+00 -0.45718745923E+01  0.47449907574E+01  0.12700000000E+01 0.  1.
         25    2    1    2    0    0  0.29777484752E+02  0.20441366781E+02  0.98323724135E+03  0.99180870353E+03  0.12499793415E+03 0.  0.
    9000005    1    3    3    0    0 -0.33234238750E+02 -0.10668707021E+02  0.10275757945E+03  0.10852859563E+03  0.10000000000E+01 0.  0.
    9000005    1    3    3    0    0  0.63011723502E+02  0.31110073802E+02  0.88047966190E+03  0.88328010790E+03  0.10000000000E+01 0.  0.
          4    1    1    2  501    0 -0.29777484752E+02 -0.20441366781E+02  0.87577125926E+03  0.87651666243E+03  0.12700000000E+01 0. -1.
<mgrwt>
<rscale>  1 0.13011161E+03</rscale>
<asrwt>0</asrwt>
<pdfrwt beam="1">  1       21 0.28670408E+00 0.13011161E+03</pdfrwt>
<pdfrwt beam="2">  1        4 0.71671672E-03 0.13011161E+03</pdfrwt>
<totfact> 0.84646062E+03</totfact>
</mgrwt>
</event>
<event>
 6    4  0.6326233E-003  0.1295062E+03  0.7818608E-02  0.1228190E+00
         -4   -1    0    0    0  501 -0.00000000000E+00  0.00000000000E+00  0.63559455046E+02  0.63572141900E+02  0.12700000000E+01 0. -1.
         21   -1    0    0  501  502  0.00000000000E+00 -0.00000000000E+00 -0.10784015526E+03  0.10784015526E+03  0.00000000000E+00 0. -1.
         25    2    1    2    0    0  0.24182593964E+02 -0.23717647330E+02 -0.23406567979E+02  0.13160442178E+03  0.12499812703E+03 0.  0.
    9000005    1    3    3    0    0 -0.35152754991E+02 -0.33859283830E+02  0.24541967551E+02  0.54639504538E+02  0.10000000000E+01 0.  0.
    9000005    1    3    3    0    0  0.59335348955E+02  0.10141636500E+02 -0.47948535531E+02  0.76964917242E+02  0.10000000000E+01 0.  0.
         -4    1    1    2    0  502 -0.24182593964E+02  0.23717647330E+02 -0.20874132231E+02  0.39807875378E+02  0.12700000000E+01 0.  1.
<mgrwt>
<rscale>  1 0.12950620E+03</rscale>
<asrwt>0</asrwt>
<pdfrwt beam="2">  1       21 0.16590793E-01 0.12950620E+03</pdfrwt>
<pdfrwt beam="1">  1       -4 0.97799288E-02 0.12950620E+03</pdfrwt>
<totfact> 0.10302381E+05</totfact>
</mgrwt>
</event>
<event>
 6    4  0.6326233E-003  0.1288728E+03  0.7818608E-02  0.1229138E+00
         21   -1    0    0  501  502  0.00000000000E+00  0.00000000000E+00  0.42891537822E+02  0.42891537822E+02  0.00000000000E+00 0.  1.
         -4   -1    0    0    0  501 -0.00000000000E+00 -0.00000000000E+00 -0.46691247255E+03  0.46691419975E+03  0.12700000000E+01 0. -1.
         25    2    1    2    0    0  0.31080526270E+02 -0.38526079425E+01 -0.45062654851E+03  0.46869231779E+03  0.12500944296E+03 0.  0.
    9000005    1    3    3    0    0  0.68970509765E+02 -0.20107414677E+02 -0.16311455829E+03  0.17823747773E+03  0.10000000000E+01 0.  0.
    9000005    1    3    3    0    0 -0.37889983495E+02  0.16254806735E+02 -0.28751199023E+03  0.29045484006E+03  0.10000000000E+01 0.  0.
         -4    1    1    2    0  502 -0.31080526270E+02  0.38526079425E+01  0.26605613782E+02  0.41113419779E+02  0.12700000000E+01 0.  1.
<mgrwt>
<rscale>  1 0.12887282E+03</rscale>
<asrwt>0</asrwt>
<pdfrwt beam="1">  1       21 0.65986979E-02 0.12887282E+03</pdfrwt>
<pdfrwt beam="2">  1       -4 0.71834270E-01 0.12887282E+03</pdfrwt>
<totfact> 0.12262237E+04</totfact>
</mgrwt>
</event>
<event>
 6    4  0.6326233E-003  0.1277446E+03  0.7818608E-02  0.1230841E+00
          4   -1    0    0  502    0 -0.00000000000E+00  0.00000000000E+00  0.11978677346E+02  0.12045813006E+02  0.12700000000E+01 0. -1.
         21   -1    0    0  501  502  0.00000000000E+00 -0.00000000000E+00 -0.60308295437E+03  0.60308295437E+03  0.00000000000E+00 0.  1.
         25    2    1    2    0    0 -0.11088473729E+02 -0.23884197844E+02 -0.34993337152E+03  0.37252120830E+03  0.12500110791E+03 0.  0.
    9000005    1    3    3    0    0  0.55507831550E+01  0.18183670213E+02 -0.31442902570E+03  0.31500487181E+03  0.10000000000E+01 0.  0.
    9000005    1    3    3    0    0 -0.16639256884E+02 -0.42067868056E+02 -0.35504345812E+02  0.57516336496E+02  0.10000000000E+01 0.  0.
          4    1    1    2  501    0  0.11088473729E+02  0.23884197844E+02 -0.24117090551E+03  0.24260755907E+03  0.12700000000E+01 0.  1.
<mgrwt>
<rscale>  1 0.12774461E+03</rscale>
<asrwt>0</asrwt>
<pdfrwt beam="2">  1       21 0.92781984E-01 0.12774461E+03</pdfrwt>
<pdfrwt beam="1">  1        4 0.18481408E-02 0.12774461E+03</pdfrwt>
<totfact> 0.45825615E+04</totfact>
</mgrwt>
</event>
<event>
 6    4  0.6326233E-003  0.1273347E+03  0.7818608E-02  0.1231465E+00
          4   -1    0    0  502    0 -0.00000000000E+00  0.00000000000E+00  0.40476584443E+02  0.40496503407E+02  0.12700000000E+01 0. -1.
         21   -1    0    0  501  502  0.00000000000E+00 -0.00000000000E+00 -0.18568390386E+03  0.18568390386E+03  0.00000000000E+00 0. -1.
         25    2    1    2    0    0  0.13847262565E+02  0.19936342671E+02 -0.66192849846E+02  0.14351176907E+03  0.12499972021E+03 0.  0.
    9000005    1    3    3    0    0 -0.99221984866E+01 -0.22157764536E+02 -0.87399130392E+02  0.90713971059E+02  0.10000000000E+01 0.  0.
    9000005    1    3    3    0    0  0.23769461052E+02  0.42094107207E+02  0.21206280546E+02  0.52797798012E+02  0.10000000000E+01 0.  0.
          4    1    1    2  501    0 -0.13847262565E+02 -0.19936342671E+02 -0.79014469566E+02  0.82668638191E+02  0.12700000000E+01 0.  1.
<mgrwt>
<rscale>  1 0.12733473E+03</rscale>
<asrwt>0</asrwt>
<pdfrwt beam="2">  1       21 0.28566755E-01 0.12733473E+03</pdfrwt>
<pdfrwt beam="1">  1        4 0.62290330E-02 0.12733473E+03</pdfrwt>
<totfact> 0.78634969E+04</totfact>
</mgrwt>
</event>
<event>
 6    4  0.6326233E-003  0.1735407E+03  0.7818608E-02  0.1174205E+00
         21   -1    0    0  501  502  0.00000000000E+00  0.00000000000E+00  0.19335962405E+03  0.19335962405E+03  0.00000000000E+00 0. -1.
         -4   -1    0    0    0  501 -0.00000000000E+00 -0.00000000000E+00 -0.11319070151E+03  0.11319782599E+03  0.12700000000E+01 0.  1.
         25    2    1    2    0    0 -0.85991290003E+02  0.84243362920E+02  0.29904774561E+02  0.17609847708E+03  0.12499972774E+03 0.  0.
    9000005    1    3    3    0    0 -0.55205910288E+02  0.60973771490E+02  0.78724943074E+02  0.11386004568E+03  0.10000000000E+01 0.  0.
    9000005    1    3    3    0    0 -0.30785379715E+02  0.23269591431E+02 -0.48820168513E+02  0.62238431400E+02  0.10000000000E+01 0.  0.
         -4    1    1    2    0  502  0.85991290003E+02 -0.84243362920E+02  0.50264147972E+02  0.13045897295E+03  0.12700000000E+01 0. -1.
<mgrwt>
<rscale>  1 0.17354071E+03</rscale>
<asrwt>0</asrwt>
<pdfrwt beam="1">  1       21 0.29747635E-01 0.17354071E+03</pdfrwt>
<pdfrwt beam="2">  1       -4 0.17414823E-01 0.17354071E+03</pdfrwt>
<totfact> 0.13093023E+04</totfact>
</mgrwt>
</event>
<event>
 6    4  0.6326233E-003  0.1283977E+03  0.7818608E-02  0.1229853E+00
         -4   -1    0    0    0  501 -0.00000000000E+00  0.00000000000E+00  0.41435592937E+03  0.41435787564E+03  0.12700000000E+01 0.  1.
         21   -1    0    0  501  502  0.00000000000E+00 -0.00000000000E+00 -0.26565644451E+02  0.26565644451E+02  0.00000000000E+00 0.  1.
         25    2    1    2    0    0 -0.17448619975E+02 -0.23582275060E+02  0.39085169335E+03  0.41140127157E+03  0.12500152805E+03 0.  0.
    9000005    1    3    3    0    0 -0.80662373575E+01 -0.73333611140E+02  0.27952793579E+03  0.28910162503E+03  0.10000000000E+01 0.  0.
    9000005    1    3    3    0    0 -0.93823826172E+01  0.49751336080E+02  0.11132375756E+03  0.12229964653E+03  0.10000000000E+01 0.  0.
         -4    1    1    2    0  502  0.17448619975E+02  0.23582275060E+02 -0.30614084367E+01  0.29522248519E+02  0.12700000000E+01 0. -1.
<mgrwt>
<rscale>  1 0.12839766E+03</rscale>
<asrwt>0</asrwt>
<pdfrwt beam="2">  1       21 0.40870225E-02 0.12839766E+03</pdfrwt>
<pdfrwt beam="1">  1       -4 0.63749546E-01 0.12839766E+03</pdfrwt>
<totfact> 0.35450647E+04</totfact>
</mgrwt>
</event>
<event>
 6    4  0.6326233E-003  0.1281137E+03  0.7818608E-02  0.1230282E+00
         21   -1    0    0  501  502  0.00000000000E+00  0.00000000000E+00  0.10168651344E+02  0.10168651344E+02  0.00000000000E+00 0.  1.
         -4   -1    0    0    0  501 -0.00000000000E+00 -0.00000000000E+00 -0.85967150799E+03  0.85967244608E+03  0.12700000000E+01 0. -1.
         25    2    1    2    0    0 -0.18445501575E+02 -0.21158284819E+02 -0.81653181701E+03  0.82652121862E+03  0.12500082839E+03 0.  0.
    9000005    1    3    3    0    0 -0.61602710081E+02 -0.16985848605E+02 -0.24009833089E+03  0.24845849037E+03  0.10000000000E+01 0.  0.
    9000005    1    3    3    0    0  0.43157208507E+02 -0.41724362135E+01 -0.57643348612E+03  0.57806272825E+03  0.10000000000E+01 0.  0.
         -4    1    1    2    0  502  0.18445501575E+02  0.21158284819E+02 -0.32971039640E+02  0.43319878806E+02  0.12700000000E+01 0.  1.
<mgrwt>
<rscale>  1 0.12811369E+03</rscale>
<asrwt>0</asrwt>
<pdfrwt beam="1">  1       21 0.15644071E-02 0.12811369E+03</pdfrwt>
<pdfrwt beam="2">  1       -4 0.13226340E+00 0.12811369E+03</pdfrwt>
<totfact> 0.32221873E+04</totfact>
</mgrwt>
</event>
<event>
 6    4  0.6326233E-003  0.1276017E+03  0.7818608E-02  0.1231058E+00
         -4   -1    0    0    0  501 -0.00000000000E+00  0.00000000000E+00  0.32714269467E+02  0.32738911508E+02  0.12700000000E+01 0.  1.
         21   -1    0    0  501  502  0.00000000000E+00 -0.00000000000E+00 -0.41806865035E+03  0.41806865035E+03  0.00000000000E+00 0. -1.
         25    2    1    2    0    0 -0.60436802060E+01 -0.24887614043E+02 -0.94398490800E+02  0.15872390556E+03  0.12500513480E+03 0.  0.
    9000005    1    3    3    0    0 -0.59015374378E+02 -0.15241404947E+02 -0.84142046894E+02  0.10390379634E+03  0.10000000000E+01 0.  0.
    9000005    1    3    3    0    0  0.52971694172E+02 -0.96462090953E+01 -0.10256443905E+02  0.54820109221E+02  0.10000000000E+01 0.  0.
         -4    1    1    2    0  502  0.60436802060E+01  0.24887614043E+02 -0.29095589008E+03  0.29208365630E+03  0.12700000000E+01 0. -1.
<mgrwt>
<rscale>  1 0.12760174E+03</rscale>
<asrwt>0</asrwt>
<pdfrwt beam="2">  1       21 0.64318252E-01 0.12760174E+03</pdfrwt>
<pdfrwt beam="1">  1       -4 0.50350086E-02 0.12760174E+03</pdfrwt>
<totfact> 0.21493394E+04</totfact>
</mgrwt>
</event>
<event>
 6    4  0.6326233E-003  0.1294629E+03  0.7818608E-02  0.1228255E+00
         21   -1    0    0  501  502  0.00000000000E+00  0.00000000000E+00  0.45794517005E+03  0.45794517005E+03  0.00000000000E+00 0.  1.
          4   -1    0    0  502    0 -0.00000000000E+00 -0.00000000000E+00 -0.29110199597E+02  0.29137889776E+02  0.12700000000E+01 0. -1.
         25    2    1    2    0    0 -0.24876206100E+02  0.22724291683E+02  0.12035306858E+03  0.17676400506E+03  0.12500173322E+03 0.  0.
    9000005    1    3    3    0    0 -0.12178780206E+02  0.68121914510E+02  0.31213378938E+02  0.75922282293E+02  0.10000000000E+01 0.  0.
    9000005    1    3    3    0    0 -0.12697425893E+02 -0.45397622827E+02  0.89139689638E+02  0.10084172277E+03  0.10000000000E+01 0.  0.
          4    1    1    2  501    0  0.24876206100E+02 -0.22724291683E+02  0.30848190187E+03  0.31031905476E+03  0.12700000000E+01 0.  1.
<mgrwt>
<rscale>  1 0.12946294E+03</rscale>
<asrwt>0</asrwt>
<pdfrwt beam="1">  1       21 0.70453098E-01 0.12946294E+03</pdfrwt>
<pdfrwt beam="2">  1        4 0.44807581E-02 0.12946294E+03</pdfrwt>
<totfact> 0.21295691E+04</totfact>
</mgrwt>
</event>
<event>
 6    4  0.6326233E-003  0.1289020E+03  0.7818608E-02  0.1229094E+00
         21   -1    0    0  501  502  0.00000000000E+00  0.00000000000E+00  0.14372661696E+02  0.14372661696E+02  0.00000000000E+00 0. -1.
          4   -1    0    0  502    0 -0.00000000000E+00 -0.00000000000E+00 -0.56004507673E+03  0.56004651670E+03  0.12700000000E+01 0.  1.
         25    2    1    2    0    0  0.22652882064E+02 -0.21843749498E+02 -0.51336425825E+03  0.52930008761E+03  0.12500167458E+03 0.  0.
    9000005    1    3    3    0    0  0.55131119633E+02  0.26431689648E+02 -0.16213057041E+03  0.17327837843E+03  0.10000000000E+01 0.  0.
    9000005    1    3    3    0    0 -0.32478237569E+02 -0.48275439146E+02 -0.35123368784E+03  0.35602170919E+03  0.10000000000E+01 0.  0.
          4    1    1    2  501    0 -0.22652882064E+02  0.21843749498E+02 -0.32308156788E+02  0.45119090782E+02  0.12700000000E+01 0. -1.
<mgrwt>
<rscale>  1 0.12890198E+03</rscale>
<asrwt>0</asrwt>
<pdfrwt beam="1">  1       21 0.22111786E-02 0.12890198E+03</pdfrwt>
<pdfrwt beam="2">  1        4 0.86165214E-01 0.12890198E+03</pdfrwt>
<totfact> 0.50406241E+04</totfact>
</mgrwt>
</event>
<event>
 6    4  0.6326233E-003  0.1267910E+03  0.7818608E-02  0.1232296E+00
          4   -1    0    0  502    0 -0.00000000000E+00  0.00000000000E+00  0.68002162066E+02  0.68014020214E+02  0.12700000000E+01 0.  1.
         21   -1    0    0  501  502  0.00000000000E+00 -0.00000000000E+00 -0.82019577127E+02  0.82019577127E+02  0.00000000000E+00 0.  1.
         25    2    1    2    0    0  0.99182315614E+01  0.18774640550E+02 -0.48861381517E+01  0.12688512951E+03  0.12500041319E+03 0.  0.
    9000005    1    3    3    0    0  0.54189810042E+02  0.44001686781E+02  0.16304988067E+02  0.71690561358E+02  0.10000000000E+01 0.  0.
    9000005    1    3    3    0    0 -0.44271578481E+02 -0.25227046231E+02 -0.21191126218E+02  0.55194568149E+02  0.10000000000E+01 0.  0.
          4    1    1    2  501    0 -0.99182315614E+01 -0.18774640550E+02 -0.91312769101E+01  0.23148467834E+02  0.12700000000E+01 0. -1.
<mgrwt>
<rscale>  1 0.12679102E+03</rscale>
<asrwt>0</asrwt>
<pdfrwt beam="2">  1       21 0.12618397E-01 0.12679102E+03</pdfrwt>
<pdfrwt beam="1">  1        4 0.10463540E-01 0.12679102E+03</pdfrwt>
<totfact> 0.14990856E+05</totfact>
</mgrwt>
</event>
<event>
 6    4  0.6326233E-003  0.1266263E+03  0.7818608E-02  0.1232549E+00
         -4   -1    0    0    0  501 -0.00000000000E+00  0.00000000000E+00  0.53595891249E+01  0.55080028674E+01  0.12700000000E+01 0. -1.
         21   -1    0    0  501  502  0.00000000000E+00 -0.00000000000E+00 -0.12461483299E+04  0.12461483299E+04  0.00000000000E+00 0. -1.
         25    2    1    2    0    0  0.72102595694E+01  0.18906347957E+02 -0.76286924184E+03  0.77330698533E+03  0.12499910228E+03 0.  0.
    9000005    1    3    3    0    0  0.30181679705E+02  0.16003011048E+02 -0.73986038067E+03  0.74064931853E+03  0.10000000000E+01 0.  0.
    9000005    1    3    3    0    0 -0.22971420135E+02  0.29033369082E+01 -0.23008861171E+02  0.32657666797E+02  0.10000000000E+01 0.  0.
         -4    1    1    2    0  502 -0.72102595694E+01 -0.18906347957E+02 -0.47791949890E+03  0.47834934740E+03  0.12700000000E+01 0.  1.
<mgrwt>
<rscale>  1 0.12662627E+03</rscale>
<asrwt>0</asrwt>
<pdfrwt beam="2">  1       21 0.19171532E+00 0.12662627E+03</pdfrwt>
<pdfrwt beam="1">  1       -4 0.83601756E-03 0.12662627E+03</pdfrwt>
<totfact> 0.24345296E+04</totfact>
</mgrwt>
</event>
<event>
 6    4  0.6326233E-003  0.1314284E+03  0.7818608E-02  0.1225351E+00
          4   -1    0    0  502    0 -0.00000000000E+00  0.00000000000E+00  0.82727663563E+02  0.82737411239E+02  0.12700000000E+01 0.  1.
         21   -1    0    0  501  502  0.00000000000E+00 -0.00000000000E+00 -0.23793227965E+03  0.23793227965E+03  0.00000000000E+00 0.  1.
         25    2    1    2    0    0 -0.35159657427E+02 -0.20301984644E+02  0.26846191598E+02  0.13414226242E+03  0.12500022590E+03 0.  0.
    9000005    1    3    3    0    0  0.23790757249E+02 -0.13525262969E+02  0.60149066315E+02  0.66089659156E+02  0.10000000000E+01 0.  0.
    9000005    1    3    3    0    0 -0.58950414676E+02 -0.67767216752E+01 -0.33302874717E+02  0.68052603268E+02  0.10000000000E+01 0.  0.
          4    1    1    2  501    0  0.35159657427E+02  0.20301984644E+02 -0.18205080768E+03  0.18652742846E+03  0.12700000000E+01 0. -1.
<mgrwt>
<rscale>  1 0.13142842E+03</rscale>
<asrwt>0</asrwt>
<pdfrwt beam="2">  1       21 0.36604966E-01 0.13142842E+03</pdfrwt>
<pdfrwt beam="1">  1        4 0.12728344E-01 0.13142842E+03</pdfrwt>
<totfact> 0.14770029E+04</totfact>
</mgrwt>
</event>
<event>
 6    4  0.6326233E-003  0.1280897E+03  0.7818608E-02  0.1230318E+00
         21   -1    0    0  501  502  0.00000000000E+00  0.00000000000E+00  0.11785578436E+03  0.11785578436E+03  0.00000000000E+00 0.  1.
          4   -1    0    0  502    0 -0.00000000000E+00 -0.00000000000E+00 -0.10417402518E+03  0.10418176626E+03  0.12700000000E+01 0.  1.
         25    2    1    2    0    0  0.26655491602E+02 -0.83728866607E+01 -0.61305207489E+02  0.14200456659E+03  0.12500539189E+03 0.  0.
    9000005    1    3    3    0    0  0.15807071859E+02 -0.40658862361E+02  0.24244956158E+02  0.49918178136E+02  0.10000000000E+01 0.  0.
    9000005    1    3    3    0    0  0.10848419743E+02  0.32285975701E+02 -0.85550163647E+02  0.92086388451E+02  0.10000000000E+01 0.  0.
          4    1    1    2  501    0 -0.26655491602E+02  0.83728866607E+01  0.74986966673E+02  0.80032984041E+02  0.12700000000E+01 0. -1.
<mgrwt>
<rscale>  1 0.12808969E+03</rscale>
<asrwt>0</asrwt>
<pdfrwt beam="1">  1       21 0.18131659E-01 0.12808969E+03</pdfrwt>
<pdfrwt beam="2">  1        4 0.16027895E-01 0.12808969E+03</pdfrwt>
<totfact> 0.37481044E+04</totfact>
</mgrwt>
</event>
<event>
 6    4  0.6326233E-003  0.1633356E+03  0.7818608E-02  0.1184982E+00
         -4   -1    0    0    0  501 -0.00000000000E+00  0.00000000000E+00  0.31748173582E+02  0.31773564890E+02  0.12700000000E+01 0.  1.
         21   -1    0    0  501  502  0.00000000000E+00 -0.00000000000E+00 -0.69113830450E+03  0.69113830450E+03  0.00000000000E+00 0.  1.
         25    2    1    2    0    0 -0.98679527547E+02 -0.36298478207E+02 -0.23838521226E+03  0.28897410529E+03  0.12499318152E+03 0.  0.
    9000005    1    3    3    0    0 -0.65327792364E+01 -0.30500474231E+01  0.15347233615E+02  0.16985805058E+02  0.10000000000E+01 0.  0.
    9000005    1    3    3    0    0 -0.92146748310E+02 -0.33248430784E+02 -0.25373244587E+03  0.27198830023E+03  0.10000000000E+01 0.  0.
         -4    1    1    2    0  502  0.98679527547E+02  0.36298478207E+02 -0.42100491866E+03  0.43393776410E+03  0.12700000000E+01 0. -1.
<mgrwt>
<rscale>  1 0.16333562E+03</rscale>
<asrwt>0</asrwt>
<pdfrwt beam="2">  1       21 0.10632896E+00 0.16333562E+03</pdfrwt>
<pdfrwt beam="1">  1       -4 0.48863777E-02 0.16333562E+03</pdfrwt>
<totfact> 0.73572146E+03</totfact>
</mgrwt>
</event>
<event>
 6    4  0.6326233E-003  0.1275370E+03  0.7818608E-02  0.1231157E+00
         21   -1    0    0  501  502  0.00000000000E+00  0.00000000000E+00  0.27764173108E+02  0.27764173108E+02  0.00000000000E+00 0. -1.
          4   -1    0    0  502    0 -0.00000000000E+00 -0.00000000000E+00 -0.26016831998E+03  0.26017141969E+03  0.12700000000E+01 0. -1.
         25    2    1    2    0    0  0.20703697474E+02 -0.14553810266E+02 -0.22933362482E+03  0.26241114397E+03  0.12500096209E+03 0.  0.
    9000005    1    3    3    0    0 -0.36728859970E+01  0.54322455392E+02 -0.99701352688E+02  0.11360360460E+03  0.10000000000E+01 0.  0.
    9000005    1    3    3    0    0  0.24376583471E+02 -0.68876265658E+02 -0.12963227214E+03  0.14880753936E+03  0.10000000000E+01 0.  0.
          4    1    1    2  501    0 -0.20703697474E+02  0.14553810266E+02 -0.30705220542E+01  0.25524448829E+02  0.12700000000E+01 0.  1.
<mgrwt>
<rscale>  1 0.12753704E+03</rscale>
<asrwt>0</asrwt>
<pdfrwt beam="1">  1       21 0.42714110E-02 0.12753704E+03</pdfrwt>
<pdfrwt beam="2">  1        4 0.40028370E-01 0.12753704E+03</pdfrwt>
<totfact> 0.85018313E+04</totfact>
</mgrwt>
</event>
<event>
 6    4  0.6326233E-003  0.1265969E+03  0.7818608E-02  0.1232594E+00
          4   -1    0    0  502    0 -0.00000000000E+00  0.00000000000E+00  0.37812815384E+02  0.37834136798E+02  0.12700000000E+01 0. -1.
         21   -1    0    0  501  502  0.00000000000E+00 -0.00000000000E+00 -0.14585804444E+03  0.14585804444E+03  0.00000000000E+00 0. -1.
         25    2    1    2    0    0 -0.71157398090E+01 -0.18720859299E+02 -0.82085078436E+02  0.15087988711E+03  0.12500270359E+03 0.  0.
    9000005    1    3    3    0    0 -0.37520343127E+02  0.21252659612E+02  0.11522691969E+02  0.44645538626E+02  0.10000000000E+01 0.  0.
    9000005    1    3    3    0    0  0.30404603318E+02 -0.39973518912E+02 -0.93607770406E+02  0.10623434848E+03  0.10000000000E+01 0.  0.
          4    1    1    2  501    0  0.71157398090E+01  0.18720859299E+02 -0.25960150623E+02  0.32812294134E+02  0.12700000000E+01 0.  1.
<mgrwt>
<rscale>  1 0.12659692E+03</rscale>
<asrwt>0</asrwt>
<pdfrwt beam="2">  1       21 0.22439700E-01 0.12659692E+03</pdfrwt>
<pdfrwt beam="1">  1        4 0.58194215E-02 0.12659692E+03</pdfrwt>
<totfact> 0.13854327E+05</totfact>
</mgrwt>
</event>
<event>
 6    4  0.6326233E-003  0.1312703E+03  0.7818608E-02  0.1225583E+00
          4   -1    0    0  502    0 -0.00000000000E+00  0.00000000000E+00  0.11495893483E+04  0.11495900498E+04  0.12700000000E+01 0.  1.
         21   -1    0    0  501  502  0.00000000000E+00 -0.00000000000E+00 -0.12312585952E+02  0.12312585952E+02  0.00000000000E+00 0. -1.
         25    2    1    2    0    0  0.14196683253E+02  0.37491604846E+02  0.10978147269E+04  0.11056351372E+04  0.12499886325E+03 0.  0.
    9000005    1    3    3    0    0 -0.48382678026E+02  0.43550627951E+02  0.68087859189E+03  0.68398406241E+03  0.10000000000E+01 0.  0.
    9000005    1    3    3    0    0  0.62579361279E+02 -0.60590231041E+01  0.41693613499E+03  0.42165107480E+03  0.10000000000E+01 0.  0.
          4    1    1    2  501    0 -0.14196683253E+02 -0.37491604846E+02  0.39462035418E+02  0.56267498511E+02  0.12700000000E+01 0. -1.
<mgrwt>
<rscale>  1 0.13127026E+03</rscale>
<asrwt>0</asrwt>
<pdfrwt beam="2">  1       21 0.18942449E-02 0.13127026E+03</pdfrwt>
<pdfrwt beam="1">  1        4 0.17686491E+00 0.13127026E+03</pdfrwt>
<totfact> 0.11274847E+04</totfact>
</mgrwt>
</event>
<event>
 6    4  0.6326233E-003  0.1783225E+03  0.7818608E-02  0.1169437E+00
         21   -1    0    0  501  502  0.00000000000E+00  0.00000000000E+00  0.36963717531E+02  0.36963717531E+02  0.00000000000E+00 0. -1.
          4   -1    0    0  502    0 -0.00000000000E+00 -0.00000000000E+00 -0.12660620951E+04  0.12660627321E+04  0.12700000000E+01 0.  1.
         25    2    1    2    0    0  0.11450565902E+03 -0.55327389688E+02 -0.11239550590E+04  0.11380131279E+04  0.12500495445E+03 0.  0.
    9000005    1    3    3    0    0  0.50240983109E+02 -0.27048549600E+02 -0.13497765962E+03  0.14654606448E+03  0.10000000000E+01 0.  0.
    9000005    1    3    3    0    0  0.64264675909E+02 -0.28278840088E+02 -0.98897739938E+03  0.99146706342E+03  0.10000000000E+01 0.  0.
          4    1    1    2  501    0 -0.11450565902E+03  0.55327389688E+02 -0.10514331855E+03  0.16501332168E+03  0.12700000000E+01 0. -1.
<mgrwt>
<rscale>  1 0.17832247E+03</rscale>
<asrwt>0</asrwt>
<pdfrwt beam="1">  1       21 0.56867259E-02 0.17832247E+03</pdfrwt>
<pdfrwt beam="2">  1        4 0.19478051E+00 0.17832247E+03</pdfrwt>
<totfact> 0.14222932E+03</totfact>
</mgrwt>
</event>
<event>
 6    4  0.6326233E-003  0.1312842E+03  0.7818608E-02  0.1225563E+00
          4   -1    0    0  502    0 -0.00000000000E+00  0.00000000000E+00  0.24225977879E+03  0.24226310763E+03  0.12700000000E+01 0. -1.
         21   -1    0    0  501  502  0.00000000000E+00 -0.00000000000E+00 -0.42936584970E+02  0.42936584970E+02  0.00000000000E+00 0.  1.
         25    2    1    2    0    0  0.61560943820E+01 -0.39660779031E+02  0.20621290351E+03  0.24445713633E+03  0.12499862013E+03 0.  0.
    9000005    1    3    3    0    0 -0.50273895885E+02 -0.50660438216E+02  0.13696199411E+03  0.15444588838E+03  0.10000000000E+01 0.  0.
    9000005    1    3    3    0    0  0.56429990267E+02  0.10999659185E+02  0.69250909406E+02  0.90011247949E+02  0.10000000000E+01 0.  0.
          4    1    1    2  501    0 -0.61560943820E+01  0.39660779031E+02 -0.68897096994E+01  0.40742556267E+02  0.12700000000E+01 0.  1.
<mgrwt>
<rscale>  1 0.13128416E+03</rscale>
<asrwt>0</asrwt>
<pdfrwt beam="2">  1       21 0.66056286E-02 0.13128416E+03</pdfrwt>
<pdfrwt beam="1">  1        4 0.37272435E-01 0.13128416E+03</pdfrwt>
<totfact> 0.47069892E+04</totfact>
</mgrwt>
</event>
<event>
 6    4  0.6326233E-003  0.1271855E+03  0.7818608E-02  0.1231693E+00
         21   -1    0    0  501  502  0.00000000000E+00  0.00000000000E+00  0.23024343976E+02  0.23024343976E+02  0.00000000000E+00 0.  1.
          4   -1    0    0  502    0 -0.00000000000E+00 -0.00000000000E+00 -0.34540507101E+03  0.34540740579E+03  0.12700000000E+01 0. -1.
         25    2    1    2    0    0  0.77996176713E+01  0.22144592715E+02 -0.32053613390E+03  0.34484716908E+03  0.12499975948E+03 0.  0.
    9000005    1    3    3    0    0 -0.20572973599E+01  0.19644795355E+02  0.39768194648E+01  0.20173387173E+02  0.10000000000E+01 0.  0.
    9000005    1    3    3    0    0  0.98569150312E+01  0.24997973595E+01 -0.32451295336E+03  0.32467378191E+03  0.10000000000E+01 0.  0.
          4    1    1    2  501    0 -0.77996176713E+01 -0.22144592715E+02 -0.18445931346E+01  0.23584580686E+02  0.12700000000E+01 0.  1.
<mgrwt>
<rscale>  1 0.12718552E+03</rscale>
<asrwt>0</asrwt>
<pdfrwt beam="1">  1       21 0.35422070E-02 0.12718552E+03</pdfrwt>
<pdfrwt beam="2">  1        4 0.53142112E-01 0.12718552E+03</pdfrwt>
<totfact> 0.65604796E+04</totfact>
</mgrwt>
</event>
<event>
 6    4  0.6326233E-003  0.1290673E+03  0.7818608E-02  0.1228846E+00
         -4   -1    0    0    0  501 -0.00000000000E+00  0.00000000000E+00  0.16690693859E+02  0.16738941469E+02  0.12700000000E+01 0. -1.
         21   -1    0    0  501  502  0.00000000000E+00 -0.00000000000E+00 -0.42613878623E+03  0.42613878623E+03  0.00000000000E+00 0. -1.
         25    2    1    2    0    0  0.15822453776E+02 -0.27974548897E+02 -0.26330367569E+03  0.29323572539E+03  0.12500175831E+03 0.  0.
    9000005    1    3    3    0    0  0.51328224289E+02  0.20185322572E+02 -0.19390682590E+03  0.20160082090E+03  0.10000000000E+01 0.  0.
    9000005    1    3    3    0    0 -0.35505770514E+02 -0.48159871468E+02 -0.69396849787E+02  0.91634904485E+02  0.10000000000E+01 0.  0.
         -4    1    1    2    0  502 -0.15822453776E+02  0.27974548897E+02 -0.14614441668E+03  0.14964200231E+03  0.12700000000E+01 0.  1.
<mgrwt>
<rscale>  1 0.12906729E+03</rscale>
<asrwt>0</asrwt>
<pdfrwt beam="2">  1       21 0.65559808E-01 0.12906729E+03</pdfrwt>
<pdfrwt beam="1">  1       -4 0.25716562E-02 0.12906729E+03</pdfrwt>
<totfact> 0.59649802E+04</totfact>
</mgrwt>
</event>
<event>
 6    4  0.6326233E-003  0.1311703E+03  0.7818608E-02  0.1225730E+00
         21   -1    0    0  501  502  0.00000000000E+00  0.00000000000E+00  0.53019997467E+02  0.53019997467E+02  0.00000000000E+00 0. -1.
          4   -1    0    0  502    0 -0.00000000000E+00 -0.00000000000E+00 -0.47167555786E+03  0.47167726761E+03  0.12700000000E+01 0.  1.
         25    2    1    2    0    0  0.39719884587E+02  0.17474570573E+01 -0.45333117441E+03  0.47192668667E+03  0.12499968424E+03 0.  0.
    9000005    1    3    3    0    0 -0.10093541536E+02 -0.39354111594E+02 -0.54960997326E+02  0.68354494418E+02  0.10000000000E+01 0.  0.
    9000005    1    3    3    0    0  0.49813426123E+02  0.41101568651E+02 -0.39837017709E+03  0.40357219225E+03  0.10000000000E+01 0.  0.
          4    1    1    2  501    0 -0.39719884587E+02 -0.17474570573E+01  0.34675614021E+02  0.52770578408E+02  0.12700000000E+01 0. -1.
<mgrwt>
<rscale>  1 0.13117029E+03</rscale>
<asrwt>0</asrwt>
<pdfrwt beam="1">  1       21 0.81569224E-02 0.13117029E+03</pdfrwt>
<pdfrwt beam="2">  1        4 0.72566775E-01 0.13117029E+03</pdfrwt>
<totfact> 0.83520616E+03</totfact>
</mgrwt>
</event>
<event>
 6    4  0.6326233E-003  0.1271207E+03  0.7818608E-02  0.1231792E+00
         21   -1    0    0  501  502  0.00000000000E+00  0.00000000000E+00  0.84767403868E+02  0.84767403868E+02  0.00000000000E+00 0. -1.
          4   -1    0    0  502    0 -0.00000000000E+00 -0.00000000000E+00 -0.66925249820E+02  0.66937298746E+02  0.12700000000E+01 0. -1.
         25    2    1    2    0    0  0.16110716066E+02 -0.16684511831E+02  0.18543637491E+02  0.12846609065E+03  0.12498696671E+03 0.  0.
    9000005    1    3    3    0    0  0.68680015558E+02 -0.34532692458E+00  0.24854292769E+02  0.73046558145E+02  0.10000000000E+01 0.  0.
    9000005    1    3    3    0    0 -0.52569299493E+02 -0.16339184906E+02 -0.63106552787E+01  0.55419532501E+02  0.10000000000E+01 0.  0.
          4    1    1    2  501    0 -0.16110716066E+02  0.16684511831E+02 -0.70148344277E+00  0.23238611968E+02  0.12700000000E+01 0.  1.
<mgrwt>
<rscale>  1 0.12712069E+03</rscale>
<asrwt>0</asrwt>
<pdfrwt beam="1">  1       21 0.13041139E-01 0.12712069E+03</pdfrwt>
<pdfrwt beam="2">  1        4 0.10297851E-01 0.12712069E+03</pdfrwt>
<totfact> 0.14528608E+05</totfact>
</mgrwt>
</event>
<event>
 6    4  0.6326233E-003  0.1303253E+03  0.7818608E-02  0.1226974E+00
         21   -1    0    0  501  502  0.00000000000E+00  0.00000000000E+00  0.28273864097E+03  0.28273864097E+03  0.00000000000E+00 0.  1.
         -4   -1    0    0    0  501 -0.00000000000E+00 -0.00000000000E+00 -0.12124259339E+03  0.12124924475E+03  0.12700000000E+01 0. -1.
         25    2    1    2    0    0  0.35815119244E+02 -0.87306598341E+01 -0.84447666031E+02  0.15529355456E+03  0.12500293037E+03 0.  0.
    9000005    1    3    3    0    0 -0.42912979978E+02 -0.23178390802E+02 -0.43588833875E+02  0.65419783623E+02  0.10000000000E+01 0.  0.
    9000005    1    3    3    0    0  0.78728099222E+02  0.14447730968E+02 -0.40858832156E+02  0.89873770936E+02  0.10000000000E+01 0.  0.
         -4    1    1    2    0  502 -0.35815119244E+02  0.87306598341E+01  0.24594371361E+03  0.24869433116E+03  0.12700000000E+01 0.  1.
<mgrwt>
<rscale>  1 0.13032528E+03</rscale>
<asrwt>0</asrwt>
<pdfrwt beam="1">  1       21 0.43498252E-01 0.13032528E+03</pdfrwt>
<pdfrwt beam="2">  1       -4 0.18653438E-01 0.13032528E+03</pdfrwt>
<totfact> 0.53560759E+03</totfact>
</mgrwt>
</event>
<event>
 6    4  0.6326233E-003  0.1305834E+03  0.7818608E-02  0.1226593E+00
          4   -1    0    0  502    0 -0.00000000000E+00  0.00000000000E+00  0.75907149490E+02  0.75917772911E+02  0.12700000000E+01 0.  1.
         21   -1    0    0  501  502  0.00000000000E+00 -0.00000000000E+00 -0.98580287124E+02  0.98580287124E+02  0.00000000000E+00 0.  1.
         25    2    1    2    0    0 -0.36445147155E+02  0.10004776523E+02 -0.34611752477E+00  0.13058390478E+03  0.12499476824E+03 0.  0.
    9000005    1    3    3    0    0 -0.38038011714E+01  0.44955588922E+02 -0.46014875271E+02  0.64450311286E+02  0.10000000000E+01 0.  0.
    9000005    1    3    3    0    0 -0.32641345984E+02 -0.34950812399E+02  0.45668757746E+02  0.66133593499E+02  0.10000000000E+01 0.  0.
          4    1    1    2  501    0  0.36445147155E+02 -0.10004776523E+02 -0.22327020109E+02  0.43914155250E+02  0.12700000000E+01 0. -1.
<mgrwt>
<rscale>  1 0.13058345E+03</rscale>
<asrwt>0</asrwt>
<pdfrwt beam="2">  1       21 0.15166198E-01 0.13058345E+03</pdfrwt>
<pdfrwt beam="1">  1        4 0.11679469E-01 0.13058345E+03</pdfrwt>
<totfact> 0.89864597E+04</totfact>
</mgrwt>
</event>
<event>
 6    4  0.6326233E-003  0.1316014E+03  0.7818608E-02  0.1225099E+00
          4   -1    0    0  502    0 -0.00000000000E+00  0.00000000000E+00  0.76952717221E+03  0.76952822019E+03  0.12700000000E+01 0. -1.
         21   -1    0    0  501  502  0.00000000000E+00 -0.00000000000E+00 -0.62426387680E+02  0.62426387680E+02  0.00000000000E+00 0.  1.
         25    2    1    2    0    0 -0.74510991718E+01  0.40472900814E+02  0.75637767391E+03  0.76774090757E+03  0.12500136391E+03 0.  0.
    9000005    1    3    3    0    0  0.44926495198E+02  0.59638200028E+02  0.38199405702E+03  0.38922431125E+03  0.10000000000E+01 0.  0.
    9000005    1    3    3    0    0 -0.52377594370E+02 -0.19165299215E+02  0.37438361690E+03  0.37851659632E+03  0.10000000000E+01 0.  0.
          4    1    1    2  501    0  0.74510991718E+01 -0.40472900814E+02 -0.49276889384E+02  0.64213700302E+02  0.12700000000E+01 0.  1.
<mgrwt>
<rscale>  1 0.13160135E+03</rscale>
<asrwt>0</asrwt>
<pdfrwt beam="2">  1       21 0.96040602E-02 0.13160135E+03</pdfrwt>
<pdfrwt beam="1">  1        4 0.11838986E+00 0.13160135E+03</pdfrwt>
<totfact> 0.20657554E+03</totfact>
</mgrwt>
</event>
<event>
 6    4  0.6326233E-003  0.1269346E+03  0.7818608E-02  0.1232076E+00
         -4   -1    0    0    0  501 -0.00000000000E+00  0.00000000000E+00  0.10914599561E+02  0.10988238420E+02  0.12700000000E+01 0.  1.
         21   -1    0    0  501  502  0.00000000000E+00 -0.00000000000E+00 -0.54454604110E+03  0.54454604110E+03  0.00000000000E+00 0.  1.
         25    2    1    2    0    0  0.21747320022E+02  0.37986805126E+01 -0.38805632340E+03  0.40828923267E+03  0.12500004591E+03 0.  0.
    9000005    1    3    3    0    0  0.46877153099E+02 -0.41200108296E+02 -0.11938429244E+03  0.13471646405E+03  0.10000000000E+01 0.  0.
    9000005    1    3    3    0    0 -0.25129833077E+02  0.44998788809E+02 -0.26867203097E+03  0.27357276862E+03  0.10000000000E+01 0.  0.
         -4    1    1    2    0  502 -0.21747320022E+02 -0.37986805126E+01 -0.14557511813E+03  0.14724504685E+03  0.12700000000E+01 0. -1.
<mgrwt>
<rscale>  1 0.12693458E+03</rscale>
<asrwt>0</asrwt>
<pdfrwt beam="2">  1       21 0.83776271E-01 0.12693458E+03</pdfrwt>
<pdfrwt beam="1">  1       -4 0.16849485E-02 0.12693458E+03</pdfrwt>
<totfact> 0.66564111E+04</totfact>
</mgrwt>
</event>
<event>
 6    4  0.6326233E-003  0.1352274E+03  0.7818608E-02  0.1219899E+00
         21   -1    0    0  501  502  0.00000000000E+00  0.00000000000E+00  0.49378457439E+02  0.49378457439E+02  0.00000000000E+00 0.  1.
          4   -1    0    0  502    0 -0.00000000000E+00 -0.00000000000E+00 -0.23729417475E+03  0.23729757325E+03  0.12700000000E+01 0.  1.
         25    2    1    2    0    0  0.31737768512E+02  0.40801363580E+02 -0.19196235254E+03  0.23481057612E+03  0.12495769143E+03 0.  0.
    9000005    1    3    3    0    0  0.63818940260E+02  0.96866942479E+01 -0.17579523622E+03  0.18727427548E+03  0.10000000000E+01 0.  0.
    9000005    1    3    3    0    0 -0.32081171748E+02  0.31114669332E+02 -0.16167116323E+02  0.47536300640E+02  0.10000000000E+01 0.  0.
          4    1    1    2  501    0 -0.31737768512E+02 -0.40801363580E+02  0.40466352327E+01  0.51865454561E+02  0.12700000000E+01 0. -1.
<mgrwt>
<rscale>  1 0.13522744E+03</rscale>
<asrwt>0</asrwt>
<pdfrwt beam="1">  1       21 0.75966857E-02 0.13522744E+03</pdfrwt>
<pdfrwt beam="2">  1        4 0.36508314E-01 0.13522744E+03</pdfrwt>
<totfact> 0.38705544E+04</totfact>
</mgrwt>
</event>
<event>
 6    4  0.6326233E-003  0.1281880E+03  0.7818608E-02  0.1230170E+00
          4   -1    0    0  502    0 -0.00000000000E+00  0.00000000000E+00  0.13992282583E+03  0.13992858924E+03  0.12700000000E+01 0. -1.
         21   -1    0    0  501  502  0.00000000000E+00 -0.00000000000E+00 -0.53636468997E+02  0.53636468997E+02  0.00000000000E+00 0.  1.
         25    2    1    2    0    0  0.26681777300E+02  0.97580419241E+01  0.99436174544E+02  0.16223348905E+03  0.12500006215E+03 0.  0.
    9000005    1    3    3    0    0  0.53827529838E+02 -0.35385276178E+02  0.21030006868E+02  0.67770066604E+02  0.10000000000E+01 0.  0.
    9000005    1    3    3    0    0 -0.27145752538E+02  0.45143318102E+02  0.78406167676E+02  0.94463422443E+02  0.10000000000E+01 0.  0.
          4    1    1    2  501    0 -0.26681777300E+02 -0.97580419241E+01 -0.13149817714E+02  0.31331569191E+02  0.12700000000E+01 0.  1.
<mgrwt>
<rscale>  1 0.12818796E+03</rscale>
<asrwt>0</asrwt>
<pdfrwt beam="2">  1       21 0.82517645E-02 0.12818796E+03</pdfrwt>
<pdfrwt beam="1">  1        4 0.21528188E-01 0.12818796E+03</pdfrwt>
<totfact> 0.89653403E+04</totfact>
</mgrwt>
</event>
<event>
 6    4  0.6326233E-003  0.1278086E+03  0.7818608E-02  0.1230744E+00
         21   -1    0    0  501  502  0.00000000000E+00  0.00000000000E+00  0.59851991529E+02  0.59851991529E+02  0.00000000000E+00 0. -1.
         -4   -1    0    0    0  501 -0.00000000000E+00 -0.00000000000E+00 -0.11772323121E+03  0.11773008140E+03  0.12700000000E+01 0. -1.
         25    2    1    2    0    0 -0.23246636672E+02  0.12983456075E+02 -0.72740478524E+02  0.14705858342E+03  0.12500429389E+03 0.  0.
    9000005    1    3    3    0    0  0.24563314610E+02 -0.33785686507E+02  0.76519980061E+01  0.42478019150E+02  0.10000000000E+01 0.  0.
    9000005    1    3    3    0    0 -0.47809951282E+02  0.46769142582E+02 -0.80392476530E+02  0.10458056427E+03  0.10000000000E+01 0.  0.
         -4    1    1    2    0  502  0.23246636672E+02 -0.12983456075E+02  0.14869238844E+02  0.30523489513E+02  0.12700000000E+01 0.  1.
<mgrwt>
<rscale>  1 0.12780865E+03</rscale>
<asrwt>0</asrwt>
<pdfrwt beam="1">  1       21 0.92079987E-02 0.12780865E+03</pdfrwt>
<pdfrwt beam="2">  1       -4 0.18112830E-01 0.12780865E+03</pdfrwt>
<totfact> 0.10103428E+05</totfact>
</mgrwt>
</event>
<event>
 6    4  0.6326233E-003  0.1316436E+03  0.7818608E-02  0.1225037E+00
         21   -1    0    0  501  502  0.00000000000E+00  0.00000000000E+00  0.17069913163E+03  0.17069913163E+03  0.00000000000E+00 0.  1.
         -4   -1    0    0    0  501 -0.00000000000E+00 -0.00000000000E+00 -0.10779622621E+03  0.10780370719E+03  0.12700000000E+01 0. -1.
         25    2    1    2    0    0  0.41014348147E+02 -0.48200006950E+01 -0.63037795806E+02  0.14595819620E+03  0.12499848870E+03 0.  0.
    9000005    1    3    3    0    0  0.33142962541E+02  0.40231210487E+02  0.16088506135E+02  0.54560482887E+02  0.10000000000E+01 0.  0.
    9000005    1    3    3    0    0  0.78713856056E+01 -0.45051211182E+02 -0.79126301941E+02  0.91397713315E+02  0.10000000000E+01 0.  0.
         -4    1    1    2    0  502 -0.41014348147E+02  0.48200006950E+01  0.12594070123E+03  0.13254464262E+03  0.12700000000E+01 0.  1.
<mgrwt>
<rscale>  1 0.13164358E+03</rscale>
<asrwt>0</asrwt>
<pdfrwt beam="1">  1       21 0.26261405E-01 0.13164358E+03</pdfrwt>
<pdfrwt beam="2">  1       -4 0.16584974E-01 0.13164358E+03</pdfrwt>
<totfact> 0.17738949E+04</totfact>
</mgrwt>
</event>
<event>
 6    4  0.6326233E-003  0.1270507E+03  0.7818608E-02  0.1231899E+00
         21   -1    0    0  501  502  0.00000000000E+00  0.00000000000E+00  0.20511893069E+04  0.20511893069E+04  0.00000000000E+00 0. -1.
          4   -1    0    0  502    0 -0.00000000000E+00 -0.00000000000E+00 -0.41076091050E+01  0.42994595660E+01  0.12700000000E+01 0.  1.
         25    2    1    2    0    0 -0.22673315498E+02 -0.13741104152E+01  0.98457576340E+03  0.99273929413E+03  0.12500361927E+03 0.  0.
    9000005    1    3    3    0    0  0.35170964663E+02 -0.38431314630E+02  0.27878274393E+03  0.28361026253E+03  0.10000000000E+01 0.  0.
    9000005    1    3    3    0    0 -0.57844280161E+02  0.37057204215E+02  0.70579301947E+03  0.70912903160E+03  0.10000000000E+01 0.  0.
          4    1    1    2  501    0  0.22673315498E+02  0.13741104152E+01  0.10625059344E+04  0.10627494723E+04  0.12700000000E+01 0. -1.
<mgrwt>
<rscale>  1 0.12705067E+03</rscale>
<asrwt>0</asrwt>
<pdfrwt beam="1">  1       21 0.31556679E+00 0.12705067E+03</pdfrwt>
<pdfrwt beam="2">  1        4 0.64672947E-03 0.12705067E+03</pdfrwt>
<totfact> 0.67961030E+03</totfact>
</mgrwt>
</event>
<event>
 6    4  0.6326233E-003  0.1346863E+03  0.7818608E-02  0.1220663E+00
          4   -1    0    0  502    0 -0.00000000000E+00  0.00000000000E+00  0.42980805849E+02  0.42999564782E+02  0.12700000000E+01 0.  1.
         21   -1    0    0  501  502  0.00000000000E+00 -0.00000000000E+00 -0.24756441335E+03  0.24756441335E+03  0.00000000000E+00 0. -1.
         25    2    1    2    0    0  0.95403052597E+01  0.49242474557E+02 -0.80959518299E+02  0.15714596190E+03  0.12499828404E+03 0.  0.
    9000005    1    3    3    0    0 -0.16751572334E+02 -0.37189704059E+02 -0.42614950227E+02  0.58997654585E+02  0.10000000000E+01 0.  0.
    9000005    1    3    3    0    0  0.26291877594E+02  0.86432178616E+02 -0.38344568072E+02  0.98148307313E+02  0.10000000000E+01 0.  0.
          4    1    1    2  501    0 -0.95403052597E+01 -0.49242474557E+02 -0.12362408920E+03  0.13341801623E+03  0.12700000000E+01 0. -1.
<mgrwt>
<rscale>  1 0.13468634E+03</rscale>
<asrwt>0</asrwt>
<pdfrwt beam="2">  1       21 0.38086833E-01 0.13468634E+03</pdfrwt>
<pdfrwt beam="1">  1        4 0.66141251E-02 0.13468634E+03</pdfrwt>
<totfact> 0.40944347E+04</totfact>
</mgrwt>
</event>
<event>
 6    4  0.6326233E-003  0.1268248E+03  0.7818608E-02  0.1232245E+00
          4   -1    0    0  502    0 -0.00000000000E+00  0.00000000000E+00  0.31783746663E+02  0.31809109575E+02  0.12700000000E+01 0. -1.
         21   -1    0    0  501  502  0.00000000000E+00 -0.00000000000E+00 -0.19316199823E+03  0.19316199823E+03  0.00000000000E+00 0. -1.
         25    2    1    2    0    0  0.19398827290E+02 -0.89867913006E+01 -0.10495896725E+03  0.16462356882E+03  0.12500983037E+03 0.  0.
    9000005    1    3    3    0    0  0.11132992378E+01  0.49080199955E+02 -0.89053939280E+02  0.10169419631E+03  0.10000000000E+01 0.  0.
    9000005    1    3    3    0    0  0.18285528052E+02 -0.58066991256E+02 -0.15905027968E+02  0.62929372509E+02  0.10000000000E+01 0.  0.
          4    1    1    2  501    0 -0.19398827290E+02  0.89867913006E+01 -0.56419284321E+02  0.60347538984E+02  0.12700000000E+01 0.  1.
<mgrwt>
<rscale>  1 0.12682482E+03</rscale>
<asrwt>0</asrwt>
<pdfrwt beam="2">  1       21 0.29717230E-01 0.12682482E+03</pdfrwt>
<pdfrwt beam="1">  1        4 0.48920795E-02 0.12682482E+03</pdfrwt>
<totfact> 0.10761447E+05</totfact>
</mgrwt>
</event>
<event>
 6    4  0.6326233E-003  0.1267646E+03  0.7818608E-02  0.1232337E+00
         21   -1    0    0  501  502  0.00000000000E+00  0.00000000000E+00  0.11056389827E+03  0.11056389827E+03  0.00000000000E+00 0. -1.
          4   -1    0    0  502    0 -0.00000000000E+00 -0.00000000000E+00 -0.67721553265E+02  0.67733460539E+02  0.12700000000E+01 0.  1.
         25    2    1    2    0    0 -0.11023055963E+02  0.18013950958E+02 -0.40751935239E+01  0.12683010210E+03  0.12499302942E+03 0.  0.
    9000005    1    3    3    0    0 -0.22608006963E+02 -0.51492154882E+02 -0.35247299606E+01  0.56355902216E+02  0.10000000000E+01 0.  0.
    9000005    1    3    3    0    0  0.11584951000E+02  0.69506105841E+02 -0.55046356335E+00  0.70474199881E+02  0.10000000000E+01 0.  0.
          4    1    1    2  501    0  0.11023055963E+02 -0.18013950958E+02  0.46917538527E+02  0.51467256711E+02  0.12700000000E+01 0. -1.
<mgrwt>
<rscale>  1 0.12676461E+03</rscale>
<asrwt>0</asrwt>
<pdfrwt beam="1">  1       21 0.17009830E-01 0.12676461E+03</pdfrwt>
<pdfrwt beam="2">  1        4 0.10420178E-01 0.12676461E+03</pdfrwt>
<totfact> 0.88220462E+04</totfact>
</mgrwt>
</event>
<event>
 6    4  0.6326233E-003  0.1561964E+03  0.7818608E-02  0.1193059E+00
         -4   -1    0    0    0  501 -0.00000000000E+00  0.00000000000E+00  0.53724609087E+03  0.53724759195E+03  0.12700000000E+01 0. -1.
         21   -1    0    0  501  502  0.00000000000E+00 -0.00000000000E+00 -0.15565443616E+03  0.15565443616E+03  0.00000000000E+00 0.  1.
         25    2    1    2    0    0  0.93446846152E+02 -0.63574223775E+01  0.51032622849E+03  0.53369482581E+03  0.12499831092E+03 0.  0.
    9000005    1    3    3    0    0  0.10293210408E+03 -0.39652190678E+02  0.28288514069E+03  0.30363187761E+03  0.10000000000E+01 0.  0.
    9000005    1    3    3    0    0 -0.94852579307E+01  0.33294768301E+02  0.22744108780E+03  0.23006294820E+03  0.10000000000E+01 0.  0.
         -4    1    1    2    0  502 -0.93446846152E+02  0.63574223775E+01 -0.12873457379E+03  0.15920720230E+03  0.12700000000E+01 0.  1.
<mgrwt>
<rscale>  1 0.15619638E+03</rscale>
<asrwt>0</asrwt>
<pdfrwt beam="2">  1       21 0.23946837E-01 0.15619638E+03</pdfrwt>
<pdfrwt beam="1">  1       -4 0.82653758E-01 0.15619638E+03</pdfrwt>
<totfact> 0.91033607E+02</totfact>
</mgrwt>
</event>
<event>
 6    4  0.6326233E-003  0.1274305E+03  0.7818608E-02  0.1231319E+00
         21   -1    0    0  501  502  0.00000000000E+00  0.00000000000E+00  0.76629670035E+02  0.76629670035E+02  0.00000000000E+00 0. -1.
          4   -1    0    0  502    0 -0.00000000000E+00 -0.00000000000E+00 -0.13283439689E+03  0.13284046785E+03  0.12700000000E+01 0.  1.
         25    2    1    2    0    0  0.17413489227E+00  0.24777275861E+02 -0.98074500277E+02  0.16080151813E+03  0.12499830761E+03 0.  0.
    9000005    1    3    3    0    0 -0.57946217223E+02 -0.11106829197E+02 -0.42158475324E+02  0.72522153767E+02  0.10000000000E+01 0.  0.
    9000005    1    3    3    0    0  0.58120352116E+02  0.35884105058E+02 -0.55916024953E+02  0.88279364363E+02  0.10000000000E+01 0.  0.
          4    1    1    2  501    0 -0.17413489227E+00 -0.24777275861E+02  0.41869773422E+02  0.48668619750E+02  0.12700000000E+01 0. -1.
<mgrwt>
<rscale>  1 0.12743045E+03</rscale>
<asrwt>0</asrwt>
<pdfrwt beam="1">  1       21 0.11789180E-01 0.12743045E+03</pdfrwt>
<pdfrwt beam="2">  1        4 0.20437337E-01 0.12743045E+03</pdfrwt>
<totfact> 0.52754872E+04</totfact>
</mgrwt>
</event>
<event>
 6    4  0.6326233E-003  0.1329202E+03  0.7818608E-02  0.1223186E+00
          4   -1    0    0  502    0 -0.00000000000E+00  0.00000000000E+00  0.74418828299E+02  0.74429664150E+02  0.12700000000E+01 0. -1.
         21   -1    0    0  501  502  0.00000000000E+00 -0.00000000000E+00 -0.15074265285E+03  0.15074265285E+03  0.00000000000E+00 0.  1.
         25    2    1    2    0    0 -0.33091323598E+02  0.30796481800E+02  0.40141999957E+01  0.13298083108E+03  0.12499731454E+03 0.  0.
    9000005    1    3    3    0    0  0.17374672975E+01 -0.43281809146E+02 -0.19923294214E+02  0.47689322158E+02  0.10000000000E+01 0.  0.
    9000005    1    3    3    0    0 -0.34828790896E+02  0.74078290945E+02  0.23937494209E+02  0.85291508919E+02  0.10000000000E+01 0.  0.
          4    1    1    2  501    0  0.33091323598E+02 -0.30796481800E+02 -0.80338024545E+02  0.92191485922E+02  0.12700000000E+01 0.  1.
<mgrwt>
<rscale>  1 0.13292023E+03</rscale>
<asrwt>0</asrwt>
<pdfrwt beam="2">  1       21 0.23191177E-01 0.13292023E+03</pdfrwt>
<pdfrwt beam="1">  1        4 0.11450296E-01 0.13292023E+03</pdfrwt>
<totfact> 0.42652787E+04</totfact>
</mgrwt>
</event>
<event>
 6    4  0.6326233E-003  0.1314801E+03  0.7818608E-02  0.1225276E+00
         21   -1    0    0  501  502  0.00000000000E+00  0.00000000000E+00  0.19500865708E+03  0.19500865708E+03  0.00000000000E+00 0.  1.
         -4   -1    0    0    0  501 -0.00000000000E+00 -0.00000000000E+00 -0.41431740397E+02  0.41451200373E+02  0.12700000000E+01 0.  1.
         25    2    1    2    0    0  0.14873626203E+02 -0.37950699259E+02  0.84653280250E+02  0.15637514674E+03  0.12500211330E+03 0.  0.
    9000005    1    3    3    0    0 -0.39421791178E+02 -0.59938174322E+02  0.56774452191E+02  0.91493173419E+02  0.10000000000E+01 0.  0.
    9000005    1    3    3    0    0  0.54295417381E+02  0.21987475064E+02  0.27878828059E+02  0.64881973322E+02  0.10000000000E+01 0.  0.
         -4    1    1    2    0  502 -0.14873626203E+02  0.37950699259E+02  0.68923636433E+02  0.80084710712E+02  0.12700000000E+01 0. -1.
<mgrwt>
<rscale>  1 0.13148007E+03</rscale>
<asrwt>0</asrwt>
<pdfrwt beam="1">  1       21 0.30001331E-01 0.13148007E+03</pdfrwt>
<pdfrwt beam="2">  1       -4 0.63759290E-02 0.13148007E+03</pdfrwt>
<totfact> 0.69174559E+04</totfact>
</mgrwt>
</event>
<event>
 6    4  0.6326233E-003  0.1286832E+03  0.7818608E-02  0.1229423E+00
          4   -1    0    0  502    0 -0.00000000000E+00  0.00000000000E+00  0.33017824288E+03  0.33018068534E+03  0.12700000000E+01 0.  1.
         21   -1    0    0  501  502  0.00000000000E+00 -0.00000000000E+00 -0.80491880905E+02  0.80491880905E+02  0.00000000000E+00 0. -1.
         25    2    1    2    0    0 -0.24952884252E+02 -0.17658898099E+02  0.31405836959E+03  0.33939949014E+03  0.12499948514E+03 0.  0.
    9000005    1    3    3    0    0  0.24862444491E+02  0.42894611308E+02  0.10509922992E+03  0.11621074372E+03  0.10000000000E+01 0.  0.
    9000005    1    3    3    0    0 -0.49815328743E+02 -0.60553509408E+02  0.20895913966E+03  0.22318874642E+03  0.10000000000E+01 0.  0.
          4    1    1    2  501    0  0.24952884252E+02  0.17658898099E+02 -0.64372007608E+02  0.71273076110E+02  0.12700000000E+01 0. -1.
<mgrwt>
<rscale>  1 0.12868316E+03</rscale>
<asrwt>0</asrwt>
<pdfrwt beam="2">  1       21 0.12383367E-01 0.12868316E+03</pdfrwt>
<pdfrwt beam="1">  1        4 0.50797610E-01 0.12868316E+03</pdfrwt>
<totfact> 0.84999237E+03</totfact>
</mgrwt>
</event>
<event>
 6    4  0.6326233E-003  0.1268249E+03  0.7818608E-02  0.1232245E+00
          4   -1    0    0  502    0 -0.00000000000E+00  0.00000000000E+00  0.33642611784E+02  0.33666574338E+02  0.12700000000E+01 0.  1.
         21   -1    0    0  501  502  0.00000000000E+00 -0.00000000000E+00 -0.16688710859E+03  0.16688710859E+03  0.00000000000E+00 0.  1.
         25    2    1    2    0    0  0.19936443498E+02  0.79656981137E+01 -0.10267498547E+03  0.16317692479E+03  0.12499456795E+03 0.  0.
    9000005    1    3    3    0    0  0.12483852895E+02  0.65360784990E+02 -0.70504923748E+02  0.96952684699E+02  0.10000000000E+01 0.  0.
    9000005    1    3    3    0    0  0.74525906035E+01 -0.57395086877E+02 -0.32170061725E+02  0.66224240091E+02  0.10000000000E+01 0.  0.
          4    1    1    2  501    0 -0.19936443498E+02 -0.79656981137E+01 -0.30569511335E+02  0.37376758140E+02  0.12700000000E+01 0. -1.
<mgrwt>
<rscale>  1 0.12682490E+03</rscale>
<asrwt>0</asrwt>
<pdfrwt beam="2">  1       21 0.25674940E-01 0.12682490E+03</pdfrwt>
<pdfrwt beam="1">  1        4 0.51780014E-02 0.12682490E+03</pdfrwt>
<totfact> 0.12987605E+05</totfact>
</mgrwt>
</event>
<event>
 6    4  0.6326233E-003  0.1303117E+03  0.7818608E-02  0.1226994E+00
          4   -1    0    0  502    0 -0.00000000000E+00  0.00000000000E+00  0.35821343530E+03  0.35821568660E+03  0.12700000000E+01 0.  1.
         21   -1    0    0  501  502  0.00000000000E+00 -0.00000000000E+00 -0.35374381599E+02  0.35374381599E+02  0.00000000000E+00 0.  1.
         25    2    1    2    0    0 -0.21875506455E+02  0.29621849233E+02  0.91239543641E+02  0.15907794124E+03  0.12500058132E+03 0.  0.
    9000005    1    3    3    0    0 -0.68475751030E+02  0.20454694384E+01  0.77022728970E+02  0.10308546552E+03  0.10000000000E+01 0.  0.
    9000005    1    3    3    0    0  0.46600244575E+02  0.27576379795E+02  0.14216814671E+02  0.55992475713E+02  0.10000000000E+01 0.  0.
          4    1    1    2  501    0  0.21875506455E+02 -0.29621849233E+02  0.23159951006E+03  0.23451212696E+03  0.12700000000E+01 0. -1.
<mgrwt>
<rscale>  1 0.13031169E+03</rscale>
<asrwt>0</asrwt>
<pdfrwt beam="2">  1       21 0.54422128E-02 0.13031169E+03</pdfrwt>
<pdfrwt beam="1">  1        4 0.55111684E-01 0.13031169E+03</pdfrwt>
<totfact> 0.29819416E+04</totfact>
</mgrwt>
</event>
<event>
 6    4  0.6326233E-003  0.1780754E+03  0.7818608E-02  0.1169679E+00
         -4   -1    0    0    0  501 -0.00000000000E+00  0.00000000000E+00  0.17342141293E+03  0.17342606310E+03  0.12700000000E+01 0. -1.
         21   -1    0    0  501  502  0.00000000000E+00 -0.00000000000E+00 -0.20115846010E+03  0.20115846010E+03  0.00000000000E+00 0.  1.
         25    2    1    2    0    0  0.11171778073E+03 -0.60021846893E+02  0.91762976821E+02  0.20032795010E+03  0.12500943581E+03 0.  0.
    9000005    1    3    3    0    0 -0.42992810469E+01  0.26969779346E+02 -0.23872890337E+01  0.27432680591E+02  0.10000000000E+01 0.  0.
    9000005    1    3    3    0    0  0.11601706177E+03 -0.86991626239E+02  0.94150265855E+02  0.17289526951E+03  0.10000000000E+01 0.  0.
         -4    1    1    2    0  502 -0.11171778073E+03  0.60021846893E+02 -0.11950002399E+03  0.17425657310E+03  0.12700000000E+01 0.  1.
<mgrwt>
<rscale>  1 0.17807539E+03</rscale>
<asrwt>0</asrwt>
<pdfrwt beam="2">  1       21 0.30947455E-01 0.17807539E+03</pdfrwt>
<pdfrwt beam="1">  1       -4 0.26680884E-01 0.17807539E+03</pdfrwt>
<totfact> 0.55741001E+03</totfact>
</mgrwt>
</event>
<event>
 6    4  0.6326233E-003  0.1266009E+03  0.7818608E-02  0.1232588E+00
         -4   -1    0    0    0  501 -0.00000000000E+00  0.00000000000E+00  0.18840153080E+02  0.18882909418E+02  0.12700000000E+01 0.  1.
         21   -1    0    0  501  502  0.00000000000E+00 -0.00000000000E+00 -0.32973114102E+03  0.32973114102E+03  0.00000000000E+00 0.  1.
         25    2    1    2    0    0  0.18833737466E+02  0.69065778560E+01 -0.30029714280E+03  0.32589285021E+03  0.12500146144E+03 0.  0.
    9000005    1    3    3    0    0  0.15334445822E+02  0.65330928320E+02 -0.14037174387E+03  0.15559081560E+03  0.10000000000E+01 0.  0.
    9000005    1    3    3    0    0  0.34992916436E+01 -0.58424350464E+02 -0.15992539893E+03  0.17030203461E+03  0.10000000000E+01 0.  0.
         -4    1    1    2    0  502 -0.18833737466E+02 -0.69065778560E+01 -0.10593845138E+02  0.22721200220E+02  0.12700000000E+01 0. -1.
<mgrwt>
<rscale>  1 0.12660085E+03</rscale>
<asrwt>0</asrwt>
<pdfrwt beam="2">  1       21 0.50727867E-01 0.12660085E+03</pdfrwt>
<pdfrwt beam="1">  1       -4 0.29019622E-02 0.12660085E+03</pdfrwt>
<totfact> 0.84698806E+04</totfact>
</mgrwt>
</event>
<event>
 6    4  0.6326233E-003  0.1297628E+03  0.7818608E-02  0.1227808E+00
         21   -1    0    0  501  502  0.00000000000E+00  0.00000000000E+00  0.89092577663E+02  0.89092577663E+02  0.00000000000E+00 0.  1.
          4   -1    0    0  502    0 -0.00000000000E+00 -0.00000000000E+00 -0.84447876357E+02  0.84457425495E+02  0.12700000000E+01 0.  1.
         25    2    1    2    0    0 -0.33530238289E+02 -0.94417855648E+01 -0.19398578899E+02  0.13120479779E+03  0.12499987963E+03 0.  0.
    9000005    1    3    3    0    0 -0.21244839881E+01 -0.38860182603E+02  0.41323701382E+02  0.56773898229E+02  0.10000000000E+01 0.  0.
    9000005    1    3    3    0    0 -0.31405754301E+02  0.29418397038E+02 -0.60722280281E+02  0.74430899565E+02  0.10000000000E+01 0.  0.
          4    1    1    2  501    0  0.33530238289E+02  0.94417855648E+01  0.24043280205E+02  0.42345205365E+02  0.12700000000E+01 0. -1.
<mgrwt>
<rscale>  1 0.12976284E+03</rscale>
<asrwt>0</asrwt>
<pdfrwt beam="1">  1       21 0.13706551E-01 0.12976284E+03</pdfrwt>
<pdfrwt beam="2">  1        4 0.12993412E-01 0.12976284E+03</pdfrwt>
<totfact> 0.89723703E+04</totfact>
</mgrwt>
</event>
<event>
 6    4  0.6326233E-003  0.1279468E+03  0.7818608E-02  0.1230534E+00
         21   -1    0    0  501  502  0.00000000000E+00  0.00000000000E+00  0.95685482166E+03  0.95685482166E+03  0.00000000000E+00 0.  1.
         -4   -1    0    0    0  501 -0.00000000000E+00 -0.00000000000E+00 -0.82934847065E+01  0.83901602235E+01  0.12700000000E+01 0. -1.
         25    2    1    2    0    0  0.19295380966E+02 -0.19288687441E+02  0.50895447289E+03  0.52479047456E+03  0.12500408603E+03 0.  0.
    9000005    1    3    3    0    0  0.70681725434E+02 -0.15181898613E+02  0.35932572784E+03  0.36652745469E+03  0.10000000000E+01 0.  0.
    9000005    1    3    3    0    0 -0.51386344468E+02 -0.41067888274E+01  0.14962874505E+03  0.15826301987E+03  0.10000000000E+01 0.  0.
         -4    1    1    2    0  502 -0.19295380966E+02  0.19288687441E+02  0.43960686407E+03  0.44045450733E+03  0.12700000000E+01 0.  1.
<mgrwt>
<rscale>  1 0.12794681E+03</rscale>
<asrwt>0</asrwt>
<pdfrwt beam="1">  1       21 0.14720835E+00 0.12794681E+03</pdfrwt>
<pdfrwt beam="2">  1       -4 0.12834229E-02 0.12794681E+03</pdfrwt>
<totfact> 0.26047919E+04</totfact>
</mgrwt>
</event>
<event>
 6    4  0.6326233E-003  0.1314146E+03  0.7818608E-02  0.1225372E+00
         21   -1    0    0  501  502  0.00000000000E+00  0.00000000000E+00  0.39784580031E+02  0.39784580031E+02  0.00000000000E+00 0. -1.
         -4   -1    0    0    0  501 -0.00000000000E+00 -0.00000000000E+00 -0.10812792767E+04  0.10812800225E+04  0.12700000000E+01 0.  1.
         25    2    1    2    0    0  0.39155273821E+02  0.10471144589E+02 -0.10657442852E+04  0.10738159435E+04  0.12500807443E+03 0.  0.
    9000005    1    3    3    0    0 -0.24440895638E+02  0.25283470734E+02 -0.10266819242E+03  0.10852819453E+03  0.10000000000E+01 0.  0.
    9000005    1    3    3    0    0  0.63596169459E+02 -0.14812326144E+02 -0.96307609278E+03  0.96528774894E+03  0.10000000000E+01 0.  0.
         -4    1    1    2    0  502 -0.39155273821E+02 -0.10471144589E+02  0.24249588567E+02  0.47248659057E+02  0.12700000000E+01 0. -1.
<mgrwt>
<rscale>  1 0.13141461E+03</rscale>
<asrwt>0</asrwt>
<pdfrwt beam="1">  1       21 0.61207062E-02 0.13141461E+03</pdfrwt>
<pdfrwt beam="2">  1       -4 0.16635223E+00 0.13141461E+03</pdfrwt>
<totfact> 0.19140792E+03</totfact>
</mgrwt>
</event>
<event>
 6    4  0.6326233E-003  0.1352856E+03  0.7818608E-02  0.1219817E+00
         21   -1    0    0  501  502  0.00000000000E+00  0.00000000000E+00  0.25941228804E+02  0.25941228804E+02  0.00000000000E+00 0. -1.
          4   -1    0    0  502    0 -0.00000000000E+00 -0.00000000000E+00 -0.37822367297E+03  0.37822580517E+03  0.12700000000E+01 0. -1.
         25    2    1    2    0    0  0.35316124517E+02  0.37851822073E+02 -0.30656961400E+03  0.33509269122E+03  0.12498877707E+03 0.  0.
    9000005    1    3    3    0    0  0.51801218345E+02 -0.33710302941E+02 -0.14363583202E+03  0.15637136242E+03  0.10000000000E+01 0.  0.
    9000005    1    3    3    0    0 -0.16485093828E+02  0.71562125014E+02 -0.16293378198E+03  0.17872132880E+03  0.10000000000E+01 0.  0.
          4    1    1    2  501    0 -0.35316124517E+02 -0.37851822073E+02 -0.45712830161E+02  0.69074342751E+02  0.12700000000E+01 0.  1.
<mgrwt>
<rscale>  1 0.13528556E+03</rscale>
<asrwt>0</asrwt>
<pdfrwt beam="1">  1       21 0.39909586E-02 0.13528556E+03</pdfrwt>
<pdfrwt beam="2">  1        4 0.58190808E-01 0.13528556E+03</pdfrwt>
<totfact> 0.44978983E+04</totfact>
</mgrwt>
</event>
<event>
 6    4  0.6326233E-003  0.1272432E+03  0.7818608E-02  0.1231605E+00
         21   -1    0    0  501  502  0.00000000000E+00  0.00000000000E+00  0.27196431869E+02  0.27196431869E+02  0.00000000000E+00 0. -1.
         -4   -1    0    0    0  501 -0.00000000000E+00 -0.00000000000E+00 -0.24095882816E+03  0.24096217498E+03  0.12700000000E+01 0. -1.
         25    2    1    2    0    0 -0.82444831497E+01  0.22312116595E+02 -0.20770173826E+03  0.24357921456E+03  0.12500007856E+03 0.  0.
    9000005    1    3    3    0    0 -0.28749890990E+02  0.18632954571E+01 -0.21229308851E+03  0.21424141414E+03  0.10000000000E+01 0.  0.
    9000005    1    3    3    0    0  0.20505407840E+02  0.20448821138E+02  0.45913502471E+01  0.29337800424E+02  0.10000000000E+01 0.  0.
         -4    1    1    2    0  502  0.82444831497E+01 -0.22312116595E+02 -0.60606580301E+01  0.24579392286E+02  0.12700000000E+01 0.  1.
<mgrwt>
<rscale>  1 0.12724316E+03</rscale>
<asrwt>0</asrwt>
<pdfrwt beam="1">  1       21 0.41840664E-02 0.12724316E+03</pdfrwt>
<pdfrwt beam="2">  1       -4 0.37073128E-01 0.12724316E+03</pdfrwt>
<totfact> 0.10218704E+05</totfact>
</mgrwt>
</event>
<event>
 6    4  0.6326233E-003  0.1291067E+03  0.7818608E-02  0.1228787E+00
         21   -1    0    0  501  502  0.00000000000E+00  0.00000000000E+00  0.10607300722E+03  0.10607300722E+03  0.00000000000E+00 0. -1.
         -4   -1    0    0    0  501 -0.00000000000E+00 -0.00000000000E+00 -0.64081094116E+02  0.64093677715E+02  0.12700000000E+01 0. -1.
         25    2    1    2    0    0  0.17695631790E+02 -0.27033087460E+02  0.19014553321E+02  0.13049937894E+03  0.12499844585E+03 0.  0.
    9000005    1    3    3    0    0  0.46293595093E+02 -0.50491483370E+02  0.47869858208E+02  0.83576373243E+02  0.10000000000E+01 0.  0.
    9000005    1    3    3    0    0 -0.28597963303E+02  0.23458395911E+02 -0.28855304887E+02  0.46923005700E+02  0.10000000000E+01 0.  0.
         -4    1    1    2    0  502 -0.17695631790E+02  0.27033087460E+02  0.22977359783E+02  0.39667305992E+02  0.12700000000E+01 0.  1.
<mgrwt>
<rscale>  1 0.12910668E+03</rscale>
<asrwt>0</asrwt>
<pdfrwt beam="1">  1       21 0.16318924E-01 0.12910668E+03</pdfrwt>
<pdfrwt beam="2">  1       -4 0.98601826E-02 0.12910668E+03</pdfrwt>
<totfact> 0.10466929E+05</totfact>
</mgrwt>
</event>
<event>
 6    4  0.6326233E-003  0.1268906E+03  0.7818608E-02  0.1232144E+00
         -4   -1    0    0    0  501 -0.00000000000E+00  0.00000000000E+00  0.72716688292E+01  0.73817387899E+01  0.12700000000E+01 0.  1.
         21   -1    0    0  501  502  0.00000000000E+00 -0.00000000000E+00 -0.77413889218E+03  0.77413889218E+03  0.00000000000E+00 0.  1.
         25    2    1    2    0    0 -0.14209882775E+02 -0.16549929758E+02 -0.60325801779E+03  0.61645880622E+03  0.12500161120E+03 0.  0.
    9000005    1    3    3    0    0 -0.23571007018E+02  0.24452328429E+02 -0.43862313003E+02  0.55483432116E+02  0.10000000000E+01 0.  0.
    9000005    1    3    3    0    0  0.93611242424E+01 -0.41002258187E+02 -0.55939570479E+03  0.56097537411E+03  0.10000000000E+01 0.  0.
         -4    1    1    2    0  502  0.14209882775E+02  0.16549929758E+02 -0.16360920556E+03  0.16506182474E+03  0.12700000000E+01 0. -1.
<mgrwt>
<rscale>  1 0.12689060E+03</rscale>
<asrwt>0</asrwt>
<pdfrwt beam="2">  1       21 0.11909830E+00 0.12689060E+03</pdfrwt>
<pdfrwt beam="1">  1       -4 0.11272652E-02 0.12689060E+03</pdfrwt>
<totfact> 0.53823194E+04</totfact>
</mgrwt>
</event>
<event>
 6    4  0.6326233E-003  0.1268227E+03  0.7818608E-02  0.1232248E+00
          4   -1    0    0  502    0 -0.00000000000E+00  0.00000000000E+00  0.18412177308E+03  0.18412615301E+03  0.12700000000E+01 0. -1.
         21   -1    0    0  501  502  0.00000000000E+00 -0.00000000000E+00 -0.44193161740E+02  0.44193161740E+02  0.00000000000E+00 0. -1.
         25    2    1    2    0    0  0.96435588160E+01 -0.18844459484E+02  0.15647870406E+03  0.20141893652E+03  0.12504355755E+03 0.  0.
    9000005    1    3    3    0    0  0.37277138006E+02  0.41218580755E+02  0.43781107430E+02  0.70755507101E+02  0.10000000000E+01 0.  0.
    9000005    1    3    3    0    0 -0.27633579190E+02 -0.60063040239E+02  0.11269759663E+03  0.13066342942E+03  0.10000000000E+01 0.  0.
          4    1    1    2  501    0 -0.96435588160E+01  0.18844459484E+02 -0.16550092719E+02  0.26900378230E+02  0.12700000000E+01 0.  1.
<mgrwt>
<rscale>  1 0.12682272E+03</rscale>
<asrwt>0</asrwt>
<pdfrwt beam="2">  1       21 0.67989481E-02 0.12682272E+03</pdfrwt>
<pdfrwt beam="1">  1        4 0.28328167E-01 0.12682272E+03</pdfrwt>
<totfact> 0.75299730E+04</totfact>
</mgrwt>
</event>
<event>
 6    4  0.6326233E-003  0.1269428E+03  0.7818608E-02  0.1232064E+00
         -4   -1    0    0    0  501 -0.00000000000E+00  0.00000000000E+00  0.67475637614E+02  0.67487588277E+02  0.12700000000E+01 0. -1.
         21   -1    0    0  501  502  0.00000000000E+00 -0.00000000000E+00 -0.39743926498E+03  0.39743926498E+03  0.00000000000E+00 0.  1.
         25    2    1    2    0    0 -0.65074900499E+01  0.21155519757E+02  0.70940405310E+01  0.12714084432E+03  0.12499826175E+03 0.  0.
    9000005    1    3    3    0    0  0.36637832831E+02  0.33600266431E+02  0.45985776243E+02  0.67727397082E+02  0.10000000000E+01 0.  0.
    9000005    1    3    3    0    0 -0.43145322881E+02 -0.12444746675E+02 -0.38891735712E+02  0.59413447241E+02  0.10000000000E+01 0.  0.
         -4    1    1    2    0  502  0.65074900499E+01 -0.21155519757E+02 -0.33705766789E+03  0.33778600893E+03  0.12700000000E+01 0.  1.
<mgrwt>
<rscale>  1 0.12694278E+03</rscale>
<asrwt>0</asrwt>
<pdfrwt beam="2">  1       21 0.61144502E-01 0.12694278E+03</pdfrwt>
<pdfrwt beam="1">  1       -4 0.10381943E-01 0.12694278E+03</pdfrwt>
<totfact> 0.72844892E+03</totfact>
</mgrwt>
</event>
<event>
 6    4  0.6326233E-003  0.1359601E+03  0.7818608E-02  0.1218871E+00
         21   -1    0    0  501  502  0.00000000000E+00  0.00000000000E+00  0.32652407235E+03  0.32652407235E+03  0.00000000000E+00 0. -1.
         -4   -1    0    0    0  501 -0.00000000000E+00 -0.00000000000E+00 -0.83478409295E+02  0.83488069318E+02  0.12700000000E+01 0.  1.
         25    2    1    2    0    0 -0.12807838343E+02  0.51869107893E+02 -0.23661205803E+02  0.13800366409E+03  0.12502285218E+03 0.  0.
    9000005    1    3    3    0    0  0.35325882511E+02  0.72688652364E+02 -0.27590672069E+02  0.85403766561E+02  0.10000000000E+01 0.  0.
    9000005    1    3    3    0    0 -0.48133720853E+02 -0.20819544471E+02  0.39294662652E+01  0.52599897531E+02  0.10000000000E+01 0.  0.
         -4    1    1    2    0  502  0.12807838343E+02 -0.51869107893E+02  0.26670686886E+03  0.27200847758E+03  0.12700000000E+01 0. -1.
<mgrwt>
<rscale>  1 0.13596014E+03</rscale>
<asrwt>0</asrwt>
<pdfrwt beam="1">  1       21 0.50234472E-01 0.13596014E+03</pdfrwt>
<pdfrwt beam="2">  1       -4 0.12843765E-01 0.13596014E+03</pdfrwt>
<totfact> 0.76908432E+03</totfact>
</mgrwt>
</event>
<event>
 6    4  0.6326233E-003  0.1301902E+03  0.7818608E-02  0.1227174E+00
         -4   -1    0    0    0  501 -0.00000000000E+00  0.00000000000E+00  0.51920827577E+03  0.51920982900E+03  0.12700000000E+01 0.  1.
         21   -1    0    0  501  502  0.00000000000E+00 -0.00000000000E+00 -0.18440564041E+02  0.18440564041E+02  0.00000000000E+00 0. -1.
         25    2    1    2    0    0 -0.16851143678E+02  0.32267661154E+02  0.47629537198E+03  0.49376792145E+03  0.12499726352E+03 0.  0.
    9000005    1    3    3    0    0 -0.31286512922E+02  0.53689775867E+01  0.45598075536E+03  0.45708546364E+03  0.10000000000E+01 0.  0.
    9000005    1    3    3    0    0  0.14435369243E+02  0.26898683567E+02  0.20314616617E+02  0.36682457812E+02  0.10000000000E+01 0.  0.
         -4    1    1    2    0  502  0.16851143678E+02 -0.32267661154E+02  0.24472339748E+02  0.43882471584E+02  0.12700000000E+01 0. -1.
<mgrwt>
<rscale>  1 0.13019016E+03</rscale>
<asrwt>0</asrwt>
<pdfrwt beam="2">  1       21 0.28370103E-02 0.13019016E+03</pdfrwt>
<pdfrwt beam="1">  1       -4 0.79881669E-01 0.13019016E+03</pdfrwt>
<totfact> 0.39807132E+04</totfact>
</mgrwt>
</event>
<event>
 6    4  0.6326233E-003  0.1354406E+03  0.7818608E-02  0.1219599E+00
         -4   -1    0    0    0  501 -0.00000000000E+00  0.00000000000E+00  0.19170901828E+03  0.19171322487E+03  0.12700000000E+01 0.  1.
         21   -1    0    0  501  502  0.00000000000E+00 -0.00000000000E+00 -0.73025447198E+02  0.73025447198E+02  0.00000000000E+00 0. -1.
         25    2    1    2    0    0 -0.14076278395E+02  0.50212225439E+02  0.15141863556E+03  0.20315453009E+03  0.12499900282E+03 0.  0.
    9000005    1    3    3    0    0 -0.13504965728E+02 -0.36202989287E+01 -0.19465813347E+02  0.23987675021E+02  0.10000000000E+01 0.  0.
    9000005    1    3    3    0    0 -0.57131266660E+00  0.53832524368E+02  0.17088444890E+03  0.17916685507E+03  0.10000000000E+01 0.  0.
         -4    1    1    2    0  502  0.14076278395E+02 -0.50212225439E+02 -0.32735064475E+02  0.61584141978E+02  0.12700000000E+01 0. -1.
<mgrwt>
<rscale>  1 0.13544061E+03</rscale>
<asrwt>0</asrwt>
<pdfrwt beam="2">  1       21 0.11234684E-01 0.13544061E+03</pdfrwt>
<pdfrwt beam="1">  1       -4 0.29494868E-01 0.13544061E+03</pdfrwt>
<totfact> 0.29441910E+04</totfact>
</mgrwt>
</event>
<event>
 6    4  0.6326233E-003  0.1326159E+03  0.7818608E-02  0.1223625E+00
         21   -1    0    0  501  502  0.00000000000E+00  0.00000000000E+00  0.72012809230E+02  0.72012809230E+02  0.00000000000E+00 0. -1.
          4   -1    0    0  502    0 -0.00000000000E+00 -0.00000000000E+00 -0.48151184458E+03  0.48151351940E+03  0.12700000000E+01 0.  1.
         25    2    1    2    0    0  0.22450142830E+02 -0.38174843317E+02 -0.46440801917E+03  0.48297183211E+03  0.12500261905E+03 0.  0.
    9000005    1    3    3    0    0  0.62467453979E+02 -0.47215409876E+02 -0.39197726178E+03  0.39972321860E+03  0.10000000000E+01 0.  0.
    9000005    1    3    3    0    0 -0.40017311149E+02  0.90405665592E+01 -0.72430757391E+02  0.83248613512E+02  0.10000000000E+01 0.  0.
          4    1    1    2  501    0 -0.22450142830E+02  0.38174843317E+02  0.54908983821E+02  0.70554496523E+02  0.12700000000E+01 0. -1.
<mgrwt>
<rscale>  1 0.13261592E+03</rscale>
<asrwt>0</asrwt>
<pdfrwt beam="1">  1       21 0.11078894E-01 0.13261592E+03</pdfrwt>
<pdfrwt beam="2">  1        4 0.74079733E-01 0.13261592E+03</pdfrwt>
<totfact> 0.46852604E+03</totfact>
</mgrwt>
</event>
<event>
 6    4  0.6326233E-003  0.1267073E+03  0.7818608E-02  0.1232425E+00
          4   -1    0    0  502    0 -0.00000000000E+00  0.00000000000E+00  0.83333654803E+01  0.84295836331E+01  0.12700000000E+01 0.  1.
         21   -1    0    0  501  502  0.00000000000E+00 -0.00000000000E+00 -0.65261704063E+03  0.65261704063E+03  0.00000000000E+00 0.  1.
         25    2    1    2    0    0  0.18994442712E+02  0.83294750442E+01 -0.53444227918E+03  0.54925702646E+03  0.12499824931E+03 0.  0.
    9000005    1    3    3    0    0  0.65085262169E+02 -0.24822669149E+02 -0.31175442168E+03  0.31944338417E+03  0.10000000000E+01 0.  0.
    9000005    1    3    3    0    0 -0.46090819457E+02  0.33152144193E+02 -0.22268785750E+03  0.22981364229E+03  0.10000000000E+01 0.  0.
          4    1    1    2  501    0 -0.18994442712E+02 -0.83294750442E+01 -0.10984139597E+03  0.11178959780E+03  0.12700000000E+01 0. -1.
<mgrwt>
<rscale>  1 0.12670727E+03</rscale>
<asrwt>0</asrwt>
<pdfrwt beam="2">  1       21 0.10040264E+00 0.12670727E+03</pdfrwt>
<pdfrwt beam="1">  1        4 0.12895525E-02 0.12670727E+03</pdfrwt>
<totfact> 0.65990211E+04</totfact>
</mgrwt>
</event>
<event>
 6    4  0.6326233E-003  0.1267288E+03  0.7818608E-02  0.1232392E+00
         -4   -1    0    0    0  501 -0.00000000000E+00  0.00000000000E+00  0.19212952621E+01  0.23031012753E+01  0.12700000000E+01 0. -1.
         21   -1    0    0  501  502  0.00000000000E+00 -0.00000000000E+00 -0.25708347636E+04  0.25708347636E+04  0.00000000000E+00 0. -1.
         25    2    1    2    0    0 -0.20027238191E+02  0.48080751697E+01 -0.22236085569E+04  0.22272169164E+04  0.12504387374E+03 0.  0.
    9000005    1    3    3    0    0 -0.23889570774E+01 -0.13381473019E+02 -0.25097879542E+02  0.28560015644E+02  0.10000000000E+01 0.  0.
    9000005    1    3    3    0    0 -0.17638281114E+02  0.18189548189E+02 -0.21985106774E+04  0.21986569007E+04  0.10000000000E+01 0.  0.
         -4    1    1    2    0  502  0.20027238191E+02 -0.48080751697E+01 -0.34530491147E+03  0.34592094855E+03  0.12700000000E+01 0.  1.
<mgrwt>
<rscale>  1 0.12672876E+03</rscale>
<asrwt>0</asrwt>
<pdfrwt beam="2">  1       21 0.39551232E+00 0.12672876E+03</pdfrwt>
<pdfrwt beam="1">  1       -4 0.32497830E-03 0.12672876E+03</pdfrwt>
<totfact> 0.64265882E+03</totfact>
</mgrwt>
</event>
<event>
 6    4  0.6326233E-003  0.1285988E+03  0.7818608E-02  0.1229550E+00
          4   -1    0    0  502    0 -0.00000000000E+00  0.00000000000E+00  0.21594494829E+02  0.21631807759E+02  0.12700000000E+01 0. -1.
         21   -1    0    0  501  502  0.00000000000E+00 -0.00000000000E+00 -0.49766089008E+03  0.49766089008E+03  0.00000000000E+00 0. -1.
         25    2    1    2    0    0 -0.28216879547E+02  0.10880434091E+02 -0.17746378806E+03  0.21915988381E+03  0.12499232961E+03 0.  0.
    9000005    1    3    3    0    0  0.37736167964E+02  0.41174451859E+02 -0.82522383448E+02  0.99650878714E+02  0.10000000000E+01 0.  0.
    9000005    1    3    3    0    0 -0.65953047511E+02 -0.30294017768E+02 -0.94941404613E+02  0.11950900509E+03  0.10000000000E+01 0.  0.
          4    1    1    2  501    0  0.28216879547E+02 -0.10880434091E+02 -0.29860260719E+03  0.30013281403E+03  0.12700000000E+01 0.  1.
<mgrwt>
<rscale>  1 0.12859883E+03</rscale>
<asrwt>0</asrwt>
<pdfrwt beam="2">  1       21 0.76563209E-01 0.12859883E+03</pdfrwt>
<pdfrwt beam="1">  1        4 0.33252251E-02 0.12859883E+03</pdfrwt>
<totfact> 0.28428863E+04</totfact>
</mgrwt>
</event>
<event>
 6    4  0.6326233E-003  0.1380434E+03  0.7818608E-02  0.1215986E+00
         21   -1    0    0  501  502  0.00000000000E+00  0.00000000000E+00  0.40483493348E+03  0.40483493348E+03  0.00000000000E+00 0. -1.
         -4   -1    0    0    0  501 -0.00000000000E+00 -0.00000000000E+00 -0.34223165749E+02  0.34246722090E+02  0.12700000000E+01 0.  1.
         25    2    1    2    0    0  0.62814590070E+01  0.58239141161E+02  0.12384648486E+03  0.18545600225E+03  0.12499889067E+03 0.  0.
    9000005    1    3    3    0    0  0.33911643424E+02  0.89416869715E+02  0.94801473427E+02  0.13466141063E+03  0.10000000000E+01 0.  0.
    9000005    1    3    3    0    0 -0.27630184417E+02 -0.31177728554E+02  0.29045011429E+02  0.50794591618E+02  0.10000000000E+01 0.  0.
         -4    1    1    2    0  502 -0.62814590070E+01 -0.58239141161E+02  0.24676528287E+03  0.25362565332E+03  0.12700000000E+01 0. -1.
<mgrwt>
<rscale>  1 0.13804339E+03</rscale>
<asrwt>0</asrwt>
<pdfrwt beam="1">  1       21 0.62282294E-01 0.13804339E+03</pdfrwt>
<pdfrwt beam="2">  1       -4 0.52670680E-02 0.13804339E+03</pdfrwt>
<totfact> 0.21563750E+04</totfact>
</mgrwt>
</event>
<event>
 6    4  0.6326233E-003  0.1318824E+03  0.7818608E-02  0.1224689E+00
          4   -1    0    0  502    0 -0.00000000000E+00  0.00000000000E+00  0.39769809544E+02  0.39790082321E+02  0.12700000000E+01 0. -1.
         21   -1    0    0  501  502  0.00000000000E+00 -0.00000000000E+00 -0.19455375546E+03  0.19455375546E+03  0.00000000000E+00 0. -1.
         25    2    1    2    0    0  0.40827013436E+02 -0.10009782921E+02 -0.10125011778E+03  0.16626649621E+03  0.12500368247E+03 0.  0.
    9000005    1    3    3    0    0  0.62181619361E+02 -0.28987145310E+02 -0.84122049258E+01  0.69127227424E+02  0.10000000000E+01 0.  0.
    9000005    1    3    3    0    0 -0.21354605926E+02  0.18977362389E+02 -0.92837912856E+02  0.97139268790E+02  0.10000000000E+01 0.  0.
          4    1    1    2  501    0 -0.40827013436E+02  0.10009782921E+02 -0.53533828135E+02  0.68077341568E+02  0.12700000000E+01 0.  1.
<mgrwt>
<rscale>  1 0.13188238E+03</rscale>
<asrwt>0</asrwt>
<pdfrwt beam="2">  1       21 0.29931347E-01 0.13188238E+03</pdfrwt>
<pdfrwt beam="1">  1        4 0.61203105E-02 0.13188238E+03</pdfrwt>
<totfact> 0.74303190E+04</totfact>
</mgrwt>
</event>
<event>
 6    4  0.6326233E-003  0.1269595E+03  0.7818608E-02  0.1232038E+00
         21   -1    0    0  501  502  0.00000000000E+00  0.00000000000E+00  0.71429413545E+01  0.71429413545E+01  0.00000000000E+00 0.  1.
         -4   -1    0    0    0  501 -0.00000000000E+00 -0.00000000000E+00 -0.79675588952E+03  0.79675690169E+03  0.12700000000E+01 0.  1.
         25    2    1    2    0    0 -0.17539481428E+01  0.22149796793E+02 -0.70868784036E+03  0.71997025467E+03  0.12500009077E+03 0.  0.
    9000005    1    3    3    0    0  0.18858579893E+02  0.47233798764E+02 -0.11935807690E+03  0.12974601459E+03  0.10000000000E+01 0.  0.
    9000005    1    3    3    0    0 -0.20612528036E+02 -0.25084001972E+02 -0.58932976346E+03  0.59022424007E+03  0.10000000000E+01 0.  0.
         -4    1    1    2    0  502  0.17539481428E+01 -0.22149796793E+02 -0.80925107807E+02  0.83929588380E+02  0.12700000000E+01 0. -1.
<mgrwt>
<rscale>  1 0.12695949E+03</rscale>
<asrwt>0</asrwt>
<pdfrwt beam="1">  1       21 0.10989132E-02 0.12695949E+03</pdfrwt>
<pdfrwt beam="2">  1       -4 0.12258669E+00 0.12695949E+03</pdfrwt>
<totfact> 0.67873280E+04</totfact>
</mgrwt>
</event>
<event>
 6    4  0.6326233E-003  0.1273208E+03  0.7818608E-02  0.1231486E+00
         21   -1    0    0  501  502  0.00000000000E+00  0.00000000000E+00  0.10484142034E+04  0.10484142034E+04  0.00000000000E+00 0. -1.
          4   -1    0    0  502    0 -0.00000000000E+00 -0.00000000000E+00 -0.54173354582E+01  0.55642091501E+01  0.12700000000E+01 0. -1.
         25    2    1    2    0    0  0.20245659394E+02 -0.13284096499E+02  0.89418083034E+03  0.90319983353E+03  0.12499691194E+03 0.  0.
    9000005    1    3    3    0    0 -0.29089174660E+02  0.41263198899E+02  0.46820692416E+03  0.47092202698E+03  0.10000000000E+01 0.  0.
    9000005    1    3    3    0    0  0.49334834054E+02 -0.54547295398E+02  0.42597390619E+03  0.43227780655E+03  0.10000000000E+01 0.  0.
          4    1    1    2  501    0 -0.20245659394E+02  0.13284096499E+02  0.14881603756E+03  0.15077857898E+03  0.12700000000E+01 0.  1.
<mgrwt>
<rscale>  1 0.12732078E+03</rscale>
<asrwt>0</asrwt>
<pdfrwt beam="1">  1       21 0.16129433E+00 0.12732078E+03</pdfrwt>
<pdfrwt beam="2">  1        4 0.84479421E-03 0.12732078E+03</pdfrwt>
<totfact> 0.38491950E+04</totfact>
</mgrwt>
</event>
<event>
 6    4  0.6326233E-003  0.1270226E+03  0.7818608E-02  0.1231942E+00
         21   -1    0    0  501  502  0.00000000000E+00  0.00000000000E+00  0.24918830904E+02  0.24918830904E+02  0.00000000000E+00 0.  1.
          4   -1    0    0  502    0 -0.00000000000E+00 -0.00000000000E+00 -0.27252819726E+03  0.27253115639E+03  0.12700000000E+01 0. -1.
         25    2    1    2    0    0 -0.19335411415E+02 -0.11595506329E+02 -0.24329780554E+03  0.27446050365E+03  0.12500572780E+03 0.  0.
    9000005    1    3    3    0    0 -0.21016741284E+02  0.50113449493E+02 -0.59581693873E+02  0.80647625378E+02  0.10000000000E+01 0.  0.
    9000005    1    3    3    0    0  0.16813298691E+01 -0.61708955823E+02 -0.18371611166E+03  0.19381287827E+03  0.10000000000E+01 0.  0.
          4    1    1    2  501    0  0.19335411415E+02  0.11595506329E+02 -0.43115608235E+01  0.22989483647E+02  0.12700000000E+01 0.  1.
<mgrwt>
<rscale>  1 0.12702262E+03</rscale>
<asrwt>0</asrwt>
<pdfrwt beam="1">  1       21 0.38336664E-02 0.12702262E+03</pdfrwt>
<pdfrwt beam="2">  1        4 0.41930131E-01 0.12702262E+03</pdfrwt>
<totfact> 0.92793014E+04</totfact>
</mgrwt>
</event>
<event>
 6    4  0.6326233E-003  0.1421681E+03  0.7818608E-02  0.1210441E+00
         -4   -1    0    0    0  501 -0.00000000000E+00  0.00000000000E+00  0.14535637056E+03  0.14536191854E+03  0.12700000000E+01 0. -1.
         21   -1    0    0  501  502  0.00000000000E+00 -0.00000000000E+00 -0.14021655595E+03  0.14021655595E+03  0.00000000000E+00 0.  1.
         25    2    1    2    0    0 -0.58829186248E+02 -0.33534201494E+02  0.96519386514E+02  0.17183642032E+03  0.12500539009E+03 0.  0.
    9000005    1    3    3    0    0 -0.93673926987E+02 -0.42483737515E+01  0.80449011246E+02  0.12355523739E+03  0.10000000000E+01 0.  0.
    9000005    1    3    3    0    0  0.34844740739E+02 -0.29285827742E+02  0.16070375269E+02  0.48281182929E+02  0.10000000000E+01 0.  0.
         -4    1    1    2    0  502  0.58829186248E+02  0.33534201494E+02 -0.91379571903E+02  0.11374205416E+03  0.12700000000E+01 0.  1.
<mgrwt>
<rscale>  1 0.14216808E+03</rscale>
<asrwt>0</asrwt>
<pdfrwt beam="2">  1       21 0.21571778E-01 0.14216808E+03</pdfrwt>
<pdfrwt beam="1">  1       -4 0.22363388E-01 0.14216808E+03</pdfrwt>
<totfact> 0.15140929E+04</totfact>
</mgrwt>
</event>
<event>
 6    4  0.6326233E-003  0.1270495E+03  0.7818608E-02  0.1231901E+00
          4   -1    0    0  502    0 -0.00000000000E+00  0.00000000000E+00  0.78908077644E+03  0.78908179846E+03  0.12700000000E+01 0.  1.
         21   -1    0    0  501  502  0.00000000000E+00 -0.00000000000E+00 -0.71177337719E+01  0.71177337719E+01  0.00000000000E+00 0.  1.
         25    2    1    2    0    0 -0.20895155797E+02 -0.88215315371E+01  0.65119772606E+03  0.66347572923E+03  0.12500855128E+03 0.  0.
    9000005    1    3    3    0    0 -0.36437295034E+02 -0.37359395287E+02  0.60349373282E+03  0.60574671805E+03  0.10000000000E+01 0.  0.
    9000005    1    3    3    0    0  0.15542139238E+02  0.28537863750E+02  0.47703993249E+02  0.57729011176E+02  0.10000000000E+01 0.  0.
          4    1    1    2  501    0  0.20895155797E+02  0.88215315371E+01  0.13076531661E+03  0.13272380300E+03  0.12700000000E+01 0. -1.
<mgrwt>
<rscale>  1 0.12704946E+03</rscale>
<asrwt>0</asrwt>
<pdfrwt beam="2">  1       21 0.10950366E-02 0.12704946E+03</pdfrwt>
<pdfrwt beam="1">  1        4 0.12140577E+00 0.12704946E+03</pdfrwt>
<totfact> 0.69873491E+04</totfact>
</mgrwt>
</event>
<event>
 6    4  0.6326233E-003  0.1330862E+03  0.7818608E-02  0.1222947E+00
         21   -1    0    0  501  502  0.00000000000E+00  0.00000000000E+00  0.34343921714E+02  0.34343921714E+02  0.00000000000E+00 0. -1.
         -4   -1    0    0    0  501 -0.00000000000E+00 -0.00000000000E+00 -0.24642717510E+03  0.24643044765E+03  0.12700000000E+01 0.  1.
         25    2    1    2    0    0 -0.36396566560E+02 -0.27601433085E+02 -0.12577552022E+03  0.18311584762E+03  0.12500153197E+03 0.  0.
    9000005    1    3    3    0    0  0.16055414892E+02 -0.65333315417E+02 -0.76299626057E+02  0.10172930447E+03  0.10000000000E+01 0.  0.
    9000005    1    3    3    0    0 -0.52451981452E+02  0.37731882332E+02 -0.49475894166E+02  0.81386543151E+02  0.10000000000E+01 0.  0.
         -4    1    1    2    0  502  0.36396566560E+02  0.27601433085E+02 -0.86307733162E+02  0.97658521744E+02  0.12700000000E+01 0. -1.
<mgrwt>
<rscale>  1 0.13308618E+03</rscale>
<asrwt>0</asrwt>
<pdfrwt beam="1">  1       21 0.52836805E-02 0.13308618E+03</pdfrwt>
<pdfrwt beam="2">  1       -4 0.37913929E-01 0.13308618E+03</pdfrwt>
<totfact> 0.66602885E+04</totfact>
</mgrwt>
</event>
<event>
 6    4  0.6326233E-003  0.1272169E+03  0.7818608E-02  0.1231645E+00
         -4   -1    0    0    0  501 -0.00000000000E+00  0.00000000000E+00  0.49414490244E+02  0.49430807661E+02  0.12700000000E+01 0. -1.
         21   -1    0    0  501  502  0.00000000000E+00 -0.00000000000E+00 -0.11521971671E+03  0.11521971671E+03  0.00000000000E+00 0. -1.
         25    2    1    2    0    0 -0.22828042342E+02 -0.61683837396E+01 -0.54255114399E+02  0.13830310583E+03  0.12499985267E+03 0.  0.
    9000005    1    3    3    0    0  0.78979852362E+01  0.46421686814E+02  0.11689613515E+02  0.48528324117E+02  0.10000000000E+01 0.  0.
    9000005    1    3    3    0    0 -0.30726027579E+02 -0.52590070553E+02 -0.65944727914E+02  0.89774781711E+02  0.10000000000E+01 0.  0.
         -4    1    1    2    0  502  0.22828042342E+02  0.61683837396E+01 -0.11550112067E+02  0.26347418543E+02  0.12700000000E+01 0.  1.
<mgrwt>
<rscale>  1 0.12721687E+03</rscale>
<asrwt>0</asrwt>
<pdfrwt beam="2">  1       21 0.17726110E-01 0.12721687E+03</pdfrwt>
<pdfrwt beam="1">  1       -4 0.76040229E-02 0.12721687E+03</pdfrwt>
<totfact> 0.13845384E+05</totfact>
</mgrwt>
</event>
<event>
 6    4  0.6326233E-003  0.1266941E+03  0.7818608E-02  0.1232445E+00
          4   -1    0    0  502    0 -0.00000000000E+00  0.00000000000E+00  0.36123613907E+02  0.36145931745E+02  0.12700000000E+01 0. -1.
         21   -1    0    0  501  502  0.00000000000E+00 -0.00000000000E+00 -0.15772574832E+03  0.15772574832E+03  0.00000000000E+00 0. -1.
         25    2    1    2    0    0 -0.13716200030E+02  0.15778567141E+02 -0.87933579134E+02  0.15421967080E+03  0.12495717345E+03 0.  0.
    9000005    1    3    3    0    0 -0.15637270618E+02 -0.47136402923E+02 -0.47481231423E+01  0.49898991836E+02  0.10000000000E+01 0.  0.
    9000005    1    3    3    0    0  0.19210705878E+01  0.62914970064E+02 -0.83185455992E+02  0.10432067896E+03  0.10000000000E+01 0.  0.
          4    1    1    2  501    0  0.13716200030E+02 -0.15778567141E+02 -0.33668555275E+02  0.39652009263E+02  0.12700000000E+01 0.  1.
<mgrwt>
<rscale>  1 0.12669409E+03</rscale>
<asrwt>0</asrwt>
<pdfrwt beam="2">  1       21 0.24265499E-01 0.12669409E+03</pdfrwt>
<pdfrwt beam="1">  1        4 0.55595892E-02 0.12669409E+03</pdfrwt>
<totfact> 0.12882407E+05</totfact>
</mgrwt>
</event>
<event>
 6    4  0.6326233E-003  0.1354460E+03  0.7818608E-02  0.1219591E+00
         21   -1    0    0  501  502  0.00000000000E+00  0.00000000000E+00  0.88590459126E+02  0.88590459126E+02  0.00000000000E+00 0. -1.
          4   -1    0    0  502    0 -0.00000000000E+00 -0.00000000000E+00 -0.29354508343E+03  0.29354783070E+03  0.12700000000E+01 0.  1.
         25    2    1    2    0    0 -0.48921920457E+02  0.18086143857E+02 -0.26801308477E+03  0.30029425988E+03  0.12500066403E+03 0.  0.
    9000005    1    3    3    0    0  0.11723772003E+02  0.12523572299E+02 -0.22517535603E+03  0.22583008581E+03  0.10000000000E+01 0.  0.
    9000005    1    3    3    0    0 -0.60645692460E+02  0.55625715577E+01 -0.42837728739E+02  0.74464174069E+02  0.10000000000E+01 0.  0.
          4    1    1    2  501    0  0.48921920457E+02 -0.18086143857E+02  0.63058460466E+02  0.81844029942E+02  0.12700000000E+01 0. -1.
<mgrwt>
<rscale>  1 0.13544604E+03</rscale>
<asrwt>0</asrwt>
<pdfrwt beam="1">  1       21 0.13629301E-01 0.13544604E+03</pdfrwt>
<pdfrwt beam="2">  1        4 0.45161694E-01 0.13544604E+03</pdfrwt>
<totfact> 0.91271032E+03</totfact>
</mgrwt>
</event>
<event>
 6    4  0.6326233E-003  0.1344938E+03  0.7818608E-02  0.1220936E+00
          4   -1    0    0  502    0 -0.00000000000E+00  0.00000000000E+00  0.11015910910E+03  0.11016642964E+03  0.12700000000E+01 0.  1.
         21   -1    0    0  501  502  0.00000000000E+00 -0.00000000000E+00 -0.89920763883E+02  0.89920763883E+02  0.00000000000E+00 0.  1.
         25    2    1    2    0    0  0.44906119184E+02  0.21108307693E+02  0.48497472303E+02  0.14297054658E+03  0.12500580857E+03 0.  0.
    9000005    1    3    3    0    0 -0.42561307104E+02 -0.54772510236E+01  0.18618106315E+02  0.46787808497E+02  0.10000000000E+01 0.  0.
    9000005    1    3    3    0    0  0.87467426288E+02  0.26585558717E+02  0.29879365989E+02  0.96182738086E+02  0.10000000000E+01 0.  0.
          4    1    1    2  501    0 -0.44906119184E+02 -0.21108307693E+02 -0.28259127082E+02  0.57116646937E+02  0.12700000000E+01 0. -1.
<mgrwt>
<rscale>  1 0.13449376E+03</rscale>
<asrwt>0</asrwt>
<pdfrwt beam="2">  1       21 0.13833964E-01 0.13449376E+03</pdfrwt>
<pdfrwt beam="1">  1        4 0.16948808E-01 0.13449376E+03</pdfrwt>
<totfact> 0.55781332E+04</totfact>
</mgrwt>
</event>
<event>
 6    4  0.6326233E-003  0.1266963E+03  0.7818608E-02  0.1232442E+00
         -4   -1    0    0    0  501 -0.00000000000E+00  0.00000000000E+00  0.22687429604E+03  0.22687785062E+03  0.12700000000E+01 0. -1.
         21   -1    0    0  501  502  0.00000000000E+00 -0.00000000000E+00 -0.62254455398E+02  0.62254455398E+02  0.00000000000E+00 0.  1.
         25    2    1    2    0    0 -0.18178854425E+02 -0.99669143931E+01  0.20656606712E+03  0.24232515970E+03  0.12498853072E+03 0.  0.
    9000005    1    3    3    0    0 -0.71572240647E+02 -0.14309205647E+02  0.11384756571E+03  0.13523907429E+03  0.10000000000E+01 0.  0.
    9000005    1    3    3    0    0  0.53393386221E+02  0.43422912540E+01  0.92718501409E+02  0.10708608541E+03  0.10000000000E+01 0.  0.
         -4    1    1    2    0  502  0.18178854425E+02  0.99669143931E+01 -0.41946226476E+02  0.46807146317E+02  0.12700000000E+01 0.  1.
<mgrwt>
<rscale>  1 0.12669626E+03</rscale>
<asrwt>0</asrwt>
<pdfrwt beam="2">  1       21 0.95776087E-02 0.12669626E+03</pdfrwt>
<pdfrwt beam="1">  1       -4 0.34905007E-01 0.12669626E+03</pdfrwt>
<totfact> 0.28046673E+04</totfact>
</mgrwt>
</event>
<event>
 6    4  0.6326233E-003  0.1268348E+03  0.7818608E-02  0.1232229E+00
         21   -1    0    0  501  502  0.00000000000E+00  0.00000000000E+00  0.17177968235E+03  0.17177968235E+03  0.00000000000E+00 0. -1.
          4   -1    0    0  502    0 -0.00000000000E+00 -0.00000000000E+00 -0.35880591000E+02  0.35903059905E+02  0.12700000000E+01 0. -1.
         25    2    1    2    0    0  0.20814001280E+02  0.53449925499E+01  0.85730697242E+02  0.15309087233E+03  0.12500108458E+03 0.  0.
    9000005    1    3    3    0    0 -0.37255214185E+02 -0.39968613644E+01 -0.11711666116E+02  0.39269441147E+02  0.10000000000E+01 0.  0.
    9000005    1    3    3    0    0  0.58069215466E+02  0.93418539143E+01  0.97442363358E+02  0.11382143118E+03  0.10000000000E+01 0.  0.
          4    1    1    2  501    0 -0.20814001280E+02 -0.53449925499E+01  0.50168394106E+02  0.54591869924E+02  0.12700000000E+01 0.  1.
<mgrwt>
<rscale>  1 0.12683479E+03</rscale>
<asrwt>0</asrwt>
<pdfrwt beam="1">  1       21 0.26427643E-01 0.12683479E+03</pdfrwt>
<pdfrwt beam="2">  1        4 0.55221805E-02 0.12683479E+03</pdfrwt>
<totfact> 0.11083766E+05</totfact>
</mgrwt>
</event>
<event>
 6    4  0.6326233E-003  0.1322252E+03  0.7818608E-02  0.1224191E+00
         21   -1    0    0  501  502  0.00000000000E+00  0.00000000000E+00  0.26956250518E+02  0.26956250518E+02  0.00000000000E+00 0. -1.
          4   -1    0    0  502    0 -0.00000000000E+00 -0.00000000000E+00 -0.31297532338E+03  0.31297790009E+03  0.12700000000E+01 0. -1.
         25    2    1    2    0    0 -0.35217081945E+02  0.24854571531E+02 -0.25354165166E+03  0.28594907513E+03  0.12500204739E+03 0.  0.
    9000005    1    3    3    0    0 -0.52020274117E+02  0.66407769867E+02 -0.13476541306E+03  0.15899313625E+03  0.10000000000E+01 0.  0.
    9000005    1    3    3    0    0  0.16803192171E+02 -0.41553198336E+02 -0.11877623860E+03  0.12695593888E+03  0.10000000000E+01 0.  0.
          4    1    1    2  501    0  0.35217081945E+02 -0.24854571531E+02 -0.32477421198E+02  0.53985075478E+02  0.12700000000E+01 0.  1.
<mgrwt>
<rscale>  1 0.13222520E+03</rscale>
<asrwt>0</asrwt>
<pdfrwt beam="1">  1       21 0.41471155E-02 0.13222520E+03</pdfrwt>
<pdfrwt beam="2">  1        4 0.48152549E-01 0.13222520E+03</pdfrwt>
<totfact> 0.62096494E+04</totfact>
</mgrwt>
</event>
<event>
 6    4  0.6326233E-003  0.1646963E+03  0.7818608E-02  0.1183494E+00
         21   -1    0    0  501  502  0.00000000000E+00  0.00000000000E+00  0.51937473130E+03  0.51937473130E+03  0.00000000000E+00 0.  1.
          4   -1    0    0  502    0 -0.00000000000E+00 -0.00000000000E+00 -0.37752987947E+02  0.37774343130E+02  0.12700000000E+01 0.  1.
         25    2    1    2    0    0  0.22979119206E+02  0.10477219074E+03  0.35397493787E+03  0.39041403995E+03  0.12497845446E+03 0.  0.
    9000005    1    3    3    0    0 -0.60979016980E+01 -0.26232124714E+02  0.33628246295E+02  0.43094868848E+02  0.10000000000E+01 0.  0.
    9000005    1    3    3    0    0  0.29077020904E+02  0.13100431546E+03  0.32034669158E+03  0.34731917110E+03  0.10000000000E+01 0.  0.
          4    1    1    2  501    0 -0.22979119206E+02 -0.10477219074E+03  0.12764680548E+03  0.16673503447E+03  0.12700000000E+01 0. -1.
<mgrwt>
<rscale>  1 0.16469628E+03</rscale>
<asrwt>0</asrwt>
<pdfrwt beam="1">  1       21 0.79903800E-01 0.16469628E+03</pdfrwt>
<pdfrwt beam="2">  1        4 0.58099145E-02 0.16469628E+03</pdfrwt>
<totfact> 0.10782732E+04</totfact>
</mgrwt>
</event>
<event>
 6    4  0.6326233E-003  0.1395096E+03  0.7818608E-02  0.1213990E+00
         21   -1    0    0  501  502  0.00000000000E+00  0.00000000000E+00  0.32111683524E+03  0.32111683524E+03  0.00000000000E+00 0.  1.
          4   -1    0    0  502    0 -0.00000000000E+00 -0.00000000000E+00 -0.31593753707E+02  0.31619269019E+02  0.12700000000E+01 0. -1.
         25    2    1    2    0    0  0.43870167314E+02  0.43731663412E+02  0.19787129606E+03  0.24210738897E+03  0.12500355205E+03 0.  0.
    9000005    1    3    3    0    0  0.25101733703E+01  0.30520571303E+01 -0.18061222825E+02  0.18515501424E+02  0.10000000000E+01 0.  0.
    9000005    1    3    3    0    0  0.41359993944E+02  0.40679606282E+02  0.21593251888E+03  0.22359188755E+03  0.10000000000E+01 0.  0.
          4    1    1    2  501    0 -0.43870167314E+02 -0.43731663412E+02  0.91651785470E+02  0.11062871528E+03  0.12700000000E+01 0.  1.
<mgrwt>
<rscale>  1 0.13950963E+03</rscale>
<asrwt>0</asrwt>
<pdfrwt beam="1">  1       21 0.49402588E-01 0.13950963E+03</pdfrwt>
<pdfrwt beam="2">  1        4 0.48627336E-02 0.13950963E+03</pdfrwt>
<totfact> 0.39938055E+04</totfact>
</mgrwt>
</event>
<event>
 6    4  0.6326233E-003  0.1332664E+03  0.7818608E-02  0.1222688E+00
         -4   -1    0    0    0  501 -0.00000000000E+00  0.00000000000E+00  0.23013446939E+03  0.23013797362E+03  0.12700000000E+01 0.  1.
         21   -1    0    0  501  502  0.00000000000E+00 -0.00000000000E+00 -0.35469718867E+02  0.35469718867E+02  0.00000000000E+00 0.  1.
         25    2    1    2    0    0 -0.44082228967E+02 -0.13887052349E+02  0.15728945038E+03  0.20615502985E+03  0.12499532791E+03 0.  0.
    9000005    1    3    3    0    0  0.30330764536E+02 -0.62310820832E+00 -0.13946510965E+01  0.30385664266E+02  0.10000000000E+01 0.  0.
    9000005    1    3    3    0    0 -0.74412993504E+02 -0.13263944141E+02  0.15868410148E+03  0.17576936559E+03  0.10000000000E+01 0.  0.
         -4    1    1    2    0  502  0.44082228967E+02  0.13887052349E+02  0.37375300141E+02  0.59452662634E+02  0.12700000000E+01 0. -1.
<mgrwt>
<rscale>  1 0.13326637E+03</rscale>
<asrwt>0</asrwt>
<pdfrwt beam="2">  1       21 0.54568800E-02 0.13326637E+03</pdfrwt>
<pdfrwt beam="1">  1       -4 0.35407321E-01 0.13326637E+03</pdfrwt>
<totfact> 0.72048081E+04</totfact>
</mgrwt>
</event>
<event>
 6    4  0.6326233E-003  0.1357689E+03  0.7818608E-02  0.1219138E+00
         -4   -1    0    0    0  501 -0.00000000000E+00  0.00000000000E+00  0.54759654979E+02  0.54774380082E+02  0.12700000000E+01 0. -1.
         21   -1    0    0  501  502  0.00000000000E+00 -0.00000000000E+00 -0.49063496691E+03  0.49063496691E+03  0.00000000000E+00 0.  1.
         25    2    1    2    0    0 -0.76149899230E+01 -0.52442593572E+02 -0.33877454935E+02  0.13993172292E+03  0.12499996574E+03 0.  0.
    9000005    1    3    3    0    0 -0.25179118606E+02 -0.41218061894E+02  0.40276306459E+02  0.62897515866E+02  0.10000000000E+01 0.  0.
    9000005    1    3    3    0    0  0.17564128683E+02 -0.11224531678E+02 -0.74153761394E+02  0.77034207056E+02  0.10000000000E+01 0.  0.
         -4    1    1    2    0  502  0.76149899230E+01  0.52442593572E+02 -0.40199785699E+03  0.40547762407E+03  0.12700000000E+01 0.  1.
<mgrwt>
<rscale>  1 0.13576894E+03</rscale>
<asrwt>0</asrwt>
<pdfrwt beam="2">  1       21 0.75482303E-01 0.13576894E+03</pdfrwt>
<pdfrwt beam="1">  1       -4 0.84258214E-02 0.13576894E+03</pdfrwt>
<totfact> 0.65692527E+03</totfact>
</mgrwt>
</event>
<event>
 6    4  0.6326233E-003  0.1285979E+03  0.7818608E-02  0.1229551E+00
         -4   -1    0    0    0  501 -0.00000000000E+00  0.00000000000E+00  0.70193424320E+02  0.70204912347E+02  0.12700000000E+01 0.  1.
         21   -1    0    0  501  502  0.00000000000E+00 -0.00000000000E+00 -0.92220496845E+02  0.92220496845E+02  0.00000000000E+00 0.  1.
         25    2    1    2    0    0  0.91201613831E+01 -0.28766129670E+02 -0.72546172343E+01  0.12880241267E+03  0.12500705772E+03 0.  0.
    9000005    1    3    3    0    0 -0.31060501625E+02 -0.60603527804E+02  0.19667192588E+02  0.70889638226E+02  0.10000000000E+01 0.  0.
    9000005    1    3    3    0    0  0.40180663008E+02  0.31837398134E+02 -0.26921809822E+02  0.57912774444E+02  0.10000000000E+01 0.  0.
         -4    1    1    2    0  502 -0.91201613831E+01  0.28766129670E+02 -0.14772455291E+02  0.33622996523E+02  0.12700000000E+01 0. -1.
<mgrwt>
<rscale>  1 0.12859795E+03</rscale>
<asrwt>0</asrwt>
<pdfrwt beam="2">  1       21 0.14187769E-01 0.12859795E+03</pdfrwt>
<pdfrwt beam="1">  1       -4 0.10800545E-01 0.12859795E+03</pdfrwt>
<totfact> 0.11548275E+05</totfact>
</mgrwt>
</event>
<event>
 6    4  0.6326233E-003  0.1296622E+03  0.7818608E-02  0.1227958E+00
         -4   -1    0    0    0  501 -0.00000000000E+00  0.00000000000E+00  0.78333505985E+02  0.78343800392E+02  0.12700000000E+01 0.  1.
         21   -1    0    0  501  502  0.00000000000E+00 -0.00000000000E+00 -0.28537496936E+03  0.28537496936E+03  0.00000000000E+00 0. -1.
         25    2    1    2    0    0  0.34448187303E+02  0.87606714875E+00  0.22501559077E+02  0.13160014241E+03  0.12499932888E+03 0.  0.
    9000005    1    3    3    0    0 -0.44352635508E+02  0.19456834793E+02  0.12396849361E+02  0.50004065542E+02  0.10000000000E+01 0.  0.
    9000005    1    3    3    0    0  0.78800822810E+02 -0.18580767644E+02  0.10104709716E+02  0.81596076868E+02  0.10000000000E+01 0.  0.
         -4    1    1    2    0  502 -0.34448187303E+02 -0.87606714875E+00 -0.22954302245E+03  0.23211862734E+03  0.12700000000E+01 0. -1.
<mgrwt>
<rscale>  1 0.12966217E+03</rscale>
<asrwt>0</asrwt>
<pdfrwt beam="2">  1       21 0.43903841E-01 0.12966217E+03</pdfrwt>
<pdfrwt beam="1">  1       -4 0.12052318E-01 0.12966217E+03</pdfrwt>
<totfact> 0.11260019E+04</totfact>
</mgrwt>
</event>
<event>
 6    4  0.6326233E-003  0.1291284E+03  0.7818608E-02  0.1228755E+00
          4   -1    0    0  502    0 -0.00000000000E+00  0.00000000000E+00  0.13309590153E+02  0.13370044504E+02  0.12700000000E+01 0. -1.
         21   -1    0    0  501  502  0.00000000000E+00 -0.00000000000E+00 -0.50270772706E+03  0.50270772706E+03  0.00000000000E+00 0. -1.
         25    2    1    2    0    0  0.20225653640E+02  0.25265304348E+02 -0.35269278407E+03  0.37558798879E+03  0.12500689869E+03 0.  0.
    9000005    1    3    3    0    0  0.20090176030E+02 -0.45923870916E+01 -0.34379890924E+03  0.34441747225E+03  0.10000000000E+01 0.  0.
    9000005    1    3    3    0    0  0.13547760939E+00  0.29857691440E+02 -0.88938748273E+01  0.31170516546E+02  0.10000000000E+01 0.  0.
          4    1    1    2  501    0 -0.20225653640E+02 -0.25265304348E+02 -0.13670535283E+03  0.14048978277E+03  0.12700000000E+01 0.  1.
<mgrwt>
<rscale>  1 0.12912838E+03</rscale>
<asrwt>0</asrwt>
<pdfrwt beam="2">  1       21 0.77339663E-01 0.12912838E+03</pdfrwt>
<pdfrwt beam="1">  1        4 0.20524027E-02 0.12912838E+03</pdfrwt>
<totfact> 0.58914078E+04</totfact>
</mgrwt>
</event>
<event>
 6    4  0.6326233E-003  0.1338332E+03  0.7818608E-02  0.1221876E+00
          4   -1    0    0  502    0 -0.00000000000E+00  0.00000000000E+00  0.79480263824E+02  0.79490409720E+02  0.12700000000E+01 0. -1.
         21   -1    0    0  501  502  0.00000000000E+00 -0.00000000000E+00 -0.23714882429E+03  0.23714882429E+03  0.00000000000E+00 0.  1.
         25    2    1    2    0    0 -0.23002636162E+02  0.41913698350E+02  0.17578688269E+02  0.13498271618E+03  0.12500177602E+03 0.  0.
    9000005    1    3    3    0    0 -0.47243596659E+02  0.30772591485E+02 -0.41590682312E+02  0.70069213405E+02  0.10000000000E+01 0.  0.
    9000005    1    3    3    0    0  0.24240960497E+02  0.11141106865E+02  0.59169370581E+02  0.64913502778E+02  0.10000000000E+01 0.  0.
          4    1    1    2  501    0  0.23002636162E+02 -0.41913698350E+02 -0.17524724873E+03  0.18165651783E+03  0.12700000000E+01 0.  1.
<mgrwt>
<rscale>  1 0.13383319E+03</rscale>
<asrwt>0</asrwt>
<pdfrwt beam="2">  1       21 0.36484434E-01 0.13383319E+03</pdfrwt>
<pdfrwt beam="1">  1        4 0.12228775E-01 0.13383319E+03</pdfrwt>
<totfact> 0.15948578E+04</totfact>
</mgrwt>
</event>
<event>
 6    4  0.6326233E-003  0.1289398E+03  0.7818608E-02  0.1229037E+00
         21   -1    0    0  501  502  0.00000000000E+00  0.00000000000E+00  0.40499135819E+03  0.40499135819E+03  0.00000000000E+00 0. -1.
          4   -1    0    0  502    0 -0.00000000000E+00 -0.00000000000E+00 -0.21063935497E+02  0.21102186584E+02  0.12700000000E+01 0.  1.
         25    2    1    2    0    0  0.18472729976E+02  0.25696185998E+02  0.19014776011E+03  0.22974256755E+03  0.12499576369E+03 0.  0.
    9000005    1    3    3    0    0  0.28633311706E+02  0.73757862448E+02  0.10562543490E+03  0.13197659379E+03  0.10000000000E+01 0.  0.
    9000005    1    3    3    0    0 -0.10160581730E+02 -0.48061676451E+02  0.84522325218E+02  0.97765973757E+02  0.10000000000E+01 0.  0.
          4    1    1    2  501    0 -0.18472729976E+02 -0.25696185998E+02  0.19377966258E+03  0.19635097723E+03  0.12700000000E+01 0. -1.
<mgrwt>
<rscale>  1 0.12893982E+03</rscale>
<asrwt>0</asrwt>
<pdfrwt beam="1">  1       21 0.62306357E-01 0.12893982E+03</pdfrwt>
<pdfrwt beam="2">  1        4 0.32437013E-02 0.12893982E+03</pdfrwt>
<totfact> 0.46290776E+04</totfact>
</mgrwt>
</event>
<event>
 6    4  0.6326233E-003  0.1267057E+03  0.7818608E-02  0.1232427E+00
         21   -1    0    0  501  502  0.00000000000E+00  0.00000000000E+00  0.41616284646E+03  0.41616284646E+03  0.00000000000E+00 0.  1.
          4   -1    0    0  502    0 -0.00000000000E+00 -0.00000000000E+00 -0.39975354300E+02  0.39995522892E+02  0.12700000000E+01 0. -1.
         25    2    1    2    0    0 -0.10963441472E+02  0.17579438131E+02  0.61598643837E+02  0.14088548742E+03  0.12500037579E+03 0.  0.
    9000005    1    3    3    0    0  0.32511476825E+02  0.25652615346E+02  0.82234324531E+02  0.92078971163E+02  0.10000000000E+01 0.  0.
    9000005    1    3    3    0    0 -0.43474918297E+02 -0.80731772151E+01 -0.20635680693E+02  0.48806516255E+02  0.10000000000E+01 0.  0.
          4    1    1    2  501    0  0.10963441472E+02 -0.17579438131E+02  0.31458884832E+03  0.31527288193E+03  0.12700000000E+01 0.  1.
<mgrwt>
<rscale>  1 0.12670567E+03</rscale>
<asrwt>0</asrwt>
<pdfrwt beam="1">  1       21 0.64025050E-01 0.12670567E+03</pdfrwt>
<pdfrwt beam="2">  1        4 0.61517553E-02 0.12670567E+03</pdfrwt>
<totfact> 0.15694594E+04</totfact>
</mgrwt>
</event>
<event>
 6    4  0.6326233E-003  0.1362402E+03  0.7818608E-02  0.1218479E+00
          4   -1    0    0  502    0 -0.00000000000E+00  0.00000000000E+00  0.15897121528E+03  0.15897628813E+03  0.12700000000E+01 0. -1.
         21   -1    0    0  501  502  0.00000000000E+00 -0.00000000000E+00 -0.57778556309E+02  0.57778556309E+02  0.00000000000E+00 0. -1.
         25    2    1    2    0    0  0.13583618716E+02 -0.52460147184E+02  0.60993333354E+02  0.14927017640E+03  0.12499926843E+03 0.  0.
    9000005    1    3    3    0    0  0.55354951207E+02 -0.49299418248E+02 -0.13603770334E+01  0.74144817003E+02  0.10000000000E+01 0.  0.
    9000005    1    3    3    0    0 -0.41771332491E+02 -0.31607289363E+01  0.62353710388E+02  0.75125359398E+02  0.10000000000E+01 0.  0.
          4    1    1    2  501    0 -0.13583618716E+02  0.52460147184E+02  0.40199325613E+02  0.67484668034E+02  0.12700000000E+01 0.  1.
<mgrwt>
<rscale>  1 0.13624022E+03</rscale>
<asrwt>0</asrwt>
<pdfrwt beam="2">  1       21 0.88890087E-02 0.13624022E+03</pdfrwt>
<pdfrwt beam="1">  1        4 0.24458574E-01 0.13624022E+03</pdfrwt>
<totfact> 0.62938853E+04</totfact>
</mgrwt>
</event>
<event>
 6    4  0.6326233E-003  0.1276826E+03  0.7818608E-02  0.1230935E+00
         21   -1    0    0  501  502  0.00000000000E+00  0.00000000000E+00  0.76541588818E+02  0.76541588818E+02  0.00000000000E+00 0. -1.
          4   -1    0    0  502    0 -0.00000000000E+00 -0.00000000000E+00 -0.16015222336E+03  0.16015725880E+03  0.12700000000E+01 0.  1.
         25    2    1    2    0    0  0.14264128641E+02  0.21754038435E+02 -0.13080707877E+03  0.18279318185E+03  0.12500460760E+03 0.  0.
    9000005    1    3    3    0    0  0.63421151932E+02  0.12799392764E+02 -0.11209124378E+03  0.12942763962E+03  0.10000000000E+01 0.  0.
    9000005    1    3    3    0    0 -0.49157023292E+02  0.89546456705E+01 -0.18715834993E+02  0.53365542230E+02  0.10000000000E+01 0.  0.
          4    1    1    2  501    0 -0.14264128641E+02 -0.21754038435E+02  0.47196444226E+02  0.53905665766E+02  0.12700000000E+01 0. -1.
<mgrwt>
<rscale>  1 0.12768264E+03</rscale>
<asrwt>0</asrwt>
<pdfrwt beam="1">  1       21 0.11775629E-01 0.12768264E+03</pdfrwt>
<pdfrwt beam="2">  1        4 0.24640001E-01 0.12768264E+03</pdfrwt>
<totfact> 0.37619076E+04</totfact>
</mgrwt>
</event>
<event>
 6    4  0.6326233E-003  0.1291539E+03  0.7818608E-02  0.1228717E+00
         -4   -1    0    0    0  501 -0.00000000000E+00  0.00000000000E+00  0.19653098802E+02  0.19694090294E+02  0.12700000000E+01 0.  1.
         21   -1    0    0  501  502  0.00000000000E+00 -0.00000000000E+00 -0.71622137690E+03  0.71622137690E+03  0.00000000000E+00 0. -1.
         25    2    1    2    0    0  0.26853640558E+02  0.18233789654E+02 -0.19868443762E+03  0.23697306510E+03  0.12500855465E+03 0.  0.
    9000005    1    3    3    0    0  0.32035958684E+02 -0.48273252585E+02 -0.61921750551E+02  0.84805145806E+02  0.10000000000E+01 0.  0.
    9000005    1    3    3    0    0 -0.51823181264E+01  0.66507042239E+02 -0.13676268707E+03  0.15216791930E+03  0.10000000000E+01 0.  0.
         -4    1    1    2    0  502 -0.26853640558E+02 -0.18233789654E+02 -0.49788384047E+03  0.49894240209E+03  0.12700000000E+01 0. -1.
<mgrwt>
<rscale>  1 0.12915389E+03</rscale>
<asrwt>0</asrwt>
<pdfrwt beam="2">  1       21 0.11018791E+00 0.12915389E+03</pdfrwt>
<pdfrwt beam="1">  1       -4 0.30267934E-02 0.12915389E+03</pdfrwt>
<totfact> 0.14267175E+04</totfact>
</mgrwt>
</event>
<event>
 6    4  0.6326233E-003  0.1285320E+03  0.7818608E-02  0.1229650E+00
         -4   -1    0    0    0  501 -0.00000000000E+00  0.00000000000E+00  0.12955906070E+03  0.12956528512E+03  0.12700000000E+01 0. -1.
         21   -1    0    0  501  502  0.00000000000E+00 -0.00000000000E+00 -0.89806005036E+02  0.89806005036E+02  0.00000000000E+00 0.  1.
         25    2    1    2    0    0 -0.16015627539E+02  0.25321328533E+02  0.92733362679E+02  0.15849275670E+03  0.12499122916E+03 0.  0.
    9000005    1    3    3    0    0 -0.50009622813E+02 -0.29007412689E+02  0.19155358067E+02  0.60912396993E+02  0.10000000000E+01 0.  0.
    9000005    1    3    3    0    0  0.33993995274E+02  0.54328741222E+02  0.73578004612E+02  0.97580359705E+02  0.10000000000E+01 0.  0.
         -4    1    1    2    0  502  0.16015627539E+02 -0.25321328533E+02 -0.52980307020E+02  0.60878533459E+02  0.12700000000E+01 0.  1.
<mgrwt>
<rscale>  1 0.12853201E+03</rscale>
<asrwt>0</asrwt>
<pdfrwt beam="2">  1       21 0.13816309E-01 0.12853201E+03</pdfrwt>
<pdfrwt beam="1">  1       -4 0.19933333E-01 0.12853201E+03</pdfrwt>
<totfact> 0.41649256E+04</totfact>
</mgrwt>
</event>
<event>
 6    4  0.6326233E-003  0.1286412E+03  0.7818608E-02  0.1229486E+00
         -4   -1    0    0    0  501 -0.00000000000E+00  0.00000000000E+00  0.95064146033E+02  0.95072628874E+02  0.12700000000E+01 0.  1.
         21   -1    0    0  501  502  0.00000000000E+00 -0.00000000000E+00 -0.77109356138E+02  0.77109356138E+02  0.00000000000E+00 0.  1.
         25    2    1    2    0    0 -0.30197330422E+02  0.34033145699E+01  0.39888062992E+02  0.13468341593E+03  0.12500041457E+03 0.  0.
    9000005    1    3    3    0    0 -0.45483668513E+02 -0.17183929490E+01 -0.35407365725E+02  0.57674938434E+02  0.10000000000E+01 0.  0.
    9000005    1    3    3    0    0  0.15286338091E+02  0.51217075189E+01  0.75295428717E+02  0.77008477493E+02  0.10000000000E+01 0.  0.
         -4    1    1    2    0  502  0.30197330422E+02 -0.34033145699E+01 -0.21933273097E+02  0.37498569085E+02  0.12700000000E+01 0. -1.
<mgrwt>
<rscale>  1 0.12864123E+03</rscale>
<asrwt>0</asrwt>
<pdfrwt beam="2">  1       21 0.11862978E-01 0.12864123E+03</pdfrwt>
<pdfrwt beam="1">  1       -4 0.14626710E-01 0.12864123E+03</pdfrwt>
<totfact> 0.94417915E+04</totfact>
</mgrwt>
</event>
<event>
 6    4  0.6326233E-003  0.1356051E+03  0.7818608E-02  0.1219368E+00
         21   -1    0    0  501  502  0.00000000000E+00  0.00000000000E+00  0.82902082337E+02  0.82902082337E+02  0.00000000000E+00 0. -1.
         -4   -1    0    0    0  501 -0.00000000000E+00 -0.00000000000E+00 -0.14810582623E+03  0.14811127122E+03  0.12700000000E+01 0.  1.
         25    2    1    2    0    0  0.45394578157E+02  0.26516984877E+02 -0.99532789976E+02  0.16821276027E+03  0.12499975289E+03 0.  0.
    9000005    1    3    3    0    0  0.52063908917E+02 -0.22329532624E+02  0.52818012140E+00  0.56661606165E+02  0.10000000000E+01 0.  0.
    9000005    1    3    3    0    0 -0.66693307599E+01  0.48846517501E+02 -0.10006097010E+03  0.11155115410E+03  0.10000000000E+01 0.  0.
         -4    1    1    2    0  502 -0.45394578157E+02 -0.26516984877E+02  0.34329046083E+02  0.62800593293E+02  0.12700000000E+01 0. -1.
<mgrwt>
<rscale>  1 0.13560515E+03</rscale>
<asrwt>0</asrwt>
<pdfrwt beam="1">  1       21 0.12754167E-01 0.13560515E+03</pdfrwt>
<pdfrwt beam="2">  1       -4 0.22786678E-01 0.13560515E+03</pdfrwt>
<totfact> 0.37947885E+04</totfact>
</mgrwt>
</event>
<event>
 6    4  0.6326233E-003  0.1278139E+03  0.7818608E-02  0.1230736E+00
         21   -1    0    0  501  502  0.00000000000E+00  0.00000000000E+00  0.31454075717E+02  0.31454075717E+02  0.00000000000E+00 0.  1.
         -4   -1    0    0    0  501 -0.00000000000E+00 -0.00000000000E+00 -0.19313566226E+03  0.19313983778E+03  0.12700000000E+01 0.  1.
         25    2    1    2    0    0 -0.26642114943E+02 -0.70837697281E+00 -0.14421863624E+03  0.19270548895E+03  0.12500434531E+03 0.  0.
    9000005    1    3    3    0    0 -0.54635002944E+02  0.42985887545E+02 -0.11134523485E+03  0.13126892777E+03  0.10000000000E+01 0.  0.
    9000005    1    3    3    0    0  0.27992888001E+02 -0.43694264518E+02 -0.32873401385E+02  0.61436561175E+02  0.10000000000E+01 0.  0.
         -4    1    1    2    0  502  0.26642114943E+02  0.70837697281E+00 -0.17462950309E+02  0.31888424546E+02  0.12700000000E+01 0. -1.
<mgrwt>
<rscale>  1 0.12781389E+03</rscale>
<asrwt>0</asrwt>
<pdfrwt beam="1">  1       21 0.48390887E-02 0.12781389E+03</pdfrwt>
<pdfrwt beam="2">  1       -4 0.29715472E-01 0.12781389E+03</pdfrwt>
<totfact> 0.12246998E+05</totfact>
</mgrwt>
</event>
<event>
 6    4  0.6326233E-003  0.1895566E+03  0.7818608E-02  0.1158862E+00
         21   -1    0    0  501  502  0.00000000000E+00  0.00000000000E+00  0.11229877742E+03  0.11229877742E+03  0.00000000000E+00 0.  1.
          4   -1    0    0  502    0 -0.00000000000E+00 -0.00000000000E+00 -0.24549815039E+03  0.24550143533E+03  0.12700000000E+01 0. -1.
         25    2    1    2    0    0  0.10730546259E+03 -0.93773187543E+02 -0.77700924848E+02  0.20486374342E+03  0.12499538649E+03 0.  0.
    9000005    1    3    3    0    0  0.14457908871E+02 -0.93028885797E+02 -0.55856113017E+02  0.10947287373E+03  0.10000000000E+01 0.  0.
    9000005    1    3    3    0    0  0.92847553720E+02 -0.74430174612E+00 -0.21844811831E+02  0.95390869693E+02  0.10000000000E+01 0.  0.
          4    1    1    2  501    0 -0.10730546259E+03  0.93773187543E+02 -0.55498448128E+02  0.15293646932E+03  0.12700000000E+01 0.  1.
<mgrwt>
<rscale>  1 0.18955664E+03</rscale>
<asrwt>0</asrwt>
<pdfrwt beam="1">  1       21 0.17276735E-01 0.18955664E+03</pdfrwt>
<pdfrwt beam="2">  1        4 0.37769751E-01 0.18955664E+03</pdfrwt>
<totfact> 0.86648443E+03</totfact>
</mgrwt>
</event>
<event>
 6    4  0.6326233E-003  0.1404409E+03  0.7818608E-02  0.1212737E+00
         -4   -1    0    0    0  501 -0.00000000000E+00  0.00000000000E+00  0.42635587436E+02  0.42654498192E+02  0.12700000000E+01 0. -1.
         21   -1    0    0  501  502  0.00000000000E+00 -0.00000000000E+00 -0.26528846418E+03  0.26528846418E+03  0.00000000000E+00 0.  1.
         25    2    1    2    0    0  0.63046338382E+02 -0.11137872512E+02 -0.11011733189E+03  0.17846418132E+03  0.12499897697E+03 0.  0.
    9000005    1    3    3    0    0  0.87988006554E+02 -0.27952671795E+02 -0.37126764574E+02  0.99511998299E+02  0.10000000000E+01 0.  0.
    9000005    1    3    3    0    0 -0.24941668172E+02  0.16814799283E+02 -0.72990567320E+02  0.78952183021E+02  0.10000000000E+01 0.  0.
         -4    1    1    2    0  502 -0.63046338382E+02  0.11137872512E+02 -0.11253554485E+03  0.12947878105E+03  0.12700000000E+01 0.  1.
<mgrwt>
<rscale>  1 0.14044087E+03</rscale>
<asrwt>0</asrwt>
<pdfrwt beam="2">  1       21 0.40813611E-01 0.14044087E+03</pdfrwt>
<pdfrwt beam="1">  1       -4 0.65610095E-02 0.14044087E+03</pdfrwt>
<totfact> 0.36287351E+04</totfact>
</mgrwt>
</event>
<event>
 6    4  0.6326233E-003  0.1286978E+03  0.7818608E-02  0.1229401E+00
         21   -1    0    0  501  502  0.00000000000E+00  0.00000000000E+00  0.19311176317E+03  0.19311176317E+03  0.00000000000E+00 0. -1.
          4   -1    0    0  502    0 -0.00000000000E+00 -0.00000000000E+00 -0.42947789925E+02  0.42966563272E+02  0.12700000000E+01 0.  1.
         25    2    1    2    0    0 -0.23679730667E+02  0.19420280172E+02  0.62226180505E+02  0.14295182528E+03  0.12500099953E+03 0.  0.
    9000005    1    3    3    0    0 -0.17497192542E+01  0.71196328766E+02  0.24889641840E+02  0.75448479231E+02  0.10000000000E+01 0.  0.
    9000005    1    3    3    0    0 -0.21930011413E+02 -0.51776048594E+02  0.37336538665E+02  0.67503346051E+02  0.10000000000E+01 0.  0.
          4    1    1    2  501    0  0.23679730667E+02 -0.19420280172E+02  0.87937792739E+02  0.93126501160E+02  0.12700000000E+01 0. -1.
<mgrwt>
<rscale>  1 0.12869781E+03</rscale>
<asrwt>0</asrwt>
<pdfrwt beam="1">  1       21 0.29709502E-01 0.12869781E+03</pdfrwt>
<pdfrwt beam="2">  1        4 0.66091177E-02 0.12869781E+03</pdfrwt>
<totfact> 0.66301023E+04</totfact>
</mgrwt>
</event>
<event>
 6    4  0.6326233E-003  0.1315528E+03  0.7818608E-02  0.1225170E+00
         21   -1    0    0  501  502  0.00000000000E+00  0.00000000000E+00  0.29971293535E+03  0.29971293535E+03  0.00000000000E+00 0. -1.
          4   -1    0    0  502    0 -0.00000000000E+00 -0.00000000000E+00 -0.52209826724E+02  0.52225270765E+02  0.12700000000E+01 0.  1.
         25    2    1    2    0    0 -0.15847353140E+02 -0.37795275568E+02  0.35850235212E+02  0.13635023525E+03  0.12500610318E+03 0.  0.
    9000005    1    3    3    0    0  0.30416305551E+02 -0.39092522714E+02 -0.28442269899E+02  0.57125648290E+02  0.10000000000E+01 0.  0.
    9000005    1    3    3    0    0 -0.46263658691E+02  0.12972471462E+01  0.64292505111E+02  0.79224586961E+02  0.10000000000E+01 0.  0.
          4    1    1    2  501    0  0.15847353140E+02  0.37795275568E+02  0.21165287342E+03  0.21558797087E+03  0.12700000000E+01 0. -1.
<mgrwt>
<rscale>  1 0.13155283E+03</rscale>
<asrwt>0</asrwt>
<pdfrwt beam="1">  1       21 0.46109681E-01 0.13155283E+03</pdfrwt>
<pdfrwt beam="2">  1        4 0.80336762E-02 0.13155283E+03</pdfrwt>
<totfact> 0.20187052E+04</totfact>
</mgrwt>
</event>
<event>
 6    4  0.6326233E-003  0.1272124E+03  0.7818608E-02  0.1231652E+00
         -4   -1    0    0    0  501 -0.00000000000E+00  0.00000000000E+00  0.75888872203E+02  0.75899498182E+02  0.12700000000E+01 0. -1.
         21   -1    0    0  501  502  0.00000000000E+00 -0.00000000000E+00 -0.85292423886E+02  0.85292423886E+02  0.00000000000E+00 0. -1.
         25    2    1    2    0    0 -0.85389593382E+01 -0.22012435074E+02  0.13929619522E+02  0.12797278748E+03  0.12500215562E+03 0.  0.
    9000005    1    3    3    0    0  0.90293810559E+01  0.10965984682E+02  0.63956992491E+02  0.65523121345E+02  0.10000000000E+01 0.  0.
    9000005    1    3    3    0    0 -0.17568340394E+02 -0.32978419755E+02 -0.50027372969E+02  0.62449666132E+02  0.10000000000E+01 0.  0.
         -4    1    1    2    0  502  0.85389593382E+01  0.22012435074E+02 -0.23333171205E+02  0.33219134591E+02  0.12700000000E+01 0.  1.
<mgrwt>
<rscale>  1 0.12721242E+03</rscale>
<asrwt>0</asrwt>
<pdfrwt beam="2">  1       21 0.13121911E-01 0.12721242E+03</pdfrwt>
<pdfrwt beam="1">  1       -4 0.11676756E-01 0.12721242E+03</pdfrwt>
<totfact> 0.11613742E+05</totfact>
</mgrwt>
</event>
<event>
 6    4  0.6326233E-003  0.1272385E+03  0.7818608E-02  0.1231612E+00
         21   -1    0    0  501  502  0.00000000000E+00  0.00000000000E+00  0.24034940451E+02  0.24034940451E+02  0.00000000000E+00 0.  1.
         -4   -1    0    0    0  501 -0.00000000000E+00 -0.00000000000E+00 -0.45018653599E+03  0.45018832736E+03  0.12700000000E+01 0. -1.
         25    2    1    2    0    0 -0.23751134924E+02  0.66880144468E+00 -0.43147145849E+03  0.44984135756E+03  0.12500025512E+03 0.  0.
    9000005    1    3    3    0    0 -0.53021855295E+02  0.43370447674E+02 -0.16986406706E+03  0.18315871300E+03  0.10000000000E+01 0.  0.
    9000005    1    3    3    0    0  0.29270720370E+02 -0.42701646229E+02 -0.26160739143E+03  0.26668264456E+03  0.10000000000E+01 0.  0.
         -4    1    1    2    0  502  0.23751134924E+02 -0.66880144468E+00  0.53198629421E+01  0.24381910247E+02  0.12700000000E+01 0.  1.
<mgrwt>
<rscale>  1 0.12723847E+03</rscale>
<asrwt>0</asrwt>
<pdfrwt beam="1">  1       21 0.36976834E-02 0.12723847E+03</pdfrwt>
<pdfrwt beam="2">  1       -4 0.69262181E-01 0.12723847E+03</pdfrwt>
<totfact> 0.35021583E+04</totfact>
</mgrwt>
</event>
<event>
 6    4  0.6326233E-003  0.1267227E+03  0.7818608E-02  0.1232401E+00
         -4   -1    0    0    0  501 -0.00000000000E+00  0.00000000000E+00  0.54388598793E+02  0.54403424328E+02  0.12700000000E+01 0.  1.
         21   -1    0    0  501  502  0.00000000000E+00 -0.00000000000E+00 -0.10893549312E+03  0.10893549312E+03  0.00000000000E+00 0.  1.
         25    2    1    2    0    0 -0.21170056270E+02 -0.70614315744E+00 -0.61700886392E+02  0.14094556078E+03  0.12493991276E+03 0.  0.
    9000005    1    3    3    0    0 -0.45620050769E+02 -0.40275828774E+02 -0.70983248947E+02  0.93503759532E+02  0.10000000000E+01 0.  0.
    9000005    1    3    3    0    0  0.24449994499E+02  0.39569685616E+02  0.92823625549E+01  0.47441801245E+02  0.10000000000E+01 0.  0.
         -4    1    1    2    0  502  0.21170056270E+02  0.70614315744E+00  0.71539920635E+01  0.22393356673E+02  0.12700000000E+01 0. -1.
<mgrwt>
<rscale>  1 0.12672274E+03</rscale>
<asrwt>0</asrwt>
<pdfrwt beam="2">  1       21 0.16759307E-01 0.12672274E+03</pdfrwt>
<pdfrwt beam="1">  1       -4 0.83691866E-02 0.12672274E+03</pdfrwt>
<totfact> 0.13079366E+05</totfact>
</mgrwt>
</event>
<event>
 6    4  0.6326233E-003  0.1394396E+03  0.7818608E-02  0.1214085E+00
          4   -1    0    0  502    0 -0.00000000000E+00  0.00000000000E+00  0.59627811084E+01  0.60965284012E+01  0.12700000000E+01 0. -1.
         21   -1    0    0  501  502  0.00000000000E+00 -0.00000000000E+00 -0.18026788668E+04  0.18026788668E+04  0.00000000000E+00 0.  1.
         25    2    1    2    0    0  0.61638031405E+02  0.25187734789E+01 -0.10002017289E+04  0.10098746976E+04  0.12505125047E+03 0.  0.
    9000005    1    3    3    0    0  0.57044249189E+01 -0.55655103012E+02 -0.51175611162E+03  0.51480612733E+03  0.10000000000E+01 0.  0.
    9000005    1    3    3    0    0  0.55933606487E+02  0.58173876491E+02 -0.48844561726E+03  0.49506857026E+03  0.10000000000E+01 0.  0.
          4    1    1    2  501    0 -0.61638031405E+02 -0.25187734789E+01 -0.79651435677E+03  0.79890069757E+03  0.12700000000E+01 0.  1.
<mgrwt>
<rscale>  1 0.13943962E+03</rscale>
<asrwt>0</asrwt>
<pdfrwt beam="2">  1       21 0.27733502E+00 0.13943962E+03</pdfrwt>
<pdfrwt beam="1">  1        4 0.92767424E-03 0.13943962E+03</pdfrwt>
<totfact> 0.64854908E+03</totfact>
</mgrwt>
</event>
<event>
 6    4  0.6326233E-003  0.1289906E+03  0.7818608E-02  0.1228961E+00
         -4   -1    0    0    0  501 -0.00000000000E+00  0.00000000000E+00  0.32204810756E+02  0.32229842318E+02  0.12700000000E+01 0.  1.
         21   -1    0    0  501  502  0.00000000000E+00 -0.00000000000E+00 -0.52841812969E+03  0.52841812969E+03  0.00000000000E+00 0. -1.
         25    2    1    2    0    0  0.24813118117E+02  0.19954749736E+02 -0.10015118848E+03  0.16330591918E+03  0.12499871926E+03 0.  0.
    9000005    1    3    3    0    0  0.31974362274E+02 -0.36773800525E+02 -0.88951685306E+00  0.48748984482E+02  0.10000000000E+01 0.  0.
    9000005    1    3    3    0    0 -0.71612441570E+01  0.56728550261E+02 -0.99261671629E+02  0.11455693470E+03  0.10000000000E+01 0.  0.
         -4    1    1    2    0  502 -0.24813118117E+02 -0.19954749736E+02 -0.39606213045E+03  0.39734205282E+03  0.12700000000E+01 0. -1.
<mgrwt>
<rscale>  1 0.12899055E+03</rscale>
<asrwt>0</asrwt>
<pdfrwt beam="2">  1       21 0.81295096E-01 0.12899055E+03</pdfrwt>
<pdfrwt beam="1">  1       -4 0.49566292E-02 0.12899055E+03</pdfrwt>
<totfact> 0.13198255E+04</totfact>
</mgrwt>
</event>
<event>
 6    4  0.6326233E-003  0.1408984E+03  0.7818608E-02  0.1212125E+00
          4   -1    0    0  502    0 -0.00000000000E+00  0.00000000000E+00  0.56389294932E+02  0.56403594593E+02  0.12700000000E+01 0.  1.
         21   -1    0    0  501  502  0.00000000000E+00 -0.00000000000E+00 -0.18866537887E+03  0.18866537887E+03  0.00000000000E+00 0.  1.
         25    2    1    2    0    0 -0.62499071008E+02 -0.17974111877E+02 -0.97160936391E+02  0.17115084942E+03  0.12499265227E+03 0.  0.
    9000005    1    3    3    0    0 -0.60125339779E+02 -0.67950049507E+02 -0.59236153793E+02  0.10836137516E+03  0.10000000000E+01 0.  0.
    9000005    1    3    3    0    0 -0.23737312288E+01  0.49975937630E+02 -0.37924782599E+02  0.62789474254E+02  0.10000000000E+01 0.  0.
          4    1    1    2  501    0  0.62499071008E+02  0.17974111877E+02 -0.35115147541E+02  0.73918124039E+02  0.12700000000E+01 0. -1.
<mgrwt>
<rscale>  1 0.14089842E+03</rscale>
<asrwt>0</asrwt>
<pdfrwt beam="2">  1       21 0.29025443E-01 0.14089842E+03</pdfrwt>
<pdfrwt beam="1">  1        4 0.86767049E-02 0.14089842E+03</pdfrwt>
<totfact> 0.44713581E+04</totfact>
</mgrwt>
</event>
<event>
 6    4  0.6326233E-003  0.1280150E+03  0.7818608E-02  0.1230431E+00
         21   -1    0    0  501  502  0.00000000000E+00  0.00000000000E+00  0.98872175390E+01  0.98872175390E+01  0.00000000000E+00 0. -1.
         -4   -1    0    0    0  501 -0.00000000000E+00 -0.00000000000E+00 -0.10394017945E+04  0.10394025704E+04  0.12700000000E+01 0.  1.
         25    2    1    2    0    0 -0.27215199309E+02 -0.46875707260E+01 -0.10024881771E+04  0.10106287018E+04  0.12500074885E+03 0.  0.
    9000005    1    3    3    0    0 -0.60374378085E+02 -0.33271485254E+02 -0.82273413930E+03  0.82561766044E+03  0.10000000000E+01 0.  0.
    9000005    1    3    3    0    0  0.33159178776E+02  0.28583914528E+02 -0.17975403781E+03  0.18501104133E+03  0.10000000000E+01 0.  0.
         -4    1    1    2    0  502  0.27215199309E+02  0.46875707260E+01 -0.27026399847E+02  0.38661086139E+02  0.12700000000E+01 0. -1.
<mgrwt>
<rscale>  1 0.12801495E+03</rscale>
<asrwt>0</asrwt>
<pdfrwt beam="1">  1       21 0.15211107E-02 0.12801495E+03</pdfrwt>
<pdfrwt beam="2">  1       -4 0.15991427E+00 0.12801495E+03</pdfrwt>
<totfact> 0.20876477E+04</totfact>
</mgrwt>
</event>
<event>
 6    4  0.6326233E-003  0.1288578E+03  0.7818608E-02  0.1229160E+00
         21   -1    0    0  501  502  0.00000000000E+00  0.00000000000E+00  0.48087336147E+03  0.48087336147E+03  0.00000000000E+00 0.  1.
         -4   -1    0    0    0  501 -0.00000000000E+00 -0.00000000000E+00 -0.15378198282E+02  0.15430550295E+02  0.12700000000E+01 0. -1.
         25    2    1    2    0    0 -0.99623218694E+01 -0.29646691858E+02  0.28053504836E+03  0.30871385026E+03  0.12500461509E+03 0.  0.
    9000005    1    3    3    0    0 -0.39053004863E+02 -0.69108357034E+02  0.18552886179E+03  0.20179955589E+03  0.10000000000E+01 0.  0.
    9000005    1    3    3    0    0  0.29090682994E+02  0.39461665176E+02  0.95006186567E+02  0.10691429437E+03  0.10000000000E+01 0.  0.
         -4    1    1    2    0  502  0.99623218694E+01  0.29646691858E+02  0.18496011483E+03  0.18759006150E+03  0.12700000000E+01 0.  1.
<mgrwt>
<rscale>  1 0.12885778E+03</rscale>
<asrwt>0</asrwt>
<pdfrwt beam="1">  1       21 0.73980506E-01 0.12885778E+03</pdfrwt>
<pdfrwt beam="2">  1       -4 0.23700331E-02 0.12885778E+03</pdfrwt>
<totfact> 0.52026761E+04</totfact>
</mgrwt>
</event>
<event>
 6    4  0.6326233E-003  0.1351208E+03  0.7818608E-02  0.1220049E+00
         -4   -1    0    0    0  501 -0.00000000000E+00  0.00000000000E+00  0.16723182239E+03  0.16723664467E+03  0.12700000000E+01 0. -1.
         21   -1    0    0  501  502  0.00000000000E+00 -0.00000000000E+00 -0.87537708885E+02  0.87537708885E+02  0.00000000000E+00 0.  1.
         25    2    1    2    0    0 -0.30616025988E+02  0.41172982988E+02  0.12666067171E+03  0.18520405770E+03  0.12500024662E+03 0.  0.
    9000005    1    3    3    0    0  0.35124735968E+02  0.83767756066E+01 -0.29209333288E+01  0.36241541053E+02  0.10000000000E+01 0.  0.
    9000005    1    3    3    0    0 -0.65740761956E+02  0.32796207382E+02  0.12958160504E+03  0.14896251665E+03  0.10000000000E+01 0.  0.
         -4    1    1    2    0  502  0.30616025988E+02 -0.41172982988E+02 -0.46966558207E+02  0.69570295854E+02  0.12700000000E+01 0.  1.
<mgrwt>
<rscale>  1 0.13512075E+03</rscale>
<asrwt>0</asrwt>
<pdfrwt beam="2">  1       21 0.13467340E-01 0.13512075E+03</pdfrwt>
<pdfrwt beam="1">  1       -4 0.25729052E-01 0.13512075E+03</pdfrwt>
<totfact> 0.27531222E+04</totfact>
</mgrwt>
</event>
<event>
 6    4  0.6326233E-003  0.1266257E+03  0.7818608E-02  0.1232550E+00
         -4   -1    0    0    0  501 -0.00000000000E+00  0.00000000000E+00  0.30734946862E+01  0.33255480129E+01  0.12700000000E+01 0. -1.
         21   -1    0    0  501  502  0.00000000000E+00 -0.00000000000E+00 -0.19783083537E+04  0.19783083537E+04  0.00000000000E+00 0. -1.
         25    2    1    2    0    0 -0.17669818512E+01 -0.20138776616E+02 -0.13135859671E+04  0.13196750196E+04  0.12500148729E+03 0.  0.
    9000005    1    3    3    0    0  0.48240040969E+02  0.28573781625E+02 -0.51555364295E+03  0.51859437069E+03  0.10000000000E+01 0.  0.
    9000005    1    3    3    0    0 -0.50007022820E+02 -0.48712558240E+02 -0.79803232413E+03  0.80108064889E+03  0.10000000000E+01 0.  0.
         -4    1    1    2    0  502  0.17669818512E+01  0.20138776616E+02 -0.66164889196E+03  0.66195888217E+03  0.12700000000E+01 0.  1.
<mgrwt>
<rscale>  1 0.12662569E+03</rscale>
<asrwt>0</asrwt>
<pdfrwt beam="2">  1       21 0.30435602E+00 0.12662569E+03</pdfrwt>
<pdfrwt beam="1">  1       -4 0.49226397E-03 0.12662569E+03</pdfrwt>
<totfact> 0.11772935E+04</totfact>
</mgrwt>
</event>
<event>
 6    4  0.6326233E-003  0.1273347E+03  0.7818608E-02  0.1231465E+00
          4   -1    0    0  502    0 -0.00000000000E+00  0.00000000000E+00  0.10165166094E+03  0.10165959410E+03  0.12700000000E+01 0. -1.
         21   -1    0    0  501  502  0.00000000000E+00 -0.00000000000E+00 -0.59076421481E+02  0.59076421481E+02  0.00000000000E+00 0. -1.
         25    2    1    2    0    0  0.12520890447E+02  0.20751745739E+02  0.47619513730E+02  0.13594760595E+03  0.12500690312E+03 0.  0.
    9000005    1    3    3    0    0 -0.31067443016E+02  0.19230217959E+02  0.75702065866E+02  0.84064202100E+02  0.10000000000E+01 0.  0.
    9000005    1    3    3    0    0  0.43588333462E+02  0.15215277804E+01 -0.28082552136E+02  0.51883403852E+02  0.10000000000E+01 0.  0.
          4    1    1    2  501    0 -0.12520890447E+02 -0.20751745739E+02 -0.50442742718E+01  0.24788409625E+02  0.12700000000E+01 0.  1.
<mgrwt>
<rscale>  1 0.12733473E+03</rscale>
<asrwt>0</asrwt>
<pdfrwt beam="2">  1       21 0.90886803E-02 0.12733473E+03</pdfrwt>
<pdfrwt beam="1">  1        4 0.15640377E-01 0.12733473E+03</pdfrwt>
<totfact> 0.13381311E+05</totfact>
</mgrwt>
</event>
<event>
 6    4  0.6326233E-003  0.1293953E+03  0.7818608E-02  0.1228356E+00
          4   -1    0    0  502    0 -0.00000000000E+00  0.00000000000E+00  0.10664351829E+03  0.10665108013E+03  0.12700000000E+01 0.  1.
         21   -1    0    0  501  502  0.00000000000E+00 -0.00000000000E+00 -0.56677349050E+03  0.56677349050E+03  0.00000000000E+00 0. -1.
         25    2    1    2    0    0  0.20235876481E+02  0.26562345109E+02  0.66673206706E+02  0.14556260847E+03  0.12501242986E+03 0.  0.
    9000005    1    3    3    0    0  0.59593336201E+02  0.16396956009E+02  0.81492312765E+02  0.10228500831E+03  0.10000000000E+01 0.  0.
    9000005    1    3    3    0    0 -0.39357459720E+02  0.10165389100E+02 -0.14819106059E+02  0.43277600159E+02  0.10000000000E+01 0.  0.
          4    1    1    2  501    0 -0.20235876481E+02 -0.26562345109E+02 -0.52680317892E+03  0.52786196216E+03  0.12700000000E+01 0. -1.
<mgrwt>
<rscale>  1 0.12939535E+03</rscale>
<asrwt>0</asrwt>
<pdfrwt beam="2">  1       21 0.87195920E-01 0.12939535E+03</pdfrwt>
<pdfrwt beam="1">  1        4 0.16407387E-01 0.12939535E+03</pdfrwt>
<totfact> 0.15196419E+03</totfact>
</mgrwt>
</event>
<event>
 6    4  0.6326233E-003  0.1267533E+03  0.7818608E-02  0.1232354E+00
          4   -1    0    0  502    0 -0.00000000000E+00  0.00000000000E+00  0.48144848124E+02  0.48161595705E+02  0.12700000000E+01 0.  1.
         21   -1    0    0  501  502  0.00000000000E+00 -0.00000000000E+00 -0.11703658151E+03  0.11703658151E+03  0.00000000000E+00 0.  1.
         25    2    1    2    0    0  0.84847505535E+01 -0.19217084810E+02 -0.68653463985E+02  0.14415163325E+03  0.12500043165E+03 0.  0.
    9000005    1    3    3    0    0  0.44423481678E+02  0.37405629766E+02 -0.20543443002E+02  0.61608927218E+02  0.10000000000E+01 0.  0.
    9000005    1    3    3    0    0 -0.35938731125E+02 -0.56622714576E+02 -0.48110020983E+02  0.82542706036E+02  0.10000000000E+01 0.  0.
          4    1    1    2  501    0 -0.84847505535E+01  0.19217084810E+02 -0.23826940503E+00  0.21046543965E+02  0.12700000000E+01 0. -1.
<mgrwt>
<rscale>  1 0.12675328E+03</rscale>
<asrwt>0</asrwt>
<pdfrwt beam="2">  1       21 0.18005628E-01 0.12675328E+03</pdfrwt>
<pdfrwt beam="1">  1        4 0.74087181E-02 0.12675328E+03</pdfrwt>
<totfact> 0.14036602E+05</totfact>
</mgrwt>
</event>
<event>
 6    4  0.6326233E-003  0.1343590E+03  0.7818608E-02  0.1221127E+00
          4   -1    0    0  502    0 -0.00000000000E+00  0.00000000000E+00  0.94710560179E+01  0.95558255580E+01  0.12700000000E+01 0. -1.
         21   -1    0    0  501  502  0.00000000000E+00 -0.00000000000E+00 -0.88758061534E+03  0.88758061534E+03  0.00000000000E+00 0. -1.
         25    2    1    2    0    0  0.40281725812E+02 -0.28355694199E+02 -0.65819092112E+03  0.67176456342E+03  0.12500270876E+03 0.  0.
    9000005    1    3    3    0    0  0.14757813698E+02 -0.70741323502E+02 -0.51962488002E+03  0.52462667093E+03  0.10000000000E+01 0.  0.
    9000005    1    3    3    0    0  0.25523912114E+02  0.42385629303E+02 -0.13856604110E+03  0.14713789249E+03  0.10000000000E+01 0.  0.
          4    1    1    2  501    0 -0.40281725812E+02  0.28355694199E+02 -0.21991863820E+03  0.22537187747E+03  0.12700000000E+01 0.  1.
<mgrwt>
<rscale>  1 0.13435900E+03</rscale>
<asrwt>0</asrwt>
<pdfrwt beam="2">  1       21 0.13655089E+00 0.13435900E+03</pdfrwt>
<pdfrwt beam="1">  1        4 0.14636759E-02 0.13435900E+03</pdfrwt>
<totfact> 0.25934202E+04</totfact>
</mgrwt>
</event>
<event>
 6    4  0.6326233E-003  0.1344647E+03  0.7818608E-02  0.1220977E+00
          4   -1    0    0  502    0 -0.00000000000E+00  0.00000000000E+00  0.52816035928E+02  0.52831302759E+02  0.12700000000E+01 0.  1.
         21   -1    0    0  501  502  0.00000000000E+00 -0.00000000000E+00 -0.21815745325E+03  0.21815745325E+03  0.00000000000E+00 0. -1.
         25    2    1    2    0    0 -0.59711784187E+01  0.49194288572E+02 -0.46592238942E+02  0.14230809209E+03  0.12500009338E+03 0.  0.
    9000005    1    3    3    0    0  0.13521985854E+02  0.70800067169E+02  0.15494306373E+02  0.73733080381E+02  0.10000000000E+01 0.  0.
    9000005    1    3    3    0    0 -0.19493164273E+02 -0.21605778597E+02 -0.62086545315E+02  0.68575011712E+02  0.10000000000E+01 0.  0.
          4    1    1    2  501    0  0.59711784187E+01 -0.49194288572E+02 -0.11874917838E+03  0.12868066392E+03  0.12700000000E+01 0. -1.
<mgrwt>
<rscale>  1 0.13446470E+03</rscale>
<asrwt>0</asrwt>
<pdfrwt beam="2">  1       21 0.33562685E-01 0.13446470E+03</pdfrwt>
<pdfrwt beam="1">  1        4 0.81270028E-02 0.13446470E+03</pdfrwt>
<totfact> 0.37421537E+04</totfact>
</mgrwt>
</event>
<event>
 6    4  0.6326233E-003  0.1523816E+03  0.7818608E-02  0.1197577E+00
         -4   -1    0    0    0  501 -0.00000000000E+00  0.00000000000E+00  0.37835014343E+02  0.37856323254E+02  0.12700000000E+01 0.  1.
         21   -1    0    0  501  502  0.00000000000E+00 -0.00000000000E+00 -0.49380824278E+03  0.49380824278E+03  0.00000000000E+00 0. -1.
         25    2    1    2    0    0  0.85349173162E+02 -0.17621005912E+02 -0.15117154495E+03  0.21464617482E+03  0.12500065262E+03 0.  0.
    9000005    1    3    3    0    0  0.55330017900E+02  0.50976088093E+02 -0.57354006897E+02  0.94606841958E+02  0.10000000000E+01 0.  0.
    9000005    1    3    3    0    0  0.30019155262E+02 -0.68597094005E+02 -0.93817538049E+02  0.12003933286E+03  0.10000000000E+01 0.  0.
         -4    1    1    2    0  502 -0.85349173162E+02  0.17621005912E+02 -0.30480168349E+03  0.31701839121E+03  0.12700000000E+01 0. -1.
<mgrwt>
<rscale>  1 0.15238157E+03</rscale>
<asrwt>0</asrwt>
<pdfrwt beam="2">  1       21 0.75970496E-01 0.15238157E+03</pdfrwt>
<pdfrwt beam="1">  1       -4 0.58225365E-02 0.15238157E+03</pdfrwt>
<totfact> 0.11973255E+04</totfact>
</mgrwt>
</event>
<event>
 6    4  0.6326233E-003  0.2032045E+03  0.7818608E-02  0.1147063E+00
         21   -1    0    0  501  502  0.00000000000E+00  0.00000000000E+00  0.19255435991E+03  0.19255435991E+03  0.00000000000E+00 0.  1.
          4   -1    0    0  502    0 -0.00000000000E+00 -0.00000000000E+00 -0.26086854335E+03  0.26087163474E+03  0.12700000000E+01 0. -1.
         25    2    1    2    0    0 -0.10893916244E+03 -0.11746679284E+03 -0.16891928887E+03  0.26424568734E+03  0.12500347433E+03 0.  0.
    9000005    1    3    3    0    0 -0.26020736717E+02 -0.49235916275E+02  0.90099148541E+01  0.56421917341E+02  0.10000000000E+01 0.  0.
    9000005    1    3    3    0    0 -0.82918425724E+02 -0.68230876568E+02 -0.17792920372E+03  0.20782377000E+03  0.10000000000E+01 0.  0.
          4    1    1    2  501    0  0.10893916244E+03  0.11746679284E+03  0.10060510543E+03  0.18918030731E+03  0.12700000000E+01 0.  1.
<mgrwt>
<rscale>  1 0.20320447E+03</rscale>
<asrwt>0</asrwt>
<pdfrwt beam="1">  1       21 0.29623748E-01 0.20320447E+03</pdfrwt>
<pdfrwt beam="2">  1        4 0.40134182E-01 0.20320447E+03</pdfrwt>
<totfact> 0.27782840E+03</totfact>
</mgrwt>
</event>
<event>
 6    4  0.6326233E-003  0.1273077E+03  0.7818608E-02  0.1231506E+00
         21   -1    0    0  501  502  0.00000000000E+00  0.00000000000E+00  0.42327675289E+02  0.42327675289E+02  0.00000000000E+00 0. -1.
          4   -1    0    0  502    0 -0.00000000000E+00 -0.00000000000E+00 -0.18505722789E+03  0.18506158568E+03  0.12700000000E+01 0.  1.
         25    2    1    2    0    0  0.18059050512E+02  0.15990190238E+02 -0.15476857206E+03  0.20040099725E+03  0.12500173325E+03 0.  0.
    9000005    1    3    3    0    0  0.44492184021E+02 -0.39402102190E+02 -0.44696472642E+02  0.74369716704E+02  0.10000000000E+01 0.  0.
    9000005    1    3    3    0    0 -0.26433133508E+02  0.55392292428E+02 -0.11007209942E+03  0.12603128055E+03  0.10000000000E+01 0.  0.
          4    1    1    2  501    0 -0.18059050512E+02 -0.15990190238E+02  0.12039019452E+02  0.26988263720E+02  0.12700000000E+01 0. -1.
<mgrwt>
<rscale>  1 0.12730769E+03</rscale>
<asrwt>0</asrwt>
<pdfrwt beam="1">  1       21 0.65119500E-02 0.12730769E+03</pdfrwt>
<pdfrwt beam="2">  1        4 0.28472144E-01 0.12730769E+03</pdfrwt>
<totfact> 0.80322957E+04</totfact>
</mgrwt>
</event>
<event>
 6    4  0.6326233E-003  0.1279374E+03  0.7818608E-02  0.1230549E+00
         21   -1    0    0  501  502  0.00000000000E+00  0.00000000000E+00  0.26313025959E+03  0.26313025959E+03  0.00000000000E+00 0. -1.
          4   -1    0    0  502    0 -0.00000000000E+00 -0.00000000000E+00 -0.26386728418E+02  0.26417273451E+02  0.12700000000E+01 0.  1.
         25    2    1    2    0    0 -0.28322695733E+01 -0.27107561697E+02  0.14283042352E+03  0.19175118167E+03  0.12500057655E+03 0.  0.
    9000005    1    3    3    0    0  0.44215957324E+02  0.11001068048E+02  0.11305678014E+02  0.46956285369E+02  0.10000000000E+01 0.  0.
    9000005    1    3    3    0    0 -0.47048226897E+02 -0.38108629745E+02  0.13152474551E+03  0.14479489631E+03  0.10000000000E+01 0.  0.
          4    1    1    2  501    0  0.28322695733E+01  0.27107561697E+02  0.93913107654E+02  0.97796351370E+02  0.12700000000E+01 0. -1.
<mgrwt>
<rscale>  1 0.12793743E+03</rscale>
<asrwt>0</asrwt>
<pdfrwt beam="1">  1       21 0.40481577E-01 0.12793743E+03</pdfrwt>
<pdfrwt beam="2">  1        4 0.40620822E-02 0.12793743E+03</pdfrwt>
<totfact> 0.79023371E+04</totfact>
</mgrwt>
</event>
<event>
 6    4  0.6326233E-003  0.1270883E+03  0.7818608E-02  0.1231841E+00
         -4   -1    0    0    0  501 -0.00000000000E+00  0.00000000000E+00  0.89621245207E+02  0.89630243179E+02  0.12700000000E+01 0. -1.
         21   -1    0    0  501  502  0.00000000000E+00 -0.00000000000E+00 -0.41324306138E+03  0.41324306138E+03  0.00000000000E+00 0.  1.
         25    2    1    2    0    0 -0.21986513677E+02 -0.64757897995E+01  0.44034687482E+02  0.13450085687E+03  0.12500433656E+03 0.  0.
    9000005    1    3    3    0    0  0.33775300384E+02  0.36873266504E+02  0.39477975699E+02  0.63717495745E+02  0.10000000000E+01 0.  0.
    9000005    1    3    3    0    0 -0.55761814061E+02 -0.43349056303E+02  0.45567117827E+01  0.70783361124E+02  0.10000000000E+01 0.  0.
         -4    1    1    2    0  502  0.21986513677E+02  0.64757897995E+01 -0.36765650366E+03  0.36837244769E+03  0.12700000000E+01 0.  1.
<mgrwt>
<rscale>  1 0.12708826E+03</rscale>
<asrwt>0</asrwt>
<pdfrwt beam="2">  1       21 0.63575856E-01 0.12708826E+03</pdfrwt>
<pdfrwt beam="1">  1       -4 0.13788726E-01 0.12708826E+03</pdfrwt>
<totfact> 0.41280703E+03</totfact>
</mgrwt>
</event>
<event>
 6    4  0.6326233E-003  0.1299215E+03  0.7818608E-02  0.1227572E+00
          4   -1    0    0  502    0 -0.00000000000E+00  0.00000000000E+00  0.17815035825E+03  0.17815488498E+03  0.12700000000E+01 0.  1.
         21   -1    0    0  501  502  0.00000000000E+00 -0.00000000000E+00 -0.56662058246E+02  0.56662058246E+02  0.00000000000E+00 0. -1.
         25    2    1    2    0    0  0.25033965085E+02 -0.25055045808E+02  0.14312076769E+03  0.19329548749E+03  0.12500054645E+03 0.  0.
    9000005    1    3    3    0    0 -0.34978332985E+02  0.23153737550E+02  0.16455831492E+02  0.45070763595E+02  0.10000000000E+01 0.  0.
    9000005    1    3    3    0    0  0.60012298070E+02 -0.48208783358E+02  0.12666493620E+03  0.14822472390E+03  0.10000000000E+01 0.  0.
          4    1    1    2  501    0 -0.25033965085E+02  0.25055045808E+02 -0.21632467687E+02  0.41521455737E+02  0.12700000000E+01 0. -1.
<mgrwt>
<rscale>  1 0.12992148E+03</rscale>
<asrwt>0</asrwt>
<pdfrwt beam="2">  1       21 0.87172398E-02 0.12992148E+03</pdfrwt>
<pdfrwt beam="1">  1        4 0.27409190E-01 0.12992148E+03</pdfrwt>
<totfact> 0.52400166E+04</totfact>
</mgrwt>
</event>
<event>
 6    4  0.6326233E-003  0.1266897E+03  0.7818608E-02  0.1232452E+00
         -4   -1    0    0    0  501 -0.00000000000E+00  0.00000000000E+00  0.40664053685E+03  0.40664252005E+03  0.12700000000E+01 0.  1.
         21   -1    0    0  501  502  0.00000000000E+00 -0.00000000000E+00 -0.14243525069E+02  0.14243525069E+02  0.00000000000E+00 0.  1.
         25    2    1    2    0    0  0.39862221310E+01  0.20223033846E+02  0.36640240003E+03  0.38768674083E+03  0.12500171681E+03 0.  0.
    9000005    1    3    3    0    0 -0.25831417990E+02  0.53821515928E+02  0.30937809504E+03  0.31508700929E+03  0.10000000000E+01 0.  0.
    9000005    1    3    3    0    0  0.29817640121E+02 -0.33598482083E+02  0.57024304982E+02  0.72599731538E+02  0.10000000000E+01 0.  0.
         -4    1    1    2    0  502 -0.39862221310E+01 -0.20223033846E+02  0.25994611757E+02  0.33199304288E+02  0.12700000000E+01 0. -1.
<mgrwt>
<rscale>  1 0.12668974E+03</rscale>
<asrwt>0</asrwt>
<pdfrwt beam="2">  1       21 0.21913119E-02 0.12668974E+03</pdfrwt>
<pdfrwt beam="1">  1       -4 0.62564581E-01 0.12668974E+03</pdfrwt>
<totfact> 0.10231520E+05</totfact>
</mgrwt>
</event>
<event>
 6    4  0.6326233E-003  0.1367697E+03  0.7818608E-02  0.1217743E+00
         -4   -1    0    0    0  501 -0.00000000000E+00  0.00000000000E+00  0.83269766962E+02  0.83279451187E+02  0.12700000000E+01 0. -1.
         21   -1    0    0  501  502  0.00000000000E+00 -0.00000000000E+00 -0.25447359716E+03  0.25447359716E+03  0.00000000000E+00 0.  1.
         25    2    1    2    0    0 -0.52494695127E+02  0.17974147844E+02  0.20390971124E+02  0.13828138670E+03  0.12500874848E+03 0.  0.
    9000005    1    3    3    0    0 -0.55748636855E+02  0.39141527780E+02  0.61589598048E+02  0.91838163613E+02  0.10000000000E+01 0.  0.
    9000005    1    3    3    0    0  0.32539417274E+01 -0.21167379936E+02 -0.41198626924E+02  0.46443223085E+02  0.10000000000E+01 0.  0.
         -4    1    1    2    0  502  0.52494695127E+02 -0.17974147844E+02 -0.19159480133E+03  0.19947166165E+03  0.12700000000E+01 0.  1.
<mgrwt>
<rscale>  1 0.13676970E+03</rscale>
<asrwt>0</asrwt>
<pdfrwt beam="2">  1       21 0.39149785E-01 0.13676970E+03</pdfrwt>
<pdfrwt beam="1">  1       -4 0.12811722E-01 0.13676970E+03</pdfrwt>
<totfact> 0.12822125E+04</totfact>
</mgrwt>
</event>
<event>
 6    4  0.6326233E-003  0.1272255E+03  0.7818608E-02  0.1231632E+00
         21   -1    0    0  501  502  0.00000000000E+00  0.00000000000E+00  0.29529696529E+02  0.29529696529E+02  0.00000000000E+00 0. -1.
         -4   -1    0    0    0  501 -0.00000000000E+00 -0.00000000000E+00 -0.32641029247E+03  0.32641276312E+03  0.12700000000E+01 0. -1.
         25    2    1    2    0    0 -0.22427828736E+02 -0.77035633757E+01 -0.30529835403E+03  0.33074674688E+03  0.12499589277E+03 0.  0.
    9000005    1    3    3    0    0  0.38784215399E+01  0.51513872839E+02 -0.72042076824E+02  0.88655412027E+02  0.10000000000E+01 0.  0.
    9000005    1    3    3    0    0 -0.26306250275E+02 -0.59217436214E+02 -0.23325627721E+03  0.24209133486E+03  0.10000000000E+01 0.  0.
         -4    1    1    2    0  502  0.22427828736E+02  0.77035633757E+01  0.84177580954E+01  0.25195712767E+02  0.12700000000E+01 0.  1.
<mgrwt>
<rscale>  1 0.12722549E+03</rscale>
<asrwt>0</asrwt>
<pdfrwt beam="1">  1       21 0.45430303E-02 0.12722549E+03</pdfrwt>
<pdfrwt beam="2">  1       -4 0.50219258E-01 0.12722549E+03</pdfrwt>
<totfact> 0.48718923E+04</totfact>
</mgrwt>
</event>
<event>
 6    4  0.6326233E-003  0.1394018E+03  0.7818608E-02  0.1214136E+00
         21   -1    0    0  501  502  0.00000000000E+00  0.00000000000E+00  0.14775677216E+03  0.14775677216E+03  0.00000000000E+00 0.  1.
          4   -1    0    0  502    0 -0.00000000000E+00 -0.00000000000E+00 -0.22169419986E+03  0.22169783750E+03  0.12700000000E+01 0. -1.
         25    2    1    2    0    0  0.36738255667E+02  0.49578939858E+02 -0.19138790753E+03  0.23677454778E+03  0.12500033847E+03 0.  0.
    9000005    1    3    3    0    0  0.33967033323E+02  0.39021418110E+02 -0.71786527015E+01  0.52239481991E+02  0.10000000000E+01 0.  0.
    9000005    1    3    3    0    0  0.27712223441E+01  0.10557521748E+02 -0.18420925483E+03  0.18453506579E+03  0.10000000000E+01 0.  0.
          4    1    1    2  501    0 -0.36738255667E+02 -0.49578939858E+02  0.11745047983E+03  0.13268006188E+03  0.12700000000E+01 0.  1.
<mgrwt>
<rscale>  1 0.13940178E+03</rscale>
<asrwt>0</asrwt>
<pdfrwt beam="1">  1       21 0.22731811E-01 0.13940178E+03</pdfrwt>
<pdfrwt beam="2">  1        4 0.34107500E-01 0.13940178E+03</pdfrwt>
<totfact> 0.62197878E+03</totfact>
</mgrwt>
</event>
<event>
 6    4  0.6326233E-003  0.1269336E+03  0.7818608E-02  0.1232078E+00
          4   -1    0    0  502    0 -0.00000000000E+00  0.00000000000E+00  0.94085135890E+02  0.94093706992E+02  0.12700000000E+01 0. -1.
         21   -1    0    0  501  502  0.00000000000E+00 -0.00000000000E+00 -0.42872391248E+03  0.42872391248E+03  0.00000000000E+00 0.  1.
         25    2    1    2    0    0 -0.15961599825E+02  0.15206336114E+02  0.50818459446E+02  0.13672838233E+03  0.12500451746E+03 0.  0.
    9000005    1    3    3    0    0 -0.34106605078E+02 -0.17254661827E+01 -0.34088850086E+02  0.48262692047E+02  0.10000000000E+01 0.  0.
    9000005    1    3    3    0    0  0.18145005253E+02  0.16931802296E+02  0.84907309532E+02  0.88465690280E+02  0.10000000000E+01 0.  0.
          4    1    1    2  501    0  0.15961599825E+02 -0.15206336114E+02 -0.38545723604E+03  0.38608923715E+03  0.12700000000E+01 0.  1.
<mgrwt>
<rscale>  1 0.12693358E+03</rscale>
<asrwt>0</asrwt>
<pdfrwt beam="2">  1       21 0.65957523E-01 0.12693358E+03</pdfrwt>
<pdfrwt beam="1">  1        4 0.14475441E-01 0.12693358E+03</pdfrwt>
<totfact> 0.35057538E+03</totfact>
</mgrwt>
</event>
<event>
 6    4  0.6326233E-003  0.1337209E+03  0.7818608E-02  0.1222037E+00
         -4   -1    0    0    0  501 -0.00000000000E+00  0.00000000000E+00  0.36798101617E+03  0.36798320772E+03  0.12700000000E+01 0. -1.
         21   -1    0    0  501  502  0.00000000000E+00 -0.00000000000E+00 -0.23767200583E+02  0.23767200583E+02  0.00000000000E+00 0. -1.
         25    2    1    2    0    0  0.28347444855E+02  0.38072631922E+02  0.29206963828E+03  0.32122572427E+03  0.12501275692E+03 0.  0.
    9000005    1    3    3    0    0  0.26934446510E+02 -0.21877979700E+02  0.15134120424E+02  0.37870199439E+02  0.10000000000E+01 0.  0.
    9000005    1    3    3    0    0  0.14129983456E+01  0.59950611622E+02  0.27693551786E+03  0.28335552483E+03  0.10000000000E+01 0.  0.
         -4    1    1    2    0  502 -0.28347444855E+02 -0.38072631922E+02  0.52144177305E+02  0.70524684034E+02  0.12700000000E+01 0.  1.
<mgrwt>
<rscale>  1 0.13372095E+03</rscale>
<asrwt>0</asrwt>
<pdfrwt beam="2">  1       21 0.36564927E-02 0.13372095E+03</pdfrwt>
<pdfrwt beam="1">  1       -4 0.56615238E-01 0.13372095E+03</pdfrwt>
<totfact> 0.54990930E+04</totfact>
</mgrwt>
</event>
<event>
 6    4  0.6326233E-003  0.1335574E+03  0.7818608E-02  0.1222271E+00
         21   -1    0    0  501  502  0.00000000000E+00  0.00000000000E+00  0.77962221951E+02  0.77962221951E+02  0.00000000000E+00 0. -1.
         -4   -1    0    0    0  501 -0.00000000000E+00 -0.00000000000E+00 -0.30441876205E+03  0.30442141119E+03  0.12700000000E+01 0. -1.
         25    2    1    2    0    0 -0.44720668006E+02  0.14486019588E+02 -0.28054334029E+03  0.31071231556E+03  0.12501117689E+03 0.  0.
    9000005    1    3    3    0    0 -0.80084252482E+02  0.21666972603E+02 -0.25005651909E+03  0.26346196677E+03  0.10000000000E+01 0.  0.
    9000005    1    3    3    0    0  0.35363584476E+02 -0.71809530155E+01 -0.30486821200E+02  0.47250348782E+02  0.10000000000E+01 0.  0.
         -4    1    1    2    0  502  0.44720668006E+02 -0.14486019588E+02  0.54086800184E+02  0.71671317586E+02  0.12700000000E+01 0.  1.
<mgrwt>
<rscale>  1 0.13355739E+03</rscale>
<asrwt>0</asrwt>
<pdfrwt beam="1">  1       21 0.11994188E-01 0.13355739E+03</pdfrwt>
<pdfrwt beam="2">  1       -4 0.46834653E-01 0.13355739E+03</pdfrwt>
<totfact> 0.10641109E+04</totfact>
</mgrwt>
</event>
<event>
 6    4  0.6326233E-003  0.1318830E+03  0.7818608E-02  0.1224688E+00
         21   -1    0    0  501  502  0.00000000000E+00  0.00000000000E+00  0.11570510711E+02  0.11570510711E+02  0.00000000000E+00 0.  1.
         -4   -1    0    0    0  501 -0.00000000000E+00 -0.00000000000E+00 -0.66759058542E+03  0.66759179342E+03  0.12700000000E+01 0.  1.
         25    2    1    2    0    0 -0.41032163698E+02  0.91801721137E+01 -0.53590344634E+03  0.55189278174E+03  0.12500089890E+03 0.  0.
    9000005    1    3    3    0    0  0.19450349273E+02  0.45746634012E+02 -0.11789770247E+03  0.12795287749E+03  0.10000000000E+01 0.  0.
    9000005    1    3    3    0    0 -0.60482512971E+02 -0.36566461898E+02 -0.41800574387E+03  0.42393990426E+03  0.10000000000E+01 0.  0.
         -4    1    1    2    0  502  0.41032163698E+02 -0.91801721137E+01 -0.12011662837E+03  0.12726952239E+03  0.12700000000E+01 0. -1.
<mgrwt>
<rscale>  1 0.13188305E+03</rscale>
<asrwt>0</asrwt>
<pdfrwt beam="1">  1       21 0.17800783E-02 0.13188305E+03</pdfrwt>
<pdfrwt beam="2">  1       -4 0.10271172E+00 0.13188305E+03</pdfrwt>
<totfact> 0.48070983E+04</totfact>
</mgrwt>
</event>
<event>
 6    4  0.6326233E-003  0.1277416E+03  0.7818608E-02  0.1230846E+00
          4   -1    0    0  502    0 -0.00000000000E+00  0.00000000000E+00  0.98486397934E+02  0.98494586034E+02  0.12700000000E+01 0.  1.
         21   -1    0    0  501  502  0.00000000000E+00 -0.00000000000E+00 -0.62491362644E+02  0.62491362644E+02  0.00000000000E+00 0.  1.
         25    2    1    2    0    0 -0.24753496826E+02 -0.89825332438E+01  0.40982754870E+02  0.13415477734E+03  0.12499798630E+03 0.  0.
    9000005    1    3    3    0    0 -0.21025664073E+01 -0.62822135854E+02  0.42212805856E+02  0.75722932570E+02  0.10000000000E+01 0.  0.
    9000005    1    3    3    0    0 -0.22650930419E+02  0.53839602610E+02 -0.12300509861E+01  0.58431844772E+02  0.10000000000E+01 0.  0.
          4    1    1    2  501    0  0.24753496826E+02  0.89825332438E+01 -0.49877195794E+01  0.26831171335E+02  0.12700000000E+01 0. -1.
<mgrwt>
<rscale>  1 0.12774161E+03</rscale>
<asrwt>0</asrwt>
<pdfrwt beam="2">  1       21 0.96140559E-02 0.12774161E+03</pdfrwt>
<pdfrwt beam="1">  1        4 0.15153376E-01 0.12774161E+03</pdfrwt>
<totfact> 0.12830008E+05</totfact>
</mgrwt>
</event>
<event>
 6    4  0.6326233E-003  0.1267010E+03  0.7818608E-02  0.1232435E+00
         21   -1    0    0  501  502  0.00000000000E+00  0.00000000000E+00  0.14337258197E+03  0.14337258197E+03  0.00000000000E+00 0. -1.
          4   -1    0    0  502    0 -0.00000000000E+00 -0.00000000000E+00 -0.72637996939E+02  0.72649098407E+02  0.12700000000E+01 0.  1.
         25    2    1    2    0    0  0.12178736615E+02  0.16730283914E+02 -0.15211042933E+02  0.12761077669E+03  0.12499964190E+03 0.  0.
    9000005    1    3    3    0    0  0.10356179789E+02  0.40048262334E+02  0.46121559510E+02  0.61962182235E+02  0.10000000000E+01 0.  0.
    9000005    1    3    3    0    0  0.18225568262E+01 -0.23317978420E+02 -0.61332602442E+02  0.65648594450E+02  0.10000000000E+01 0.  0.
          4    1    1    2  501    0 -0.12178736615E+02 -0.16730283914E+02  0.85945627959E+02  0.88410903686E+02  0.12700000000E+01 0. -1.
<mgrwt>
<rscale>  1 0.12670096E+03</rscale>
<asrwt>0</asrwt>
<pdfrwt beam="1">  1       21 0.22057320E-01 0.12670096E+03</pdfrwt>
<pdfrwt beam="2">  1        4 0.11176363E-01 0.12670096E+03</pdfrwt>
<totfact> 0.48539926E+04</totfact>
</mgrwt>
</event>
<event>
 6    4  0.6326233E-003  0.1524290E+03  0.7818608E-02  0.1197520E+00
          4   -1    0    0  502    0 -0.00000000000E+00  0.00000000000E+00  0.45939151170E+02  0.45956702560E+02  0.12700000000E+01 0.  1.
         21   -1    0    0  501  502  0.00000000000E+00 -0.00000000000E+00 -0.39487622297E+03  0.39487622297E+03  0.00000000000E+00 0. -1.
         25    2    1    2    0    0  0.74890072503E+02  0.44736510469E+02 -0.11436571114E+03  0.19056264270E+03  0.12499890631E+03 0.  0.
    9000005    1    3    3    0    0 -0.20085866470E+02  0.45756852303E+02 -0.12993718611E+02  0.51642698301E+02  0.10000000000E+01 0.  0.
    9000005    1    3    3    0    0  0.94975938973E+02 -0.10203418336E+01 -0.10137199253E+03  0.13891994439E+03  0.10000000000E+01 0.  0.
          4    1    1    2  501    0 -0.74890072503E+02 -0.44736510469E+02 -0.23457136066E+03  0.25027028284E+03  0.12700000000E+01 0. -1.
<mgrwt>
<rscale>  1 0.15242902E+03</rscale>
<asrwt>0</asrwt>
<pdfrwt beam="2">  1       21 0.60750185E-01 0.15242902E+03</pdfrwt>
<pdfrwt beam="1">  1        4 0.70690693E-02 0.15242902E+03</pdfrwt>
<totfact> 0.14191002E+04</totfact>
</mgrwt>
</event>
<event>
 6    4  0.6326233E-003  0.1280213E+03  0.7818608E-02  0.1230422E+00
         -4   -1    0    0    0  501 -0.00000000000E+00  0.00000000000E+00  0.50331290891E+03  0.50331451119E+03  0.12700000000E+01 0.  1.
         21   -1    0    0  501  502  0.00000000000E+00 -0.00000000000E+00 -0.21390624697E+02  0.21390624697E+02  0.00000000000E+00 0. -1.
         25    2    1    2    0    0 -0.24567921463E+02 -0.12671462431E+02  0.48020759666E+03  0.49697966423E+03  0.12500120817E+03 0.  0.
    9000005    1    3    3    0    0 -0.18495305889E+02  0.40861859976E+02  0.69304698096E+02  0.82558519360E+02  0.10000000000E+01 0.  0.
    9000005    1    3    3    0    0 -0.60726155742E+01 -0.53533322406E+02  0.41090289856E+03  0.41442114487E+03  0.10000000000E+01 0.  0.
         -4    1    1    2    0  502  0.24567921463E+02  0.12671462431E+02  0.17146875504E+01  0.27725471656E+02  0.12700000000E+01 0. -1.
<mgrwt>
<rscale>  1 0.12802129E+03</rscale>
<asrwt>0</asrwt>
<pdfrwt beam="2">  1       21 0.32908657E-02 0.12802129E+03</pdfrwt>
<pdfrwt beam="1">  1       -4 0.77435770E-01 0.12802129E+03</pdfrwt>
<totfact> 0.33340512E+04</totfact>
</mgrwt>
</event>
<event>
 6    4  0.6326233E-003  0.1289217E+03  0.7818608E-02  0.1229065E+00
         21   -1    0    0  501  502  0.00000000000E+00  0.00000000000E+00  0.18155325274E+03  0.18155325274E+03  0.00000000000E+00 0.  1.
         -4   -1    0    0    0  501 -0.00000000000E+00 -0.00000000000E+00 -0.14974664777E+03  0.14975203310E+03  0.12700000000E+01 0. -1.
         25    2    1    2    0    0  0.16973194239E+02  0.26619909108E+02 -0.12007118409E+03  0.17617571227E+03  0.12499633379E+03 0.  0.
    9000005    1    3    3    0    0  0.38646595066E+02 -0.37879057563E+02 -0.81849474481E+02  0.98126035204E+02  0.10000000000E+01 0.  0.
    9000005    1    3    3    0    0 -0.21673400827E+02  0.64498966671E+02 -0.38221709611E+02  0.78049677069E+02  0.10000000000E+01 0.  0.
         -4    1    1    2    0  502 -0.16973194239E+02 -0.26619909108E+02  0.15187778907E+03  0.15512957357E+03  0.12700000000E+01 0.  1.
<mgrwt>
<rscale>  1 0.12892165E+03</rscale>
<asrwt>0</asrwt>
<pdfrwt beam="1">  1       21 0.27931270E-01 0.12892165E+03</pdfrwt>
<pdfrwt beam="2">  1       -4 0.23038702E-01 0.12892165E+03</pdfrwt>
<totfact> 0.87315373E+03</totfact>
</mgrwt>
</event>
<event>
 6    4  0.6326233E-003  0.1293569E+03  0.7818608E-02  0.1228413E+00
         21   -1    0    0  501  502  0.00000000000E+00  0.00000000000E+00  0.72109191954E+03  0.72109191954E+03  0.00000000000E+00 0.  1.
          4   -1    0    0  502    0 -0.00000000000E+00 -0.00000000000E+00 -0.15695306045E+02  0.15746603820E+02  0.12700000000E+01 0. -1.
         25    2    1    2    0    0 -0.31957468169E+01  0.33116819303E+02  0.26200197033E+03  0.29219556659E+03  0.12500512053E+03 0.  0.
    9000005    1    3    3    0    0  0.52082531669E+02  0.47844215539E+02  0.12312631117E+03  0.14199558996E+03  0.10000000000E+01 0.  0.
    9000005    1    3    3    0    0 -0.55278278486E+02 -0.14727396237E+02  0.13887565916E+03  0.15019997663E+03  0.10000000000E+01 0.  0.
          4    1    1    2  501    0  0.31957468169E+01 -0.33116819303E+02  0.44339464317E+03  0.44464295678E+03  0.12700000000E+01 0.  1.
<mgrwt>
<rscale>  1 0.12935694E+03</rscale>
<asrwt>0</asrwt>
<pdfrwt beam="1">  1       21 0.11093719E+00 0.12935694E+03</pdfrwt>
<pdfrwt beam="2">  1        4 0.24186950E-02 0.12935694E+03</pdfrwt>
<totfact> 0.19910410E+04</totfact>
</mgrwt>
</event>
<event>
 6    4  0.6326233E-003  0.1306161E+03  0.7818608E-02  0.1226544E+00
          4   -1    0    0  502    0 -0.00000000000E+00  0.00000000000E+00  0.15016070963E+03  0.15016608011E+03  0.12700000000E+01 0.  1.
         21   -1    0    0  501  502  0.00000000000E+00 -0.00000000000E+00 -0.11975364960E+03  0.11975364960E+03  0.00000000000E+00 0. -1.
         25    2    1    2    0    0  0.36795770713E+02 -0.90376311079E+01  0.11702280175E+03  0.17537076286E+03  0.12499984326E+03 0.  0.
    9000005    1    3    3    0    0  0.67607607867E+02  0.33821684502E+02  0.52707412303E+02  0.92161631364E+02  0.10000000000E+01 0.  0.
    9000005    1    3    3    0    0 -0.30811837154E+02 -0.42859315610E+02  0.64315389450E+02  0.83209131491E+02  0.10000000000E+01 0.  0.
          4    1    1    2  501    0 -0.36795770713E+02  0.90376311079E+01 -0.86615741729E+02  0.94548966857E+02  0.12700000000E+01 0. -1.
<mgrwt>
<rscale>  1 0.13061611E+03</rscale>
<asrwt>0</asrwt>
<pdfrwt beam="2">  1       21 0.18423639E-01 0.13061611E+03</pdfrwt>
<pdfrwt beam="1">  1        4 0.23102579E-01 0.13061611E+03</pdfrwt>
<totfact> 0.18958168E+04</totfact>
</mgrwt>
</event>
<event>
 6    4  0.6326233E-003  0.1290946E+03  0.7818608E-02  0.1228805E+00
         21   -1    0    0  501  502  0.00000000000E+00  0.00000000000E+00  0.23929275601E+03  0.23929275601E+03  0.00000000000E+00 0.  1.
          4   -1    0    0  502    0 -0.00000000000E+00 -0.00000000000E+00 -0.29249641102E+03  0.29249916813E+03  0.12700000000E+01 0. -1.
         25    2    1    2    0    0  0.29044612280E+01  0.32141678801E+02 -0.27703798387E+03  0.30563944663E+03  0.12499561360E+03 0.  0.
    9000005    1    3    3    0    0  0.18084904871E+02  0.52280526127E+02 -0.42553553372E+02  0.69800588113E+02  0.10000000000E+01 0.  0.
    9000005    1    3    3    0    0 -0.15180443643E+02 -0.20138847327E+02 -0.23448443050E+03  0.23583885851E+03  0.10000000000E+01 0.  0.
          4    1    1    2  501    0 -0.29044612280E+01 -0.32141678801E+02  0.22383432886E+03  0.22615247751E+03  0.12700000000E+01 0.  1.
<mgrwt>
<rscale>  1 0.12909464E+03</rscale>
<asrwt>0</asrwt>
<pdfrwt beam="1">  1       21 0.36814270E-01 0.12909464E+03</pdfrwt>
<pdfrwt beam="2">  1        4 0.44999919E-01 0.12909464E+03</pdfrwt>
<totfact> 0.14225963E+03</totfact>
</mgrwt>
</event>
<event>
 6    4  0.6326233E-003  0.1285246E+03  0.7818608E-02  0.1229662E+00
         -4   -1    0    0    0  501 -0.00000000000E+00  0.00000000000E+00  0.18543900309E+03  0.18544335191E+03  0.12700000000E+01 0. -1.
         21   -1    0    0  501  502  0.00000000000E+00 -0.00000000000E+00 -0.47422714805E+02  0.47422714805E+02  0.00000000000E+00 0. -1.
         25    2    1    2    0    0 -0.15379874269E+02  0.25713852566E+02  0.15260506342E+03  0.19951658387E+03  0.12498327532E+03 0.  0.
    9000005    1    3    3    0    0  0.52016649081E+02  0.17846433666E+02  0.39870682392E+02  0.67933042701E+02  0.10000000000E+01 0.  0.
    9000005    1    3    3    0    0 -0.67396523350E+02  0.78674188996E+01  0.11273438103E+03  0.13158354117E+03  0.10000000000E+01 0.  0.
         -4    1    1    2    0  502  0.15379874269E+02 -0.25713852566E+02 -0.14588775134E+02  0.33349482848E+02  0.12700000000E+01 0.  1.
<mgrwt>
<rscale>  1 0.12852456E+03</rscale>
<asrwt>0</asrwt>
<pdfrwt beam="2">  1       21 0.72958024E-02 0.12852456E+03</pdfrwt>
<pdfrwt beam="1">  1       -4 0.28530720E-01 0.12852456E+03</pdfrwt>
<totfact> 0.65976571E+04</totfact>
</mgrwt>
</event>
<event>
 6    4  0.6326233E-003  0.1296951E+03  0.7818608E-02  0.1227909E+00
          4   -1    0    0  502    0 -0.00000000000E+00  0.00000000000E+00  0.52026709028E+02  0.52042207412E+02  0.12700000000E+01 0.  1.
         21   -1    0    0  501  502  0.00000000000E+00 -0.00000000000E+00 -0.17994718968E+03  0.17994718968E+03  0.00000000000E+00 0. -1.
         25    2    1    2    0    0  0.29822323418E+02 -0.17545154011E+02 -0.37258274126E+02  0.13494068770E+03  0.12499442708E+03 0.  0.
    9000005    1    3    3    0    0 -0.95634718001E+01 -0.51242483806E+02 -0.58988949353E+02  0.78727049261E+02  0.10000000000E+01 0.  0.
    9000005    1    3    3    0    0  0.39385795218E+02  0.33697329796E+02  0.21730675227E+02  0.56213638436E+02  0.10000000000E+01 0.  0.
          4    1    1    2  501    0 -0.29822323418E+02  0.17545154011E+02 -0.90662206530E+02  0.97048709400E+02  0.12700000000E+01 0. -1.
<mgrwt>
<rscale>  1 0.12969507E+03</rscale>
<asrwt>0</asrwt>
<pdfrwt beam="2">  1       21 0.27684183E-01 0.12969507E+03</pdfrwt>
<pdfrwt beam="1">  1        4 0.80056460E-02 0.12969507E+03</pdfrwt>
<totfact> 0.55449802E+04</totfact>
</mgrwt>
</event>
<event>
 6    4  0.6326233E-003  0.1283127E+03  0.7818608E-02  0.1229981E+00
         21   -1    0    0  501  502  0.00000000000E+00  0.00000000000E+00  0.55005108504E+02  0.55005108504E+02  0.00000000000E+00 0.  1.
         -4   -1    0    0    0  501 -0.00000000000E+00 -0.00000000000E+00 -0.11298744029E+03  0.11299457758E+03  0.12700000000E+01 0.  1.
         25    2    1    2    0    0  0.26894161897E+02 -0.10772963995E+02 -0.51643519686E+02  0.13831558030E+03  0.12499917572E+03 0.  0.
    9000005    1    3    3    0    0 -0.33734850401E+02 -0.45475854440E+02 -0.11663522214E+02  0.57819816838E+02  0.10000000000E+01 0.  0.
    9000005    1    3    3    0    0  0.60629012299E+02  0.34702890445E+02 -0.39979997472E+02  0.80495763463E+02  0.10000000000E+01 0.  0.
         -4    1    1    2    0  502 -0.26894161897E+02  0.10772963995E+02 -0.63388120972E+01  0.29684105784E+02  0.12700000000E+01 0. -1.
<mgrwt>
<rscale>  1 0.12831269E+03</rscale>
<asrwt>0</asrwt>
<pdfrwt beam="1">  1       21 0.84623244E-02 0.12831269E+03</pdfrwt>
<pdfrwt beam="2">  1       -4 0.17384360E-01 0.12831269E+03</pdfrwt>
<totfact> 0.12587768E+05</totfact>
</mgrwt>
</event>
<event>
 6    4  0.6326233E-003  0.1334180E+03  0.7818608E-02  0.1222470E+00
         -4   -1    0    0    0  501 -0.00000000000E+00  0.00000000000E+00  0.15594093402E+04  0.15594098573E+04  0.12700000000E+01 0. -1.
         21   -1    0    0  501  502  0.00000000000E+00 -0.00000000000E+00 -0.10190650924E+02  0.10190650924E+02  0.00000000000E+00 0.  1.
         25    2    1    2    0    0  0.29423546433E+02  0.36203401749E+02  0.14806951967E+04  0.14866938540E+04  0.12499567471E+03 0.  0.
    9000005    1    3    3    0    0 -0.20908833308E+02 -0.55627964844E+01  0.11139728327E+04  0.11141833763E+04  0.10000000000E+01 0.  0.
    9000005    1    3    3    0    0  0.50332379740E+02  0.41766198234E+02  0.36672236396E+03  0.37251047770E+03  0.10000000000E+01 0.  0.
         -4    1    1    2    0  502 -0.29423546433E+02 -0.36203401749E+02  0.68523492565E+02  0.82906654234E+02  0.12700000000E+01 0.  1.
<mgrwt>
<rscale>  1 0.13341795E+03</rscale>
<asrwt>0</asrwt>
<pdfrwt beam="2">  1       21 0.15677937E-02 0.13341795E+03</pdfrwt>
<pdfrwt beam="1">  1       -4 0.23991507E+00 0.13341795E+03</pdfrwt>
<totfact> 0.62797510E+03</totfact>
</mgrwt>
</event>
<event>
 6    4  0.6326233E-003  0.1289945E+03  0.7818608E-02  0.1228955E+00
         -4   -1    0    0    0  501 -0.00000000000E+00  0.00000000000E+00  0.22660274022E+03  0.22660629907E+03  0.12700000000E+01 0. -1.
         21   -1    0    0  501  502  0.00000000000E+00 -0.00000000000E+00 -0.48135232979E+02  0.48135232979E+02  0.00000000000E+00 0. -1.
         25    2    1    2    0    0  0.28999191216E+02 -0.13207297326E+02  0.19875466485E+03  0.23694513728E+03  0.12499678190E+03 0.  0.
    9000005    1    3    3    0    0 -0.27708523361E+02  0.30013682266E+02  0.22128463184E+02  0.46467755195E+02  0.10000000000E+01 0.  0.
    9000005    1    3    3    0    0  0.56707714576E+02 -0.43220979592E+02  0.17662620167E+03  0.19047738208E+03  0.10000000000E+01 0.  0.
         -4    1    1    2    0  502 -0.28999191216E+02  0.13207297326E+02 -0.20287157606E+02  0.37796394769E+02  0.12700000000E+01 0.  1.
<mgrwt>
<rscale>  1 0.12899450E+03</rscale>
<asrwt>0</asrwt>
<pdfrwt beam="2">  1       21 0.74054206E-02 0.12899450E+03</pdfrwt>
<pdfrwt beam="1">  1       -4 0.34863522E-01 0.12899450E+03</pdfrwt>
<totfact> 0.43956183E+04</totfact>
</mgrwt>
</event>
<event>
 6    4  0.6326233E-003  0.1461452E+03  0.7818608E-02  0.1205291E+00
         21   -1    0    0  501  502  0.00000000000E+00  0.00000000000E+00  0.19135165366E+03  0.19135165366E+03  0.00000000000E+00 0. -1.
          4   -1    0    0  502    0 -0.00000000000E+00 -0.00000000000E+00 -0.95051681355E+02  0.95060165308E+02  0.12700000000E+01 0.  1.
         25    2    1    2    0    0 -0.46731667174E+02  0.59577568041E+02 -0.20125016274E+02  0.14752436022E+03  0.12500034100E+03 0.  0.
    9000005    1    3    3    0    0 -0.79651594760E+02  0.68640771528E+02  0.47633605052E+01  0.10525978181E+03  0.10000000000E+01 0.  0.
    9000005    1    3    3    0    0  0.32919927585E+02 -0.90632034869E+01 -0.24888376779E+02  0.42264578412E+02  0.10000000000E+01 0.  0.
          4    1    1    2  501    0  0.46731667174E+02 -0.59577568041E+02  0.11642498858E+03  0.13888745874E+03  0.12700000000E+01 0. -1.
<mgrwt>
<rscale>  1 0.14614520E+03</rscale>
<asrwt>0</asrwt>
<pdfrwt beam="1">  1       21 0.29438716E-01 0.14614520E+03</pdfrwt>
<pdfrwt beam="2">  1        4 0.14624312E-01 0.14614520E+03</pdfrwt>
<totfact> 0.17936687E+04</totfact>
</mgrwt>
</event>
<event>
 6    4  0.6326233E-003  0.1328048E+03  0.7818608E-02  0.1223352E+00
         -4   -1    0    0    0  501 -0.00000000000E+00  0.00000000000E+00  0.87782152593E+03  0.87782244463E+03  0.12700000000E+01 0. -1.
         21   -1    0    0  501  502  0.00000000000E+00 -0.00000000000E+00 -0.90038971655E+01  0.90038971655E+01  0.00000000000E+00 0. -1.
         25    2    1    2    0    0  0.17622269147E+02  0.41239211958E+02  0.66448096554E+03  0.67762237000E+03  0.12500362312E+03 0.  0.
    9000005    1    3    3    0    0  0.15983230284E+02  0.63293413174E+02  0.16210031791E+03  0.17475420701E+03  0.10000000000E+01 0.  0.
    9000005    1    3    3    0    0  0.16390388631E+01 -0.22054201216E+02  0.50238064763E+03  0.50286816300E+03  0.10000000000E+01 0.  0.
         -4    1    1    2    0  502 -0.17622269147E+02 -0.41239211958E+02  0.20433666323E+03  0.20920397179E+03  0.12700000000E+01 0.  1.
<mgrwt>
<rscale>  1 0.13280483E+03</rscale>
<asrwt>0</asrwt>
<pdfrwt beam="2">  1       21 0.13852156E-02 0.13280483E+03</pdfrwt>
<pdfrwt beam="1">  1       -4 0.13505636E+00 0.13280483E+03</pdfrwt>
<totfact> 0.37334995E+04</totfact>
</mgrwt>
</event>
<event>
 6    4  0.6326233E-003  0.1286965E+03  0.7818608E-02  0.1229403E+00
          4   -1    0    0  502    0 -0.00000000000E+00  0.00000000000E+00  0.16352858991E+04  0.16352863922E+04  0.12700000000E+01 0. -1.
         21   -1    0    0  501  502  0.00000000000E+00 -0.00000000000E+00 -0.39235176985E+01  0.39235176985E+01  0.00000000000E+00 0. -1.
         25    2    1    2    0    0 -0.20267353447E+02  0.22949823614E+02  0.13794799680E+04  0.13854702341E+04  0.12500130980E+03 0.  0.
    9000005    1    3    3    0    0 -0.20847805531E+02  0.50694940796E+02  0.26340297831E+03  0.26904783403E+03  0.10000000000E+01 0.  0.
    9000005    1    3    3    0    0  0.58045208398E+00 -0.27745117181E+02  0.11160769897E+04  0.11164224001E+04  0.10000000000E+01 0.  0.
          4    1    1    2  501    0  0.20267353447E+02 -0.22949823614E+02  0.25188241335E+03  0.25373967580E+03  0.12700000000E+01 0.  1.
<mgrwt>
<rscale>  1 0.12869649E+03</rscale>
<asrwt>0</asrwt>
<pdfrwt beam="2">  1       21 0.60361941E-03 0.12869649E+03</pdfrwt>
<pdfrwt beam="1">  1        4 0.25159775E+00 0.12869649E+03</pdfrwt>
<totfact> 0.24117581E+04</totfact>
</mgrwt>
</event>
<event>
 6    4  0.6326233E-003  0.1426292E+03  0.7818608E-02  0.1209834E+00
         21   -1    0    0  501  502  0.00000000000E+00  0.00000000000E+00  0.69704060713E+02  0.69704060713E+02  0.00000000000E+00 0. -1.
         -4   -1    0    0    0  501 -0.00000000000E+00 -0.00000000000E+00 -0.16302132410E+03  0.16302627092E+03  0.12700000000E+01 0.  1.
         25    2    1    2    0    0  0.65386586856E+02 -0.21038704105E+02 -0.48257580739E+02  0.15057182196E+03  0.12500018664E+03 0.  0.
    9000005    1    3    3    0    0 -0.36363809397E+02  0.70230117176E+01 -0.11278852761E+02  0.38728049874E+02  0.10000000000E+01 0.  0.
    9000005    1    3    3    0    0  0.10175039625E+03 -0.28061715823E+02 -0.36978727978E+02  0.11184377209E+03  0.10000000000E+01 0.  0.
         -4    1    1    2    0  502 -0.65386586856E+02  0.21038704105E+02 -0.45059682645E+02  0.82158509670E+02  0.12700000000E+01 0. -1.
<mgrwt>
<rscale>  1 0.14262917E+03</rscale>
<asrwt>0</asrwt>
<pdfrwt beam="1">  1       21 0.10723702E-01 0.14262917E+03</pdfrwt>
<pdfrwt beam="2">  1       -4 0.25081474E-01 0.14262917E+03</pdfrwt>
<totfact> 0.43504504E+04</totfact>
</mgrwt>
</event>
<event>
 6    4  0.6326233E-003  0.1279456E+03  0.7818608E-02  0.1230536E+00
         21   -1    0    0  501  502  0.00000000000E+00  0.00000000000E+00  0.45489690344E+01  0.45489690344E+01  0.00000000000E+00 0.  1.
         -4   -1    0    0    0  501 -0.00000000000E+00 -0.00000000000E+00 -0.13442977457E+04  0.13442983456E+04  0.12700000000E+01 0.  1.
         25    2    1    2    0    0  0.25760002564E+02  0.89955186286E+01 -0.11600418686E+04  0.11670763522E+04  0.12500231126E+03 0.  0.
    9000005    1    3    3    0    0  0.16122708048E+02 -0.20774222663E+02 -0.10904425059E+04  0.10907599960E+04  0.10000000000E+01 0.  0.
    9000005    1    3    3    0    0  0.96372945155E+01  0.29769741292E+02 -0.69599362634E+02  0.76316356184E+02  0.10000000000E+01 0.  0.
         -4    1    1    2    0  502 -0.25760002564E+02 -0.89955186286E+01 -0.17970690805E+03  0.18177096245E+03  0.12700000000E+01 0. -1.
<mgrwt>
<rscale>  1 0.12794559E+03</rscale>
<asrwt>0</asrwt>
<pdfrwt beam="1">  1       21 0.69984148E-03 0.12794559E+03</pdfrwt>
<pdfrwt beam="2">  1       -4 0.20682869E+00 0.12794559E+03</pdfrwt>
<totfact> 0.35138762E+04</totfact>
</mgrwt>
</event>
<event>
 6    4  0.6326233E-003  0.1302229E+03  0.7818608E-02  0.1227125E+00
          4   -1    0    0  502    0 -0.00000000000E+00  0.00000000000E+00  0.17983775112E+02  0.18028562540E+02  0.12700000000E+01 0. -1.
         21   -1    0    0  501  502  0.00000000000E+00 -0.00000000000E+00 -0.52812054013E+03  0.52812054013E+03  0.00000000000E+00 0. -1.
         25    2    1    2    0    0  0.35703249704E+02  0.76299063222E+01 -0.23561276576E+03  0.26920510728E+03  0.12500030756E+03 0.  0.
    9000005    1    3    3    0    0  0.24620786517E+02 -0.44722382753E+02 -0.19620499789E+03  0.20274041493E+03  0.10000000000E+01 0.  0.
    9000005    1    3    3    0    0  0.11082463187E+02  0.52352289075E+02 -0.39407767865E+02  0.66464692355E+02  0.10000000000E+01 0.  0.
          4    1    1    2  501    0 -0.35703249704E+02 -0.76299063222E+01 -0.27452399926E+03  0.27694399538E+03  0.12700000000E+01 0.  1.
<mgrwt>
<rscale>  1 0.13022294E+03</rscale>
<asrwt>0</asrwt>
<pdfrwt beam="2">  1       21 0.81249305E-01 0.13022294E+03</pdfrwt>
<pdfrwt beam="1">  1        4 0.27702976E-02 0.13022294E+03</pdfrwt>
<totfact> 0.33184265E+04</totfact>
</mgrwt>
</event>
<event>
 6    4  0.6326233E-003  0.1318080E+03  0.7818608E-02  0.1224797E+00
          4   -1    0    0  502    0 -0.00000000000E+00  0.00000000000E+00  0.16001652735E+03  0.16002156706E+03  0.12700000000E+01 0.  1.
         21   -1    0    0  501  502  0.00000000000E+00 -0.00000000000E+00 -0.80553436705E+02  0.80553436705E+02  0.00000000000E+00 0. -1.
         25    2    1    2    0    0 -0.39190656972E+02  0.14535245307E+02  0.12294530699E+03  0.18024676006E+03  0.12500466012E+03 0.  0.
    9000005    1    3    3    0    0 -0.14387099744E+01 -0.24319986519E+02  0.12367686431E+03  0.12605752019E+03  0.10000000000E+01 0.  0.
    9000005    1    3    3    0    0 -0.37751946998E+02  0.38855231826E+02 -0.73155731114E+00  0.54189239877E+02  0.10000000000E+01 0.  0.
          4    1    1    2  501    0  0.39190656972E+02 -0.14535245307E+02 -0.43482216349E+02  0.60328243706E+02  0.12700000000E+01 0. -1.
<mgrwt>
<rscale>  1 0.13180799E+03</rscale>
<asrwt>0</asrwt>
<pdfrwt beam="2">  1       21 0.12392836E-01 0.13180799E+03</pdfrwt>
<pdfrwt beam="1">  1        4 0.24619085E-01 0.13180799E+03</pdfrwt>
<totfact> 0.34547209E+04</totfact>
</mgrwt>
</event>
<event>
 6    4  0.6326233E-003  0.1268775E+03  0.7818608E-02  0.1232164E+00
         -4   -1    0    0    0  501 -0.00000000000E+00  0.00000000000E+00  0.27637491576E+03  0.27637783370E+03  0.12700000000E+01 0.  1.
         21   -1    0    0  501  502  0.00000000000E+00 -0.00000000000E+00 -0.33377461802E+02  0.33377461802E+02  0.00000000000E+00 0.  1.
         25    2    1    2    0    0  0.16981441992E+02  0.13582541770E+02  0.25504658622E+03  0.28486253950E+03  0.12500020182E+03 0.  0.
    9000005    1    3    3    0    0 -0.16979390687E+02 -0.39489139963E+02  0.18798614263E+03  0.19284056032E+03  0.10000000000E+01 0.  0.
    9000005    1    3    3    0    0  0.33960832679E+02  0.53071681733E+02  0.67060443590E+02  0.92021979183E+02  0.10000000000E+01 0.  0.
         -4    1    1    2    0  502 -0.16981441992E+02 -0.13582541770E+02 -0.12049132262E+02  0.24892756001E+02  0.12700000000E+01 0. -1.
<mgrwt>
<rscale>  1 0.12687752E+03</rscale>
<asrwt>0</asrwt>
<pdfrwt beam="2">  1       21 0.51349943E-02 0.12687752E+03</pdfrwt>
<pdfrwt beam="1">  1       -4 0.42521299E-01 0.12687752E+03</pdfrwt>
<totfact> 0.55406360E+04</totfact>
</mgrwt>
</event>
<event>
 6    4  0.6326233E-003  0.1267484E+03  0.7818608E-02  0.1232362E+00
         -4   -1    0    0    0  501 -0.00000000000E+00  0.00000000000E+00  0.92799188358E+02  0.92807878221E+02  0.12700000000E+01 0.  1.
         21   -1    0    0  501  502  0.00000000000E+00 -0.00000000000E+00 -0.10123611392E+03  0.10123611392E+03  0.00000000000E+00 0.  1.
         25    2    1    2    0    0  0.90822765933E+01 -0.18899109680E+02  0.46671103257E+02  0.13506796451E+03  0.12500199624E+03 0.  0.
    9000005    1    3    3    0    0 -0.29869215011E+02  0.43655134710E+02  0.22712749259E+02  0.57574384676E+02  0.10000000000E+01 0.  0.
    9000005    1    3    3    0    0  0.38951491604E+02 -0.62554244390E+02  0.23958353998E+02  0.77493579835E+02  0.10000000000E+01 0.  0.
         -4    1    1    2    0  502 -0.90822765933E+01  0.18899109680E+02 -0.55108028823E+02  0.58976027635E+02  0.12700000000E+01 0. -1.
<mgrwt>
<rscale>  1 0.12674842E+03</rscale>
<asrwt>0</asrwt>
<pdfrwt beam="2">  1       21 0.15574787E-01 0.12674842E+03</pdfrwt>
<pdfrwt beam="1">  1       -4 0.14278079E-01 0.12674842E+03</pdfrwt>
<totfact> 0.60389015E+04</totfact>
</mgrwt>
</event>
<event>
 6    4  0.6326233E-003  0.1299427E+03  0.7818608E-02  0.1227541E+00
         -4   -1    0    0    0  501 -0.00000000000E+00  0.00000000000E+00  0.77906124257E+02  0.77916475131E+02  0.12700000000E+01 0. -1.
         21   -1    0    0  501  502  0.00000000000E+00 -0.00000000000E+00 -0.87922849782E+02  0.87922849782E+02  0.00000000000E+00 0. -1.
         25    2    1    2    0    0 -0.35256511941E+02  0.40083999990E+01 -0.56505664381E+01  0.13006551955E+03  0.12500408622E+03 0.  0.
    9000005    1    3    3    0    0 -0.16283422313E+02 -0.27347170577E+02 -0.57992894601E+02  0.66160361282E+02  0.10000000000E+01 0.  0.
    9000005    1    3    3    0    0 -0.18973089628E+02  0.31355570575E+02  0.52342328162E+02  0.63905158271E+02  0.10000000000E+01 0.  0.
         -4    1    1    2    0  502  0.35256511941E+02 -0.40083999990E+01 -0.43661590862E+01  0.35773805360E+02  0.12700000000E+01 0.  1.
<mgrwt>
<rscale>  1 0.12994272E+03</rscale>
<asrwt>0</asrwt>
<pdfrwt beam="2">  1       21 0.13526592E-01 0.12994272E+03</pdfrwt>
<pdfrwt beam="1">  1       -4 0.11987059E-01 0.12994272E+03</pdfrwt>
<totfact> 0.10551032E+05</totfact>
</mgrwt>
</event>
<event>
 6    4  0.6326233E-003  0.1352122E+03  0.7818608E-02  0.1219920E+00
         21   -1    0    0  501  502  0.00000000000E+00  0.00000000000E+00  0.25627266257E+02  0.25627266257E+02  0.00000000000E+00 0.  1.
          4   -1    0    0  502    0 -0.00000000000E+00 -0.00000000000E+00 -0.34049300316E+03  0.34049537163E+03  0.12700000000E+01 0.  1.
         25    2    1    2    0    0 -0.42549380717E+02  0.29133602075E+02 -0.22475488964E+03  0.26229203419E+03  0.12499253663E+03 0.  0.
    9000005    1    3    3    0    0 -0.71105139639E+02  0.26426305431E+02 -0.64766634652E+02  0.99749724140E+02  0.10000000000E+01 0.  0.
    9000005    1    3    3    0    0  0.28555758922E+02  0.27072966443E+01 -0.15998825499E+03  0.16254231005E+03  0.10000000000E+01 0.  0.
          4    1    1    2  501    0  0.42549380717E+02 -0.29133602075E+02 -0.90110847268E+02  0.10383060370E+03  0.12700000000E+01 0. -1.
<mgrwt>
<rscale>  1 0.13521224E+03</rscale>
<asrwt>0</asrwt>
<pdfrwt beam="1">  1       21 0.39426568E-02 0.13521224E+03</pdfrwt>
<pdfrwt beam="2">  1        4 0.52386136E-01 0.13521224E+03</pdfrwt>
<totfact> 0.57050442E+04</totfact>
</mgrwt>
</event>
<event>
 6    4  0.6326233E-003  0.1304847E+03  0.7818608E-02  0.1226738E+00
          4   -1    0    0  502    0 -0.00000000000E+00  0.00000000000E+00  0.49807898265E+03  0.49808060177E+03  0.12700000000E+01 0. -1.
         21   -1    0    0  501  502  0.00000000000E+00 -0.00000000000E+00 -0.85779595744E+02  0.85779595744E+02  0.00000000000E+00 0.  1.
         25    2    1    2    0    0 -0.24735234707E+02  0.28095667270E+02  0.48490974251E+03  0.50215906534E+03  0.12500028068E+03 0.  0.
    9000005    1    3    3    0    0 -0.13942518843E+02 -0.40200951497E+02  0.73134697445E+02  0.84617931335E+02  0.10000000000E+01 0.  0.
    9000005    1    3    3    0    0 -0.10792715864E+02  0.68296618768E+02  0.41177504507E+03  0.41754113401E+03  0.10000000000E+01 0.  0.
          4    1    1    2  501    0  0.24735234707E+02 -0.28095667270E+02 -0.72610355608E+02  0.81701132164E+02  0.12700000000E+01 0.  1.
<mgrwt>
<rscale>  1 0.13048474E+03</rscale>
<asrwt>0</asrwt>
<pdfrwt beam="2">  1       21 0.13196861E-01 0.13048474E+03</pdfrwt>
<pdfrwt beam="1">  1        4 0.76628382E-01 0.13048474E+03</pdfrwt>
<totfact> 0.31870327E+03</totfact>
</mgrwt>
</event>
<event>
 6    4  0.6326233E-003  0.1266995E+03  0.7818608E-02  0.1232437E+00
          4   -1    0    0  502    0 -0.00000000000E+00  0.00000000000E+00  0.10127965876E+03  0.10128762105E+03  0.12700000000E+01 0. -1.
         21   -1    0    0  501  502  0.00000000000E+00 -0.00000000000E+00 -0.84771992233E+02  0.84771992233E+02  0.00000000000E+00 0.  1.
         25    2    1    2    0    0  0.75365115157E+01 -0.19233684480E+02  0.58265069997E+02  0.13945459994E+03  0.12500413368E+03 0.  0.
    9000005    1    3    3    0    0  0.52941028882E+02 -0.32263941319E+02 -0.30101998285E+01  0.62078786647E+02  0.10000000000E+01 0.  0.
    9000005    1    3    3    0    0 -0.45404517366E+02  0.13030256839E+02  0.61275269826E+02  0.77375813293E+02  0.10000000000E+01 0.  0.
          4    1    1    2  501    0 -0.75365115157E+01  0.19233684480E+02 -0.41757403470E+02  0.46605013347E+02  0.12700000000E+01 0.  1.
<mgrwt>
<rscale>  1 0.12669951E+03</rscale>
<asrwt>0</asrwt>
<pdfrwt beam="2">  1       21 0.13041845E-01 0.12669951E+03</pdfrwt>
<pdfrwt beam="1">  1        4 0.15582830E-01 0.12669951E+03</pdfrwt>
<totfact> 0.71301870E+04</totfact>
</mgrwt>
</event>
<event>
 6    4  0.6326233E-003  0.1414682E+03  0.7818608E-02  0.1211367E+00
         21   -1    0    0  501  502  0.00000000000E+00  0.00000000000E+00  0.45360573744E+02  0.45360573744E+02  0.00000000000E+00 0. -1.
          4   -1    0    0  502    0 -0.00000000000E+00 -0.00000000000E+00 -0.98937172145E+03  0.98937253656E+03  0.12700000000E+01 0.  1.
         25    2    1    2    0    0 -0.64283603410E+02 -0.15994042420E+02 -0.95684465053E+03  0.96724605410E+03  0.12500021145E+03 0.  0.
    9000005    1    3    3    0    0 -0.14353514880E+00 -0.43501145058E+02 -0.69174257384E+03  0.69310977391E+03  0.10000000000E+01 0.  0.
    9000005    1    3    3    0    0 -0.64140068261E+02  0.27507102637E+02 -0.26510207669E+03  0.27413628019E+03  0.10000000000E+01 0.  0.
          4    1    1    2  501    0  0.64283603410E+02  0.15994042420E+02  0.12833502827E+02  0.67487056204E+02  0.12700000000E+01 0. -1.
<mgrwt>
<rscale>  1 0.14146817E+03</rscale>
<asrwt>0</asrwt>
<pdfrwt beam="1">  1       21 0.69785494E-02 0.14146817E+03</pdfrwt>
<pdfrwt beam="2">  1        4 0.15221247E+00 0.14146817E+03</pdfrwt>
<totfact> 0.19340834E+03</totfact>
</mgrwt>
</event>
<event>
 6    4  0.6326233E-003  0.1268519E+03  0.7818608E-02  0.1232203E+00
          4   -1    0    0  502    0 -0.00000000000E+00  0.00000000000E+00  0.63650440591E+01  0.64905073665E+01  0.12700000000E+01 0. -1.
         21   -1    0    0  501  502  0.00000000000E+00 -0.00000000000E+00 -0.87805112721E+03  0.87805112721E+03  0.00000000000E+00 0. -1.
         25    2    1    2    0    0  0.20839966138E+02  0.57327065837E+01 -0.68931871956E+03  0.70089350276E+03  0.12499694786E+03 0.  0.
    9000005    1    3    3    0    0  0.24670416281E+02 -0.53742472791E+02 -0.22024292275E+03  0.22804567052E+03  0.10000000000E+01 0.  0.
    9000005    1    3    3    0    0 -0.38304501433E+01  0.59475179375E+02 -0.46907579680E+03  0.47284783224E+03  0.10000000000E+01 0.  0.
          4    1    1    2  501    0 -0.20839966138E+02 -0.57327065837E+01 -0.18236736359E+03  0.18364813181E+03  0.12700000000E+01 0.  1.
<mgrwt>
<rscale>  1 0.12685190E+03</rscale>
<asrwt>0</asrwt>
<pdfrwt beam="2">  1       21 0.13508462E+00 0.12685190E+03</pdfrwt>
<pdfrwt beam="1">  1        4 0.98896047E-03 0.12685190E+03</pdfrwt>
<totfact> 0.48008344E+04</totfact>
</mgrwt>
</event>
<event>
 6    4  0.6326233E-003  0.1286434E+03  0.7818608E-02  0.1229483E+00
          4   -1    0    0  502    0 -0.00000000000E+00  0.00000000000E+00  0.59987440565E+02  0.60000882707E+02  0.12700000000E+01 0.  1.
         21   -1    0    0  501  502  0.00000000000E+00 -0.00000000000E+00 -0.11482680293E+03  0.11482680293E+03  0.00000000000E+00 0.  1.
         25    2    1    2    0    0 -0.26004845990E+02  0.15719420115E+02 -0.63138512445E+02  0.14330244217E+03  0.12500306394E+03 0.  0.
    9000005    1    3    3    0    0 -0.11321865250E+02  0.64877995300E+02 -0.54454972861E+01  0.66090788674E+02  0.10000000000E+01 0.  0.
    9000005    1    3    3    0    0 -0.14682980740E+02 -0.49158575185E+02 -0.57693015159E+02  0.77211653497E+02  0.10000000000E+01 0.  0.
          4    1    1    2  501    0  0.26004845990E+02 -0.15719420115E+02  0.82991500775E+01  0.31525243468E+02  0.12700000000E+01 0. -1.
<mgrwt>
<rscale>  1 0.12864338E+03</rscale>
<asrwt>0</asrwt>
<pdfrwt beam="2">  1       21 0.17665662E-01 0.12864338E+03</pdfrwt>
<pdfrwt beam="1">  1        4 0.92304113E-02 0.12864338E+03</pdfrwt>
<totfact> 0.10114664E+05</totfact>
</mgrwt>
</event>
<event>
 6    4  0.6326233E-003  0.1270429E+03  0.7818608E-02  0.1231911E+00
         21   -1    0    0  501  502  0.00000000000E+00  0.00000000000E+00  0.98721110235E+02  0.98721110235E+02  0.00000000000E+00 0.  1.
          4   -1    0    0  502    0 -0.00000000000E+00 -0.00000000000E+00 -0.67711241158E+02  0.67723150246E+02  0.12700000000E+01 0.  1.
         25    2    1    2    0    0  0.22675840613E+02 -0.10475333678E+01 -0.11637542053E+01  0.12704824534E+03  0.12499844498E+03 0.  0.
    9000005    1    3    3    0    0  0.42698820409E+02 -0.53080001218E+02 -0.14632755201E+02  0.69683522574E+02  0.10000000000E+01 0.  0.
    9000005    1    3    3    0    0 -0.20022979796E+02  0.52032467850E+02  0.13469000995E+02  0.57364722769E+02  0.10000000000E+01 0.  0.
          4    1    1    2  501    0 -0.22675840613E+02  0.10475333678E+01  0.32173623282E+02  0.39396015138E+02  0.12700000000E+01 0. -1.
<mgrwt>
<rscale>  1 0.12704292E+03</rscale>
<asrwt>0</asrwt>
<pdfrwt beam="1">  1       21 0.15187863E-01 0.12704292E+03</pdfrwt>
<pdfrwt beam="2">  1        4 0.10418658E-01 0.12704292E+03</pdfrwt>
<totfact> 0.10838561E+05</totfact>
</mgrwt>
</event>
<event>
 6    4  0.6326233E-003  0.1270153E+03  0.7818608E-02  0.1231953E+00
         21   -1    0    0  501  502  0.00000000000E+00  0.00000000000E+00  0.21623588253E+02  0.21623588253E+02  0.00000000000E+00 0. -1.
         -4   -1    0    0    0  501 -0.00000000000E+00 -0.00000000000E+00 -0.26292482600E+03  0.26292789321E+03  0.12700000000E+01 0. -1.
         25    2    1    2    0    0 -0.20379948531E+01 -0.22437906165E+02 -0.21659911012E+03  0.25109373101E+03  0.12500109676E+03 0.  0.
    9000005    1    3    3    0    0 -0.17687424980E+02  0.49183720224E+02 -0.72096802297E+02  0.89055220167E+02  0.10000000000E+01 0.  0.
    9000005    1    3    3    0    0  0.15649430126E+02 -0.71621626390E+02 -0.14450230782E+03  0.16203851084E+03  0.10000000000E+01 0.  0.
         -4    1    1    2    0  502  0.20379948531E+01  0.22437906165E+02 -0.24702127634E+02  0.33457750459E+02  0.12700000000E+01 0.  1.
<mgrwt>
<rscale>  1 0.12701530E+03</rscale>
<asrwt>0</asrwt>
<pdfrwt beam="1">  1       21 0.33267061E-02 0.12701530E+03</pdfrwt>
<pdfrwt beam="2">  1       -4 0.40453075E-01 0.12701530E+03</pdfrwt>
<totfact> 0.12589571E+05</totfact>
</mgrwt>
</event>
<event>
 6    4  0.6326233E-003  0.1367931E+03  0.7818608E-02  0.1217710E+00
          4   -1    0    0  502    0 -0.00000000000E+00  0.00000000000E+00  0.13477209945E+03  0.13477808312E+03  0.12700000000E+01 0.  1.
         21   -1    0    0  501  502  0.00000000000E+00 -0.00000000000E+00 -0.12669233359E+03  0.12669233359E+03  0.00000000000E+00 0. -1.
         25    2    1    2    0    0 -0.41335933744E+01  0.55411227554E+02  0.89075900347E+02  0.16323866301E+03  0.12499941738E+03 0.  0.
    9000005    1    3    3    0    0  0.24687744106E+02  0.29250866976E+02  0.11178708817E+03  0.11816281568E+03  0.10000000000E+01 0.  0.
    9000005    1    3    3    0    0 -0.28821337481E+02  0.26160360579E+02 -0.22711187826E+02  0.45075847327E+02  0.10000000000E+01 0.  0.
          4    1    1    2  501    0  0.41335933744E+01 -0.55411227554E+02 -0.80996134489E+02  0.98231753702E+02  0.12700000000E+01 0. -1.
<mgrwt>
<rscale>  1 0.13679307E+03</rscale>
<asrwt>0</asrwt>
<pdfrwt beam="2">  1       21 0.19491128E-01 0.13679307E+03</pdfrwt>
<pdfrwt beam="1">  1        4 0.20735119E-01 0.13679307E+03</pdfrwt>
<totfact> 0.20893840E+04</totfact>
</mgrwt>
</event>
<event>
 6    4  0.6326233E-003  0.1267843E+03  0.7818608E-02  0.1232307E+00
         21   -1    0    0  501  502  0.00000000000E+00  0.00000000000E+00  0.36252109177E+03  0.36252109177E+03  0.00000000000E+00 0.  1.
          4   -1    0    0  502    0 -0.00000000000E+00 -0.00000000000E+00 -0.18148149889E+02  0.18192532655E+02  0.12700000000E+01 0.  1.
         25    2    1    2    0    0 -0.12015776844E+02  0.17395227311E+02  0.21483857919E+03  0.24945915081E+03  0.12500911962E+03 0.  0.
    9000005    1    3    3    0    0  0.52146979651E+02  0.24459844535E+02  0.68434778899E+02  0.89453398171E+02  0.10000000000E+01 0.  0.
    9000005    1    3    3    0    0 -0.64162756495E+02 -0.70646172245E+01  0.14640380029E+03  0.16000575264E+03  0.10000000000E+01 0.  0.
          4    1    1    2  501    0  0.12015776844E+02 -0.17395227311E+02  0.12953436269E+03  0.13125447362E+03  0.12700000000E+01 0. -1.
<mgrwt>
<rscale>  1 0.12678428E+03</rscale>
<asrwt>0</asrwt>
<pdfrwt beam="1">  1       21 0.55772470E-01 0.12678428E+03</pdfrwt>
<pdfrwt beam="2">  1        4 0.27956085E-02 0.12678428E+03</pdfrwt>
<totfact> 0.73716263E+04</totfact>
</mgrwt>
</event>
<event>
 6    4  0.6326233E-003  0.1436918E+03  0.7818608E-02  0.1208446E+00
         21   -1    0    0  501  502  0.00000000000E+00  0.00000000000E+00  0.31805805378E+03  0.31805805378E+03  0.00000000000E+00 0. -1.
         -4   -1    0    0    0  501 -0.00000000000E+00 -0.00000000000E+00 -0.47875023719E+02  0.47891865657E+02  0.12700000000E+01 0.  1.
         25    2    1    2    0    0 -0.57244148024E+02  0.41781271291E+02  0.83333769377E+02  0.16610791627E+03  0.12499902245E+03 0.  0.
    9000005    1    3    3    0    0 -0.93990162744E+02  0.48238676406E+02  0.68677881781E+02  0.12601099968E+03  0.10000000000E+01 0.  0.
    9000005    1    3    3    0    0  0.36746014720E+02 -0.64574051150E+01  0.14655887596E+02  0.40096916588E+02  0.10000000000E+01 0.  0.
         -4    1    1    2    0  502  0.57244148024E+02 -0.41781271291E+02  0.18684926068E+03  0.19984200317E+03  0.12700000000E+01 0. -1.
<mgrwt>
<rscale>  1 0.14369176E+03</rscale>
<asrwt>0</asrwt>
<pdfrwt beam="1">  1       21 0.48932007E-01 0.14369176E+03</pdfrwt>
<pdfrwt beam="2">  1       -4 0.73668790E-02 0.14369176E+03</pdfrwt>
<totfact> 0.20780712E+04</totfact>
</mgrwt>
</event>
<event>
 6    4  0.6326233E-003  0.1355587E+03  0.7818608E-02  0.1219433E+00
         -4   -1    0    0    0  501 -0.00000000000E+00  0.00000000000E+00  0.29386638587E+03  0.29386913013E+03  0.12700000000E+01 0.  1.
         21   -1    0    0  501  502  0.00000000000E+00 -0.00000000000E+00 -0.58615150637E+02  0.58615150637E+02  0.00000000000E+00 0. -1.
         25    2    1    2    0    0  0.26085820935E+01 -0.52380993070E+02  0.26095534024E+03  0.29406436080E+03  0.12500234220E+03 0.  0.
    9000005    1    3    3    0    0 -0.19887229244E+02  0.31871566989E+02  0.33060746928E+02  0.50053088384E+02  0.10000000000E+01 0.  0.
    9000005    1    3    3    0    0  0.22495811338E+02 -0.84252560059E+02  0.22789459331E+03  0.24401127241E+03  0.10000000000E+01 0.  0.
         -4    1    1    2    0  502 -0.26085820935E+01  0.52380993070E+02 -0.25704105005E+02  0.58419919973E+02  0.12700000000E+01 0. -1.
<mgrwt>
<rscale>  1 0.13555869E+03</rscale>
<asrwt>0</asrwt>
<pdfrwt beam="2">  1       21 0.90177157E-02 0.13555869E+03</pdfrwt>
<pdfrwt beam="1">  1       -4 0.45211482E-01 0.13555869E+03</pdfrwt>
<totfact> 0.18875632E+04</totfact>
</mgrwt>
</event>
<event>
 6    4  0.6326233E-003  0.1293748E+03  0.7818608E-02  0.1228386E+00
          4   -1    0    0  502    0 -0.00000000000E+00  0.00000000000E+00  0.15570349136E+02  0.15622057234E+02  0.12700000000E+01 0. -1.
         21   -1    0    0  501  502  0.00000000000E+00 -0.00000000000E+00 -0.15825750015E+04  0.15825750015E+04  0.00000000000E+00 0.  1.
         25    2    1    2    0    0  0.11592964636E+02  0.31217809056E+02 -0.25660986830E+03  0.28737859249E+03  0.12501552897E+03 0.  0.
    9000005    1    3    3    0    0  0.27610014026E+02  0.51981460736E+02 -0.44868866549E+02  0.74017567646E+02  0.10000000000E+01 0.  0.
    9000005    1    3    3    0    0 -0.16017049389E+02 -0.20763651680E+02 -0.21174100175E+03  0.21336102484E+03  0.10000000000E+01 0.  0.
          4    1    1    2  501    0 -0.11592964636E+02 -0.31217809056E+02 -0.13103947840E+04  0.13108184662E+04  0.12700000000E+01 0.  1.
<mgrwt>
<rscale>  1 0.12937477E+03</rscale>
<asrwt>0</asrwt>
<pdfrwt beam="2">  1       21 0.24347311E+00 0.12937477E+03</pdfrwt>
<pdfrwt beam="1">  1        4 0.23994548E-02 0.12937477E+03</pdfrwt>
<totfact> 0.23807149E+03</totfact>
</mgrwt>
</event>
<event>
 6    4  0.6326233E-003  0.1419901E+03  0.7818608E-02  0.1210676E+00
          4   -1    0    0  502    0 -0.00000000000E+00  0.00000000000E+00  0.15205566163E+03  0.15206096519E+03  0.12700000000E+01 0.  1.
         21   -1    0    0  501  502  0.00000000000E+00 -0.00000000000E+00 -0.42203165543E+03  0.42203165543E+03  0.00000000000E+00 0. -1.
         25    2    1    2    0    0 -0.62096001164E+02  0.26075407372E+02  0.11533994903E+03  0.18293302540E+03  0.12500139083E+03 0.  0.
    9000005    1    3    3    0    0 -0.30520874053E+02  0.35821812717E+02  0.13602201903E+03  0.14393649878E+03  0.10000000000E+01 0.  0.
    9000005    1    3    3    0    0 -0.31575127111E+02 -0.97464053446E+01 -0.20682069997E+02  0.38996526622E+02  0.10000000000E+01 0.  0.
          4    1    1    2  501    0  0.62096001164E+02 -0.26075407372E+02 -0.38531594284E+03  0.39115959522E+03  0.12700000000E+01 0. -1.
<mgrwt>
<rscale>  1 0.14199010E+03</rscale>
<asrwt>0</asrwt>
<pdfrwt beam="2">  1       21 0.64927947E-01 0.14199010E+03</pdfrwt>
<pdfrwt beam="1">  1        4 0.23393734E-01 0.14199010E+03</pdfrwt>
<totfact> 0.15475080E+03</totfact>
</mgrwt>
</event>
<event>
 6    4  0.6326233E-003  0.1266907E+03  0.7818608E-02  0.1232450E+00
         21   -1    0    0  501  502  0.00000000000E+00  0.00000000000E+00  0.10935374564E+03  0.10935374564E+03  0.00000000000E+00 0. -1.
          4   -1    0    0  502    0 -0.00000000000E+00 -0.00000000000E+00 -0.50967113268E+02  0.50982933761E+02  0.12700000000E+01 0. -1.
         25    2    1    2    0    0 -0.32202560888E+01  0.20410382478E+02  0.40582439185E+02  0.13303180882E+03  0.12499429598E+03 0.  0.
    9000005    1    3    3    0    0  0.58671796452E+02  0.25034328902E+02  0.28124132803E+02  0.69721332233E+02  0.10000000000E+01 0.  0.
    9000005    1    3    3    0    0 -0.61892052541E+02 -0.46239464238E+01  0.12458306383E+02  0.63310476591E+02  0.10000000000E+01 0.  0.
          4    1    1    2  501    0  0.32202560888E+01 -0.20410382478E+02  0.17804193184E+02  0.27304870575E+02  0.12700000000E+01 0.  1.
<mgrwt>
<rscale>  1 0.12669068E+03</rscale>
<asrwt>0</asrwt>
<pdfrwt beam="1">  1       21 0.16823653E-01 0.12669068E+03</pdfrwt>
<pdfrwt beam="2">  1        4 0.78428786E-02 0.12669068E+03</pdfrwt>
<totfact> 0.14462635E+05</totfact>
</mgrwt>
</event>
<event>
 6    4  0.6326233E-003  0.1270655E+03  0.7818608E-02  0.1231876E+00
         -4   -1    0    0    0  501 -0.00000000000E+00  0.00000000000E+00  0.77837551735E+02  0.77847911726E+02  0.12700000000E+01 0.  1.
         21   -1    0    0  501  502  0.00000000000E+00 -0.00000000000E+00 -0.14455970996E+03  0.14455970996E+03  0.00000000000E+00 0. -1.
         25    2    1    2    0    0  0.17857628735E+02 -0.14198405121E+02  0.23601273711E+02  0.12923882397E+03  0.12500065555E+03 0.  0.
    9000005    1    3    3    0    0 -0.14185405496E+02  0.68848942063E+00  0.69705313494E+02  0.71144433908E+02  0.10000000000E+01 0.  0.
    9000005    1    3    3    0    0  0.32043034232E+02 -0.14886894541E+02 -0.46104039783E+02  0.58094390058E+02  0.10000000000E+01 0.  0.
         -4    1    1    2    0  502 -0.17857628735E+02  0.14198405121E+02 -0.90323431940E+02  0.93168797725E+02  0.12700000000E+01 0. -1.
<mgrwt>
<rscale>  1 0.12706555E+03</rscale>
<asrwt>0</asrwt>
<pdfrwt beam="2">  1       21 0.22239955E-01 0.12706555E+03</pdfrwt>
<pdfrwt beam="1">  1       -4 0.11976234E-01 0.12706555E+03</pdfrwt>
<totfact> 0.42506106E+04</totfact>
</mgrwt>
</event>
<event>
 6    4  0.6326233E-003  0.1266905E+03  0.7818608E-02  0.1232451E+00
         21   -1    0    0  501  502  0.00000000000E+00  0.00000000000E+00  0.51034596657E+03  0.51034596657E+03  0.00000000000E+00 0.  1.
          4   -1    0    0  502    0 -0.00000000000E+00 -0.00000000000E+00 -0.16468674699E+02  0.16517570837E+02  0.12700000000E+01 0.  1.
         25    2    1    2    0    0 -0.41256000601E+01  0.20207736016E+02  0.23339581828E+03  0.26556373994E+03  0.12500047524E+03 0.  0.
    9000005    1    3    3    0    0  0.46998595545E+02 -0.15336373553E+02  0.16856848718E+03  0.17567130445E+03  0.10000000000E+01 0.  0.
    9000005    1    3    3    0    0 -0.51124195605E+02  0.35544109568E+02  0.64827331099E+02  0.89892435492E+02  0.10000000000E+01 0.  0.
          4    1    1    2  501    0  0.41256000601E+01 -0.20207736016E+02  0.26048147359E+03  0.26129979746E+03  0.12700000000E+01 0. -1.
<mgrwt>
<rscale>  1 0.12669054E+03</rscale>
<asrwt>0</asrwt>
<pdfrwt beam="1">  1       21 0.78514752E-01 0.12669054E+03</pdfrwt>
<pdfrwt beam="2">  1        4 0.25375254E-02 0.12669054E+03</pdfrwt>
<totfact> 0.40954127E+04</totfact>
</mgrwt>
</event>
<event>
 6    4  0.6326233E-003  0.1351929E+03  0.7818608E-02  0.1219948E+00
         21   -1    0    0  501  502  0.00000000000E+00  0.00000000000E+00  0.16876057735E+02  0.16876057735E+02  0.00000000000E+00 0. -1.
         -4   -1    0    0    0  501 -0.00000000000E+00 -0.00000000000E+00 -0.97553361081E+03  0.97553443748E+03  0.12700000000E+01 0. -1.
         25    2    1    2    0    0 -0.28230725177E+02  0.43070327396E+02 -0.91485953099E+03  0.92479461998E+03  0.12500040301E+03 0.  0.
    9000005    1    3    3    0    0 -0.41940216000E+02  0.54000445630E+01 -0.82850210396E+03  0.82958114640E+03  0.10000000000E+01 0.  0.
    9000005    1    3    3    0    0  0.13709490823E+02  0.37670282833E+02 -0.86357427030E+02  0.95213473577E+02  0.10000000000E+01 0.  0.
         -4    1    1    2    0  502  0.28230725177E+02 -0.43070327396E+02 -0.43798022081E+02  0.67615875238E+02  0.12700000000E+01 0.  1.
<mgrwt>
<rscale>  1 0.13519293E+03</rscale>
<asrwt>0</asrwt>
<pdfrwt beam="1">  1       21 0.25963177E-02 0.13519293E+03</pdfrwt>
<pdfrwt beam="2">  1       -4 0.15008577E+00 0.13519293E+03</pdfrwt>
<totfact> 0.10423849E+04</totfact>
</mgrwt>
</event>
<event>
 6    4  0.6326233E-003  0.1308693E+03  0.7818608E-02  0.1226172E+00
          4   -1    0    0  502    0 -0.00000000000E+00  0.00000000000E+00  0.28591256976E+03  0.28591539036E+03  0.12700000000E+01 0. -1.
         21   -1    0    0  501  502  0.00000000000E+00 -0.00000000000E+00 -0.32016973306E+02  0.32016973306E+02  0.00000000000E+00 0.  1.
         25    2    1    2    0    0 -0.75075867939E+01  0.38020334964E+02  0.24558245914E+03  0.27827595331E+03  0.12499940890E+03 0.  0.
    9000005    1    3    3    0    0  0.46716996512E+01 -0.41318750705E+02  0.13743679470E+03  0.14359295413E+03  0.10000000000E+01 0.  0.
    9000005    1    3    3    0    0 -0.12179286445E+02  0.79339085670E+02  0.10814566444E+03  0.13468299918E+03  0.10000000000E+01 0.  0.
          4    1    1    2  501    0  0.75075867939E+01 -0.38020334964E+02  0.83131373173E+01  0.39656410356E+02  0.12700000000E+01 0.  1.
<mgrwt>
<rscale>  1 0.13086926E+03</rscale>
<asrwt>0</asrwt>
<pdfrwt beam="2">  1       21 0.49256884E-02 0.13086926E+03</pdfrwt>
<pdfrwt beam="1">  1        4 0.43988702E-01 0.13086926E+03</pdfrwt>
<totfact> 0.55774396E+04</totfact>
</mgrwt>
</event>
<event>
 6    4  0.6326233E-003  0.1310774E+03  0.7818608E-02  0.1225866E+00
          4   -1    0    0  502    0 -0.00000000000E+00  0.00000000000E+00  0.31938181931E+02  0.31963422298E+02  0.12700000000E+01 0.  1.
         21   -1    0    0  501  502  0.00000000000E+00 -0.00000000000E+00 -0.25367569175E+03  0.25367569175E+03  0.00000000000E+00 0.  1.
         25    2    1    2    0    0  0.14221665962E+02 -0.36801158647E+02 -0.12486110133E+03  0.18102920782E+03  0.12499879358E+03 0.  0.
    9000005    1    3    3    0    0 -0.15181344216E+02  0.38605686673E+02 -0.75699299456E+02  0.86326451299E+02  0.10000000000E+01 0.  0.
    9000005    1    3    3    0    0  0.29403010178E+02 -0.75406845320E+02 -0.49161801879E+02  0.94702756520E+02  0.10000000000E+01 0.  0.
          4    1    1    2  501    0 -0.14221665962E+02  0.36801158647E+02 -0.96876408488E+02  0.10460990623E+03  0.12700000000E+01 0. -1.
<mgrwt>
<rscale>  1 0.13107738E+03</rscale>
<asrwt>0</asrwt>
<pdfrwt beam="2">  1       21 0.39027030E-01 0.13107738E+03</pdfrwt>
<pdfrwt beam="1">  1        4 0.49157525E-02 0.13107738E+03</pdfrwt>
<totfact> 0.62885154E+04</totfact>
</mgrwt>
</event>
<event>
 6    4  0.6326233E-003  0.1284488E+03  0.7818608E-02  0.1229776E+00
          4   -1    0    0  502    0 -0.00000000000E+00  0.00000000000E+00  0.19488651376E+03  0.19489065176E+03  0.12700000000E+01 0. -1.
         21   -1    0    0  501  502  0.00000000000E+00 -0.00000000000E+00 -0.32266344196E+02  0.32266344196E+02  0.00000000000E+00 0. -1.
         25    2    1    2    0    0 -0.19640423944E+02  0.22113011013E+02  0.12440896076E+03  0.17882025127E+03  0.12499744493E+03 0.  0.
    9000005    1    3    3    0    0 -0.49237365746E+02 -0.30365492510E+02  0.96266518646E+02  0.11231484289E+03  0.10000000000E+01 0.  0.
    9000005    1    3    3    0    0  0.29596941802E+02  0.52478503523E+02  0.28142442115E+02  0.66505408384E+02  0.10000000000E+01 0.  0.
          4    1    1    2  501    0  0.19640423944E+02 -0.22113011013E+02  0.38211208799E+02  0.48336744684E+02  0.12700000000E+01 0.  1.
<mgrwt>
<rscale>  1 0.12844879E+03</rscale>
<asrwt>0</asrwt>
<pdfrwt beam="2">  1       21 0.49640531E-02 0.12844879E+03</pdfrwt>
<pdfrwt beam="1">  1        4 0.29984781E-01 0.12844879E+03</pdfrwt>
<totfact> 0.11544864E+05</totfact>
</mgrwt>
</event>
<event>
 6    4  0.6326233E-003  0.2872104E+03  0.7818608E-02  0.1091815E+00
         21   -1    0    0  501  502  0.00000000000E+00  0.00000000000E+00  0.74832341358E+02  0.74832341358E+02  0.00000000000E+00 0. -1.
         -4   -1    0    0    0  501 -0.00000000000E+00 -0.00000000000E+00 -0.11108441470E+04  0.11108448730E+04  0.12700000000E+01 0.  1.
         25    2    1    2    0    0  0.20196351670E+03  0.16148515305E+03 -0.73337906231E+03  0.78761326600E+03  0.12499236380E+03 0.  0.
    9000005    1    3    3    0    0  0.20703092502E+03  0.13122273130E+03 -0.70264763655E+03  0.74417465038E+03  0.10000000000E+01 0.  0.
    9000005    1    3    3    0    0 -0.50674083196E+01  0.30262421751E+02 -0.30731425763E+02  0.43438615618E+02  0.10000000000E+01 0.  0.
         -4    1    1    2    0  502 -0.20196351670E+03 -0.16148515305E+03 -0.30263274334E+03  0.39806394835E+03  0.12700000000E+01 0. -1.
<mgrwt>
<rscale>  1 0.28721039E+03</rscale>
<asrwt>0</asrwt>
<pdfrwt beam="1">  1       21 0.11512669E-01 0.28721039E+03</pdfrwt>
<pdfrwt beam="2">  1       -4 0.17089997E+00 0.28721039E+03</pdfrwt>
<totfact> 0.59534930E+02</totfact>
</mgrwt>
</event>
<event>
 6    4  0.6326233E-003  0.1303395E+03  0.7818608E-02  0.1226953E+00
         -4   -1    0    0    0  501 -0.00000000000E+00  0.00000000000E+00  0.71995445308E+02  0.72006645839E+02  0.12700000000E+01 0. -1.
         21   -1    0    0  501  502  0.00000000000E+00 -0.00000000000E+00 -0.11774763476E+03  0.11774763476E+03  0.00000000000E+00 0. -1.
         25    2    1    2    0    0 -0.34963469008E+02 -0.11873071323E+02  0.77543808074E+00  0.13034176499E+03  0.12499984163E+03 0.  0.
    9000005    1    3    3    0    0 -0.47729947264E+02  0.41319139052E+02 -0.27369567507E+02  0.68815058987E+02  0.10000000000E+01 0.  0.
    9000005    1    3    3    0    0  0.12766478256E+02 -0.53192210375E+02  0.28145005587E+02  0.61526706000E+02  0.10000000000E+01 0.  0.
         -4    1    1    2    0  502  0.34963469008E+02  0.11873071323E+02 -0.46527627537E+02  0.59412515617E+02  0.12700000000E+01 0.  1.
<mgrwt>
<rscale>  1 0.13033946E+03</rscale>
<asrwt>0</asrwt>
<pdfrwt beam="2">  1       21 0.18115021E-01 0.13033946E+03</pdfrwt>
<pdfrwt beam="1">  1       -4 0.11077611E-01 0.13033946E+03</pdfrwt>
<totfact> 0.71166440E+04</totfact>
</mgrwt>
</event>
<event>
 6    4  0.6326233E-003  0.1304030E+03  0.7818608E-02  0.1226859E+00
         21   -1    0    0  501  502  0.00000000000E+00  0.00000000000E+00  0.35307872038E+02  0.35307872038E+02  0.00000000000E+00 0. -1.
         -4   -1    0    0    0  501 -0.00000000000E+00 -0.00000000000E+00 -0.30040731370E+03  0.30040999821E+03  0.12700000000E+01 0.  1.
         25    2    1    2    0    0  0.25311530995E+02 -0.27267470168E+02 -0.26834317383E+03  0.29835046160E+03  0.12498300070E+03 0.  0.
    9000005    1    3    3    0    0  0.14506065382E+02  0.45777334494E+02 -0.16134948006E+03  0.16834679980E+03  0.10000000000E+01 0.  0.
    9000005    1    3    3    0    0  0.10805465613E+02 -0.73044804662E+02 -0.10699369377E+03  0.13000366180E+03  0.10000000000E+01 0.  0.
         -4    1    1    2    0  502 -0.25311530995E+02  0.27267470168E+02  0.32437321687E+01  0.37367408648E+02  0.12700000000E+01 0. -1.
<mgrwt>
<rscale>  1 0.13040299E+03</rscale>
<asrwt>0</asrwt>
<pdfrwt beam="1">  1       21 0.54319804E-02 0.13040299E+03</pdfrwt>
<pdfrwt beam="2">  1       -4 0.46218473E-01 0.13040299E+03</pdfrwt>
<totfact> 0.42827225E+04</totfact>
</mgrwt>
</event>
<event>
 6    4  0.6326233E-003  0.1353713E+03  0.7818608E-02  0.1219697E+00
         21   -1    0    0  501  502  0.00000000000E+00  0.00000000000E+00  0.23325679161E+02  0.23325679161E+02  0.00000000000E+00 0. -1.
          4   -1    0    0  502    0 -0.00000000000E+00 -0.00000000000E+00 -0.38297393982E+03  0.38297604557E+03  0.12700000000E+01 0. -1.
         25    2    1    2    0    0 -0.50164789855E+02 -0.13496574965E+02 -0.23406288653E+03  0.27039012563E+03  0.12500688584E+03 0.  0.
    9000005    1    3    3    0    0  0.14946452238E+02  0.45094124747E+02 -0.74500339766E+02  0.88363890512E+02  0.10000000000E+01 0.  0.
    9000005    1    3    3    0    0 -0.65111242093E+02 -0.58590699711E+02 -0.15956254676E+03  0.18202623511E+03  0.10000000000E+01 0.  0.
          4    1    1    2  501    0  0.50164789855E+02  0.13496574965E+02 -0.12558537413E+03  0.13591159911E+03  0.12700000000E+01 0.  1.
<mgrwt>
<rscale>  1 0.13537129E+03</rscale>
<asrwt>0</asrwt>
<pdfrwt beam="1">  1       21 0.35885664E-02 0.13537129E+03</pdfrwt>
<pdfrwt beam="2">  1        4 0.58921884E-01 0.13537129E+03</pdfrwt>
<totfact> 0.52271743E+04</totfact>
</mgrwt>
</event>
<event>
 6    4  0.6326233E-003  0.1446664E+03  0.7818608E-02  0.1207184E+00
          4   -1    0    0  502    0 -0.00000000000E+00  0.00000000000E+00  0.65487524848E+03  0.65487647993E+03  0.12700000000E+01 0.  1.
         21   -1    0    0  501  502  0.00000000000E+00 -0.00000000000E+00 -0.18196591073E+02  0.18196591073E+02  0.00000000000E+00 0.  1.
         25    2    1    2    0    0 -0.53369397194E+02 -0.49549982387E+02  0.39504820843E+03  0.42070354019E+03  0.12499955374E+03 0.  0.
    9000005    1    3    3    0    0 -0.38316663321E+02 -0.85226436126E+02  0.18665502676E+03  0.20874101446E+03  0.10000000000E+01 0.  0.
    9000005    1    3    3    0    0 -0.15052733872E+02  0.35676453739E+02  0.20839318167E+03  0.21196252574E+03  0.10000000000E+01 0.  0.
          4    1    1    2  501    0  0.53369397194E+02  0.49549982387E+02  0.24163044897E+03  0.25236953081E+03  0.12700000000E+01 0. -1.
<mgrwt>
<rscale>  1 0.14466645E+03</rscale>
<asrwt>0</asrwt>
<pdfrwt beam="2">  1       21 0.27994761E-02 0.14466645E+03</pdfrwt>
<pdfrwt beam="1">  1        4 0.10075352E+00 0.14466645E+03</pdfrwt>
<totfact> 0.24371102E+04</totfact>
</mgrwt>
</event>
<event>
 6    4  0.6326233E-003  0.1268650E+03  0.7818608E-02  0.1232183E+00
         21   -1    0    0  501  502  0.00000000000E+00  0.00000000000E+00  0.24529178201E+02  0.24529178201E+02  0.00000000000E+00 0. -1.
          4   -1    0    0  502    0 -0.00000000000E+00 -0.00000000000E+00 -0.10196294934E+04  0.10196302844E+04  0.12700000000E+01 0.  1.
         25    2    1    2    0    0 -0.71562085665E+01  0.20358475254E+02 -0.10099798556E+04  0.10179165120E+04  0.12501615024E+03 0.  0.
    9000005    1    3    3    0    0 -0.11603960034E+02  0.71908576303E+02 -0.49298279892E+03  0.49833576559E+03  0.10000000000E+01 0.  0.
    9000005    1    3    3    0    0  0.44477514674E+01 -0.51550101049E+02 -0.51699705666E+03  0.51958074637E+03  0.10000000000E+01 0.  0.
          4    1    1    2  501    0  0.71562085665E+01 -0.20358475254E+02  0.14879540337E+02  0.26242950603E+02  0.12700000000E+01 0. -1.
<mgrwt>
<rscale>  1 0.12686495E+03</rscale>
<asrwt>0</asrwt>
<pdfrwt beam="1">  1       21 0.37737190E-02 0.12686495E+03</pdfrwt>
<pdfrwt beam="2">  1        4 0.15686869E+00 0.12686495E+03</pdfrwt>
<totfact> 0.50076742E+03</totfact>
</mgrwt>
</event>
<event>
 6    4  0.6326233E-003  0.1304521E+03  0.7818608E-02  0.1226786E+00
         21   -1    0    0  501  502  0.00000000000E+00  0.00000000000E+00  0.15924992661E+02  0.15924992661E+02  0.00000000000E+00 0. -1.
         -4   -1    0    0    0  501 -0.00000000000E+00 -0.00000000000E+00 -0.49640775122E+03  0.49640937579E+03  0.12700000000E+01 0. -1.
         25    2    1    2    0    0  0.23295434244E+02 -0.29155860778E+02 -0.28665660075E+03  0.31494406011E+03  0.12500005109E+03 0.  0.
    9000005    1    3    3    0    0  0.36485473101E+02  0.25865752092E+02 -0.34438776523E+02  0.56455789846E+02  0.10000000000E+01 0.  0.
    9000005    1    3    3    0    0 -0.13190038857E+02 -0.55021612870E+02 -0.25221782422E+03  0.25848827026E+03  0.10000000000E+01 0.  0.
         -4    1    1    2    0  502 -0.23295434244E+02  0.29155860778E+02 -0.19382615781E+03  0.19739030834E+03  0.12700000000E+01 0.  1.
<mgrwt>
<rscale>  1 0.13045211E+03</rscale>
<asrwt>0</asrwt>
<pdfrwt beam="1">  1       21 0.24499995E-02 0.13045211E+03</pdfrwt>
<pdfrwt beam="2">  1       -4 0.76374423E-01 0.13045211E+03</pdfrwt>
<totfact> 0.55830646E+04</totfact>
</mgrwt>
</event>
<event>
 6    4  0.6326233E-003  0.1507960E+03  0.7818608E-02  0.1199498E+00
         21   -1    0    0  501  502  0.00000000000E+00  0.00000000000E+00  0.29229021100E+02  0.29229021100E+02  0.00000000000E+00 0.  1.
         -4   -1    0    0    0  501 -0.00000000000E+00 -0.00000000000E+00 -0.62144578367E+03  0.62144708136E+03  0.12700000000E+01 0. -1.
         25    2    1    2    0    0 -0.52382690460E+02  0.66110578690E+02 -0.20565222900E+03  0.25501424382E+03  0.12499948154E+03 0.  0.
    9000005    1    3    3    0    0 -0.25064470236E+02  0.27749104947E+02  0.62627409294E+01  0.37927067083E+02  0.10000000000E+01 0.  0.
    9000005    1    3    3    0    0 -0.27318220224E+02  0.38361473742E+02 -0.21191496993E+03  0.21708717674E+03  0.10000000000E+01 0.  0.
         -4    1    1    2    0  502  0.52382690460E+02 -0.66110578690E+02 -0.38656453357E+03  0.39566185864E+03  0.12700000000E+01 0.  1.
<mgrwt>
<rscale>  1 0.15079597E+03</rscale>
<asrwt>0</asrwt>
<pdfrwt beam="1">  1       21 0.44967726E-02 0.15079597E+03</pdfrwt>
<pdfrwt beam="2">  1       -4 0.95609262E-01 0.15079597E+03</pdfrwt>
<totfact> 0.12588756E+04</totfact>
</mgrwt>
</event>
<event>
 6    4  0.6326233E-003  0.1331227E+03  0.7818608E-02  0.1222894E+00
          4   -1    0    0  502    0 -0.00000000000E+00  0.00000000000E+00  0.67729952091E+03  0.67730071159E+03  0.12700000000E+01 0. -1.
         21   -1    0    0  501  502  0.00000000000E+00 -0.00000000000E+00 -0.72607709722E+02  0.72607709722E+02  0.00000000000E+00 0.  1.
         25    2    1    2    0    0  0.20472738456E+02 -0.40938107953E+02  0.66273798448E+03  0.67597579769E+03  0.12500632497E+03 0.  0.
    9000005    1    3    3    0    0 -0.40935920607E+02 -0.39709712532E+02  0.16757404104E+03  0.17701601649E+03  0.10000000000E+01 0.  0.
    9000005    1    3    3    0    0  0.61408659063E+02 -0.12283954207E+01  0.49516394345E+03  0.49895978120E+03  0.10000000000E+01 0.  0.
          4    1    1    2  501    0 -0.20472738456E+02  0.40938107953E+02 -0.58046173292E+02  0.73932623628E+02  0.12700000000E+01 0.  1.
<mgrwt>
<rscale>  1 0.13312266E+03</rscale>
<asrwt>0</asrwt>
<pdfrwt beam="2">  1       21 0.11170417E-01 0.13312266E+03</pdfrwt>
<pdfrwt beam="1">  1        4 0.10420087E+00 0.13312266E+03</pdfrwt>
<totfact> 0.21427591E+03</totfact>
</mgrwt>
</event>
<event>
 6    4  0.6326233E-003  0.1267104E+03  0.7818608E-02  0.1232420E+00
          4   -1    0    0  502    0 -0.00000000000E+00  0.00000000000E+00  0.60770560609E+03  0.60770693313E+03  0.12700000000E+01 0.  1.
         21   -1    0    0  501  502  0.00000000000E+00 -0.00000000000E+00 -0.89849311903E+01  0.89849311903E+01  0.00000000000E+00 0.  1.
         25    2    1    2    0    0  0.46153508061E+01 -0.20225450167E+02  0.52711779871E+03  0.54213346388E+03  0.12500059457E+03 0.  0.
    9000005    1    3    3    0    0  0.49009890167E+02  0.26920512054E+02  0.32839431479E+03  0.33312236383E+03  0.10000000000E+01 0.  0.
    9000005    1    3    3    0    0 -0.44394539361E+02 -0.47145962221E+02  0.19872348392E+03  0.20901110004E+03  0.10000000000E+01 0.  0.
          4    1    1    2  501    0 -0.46153508061E+01  0.20225450167E+02  0.71602876189E+02  0.74558400440E+02  0.12700000000E+01 0. -1.
<mgrwt>
<rscale>  1 0.12671037E+03</rscale>
<asrwt>0</asrwt>
<pdfrwt beam="2">  1       21 0.13822976E-02 0.12671037E+03</pdfrwt>
<pdfrwt beam="1">  1        4 0.93500144E-01 0.12671037E+03</pdfrwt>
<totfact> 0.88908841E+04</totfact>
</mgrwt>
</event>
<event>
 6    4  0.6326233E-003  0.1338443E+03  0.7818608E-02  0.1221861E+00
          4   -1    0    0  502    0 -0.00000000000E+00  0.00000000000E+00  0.92564872521E+01  0.93432037465E+01  0.12700000000E+01 0.  1.
         21   -1    0    0  501  502  0.00000000000E+00 -0.00000000000E+00 -0.17891787893E+04  0.17891787893E+04  0.00000000000E+00 0. -1.
         25    2    1    2    0    0  0.15748953858E+02  0.45178363376E+02 -0.49699300818E+03  0.51470023750E+03  0.12500068093E+03 0.  0.
    9000005    1    3    3    0    0 -0.48831886484E+02 -0.88502038523E+01 -0.18408021086E+03  0.19065519473E+03  0.10000000000E+01 0.  0.
    9000005    1    3    3    0    0  0.64580840342E+02  0.54028567228E+02 -0.31291279732E+03  0.32404504277E+03  0.10000000000E+01 0.  0.
          4    1    1    2  501    0 -0.15748953858E+02 -0.45178363376E+02 -0.12829292939E+04  0.12838217555E+04  0.12700000000E+01 0. -1.
<mgrwt>
<rscale>  1 0.13384425E+03</rscale>
<asrwt>0</asrwt>
<pdfrwt beam="2">  1       21 0.27525834E+00 0.13384425E+03</pdfrwt>
<pdfrwt beam="1">  1        4 0.14307798E-02 0.13384425E+03</pdfrwt>
<totfact> 0.34644311E+03</totfact>
</mgrwt>
</event>
<event>
 6    4  0.6326233E-003  0.1347028E+03  0.7818608E-02  0.1220640E+00
         -4   -1    0    0    0  501 -0.00000000000E+00  0.00000000000E+00  0.10571199401E+03  0.10571962248E+03  0.12700000000E+01 0.  1.
         21   -1    0    0  501  502  0.00000000000E+00 -0.00000000000E+00 -0.29092298078E+03  0.29092298078E+03  0.00000000000E+00 0. -1.
         25    2    1    2    0    0 -0.45636359746E+02 -0.20901616108E+02  0.59192523853E+02  0.14713459980E+03  0.12500112276E+03 0.  0.
    9000005    1    3    3    0    0 -0.72595034445E+02 -0.35225057143E+02  0.77200739423E+02  0.11167720378E+03  0.10000000000E+01 0.  0.
    9000005    1    3    3    0    0  0.26958674700E+02  0.14323441035E+02 -0.18008215569E+02  0.35457396022E+02  0.10000000000E+01 0.  0.
         -4    1    1    2    0  502  0.45636359746E+02  0.20901616108E+02 -0.24440351062E+03  0.24950800346E+03  0.12700000000E+01 0. -1.
<mgrwt>
<rscale>  1 0.13470277E+03</rscale>
<asrwt>0</asrwt>
<pdfrwt beam="2">  1       21 0.44757381E-01 0.13470277E+03</pdfrwt>
<pdfrwt beam="1">  1       -4 0.16264184E-01 0.13470277E+03</pdfrwt>
<totfact> 0.64576802E+03</totfact>
</mgrwt>
</event>
<event>
 6    4  0.6326233E-003  0.1268635E+03  0.7818608E-02  0.1232185E+00
         21   -1    0    0  501  502  0.00000000000E+00  0.00000000000E+00  0.19966005524E+03  0.19966005524E+03  0.00000000000E+00 0.  1.
         -4   -1    0    0    0  501 -0.00000000000E+00 -0.00000000000E+00 -0.61915683649E+02  0.61928707251E+02  0.12700000000E+01 0. -1.
         25    2    1    2    0    0  0.11781063308E+02  0.18173847414E+02  0.48722560704E+01  0.12695706427E+03  0.12500110042E+03 0.  0.
    9000005    1    3    3    0    0  0.61828907212E+02 -0.18736510523E+02  0.43640085731E+01  0.64760444443E+02  0.10000000000E+01 0.  0.
    9000005    1    3    3    0    0 -0.50047843904E+02  0.36910357938E+02  0.50824749730E+00  0.62196619828E+02  0.10000000000E+01 0.  0.
         -4    1    1    2    0  502 -0.11781063308E+02 -0.18173847414E+02  0.13287211552E+03  0.13463169822E+03  0.12700000000E+01 0.  1.
<mgrwt>
<rscale>  1 0.12686354E+03</rscale>
<asrwt>0</asrwt>
<pdfrwt beam="1">  1       21 0.30716931E-01 0.12686354E+03</pdfrwt>
<pdfrwt beam="2">  1       -4 0.95268024E-02 0.12686354E+03</pdfrwt>
<totfact> 0.33898464E+04</totfact>
</mgrwt>
</event>
<event>
 6    4  0.6326233E-003  0.1277061E+03  0.7818608E-02  0.1230900E+00
          4   -1    0    0  502    0 -0.00000000000E+00  0.00000000000E+00  0.13878229545E+02  0.13936217395E+02  0.12700000000E+01 0.  1.
         21   -1    0    0  501  502  0.00000000000E+00 -0.00000000000E+00 -0.69911506418E+03  0.69911506418E+03  0.00000000000E+00 0. -1.
         25    2    1    2    0    0 -0.24488031782E+02 -0.91747520464E+01 -0.28909829966E+03  0.31604852142E+03  0.12500000501E+03 0.  0.
    9000005    1    3    3    0    0  0.37641764189E+02  0.30429440953E+02 -0.71805436166E+02  0.86601812630E+02  0.10000000000E+01 0.  0.
    9000005    1    3    3    0    0 -0.62129795971E+02 -0.39604192999E+02 -0.21729286349E+03  0.22944670879E+03  0.10000000000E+01 0.  0.
          4    1    1    2  501    0  0.24488031782E+02  0.91747520464E+01 -0.39613853497E+03  0.39700276015E+03  0.12700000000E+01 0. -1.
<mgrwt>
<rscale>  1 0.12770607E+03</rscale>
<asrwt>0</asrwt>
<pdfrwt beam="2">  1       21 0.10755614E+00 0.12770607E+03</pdfrwt>
<pdfrwt beam="1">  1        4 0.21396620E-02 0.12770607E+03</pdfrwt>
<totfact> 0.25884572E+04</totfact>
</mgrwt>
</event>
<event>
 6    4  0.6326233E-003  0.1332233E+03  0.7818608E-02  0.1222750E+00
         21   -1    0    0  501  502  0.00000000000E+00  0.00000000000E+00  0.42279101631E+03  0.42279101631E+03  0.00000000000E+00 0. -1.
          4   -1    0    0  502    0 -0.00000000000E+00 -0.00000000000E+00 -0.19323394566E+02  0.19365083980E+02  0.12700000000E+01 0. -1.
         25    2    1    2    0    0 -0.36681589496E+02 -0.27883957818E+02  0.27270069478E+03  0.30350309383E+03  0.12500161968E+03 0.  0.
    9000005    1    3    3    0    0  0.22475186310E+02 -0.42465436769E+02  0.21242291081E+03  0.21779104747E+03  0.10000000000E+01 0.  0.
    9000005    1    3    3    0    0 -0.59156775806E+02  0.14581478951E+02  0.60277783967E+02  0.85712046365E+02  0.10000000000E+01 0.  0.
          4    1    1    2  501    0  0.36681589496E+02  0.27883957818E+02  0.13076692697E+03  0.13865300646E+03  0.12700000000E+01 0.  1.
<mgrwt>
<rscale>  1 0.13322334E+03</rscale>
<asrwt>0</asrwt>
<pdfrwt beam="1">  1       21 0.65044765E-01 0.13322334E+03</pdfrwt>
<pdfrwt beam="2">  1        4 0.29761839E-02 0.13322334E+03</pdfrwt>
<totfact> 0.48473881E+04</totfact>
</mgrwt>
</event>
<event>
 6    4  0.6326233E-003  0.1275358E+03  0.7818608E-02  0.1231159E+00
         21   -1    0    0  501  502  0.00000000000E+00  0.00000000000E+00  0.67475091649E+03  0.67475091649E+03  0.00000000000E+00 0. -1.
         -4   -1    0    0    0  501 -0.00000000000E+00 -0.00000000000E+00 -0.12118123683E+02  0.12184491028E+02  0.12700000000E+01 0. -1.
         25    2    1    2    0    0 -0.68767974860E+00 -0.25290700002E+02  0.33710701547E+03  0.36042547349E+03  0.12500115859E+03 0.  0.
    9000005    1    3    3    0    0  0.40359941080E+02  0.33099504474E+02  0.18798198865E+03  0.19509671985E+03  0.10000000000E+01 0.  0.
    9000005    1    3    3    0    0 -0.41047620828E+02 -0.58390204476E+02  0.14912502682E+03  0.16532875364E+03  0.10000000000E+01 0.  0.
         -4    1    1    2    0  502  0.68767974860E+00  0.25290700002E+02  0.32552577734E+03  0.32650993403E+03  0.12700000000E+01 0.  1.
<mgrwt>
<rscale>  1 0.12753581E+03</rscale>
<asrwt>0</asrwt>
<pdfrwt beam="1">  1       21 0.10380780E+00 0.12753581E+03</pdfrwt>
<pdfrwt beam="2">  1       -4 0.18695244E-02 0.12753581E+03</pdfrwt>
<totfact> 0.34650268E+04</totfact>
</mgrwt>
</event>
<event>
 6    4  0.6326233E-003  0.1386145E+03  0.7818608E-02  0.1215206E+00
          4   -1    0    0  502    0 -0.00000000000E+00  0.00000000000E+00  0.59947152555E+02  0.59960603728E+02  0.12700000000E+01 0. -1.
         21   -1    0    0  501  502  0.00000000000E+00 -0.00000000000E+00 -0.20529670607E+03  0.20529670607E+03  0.00000000000E+00 0.  1.
         25    2    1    2    0    0  0.59929815887E+02 -0.23754160012E+00 -0.40377460202E+02  0.14437558027E+03  0.12498931806E+03 0.  0.
    9000005    1    3    3    0    0  0.22368762738E+02 -0.19905459155E+02 -0.80560970520E+02  0.85951491096E+02  0.10000000000E+01 0.  0.
    9000005    1    3    3    0    0  0.37561053149E+02  0.19667917555E+02  0.40183510318E+02  0.58424089177E+02  0.10000000000E+01 0.  0.
          4    1    1    2  501    0 -0.59929815887E+02  0.23754160012E+00 -0.10497209332E+03  0.12088172953E+03  0.12700000000E+01 0.  1.
<mgrwt>
<rscale>  1 0.13861446E+03</rscale>
<asrwt>0</asrwt>
<pdfrwt beam="2">  1       21 0.31584109E-01 0.13861446E+03</pdfrwt>
<pdfrwt beam="1">  1        4 0.92239755E-02 0.13861446E+03</pdfrwt>
<totfact> 0.34221662E+04</totfact>
</mgrwt>
</event>
<event>
 6    4  0.6326233E-003  0.1273149E+03  0.7818608E-02  0.1231495E+00
          4   -1    0    0  502    0 -0.00000000000E+00  0.00000000000E+00  0.53270510179E+02  0.53285646798E+02  0.12700000000E+01 0. -1.
         21   -1    0    0  501  502  0.00000000000E+00 -0.00000000000E+00 -0.14857161556E+03  0.14857161556E+03  0.00000000000E+00 0.  1.
         25    2    1    2    0    0  0.19783149158E+02  0.13876541762E+02 -0.28026676554E+02  0.13036325509E+03  0.12500060910E+03 0.  0.
    9000005    1    3    3    0    0 -0.15633652558E+02  0.12157607753E+02 -0.71531797091E+02  0.74229485473E+02  0.10000000000E+01 0.  0.
    9000005    1    3    3    0    0  0.35416801716E+02  0.17189340087E+01  0.43505120537E+02  0.56133769612E+02  0.10000000000E+01 0.  0.
          4    1    1    2  501    0 -0.19783149158E+02 -0.13876541762E+02 -0.67274428832E+02  0.71494007277E+02  0.12700000000E+01 0.  1.
<mgrwt>
<rscale>  1 0.12731490E+03</rscale>
<asrwt>0</asrwt>
<pdfrwt beam="2">  1       21 0.22857171E-01 0.12731490E+03</pdfrwt>
<pdfrwt beam="1">  1        4 0.81970451E-02 0.12731490E+03</pdfrwt>
<totfact> 0.76427516E+04</totfact>
</mgrwt>
</event>
<event>
 6    4  0.6326233E-003  0.1278464E+03  0.7818608E-02  0.1230687E+00
         21   -1    0    0  501  502  0.00000000000E+00  0.00000000000E+00  0.46459011564E+02  0.46459011564E+02  0.00000000000E+00 0.  1.
         -4   -1    0    0    0  501 -0.00000000000E+00 -0.00000000000E+00 -0.22230432292E+03  0.22230795058E+03  0.12700000000E+01 0. -1.
         25    2    1    2    0    0  0.26690323675E+02 -0.36815270929E+01 -0.19675201759E+03  0.23464028219E+03  0.12497511184E+03 0.  0.
    9000005    1    3    3    0    0 -0.31889272868E+02 -0.22578520441E+01 -0.28917185347E+01  0.32115193538E+02  0.10000000000E+01 0.  0.
    9000005    1    3    3    0    0  0.58579596543E+02 -0.14236750488E+01 -0.19386029906E+03  0.20252508865E+03  0.10000000000E+01 0.  0.
         -4    1    1    2    0  502 -0.26690323675E+02  0.36815270929E+01  0.20906706229E+02  0.34126679959E+02  0.12700000000E+01 0.  1.
<mgrwt>
<rscale>  1 0.12784641E+03</rscale>
<asrwt>0</asrwt>
<pdfrwt beam="1">  1       21 0.71475401E-02 0.12784641E+03</pdfrwt>
<pdfrwt beam="2">  1       -4 0.34202280E-01 0.12784641E+03</pdfrwt>
<totfact> 0.48407022E+04</totfact>
</mgrwt>
</event>
<event>
 6    4  0.6326233E-003  0.1270447E+03  0.7818608E-02  0.1231908E+00
         -4   -1    0    0    0  501 -0.00000000000E+00  0.00000000000E+00  0.12070070822E+02  0.12136700938E+02  0.12700000000E+01 0.  1.
         21   -1    0    0  501  502  0.00000000000E+00 -0.00000000000E+00 -0.46362921291E+03  0.46362921291E+03  0.00000000000E+00 0.  1.
         25    2    1    2    0    0 -0.17212636785E+02 -0.14861150151E+02 -0.38157944294E+03  0.40217311636E+03  0.12499286220E+03 0.  0.
    9000005    1    3    3    0    0  0.37712274898E+02 -0.36289075455E+02 -0.85283918943E+02  0.10006727490E+03  0.10000000000E+01 0.  0.
    9000005    1    3    3    0    0 -0.54924911683E+02  0.21427925304E+02 -0.29629552400E+03  0.30210584147E+03  0.10000000000E+01 0.  0.
         -4    1    1    2    0  502  0.17212636785E+02  0.14861150151E+02 -0.69979699148E+02  0.73592797486E+02  0.12700000000E+01 0. -1.
<mgrwt>
<rscale>  1 0.12704465E+03</rscale>
<asrwt>0</asrwt>
<pdfrwt beam="2">  1       21 0.71327570E-01 0.12704465E+03</pdfrwt>
<pdfrwt beam="1">  1       -4 0.18621932E-02 0.12704465E+03</pdfrwt>
<totfact> 0.81619397E+04</totfact>
</mgrwt>
</event>
<event>
 6    4  0.6326233E-003  0.1271431E+03  0.7818608E-02  0.1231757E+00
         21   -1    0    0  501  502  0.00000000000E+00  0.00000000000E+00  0.15938743821E+03  0.15938743821E+03  0.00000000000E+00 0. -1.
         -4   -1    0    0    0  501 -0.00000000000E+00 -0.00000000000E+00 -0.36024440316E+02  0.36046819556E+02  0.12700000000E+01 0. -1.
         25    2    1    2    0    0 -0.54854704407E+01  0.22579335474E+02  0.94819356964E+02  0.15860669860E+03  0.12500183043E+03 0.  0.
    9000005    1    3    3    0    0  0.17565985714E+02 -0.19941441421E+02 -0.20482418579E+02  0.33567162687E+02  0.10000000000E+01 0.  0.
    9000005    1    3    3    0    0 -0.23051456155E+02  0.42520776894E+02  0.11530177554E+03  0.12503953591E+03  0.10000000000E+01 0.  0.
         -4    1    1    2    0  502  0.54854704407E+01 -0.22579335474E+02  0.28543640928E+02  0.36827559162E+02  0.12700000000E+01 0.  1.
<mgrwt>
<rscale>  1 0.12714313E+03</rscale>
<asrwt>0</asrwt>
<pdfrwt beam="1">  1       21 0.24521144E-01 0.12714313E+03</pdfrwt>
<pdfrwt beam="2">  1       -4 0.55443324E-02 0.12714313E+03</pdfrwt>
<totfact> 0.12693014E+05</totfact>
</mgrwt>
</event>
<event>
 6    4  0.6326233E-003  0.1678735E+03  0.7818608E-02  0.1180084E+00
         21   -1    0    0  501  502  0.00000000000E+00  0.00000000000E+00  0.25452924554E+02  0.25452924554E+02  0.00000000000E+00 0.  1.
         -4   -1    0    0    0  501 -0.00000000000E+00 -0.00000000000E+00 -0.84403063141E+03  0.84403158688E+03  0.12700000000E+01 0. -1.
         25    2    1    2    0    0 -0.28885804544E+00 -0.11205672940E+03 -0.61036022128E+03  0.63302536435E+03  0.12499887257E+03 0.  0.
    9000005    1    3    3    0    0  0.22731731110E+02 -0.39774192398E+02 -0.51073330346E+02  0.68616346834E+02  0.10000000000E+01 0.  0.
    9000005    1    3    3    0    0 -0.23020589156E+02 -0.72282537005E+02 -0.55928689093E+03  0.56440901751E+03  0.10000000000E+01 0.  0.
         -4    1    1    2    0  502  0.28885804544E+00  0.11205672940E+03 -0.20821748557E+03  0.23645914709E+03  0.12700000000E+01 0.  1.
<mgrwt>
<rscale>  1 0.16787350E+03</rscale>
<asrwt>0</asrwt>
<pdfrwt beam="1">  1       21 0.39158346E-02 0.16787350E+03</pdfrwt>
<pdfrwt beam="2">  1       -4 0.12985337E+00 0.16787350E+03</pdfrwt>
<totfact> 0.77326875E+03</totfact>
</mgrwt>
</event>
<event>
 6    4  0.6326233E-003  0.1269862E+03  0.7818608E-02  0.1231997E+00
         -4   -1    0    0    0  501 -0.00000000000E+00  0.00000000000E+00  0.28093731665E+03  0.28094018721E+03  0.12700000000E+01 0.  1.
         21   -1    0    0  501  502  0.00000000000E+00 -0.00000000000E+00 -0.46614254237E+02  0.46614254237E+02  0.00000000000E+00 0.  1.
         25    2    1    2    0    0  0.16026409436E+02 -0.15522482391E+02  0.26249363024E+03  0.29159631231E+03  0.12501084025E+03 0.  0.
    9000005    1    3    3    0    0 -0.47100285626E+02 -0.29292437884E+02  0.16956653351E+03  0.17841046245E+03  0.10000000000E+01 0.  0.
    9000005    1    3    3    0    0  0.63126695062E+02  0.13769955493E+02  0.92927096727E+02  0.11318584987E+03  0.10000000000E+01 0.  0.
         -4    1    1    2    0  502 -0.16026409436E+02  0.15522482391E+02 -0.28170567825E+02  0.35958129130E+02  0.12700000000E+01 0. -1.
<mgrwt>
<rscale>  1 0.12698623E+03</rscale>
<asrwt>0</asrwt>
<pdfrwt beam="2">  1       21 0.71714239E-02 0.12698623E+03</pdfrwt>
<pdfrwt beam="1">  1       -4 0.43222676E-01 0.12698623E+03</pdfrwt>
<totfact> 0.30438507E+04</totfact>
</mgrwt>
</event>
<event>
 6    4  0.6326233E-003  0.1277296E+03  0.7818608E-02  0.1230864E+00
         21   -1    0    0  501  502  0.00000000000E+00  0.00000000000E+00  0.37249400101E+02  0.37249400101E+02  0.00000000000E+00 0.  1.
         -4   -1    0    0    0  501 -0.00000000000E+00 -0.00000000000E+00 -0.11832181178E+04  0.11832187994E+04  0.12700000000E+01 0. -1.
         25    2    1    2    0    0 -0.26233254385E+02 -0.13544048801E+01 -0.11746388634E+04  0.11815630816E+04  0.12499935356E+03 0.  0.
    9000005    1    3    3    0    0  0.76970015890E+01  0.57673888104E+02 -0.45402572628E+03  0.45773997130E+03  0.10000000000E+01 0.  0.
    9000005    1    3    3    0    0 -0.33930255974E+02 -0.59028292984E+02 -0.72061313709E+03  0.72382311029E+03  0.10000000000E+01 0.  0.
         -4    1    1    2    0  502  0.26233254385E+02  0.13544048801E+01  0.28670145646E+02  0.38905117909E+02  0.12700000000E+01 0.  1.
<mgrwt>
<rscale>  1 0.12772962E+03</rscale>
<asrwt>0</asrwt>
<pdfrwt beam="1">  1       21 0.57306781E-02 0.12772962E+03</pdfrwt>
<pdfrwt beam="2">  1       -4 0.18203524E+00 0.12772962E+03</pdfrwt>
<totfact> 0.16784379E+03</totfact>
</mgrwt>
</event>
<event>
 6    4  0.6326233E-003  0.1282527E+03  0.7818608E-02  0.1230072E+00
         21   -1    0    0  501  502  0.00000000000E+00  0.00000000000E+00  0.48661531347E+01  0.48661531347E+01  0.00000000000E+00 0.  1.
          4   -1    0    0  502    0 -0.00000000000E+00 -0.00000000000E+00 -0.14412328413E+04  0.14412334008E+04  0.12700000000E+01 0.  1.
         25    2    1    2    0    0  0.28472132584E+02  0.38587972329E+01 -0.91554853171E+03  0.92448789994E+03  0.12499284205E+03 0.  0.
    9000005    1    3    3    0    0  0.19424056165E+02  0.33086575232E+02 -0.86163623986E+03  0.86249059430E+03  0.10000000000E+01 0.  0.
    9000005    1    3    3    0    0  0.90480764197E+01 -0.29227777999E+02 -0.53912291853E+02  0.61997305640E+02  0.10000000000E+01 0.  0.
          4    1    1    2  501    0 -0.28472132584E+02 -0.38587972329E+01 -0.52081815644E+03  0.52161165404E+03  0.12700000000E+01 0. -1.
<mgrwt>
<rscale>  1 0.12825273E+03</rscale>
<asrwt>0</asrwt>
<pdfrwt beam="1">  1       21 0.74863906E-03 0.12825273E+03</pdfrwt>
<pdfrwt beam="2">  1        4 0.22174089E+00 0.12825273E+03</pdfrwt>
<totfact> 0.25738326E+04</totfact>
</mgrwt>
</event>
<event>
 6    4  0.6326233E-003  0.1296810E+03  0.7818608E-02  0.1227930E+00
          4   -1    0    0  502    0 -0.00000000000E+00  0.00000000000E+00  0.47487124924E+03  0.47487294749E+03  0.12700000000E+01 0.  1.
         21   -1    0    0  501  502  0.00000000000E+00 -0.00000000000E+00 -0.83780254180E+02  0.83780254180E+02  0.00000000000E+00 0. -1.
         25    2    1    2    0    0  0.27954117685E+02  0.20262966453E+02  0.46195701271E+03  0.47981396105E+03  0.12500054047E+03 0.  0.
    9000005    1    3    3    0    0  0.48079256038E+02 -0.39317858027E+02  0.16585260726E+03  0.17710334880E+03  0.10000000000E+01 0.  0.
    9000005    1    3    3    0    0 -0.20125138353E+02  0.59580824481E+02  0.29610440545E+03  0.30271061224E+03  0.10000000000E+01 0.  0.
          4    1    1    2  501    0 -0.27954117685E+02 -0.20262966453E+02 -0.70866017648E+02  0.78839240625E+02  0.12700000000E+01 0. -1.
<mgrwt>
<rscale>  1 0.12968098E+03</rscale>
<asrwt>0</asrwt>
<pdfrwt beam="2">  1       21 0.12889270E-01 0.12968098E+03</pdfrwt>
<pdfrwt beam="1">  1        4 0.73057984E-01 0.12968098E+03</pdfrwt>
<totfact> 0.36870740E+03</totfact>
</mgrwt>
</event>
<event>
 6    4  0.6326233E-003  0.1286252E+03  0.7818608E-02  0.1229510E+00
         21   -1    0    0  501  502  0.00000000000E+00  0.00000000000E+00  0.26120712080E+03  0.26120712080E+03  0.00000000000E+00 0. -1.
          4   -1    0    0  502    0 -0.00000000000E+00 -0.00000000000E+00 -0.30495301821E+03  0.30495566271E+03  0.12700000000E+01 0.  1.
         25    2    1    2    0    0  0.27558274306E+02 -0.12631732530E+02 -0.29042029175E+03  0.31762930715E+03  0.12500164698E+03 0.  0.
    9000005    1    3    3    0    0 -0.13092044523E+02 -0.44057243464E+02 -0.36890969534E+02  0.58943922203E+02  0.10000000000E+01 0.  0.
    9000005    1    3    3    0    0  0.40650318830E+02  0.31425510934E+02 -0.25352932222E+03  0.25868538494E+03  0.10000000000E+01 0.  0.
          4    1    1    2  501    0 -0.27558274306E+02  0.12631732530E+02  0.24667439434E+03  0.24853347636E+03  0.12700000000E+01 0. -1.
<mgrwt>
<rscale>  1 0.12862516E+03</rscale>
<asrwt>0</asrwt>
<pdfrwt beam="1">  1       21 0.40185711E-01 0.12862516E+03</pdfrwt>
<pdfrwt beam="2">  1        4 0.46916290E-01 0.12862516E+03</pdfrwt>
<totfact> 0.10990131E+03</totfact>
</mgrwt>
</event>
<event>
 6    4  0.6326233E-003  0.1357946E+03  0.7818608E-02  0.1219102E+00
          4   -1    0    0  502    0 -0.00000000000E+00  0.00000000000E+00  0.19255579419E+02  0.19297415339E+02  0.12700000000E+01 0.  1.
         21   -1    0    0  501  502  0.00000000000E+00 -0.00000000000E+00 -0.93641187965E+03  0.93641187965E+03  0.00000000000E+00 0. -1.
         25    2    1    2    0    0  0.46122223050E+01 -0.52855210328E+02 -0.23440358154E+03  0.27089703339E+03  0.12500087123E+03 0.  0.
    9000005    1    3    3    0    0  0.32668731797E+01 -0.24618778861E+02  0.85637774514E+01  0.26288686107E+02  0.10000000000E+01 0.  0.
    9000005    1    3    3    0    0  0.13453491253E+01 -0.28236431467E+02 -0.24296735899E+03  0.24460834728E+03  0.10000000000E+01 0.  0.
          4    1    1    2  501    0 -0.46122223050E+01  0.52855210328E+02 -0.68275271869E+03  0.68481226160E+03  0.12700000000E+01 0. -1.
<mgrwt>
<rscale>  1 0.13579456E+03</rscale>
<asrwt>0</asrwt>
<pdfrwt beam="2">  1       21 0.14406337E+00 0.13579456E+03</pdfrwt>
<pdfrwt beam="1">  1        4 0.29656811E-02 0.13579456E+03</pdfrwt>
<totfact> 0.76126791E+03</totfact>
</mgrwt>
</event>
<event>
 6    4  0.6326233E-003  0.1311712E+03  0.7818608E-02  0.1225728E+00
         -4   -1    0    0    0  501 -0.00000000000E+00  0.00000000000E+00  0.11274549286E+02  0.11345852176E+02  0.12700000000E+01 0. -1.
         21   -1    0    0  501  502  0.00000000000E+00 -0.00000000000E+00 -0.79462462545E+03  0.79462462545E+03  0.00000000000E+00 0.  1.
         25    2    1    2    0    0  0.11176506624E+02 -0.38154970959E+02 -0.40915319222E+03  0.42966523323E+03  0.12500064732E+03 0.  0.
    9000005    1    3    3    0    0  0.67157378451E+02 -0.82241675036E+01 -0.20765289384E+03  0.21839980479E+03  0.10000000000E+01 0.  0.
    9000005    1    3    3    0    0 -0.55980871827E+02 -0.29930803455E+02 -0.20150029838E+03  0.21126542844E+03  0.10000000000E+01 0.  0.
         -4    1    1    2    0  502 -0.11176506624E+02  0.38154970959E+02 -0.37419688394E+03  0.37630524439E+03  0.12700000000E+01 0.  1.
<mgrwt>
<rscale>  1 0.13117118E+03</rscale>
<asrwt>0</asrwt>
<pdfrwt beam="2">  1       21 0.12224994E+00 0.13117118E+03</pdfrwt>
<pdfrwt beam="1">  1       -4 0.17401090E-02 0.13117118E+03</pdfrwt>
<totfact> 0.26171552E+04</totfact>
</mgrwt>
</event>
<event>
 6    4  0.6326233E-003  0.1270552E+03  0.7818608E-02  0.1231892E+00
         21   -1    0    0  501  502  0.00000000000E+00  0.00000000000E+00  0.29574999139E+03  0.29574999139E+03  0.00000000000E+00 0. -1.
          4   -1    0    0  502    0 -0.00000000000E+00 -0.00000000000E+00 -0.23866728397E+02  0.23900494229E+02  0.12700000000E+01 0. -1.
         25    2    1    2    0    0  0.14430593167E+02  0.17596344812E+02  0.15430093046E+03  0.19987949083E+03  0.12500064137E+03 0.  0.
    9000005    1    3    3    0    0  0.61831563936E+02  0.67576449702E+01  0.35769596770E+02  0.71758428895E+02  0.10000000000E+01 0.  0.
    9000005    1    3    3    0    0 -0.47400970769E+02  0.10838699841E+02  0.11853133369E+03  0.12812106193E+03  0.10000000000E+01 0.  0.
          4    1    1    2  501    0 -0.14430593167E+02 -0.17596344812E+02  0.11758233253E+03  0.11977099479E+03  0.12700000000E+01 0.  1.
<mgrwt>
<rscale>  1 0.12705524E+03</rscale>
<asrwt>0</asrwt>
<pdfrwt beam="1">  1       21 0.45499996E-01 0.12705524E+03</pdfrwt>
<pdfrwt beam="2">  1        4 0.36746117E-02 0.12705524E+03</pdfrwt>
<totfact> 0.73096558E+04</totfact>
</mgrwt>
</event>
<event>
 6    4  0.6326233E-003  0.1329190E+03  0.7818608E-02  0.1223188E+00
         -4   -1    0    0    0  501 -0.00000000000E+00  0.00000000000E+00  0.15710694555E+03  0.15711207859E+03  0.12700000000E+01 0. -1.
         21   -1    0    0  501  502  0.00000000000E+00 -0.00000000000E+00 -0.14048779101E+03  0.14048779101E+03  0.00000000000E+00 0.  1.
         25    2    1    2    0    0  0.37535983631E+02 -0.25130242764E+02  0.12357526299E+03  0.18148914140E+03  0.12500793436E+03 0.  0.
    9000005    1    3    3    0    0 -0.24227577670E+02  0.14501218997E+02  0.10073950911E+03  0.10462652421E+03  0.10000000000E+01 0.  0.
    9000005    1    3    3    0    0  0.61763561302E+02 -0.39631461761E+02  0.22835753883E+02  0.76862617191E+02  0.10000000000E+01 0.  0.
         -4    1    1    2    0  502 -0.37535983631E+02  0.25130242764E+02 -0.10695610845E+03  0.11611072820E+03  0.12700000000E+01 0.  1.
<mgrwt>
<rscale>  1 0.13291901E+03</rscale>
<asrwt>0</asrwt>
<pdfrwt beam="2">  1       21 0.21613506E-01 0.13291901E+03</pdfrwt>
<pdfrwt beam="1">  1       -4 0.24171136E-01 0.13291901E+03</pdfrwt>
<totfact> 0.13009717E+04</totfact>
</mgrwt>
</event>
<event>
 6    4  0.6326233E-003  0.1268638E+03  0.7818608E-02  0.1232185E+00
         -4   -1    0    0    0  501 -0.00000000000E+00  0.00000000000E+00  0.34795743214E+02  0.34818912186E+02  0.12700000000E+01 0.  1.
         21   -1    0    0  501  502  0.00000000000E+00 -0.00000000000E+00 -0.18369043336E+03  0.18369043336E+03  0.00000000000E+00 0. -1.
         25    2    1    2    0    0  0.74413384094E+01 -0.20313091514E+02 -0.89422807580E+02  0.15521232413E+03  0.12500572724E+03 0.  0.
    9000005    1    3    3    0    0 -0.45049981101E+02 -0.38865241795E+02 -0.13430373870E+02  0.61003137290E+02  0.10000000000E+01 0.  0.
    9000005    1    3    3    0    0  0.52491319510E+02  0.18552150281E+02 -0.75992433709E+02  0.94209186840E+02  0.10000000000E+01 0.  0.
         -4    1    1    2    0  502 -0.74413384094E+01  0.20313091514E+02 -0.59471882571E+02  0.63297021421E+02  0.12700000000E+01 0. -1.
<mgrwt>
<rscale>  1 0.12686381E+03</rscale>
<asrwt>0</asrwt>
<pdfrwt beam="2">  1       21 0.28260067E-01 0.12686381E+03</pdfrwt>
<pdfrwt beam="1">  1       -4 0.53553112E-02 0.12686381E+03</pdfrwt>
<totfact> 0.10248505E+05</totfact>
</mgrwt>
</event>
<event>
 6    4  0.6326233E-003  0.1286570E+03  0.7818608E-02  0.1229462E+00
         21   -1    0    0  501  502  0.00000000000E+00  0.00000000000E+00  0.12555903462E+03  0.12555903462E+03  0.00000000000E+00 0. -1.
          4   -1    0    0  502    0 -0.00000000000E+00 -0.00000000000E+00 -0.51314202530E+02  0.51329916046E+02  0.12700000000E+01 0. -1.
         25    2    1    2    0    0 -0.28353591090E+02 -0.11155179494E+02  0.50395298222E+02  0.13817490511E+03  0.12499701662E+03 0.  0.
    9000005    1    3    3    0    0  0.34975671634E+02 -0.42752125228E+02  0.84195354635E+01  0.55883185264E+02  0.10000000000E+01 0.  0.
    9000005    1    3    3    0    0 -0.63329262724E+02  0.31596945735E+02  0.41975762758E+02  0.82291719851E+02  0.10000000000E+01 0.  0.
          4    1    1    2  501    0  0.28353591090E+02  0.11155179494E+02  0.23849533867E+02  0.38714045551E+02  0.12700000000E+01 0.  1.
<mgrwt>
<rscale>  1 0.12865698E+03</rscale>
<asrwt>0</asrwt>
<pdfrwt beam="1">  1       21 0.19316774E-01 0.12865698E+03</pdfrwt>
<pdfrwt beam="2">  1        4 0.78961955E-02 0.12865698E+03</pdfrwt>
<totfact> 0.11129874E+05</totfact>
</mgrwt>
</event>
<event>
 6    4  0.6326233E-003  0.1283175E+03  0.7818608E-02  0.1229974E+00
          4   -1    0    0  502    0 -0.00000000000E+00  0.00000000000E+00  0.40520416085E+03  0.40520615108E+03  0.12700000000E+01 0.  1.
         21   -1    0    0  501  502  0.00000000000E+00 -0.00000000000E+00 -0.15756317283E+02  0.15756317283E+02  0.00000000000E+00 0.  1.
         25    2    1    2    0    0  0.85173060070E+01  0.27699312120E+02  0.28486620930E+03  0.31243262215E+03  0.12500235912E+03 0.  0.
    9000005    1    3    3    0    0 -0.40811946616E+02  0.57257763706E+02  0.17003228777E+03  0.18400012330E+03  0.10000000000E+01 0.  0.
    9000005    1    3    3    0    0  0.49329252623E+02 -0.29558451586E+02  0.11483392153E+03  0.12843249884E+03  0.10000000000E+01 0.  0.
          4    1    1    2  501    0 -0.85173060070E+01 -0.27699312120E+02  0.10458163427E+03  0.10852984621E+03  0.12700000000E+01 0. -1.
<mgrwt>
<rscale>  1 0.12831752E+03</rscale>
<asrwt>0</asrwt>
<pdfrwt beam="2">  1       21 0.24240491E-02 0.12831752E+03</pdfrwt>
<pdfrwt beam="1">  1        4 0.62343184E-01 0.12831752E+03</pdfrwt>
<totfact> 0.87683549E+04</totfact>
</mgrwt>
</event>
<event>
 6    4  0.6326233E-003  0.1276869E+03  0.7818608E-02  0.1230929E+00
         21   -1    0    0  501  502  0.00000000000E+00  0.00000000000E+00  0.42872954357E+02  0.42872954357E+02  0.00000000000E+00 0.  1.
         -4   -1    0    0    0  501 -0.00000000000E+00 -0.00000000000E+00 -0.13753763408E+03  0.13754349745E+03  0.12700000000E+01 0.  1.
         25    2    1    2    0    0  0.24061957937E+02  0.94342852918E+01 -0.77544566296E+02  0.14938912928E+03  0.12504386681E+03 0.  0.
    9000005    1    3    3    0    0  0.30709782290E+02  0.64395339044E+02 -0.34488990791E+02  0.79248601911E+02  0.10000000000E+01 0.  0.
    9000005    1    3    3    0    0 -0.66478243533E+01 -0.54961053753E+02 -0.43055575504E+02  0.70140527374E+02  0.10000000000E+01 0.  0.
         -4    1    1    2    0  502 -0.24061957937E+02 -0.94342852918E+01 -0.17120113432E+02  0.31027322518E+02  0.12700000000E+01 0. -1.
<mgrwt>
<rscale>  1 0.12768693E+03</rscale>
<asrwt>0</asrwt>
<pdfrwt beam="1">  1       21 0.65958391E-02 0.12768693E+03</pdfrwt>
<pdfrwt beam="2">  1       -4 0.21161534E-01 0.12768693E+03</pdfrwt>
<totfact> 0.13573876E+05</totfact>
</mgrwt>
</event>
<event>
 6    4  0.6326233E-003  0.1324238E+03  0.7818608E-02  0.1223903E+00
         21   -1    0    0  501  502  0.00000000000E+00  0.00000000000E+00  0.72802998222E+02  0.72802998222E+02  0.00000000000E+00 0. -1.
          4   -1    0    0  502    0 -0.00000000000E+00 -0.00000000000E+00 -0.11547296057E+03  0.11547994424E+03  0.12700000000E+01 0. -1.
         25    2    1    2    0    0  0.37593954605E+00 -0.43713545468E+02 -0.83428579334E+01  0.13268637436E+03  0.12500022110E+03 0.  0.
    9000005    1    3    3    0    0  0.36621019028E+02  0.23424806785E+02 -0.30636828904E+02  0.53192442065E+02  0.10000000000E+01 0.  0.
    9000005    1    3    3    0    0 -0.36245079482E+02 -0.67138352253E+02  0.22293970971E+02  0.79493932294E+02  0.10000000000E+01 0.  0.
          4    1    1    2  501    0 -0.37593954605E+00  0.43713545468E+02 -0.34327104414E+02  0.55596568108E+02  0.12700000000E+01 0.  1.
<mgrwt>
<rscale>  1 0.13242383E+03</rscale>
<asrwt>0</asrwt>
<pdfrwt beam="1">  1       21 0.11200461E-01 0.13242383E+03</pdfrwt>
<pdfrwt beam="2">  1        4 0.17766460E-01 0.13242383E+03</pdfrwt>
<totfact> 0.74559277E+04</totfact>
</mgrwt>
</event>
<event>
 6    4  0.6326233E-003  0.1266150E+03  0.7818608E-02  0.1232567E+00
         21   -1    0    0  501  502  0.00000000000E+00  0.00000000000E+00  0.15823816214E+03  0.15823816214E+03  0.00000000000E+00 0. -1.
         -4   -1    0    0    0  501 -0.00000000000E+00 -0.00000000000E+00 -0.17800766645E+03  0.17801219682E+03  0.12700000000E+01 0.  1.
         25    2    1    2    0    0  0.80206668284E+01 -0.18509487851E+02 -0.15464653472E+03  0.19986722779E+03  0.12499770322E+03 0.  0.
    9000005    1    3    3    0    0  0.18931296209E+02 -0.18322194712E+02 -0.17488044115E+03  0.17685662411E+03  0.10000000000E+01 0.  0.
    9000005    1    3    3    0    0 -0.10910629381E+02 -0.18729313916E+00  0.20233906435E+02  0.23010603682E+02  0.10000000000E+01 0.  0.
         -4    1    1    2    0  502 -0.80206668284E+01  0.18509487851E+02  0.13487703040E+03  0.13638313117E+03  0.12700000000E+01 0. -1.
<mgrwt>
<rscale>  1 0.12661500E+03</rscale>
<asrwt>0</asrwt>
<pdfrwt beam="1">  1       21 0.24344333E-01 0.12661500E+03</pdfrwt>
<pdfrwt beam="2">  1       -4 0.27386535E-01 0.12661500E+03</pdfrwt>
<totfact> 0.82266147E+03</totfact>
</mgrwt>
</event>
<event>
 6    4  0.6326233E-003  0.1267264E+03  0.7818608E-02  0.1232396E+00
         -4   -1    0    0    0  501 -0.00000000000E+00  0.00000000000E+00  0.27086989552E+02  0.27116745803E+02  0.12700000000E+01 0. -1.
         21   -1    0    0  501  502  0.00000000000E+00 -0.00000000000E+00 -0.37099895841E+03  0.37099895841E+03  0.00000000000E+00 0. -1.
         25    2    1    2    0    0 -0.20751626407E+02  0.65725125296E+00 -0.12426579246E+03  0.17748679023E+03  0.12501404543E+03 0.  0.
    9000005    1    3    3    0    0 -0.27002878713E+01 -0.37144474774E+02  0.85443658909E+01  0.38223157239E+02  0.10000000000E+01 0.  0.
    9000005    1    3    3    0    0 -0.18051338536E+02  0.37801726027E+02 -0.13281015835E+03  0.13926363300E+03  0.10000000000E+01 0.  0.
         -4    1    1    2    0  502  0.20751626407E+02 -0.65725125296E+00 -0.21964617640E+03  0.22062891398E+03  0.12700000000E+01 0.  1.
<mgrwt>
<rscale>  1 0.12672637E+03</rscale>
<asrwt>0</asrwt>
<pdfrwt beam="2">  1       21 0.57076761E-01 0.12672637E+03</pdfrwt>
<pdfrwt beam="1">  1       -4 0.41696855E-02 0.12672637E+03</pdfrwt>
<totfact> 0.37427066E+04</totfact>
</mgrwt>
</event>
<event>
 6    4  0.6326233E-003  0.1301730E+03  0.7818608E-02  0.1227199E+00
         -4   -1    0    0    0  501 -0.00000000000E+00  0.00000000000E+00  0.34183944058E+02  0.34207527407E+02  0.12700000000E+01 0.  1.
         21   -1    0    0  501  502  0.00000000000E+00 -0.00000000000E+00 -0.52770143839E+03  0.52770143839E+03  0.00000000000E+00 0. -1.
         25    2    1    2    0    0 -0.33926218937E+02 -0.12999308011E+02 -0.93571617220E+02  0.16031428473E+03  0.12500020800E+03 0.  0.
    9000005    1    3    3    0    0  0.40447996743E+02  0.42160744283E+01 -0.15010879810E+01  0.40707112268E+02  0.10000000000E+01 0.  0.
    9000005    1    3    3    0    0 -0.74374215680E+02 -0.17215382439E+02 -0.92070529239E+02  0.11960717246E+03  0.10000000000E+01 0.  0.
         -4    1    1    2    0  502  0.33926218937E+02  0.12999308011E+02 -0.39994587711E+03  0.40159468107E+03  0.12700000000E+01 0. -1.
<mgrwt>
<rscale>  1 0.13017305E+03</rscale>
<asrwt>0</asrwt>
<pdfrwt beam="2">  1       21 0.81184828E-01 0.13017305E+03</pdfrwt>
<pdfrwt beam="1">  1       -4 0.52610006E-02 0.13017305E+03</pdfrwt>
<totfact> 0.12036721E+04</totfact>
</mgrwt>
</event>
<event>
 6    4  0.6326233E-003  0.1274525E+03  0.7818608E-02  0.1231285E+00
         21   -1    0    0  501  502  0.00000000000E+00  0.00000000000E+00  0.90568440157E+03  0.90568440157E+03  0.00000000000E+00 0. -1.
          4   -1    0    0  502    0 -0.00000000000E+00 -0.00000000000E+00 -0.12551575724E+02  0.12615663009E+02  0.12700000000E+01 0.  1.
         25    2    1    2    0    0 -0.13253346395E+01 -0.24936233825E+02  0.31752560250E+03  0.34215003140E+03  0.12498225263E+03 0.  0.
    9000005    1    3    3    0    0  0.59104923301E+02 -0.30928379156E+02  0.16522103060E+03  0.17818233792E+03  0.10000000000E+01 0.  0.
    9000005    1    3    3    0    0 -0.60430257941E+02  0.59921453311E+01  0.15230457190E+03  0.16396769348E+03  0.10000000000E+01 0.  0.
          4    1    1    2  501    0  0.13253346395E+01  0.24936233825E+02  0.57560722334E+03  0.57615003318E+03  0.12700000000E+01 0. -1.
<mgrwt>
<rscale>  1 0.12745248E+03</rscale>
<asrwt>0</asrwt>
<pdfrwt beam="1">  1       21 0.13933601E+00 0.12745248E+03</pdfrwt>
<pdfrwt beam="2">  1        4 0.19360107E-02 0.12745248E+03</pdfrwt>
<totfact> 0.16008404E+04</totfact>
</mgrwt>
</event>
<event>
 6    4  0.6326233E-003  0.1448250E+03  0.7818608E-02  0.1206980E+00
         -4   -1    0    0    0  501 -0.00000000000E+00  0.00000000000E+00  0.34030205071E+02  0.34053894890E+02  0.12700000000E+01 0. -1.
         21   -1    0    0  501  502  0.00000000000E+00 -0.00000000000E+00 -0.35562931975E+03  0.35562931975E+03  0.00000000000E+00 0.  1.
         25    2    1    2    0    0 -0.64227290287E+02 -0.35001640786E+02 -0.18740503836E+03  0.23684368214E+03  0.12499608671E+03 0.  0.
    9000005    1    3    3    0    0 -0.20426720517E+02  0.36692114992E+02 -0.14211322137E+02  0.44345505867E+02  0.10000000000E+01 0.  0.
    9000005    1    3    3    0    0 -0.43800569771E+02 -0.71693755779E+02 -0.17319371622E+03  0.19249817627E+03  0.10000000000E+01 0.  0.
         -4    1    1    2    0  502  0.64227290287E+02  0.35001640786E+02 -0.13419407632E+03  0.15283953250E+03  0.12700000000E+01 0.  1.
<mgrwt>
<rscale>  1 0.14482500E+03</rscale>
<asrwt>0</asrwt>
<pdfrwt beam="2">  1       21 0.54712201E-01 0.14482500E+03</pdfrwt>
<pdfrwt beam="1">  1       -4 0.52374131E-02 0.14482500E+03</pdfrwt>
<totfact> 0.28759356E+04</totfact>
</mgrwt>
</event>
<event>
 6    4  0.6326233E-003  0.1287123E+03  0.7818608E-02  0.1229379E+00
          4   -1    0    0  502    0 -0.00000000000E+00  0.00000000000E+00  0.13070057355E+03  0.13070674362E+03  0.12700000000E+01 0. -1.
         21   -1    0    0  501  502  0.00000000000E+00 -0.00000000000E+00 -0.55078842649E+02  0.55078842649E+02  0.00000000000E+00 0.  1.
         25    2    1    2    0    0  0.22600978020E+02 -0.20780901431E+02  0.84291898943E+02  0.15385699742E+03  0.12499680538E+03 0.  0.
    9000005    1    3    3    0    0 -0.29881877370E+02 -0.35361197188E+02  0.87801369915E+02  0.99264401579E+02  0.10000000000E+01 0.  0.
    9000005    1    3    3    0    0  0.52482855391E+02  0.14580295757E+02 -0.35094709729E+01  0.54592595843E+02  0.10000000000E+01 0.  0.
          4    1    1    2  501    0 -0.22600978020E+02  0.20780901431E+02 -0.86701680398E+01  0.31928588845E+02  0.12700000000E+01 0.  1.
<mgrwt>
<rscale>  1 0.12871228E+03</rscale>
<asrwt>0</asrwt>
<pdfrwt beam="2">  1       21 0.84736682E-02 0.12871228E+03</pdfrwt>
<pdfrwt beam="1">  1        4 0.20109381E-01 0.12871228E+03</pdfrwt>
<totfact> 0.96903745E+04</totfact>
</mgrwt>
</event>
<event>
 6    4  0.6326233E-003  0.1617049E+03  0.7818608E-02  0.1186785E+00
          4   -1    0    0  502    0 -0.00000000000E+00  0.00000000000E+00  0.14014812169E+02  0.14072237211E+02  0.12700000000E+01 0.  1.
         21   -1    0    0  501  502  0.00000000000E+00 -0.00000000000E+00 -0.24227057211E+04  0.24227057211E+04  0.00000000000E+00 0. -1.
         25    2    1    2    0    0  0.27759830076E+02  0.98757982444E+02 -0.50356089272E+03  0.52888756868E+03  0.12499896148E+03 0.  0.
    9000005    1    3    3    0    0 -0.41986327797E+02  0.78020071147E+02 -0.29314938490E+03  0.30624752258E+03  0.10000000000E+01 0.  0.
    9000005    1    3    3    0    0  0.69746157873E+02  0.20737911296E+02 -0.21041150782E+03  0.22264004610E+03  0.10000000000E+01 0.  0.
          4    1    1    2  501    0 -0.27759830076E+02 -0.98757982444E+02 -0.19051300162E+04  0.19078903897E+04  0.12700000000E+01 0. -1.
<mgrwt>
<rscale>  1 0.16170494E+03</rscale>
<asrwt>0</asrwt>
<pdfrwt beam="2">  1       21 0.37272391E+00 0.16170494E+03</pdfrwt>
<pdfrwt beam="1">  1        4 0.21605682E-02 0.16170494E+03</pdfrwt>
<totfact> 0.49863592E+02</totfact>
</mgrwt>
</event>
<event>
 6    4  0.6326233E-003  0.1277488E+03  0.7818608E-02  0.1230835E+00
         21   -1    0    0  501  502  0.00000000000E+00  0.00000000000E+00  0.35562317196E+02  0.35562317196E+02  0.00000000000E+00 0.  1.
          4   -1    0    0  502    0 -0.00000000000E+00 -0.00000000000E+00 -0.98544914564E+03  0.98544996400E+03  0.12700000000E+01 0. -1.
         25    2    1    2    0    0  0.16041384399E+02 -0.20883354544E+02 -0.97575197866E+03  0.98407910632E+03  0.12500529246E+03 0.  0.
    9000005    1    3    3    0    0  0.30154842711E+02 -0.51163512098E+02 -0.22894135533E+03  0.23652095825E+03  0.10000000000E+01 0.  0.
    9000005    1    3    3    0    0 -0.14113458312E+02  0.30280157554E+02 -0.74681062332E+03  0.74755814808E+03  0.10000000000E+01 0.  0.
          4    1    1    2  501    0 -0.16041384399E+02  0.20883354544E+02  0.25865150212E+02  0.36933174869E+02  0.12700000000E+01 0.  1.
<mgrwt>
<rscale>  1 0.12774883E+03</rscale>
<asrwt>0</asrwt>
<pdfrwt beam="1">  1       21 0.54711259E-02 0.12774883E+03</pdfrwt>
<pdfrwt beam="2">  1        4 0.15160936E+00 0.12774883E+03</pdfrwt>
<totfact> 0.29393273E+03</totfact>
</mgrwt>
</event>
<event>
 6    4  0.6326233E-003  0.1376336E+03  0.7818608E-02  0.1216549E+00
         -4   -1    0    0    0  501 -0.00000000000E+00  0.00000000000E+00  0.11837059606E+03  0.11837740879E+03  0.12700000000E+01 0.  1.
         21   -1    0    0  501  502  0.00000000000E+00 -0.00000000000E+00 -0.14196891766E+03  0.14196891766E+03  0.00000000000E+00 0. -1.
         25    2    1    2    0    0  0.40026871720E+01  0.57461858817E+02  0.66925625628E+02  0.15304262360E+03  0.12500047420E+03 0.  0.
    9000005    1    3    3    0    0  0.33534518029E+01  0.79851821101E+02 -0.26205496132E+01  0.79971408969E+02  0.10000000000E+01 0.  0.
    9000005    1    3    3    0    0  0.64923536913E+00 -0.22389962284E+02  0.69546175241E+02  0.73071214636E+02  0.10000000000E+01 0.  0.
         -4    1    1    2    0  502 -0.40026871720E+01 -0.57461858817E+02 -0.90523947226E+02  0.10730370285E+03  0.12700000000E+01 0. -1.
<mgrwt>
<rscale>  1 0.13763359E+03</rscale>
<asrwt>0</asrwt>
<pdfrwt beam="2">  1       21 0.21841372E-01 0.13763359E+03</pdfrwt>
<pdfrwt beam="1">  1       -4 0.18211822E-01 0.13763359E+03</pdfrwt>
<totfact> 0.21355840E+04</totfact>
</mgrwt>
</event>
<event>
 6    4  0.6326233E-003  0.1304533E+03  0.7818608E-02  0.1226785E+00
         21   -1    0    0  501  502  0.00000000000E+00  0.00000000000E+00  0.15854218581E+03  0.15854218581E+03  0.00000000000E+00 0. -1.
         -4   -1    0    0    0  501 -0.00000000000E+00 -0.00000000000E+00 -0.22540961702E+03  0.22541319470E+03  0.12700000000E+01 0.  1.
         25    2    1    2    0    0 -0.23640740611E+02  0.28866200393E+02 -0.20382689288E+03  0.24199887596E+03  0.12500364620E+03 0.  0.
    9000005    1    3    3    0    0 -0.33074125163E+02  0.74626478348E+02 -0.10797258619E+03  0.13535910902E+03  0.10000000000E+01 0.  0.
    9000005    1    3    3    0    0  0.94333845516E+01 -0.45760277954E+02 -0.95854306687E+02  0.10663976694E+03  0.10000000000E+01 0.  0.
         -4    1    1    2    0  502  0.23640740611E+02 -0.28866200393E+02  0.13695946168E+03  0.14195650455E+03  0.12700000000E+01 0. -1.
<mgrwt>
<rscale>  1 0.13045326E+03</rscale>
<asrwt>0</asrwt>
<pdfrwt beam="1">  1       21 0.24391106E-01 0.13045326E+03</pdfrwt>
<pdfrwt beam="2">  1       -4 0.34679069E-01 0.13045326E+03</pdfrwt>
<totfact> 0.52525859E+03</totfact>
</mgrwt>
</event>
<event>
 6    4  0.6326233E-003  0.1291131E+03  0.7818608E-02  0.1228778E+00
          4   -1    0    0  502    0 -0.00000000000E+00  0.00000000000E+00  0.16237238539E+03  0.16237735198E+03  0.12700000000E+01 0.  1.
         21   -1    0    0  501  502  0.00000000000E+00 -0.00000000000E+00 -0.41333904717E+02  0.41333904717E+02  0.00000000000E+00 0.  1.
         25    2    1    2    0    0 -0.29437623312E+02  0.13354962258E+02  0.10972551377E+03  0.16943991585E+03  0.12500107211E+03 0.  0.
    9000005    1    3    3    0    0 -0.29714890212E+02  0.10093969513E+02 -0.21573921189E+02  0.38095892118E+02  0.10000000000E+01 0.  0.
    9000005    1    3    3    0    0  0.27726689934E+00  0.32609927452E+01  0.13129943496E+03  0.13134402374E+03  0.10000000000E+01 0.  0.
          4    1    1    2  501    0  0.29437623312E+02 -0.13354962258E+02  0.11312966900E+02  0.34271340844E+02  0.12700000000E+01 0. -1.
<mgrwt>
<rscale>  1 0.12911312E+03</rscale>
<asrwt>0</asrwt>
<pdfrwt beam="2">  1       21 0.63590624E-02 0.12911312E+03</pdfrwt>
<pdfrwt beam="1">  1        4 0.24982249E-01 0.12911312E+03</pdfrwt>
<totfact> 0.10687051E+05</totfact>
</mgrwt>
</event>
<event>
 6    4  0.6326233E-003  0.1960133E+03  0.7818608E-02  0.1153147E+00
          4   -1    0    0  502    0 -0.00000000000E+00  0.00000000000E+00  0.27002255057E+03  0.27002553716E+03  0.12700000000E+01 0. -1.
         21   -1    0    0  501  502  0.00000000000E+00 -0.00000000000E+00 -0.25977105485E+03  0.25977105485E+03  0.00000000000E+00 0.  1.
         25    2    1    2    0    0  0.11950496323E+03  0.92275248907E+02  0.20482960008E+03  0.28350731211E+03  0.12500029262E+03 0.  0.
    9000005    1    3    3    0    0  0.79770960105E+02 -0.39633635370E+01  0.13901198847E+03  0.16032606546E+03  0.10000000000E+01 0.  0.
    9000005    1    3    3    0    0  0.39734003122E+02  0.96238612444E+02  0.65817611605E+02  0.12318124665E+03  0.10000000000E+01 0.  0.
          4    1    1    2  501    0 -0.11950496323E+03 -0.92275248907E+02 -0.19457810436E+03  0.24628927990E+03  0.12700000000E+01 0.  1.
<mgrwt>
<rscale>  1 0.19601334E+03</rscale>
<asrwt>0</asrwt>
<pdfrwt beam="2">  1       21 0.39964777E-01 0.19601334E+03</pdfrwt>
<pdfrwt beam="1">  1        4 0.41542400E-01 0.19601334E+03</pdfrwt>
<totfact> 0.14317369E+03</totfact>
</mgrwt>
</event>
<event>
 6    4  0.6326233E-003  0.1525860E+03  0.7818608E-02  0.1197331E+00
         21   -1    0    0  501  502  0.00000000000E+00  0.00000000000E+00  0.32380587455E+02  0.32380587455E+02  0.00000000000E+00 0.  1.
         -4   -1    0    0    0  501 -0.00000000000E+00 -0.00000000000E+00 -0.48908716214E+03  0.48908881102E+03  0.12700000000E+01 0. -1.
         25    2    1    2    0    0 -0.41869304774E+02 -0.76838074781E+02 -0.36023178209E+03  0.39121531246E+03  0.12500142183E+03 0.  0.
    9000005    1    3    3    0    0 -0.53059323645E+02  0.34822364259E+01 -0.59794049025E+02  0.80023409669E+02  0.10000000000E+01 0.  0.
    9000005    1    3    3    0    0  0.11190018871E+02 -0.80320311207E+02 -0.30043773306E+03  0.31119190279E+03  0.10000000000E+01 0.  0.
         -4    1    1    2    0  502  0.41869304774E+02  0.76838074781E+02 -0.96474792599E+02  0.13025408602E+03  0.12700000000E+01 0.  1.
<mgrwt>
<rscale>  1 0.15258599E+03</rscale>
<asrwt>0</asrwt>
<pdfrwt beam="1">  1       21 0.49816291E-02 0.15258599E+03</pdfrwt>
<pdfrwt beam="2">  1       -4 0.75246217E-01 0.15258599E+03</pdfrwt>
<totfact> 0.18146484E+04</totfact>
</mgrwt>
</event>
<event>
 6    4  0.6326233E-003  0.1423993E+03  0.7818608E-02  0.1210137E+00
         21   -1    0    0  501  502  0.00000000000E+00  0.00000000000E+00  0.22742908874E+03  0.22742908874E+03  0.00000000000E+00 0. -1.
          4   -1    0    0  502    0 -0.00000000000E+00 -0.00000000000E+00 -0.48790895680E+02  0.48807421580E+02  0.12700000000E+01 0.  1.
         25    2    1    2    0    0 -0.23605573413E+02 -0.63971354767E+02  0.11672767788E+03  0.18412743304E+03  0.12501201338E+03 0.  0.
    9000005    1    3    3    0    0  0.50723592690E+02 -0.13735131070E+02  0.39492156601E+02  0.65743190627E+02  0.10000000000E+01 0.  0.
    9000005    1    3    3    0    0 -0.74329166103E+02 -0.50236223697E+02  0.77235521276E+02  0.11838424241E+03  0.10000000000E+01 0.  0.
          4    1    1    2  501    0  0.23605573413E+02  0.63971354767E+02  0.61910515179E+02  0.92109077275E+02  0.12700000000E+01 0. -1.
<mgrwt>
<rscale>  1 0.14239930E+03</rscale>
<asrwt>0</asrwt>
<pdfrwt beam="1">  1       21 0.34989090E-01 0.14239930E+03</pdfrwt>
<pdfrwt beam="2">  1        4 0.75078358E-02 0.14239930E+03</pdfrwt>
<totfact> 0.39549839E+04</totfact>
</mgrwt>
</event>
<event>
 6    4  0.6326233E-003  0.1267290E+03  0.7818608E-02  0.1232392E+00
         21   -1    0    0  501  502  0.00000000000E+00  0.00000000000E+00  0.25621119971E+03  0.25621119971E+03  0.00000000000E+00 0. -1.
          4   -1    0    0  502    0 -0.00000000000E+00 -0.00000000000E+00 -0.31587955333E+02  0.31613475325E+02  0.12700000000E+01 0. -1.
         25    2    1    2    0    0  0.39731937327E+01 -0.20467993239E+02  0.99915250027E+02  0.16137934388E+03  0.12500204170E+03 0.  0.
    9000005    1    3    3    0    0  0.18481238735E+02 -0.38719942906E+02  0.12195145794E+03  0.12928243600E+03  0.10000000000E+01 0.  0.
    9000005    1    3    3    0    0 -0.14508045003E+02  0.18251949667E+02 -0.22036207914E+02  0.32096907883E+02  0.10000000000E+01 0.  0.
          4    1    1    2  501    0 -0.39731937327E+01  0.20467993239E+02  0.12470799435E+03  0.12644533116E+03  0.12700000000E+01 0.  1.
<mgrwt>
<rscale>  1 0.12672898E+03</rscale>
<asrwt>0</asrwt>
<pdfrwt beam="1">  1       21 0.39417106E-01 0.12672898E+03</pdfrwt>
<pdfrwt beam="2">  1        4 0.48618908E-02 0.12672898E+03</pdfrwt>
<totfact> 0.62498341E+04</totfact>
</mgrwt>
</event>
<event>
 6    4  0.6326233E-003  0.1268603E+03  0.7818608E-02  0.1232190E+00
         21   -1    0    0  501  502  0.00000000000E+00  0.00000000000E+00  0.82821818404E+03  0.82821818404E+03  0.00000000000E+00 0. -1.
         -4   -1    0    0    0  501 -0.00000000000E+00 -0.00000000000E+00 -0.78579330964E+01  0.79599002850E+01  0.12700000000E+01 0. -1.
         25    2    1    2    0    0 -0.67948536889E+01  0.20560378080E+02  0.52848244758E+03  0.54349538210E+03  0.12499853513E+03 0.  0.
    9000005    1    3    3    0    0  0.32566250831E+02 -0.13683489331E+02  0.45057791246E+02  0.57262580500E+02  0.10000000000E+01 0.  0.
    9000005    1    3    3    0    0 -0.39361104520E+02  0.34243867410E+02  0.48342465633E+03  0.48623280160E+03  0.10000000000E+01 0.  0.
         -4    1    1    2    0  502  0.67948536889E+01 -0.20560378080E+02  0.29187780336E+03  0.29268270222E+03  0.12700000000E+01 0.  1.
<mgrwt>
<rscale>  1 0.12686029E+03</rscale>
<asrwt>0</asrwt>
<pdfrwt beam="1">  1       21 0.12741811E+00 0.12686029E+03</pdfrwt>
<pdfrwt beam="2">  1       -4 0.12168320E-02 0.12686029E+03</pdfrwt>
<totfact> 0.40618027E+04</totfact>
</mgrwt>
</event>
<event>
 6    4  0.6326233E-003  0.1334016E+03  0.7818608E-02  0.1222494E+00
          4   -1    0    0  502    0 -0.00000000000E+00  0.00000000000E+00  0.31632422710E+03  0.31632677653E+03  0.12700000000E+01 0. -1.
         21   -1    0    0  501  502  0.00000000000E+00 -0.00000000000E+00 -0.13358013571E+03  0.13358013571E+03  0.00000000000E+00 0.  1.
         25    2    1    2    0    0 -0.45214039625E+02 -0.11269573141E+02  0.29750242802E+03  0.32604246462E+03  0.12499872559E+03 0.  0.
    9000005    1    3    3    0    0  0.45437882420E+01  0.19216460254E+00 -0.11730374528E+02  0.12620801298E+02  0.10000000000E+01 0.  0.
    9000005    1    3    3    0    0 -0.49757827867E+02 -0.11461737743E+02  0.30923280255E+03  0.31342166332E+03  0.10000000000E+01 0.  0.
          4    1    1    2  501    0  0.45214039625E+02  0.11269573141E+02 -0.11475833663E+03  0.12386444762E+03  0.12700000000E+01 0.  1.
<mgrwt>
<rscale>  1 0.13340163E+03</rscale>
<asrwt>0</asrwt>
<pdfrwt beam="2">  1       21 0.20550790E-01 0.13340163E+03</pdfrwt>
<pdfrwt beam="1">  1        4 0.48665926E-01 0.13340163E+03</pdfrwt>
<totfact> 0.37111739E+03</totfact>
</mgrwt>
</event>
<event>
 6    4  0.6326233E-003  0.1312207E+03  0.7818608E-02  0.1225656E+00
         21   -1    0    0  501  502  0.00000000000E+00  0.00000000000E+00  0.85843191254E+03  0.85843191254E+03  0.00000000000E+00 0. -1.
         -4   -1    0    0    0  501 -0.00000000000E+00 -0.00000000000E+00 -0.10358562886E+02  0.10436125961E+02  0.12700000000E+01 0. -1.
         25    2    1    2    0    0 -0.11920624939E+02 -0.38128061965E+02  0.44853543609E+03  0.46733596296E+03  0.12499205753E+03 0.  0.
    9000005    1    3    3    0    0  0.33947583202E+02 -0.31021809447E+02  0.57880541408E+02  0.73932050832E+02  0.10000000000E+01 0.  0.
    9000005    1    3    3    0    0 -0.45868208142E+02 -0.71062525182E+01  0.39065489468E+03  0.39340391213E+03  0.10000000000E+01 0.  0.
         -4    1    1    2    0  502  0.11920624939E+02  0.38128061965E+02  0.39953791356E+03  0.40153207553E+03  0.12700000000E+01 0.  1.
<mgrwt>
<rscale>  1 0.13122067E+03</rscale>
<asrwt>0</asrwt>
<pdfrwt beam="1">  1       21 0.13206639E+00 0.13122067E+03</pdfrwt>
<pdfrwt beam="2">  1       -4 0.15996644E-02 0.13122067E+03</pdfrwt>
<totfact> 0.24584077E+04</totfact>
</mgrwt>
</event>
<event>
 6    4  0.6326233E-003  0.1279280E+03  0.7818608E-02  0.1230563E+00
         -4   -1    0    0    0  501 -0.00000000000E+00  0.00000000000E+00  0.36447756689E+03  0.36447977951E+03  0.12700000000E+01 0. -1.
         21   -1    0    0  501  502  0.00000000000E+00 -0.00000000000E+00 -0.68074462692E+02  0.68074462692E+02  0.00000000000E+00 0.  1.
         25    2    1    2    0    0 -0.27077570791E+02  0.27439750252E+01  0.34988143311E+03  0.37253533849E+03  0.12499934780E+03 0.  0.
    9000005    1    3    3    0    0 -0.17228912104E+02  0.25125519720E+02  0.10450487562E+02  0.32223281083E+02  0.10000000000E+01 0.  0.
    9000005    1    3    3    0    0 -0.98486586863E+01 -0.22381544695E+02  0.33943094555E+03  0.34031205741E+03  0.10000000000E+01 0.  0.
         -4    1    1    2    0  502  0.27077570791E+02 -0.27439750252E+01 -0.53478328911E+02  0.60018903706E+02  0.12700000000E+01 0.  1.
<mgrwt>
<rscale>  1 0.12792795E+03</rscale>
<asrwt>0</asrwt>
<pdfrwt beam="2">  1       21 0.10472994E-01 0.12792795E+03</pdfrwt>
<pdfrwt beam="1">  1       -4 0.56074552E-01 0.12792795E+03</pdfrwt>
<totfact> 0.93182547E+03</totfact>
</mgrwt>
</event>
<event>
 6    4  0.6326233E-003  0.1331330E+03  0.7818608E-02  0.1222880E+00
         21   -1    0    0  501  502  0.00000000000E+00  0.00000000000E+00  0.79082209562E+02  0.79082209562E+02  0.00000000000E+00 0. -1.
         -4   -1    0    0    0  501 -0.00000000000E+00 -0.00000000000E+00 -0.38871607949E+03  0.38871815414E+03  0.12700000000E+01 0.  1.
         25    2    1    2    0    0 -0.37396050498E+02  0.26473916524E+02 -0.36929786612E+03  0.39256248634E+03  0.12500023564E+03 0.  0.
    9000005    1    3    3    0    0 -0.16813155548E+02  0.58576552419E+02 -0.79051758839E+02  0.99820214727E+02  0.10000000000E+01 0.  0.
    9000005    1    3    3    0    0 -0.20582894950E+02 -0.32102635895E+02 -0.29024610728E+03  0.29274227161E+03  0.10000000000E+01 0.  0.
         -4    1    1    2    0  502  0.37396050498E+02 -0.26473916524E+02  0.59663996188E+02  0.75237877362E+02  0.12700000000E+01 0. -1.
<mgrwt>
<rscale>  1 0.13313299E+03</rscale>
<asrwt>0</asrwt>
<pdfrwt beam="1">  1       21 0.12166494E-01 0.13313299E+03</pdfrwt>
<pdfrwt beam="2">  1       -4 0.59803419E-01 0.13313299E+03</pdfrwt>
<totfact> 0.62757374E+03</totfact>
</mgrwt>
</event>
<event>
 6    4  0.6326233E-003  0.1416993E+03  0.7818608E-02  0.1211061E+00
          4   -1    0    0  502    0 -0.00000000000E+00  0.00000000000E+00  0.17609899808E+03  0.17610357755E+03  0.12700000000E+01 0. -1.
         21   -1    0    0  501  502  0.00000000000E+00 -0.00000000000E+00 -0.14801283164E+03  0.14801283164E+03  0.00000000000E+00 0.  1.
         25    2    1    2    0    0  0.13938338354E+02  0.65263241487E+02  0.13653358303E+03  0.19677425972E+03  0.12500048811E+03 0.  0.
    9000005    1    3    3    0    0  0.53664751813E+02  0.78157331041E+02  0.11717188350E+03  0.15072731758E+03  0.10000000000E+01 0.  0.
    9000005    1    3    3    0    0 -0.39726413459E+02 -0.12894089554E+02  0.19361699532E+02  0.46046942141E+02  0.10000000000E+01 0.  0.
          4    1    1    2  501    0 -0.13938338354E+02 -0.65263241487E+02 -0.10844741659E+03  0.12734214947E+03  0.12700000000E+01 0.  1.
<mgrwt>
<rscale>  1 0.14169929E+03</rscale>
<asrwt>0</asrwt>
<pdfrwt beam="2">  1       21 0.22771205E-01 0.14169929E+03</pdfrwt>
<pdfrwt beam="1">  1        4 0.27092925E-01 0.14169929E+03</pdfrwt>
<totfact> 0.96019612E+03</totfact>
</mgrwt>
</event>
<event>
 6    4  0.6326233E-003  0.1325827E+03  0.7818608E-02  0.1223673E+00
         -4   -1    0    0    0  501 -0.00000000000E+00  0.00000000000E+00  0.43723454956E+03  0.43723639399E+03  0.12700000000E+01 0.  1.
         21   -1    0    0  501  502  0.00000000000E+00 -0.00000000000E+00 -0.22510284860E+02  0.22510284860E+02  0.00000000000E+00 0. -1.
         25    2    1    2    0    0 -0.43451579320E+02  0.77821397380E+01  0.38320061972E+03  0.40548845793E+03  0.12501829114E+03 0.  0.
    9000005    1    3    3    0    0  0.26305674582E+02 -0.35353963894E+02  0.19944110593E+03  0.20425387637E+03  0.10000000000E+01 0.  0.
    9000005    1    3    3    0    0 -0.69757253903E+02  0.43136103632E+02  0.18375951378E+03  0.20123458156E+03  0.10000000000E+01 0.  0.
         -4    1    1    2    0  502  0.43451579320E+02 -0.77821397380E+01  0.31523644988E+02  0.54258220922E+02  0.12700000000E+01 0. -1.
<mgrwt>
<rscale>  1 0.13258271E+03</rscale>
<asrwt>0</asrwt>
<pdfrwt beam="2">  1       21 0.34631211E-02 0.13258271E+03</pdfrwt>
<pdfrwt beam="1">  1       -4 0.67269745E-01 0.13258271E+03</pdfrwt>
<totfact> 0.41771533E+04</totfact>
</mgrwt>
</event>
<event>
 6    4  0.6326233E-003  0.1272831E+03  0.7818608E-02  0.1231544E+00
         21   -1    0    0  501  502  0.00000000000E+00  0.00000000000E+00  0.82929201496E+02  0.82929201496E+02  0.00000000000E+00 0. -1.
          4   -1    0    0  502    0 -0.00000000000E+00 -0.00000000000E+00 -0.89104450705E+02  0.89113500860E+02  0.12700000000E+01 0. -1.
         25    2    1    2    0    0  0.12125168429E+02 -0.20711363878E+02 -0.37377594778E+02  0.13265768525E+03  0.12499998625E+03 0.  0.
    9000005    1    3    3    0    0  0.28713682125E+02 -0.66409292649E+02 -0.17543251294E+01  0.72379191402E+02  0.10000000000E+01 0.  0.
    9000005    1    3    3    0    0 -0.16588513696E+02  0.45697928771E+02 -0.35623269648E+02  0.60278493852E+02  0.10000000000E+01 0.  0.
          4    1    1    2  501    0 -0.12125168429E+02  0.20711363878E+02  0.31202345569E+02  0.39385017102E+02  0.12700000000E+01 0.  1.
<mgrwt>
<rscale>  1 0.12728306E+03</rscale>
<asrwt>0</asrwt>
<pdfrwt beam="1">  1       21 0.12758339E-01 0.12728306E+03</pdfrwt>
<pdfrwt beam="2">  1        4 0.13709821E-01 0.12728306E+03</pdfrwt>
<totfact> 0.92704709E+04</totfact>
</mgrwt>
</event>
<event>
 6    4  0.6326233E-003  0.1321305E+03  0.7818608E-02  0.1224328E+00
         21   -1    0    0  501  502  0.00000000000E+00  0.00000000000E+00  0.24582178990E+03  0.24582178990E+03  0.00000000000E+00 0.  1.
         -4   -1    0    0    0  501 -0.00000000000E+00 -0.00000000000E+00 -0.31126128474E+02  0.31152026801E+02  0.12700000000E+01 0.  1.
         25    2    1    2    0    0  0.38743338357E+01  0.42650370560E+02  0.16077046092E+03  0.20809998480E+03  0.12499759196E+03 0.  0.
    9000005    1    3    3    0    0  0.20815584792E+02 -0.22934024560E+02 -0.27423535006E+01  0.31109139420E+02  0.10000000000E+01 0.  0.
    9000005    1    3    3    0    0 -0.16941250956E+02  0.65584395120E+02  0.16351281442E+03  0.17699084538E+03  0.10000000000E+01 0.  0.
         -4    1    1    2    0  502 -0.38743338357E+01 -0.42650370560E+02  0.53925200504E+02  0.68873831903E+02  0.12700000000E+01 0. -1.
<mgrwt>
<rscale>  1 0.13213048E+03</rscale>
<asrwt>0</asrwt>
<pdfrwt beam="1">  1       21 0.37818736E-01 0.13213048E+03</pdfrwt>
<pdfrwt beam="2">  1       -4 0.47908798E-02 0.13213048E+03</pdfrwt>
<totfact> 0.69831431E+04</totfact>
</mgrwt>
</event>
<event>
 6    4  0.6326233E-003  0.1313166E+03  0.7818608E-02  0.1225515E+00
          4   -1    0    0  502    0 -0.00000000000E+00  0.00000000000E+00  0.34288076122E+03  0.34288311320E+03  0.12700000000E+01 0. -1.
         21   -1    0    0  501  502  0.00000000000E+00 -0.00000000000E+00 -0.22435590588E+02  0.22435590588E+02  0.00000000000E+00 0. -1.
         25    2    1    2    0    0 -0.87313932472E+01  0.39221642735E+02  0.27433360625E+03  0.30414302433E+03  0.12501790769E+03 0.  0.
    9000005    1    3    3    0    0  0.33146801889E+02  0.58654628982E+02  0.23168265708E+03  0.24128184675E+03  0.10000000000E+01 0.  0.
    9000005    1    3    3    0    0 -0.41878195136E+02 -0.19432986247E+02  0.42650949163E+02  0.62861177581E+02  0.10000000000E+01 0.  0.
          4    1    1    2  501    0  0.87313932472E+01 -0.39221642735E+02  0.46111564386E+02  0.61175679457E+02  0.12700000000E+01 0.  1.
<mgrwt>
<rscale>  1 0.13131661E+03</rscale>
<asrwt>0</asrwt>
<pdfrwt beam="2">  1       21 0.34516296E-02 0.13131661E+03</pdfrwt>
<pdfrwt beam="1">  1        4 0.52753828E-01 0.13131661E+03</pdfrwt>
<totfact> 0.69824967E+04</totfact>
</mgrwt>
</event>
<event>
 6    4  0.6326233E-003  0.1282248E+03  0.7818608E-02  0.1230114E+00
         -4   -1    0    0    0  501 -0.00000000000E+00  0.00000000000E+00  0.44182502279E+02  0.44200751211E+02  0.12700000000E+01 0.  1.
         21   -1    0    0  501  502  0.00000000000E+00 -0.00000000000E+00 -0.17307099068E+03  0.17307099068E+03  0.00000000000E+00 0. -1.
         25    2    1    2    0    0  0.24780774480E+02 -0.14197520047E+02 -0.57799524454E+02  0.14064987782E+03  0.12500378692E+03 0.  0.
    9000005    1    3    3    0    0 -0.13979393638E+01  0.29319474525E+02 -0.79996409863E+02  0.85217436079E+02  0.10000000000E+01 0.  0.
    9000005    1    3    3    0    0  0.26178713844E+02 -0.43516994572E+02  0.22196885409E+02  0.55432441737E+02  0.10000000000E+01 0.  0.
         -4    1    1    2    0  502 -0.24780774480E+02  0.14197520047E+02 -0.71088963945E+02  0.76621864074E+02  0.12700000000E+01 0. -1.
<mgrwt>
<rscale>  1 0.12822481E+03</rscale>
<asrwt>0</asrwt>
<pdfrwt beam="2">  1       21 0.26626307E-01 0.12822481E+03</pdfrwt>
<pdfrwt beam="1">  1       -4 0.67990701E-02 0.12822481E+03</pdfrwt>
<totfact> 0.78037207E+04</totfact>
</mgrwt>
</event>
<event>
 6    4  0.6326233E-003  0.1273377E+03  0.7818608E-02  0.1231460E+00
          4   -1    0    0  502    0 -0.00000000000E+00  0.00000000000E+00  0.18342965809E+03  0.18343405454E+03  0.12700000000E+01 0.  1.
         21   -1    0    0  501  502  0.00000000000E+00 -0.00000000000E+00 -0.64716194115E+02  0.64716194115E+02  0.00000000000E+00 0. -1.
         25    2    1    2    0    0 -0.30013287889E+01 -0.24141192049E+02  0.15738398835E+03  0.20244655642E+03  0.12499233291E+03 0.  0.
    9000005    1    3    3    0    0 -0.47202036006E+02  0.17441489948E+02  0.12251106340E+03  0.13244696459E+03  0.10000000000E+01 0.  0.
    9000005    1    3    3    0    0  0.44200707217E+02 -0.41582681997E+02  0.34872924954E+02  0.69999591823E+02  0.10000000000E+01 0.  0.
          4    1    1    2  501    0  0.30013287889E+01  0.24141192049E+02 -0.38670524385E+02  0.45703692238E+02  0.12700000000E+01 0. -1.
<mgrwt>
<rscale>  1 0.12733769E+03</rscale>
<asrwt>0</asrwt>
<pdfrwt beam="2">  1       21 0.99563376E-02 0.12733769E+03</pdfrwt>
<pdfrwt beam="1">  1        4 0.28221244E-01 0.12733769E+03</pdfrwt>
<totfact> 0.39267101E+04</totfact>
</mgrwt>
</event>
<event>
 6    4  0.6326233E-003  0.1285820E+03  0.7818608E-02  0.1229575E+00
          4   -1    0    0  502    0 -0.00000000000E+00  0.00000000000E+00  0.39685179209E+02  0.39705495197E+02  0.12700000000E+01 0.  1.
         21   -1    0    0  501  502  0.00000000000E+00 -0.00000000000E+00 -0.17876248670E+03  0.17876248670E+03  0.00000000000E+00 0.  1.
         25    2    1    2    0    0  0.29911723887E+02 -0.36557736497E+01 -0.13751726264E+03  0.18826661526E+03  0.12500097996E+03 0.  0.
    9000005    1    3    3    0    0 -0.47511367871E+02 -0.16007741331E+02 -0.51738564296E+02  0.72051765383E+02  0.10000000000E+01 0.  0.
    9000005    1    3    3    0    0  0.77423091758E+02  0.12351967681E+02 -0.85778698341E+02  0.11621484988E+03  0.10000000000E+01 0.  0.
          4    1    1    2  501    0 -0.29911723887E+02  0.36557736497E+01 -0.15600448556E+01  0.30201366638E+02  0.12700000000E+01 0. -1.
<mgrwt>
<rscale>  1 0.12858196E+03</rscale>
<asrwt>0</asrwt>
<pdfrwt beam="2">  1       21 0.27501921E-01 0.12858196E+03</pdfrwt>
<pdfrwt beam="1">  1        4 0.61073220E-02 0.12858196E+03</pdfrwt>
<totfact> 0.87432620E+04</totfact>
</mgrwt>
</event>
<event>
 6    4  0.6326233E-003  0.1341935E+03  0.7818608E-02  0.1221363E+00
          4   -1    0    0  502    0 -0.00000000000E+00  0.00000000000E+00  0.77731625172E+02  0.77741999279E+02  0.12700000000E+01 0. -1.
         21   -1    0    0  501  502  0.00000000000E+00 -0.00000000000E+00 -0.42055439843E+03  0.42055439843E+03  0.00000000000E+00 0.  1.
         25    2    1    2    0    0  0.24450677696E+02 -0.42240285575E+02  0.16919715354E+02  0.13525597520E+03  0.12500329873E+03 0.  0.
    9000005    1    3    3    0    0 -0.15225353618E+02 -0.37087191349E+02  0.62712566186E+02  0.74438814556E+02  0.10000000000E+01 0.  0.
    9000005    1    3    3    0    0  0.39676031314E+02 -0.51530942258E+01 -0.45792850831E+02  0.60817160639E+02  0.10000000000E+01 0.  0.
          4    1    1    2  501    0 -0.24450677696E+02  0.42240285575E+02 -0.35974248862E+03  0.36304042252E+03  0.12700000000E+01 0.  1.
<mgrwt>
<rscale>  1 0.13419352E+03</rscale>
<asrwt>0</asrwt>
<pdfrwt beam="2">  1       21 0.64700676E-01 0.13419352E+03</pdfrwt>
<pdfrwt beam="1">  1        4 0.11959657E-01 0.13419352E+03</pdfrwt>
<totfact> 0.50928604E+03</totfact>
</mgrwt>
</event>
<event>
 6    4  0.6326233E-003  0.1321596E+03  0.7818608E-02  0.1224286E+00
         21   -1    0    0  501  502  0.00000000000E+00  0.00000000000E+00  0.48500034466E+01  0.48500034466E+01  0.00000000000E+00 0. -1.
          4   -1    0    0  502    0 -0.00000000000E+00 -0.00000000000E+00 -0.17294793167E+04  0.17294797830E+04  0.12700000000E+01 0. -1.
         25    2    1    2    0    0  0.36981894330E+02 -0.21769941549E+02 -0.14863225580E+04  0.14921866194E+04  0.12499827889E+03 0.  0.
    9000005    1    3    3    0    0  0.61225393285E+02 -0.32988051246E+02 -0.14020873661E+04  0.14038115053E+04  0.10000000000E+01 0.  0.
    9000005    1    3    3    0    0 -0.24243498954E+02  0.11218109697E+02 -0.84235191883E+02  0.88375114022E+02  0.10000000000E+01 0.  0.
          4    1    1    2  501    0 -0.36981894330E+02  0.21769941549E+02 -0.23830675523E+03  0.24214316705E+03  0.12700000000E+01 0.  1.
<mgrwt>
<rscale>  1 0.13215960E+03</rscale>
<asrwt>0</asrwt>
<pdfrwt beam="1">  1       21 0.74615493E-03 0.13215960E+03</pdfrwt>
<pdfrwt beam="2">  1        4 0.26608637E+00 0.13215960E+03</pdfrwt>
<totfact> 0.14344793E+04</totfact>
</mgrwt>
</event>
<event>
 6    4  0.6326233E-003  0.1265988E+03  0.7818608E-02  0.1232592E+00
          4   -1    0    0  502    0 -0.00000000000E+00  0.00000000000E+00  0.49045864984E+02  0.49062305001E+02  0.12700000000E+01 0.  1.
         21   -1    0    0  501  502  0.00000000000E+00 -0.00000000000E+00 -0.12575117018E+03  0.12575117018E+03  0.00000000000E+00 0.  1.
         25    2    1    2    0    0  0.85517980421E+01  0.18168124347E+02 -0.39675154742E+02  0.13267016095E+03  0.12499615878E+03 0.  0.
    9000005    1    3    3    0    0 -0.46658259370E+00 -0.20589683769E+02 -0.76020771453E+02  0.78767445492E+02  0.10000000000E+01 0.  0.
    9000005    1    3    3    0    0  0.90183806358E+01  0.38757808115E+02  0.36345616711E+02  0.53902715454E+02  0.10000000000E+01 0.  0.
          4    1    1    2  501    0 -0.85517980421E+01 -0.18168124347E+02 -0.37030150449E+02  0.42143314231E+02  0.12700000000E+01 0. -1.
<mgrwt>
<rscale>  1 0.12659879E+03</rscale>
<asrwt>0</asrwt>
<pdfrwt beam="2">  1       21 0.19346334E-01 0.12659879E+03</pdfrwt>
<pdfrwt beam="1">  1        4 0.75472756E-02 0.12659879E+03</pdfrwt>
<totfact> 0.11930945E+05</totfact>
</mgrwt>
</event>
<event>
 6    4  0.6326233E-003  0.1334738E+03  0.7818608E-02  0.1222390E+00
         -4   -1    0    0    0  501 -0.00000000000E+00  0.00000000000E+00  0.18324465294E+03  0.18324905383E+03  0.12700000000E+01 0. -1.
         21   -1    0    0  501  502  0.00000000000E+00 -0.00000000000E+00 -0.46965949989E+02  0.46965949989E+02  0.00000000000E+00 0. -1.
         25    2    1    2    0    0  0.28522230635E+01  0.46702672517E+02  0.12313665351E+03  0.18159812239E+03  0.12500387123E+03 0.  0.
    9000005    1    3    3    0    0  0.20696424930E+02  0.56956774129E+02  0.14154030987E+03  0.15397102143E+03  0.10000000000E+01 0.  0.
    9000005    1    3    3    0    0 -0.17844201866E+02 -0.10254101612E+02 -0.18403656356E+02  0.27627100959E+02  0.10000000000E+01 0.  0.
         -4    1    1    2    0  502 -0.28522230635E+01 -0.46702672517E+02  0.13142049440E+02  0.48616881432E+02  0.12700000000E+01 0.  1.
<mgrwt>
<rscale>  1 0.13347375E+03</rscale>
<asrwt>0</asrwt>
<pdfrwt beam="2">  1       21 0.72255309E-02 0.13347375E+03</pdfrwt>
<pdfrwt beam="1">  1       -4 0.28193144E-01 0.13347375E+03</pdfrwt>
<totfact> 0.68945759E+04</totfact>
</mgrwt>
</event>
<event>
 6    4  0.6326233E-003  0.1379766E+03  0.7818608E-02  0.1216078E+00
         21   -1    0    0  501  502  0.00000000000E+00  0.00000000000E+00  0.58638607352E+02  0.58638607352E+02  0.00000000000E+00 0.  1.
          4   -1    0    0  502    0 -0.00000000000E+00 -0.00000000000E+00 -0.22344224651E+03  0.22344585569E+03  0.12700000000E+01 0. -1.
         25    2    1    2    0    0 -0.35529458570E+02 -0.46368940016E+02 -0.17491716884E+03  0.22278591831E+03  0.12500051368E+03 0.  0.
    9000005    1    3    3    0    0 -0.19834610254E+02 -0.51666403474E+01 -0.17742997428E+03  0.17861271430E+03  0.10000000000E+01 0.  0.
    9000005    1    3    3    0    0 -0.15694848316E+02 -0.41202299669E+02  0.25128054394E+01  0.44173204014E+02  0.10000000000E+01 0.  0.
          4    1    1    2  501    0  0.35529458570E+02  0.46368940016E+02  0.10113529682E+02  0.59298544730E+02  0.12700000000E+01 0.  1.
<mgrwt>
<rscale>  1 0.13797663E+03</rscale>
<asrwt>0</asrwt>
<pdfrwt beam="1">  1       21 0.90213241E-02 0.13797663E+03</pdfrwt>
<pdfrwt beam="2">  1        4 0.34377066E-01 0.13797663E+03</pdfrwt>
<totfact> 0.32368046E+04</totfact>
</mgrwt>
</event>
<event>
 6    4  0.6326233E-003  0.1324458E+03  0.7818608E-02  0.1223871E+00
          4   -1    0    0  502    0 -0.00000000000E+00  0.00000000000E+00  0.81655410803E+02  0.81665286465E+02  0.12700000000E+01 0.  1.
         21   -1    0    0  501  502  0.00000000000E+00 -0.00000000000E+00 -0.15680071167E+03  0.15680071167E+03  0.00000000000E+00 0.  1.
         25    2    1    2    0    0  0.31738924769E+01  0.43668080504E+02  0.19787193402E+02  0.13391569342E+03  0.12499962029E+03 0.  0.
    9000005    1    3    3    0    0  0.28489415478E+02  0.23764524384E+02  0.67096947426E+02  0.76677244130E+02  0.10000000000E+01 0.  0.
    9000005    1    3    3    0    0 -0.25315523001E+02  0.19903556120E+02 -0.47309754024E+02  0.57238449288E+02  0.10000000000E+01 0.  0.
          4    1    1    2  501    0 -0.31738924769E+01 -0.43668080504E+02 -0.94932494265E+02  0.10455030471E+03  0.12700000000E+01 0. -1.
<mgrwt>
<rscale>  1 0.13244576E+03</rscale>
<asrwt>0</asrwt>
<pdfrwt beam="2">  1       21 0.24123186E-01 0.13244576E+03</pdfrwt>
<pdfrwt beam="1">  1        4 0.12563526E-01 0.13244576E+03</pdfrwt>
<totfact> 0.33784154E+04</totfact>
</mgrwt>
</event>
<event>
 6    4  0.6326233E-003  0.1291880E+03  0.7818608E-02  0.1228666E+00
         -4   -1    0    0    0  501 -0.00000000000E+00  0.00000000000E+00  0.52444208999E+03  0.52444362772E+03  0.12700000000E+01 0.  1.
         21   -1    0    0  501  502  0.00000000000E+00 -0.00000000000E+00 -0.19669679213E+02  0.19669679213E+02  0.00000000000E+00 0. -1.
         25    2    1    2    0    0  0.94561891276E+01 -0.31231895435E+02  0.49260511526E+03  0.50926353239E+03  0.12499878015E+03 0.  0.
    9000005    1    3    3    0    0  0.17358155247E+02  0.47087265857E+02  0.17597476534E+03  0.18299353594E+03  0.10000000000E+01 0.  0.
    9000005    1    3    3    0    0 -0.79019661189E+01 -0.78319161292E+02  0.31663034992E+03  0.32626999645E+03  0.10000000000E+01 0.  0.
         -4    1    1    2    0  502 -0.94561891276E+01  0.31231895435E+02  0.12167295518E+02  0.34849774540E+02  0.12700000000E+01 0. -1.
<mgrwt>
<rscale>  1 0.12918803E+03</rscale>
<asrwt>0</asrwt>
<pdfrwt beam="2">  1       21 0.30261049E-02 0.12918803E+03</pdfrwt>
<pdfrwt beam="1">  1       -4 0.80686660E-01 0.12918803E+03</pdfrwt>
<totfact> 0.34993562E+04</totfact>
</mgrwt>
</event>
<event>
 6    4  0.6326233E-003  0.1270674E+03  0.7818608E-02  0.1231873E+00
         21   -1    0    0  501  502  0.00000000000E+00  0.00000000000E+00  0.31224360925E+02  0.31224360925E+02  0.00000000000E+00 0. -1.
          4   -1    0    0  502    0 -0.00000000000E+00 -0.00000000000E+00 -0.39023453711E+03  0.39023660368E+03  0.12700000000E+01 0.  1.
         25    2    1    2    0    0 -0.15050598449E+02  0.17192682698E+02 -0.37339969093E+03  0.39442802383E+03  0.12499611170E+03 0.  0.
    9000005    1    3    3    0    0  0.37229020256E+02  0.97504507533E+01 -0.30785010425E+03  0.31024789754E+03  0.10000000000E+01 0.  0.
    9000005    1    3    3    0    0 -0.52279618704E+02  0.74422319447E+01 -0.65549586682E+02  0.84180126291E+02  0.10000000000E+01 0.  0.
          4    1    1    2  501    0  0.15050598449E+02 -0.17192682698E+02  0.14389514754E+02  0.27032940774E+02  0.12700000000E+01 0. -1.
<mgrwt>
<rscale>  1 0.12706745E+03</rscale>
<asrwt>0</asrwt>
<pdfrwt beam="1">  1       21 0.48037476E-02 0.12706745E+03</pdfrwt>
<pdfrwt beam="2">  1        4 0.60038231E-01 0.12706745E+03</pdfrwt>
<totfact> 0.30679591E+04</totfact>
</mgrwt>
</event>
<event>
 6    4  0.6326233E-003  0.1281479E+03  0.7818608E-02  0.1230230E+00
          4   -1    0    0  502    0 -0.00000000000E+00  0.00000000000E+00  0.21688531937E+03  0.21688903766E+03  0.12700000000E+01 0. -1.
         21   -1    0    0  501  502  0.00000000000E+00 -0.00000000000E+00 -0.34520326392E+02  0.34520326392E+02  0.00000000000E+00 0. -1.
         25    2    1    2    0    0  0.87676292192E+01  0.26830902494E+02  0.18268790130E+03  0.22315187265E+03  0.12500048134E+03 0.  0.
    9000005    1    3    3    0    0 -0.44406233972E+02  0.52530815372E+02  0.10571745718E+03  0.12612922315E+03  0.10000000000E+01 0.  0.
    9000005    1    3    3    0    0  0.53173863192E+02 -0.25699912878E+02  0.76970444116E+02  0.97022649500E+02  0.10000000000E+01 0.  0.
          4    1    1    2  501    0 -0.87676292192E+01 -0.26830902494E+02 -0.32290831892E+00  0.28257491406E+02  0.12700000000E+01 0.  1.
<mgrwt>
<rscale>  1 0.12814792E+03</rscale>
<asrwt>0</asrwt>
<pdfrwt beam="2">  1       21 0.53108196E-02 0.12814792E+03</pdfrwt>
<pdfrwt beam="1">  1        4 0.33369054E-01 0.12814792E+03</pdfrwt>
<totfact> 0.84068469E+04</totfact>
</mgrwt>
</event>
<event>
 6    4  0.6326233E-003  0.1314642E+03  0.7818608E-02  0.1225299E+00
         -4   -1    0    0    0  501 -0.00000000000E+00  0.00000000000E+00  0.35228754929E+02  0.35251639307E+02  0.12700000000E+01 0.  1.
         21   -1    0    0  501  502  0.00000000000E+00 -0.00000000000E+00 -0.23533485335E+03  0.23533485335E+03  0.00000000000E+00 0. -1.
         25    2    1    2    0    0  0.22570773917E+01  0.40633978793E+02 -0.10892101226E+03  0.17072384965E+03  0.12500652501E+03 0.  0.
    9000005    1    3    3    0    0 -0.51146865291E+02  0.51591098373E+02 -0.40317433566E+02  0.83091147000E+02  0.10000000000E+01 0.  0.
    9000005    1    3    3    0    0  0.53403942682E+02 -0.10957119580E+02 -0.68603578695E+02  0.87632702647E+02  0.10000000000E+01 0.  0.
         -4    1    1    2    0  502 -0.22570773917E+01 -0.40633978793E+02 -0.91185086158E+02  0.99862643008E+02  0.12700000000E+01 0. -1.
<mgrwt>
<rscale>  1 0.13146424E+03</rscale>
<asrwt>0</asrwt>
<pdfrwt beam="2">  1       21 0.36205362E-01 0.13146424E+03</pdfrwt>
<pdfrwt beam="1">  1       -4 0.54218324E-02 0.13146424E+03</pdfrwt>
<totfact> 0.62349951E+04</totfact>
</mgrwt>
</event>
<event>
 6    4  0.6326233E-003  0.1277021E+03  0.7818608E-02  0.1230906E+00
         -4   -1    0    0    0  501 -0.00000000000E+00  0.00000000000E+00  0.29866491991E+02  0.29893481628E+02  0.12700000000E+01 0.  1.
         21   -1    0    0  501  502  0.00000000000E+00 -0.00000000000E+00 -0.20142104896E+03  0.20142104896E+03  0.00000000000E+00 0.  1.
         25    2    1    2    0    0 -0.57391980886E+00 -0.26143482531E+02 -0.13022641805E+03  0.18239174418E+03  0.12499606924E+03 0.  0.
    9000005    1    3    3    0    0 -0.28737322605E+01  0.50693599749E+02 -0.49598878021E+02  0.70986957207E+02  0.10000000000E+01 0.  0.
    9000005    1    3    3    0    0  0.22998124516E+01 -0.76837082279E+02 -0.80627540024E+02  0.11140478697E+03  0.10000000000E+01 0.  0.
         -4    1    1    2    0  502  0.57391980886E+00  0.26143482531E+02 -0.41328138923E+02  0.48922786405E+02  0.12700000000E+01 0. -1.
<mgrwt>
<rscale>  1 0.12770211E+03</rscale>
<asrwt>0</asrwt>
<pdfrwt beam="2">  1       21 0.30987854E-01 0.12770211E+03</pdfrwt>
<pdfrwt beam="1">  1       -4 0.45972290E-02 0.12770211E+03</pdfrwt>
<totfact> 0.10974471E+05</totfact>
</mgrwt>
</event>
<event>
 6    4  0.6326233E-003  0.1265990E+03  0.7818608E-02  0.1232591E+00
         21   -1    0    0  501  502  0.00000000000E+00  0.00000000000E+00  0.99972364427E+03  0.99972364427E+03  0.00000000000E+00 0.  1.
          4   -1    0    0  502    0 -0.00000000000E+00 -0.00000000000E+00 -0.79079868659E+01  0.80093168417E+01  0.12700000000E+01 0. -1.
         25    2    1    2    0    0  0.19977433224E+02 -0.11985480996E+01  0.50923207725E+03  0.52473289994E+03  0.12500709350E+03 0.  0.
    9000005    1    3    3    0    0 -0.27125509512E+01 -0.50703351274E+02  0.10272543639E+03  0.11459364313E+03  0.10000000000E+01 0.  0.
    9000005    1    3    3    0    0  0.22689984175E+02  0.49504803175E+02  0.40650664085E+03  0.41013925681E+03  0.10000000000E+01 0.  0.
          4    1    1    2  501    0 -0.19977433224E+02  0.11985480996E+01  0.48258358016E+03  0.48300006118E+03  0.12700000000E+01 0.  1.
<mgrwt>
<rscale>  1 0.12659900E+03</rscale>
<asrwt>0</asrwt>
<pdfrwt beam="1">  1       21 0.15380354E+00 0.12659900E+03</pdfrwt>
<pdfrwt beam="2">  1        4 0.12244708E-02 0.12659900E+03</pdfrwt>
<totfact> 0.24951074E+04</totfact>
</mgrwt>
</event>
<event>
 6    4  0.6326233E-003  0.1285074E+03  0.7818608E-02  0.1229687E+00
          4   -1    0    0  502    0 -0.00000000000E+00  0.00000000000E+00  0.21187919294E+04  0.21187923100E+04  0.12700000000E+01 0. -1.
         21   -1    0    0  501  502  0.00000000000E+00 -0.00000000000E+00 -0.66007668224E+01  0.66007668224E+01  0.00000000000E+00 0. -1.
         25    2    1    2    0    0 -0.15054073283E+02 -0.25747687438E+02  0.20684369305E+04  0.20724250274E+04  0.12499836189E+03 0.  0.
    9000005    1    3    3    0    0  0.20755275260E+02 -0.59217139248E+02  0.62209936942E+03  0.62525680842E+03  0.10000000000E+01 0.  0.
    9000005    1    3    3    0    0 -0.35809348543E+02  0.33469451810E+02  0.14463375611E+04  0.14471682190E+04  0.10000000000E+01 0.  0.
          4    1    1    2  501    0  0.15054073283E+02  0.25747687438E+02  0.43754232125E+02  0.52968049423E+02  0.12700000000E+01 0.  1.
<mgrwt>
<rscale>  1 0.12850743E+03</rscale>
<asrwt>0</asrwt>
<pdfrwt beam="2">  1       21 0.10155043E-02 0.12850743E+03</pdfrwt>
<pdfrwt beam="1">  1        4 0.32597687E+00 0.12850743E+03</pdfrwt>
<totfact> 0.39793312E+03</totfact>
</mgrwt>
</event>
<event>
 6    4  0.6326233E-003  0.1278461E+03  0.7818608E-02  0.1230687E+00
         -4   -1    0    0    0  501 -0.00000000000E+00  0.00000000000E+00  0.14408297933E+04  0.14408303530E+04  0.12700000000E+01 0. -1.
         21   -1    0    0  501  502  0.00000000000E+00 -0.00000000000E+00 -0.46326642040E+01  0.46326642040E+01  0.00000000000E+00 0.  1.
         25    2    1    2    0    0  0.23686196426E+02  0.12585789625E+02  0.13212605312E+04  0.13274313586E+04  0.12500072986E+03 0.  0.
    9000005    1    3    3    0    0  0.27535334860E+02  0.58567960026E+02  0.10707587846E+04  0.10727132773E+04  0.10000000000E+01 0.  0.
    9000005    1    3    3    0    0 -0.38491384346E+01 -0.45982170401E+02  0.25050174663E+03  0.25471808127E+03  0.10000000000E+01 0.  0.
         -4    1    1    2    0  502 -0.23686196426E+02 -0.12585789625E+02  0.11493659788E+03  0.11803165861E+03  0.12700000000E+01 0.  1.
<mgrwt>
<rscale>  1 0.12784608E+03</rscale>
<asrwt>0</asrwt>
<pdfrwt beam="2">  1       21 0.71271872E-03 0.12784608E+03</pdfrwt>
<pdfrwt beam="1">  1       -4 0.22167920E+00 0.12784608E+03</pdfrwt>
<totfact> 0.27806017E+04</totfact>
</mgrwt>
</event>
<event>
 6    4  0.6326233E-003  0.1273850E+03  0.7818608E-02  0.1231388E+00
         21   -1    0    0  501  502  0.00000000000E+00  0.00000000000E+00  0.63660999808E+03  0.63660999808E+03  0.00000000000E+00 0. -1.
          4   -1    0    0  502    0 -0.00000000000E+00 -0.00000000000E+00 -0.10917098332E+02  0.10990720449E+02  0.12700000000E+01 0. -1.
         25    2    1    2    0    0  0.19954441482E+01  0.24457686941E+02  0.38216300302E+03  0.40283433247E+03  0.12499911314E+03 0.  0.
    9000005    1    3    3    0    0  0.58824020049E+02  0.29020295046E+01  0.11949740684E+03  0.13322656399E+03  0.10000000000E+01 0.  0.
    9000005    1    3    3    0    0 -0.56828575901E+02  0.21555657436E+02  0.26266559618E+03  0.26960776848E+03  0.10000000000E+01 0.  0.
          4    1    1    2  501    0 -0.19954441482E+01 -0.24457686941E+02  0.24352989673E+03  0.24476638607E+03  0.12700000000E+01 0.  1.
<mgrwt>
<rscale>  1 0.12738500E+03</rscale>
<asrwt>0</asrwt>
<pdfrwt beam="1">  1       21 0.97939971E-01 0.12738500E+03</pdfrwt>
<pdfrwt beam="2">  1        4 0.16853148E-02 0.12738500E+03</pdfrwt>
<totfact> 0.46556042E+04</totfact>
</mgrwt>
</event>
<event>
 6    4  0.6326233E-003  0.1279706E+03  0.7818608E-02  0.1230499E+00
         -4   -1    0    0    0  501 -0.00000000000E+00  0.00000000000E+00  0.28005191633E+02  0.28033973290E+02  0.12700000000E+01 0.  1.
         21   -1    0    0  501  502  0.00000000000E+00 -0.00000000000E+00 -0.31729441730E+03  0.31729441730E+03  0.00000000000E+00 0. -1.
         25    2    1    2    0    0  0.12843830965E+02 -0.24223759958E+02 -0.12544401618E+03  0.17920006635E+03  0.12499883218E+03 0.  0.
    9000005    1    3    3    0    0 -0.35374969309E+02  0.10306355506E+02  0.37405380938E+01  0.37048630780E+02  0.10000000000E+01 0.  0.
    9000005    1    3    3    0    0  0.48218800274E+02 -0.34530115464E+02 -0.12918455427E+03  0.14215143557E+03  0.10000000000E+01 0.  0.
         -4    1    1    2    0  502 -0.12843830965E+02  0.24223759958E+02 -0.16384520949E+03  0.16612832423E+03  0.12700000000E+01 0. -1.
<mgrwt>
<rscale>  1 0.12797055E+03</rscale>
<asrwt>0</asrwt>
<pdfrwt beam="2">  1       21 0.48814528E-01 0.12797055E+03</pdfrwt>
<pdfrwt beam="1">  1       -4 0.43109003E-02 0.12797055E+03</pdfrwt>
<totfact> 0.49184940E+04</totfact>
</mgrwt>
</event>
<event>
 6    4  0.6326233E-003  0.1268745E+03  0.7818608E-02  0.1232169E+00
          4   -1    0    0  502    0 -0.00000000000E+00  0.00000000000E+00  0.10713017136E+03  0.10713769886E+03  0.12700000000E+01 0. -1.
         21   -1    0    0  501  502  0.00000000000E+00 -0.00000000000E+00 -0.54094115139E+02  0.54094115139E+02  0.00000000000E+00 0. -1.
         25    2    1    2    0    0  0.51124828933E+00  0.21791931027E+02  0.31857088682E+02  0.13081288570E+03  0.12498794875E+03 0.  0.
    9000005    1    3    3    0    0 -0.97487596766E+01  0.48829622245E+02 -0.33033660039E+02  0.59762806321E+02  0.10000000000E+01 0.  0.
    9000005    1    3    3    0    0  0.10260007966E+02 -0.27037691218E+02  0.64890748721E+02  0.71050079377E+02  0.10000000000E+01 0.  0.
          4    1    1    2  501    0 -0.51124828933E+00 -0.21791931027E+02  0.21178967543E+02  0.30418928299E+02  0.12700000000E+01 0.  1.
<mgrwt>
<rscale>  1 0.12687449E+03</rscale>
<asrwt>0</asrwt>
<pdfrwt beam="2">  1       21 0.83221716E-02 0.12687449E+03</pdfrwt>
<pdfrwt beam="1">  1        4 0.16483291E-01 0.12687449E+03</pdfrwt>
<totfact> 0.14208164E+05</totfact>
</mgrwt>
</event>
<event>
 6    4  0.6326233E-003  0.1273643E+03  0.7818608E-02  0.1231420E+00
          4   -1    0    0  502    0 -0.00000000000E+00  0.00000000000E+00  0.75676673968E+03  0.75676780533E+03  0.12700000000E+01 0. -1.
         21   -1    0    0  501  502  0.00000000000E+00 -0.00000000000E+00 -0.24309301418E+02  0.24309301418E+02  0.00000000000E+00 0.  1.
         25    2    1    2    0    0  0.24028154671E+02  0.43531190205E+01  0.74344050532E+03  0.75427146324E+03  0.12500141376E+03 0.  0.
    9000005    1    3    3    0    0  0.48987717396E+02 -0.33508578783E+02  0.19195568474E+03  0.20092437933E+03  0.10000000000E+01 0.  0.
    9000005    1    3    3    0    0 -0.24959562725E+02  0.37861697803E+02  0.55148482058E+03  0.55334708390E+03  0.10000000000E+01 0.  0.
          4    1    1    2  501    0 -0.24028154671E+02 -0.43531190205E+01 -0.10983067057E+02  0.26805643512E+02  0.12700000000E+01 0.  1.
<mgrwt>
<rscale>  1 0.12736426E+03</rscale>
<asrwt>0</asrwt>
<pdfrwt beam="2">  1       21 0.37398931E-02 0.12736426E+03</pdfrwt>
<pdfrwt beam="1">  1        4 0.11642827E+00 0.12736426E+03</pdfrwt>
<totfact> 0.10627886E+04</totfact>
</mgrwt>
</event>
<event>
 6    4  0.6326233E-003  0.1272907E+03  0.7818608E-02  0.1231532E+00
         21   -1    0    0  501  502  0.00000000000E+00  0.00000000000E+00  0.96851554911E+02  0.96851554911E+02  0.00000000000E+00 0.  1.
          4   -1    0    0  502    0 -0.00000000000E+00 -0.00000000000E+00 -0.76002314515E+02  0.76012924635E+02  0.12700000000E+01 0. -1.
         25    2    1    2    0    0  0.24000611618E+02 -0.15076714979E+01 -0.16571419134E+02  0.12836480437E+03  0.12499843454E+03 0.  0.
    9000005    1    3    3    0    0 -0.22576399327E+02 -0.31979850763E+02  0.34969503836E+02  0.52500198665E+02  0.10000000000E+01 0.  0.
    9000005    1    3    3    0    0  0.46577010946E+02  0.30472179265E+02 -0.51540922969E+02  0.75864605702E+02  0.10000000000E+01 0.  0.
          4    1    1    2  501    0 -0.24000611618E+02  0.15076714979E+01  0.37420659530E+02  0.44499675179E+02  0.12700000000E+01 0.  1.
<mgrwt>
<rscale>  1 0.12729066E+03</rscale>
<asrwt>0</asrwt>
<pdfrwt beam="1">  1       21 0.14900239E-01 0.12729066E+03</pdfrwt>
<pdfrwt beam="2">  1        4 0.11694120E-01 0.12729066E+03</pdfrwt>
<totfact> 0.92254405E+04</totfact>
</mgrwt>
</event>
<event>
 6    4  0.6326233E-003  0.1272033E+03  0.7818608E-02  0.1231666E+00
          4   -1    0    0  502    0 -0.00000000000E+00  0.00000000000E+00  0.63534648565E+03  0.63534775495E+03  0.12700000000E+01 0. -1.
         21   -1    0    0  501  502  0.00000000000E+00 -0.00000000000E+00 -0.10078999652E+02  0.10078999652E+02  0.00000000000E+00 0.  1.
         25    2    1    2    0    0 -0.17967650264E+02 -0.15274065574E+02  0.58564232829E+03  0.59929759291E+03  0.12499813860E+03 0.  0.
    9000005    1    3    3    0    0  0.43291246134E+02 -0.41610997349E+02  0.25217497240E+03  0.25922735927E+03  0.10000000000E+01 0.  0.
    9000005    1    3    3    0    0 -0.61258896398E+02  0.26336931775E+02  0.33346735589E+03  0.34007023364E+03  0.10000000000E+01 0.  0.
          4    1    1    2  501    0  0.17967650264E+02  0.15274065574E+02  0.39625157703E+02  0.46129161689E+02  0.12700000000E+01 0.  1.
<mgrwt>
<rscale>  1 0.12720326E+03</rscale>
<asrwt>0</asrwt>
<pdfrwt beam="2">  1       21 0.15506158E-02 0.12720326E+03</pdfrwt>
<pdfrwt beam="1">  1        4 0.97751834E-01 0.12720326E+03</pdfrwt>
<totfact> 0.66908706E+04</totfact>
</mgrwt>
</event>
<event>
 6    4  0.6326233E-003  0.1268411E+03  0.7818608E-02  0.1232220E+00
          4   -1    0    0  502    0 -0.00000000000E+00  0.00000000000E+00  0.20721643614E+02  0.20760525380E+02  0.12700000000E+01 0.  1.
         21   -1    0    0  501  502  0.00000000000E+00 -0.00000000000E+00 -0.40735184934E+03  0.40735184934E+03  0.00000000000E+00 0.  1.
         25    2    1    2    0    0 -0.20429115197E+02  0.68043530444E+01 -0.38624516677E+03  0.40653903184E+03  0.12500003038E+03 0.  0.
    9000005    1    3    3    0    0  0.18290917315E+02 -0.47600478051E+02 -0.24564185971E+03  0.25088102042E+03  0.10000000000E+01 0.  0.
    9000005    1    3    3    0    0 -0.38720032512E+02  0.54404831095E+02 -0.14060330706E+03  0.15565801142E+03  0.10000000000E+01 0.  0.
          4    1    1    2  501    0  0.20429115197E+02 -0.68043530444E+01 -0.38503896545E+00  0.21573342882E+02  0.12700000000E+01 0. -1.
<mgrwt>
<rscale>  1 0.12684106E+03</rscale>
<asrwt>0</asrwt>
<pdfrwt beam="2">  1       21 0.62669513E-01 0.12684106E+03</pdfrwt>
<pdfrwt beam="1">  1        4 0.31910885E-02 0.12684106E+03</pdfrwt>
<totfact> 0.46826266E+04</totfact>
</mgrwt>
</event>
<event>
 6    4  0.6326233E-003  0.1278980E+03  0.7818608E-02  0.1230608E+00
          4   -1    0    0  502    0 -0.00000000000E+00  0.00000000000E+00  0.10920548705E+04  0.10920556090E+04  0.12700000000E+01 0.  1.
         21   -1    0    0  501  502  0.00000000000E+00 -0.00000000000E+00 -0.13151408983E+02  0.13151408983E+02  0.00000000000E+00 0.  1.
         25    2    1    2    0    0  0.26207551461E+02 -0.69760057241E+01  0.10685075660E+04  0.10761349015E+04  0.12498962900E+03 0.  0.
    9000005    1    3    3    0    0 -0.21136696307E+02 -0.55643035228E+02  0.54506139825E+03  0.54830268571E+03  0.10000000000E+01 0.  0.
    9000005    1    3    3    0    0  0.47344247767E+02  0.48667029504E+02  0.52344616772E+03  0.52783221582E+03  0.10000000000E+01 0.  0.
          4    1    1    2  501    0 -0.26207551461E+02  0.69760057241E+01  0.10395895564E+02  0.29072116435E+02  0.12700000000E+01 0. -1.
<mgrwt>
<rscale>  1 0.12789804E+03</rscale>
<asrwt>0</asrwt>
<pdfrwt beam="2">  1       21 0.20232946E-02 0.12789804E+03</pdfrwt>
<pdfrwt beam="1">  1        4 0.16801314E+00 0.12789804E+03</pdfrwt>
<totfact> 0.11600152E+04</totfact>
</mgrwt>
</event>
<event>
 6    4  0.6326233E-003  0.1268749E+03  0.7818608E-02  0.1232168E+00
         -4   -1    0    0    0  501 -0.00000000000E+00  0.00000000000E+00  0.13645184710E+03  0.13645775711E+03  0.12700000000E+01 0. -1.
         21   -1    0    0  501  502  0.00000000000E+00 -0.00000000000E+00 -0.59708709022E+02  0.59708709022E+02  0.00000000000E+00 0. -1.
         25    2    1    2    0    0  0.83247849176E+01  0.20083846827E+02  0.10201805928E+03  0.16280335043E+03  0.12499833417E+03 0.  0.
    9000005    1    3    3    0    0 -0.31127612224E+02 -0.10089177609E+02 -0.14750321149E+02  0.35906708587E+02  0.10000000000E+01 0.  0.
    9000005    1    3    3    0    0  0.39452397141E+02  0.30173024436E+02  0.11676838043E+03  0.12689664185E+03  0.10000000000E+01 0.  0.
         -4    1    1    2    0  502 -0.83247849176E+01 -0.20083846827E+02 -0.25274921206E+02  0.33363115701E+02  0.12700000000E+01 0.  1.
<mgrwt>
<rscale>  1 0.12687492E+03</rscale>
<asrwt>0</asrwt>
<pdfrwt beam="2">  1       21 0.91859553E-02 0.12687492E+03</pdfrwt>
<pdfrwt beam="1">  1       -4 0.20994085E-01 0.12687492E+03</pdfrwt>
<totfact> 0.77797943E+04</totfact>
</mgrwt>
</event>
<event>
 6    4  0.6326233E-003  0.1269725E+03  0.7818608E-02  0.1232018E+00
          4   -1    0    0  502    0 -0.00000000000E+00  0.00000000000E+00  0.54447882270E+02  0.54462691668E+02  0.12700000000E+01 0. -1.
         21   -1    0    0  501  502  0.00000000000E+00 -0.00000000000E+00 -0.14475646357E+03  0.14475646357E+03  0.00000000000E+00 0. -1.
         25    2    1    2    0    0  0.70027778658E+01  0.21173195821E+02 -0.23962667322E+02  0.12921389600E+03  0.12499871350E+03 0.  0.
    9000005    1    3    3    0    0 -0.16837559994E+02 -0.43237413046E+02 -0.36931469896E+02  0.59311978403E+02  0.10000000000E+01 0.  0.
    9000005    1    3    3    0    0  0.23840337859E+02  0.64410608867E+02  0.12968802574E+02  0.69901917599E+02  0.10000000000E+01 0.  0.
          4    1    1    2  501    0 -0.70027778658E+01 -0.21173195821E+02 -0.66345913982E+02  0.70005259240E+02  0.12700000000E+01 0.  1.
<mgrwt>
<rscale>  1 0.12697252E+03</rscale>
<asrwt>0</asrwt>
<pdfrwt beam="2">  1       21 0.22270225E-01 0.12697252E+03</pdfrwt>
<pdfrwt beam="1">  1        4 0.83781652E-02 0.12697252E+03</pdfrwt>
<totfact> 0.77353230E+04</totfact>
</mgrwt>
</event>
<event>
 6    4  0.6326233E-003  0.1713523E+03  0.7818608E-02  0.1176445E+00
          4   -1    0    0  502    0 -0.00000000000E+00  0.00000000000E+00  0.16619812764E+03  0.16620297991E+03  0.12700000000E+01 0.  1.
         21   -1    0    0  501  502  0.00000000000E+00 -0.00000000000E+00 -0.13521914427E+03  0.13521914427E+03  0.00000000000E+00 0. -1.
         25    2    1    2    0    0  0.33648552702E+02 -0.11227155424E+03  0.58425660334E+02  0.18103915210E+03  0.12499795926E+03 0.  0.
    9000005    1    3    3    0    0  0.41840460943E+02 -0.78877543252E+02  0.95310191222E+02  0.13060368889E+03  0.10000000000E+01 0.  0.
    9000005    1    3    3    0    0 -0.81919082408E+01 -0.33394010985E+02 -0.36884530888E+02  0.50435463210E+02  0.10000000000E+01 0.  0.
          4    1    1    2  501    0 -0.33648552702E+02  0.11227155424E+03 -0.27446676964E+02  0.12038297208E+03  0.12700000000E+01 0. -1.
<mgrwt>
<rscale>  1 0.17135232E+03</rscale>
<asrwt>0</asrwt>
<pdfrwt beam="2">  1       21 0.20802945E-01 0.17135232E+03</pdfrwt>
<pdfrwt beam="1">  1        4 0.25569775E-01 0.17135232E+03</pdfrwt>
<totfact> 0.12850444E+04</totfact>
</mgrwt>
</event>
<event>
 6    4  0.6326233E-003  0.1295743E+03  0.7818608E-02  0.1228089E+00
         21   -1    0    0  501  502  0.00000000000E+00  0.00000000000E+00  0.31220066191E+02  0.31220066191E+02  0.00000000000E+00 0. -1.
          4   -1    0    0  502    0 -0.00000000000E+00 -0.00000000000E+00 -0.31538270319E+03  0.31538526024E+03  0.12700000000E+01 0.  1.
         25    2    1    2    0    0 -0.33631722395E+02 -0.57919418790E+01 -0.28432082640E+03  0.31245452459E+03  0.12499943309E+03 0.  0.
    9000005    1    3    3    0    0 -0.21995016627E+02  0.57478058641E+02 -0.10220660394E+03  0.11930925308E+03  0.10000000000E+01 0.  0.
    9000005    1    3    3    0    0 -0.11636705768E+02 -0.63270000520E+02 -0.18211422245E+03  0.19314527151E+03  0.10000000000E+01 0.  0.
          4    1    1    2  501    0  0.33631722395E+02  0.57919418790E+01  0.15818939389E+00  0.34150801833E+02  0.12700000000E+01 0. -1.
<mgrwt>
<rscale>  1 0.12957429E+03</rscale>
<asrwt>0</asrwt>
<pdfrwt beam="1">  1       21 0.48030869E-02 0.12957429E+03</pdfrwt>
<pdfrwt beam="2">  1        4 0.48522602E-01 0.12957429E+03</pdfrwt>
<totfact> 0.47708444E+04</totfact>
</mgrwt>
</event>
<event>
 6    4  0.6326233E-003  0.1271382E+03  0.7818608E-02  0.1231765E+00
         21   -1    0    0  501  502  0.00000000000E+00  0.00000000000E+00  0.24324667307E+02  0.24324667307E+02  0.00000000000E+00 0.  1.
         -4   -1    0    0    0  501 -0.00000000000E+00 -0.00000000000E+00 -0.27686525057E+03  0.27686816334E+03  0.12700000000E+01 0. -1.
         25    2    1    2    0    0 -0.22854425269E+02  0.35136173975E+01 -0.24634860915E+03  0.27722152061E+03  0.12501785471E+03 0.  0.
    9000005    1    3    3    0    0  0.32820517806E+02  0.36257718299E+02 -0.47659845762E+02  0.68295456828E+02  0.10000000000E+01 0.  0.
    9000005    1    3    3    0    0 -0.55674943075E+02 -0.32744100902E+02 -0.19868876339E+03  0.20892606378E+03  0.10000000000E+01 0.  0.
         -4    1    1    2    0  502  0.22854425269E+02 -0.35136173975E+01 -0.61919741092E+01  0.23971310038E+02  0.12700000000E+01 0.  1.
<mgrwt>
<rscale>  1 0.12713825E+03</rscale>
<asrwt>0</asrwt>
<pdfrwt beam="1">  1       21 0.37422562E-02 0.12713825E+03</pdfrwt>
<pdfrwt beam="2">  1       -4 0.42597431E-01 0.12713825E+03</pdfrwt>
<totfact> 0.93615189E+04</totfact>
</mgrwt>
</event>
<event>
 6    4  0.6326233E-003  0.1267430E+03  0.7818608E-02  0.1232370E+00
         21   -1    0    0  501  502  0.00000000000E+00  0.00000000000E+00  0.34157973241E+03  0.34157973241E+03  0.00000000000E+00 0.  1.
          4   -1    0    0  502    0 -0.00000000000E+00 -0.00000000000E+00 -0.15947193685E+02  0.15997683783E+02  0.12700000000E+01 0.  1.
         25    2    1    2    0    0  0.15950195342E+02 -0.13580127993E+02  0.28021368412E+03  0.30754428855E+03  0.12499980818E+03 0.  0.
    9000005    1    3    3    0    0  0.41247882033E+02 -0.32050080001E+02  0.26935891741E+03  0.27437897475E+03  0.10000000000E+01 0.  0.
    9000005    1    3    3    0    0 -0.25297686691E+02  0.18469952008E+02  0.10854766714E+02  0.33165313801E+02  0.10000000000E+01 0.  0.
          4    1    1    2  501    0 -0.15950195342E+02  0.13580127993E+02  0.45418854605E+02  0.50033127639E+02  0.12700000000E+01 0. -1.
<mgrwt>
<rscale>  1 0.12674297E+03</rscale>
<asrwt>0</asrwt>
<pdfrwt beam="1">  1       21 0.52550723E-01 0.12674297E+03</pdfrwt>
<pdfrwt beam="2">  1        4 0.24574801E-02 0.12674297E+03</pdfrwt>
<totfact> 0.10198354E+05</totfact>
</mgrwt>
</event>
<event>
 6    4  0.6326233E-003  0.1328082E+03  0.7818608E-02  0.1223347E+00
         21   -1    0    0  501  502  0.00000000000E+00  0.00000000000E+00  0.22527435885E+02  0.22527435885E+02  0.00000000000E+00 0.  1.
         -4   -1    0    0    0  501 -0.00000000000E+00 -0.00000000000E+00 -0.49626085068E+03  0.49626247573E+03  0.12700000000E+01 0. -1.
         25    2    1    2    0    0 -0.22390389918E+02 -0.38887451349E+02 -0.44750996252E+03  0.46680101104E+03  0.12499781569E+03 0.  0.
    9000005    1    3    3    0    0 -0.52503234144E+02  0.15514960658E+02 -0.32317400385E+03  0.32778001825E+03  0.10000000000E+01 0.  0.
    9000005    1    3    3    0    0  0.30112844225E+02 -0.54402412007E+02 -0.12433595866E+03  0.13902099279E+03  0.10000000000E+01 0.  0.
         -4    1    1    2    0  502  0.22390389918E+02  0.38887451349E+02 -0.26223452275E+02  0.51988900569E+02  0.12700000000E+01 0.  1.
<mgrwt>
<rscale>  1 0.13280820E+03</rscale>
<asrwt>0</asrwt>
<pdfrwt beam="1">  1       21 0.34657595E-02 0.13280820E+03</pdfrwt>
<pdfrwt beam="2">  1       -4 0.76350698E-01 0.13280820E+03</pdfrwt>
<totfact> 0.31718700E+04</totfact>
</mgrwt>
</event>
<event>
 6    4  0.6326233E-003  0.1271433E+03  0.7818608E-02  0.1231757E+00
         -4   -1    0    0    0  501 -0.00000000000E+00  0.00000000000E+00  0.36236766311E+03  0.36236988861E+03  0.12700000000E+01 0. -1.
         21   -1    0    0  501  502  0.00000000000E+00 -0.00000000000E+00 -0.25902997534E+02  0.25902997534E+02  0.00000000000E+00 0. -1.
         25    2    1    2    0    0 -0.21889128263E+02  0.77980960564E+01  0.34155442137E+03  0.36445140944E+03  0.12500185137E+03 0.  0.
    9000005    1    3    3    0    0  0.11990272195E+02 -0.31924791518E+02  0.28667775262E+03  0.28870069759E+03  0.10000000000E+01 0.  0.
    9000005    1    3    3    0    0 -0.33879400459E+02  0.39722887575E+02  0.54876668754E+02  0.75750711853E+02  0.10000000000E+01 0.  0.
         -4    1    1    2    0  502  0.21889128263E+02 -0.77980960564E+01 -0.50897557943E+01  0.23821476702E+02  0.12700000000E+01 0.  1.
<mgrwt>
<rscale>  1 0.12714325E+03</rscale>
<asrwt>0</asrwt>
<pdfrwt beam="2">  1       21 0.39850768E-02 0.12714325E+03</pdfrwt>
<pdfrwt beam="1">  1       -4 0.55751433E-01 0.12714325E+03</pdfrwt>
<totfact> 0.48895047E+04</totfact>
</mgrwt>
</event>
<event>
 6    4  0.6326233E-003  0.1274005E+03  0.7818608E-02  0.1231365E+00
         21   -1    0    0  501  502  0.00000000000E+00  0.00000000000E+00  0.16101093890E+03  0.16101093890E+03  0.00000000000E+00 0.  1.
         -4   -1    0    0    0  501 -0.00000000000E+00 -0.00000000000E+00 -0.45844514594E+02  0.45862102201E+02  0.12700000000E+01 0.  1.
         25    2    1    2    0    0 -0.52713155822E+00  0.24612592596E+02  0.49407404794E+02  0.13664541741E+03  0.12499928347E+03 0.  0.
    9000005    1    3    3    0    0  0.41346240950E+02 -0.29434370514E+02  0.45478060483E+02  0.68155321095E+02  0.10000000000E+01 0.  0.
    9000005    1    3    3    0    0 -0.41873372508E+02  0.54046963111E+02  0.39293443107E+01  0.68490096316E+02  0.10000000000E+01 0.  0.
         -4    1    1    2    0  502  0.52713155822E+00 -0.24612592596E+02  0.65759019516E+02  0.70227623694E+02  0.12700000000E+01 0. -1.
<mgrwt>
<rscale>  1 0.12740046E+03</rscale>
<asrwt>0</asrwt>
<pdfrwt beam="1">  1       21 0.24770913E-01 0.12740046E+03</pdfrwt>
<pdfrwt beam="2">  1       -4 0.70547405E-02 0.12740046E+03</pdfrwt>
<totfact> 0.84159417E+04</totfact>
</mgrwt>
</event>
<event>
 6    4  0.6326233E-003  0.1269867E+03  0.7818608E-02  0.1231997E+00
         -4   -1    0    0    0  501 -0.00000000000E+00  0.00000000000E+00  0.88584981876E+02  0.88594085096E+02  0.12700000000E+01 0.  1.
         21   -1    0    0  501  502  0.00000000000E+00 -0.00000000000E+00 -0.64818347957E+02  0.64818347957E+02  0.00000000000E+00 0.  1.
         25    2    1    2    0    0 -0.15355864849E+02 -0.16254983839E+02  0.29339857218E+02  0.13033212104E+03  0.12500242985E+03 0.  0.
    9000005    1    3    3    0    0 -0.34158319835E+02  0.34541973000E+02 -0.24097997230E+02  0.54237000131E+02  0.10000000000E+01 0.  0.
    9000005    1    3    3    0    0  0.18802454986E+02 -0.50796956839E+02  0.53437854448E+02  0.76095120905E+02  0.10000000000E+01 0.  0.
         -4    1    1    2    0  502  0.15355864849E+02  0.16254983839E+02 -0.55732232987E+01  0.23080312017E+02  0.12700000000E+01 0. -1.
<mgrwt>
<rscale>  1 0.12698675E+03</rscale>
<asrwt>0</asrwt>
<pdfrwt beam="2">  1       21 0.99720536E-02 0.12698675E+03</pdfrwt>
<pdfrwt beam="1">  1       -4 0.13630116E-01 0.12698675E+03</pdfrwt>
<totfact> 0.14454900E+05</totfact>
</mgrwt>
</event>
<event>
 6    4  0.6326233E-003  0.1267060E+03  0.7818608E-02  0.1232427E+00
         -4   -1    0    0    0  501 -0.00000000000E+00  0.00000000000E+00  0.13895429714E+02  0.13953346083E+02  0.12700000000E+01 0.  1.
         21   -1    0    0  501  502  0.00000000000E+00 -0.00000000000E+00 -0.92336802611E+03  0.92336802611E+03  0.00000000000E+00 0. -1.
         25    2    1    2    0    0  0.17391673216E+02 -0.11241425150E+02 -0.27805926128E+03  0.30556726449E+03  0.12500224161E+03 0.  0.
    9000005    1    3    3    0    0  0.55355063186E+02 -0.15400235972E+02 -0.55978037670E+02  0.80224005072E+02  0.10000000000E+01 0.  0.
    9000005    1    3    3    0    0 -0.37963389970E+02  0.41588108220E+01 -0.22208122361E+03  0.22534325942E+03  0.10000000000E+01 0.  0.
         -4    1    1    2    0  502 -0.17391673216E+02  0.11241425150E+02 -0.63141333511E+03  0.63175410770E+03  0.12700000000E+01 0. -1.
<mgrwt>
<rscale>  1 0.12670596E+03</rscale>
<asrwt>0</asrwt>
<pdfrwt beam="2">  1       21 0.14205656E+00 0.12670596E+03</pdfrwt>
<pdfrwt beam="1">  1       -4 0.21422816E-02 0.12670596E+03</pdfrwt>
<totfact> 0.13035604E+04</totfact>
</mgrwt>
</event>
<event>
 6    4  0.6326233E-003  0.2452311E+03  0.7818608E-02  0.1116356E+00
         21   -1    0    0  501  502  0.00000000000E+00  0.00000000000E+00  0.13272619147E+04  0.13272619147E+04  0.00000000000E+00 0. -1.
         -4   -1    0    0    0  501 -0.00000000000E+00 -0.00000000000E+00 -0.81566451485E+02  0.81576337916E+02  0.12700000000E+01 0.  1.
         25    2    1    2    0    0  0.14720391406E+03  0.15114116954E+03  0.13833548492E+03  0.28155817213E+03  0.12500260981E+03 0.  0.
    9000005    1    3    3    0    0  0.89576065475E+02  0.50996971524E+02  0.12972372550E+03  0.16569190556E+03  0.10000000000E+01 0.  0.
    9000005    1    3    3    0    0  0.57627848583E+02  0.10014419802E+03  0.86117594291E+01  0.11586626657E+03  0.10000000000E+01 0.  0.
         -4    1    1    2    0  502 -0.14720391406E+03 -0.15114116954E+03  0.11073599783E+04  0.11272800805E+04  0.12700000000E+01 0. -1.
<mgrwt>
<rscale>  1 0.24523111E+03</rscale>
<asrwt>0</asrwt>
<pdfrwt beam="1">  1       21 0.20419412E+00 0.24523111E+03</pdfrwt>
<pdfrwt beam="2">  1       -4 0.12549493E-01 0.24523111E+03</pdfrwt>
<totfact> 0.26824596E+02</totfact>
</mgrwt>
</event>
<event>
 6    4  0.6326233E-003  0.1268939E+03  0.7818608E-02  0.1232139E+00
          4   -1    0    0  502    0 -0.00000000000E+00  0.00000000000E+00  0.19634912031E+03  0.19635322750E+03  0.12700000000E+01 0. -1.
         21   -1    0    0  501  502  0.00000000000E+00 -0.00000000000E+00 -0.42425348435E+02  0.42425348435E+02  0.00000000000E+00 0. -1.
         25    2    1    2    0    0  0.18643892077E+02  0.11390802909E+02  0.16963021552E+03  0.21184067745E+03  0.12499887002E+03 0.  0.
    9000005    1    3    3    0    0 -0.16277846634E+02 -0.51988538494E+02  0.75399495281E+02  0.93026127052E+02  0.10000000000E+01 0.  0.
    9000005    1    3    3    0    0  0.34921738711E+02  0.63379341402E+02  0.94230720235E+02  0.11881455040E+03  0.10000000000E+01 0.  0.
          4    1    1    2  501    0 -0.18643892077E+02 -0.11390802909E+02 -0.15706443636E+02  0.26937898478E+02  0.12700000000E+01 0.  1.
<mgrwt>
<rscale>  1 0.12689390E+03</rscale>
<asrwt>0</asrwt>
<pdfrwt beam="2">  1       21 0.65269768E-02 0.12689390E+03</pdfrwt>
<pdfrwt beam="1">  1        4 0.30209335E-01 0.12689390E+03</pdfrwt>
<totfact> 0.71538088E+04</totfact>
</mgrwt>
</event>
<event>
 6    4  0.6326233E-003  0.1315170E+03  0.7818608E-02  0.1225222E+00
         21   -1    0    0  501  502  0.00000000000E+00  0.00000000000E+00  0.45209652933E+03  0.45209652933E+03  0.00000000000E+00 0. -1.
          4   -1    0    0  502    0 -0.00000000000E+00 -0.00000000000E+00 -0.16493773394E+02  0.16542595346E+02  0.12700000000E+01 0. -1.
         25    2    1    2    0    0  0.38200663538E+02 -0.14577515960E+02  0.34550211373E+03  0.36968694788E+03  0.12499973670E+03 0.  0.
    9000005    1    3    3    0    0  0.35119646418E+02  0.21037653575E+02  0.26702135289E+02  0.48887385504E+02  0.10000000000E+01 0.  0.
    9000005    1    3    3    0    0  0.30810171205E+01 -0.35615169535E+02  0.31879997844E+03  0.32079956237E+03  0.10000000000E+01 0.  0.
          4    1    1    2  501    0 -0.38200663538E+02  0.14577515960E+02  0.90100642206E+02  0.98952176794E+02  0.12700000000E+01 0.  1.
<mgrwt>
<rscale>  1 0.13151703E+03</rscale>
<asrwt>0</asrwt>
<pdfrwt beam="1">  1       21 0.69553303E-01 0.13151703E+03</pdfrwt>
<pdfrwt beam="2">  1        4 0.25413967E-02 0.13151703E+03</pdfrwt>
<totfact> 0.53558011E+04</totfact>
</mgrwt>
</event>
<event>
 6    4  0.6326233E-003  0.1266796E+03  0.7818608E-02  0.1232467E+00
         -4   -1    0    0    0  501 -0.00000000000E+00  0.00000000000E+00  0.66643445763E+03  0.66643566773E+03  0.12700000000E+01 0.  1.
         21   -1    0    0  501  502  0.00000000000E+00 -0.00000000000E+00 -0.81439782875E+01  0.81439782875E+01  0.00000000000E+00 0.  1.
         25    2    1    2    0    0 -0.18864404092E+02  0.81760513787E+01  0.55883839375E+03  0.57301664199E+03  0.12500003243E+03 0.  0.
    9000005    1    3    3    0    0 -0.44019908885E+02 -0.67901980967E+01  0.53015084088E+03  0.53201952338E+03  0.10000000000E+01 0.  0.
    9000005    1    3    3    0    0  0.25155504792E+02  0.14966249475E+02  0.28687552869E+02  0.40997118610E+02  0.10000000000E+01 0.  0.
         -4    1    1    2    0  502  0.18864404092E+02 -0.81760513787E+01  0.99452085595E+02  0.10156300403E+03  0.12700000000E+01 0. -1.
<mgrwt>
<rscale>  1 0.12667960E+03</rscale>
<asrwt>0</asrwt>
<pdfrwt beam="2">  1       21 0.12529203E-02 0.12667960E+03</pdfrwt>
<pdfrwt beam="1">  1       -4 0.10253604E+00 0.12667960E+03</pdfrwt>
<totfact> 0.84081364E+04</totfact>
</mgrwt>
</event>
<event>
 6    4  0.6326233E-003  0.1286408E+03  0.7818608E-02  0.1229487E+00
         21   -1    0    0  501  502  0.00000000000E+00  0.00000000000E+00  0.17093883027E+02  0.17093883027E+02  0.00000000000E+00 0.  1.
         -4   -1    0    0    0  501 -0.00000000000E+00 -0.00000000000E+00 -0.38614497311E+03  0.38614706157E+03  0.12700000000E+01 0.  1.
         25    2    1    2    0    0  0.17890335766E+02 -0.24563294109E+02 -0.32658004389E+03  0.35100281488E+03  0.12500012582E+03 0.  0.
    9000005    1    3    3    0    0 -0.23643941625E+02 -0.30767839511E+02 -0.24250284217E+02  0.45768681523E+02  0.10000000000E+01 0.  0.
    9000005    1    3    3    0    0  0.41534277391E+02  0.62045454023E+01 -0.30232975968E+03  0.30523413336E+03  0.10000000000E+01 0.  0.
         -4    1    1    2    0  502 -0.17890335766E+02  0.24563294109E+02 -0.42471046187E+02  0.52238129709E+02  0.12700000000E+01 0. -1.
<mgrwt>
<rscale>  1 0.12864078E+03</rscale>
<asrwt>0</asrwt>
<pdfrwt beam="1">  1       21 0.26298282E-02 0.12864078E+03</pdfrwt>
<pdfrwt beam="2">  1       -4 0.59410707E-01 0.12864078E+03</pdfrwt>
<totfact> 0.85008678E+04</totfact>
</mgrwt>
</event>
<event>
 6    4  0.6326233E-003  0.1285933E+03  0.7818608E-02  0.1229558E+00
         21   -1    0    0  501  502  0.00000000000E+00  0.00000000000E+00  0.47522419844E+02  0.47522419844E+02  0.00000000000E+00 0.  1.
         -4   -1    0    0    0  501 -0.00000000000E+00 -0.00000000000E+00 -0.13538199444E+03  0.13538795115E+03  0.12700000000E+01 0.  1.
         25    2    1    2    0    0 -0.18895279882E+02 -0.23538008333E+02 -0.60346637603E+02  0.14204909300E+03  0.12500063485E+03 0.  0.
    9000005    1    3    3    0    0 -0.40475108373E+02 -0.62947913934E+02 -0.11585677415E+02  0.75735739170E+02  0.10000000000E+01 0.  0.
    9000005    1    3    3    0    0  0.21579828491E+02  0.39409905601E+02 -0.48760960188E+02  0.66313353826E+02  0.10000000000E+01 0.  0.
         -4    1    1    2    0  502  0.18895279882E+02  0.23538008333E+02 -0.27512936990E+02  0.40861278001E+02  0.12700000000E+01 0. -1.
<mgrwt>
<rscale>  1 0.12859327E+03</rscale>
<asrwt>0</asrwt>
<pdfrwt beam="1">  1       21 0.73111417E-02 0.12859327E+03</pdfrwt>
<pdfrwt beam="2">  1       -4 0.20829762E-01 0.12859327E+03</pdfrwt>
<totfact> 0.11725176E+05</totfact>
</mgrwt>
</event>
<event>
 6    4  0.6326233E-003  0.1274571E+03  0.7818608E-02  0.1231278E+00
         21   -1    0    0  501  502  0.00000000000E+00  0.00000000000E+00  0.11889878151E+02  0.11889878151E+02  0.00000000000E+00 0. -1.
          4   -1    0    0  502    0 -0.00000000000E+00 -0.00000000000E+00 -0.65993020592E+03  0.65993142794E+03  0.12700000000E+01 0. -1.
         25    2    1    2    0    0 -0.23568112563E+02  0.82169418878E+01 -0.62488582563E+03  0.63775199537E+03  0.12498935340E+03 0.  0.
    9000005    1    3    3    0    0 -0.37155272894E+02  0.61301576808E+02 -0.31475116323E+03  0.32281216269E+03  0.10000000000E+01 0.  0.
    9000005    1    3    3    0    0  0.13587160331E+02 -0.53084634920E+02 -0.31013466240E+03  0.31493983268E+03  0.10000000000E+01 0.  0.
          4    1    1    2  501    0  0.23568112563E+02 -0.82169418878E+01 -0.23154502140E+02  0.34069310722E+02  0.12700000000E+01 0.  1.
<mgrwt>
<rscale>  1 0.12745710E+03</rscale>
<asrwt>0</asrwt>
<pdfrwt beam="1">  1       21 0.18292117E-02 0.12745710E+03</pdfrwt>
<pdfrwt beam="2">  1        4 0.10153306E+00 0.12745710E+03</pdfrwt>
<totfact> 0.47048524E+04</totfact>
</mgrwt>
</event>
<event>
 6    4  0.6326233E-003  0.1269296E+03  0.7818608E-02  0.1232084E+00
         21   -1    0    0  501  502  0.00000000000E+00  0.00000000000E+00  0.12705110784E+04  0.12705110784E+04  0.00000000000E+00 0. -1.
         -4   -1    0    0    0  501 -0.00000000000E+00 -0.00000000000E+00 -0.50613714374E+01  0.52182737401E+01  0.12700000000E+01 0.  1.
         25    2    1    2    0    0 -0.80282920339E+01 -0.20530364110E+02  0.82314537024E+03  0.83287419692E+03  0.12500071208E+03 0.  0.
    9000005    1    3    3    0    0 -0.23298012030E+02 -0.69894495110E+02  0.54625710588E+03  0.55120401262E+03  0.10000000000E+01 0.  0.
    9000005    1    3    3    0    0  0.15269719996E+02  0.49364131001E+02  0.27688826436E+03  0.28167018429E+03  0.10000000000E+01 0.  0.
         -4    1    1    2    0  502  0.80282920339E+01  0.20530364110E+02  0.44230433668E+03  0.44285515518E+03  0.12700000000E+01 0. -1.
<mgrwt>
<rscale>  1 0.12692962E+03</rscale>
<asrwt>0</asrwt>
<pdfrwt beam="1">  1       21 0.19546299E+00 0.12692962E+03</pdfrwt>
<pdfrwt beam="2">  1       -4 0.79079177E-03 0.12692962E+03</pdfrwt>
<totfact> 0.25037679E+04</totfact>
</mgrwt>
</event>
<event>
 6    4  0.6326233E-003  0.1369786E+03  0.7818608E-02  0.1217453E+00
         21   -1    0    0  501  502  0.00000000000E+00  0.00000000000E+00  0.85668894905E+02  0.85668894905E+02  0.00000000000E+00 0. -1.
          4   -1    0    0  502    0 -0.00000000000E+00 -0.00000000000E+00 -0.11930191542E+03  0.11930867497E+03  0.12700000000E+01 0.  1.
         25    2    1    2    0    0  0.42884889766E+02  0.36037043352E+02 -0.51235825828E+02  0.14624722067E+03  0.12500142975E+03 0.  0.
    9000005    1    3    3    0    0  0.20137908718E+02  0.82167849320E+02 -0.40027626143E+02  0.93596483289E+02  0.10000000000E+01 0.  0.
    9000005    1    3    3    0    0  0.22746981048E+02 -0.46130805969E+02 -0.11208199685E+02  0.52650737377E+02  0.10000000000E+01 0.  0.
          4    1    1    2  501    0 -0.42884889766E+02 -0.36037043352E+02  0.17602805310E+02  0.58730349212E+02  0.12700000000E+01 0. -1.
<mgrwt>
<rscale>  1 0.13697861E+03</rscale>
<asrwt>0</asrwt>
<pdfrwt beam="1">  1       21 0.13179830E-01 0.13697861E+03</pdfrwt>
<pdfrwt beam="2">  1        4 0.18355385E-01 0.13697861E+03</pdfrwt>
<totfact> 0.52924350E+04</totfact>
</mgrwt>
</event>
<event>
 6    4  0.6326233E-003  0.1295790E+03  0.7818608E-02  0.1228082E+00
         21   -1    0    0  501  502  0.00000000000E+00  0.00000000000E+00  0.42995736258E+02  0.42995736258E+02  0.00000000000E+00 0.  1.
         -4   -1    0    0    0  501 -0.00000000000E+00 -0.00000000000E+00 -0.20858472859E+03  0.20858859485E+03  0.12700000000E+01 0. -1.
         25    2    1    2    0    0 -0.59560693360E+01  0.33619714934E+02 -0.17346660762E+03  0.21652110654E+03  0.12499986250E+03 0.  0.
    9000005    1    3    3    0    0 -0.51623625821E+01  0.80469008180E+02 -0.12759335761E+03  0.15094030665E+03  0.10000000000E+01 0.  0.
    9000005    1    3    3    0    0 -0.79370675398E+00 -0.46849293246E+02 -0.45873250008E+02  0.65580799891E+02  0.10000000000E+01 0.  0.
         -4    1    1    2    0  502  0.59560693360E+01 -0.33619714934E+02  0.78776152887E+01  0.35063224564E+02  0.12700000000E+01 0.  1.
<mgrwt>
<rscale>  1 0.12957903E+03</rscale>
<asrwt>0</asrwt>
<pdfrwt beam="1">  1       21 0.66147287E-02 0.12957903E+03</pdfrwt>
<pdfrwt beam="2">  1       -4 0.32091698E-01 0.12957903E+03</pdfrwt>
<totfact> 0.62532252E+04</totfact>
</mgrwt>
</event>
<event>
 6    4  0.6326233E-003  0.1283092E+03  0.7818608E-02  0.1229986E+00
         -4   -1    0    0    0  501 -0.00000000000E+00  0.00000000000E+00  0.39203412217E+01  0.41209192293E+01  0.12700000000E+01 0. -1.
         21   -1    0    0  501  502  0.00000000000E+00 -0.00000000000E+00 -0.18530729304E+04  0.18530729304E+04  0.00000000000E+00 0. -1.
         25    2    1    2    0    0  0.16322374011E+02 -0.23940019768E+02 -0.10963313908E+04  0.11038141883E+04  0.12499479771E+03 0.  0.
    9000005    1    3    3    0    0  0.16599720479E+02 -0.70543815058E+02 -0.44953856039E+03  0.45534371396E+03  0.10000000000E+01 0.  0.
    9000005    1    3    3    0    0 -0.27734646740E+00  0.46603795289E+02 -0.64679283041E+03  0.64847047437E+03  0.10000000000E+01 0.  0.
         -4    1    1    2    0  502 -0.16322374011E+02  0.23940019768E+02 -0.75282119836E+03  0.75337966129E+03  0.12700000000E+01 0.  1.
<mgrwt>
<rscale>  1 0.12830917E+03</rscale>
<asrwt>0</asrwt>
<pdfrwt beam="2">  1       21 0.28508798E+00 0.12830917E+03</pdfrwt>
<pdfrwt beam="1">  1       -4 0.61859232E-03 0.12830917E+03</pdfrwt>
<totfact> 0.10764498E+04</totfact>
</mgrwt>
</event>
<event>
 6    4  0.6326233E-003  0.1297595E+03  0.7818608E-02  0.1227813E+00
          4   -1    0    0  502    0 -0.00000000000E+00  0.00000000000E+00  0.14834061960E+03  0.14834605597E+03  0.12700000000E+01 0. -1.
         21   -1    0    0  501  502  0.00000000000E+00 -0.00000000000E+00 -0.47310470974E+02  0.47310470974E+02  0.00000000000E+00 0.  1.
         25    2    1    2    0    0 -0.16450137390E+02  0.30700192690E+02  0.93666702117E+02  0.16003431343E+03  0.12499768613E+03 0.  0.
    9000005    1    3    3    0    0 -0.34008613747E+02 -0.21660663910E+02  0.96639896881E+02  0.10471886095E+03  0.10000000000E+01 0.  0.
    9000005    1    3    3    0    0  0.17558476357E+02  0.52360856600E+02 -0.29731947638E+01  0.55315452479E+02  0.10000000000E+01 0.  0.
          4    1    1    2  501    0  0.16450137390E+02 -0.30700192690E+02  0.73634465079E+01  0.35622213517E+02  0.12700000000E+01 0.  1.
<mgrwt>
<rscale>  1 0.12975951E+03</rscale>
<asrwt>0</asrwt>
<pdfrwt beam="2">  1       21 0.72785341E-02 0.12975951E+03</pdfrwt>
<pdfrwt beam="1">  1        4 0.22823363E-01 0.12975951E+03</pdfrwt>
<totfact> 0.10022802E+05</totfact>
</mgrwt>
</event>
<event>
 6    4  0.6326233E-003  0.1346488E+03  0.7818608E-02  0.1220716E+00
         21   -1    0    0  501  502  0.00000000000E+00  0.00000000000E+00  0.53393469566E+02  0.53393469566E+02  0.00000000000E+00 0. -1.
         -4   -1    0    0    0  501 -0.00000000000E+00 -0.00000000000E+00 -0.42762365949E+03  0.42762554537E+03  0.12700000000E+01 0.  1.
         25    2    1    2    0    0 -0.42125987388E+02 -0.27035381184E+02 -0.40186864846E+03  0.42382628866E+03  0.12499920677E+03 0.  0.
    9000005    1    3    3    0    0  0.16797215621E+02 -0.40363105567E+02 -0.31494520119E+03  0.31796667513E+03  0.10000000000E+01 0.  0.
    9000005    1    3    3    0    0 -0.58923203009E+02  0.13327724383E+02 -0.86923447274E+02  0.10585961353E+03  0.10000000000E+01 0.  0.
         -4    1    1    2    0  502  0.42125987388E+02  0.27035381184E+02  0.27638458536E+02  0.57192726281E+02  0.12700000000E+01 0. -1.
<mgrwt>
<rscale>  1 0.13464885E+03</rscale>
<asrwt>0</asrwt>
<pdfrwt beam="1">  1       21 0.82143799E-02 0.13464885E+03</pdfrwt>
<pdfrwt beam="2">  1       -4 0.65789562E-01 0.13464885E+03</pdfrwt>
<totfact> 0.10212871E+04</totfact>
</mgrwt>
</event>
<event>
 6    4  0.6326233E-003  0.1275178E+03  0.7818608E-02  0.1231186E+00
          4   -1    0    0  502    0 -0.00000000000E+00  0.00000000000E+00  0.15952539012E+03  0.15953044535E+03  0.12700000000E+01 0.  1.
         21   -1    0    0  501  502  0.00000000000E+00 -0.00000000000E+00 -0.36582300142E+02  0.36582300142E+02  0.00000000000E+00 0.  1.
         25    2    1    2    0    0  0.12472625804E+02 -0.21932614207E+02  0.10175031664E+03  0.16313771702E+03  0.12499672724E+03 0.  0.
    9000005    1    3    3    0    0 -0.13448435340E+02  0.49534027893E+02  0.44942335595E+02  0.68229713916E+02  0.10000000000E+01 0.  0.
    9000005    1    3    3    0    0  0.25921061144E+02 -0.71466642100E+02  0.56807981041E+02  0.94908003107E+02  0.10000000000E+01 0.  0.
          4    1    1    2  501    0 -0.12472625804E+02  0.21932614207E+02  0.21192773343E+02  0.32975028467E+02  0.12700000000E+01 0. -1.
<mgrwt>
<rscale>  1 0.12751779E+03</rscale>
<asrwt>0</asrwt>
<pdfrwt beam="2">  1       21 0.56280463E-02 0.12751779E+03</pdfrwt>
<pdfrwt beam="1">  1        4 0.24544452E-01 0.12751779E+03</pdfrwt>
<totfact> 0.13554686E+05</totfact>
</mgrwt>
</event>
<event>
 6    4  0.6326233E-003  0.1382927E+03  0.7818608E-02  0.1215645E+00
          4   -1    0    0  502    0 -0.00000000000E+00  0.00000000000E+00  0.67332723064E+03  0.67332842835E+03  0.12700000000E+01 0. -1.
         21   -1    0    0  501  502  0.00000000000E+00 -0.00000000000E+00 -0.24389681164E+02  0.24389681164E+02  0.00000000000E+00 0.  1.
         25    2    1    2    0    0 -0.39270573762E+02 -0.44241003776E+02  0.61318354560E+03  0.62858486084E+03  0.12500168920E+03 0.  0.
    9000005    1    3    3    0    0 -0.39164984882E+02 -0.86711041404E+02  0.45115439062E+03  0.46107915255E+03  0.10000000000E+01 0.  0.
    9000005    1    3    3    0    0 -0.10558888043E+00  0.42470037628E+02  0.16202915498E+03  0.16750570829E+03  0.10000000000E+01 0.  0.
          4    1    1    2  501    0  0.39270573762E+02  0.44241003776E+02  0.35754003874E+02  0.69133248670E+02  0.12700000000E+01 0.  1.
<mgrwt>
<rscale>  1 0.13829268E+03</rscale>
<asrwt>0</asrwt>
<pdfrwt beam="2">  1       21 0.37522592E-02 0.13829268E+03</pdfrwt>
<pdfrwt beam="1">  1        4 0.10359143E+00 0.13829268E+03</pdfrwt>
<totfact> 0.14027162E+04</totfact>
</mgrwt>
</event>
<event>
 6    4  0.6326233E-003  0.1292349E+03  0.7818608E-02  0.1228595E+00
         21   -1    0    0  501  502  0.00000000000E+00  0.00000000000E+00  0.77572749086E+02  0.77572749086E+02  0.00000000000E+00 0. -1.
          4   -1    0    0  502    0 -0.00000000000E+00 -0.00000000000E+00 -0.12299177806E+03  0.12299833483E+03  0.12700000000E+01 0. -1.
         25    2    1    2    0    0  0.76966113651E+01  0.31911863567E+02 -0.80701345392E+02  0.15236258244E+03  0.12499617801E+03 0.  0.
    9000005    1    3    3    0    0  0.20445054125E+02 -0.13750992977E+02 -0.98630684293E+02  0.10166662151E+03  0.10000000000E+01 0.  0.
    9000005    1    3    3    0    0 -0.12748442760E+02  0.45662856544E+02  0.17929338900E+02  0.50695960923E+02  0.10000000000E+01 0.  0.
          4    1    1    2  501    0 -0.76966113651E+01 -0.31911863567E+02  0.35282316418E+02  0.48208501477E+02  0.12700000000E+01 0.  1.
<mgrwt>
<rscale>  1 0.12923486E+03</rscale>
<asrwt>0</asrwt>
<pdfrwt beam="1">  1       21 0.11934269E-01 0.12923486E+03</pdfrwt>
<pdfrwt beam="2">  1        4 0.18923116E-01 0.12923486E+03</pdfrwt>
<totfact> 0.59376550E+04</totfact>
</mgrwt>
</event>
<event>
 6    4  0.6326233E-003  0.1318457E+03  0.7818608E-02  0.1224743E+00
         21   -1    0    0  501  502  0.00000000000E+00  0.00000000000E+00  0.10703999386E+03  0.10703999386E+03  0.00000000000E+00 0. -1.
         -4   -1    0    0    0  501 -0.00000000000E+00 -0.00000000000E+00 -0.71062882630E+02  0.71074230124E+02  0.12700000000E+01 0. -1.
         25    2    1    2    0    0  0.34725868701E+01 -0.41787760906E+02  0.20660880394E+02  0.13345467128E+03  0.12500000594E+03 0.  0.
    9000005    1    3    3    0    0  0.64063964371E+02 -0.26049410873E+02  0.86582294458E+01  0.69704578579E+02  0.10000000000E+01 0.  0.
    9000005    1    3    3    0    0 -0.60591377500E+02 -0.15738350033E+02  0.12002650948E+02  0.63750092698E+02  0.10000000000E+01 0.  0.
         -4    1    1    2    0  502 -0.34725868701E+01  0.41787760906E+02  0.15316230838E+02  0.44659552710E+02  0.12700000000E+01 0.  1.
<mgrwt>
<rscale>  1 0.13184566E+03</rscale>
<asrwt>0</asrwt>
<pdfrwt beam="1">  1       21 0.16467691E-01 0.13184566E+03</pdfrwt>
<pdfrwt beam="2">  1       -4 0.10934204E-01 0.13184566E+03</pdfrwt>
<totfact> 0.86714667E+04</totfact>
</mgrwt>
</event>
<event>
 6    4  0.6326233E-003  0.1268179E+03  0.7818608E-02  0.1232255E+00
          4   -1    0    0  502    0 -0.00000000000E+00  0.00000000000E+00  0.30435433099E+02  0.30461918652E+02  0.12700000000E+01 0. -1.
         21   -1    0    0  501  502  0.00000000000E+00 -0.00000000000E+00 -0.26613555437E+03  0.26613555437E+03  0.00000000000E+00 0.  1.
         25    2    1    2    0    0 -0.17616178244E+01  0.21328798207E+02 -0.10642548597E+03  0.16555715418E+03  0.12499906522E+03 0.  0.
    9000005    1    3    3    0    0 -0.51377133611E+02  0.47070491849E+02 -0.70356568757E+02  0.99026702602E+02  0.10000000000E+01 0.  0.
    9000005    1    3    3    0    0  0.49615515787E+02 -0.25741693642E+02 -0.36068917217E+02  0.66530451581E+02  0.10000000000E+01 0.  0.
          4    1    1    2  501    0  0.17616178244E+01 -0.21328798207E+02 -0.12927463530E+03  0.13104031884E+03  0.12700000000E+01 0.  1.
<mgrwt>
<rscale>  1 0.12681793E+03</rscale>
<asrwt>0</asrwt>
<pdfrwt beam="2">  1       21 0.40943931E-01 0.12681793E+03</pdfrwt>
<pdfrwt beam="1">  1        4 0.46846449E-02 0.12681793E+03</pdfrwt>
<totfact> 0.61478880E+04</totfact>
</mgrwt>
</event>
<event>
 6    4  0.6326233E-003  0.1437979E+03  0.7818608E-02  0.1208308E+00
          4   -1    0    0  502    0 -0.00000000000E+00  0.00000000000E+00  0.35307650210E+02  0.35330483486E+02  0.12700000000E+01 0.  1.
         21   -1    0    0  501  502  0.00000000000E+00 -0.00000000000E+00 -0.32700444861E+03  0.32700444861E+03  0.00000000000E+00 0.  1.
         25    2    1    2    0    0 -0.60999484005E+02 -0.36504178990E+02 -0.19860590059E+03  0.24519817319E+03  0.12499739298E+03 0.  0.
    9000005    1    3    3    0    0 -0.62676979112E+02  0.35036920309E+02 -0.90130358988E+02  0.11524092635E+03  0.10000000000E+01 0.  0.
    9000005    1    3    3    0    0  0.16774951069E+01 -0.71541099299E+02 -0.10847554161E+03  0.12995724684E+03  0.10000000000E+01 0.  0.
          4    1    1    2  501    0  0.60999484005E+02  0.36504178990E+02 -0.93090897807E+02  0.11713675891E+03  0.12700000000E+01 0. -1.
<mgrwt>
<rscale>  1 0.14379792E+03</rscale>
<asrwt>0</asrwt>
<pdfrwt beam="2">  1       21 0.50308379E-01 0.14379792E+03</pdfrwt>
<pdfrwt beam="1">  1        4 0.54338920E-02 0.14379792E+03</pdfrwt>
<totfact> 0.32256188E+04</totfact>
</mgrwt>
</event>
<event>
 6    4  0.6326233E-003  0.1276317E+03  0.7818608E-02  0.1231013E+00
         21   -1    0    0  501  502  0.00000000000E+00  0.00000000000E+00  0.41047691237E+02  0.41047691237E+02  0.00000000000E+00 0. -1.
          4   -1    0    0  502    0 -0.00000000000E+00 -0.00000000000E+00 -0.17844899766E+03  0.17845351682E+03  0.12700000000E+01 0. -1.
         25    2    1    2    0    0 -0.58866732553E+01  0.25112819631E+02 -0.14442404258E+03  0.19273857824E+03  0.12499819532E+03 0.  0.
    9000005    1    3    3    0    0  0.51974692805E+02  0.36851351931E+01 -0.23897352900E+02  0.57332646801E+02  0.10000000000E+01 0.  0.
    9000005    1    3    3    0    0 -0.57861366060E+02  0.21427684438E+02 -0.12052668968E+03  0.13540593144E+03  0.10000000000E+01 0.  0.
          4    1    1    2  501    0  0.58866732553E+01 -0.25112819631E+02  0.70227361581E+01  0.26762629822E+02  0.12700000000E+01 0.  1.
<mgrwt>
<rscale>  1 0.12763172E+03</rscale>
<asrwt>0</asrwt>
<pdfrwt beam="1">  1       21 0.63150294E-02 0.12763172E+03</pdfrwt>
<pdfrwt beam="2">  1        4 0.27455551E-01 0.12763172E+03</pdfrwt>
<totfact> 0.90619525E+04</totfact>
</mgrwt>
</event>
<event>
 6    4  0.6326233E-003  0.1327797E+03  0.7818608E-02  0.1223389E+00
         -4   -1    0    0    0  501 -0.00000000000E+00  0.00000000000E+00  0.12827073606E+03  0.12827702300E+03  0.12700000000E+01 0.  1.
         21   -1    0    0  501  502  0.00000000000E+00 -0.00000000000E+00 -0.79067184147E+02  0.79067184147E+02  0.00000000000E+00 0.  1.
         25    2    1    2    0    0  0.15223440455E+01 -0.44753978381E+02  0.78090027233E+02  0.15404057248E+03  0.12500083801E+03 0.  0.
    9000005    1    3    3    0    0 -0.34196831345E+02  0.19026593236E+01  0.88006634955E+02  0.94441575499E+02  0.10000000000E+01 0.  0.
    9000005    1    3    3    0    0  0.35719175390E+02 -0.46656637705E+02 -0.99166077220E+01  0.59598996981E+02  0.10000000000E+01 0.  0.
         -4    1    1    2    0  502 -0.15223440455E+01  0.44753978381E+02 -0.28886475320E+02  0.53303634667E+02  0.12700000000E+01 0. -1.
<mgrwt>
<rscale>  1 0.13277969E+03</rscale>
<asrwt>0</asrwt>
<pdfrwt beam="2">  1       21 0.12164182E-01 0.13277969E+03</pdfrwt>
<pdfrwt beam="1">  1       -4 0.19735228E-01 0.13277969E+03</pdfrwt>
<totfact> 0.53425929E+04</totfact>
</mgrwt>
</event>
<event>
 6    4  0.6326233E-003  0.1650347E+03  0.7818608E-02  0.1183127E+00
         21   -1    0    0  501  502  0.00000000000E+00  0.00000000000E+00  0.12140225602E+04  0.12140225602E+04  0.00000000000E+00 0.  1.
          4   -1    0    0  502    0 -0.00000000000E+00 -0.00000000000E+00 -0.37404673435E+02  0.37426227365E+02  0.12700000000E+01 0. -1.
         25    2    1    2    0    0  0.93672710731E+02 -0.53262139655E+02  0.16245776313E+03  0.23157928536E+03  0.12500003340E+03 0.  0.
    9000005    1    3    3    0    0 -0.28849011075E+02  0.40689187669E+01  0.36790150986E+02  0.46939713990E+02  0.10000000000E+01 0.  0.
    9000005    1    3    3    0    0  0.12252172181E+03 -0.57331058422E+02  0.12566761214E+03  0.18463957137E+03  0.10000000000E+01 0.  0.
          4    1    1    2  501    0 -0.93672710731E+02  0.53262139655E+02  0.10141601236E+04  0.10198695022E+04  0.12700000000E+01 0.  1.
<mgrwt>
<rscale>  1 0.16503466E+03</rscale>
<asrwt>0</asrwt>
<pdfrwt beam="1">  1       21 0.18677267E+00 0.16503466E+03</pdfrwt>
<pdfrwt beam="2">  1        4 0.57562752E-02 0.16503466E+03</pdfrwt>
<totfact> 0.13161430E+03</totfact>
</mgrwt>
</event>
<event>
 6    4  0.6326233E-003  0.1274491E+03  0.7818608E-02  0.1231291E+00
         21   -1    0    0  501  502  0.00000000000E+00  0.00000000000E+00  0.48157270949E+02  0.48157270949E+02  0.00000000000E+00 0. -1.
         -4   -1    0    0    0  501 -0.00000000000E+00 -0.00000000000E+00 -0.65953933411E+03  0.65954055686E+03  0.12700000000E+01 0.  1.
         25    2    1    2    0    0  0.15964101538E+02  0.19056010186E+02 -0.64965719482E+03  0.66204059765E+03  0.12500119239E+03 0.  0.
    9000005    1    3    3    0    0  0.25349628054E+02  0.52547946525E+02 -0.14666850364E+03  0.15784973958E+03  0.10000000000E+01 0.  0.
    9000005    1    3    3    0    0 -0.93855265163E+01 -0.33491936339E+02 -0.50298869118E+03  0.50419085807E+03  0.10000000000E+01 0.  0.
         -4    1    1    2    0  502 -0.15964101538E+02 -0.19056010186E+02  0.38275131656E+02  0.45657230155E+02  0.12700000000E+01 0. -1.
<mgrwt>
<rscale>  1 0.12744914E+03</rscale>
<asrwt>0</asrwt>
<pdfrwt beam="1">  1       21 0.74088117E-02 0.12744914E+03</pdfrwt>
<pdfrwt beam="2">  1       -4 0.10146896E+00 0.12744914E+03</pdfrwt>
<totfact> 0.46418021E+03</totfact>
</mgrwt>
</event>
<event>
 6    4  0.6326233E-003  0.1266759E+03  0.7818608E-02  0.1232473E+00
         21   -1    0    0  501  502  0.00000000000E+00  0.00000000000E+00  0.14686898111E+03  0.14686898111E+03  0.00000000000E+00 0.  1.
         -4   -1    0    0    0  501 -0.00000000000E+00 -0.00000000000E+00 -0.93821319631E+02  0.93829914831E+02  0.12700000000E+01 0.  1.
         25    2    1    2    0    0 -0.10119820272E+02 -0.17848977381E+02 -0.49579697597E+02  0.13603283417E+03  0.12500315517E+03 0.  0.
    9000005    1    3    3    0    0 -0.15420077074E+02 -0.31949022751E+02  0.35160879122E+02  0.49958044921E+02  0.10000000000E+01 0.  0.
    9000005    1    3    3    0    0  0.53002568019E+01  0.14100045370E+02 -0.84740576719E+02  0.86074789249E+02  0.10000000000E+01 0.  0.
         -4    1    1    2    0  502  0.10119820272E+02  0.17848977381E+02  0.10262735908E+03  0.10466606177E+03  0.12700000000E+01 0. -1.
<mgrwt>
<rscale>  1 0.12667591E+03</rscale>
<asrwt>0</asrwt>
<pdfrwt beam="1">  1       21 0.22595228E-01 0.12667591E+03</pdfrwt>
<pdfrwt beam="2">  1       -4 0.14435133E-01 0.12667591E+03</pdfrwt>
<totfact> 0.29906637E+04</totfact>
</mgrwt>
</event>
<event>
 6    4  0.6326233E-003  0.1300486E+03  0.7818608E-02  0.1227384E+00
         21   -1    0    0  501  502  0.00000000000E+00  0.00000000000E+00  0.13523604403E+03  0.13523604403E+03  0.00000000000E+00 0.  1.
         -4   -1    0    0    0  501 -0.00000000000E+00 -0.00000000000E+00 -0.52015573022E+02  0.52031074723E+02  0.12700000000E+01 0.  1.
         25    2    1    2    0    0 -0.34351645831E+02 -0.10379869472E+02  0.76041574931E+02  0.15064845260E+03  0.12499943157E+03 0.  0.
    9000005    1    3    3    0    0 -0.80370081866E+02 -0.60347989751E+01  0.63866790488E+02  0.10283839645E+03  0.10000000000E+01 0.  0.
    9000005    1    3    3    0    0  0.46018436034E+02 -0.43450704974E+01  0.12174784443E+02  0.47810056148E+02  0.10000000000E+01 0.  0.
         -4    1    1    2    0  502  0.34351645831E+02  0.10379869472E+02  0.71788960720E+01  0.36618666147E+02  0.12700000000E+01 0. -1.
<mgrwt>
<rscale>  1 0.13004859E+03</rscale>
<asrwt>0</asrwt>
<pdfrwt beam="1">  1       21 0.20805545E-01 0.13004859E+03</pdfrwt>
<pdfrwt beam="2">  1       -4 0.80040471E-02 0.13004859E+03</pdfrwt>
<totfact> 0.95005257E+04</totfact>
</mgrwt>
</event>
<event>
 6    4  0.6326233E-003  0.1360767E+03  0.7818608E-02  0.1218708E+00
          4   -1    0    0  502    0 -0.00000000000E+00  0.00000000000E+00  0.17287524305E+03  0.17287990791E+03  0.12700000000E+01 0. -1.
         21   -1    0    0  501  502  0.00000000000E+00 -0.00000000000E+00 -0.54453217285E+02  0.54453217285E+02  0.00000000000E+00 0. -1.
         25    2    1    2    0    0 -0.18006488763E+02  0.50669242137E+02  0.10504782087E+03  0.17190670557E+03  0.12500106005E+03 0.  0.
    9000005    1    3    3    0    0 -0.40839671188E+02  0.46977869531E+02  0.12608992215E+03  0.14062171751E+03  0.10000000000E+01 0.  0.
    9000005    1    3    3    0    0  0.22833182425E+02  0.36913726064E+01 -0.21042101279E+02  0.31284988055E+02  0.10000000000E+01 0.  0.
          4    1    1    2  501    0  0.18006488763E+02 -0.50669242137E+02  0.13374204894E+02  0.55426419629E+02  0.12700000000E+01 0.  1.
<mgrwt>
<rscale>  1 0.13607671E+03</rscale>
<asrwt>0</asrwt>
<pdfrwt beam="2">  1       21 0.83774181E-02 0.13607671E+03</pdfrwt>
<pdfrwt beam="1">  1        4 0.26597689E-01 0.13607671E+03</pdfrwt>
<totfact> 0.59718637E+04</totfact>
</mgrwt>
</event>
<event>
 6    4  0.6326233E-003  0.1472783E+03  0.7818608E-02  0.1203858E+00
          4   -1    0    0  502    0 -0.00000000000E+00  0.00000000000E+00  0.23386702717E+04  0.23386706165E+04  0.12700000000E+01 0. -1.
         21   -1    0    0  501  502  0.00000000000E+00 -0.00000000000E+00 -0.64076371922E+01  0.64076371922E+01  0.00000000000E+00 0. -1.
         25    2    1    2    0    0 -0.12187807648E+02  0.76928214217E+02  0.10286051232E+04  0.10390954773E+04  0.12499767414E+03 0.  0.
    9000005    1    3    3    0    0 -0.32308245964E+02  0.58049376476E+02  0.21523392896E+03  0.22525584796E+03  0.10000000000E+01 0.  0.
    9000005    1    3    3    0    0  0.20120438316E+02  0.18878837741E+02  0.81337119429E+03  0.81383962932E+03  0.10000000000E+01 0.  0.
          4    1    1    2  501    0  0.12187807648E+02 -0.76928214217E+02  0.13036575112E+04  0.13059827764E+04  0.12700000000E+01 0.  1.
<mgrwt>
<rscale>  1 0.14727835E+03</rscale>
<asrwt>0</asrwt>
<pdfrwt beam="2">  1       21 0.98579220E-03 0.14727835E+03</pdfrwt>
<pdfrwt beam="1">  1        4 0.35980445E+00 0.14727835E+03</pdfrwt>
<totfact> 0.26112893E+03</totfact>
</mgrwt>
</event>
<event>
 6    4  0.6326233E-003  0.1290187E+03  0.7818608E-02  0.1228919E+00
         21   -1    0    0  501  502  0.00000000000E+00  0.00000000000E+00  0.16952246659E+03  0.16952246659E+03  0.00000000000E+00 0. -1.
          4   -1    0    0  502    0 -0.00000000000E+00 -0.00000000000E+00 -0.64125608789E+02  0.64138183655E+02  0.12700000000E+01 0.  1.
         25    2    1    2    0    0 -0.31481543763E+02  0.53318829471E+01  0.58948538207E+01  0.12915333821E+03  0.12500527547E+03 0.  0.
    9000005    1    3    3    0    0 -0.77556598732E+02 -0.13925192895E+02 -0.45066984130E+00  0.78804442181E+02  0.10000000000E+01 0.  0.
    9000005    1    3    3    0    0  0.46075054970E+02  0.19257075842E+02  0.63455236620E+01  0.50348896025E+02  0.10000000000E+01 0.  0.
          4    1    1    2  501    0  0.31481543763E+02 -0.53318829471E+01  0.99502003982E+02  0.10450731204E+03  0.12700000000E+01 0. -1.
<mgrwt>
<rscale>  1 0.12901874E+03</rscale>
<asrwt>0</asrwt>
<pdfrwt beam="1">  1       21 0.26080379E-01 0.12901874E+03</pdfrwt>
<pdfrwt beam="2">  1        4 0.98668116E-02 0.12901874E+03</pdfrwt>
<totfact> 0.43810368E+04</totfact>
</mgrwt>
</event>
<event>
 6    4  0.6326233E-003  0.1568260E+03  0.7818608E-02  0.1192328E+00
          4   -1    0    0  502    0 -0.00000000000E+00  0.00000000000E+00  0.29138215351E+03  0.29138492117E+03  0.12700000000E+01 0. -1.
         21   -1    0    0  501  502  0.00000000000E+00 -0.00000000000E+00 -0.56838741769E+02  0.56838741769E+02  0.00000000000E+00 0. -1.
         25    2    1    2    0    0  0.63437660464E+02  0.70321087973E+02  0.18073984165E+03  0.23929327584E+03  0.12499995729E+03 0.  0.
    9000005    1    3    3    0    0  0.11246640914E+02 -0.40357878383E+01 -0.17507647174E+02  0.21220090124E+02  0.10000000000E+01 0.  0.
    9000005    1    3    3    0    0  0.52191019550E+02  0.74356875812E+02  0.19824748882E+03  0.21807318571E+03  0.10000000000E+01 0.  0.
          4    1    1    2  501    0 -0.63437660464E+02 -0.70321087973E+02  0.53803570090E+02  0.10893038710E+03  0.12700000000E+01 0.  1.
<mgrwt>
<rscale>  1 0.15682596E+03</rscale>
<asrwt>0</asrwt>
<pdfrwt beam="2">  1       21 0.87444220E-02 0.15682596E+03</pdfrwt>
<pdfrwt beam="1">  1        4 0.44829327E-01 0.15682596E+03</pdfrwt>
<totfact> 0.20552921E+04</totfact>
</mgrwt>
</event>
<event>
 6    4  0.6326233E-003  0.1285834E+03  0.7818608E-02  0.1229573E+00
         21   -1    0    0  501  502  0.00000000000E+00  0.00000000000E+00  0.36388032977E+03  0.36388032977E+03  0.00000000000E+00 0.  1.
         -4   -1    0    0    0  501 -0.00000000000E+00 -0.00000000000E+00 -0.18049737935E+02  0.18094362093E+02  0.12700000000E+01 0.  1.
         25    2    1    2    0    0 -0.13635979446E+02  0.26884489634E+02  0.24452999933E+03  0.27627635384E+03  0.12499994961E+03 0.  0.
    9000005    1    3    3    0    0 -0.27577938212E+02  0.45726887965E+02  0.24697917095E+03  0.25268795350E+03  0.10000000000E+01 0.  0.
    9000005    1    3    3    0    0  0.13941958766E+02 -0.18842398331E+02 -0.24491716237E+01  0.23588400343E+02  0.10000000000E+01 0.  0.
         -4    1    1    2    0  502  0.13635979446E+02 -0.26884489634E+02  0.10130059251E+03  0.10569833802E+03  0.12700000000E+01 0. -1.
<mgrwt>
<rscale>  1 0.12858345E+03</rscale>
<asrwt>0</asrwt>
<pdfrwt beam="1">  1       21 0.55981584E-01 0.12858345E+03</pdfrwt>
<pdfrwt beam="2">  1       -4 0.27804861E-02 0.12858345E+03</pdfrwt>
<totfact> 0.73883561E+04</totfact>
</mgrwt>
</event>
<event>
 6    4  0.6326233E-003  0.1293062E+03  0.7818608E-02  0.1228489E+00
         21   -1    0    0  501  502  0.00000000000E+00  0.00000000000E+00  0.18274208934E+03  0.18274208934E+03  0.00000000000E+00 0. -1.
          4   -1    0    0  502    0 -0.00000000000E+00 -0.00000000000E+00 -0.43799969435E+02  0.43818377680E+02  0.12700000000E+01 0. -1.
         25    2    1    2    0    0  0.13180418864E+02  0.30360870377E+02  0.63267584680E+02  0.14395444985E+03  0.12499836186E+03 0.  0.
    9000005    1    3    3    0    0  0.30382549432E+02  0.56965199377E+02 -0.88557037062E+01  0.65173282395E+02  0.10000000000E+01 0.  0.
    9000005    1    3    3    0    0 -0.17202130568E+02 -0.26604329000E+02  0.72123288386E+02  0.78781167453E+02  0.10000000000E+01 0.  0.
          4    1    1    2  501    0 -0.13180418864E+02 -0.30360870377E+02  0.75674535230E+02  0.82606017176E+02  0.12700000000E+01 0.  1.
<mgrwt>
<rscale>  1 0.12930621E+03</rscale>
<asrwt>0</asrwt>
<pdfrwt beam="1">  1       21 0.28114167E-01 0.12930621E+03</pdfrwt>
<pdfrwt beam="2">  1        4 0.67402124E-02 0.12930621E+03</pdfrwt>
<totfact> 0.71428941E+04</totfact>
</mgrwt>
</event>
<event>
 6    4  0.6326233E-003  0.1316077E+03  0.7818608E-02  0.1225089E+00
         -4   -1    0    0    0  501 -0.00000000000E+00  0.00000000000E+00  0.63901224607E+03  0.63901350809E+03  0.12700000000E+01 0.  1.
         21   -1    0    0  501  502  0.00000000000E+00 -0.00000000000E+00 -0.22530303531E+02  0.22530303531E+02  0.00000000000E+00 0. -1.
         25    2    1    2    0    0  0.40292793026E+02 -0.84615571645E+01  0.60447809641E+03  0.61863912259E+03  0.12500195131E+03 0.  0.
    9000005    1    3    3    0    0  0.60341085515E+02 -0.18542236636E+02  0.13952785182E+03  0.15314660484E+03  0.10000000000E+01 0.  0.
    9000005    1    3    3    0    0 -0.20048292489E+02  0.10080679472E+02  0.46495024460E+03  0.46549251775E+03  0.10000000000E+01 0.  0.
         -4    1    1    2    0  502 -0.40292793026E+02  0.84615571645E+01  0.12003846123E+02  0.42904689035E+02  0.12700000000E+01 0. -1.
<mgrwt>
<rscale>  1 0.13160773E+03</rscale>
<asrwt>0</asrwt>
<pdfrwt beam="2">  1       21 0.34662010E-02 0.13160773E+03</pdfrwt>
<pdfrwt beam="1">  1       -4 0.98312413E-01 0.13160773E+03</pdfrwt>
<totfact> 0.17967664E+04</totfact>
</mgrwt>
</event>
<event>
 6    4  0.6326233E-003  0.1298170E+03  0.7818608E-02  0.1227727E+00
          4   -1    0    0  502    0 -0.00000000000E+00  0.00000000000E+00  0.10906535324E+03  0.10907274718E+03  0.12700000000E+01 0.  1.
         21   -1    0    0  501  502  0.00000000000E+00 -0.00000000000E+00 -0.88037636540E+02  0.88037636540E+02  0.00000000000E+00 0.  1.
         25    2    1    2    0    0 -0.22529981694E+01  0.35012841810E+02  0.61402429346E+02  0.14360612768E+03  0.12498594515E+03 0.  0.
    9000005    1    3    3    0    0 -0.81052549059E+01  0.58008132388E+02 -0.17555189132E+02  0.61154094268E+02  0.10000000000E+01 0.  0.
    9000005    1    3    3    0    0  0.58522567364E+01 -0.22995290578E+02  0.78957618478E+02  0.82452033410E+02  0.10000000000E+01 0.  0.
          4    1    1    2  501    0  0.22529981694E+01 -0.35012841810E+02 -0.40374712651E+02  0.53504256037E+02  0.12700000000E+01 0. -1.
<mgrwt>
<rscale>  1 0.12981703E+03</rscale>
<asrwt>0</asrwt>
<pdfrwt beam="2">  1       21 0.13544252E-01 0.12981703E+03</pdfrwt>
<pdfrwt beam="1">  1        4 0.16780558E-01 0.12981703E+03</pdfrwt>
<totfact> 0.58705634E+04</totfact>
</mgrwt>
</event>
<event>
 6    4  0.6326233E-003  0.1297900E+03  0.7818608E-02  0.1227768E+00
         -4   -1    0    0    0  501 -0.00000000000E+00  0.00000000000E+00  0.14037255210E+03  0.14037829705E+03  0.12700000000E+01 0.  1.
         21   -1    0    0  501  502  0.00000000000E+00 -0.00000000000E+00 -0.51331052061E+02  0.51331052061E+02  0.00000000000E+00 0.  1.
         25    2    1    2    0    0 -0.27625423380E+02  0.21379738876E+02  0.49440153178E+02  0.13888760336E+03  0.12500072147E+03 0.  0.
    9000005    1    3    3    0    0 -0.24109437159E+02  0.48512663851E+02 -0.24926658145E+02  0.59641275978E+02  0.10000000000E+01 0.  0.
    9000005    1    3    3    0    0 -0.35159862209E+01 -0.27132924975E+02  0.74366811323E+02  0.79246327380E+02  0.10000000000E+01 0.  0.
         -4    1    1    2    0  502  0.27625423380E+02 -0.21379738876E+02  0.39601346861E+02  0.52821745755E+02  0.12700000000E+01 0. -1.
<mgrwt>
<rscale>  1 0.12978998E+03</rscale>
<asrwt>0</asrwt>
<pdfrwt beam="2">  1       21 0.78970850E-02 0.12978998E+03</pdfrwt>
<pdfrwt beam="1">  1       -4 0.21597427E-01 0.12978998E+03</pdfrwt>
<totfact> 0.96321720E+04</totfact>
</mgrwt>
</event>
<event>
 6    4  0.6326233E-003  0.1267700E+03  0.7818608E-02  0.1232329E+00
         -4   -1    0    0    0  501 -0.00000000000E+00  0.00000000000E+00  0.13537237868E+03  0.13537833582E+03  0.12700000000E+01 0. -1.
         21   -1    0    0  501  502  0.00000000000E+00 -0.00000000000E+00 -0.46081279208E+02  0.46081279208E+02  0.00000000000E+00 0. -1.
         25    2    1    2    0    0 -0.52107934299E+01 -0.20433279922E+02  0.96303099191E+02  0.15920085637E+03  0.12500381778E+03 0.  0.
    9000005    1    3    3    0    0  0.36070974395E+02  0.32743874750E+02  0.73367002759E+02  0.88073796451E+02  0.10000000000E+01 0.  0.
    9000005    1    3    3    0    0 -0.41281767825E+02 -0.53177154672E+02  0.22936096432E+02  0.71127059923E+02  0.10000000000E+01 0.  0.
         -4    1    1    2    0  502  0.52107934299E+01  0.20433279922E+02 -0.70119997226E+01  0.22258758650E+02  0.12700000000E+01 0.  1.
<mgrwt>
<rscale>  1 0.12676997E+03</rscale>
<asrwt>0</asrwt>
<pdfrwt beam="2">  1       21 0.70894276E-02 0.12676997E+03</pdfrwt>
<pdfrwt beam="1">  1       -4 0.20828324E-01 0.12676997E+03</pdfrwt>
<totfact> 0.12335457E+05</totfact>
</mgrwt>
</event>
<event>
 6    4  0.6326233E-003  0.1277233E+03  0.7818608E-02  0.1230874E+00
         21   -1    0    0  501  502  0.00000000000E+00  0.00000000000E+00  0.18916250458E+02  0.18916250458E+02  0.00000000000E+00 0. -1.
          4   -1    0    0  502    0 -0.00000000000E+00 -0.00000000000E+00 -0.32534819671E+03  0.32535067543E+03  0.12700000000E+01 0. -1.
         25    2    1    2    0    0 -0.10850924732E+02 -0.23858332514E+02 -0.27575423032E+03  0.30389741075E+03  0.12500511238E+03 0.  0.
    9000005    1    3    3    0    0 -0.61122367576E+02  0.80572049541E+00 -0.82445904632E+02  0.10263975932E+03  0.10000000000E+01 0.  0.
    9000005    1    3    3    0    0  0.50271442844E+02 -0.24664053009E+02 -0.19330832568E+03  0.20125765142E+03  0.10000000000E+01 0.  0.
          4    1    1    2  501    0  0.10850924732E+02  0.23858332514E+02 -0.30677715936E+02  0.40369515144E+02  0.12700000000E+01 0.  1.
<mgrwt>
<rscale>  1 0.12772330E+03</rscale>
<asrwt>0</asrwt>
<pdfrwt beam="1">  1       21 0.29101925E-02 0.12772330E+03</pdfrwt>
<pdfrwt beam="2">  1        4 0.50057037E-01 0.12772330E+03</pdfrwt>
<totfact> 0.10248685E+05</totfact>
</mgrwt>
</event>
<event>
 6    4  0.6326233E-003  0.1277064E+03  0.7818608E-02  0.1230899E+00
         21   -1    0    0  501  502  0.00000000000E+00  0.00000000000E+00  0.13547082327E+03  0.13547082327E+03  0.00000000000E+00 0.  1.
         -4   -1    0    0    0  501 -0.00000000000E+00 -0.00000000000E+00 -0.47376025731E+02  0.47393044996E+02  0.12700000000E+01 0. -1.
         25    2    1    2    0    0 -0.13454754906E+02  0.22433267619E+02  0.51129877965E+02  0.13756154929E+03  0.12499853398E+03 0.  0.
    9000005    1    3    3    0    0 -0.49953357148E+02 -0.23290920335E+02  0.56332274179E+02  0.78817066519E+02  0.10000000000E+01 0.  0.
    9000005    1    3    3    0    0  0.36498602242E+02  0.45724187954E+02 -0.52023962138E+01  0.58744482771E+02  0.10000000000E+01 0.  0.
         -4    1    1    2    0  502  0.13454754906E+02 -0.22433267619E+02  0.36964919578E+02  0.45302318981E+02  0.12700000000E+01 0.  1.
<mgrwt>
<rscale>  1 0.12770636E+03</rscale>
<asrwt>0</asrwt>
<pdfrwt beam="1">  1       21 0.20841665E-01 0.12770636E+03</pdfrwt>
<pdfrwt beam="2">  1       -4 0.72903865E-02 0.12770636E+03</pdfrwt>
<totfact> 0.11019718E+05</totfact>
</mgrwt>
</event>
<event>
 6    4  0.6326233E-003  0.1300041E+03  0.7818608E-02  0.1227450E+00
         21   -1    0    0  501  502  0.00000000000E+00  0.00000000000E+00  0.12617416943E+03  0.12617416943E+03  0.00000000000E+00 0.  1.
          4   -1    0    0  502    0 -0.00000000000E+00 -0.00000000000E+00 -0.88846448210E+02  0.88855524642E+02  0.12700000000E+01 0. -1.
         25    2    1    2    0    0  0.22187256369E+02 -0.28004186476E+02 -0.34753873009E+02  0.13456928187E+03  0.12499820450E+03 0.  0.
    9000005    1    3    3    0    0 -0.21760012448E+02  0.36693540960E+02 -0.36763702710E+02  0.56324807384E+02  0.10000000000E+01 0.  0.
    9000005    1    3    3    0    0  0.43947268816E+02 -0.64697727436E+02  0.20098297006E+01  0.78244474484E+02  0.10000000000E+01 0.  0.
          4    1    1    2  501    0 -0.22187256369E+02  0.28004186476E+02  0.72081594229E+02  0.80460412203E+02  0.12700000000E+01 0.  1.
<mgrwt>
<rscale>  1 0.13000408E+03</rscale>
<asrwt>0</asrwt>
<pdfrwt beam="1">  1       21 0.19411411E-01 0.13000408E+03</pdfrwt>
<pdfrwt beam="2">  1        4 0.13669874E-01 0.13000408E+03</pdfrwt>
<totfact> 0.43705716E+04</totfact>
</mgrwt>
</event>
<event>
 6    4  0.6326233E-003  0.1278140E+03  0.7818608E-02  0.1230736E+00
         21   -1    0    0  501  502  0.00000000000E+00  0.00000000000E+00  0.22402251320E+02  0.22402251320E+02  0.00000000000E+00 0. -1.
         -4   -1    0    0    0  501 -0.00000000000E+00 -0.00000000000E+00 -0.33383110815E+03  0.33383352388E+03  0.12700000000E+01 0. -1.
         25    2    1    2    0    0 -0.23805227461E+02 -0.12019560112E+02 -0.17209266079E+03  0.21436489339E+03  0.12500105976E+03 0.  0.
    9000005    1    3    3    0    0  0.38338054503E+02  0.29004396747E+02 -0.39236881006E+02  0.62061214013E+02  0.10000000000E+01 0.  0.
    9000005    1    3    3    0    0 -0.62143281964E+02 -0.41023956859E+02 -0.13285577978E+03  0.15230367937E+03  0.10000000000E+01 0.  0.
         -4    1    1    2    0  502  0.23805227461E+02  0.12019560112E+02 -0.13933619604E+03  0.14187088181E+03  0.12700000000E+01 0.  1.
<mgrwt>
<rscale>  1 0.12781402E+03</rscale>
<asrwt>0</asrwt>
<pdfrwt beam="1">  1       21 0.34465004E-02 0.12781402E+03</pdfrwt>
<pdfrwt beam="2">  1       -4 0.51361583E-01 0.12781402E+03</pdfrwt>
<totfact> 0.73654155E+04</totfact>
</mgrwt>
</event>
<event>
 6    4  0.6326233E-003  0.1508699E+03  0.7818608E-02  0.1199408E+00
         21   -1    0    0  501  502  0.00000000000E+00  0.00000000000E+00  0.60114454989E+02  0.60114454989E+02  0.00000000000E+00 0.  1.
         -4   -1    0    0    0  501 -0.00000000000E+00 -0.00000000000E+00 -0.43201161846E+03  0.43201348519E+03  0.12700000000E+01 0. -1.
         25    2    1    2    0    0 -0.28798640012E+02  0.79428586020E+02 -0.37841271230E+03  0.40737932827E+03  0.12499389716E+03 0.  0.
    9000005    1    3    3    0    0 -0.77570661515E+02  0.60044061765E+02 -0.25807672816E+03  0.27609254698E+03  0.10000000000E+01 0.  0.
    9000005    1    3    3    0    0  0.48772021503E+02  0.19384524255E+02 -0.12033598414E+03  0.13128678129E+03  0.10000000000E+01 0.  0.
         -4    1    1    2    0  502  0.28798640012E+02 -0.79428586020E+02  0.65155488282E+01  0.84748611907E+02  0.12700000000E+01 0.  1.
<mgrwt>
<rscale>  1 0.15086993E+03</rscale>
<asrwt>0</asrwt>
<pdfrwt beam="1">  1       21 0.92483773E-02 0.15086993E+03</pdfrwt>
<pdfrwt beam="2">  1       -4 0.66464504E-01 0.15086993E+03</pdfrwt>
<totfact> 0.82097841E+03</totfact>
</mgrwt>
</event>
<event>
 6    4  0.6326233E-003  0.1267989E+03  0.7818608E-02  0.1232284E+00
         -4   -1    0    0    0  501 -0.00000000000E+00  0.00000000000E+00  0.25551743475E+02  0.25583285453E+02  0.12700000000E+01 0. -1.
         21   -1    0    0  501  502  0.00000000000E+00 -0.00000000000E+00 -0.34848501047E+03  0.34848501047E+03  0.00000000000E+00 0.  1.
         25    2    1    2    0    0  0.11281964227E+02 -0.18075374825E+02 -0.13607786896E+03  0.18599768534E+03  0.12499580248E+03 0.  0.
    9000005    1    3    3    0    0 -0.75592207384E+01 -0.11183430456E+02  0.22443245655E+02  0.26208971946E+02  0.10000000000E+01 0.  0.
    9000005    1    3    3    0    0  0.18841184965E+02 -0.68919443695E+01 -0.15852111462E+03  0.15978871339E+03  0.10000000000E+01 0.  0.
         -4    1    1    2    0  502 -0.11281964227E+02  0.18075374825E+02 -0.18685539803E+03  0.18807061058E+03  0.12700000000E+01 0.  1.
<mgrwt>
<rscale>  1 0.12679887E+03</rscale>
<asrwt>0</asrwt>
<pdfrwt beam="2">  1       21 0.53613077E-01 0.12679887E+03</pdfrwt>
<pdfrwt beam="1">  1       -4 0.39336419E-02 0.12679887E+03</pdfrwt>
<totfact> 0.46806326E+04</totfact>
</mgrwt>
</event>
<event>
 6    4  0.6326233E-003  0.1276484E+03  0.7818608E-02  0.1230987E+00
         21   -1    0    0  501  502  0.00000000000E+00  0.00000000000E+00  0.11465791875E+02  0.11465791875E+02  0.00000000000E+00 0.  1.
         -4   -1    0    0    0  501 -0.00000000000E+00 -0.00000000000E+00 -0.68345525641E+03  0.68345643637E+03  0.12700000000E+01 0.  1.
         25    2    1    2    0    0  0.17671438199E+02  0.18924659076E+02 -0.64496010450E+03  0.65747063745E+03  0.12499472094E+03 0.  0.
    9000005    1    3    3    0    0  0.52845387073E+02  0.32748298256E+02 -0.57131355315E+03  0.57468709920E+03  0.10000000000E+01 0.  0.
    9000005    1    3    3    0    0 -0.35173948874E+02 -0.13823639180E+02 -0.73646551350E+02  0.82783538250E+02  0.10000000000E+01 0.  0.
         -4    1    1    2    0  502 -0.17671438199E+02 -0.18924659076E+02 -0.27029360037E+02  0.37451590796E+02  0.12700000000E+01 0. -1.
<mgrwt>
<rscale>  1 0.12764836E+03</rscale>
<asrwt>0</asrwt>
<pdfrwt beam="1">  1       21 0.17639679E-02 0.12764836E+03</pdfrwt>
<pdfrwt beam="2">  1       -4 0.10515247E+00 0.12764836E+03</pdfrwt>
<totfact> 0.45977556E+04</totfact>
</mgrwt>
</event>
<event>
 6    4  0.6326233E-003  0.1502841E+03  0.7818608E-02  0.1200124E+00
          4   -1    0    0  502    0 -0.00000000000E+00  0.00000000000E+00  0.74974527570E+02  0.74985283118E+02  0.12700000000E+01 0. -1.
         21   -1    0    0  501  502  0.00000000000E+00 -0.00000000000E+00 -0.35772757081E+03  0.35772757081E+03  0.00000000000E+00 0.  1.
         25    2    1    2    0    0 -0.83253190241E+02 -0.53773083683E+01 -0.13570261412E+02  0.15089555130E+03  0.12500122510E+03 0.  0.
    9000005    1    3    3    0    0 -0.15338317598E+02  0.30999898741E+02  0.43084120866E+02  0.55258476087E+02  0.10000000000E+01 0.  0.
    9000005    1    3    3    0    0 -0.67914872642E+02 -0.36377207109E+02 -0.56654382278E+02  0.95637075208E+02  0.10000000000E+01 0.  0.
          4    1    1    2  501    0  0.83253190241E+02  0.53773083683E+01 -0.26918278183E+03  0.28181730263E+03  0.12700000000E+01 0.  1.
<mgrwt>
<rscale>  1 0.15028412E+03</rscale>
<asrwt>0</asrwt>
<pdfrwt beam="2">  1       21 0.55035012E-01 0.15028412E+03</pdfrwt>
<pdfrwt beam="1">  1        4 0.11535543E-01 0.15028412E+03</pdfrwt>
<totfact> 0.76931124E+03</totfact>
</mgrwt>
</event>
<event>
 6    4  0.6326233E-003  0.1348872E+03  0.7818608E-02  0.1220379E+00
         21   -1    0    0  501  502  0.00000000000E+00  0.00000000000E+00  0.39496621987E+02  0.39496621987E+02  0.00000000000E+00 0. -1.
         -4   -1    0    0    0  501 -0.00000000000E+00 -0.00000000000E+00 -0.24129158251E+03  0.24129492471E+03  0.12700000000E+01 0. -1.
         25    2    1    2    0    0  0.30645412370E+02  0.40381484504E+02 -0.18158661319E+03  0.22620404088E+03  0.12499905771E+03 0.  0.
    9000005    1    3    3    0    0 -0.26917268184E+02  0.62719260188E+02 -0.64915454314E+02  0.94197989011E+02  0.10000000000E+01 0.  0.
    9000005    1    3    3    0    0  0.57562680553E+02 -0.22337775684E+02 -0.11667115888E+03  0.13200605186E+03  0.10000000000E+01 0.  0.
         -4    1    1    2    0  502 -0.30645412370E+02 -0.40381484504E+02 -0.20208347337E+02  0.54587505824E+02  0.12700000000E+01 0.  1.
<mgrwt>
<rscale>  1 0.13488725E+03</rscale>
<asrwt>0</asrwt>
<pdfrwt beam="1">  1       21 0.60764033E-02 0.13488725E+03</pdfrwt>
<pdfrwt beam="2">  1       -4 0.37123610E-01 0.13488725E+03</pdfrwt>
<totfact> 0.54871140E+04</totfact>
</mgrwt>
</event>
<event>
 6    4  0.6326233E-003  0.1295712E+03  0.7818608E-02  0.1228093E+00
         -4   -1    0    0    0  501 -0.00000000000E+00  0.00000000000E+00  0.24377754770E+03  0.24378085582E+03  0.12700000000E+01 0.  1.
         21   -1    0    0  501  502  0.00000000000E+00 -0.00000000000E+00 -0.63284133630E+02  0.63284133630E+02  0.00000000000E+00 0. -1.
         25    2    1    2    0    0 -0.29888292254E+02  0.16662239056E+02  0.21966767042E+03  0.25503446491E+03  0.12497100720E+03 0.  0.
    9000005    1    3    3    0    0 -0.58466162974E+02 -0.10910323225E+01  0.21278982162E+03  0.22068074395E+03  0.10000000000E+01 0.  0.
    9000005    1    3    3    0    0  0.28577870720E+02  0.17753271379E+02  0.68778487929E+01  0.34353720956E+02  0.10000000000E+01 0.  0.
         -4    1    1    2    0  502  0.29888292254E+02 -0.16662239056E+02 -0.39174256342E+02  0.52030524543E+02  0.12700000000E+01 0. -1.
<mgrwt>
<rscale>  1 0.12957119E+03</rscale>
<asrwt>0</asrwt>
<pdfrwt beam="2">  1       21 0.97360207E-02 0.12957119E+03</pdfrwt>
<pdfrwt beam="1">  1       -4 0.37505472E-01 0.12957119E+03</pdfrwt>
<totfact> 0.23775268E+04</totfact>
</mgrwt>
</event>
<event>
 6    4  0.6326233E-003  0.1422123E+03  0.7818608E-02  0.1210383E+00
         -4   -1    0    0    0  501 -0.00000000000E+00  0.00000000000E+00  0.10854518182E+04  0.10854525612E+04  0.12700000000E+01 0.  1.
         21   -1    0    0  501  502  0.00000000000E+00 -0.00000000000E+00 -0.26414750365E+02  0.26414750365E+02  0.00000000000E+00 0. -1.
         25    2    1    2    0    0 -0.14790089782E+01  0.67802099851E+02  0.10270929535E+04  0.10368916384E+04  0.12500009045E+03 0.  0.
    9000005    1    3    3    0    0 -0.41803463541E+02  0.80858983486E+02  0.84688633794E+03  0.85176474109E+03  0.10000000000E+01 0.  0.
    9000005    1    3    3    0    0  0.40324454563E+02 -0.13056883635E+02  0.18020661552E+03  0.18512689735E+03  0.10000000000E+01 0.  0.
         -4    1    1    2    0  502  0.14790089782E+01 -0.67802099851E+02  0.31944114380E+02  0.74975673090E+02  0.12700000000E+01 0. -1.
<mgrwt>
<rscale>  1 0.14221229E+03</rscale>
<asrwt>0</asrwt>
<pdfrwt beam="2">  1       21 0.40638086E-02 0.14221229E+03</pdfrwt>
<pdfrwt beam="1">  1       -4 0.16699496E+00 0.14221229E+03</pdfrwt>
<totfact> 0.37883792E+03</totfact>
</mgrwt>
</event>
<event>
 6    4  0.6326233E-003  0.1305032E+03  0.7818608E-02  0.1226711E+00
         21   -1    0    0  501  502  0.00000000000E+00  0.00000000000E+00  0.36559030900E+02  0.36559030900E+02  0.00000000000E+00 0. -1.
         -4   -1    0    0    0  501 -0.00000000000E+00 -0.00000000000E+00 -0.19370946970E+03  0.19371363285E+03  0.12700000000E+01 0. -1.
         25    2    1    2    0    0 -0.21376122896E+02  0.30862323115E+02 -0.12708783010E+03  0.18216034765E+03  0.12498661560E+03 0.  0.
    9000005    1    3    3    0    0 -0.47062535177E+02  0.65923576799E+02 -0.54778938436E+02  0.97788201187E+02  0.10000000000E+01 0.  0.
    9000005    1    3    3    0    0  0.25686412281E+02 -0.35061253683E+02 -0.72308891665E+02  0.84372146468E+02  0.10000000000E+01 0.  0.
         -4    1    1    2    0  502  0.21376122896E+02 -0.30862323115E+02 -0.30062608697E+02  0.48112316093E+02  0.12700000000E+01 0.  1.
<mgrwt>
<rscale>  1 0.13050316E+03</rscale>
<asrwt>0</asrwt>
<pdfrwt beam="1">  1       21 0.56244663E-02 0.13050316E+03</pdfrwt>
<pdfrwt beam="2">  1       -4 0.29803474E-01 0.13050316E+03</pdfrwt>
<totfact> 0.94844338E+04</totfact>
</mgrwt>
</event>
<event>
 6    4  0.6326233E-003  0.1265852E+03  0.7818608E-02  0.1232613E+00
         21   -1    0    0  501  502  0.00000000000E+00  0.00000000000E+00  0.29859450966E+02  0.29859450966E+02  0.00000000000E+00 0. -1.
         -4   -1    0    0    0  501 -0.00000000000E+00 -0.00000000000E+00 -0.28962552498E+03  0.28962830943E+03  0.12700000000E+01 0.  1.
         25    2    1    2    0    0  0.17969137553E+02 -0.88264651002E+01 -0.26908198441E+03  0.29736999656E+03  0.12499201625E+03 0.  0.
    9000005    1    3    3    0    0 -0.16960652457E+02 -0.27063884756E+01  0.73227791444E+01  0.18697897335E+02  0.10000000000E+01 0.  0.
    9000005    1    3    3    0    0  0.34929790010E+02 -0.61200766246E+01 -0.27640476356E+03  0.27867209922E+03  0.10000000000E+01 0.  0.
         -4    1    1    2    0  502 -0.17969137553E+02  0.88264651002E+01  0.93159103966E+01  0.22117763836E+02  0.12700000000E+01 0. -1.
<mgrwt>
<rscale>  1 0.12658515E+03</rscale>
<asrwt>0</asrwt>
<pdfrwt beam="1">  1       21 0.45937614E-02 0.12658515E+03</pdfrwt>
<pdfrwt beam="2">  1       -4 0.44560068E-01 0.12658515E+03</pdfrwt>
<totfact> 0.60818314E+04</totfact>
</mgrwt>
</event>
<event>
 6    4  0.6326233E-003  0.1285322E+03  0.7818608E-02  0.1229650E+00
          4   -1    0    0  502    0 -0.00000000000E+00  0.00000000000E+00  0.13705506713E+03  0.13706095113E+03  0.12700000000E+01 0. -1.
         21   -1    0    0  501  502  0.00000000000E+00 -0.00000000000E+00 -0.10522218152E+03  0.10522218152E+03  0.00000000000E+00 0.  1.
         25    2    1    2    0    0  0.72351121080E+01 -0.29038828599E+02  0.10323187078E+03  0.16485556394E+03  0.12499974961E+03 0.  0.
    9000005    1    3    3    0    0 -0.35560146351E+02 -0.64017821182E+02  0.57645090663E+02  0.93202799931E+02  0.10000000000E+01 0.  0.
    9000005    1    3    3    0    0  0.42795258459E+02  0.34978992583E+02  0.45586780117E+02  0.71652764009E+02  0.10000000000E+01 0.  0.
          4    1    1    2  501    0 -0.72351121080E+01  0.29038828599E+02 -0.71398985169E+02  0.77427568712E+02  0.12700000000E+01 0.  1.
<mgrwt>
<rscale>  1 0.12853224E+03</rscale>
<asrwt>0</asrwt>
<pdfrwt beam="2">  1       21 0.16188028E-01 0.12853224E+03</pdfrwt>
<pdfrwt beam="1">  1        4 0.21086437E-01 0.12853224E+03</pdfrwt>
<totfact> 0.28287979E+04</totfact>
</mgrwt>
</event>
<event>
 6    4  0.6326233E-003  0.1302967E+03  0.7818608E-02  0.1227016E+00
         21   -1    0    0  501  502  0.00000000000E+00  0.00000000000E+00  0.31306278485E+03  0.31306278485E+03  0.00000000000E+00 0.  1.
          4   -1    0    0  502    0 -0.00000000000E+00 -0.00000000000E+00 -0.31874419250E+02  0.31899710070E+02  0.12700000000E+01 0. -1.
         25    2    1    2    0    0 -0.10103261782E+02  0.35359623018E+02  0.11199538871E+03  0.17181442197E+03  0.12499939866E+03 0.  0.
    9000005    1    3    3    0    0 -0.18590271394E+01  0.68652293335E+02  0.11842758428E+03  0.13690393011E+03  0.10000000000E+01 0.  0.
    9000005    1    3    3    0    0 -0.82442346424E+01 -0.33292670318E+02 -0.64321955680E+01  0.34910491855E+02  0.10000000000E+01 0.  0.
          4    1    1    2  501    0  0.10103261782E+02 -0.35359623018E+02  0.16919297688E+03  0.17314807295E+03  0.12700000000E+01 0.  1.
<mgrwt>
<rscale>  1 0.13029669E+03</rscale>
<asrwt>0</asrwt>
<pdfrwt beam="1">  1       21 0.48163503E-01 0.13029669E+03</pdfrwt>
<pdfrwt beam="2">  1        4 0.49059006E-02 0.13029669E+03</pdfrwt>
<totfact> 0.41200062E+04</totfact>
</mgrwt>
</event>
<event>
 6    4  0.6326233E-003  0.1327128E+03  0.7818608E-02  0.1223485E+00
         21   -1    0    0  501  502  0.00000000000E+00  0.00000000000E+00  0.26737117737E+02  0.26737117737E+02  0.00000000000E+00 0.  1.
         -4   -1    0    0    0  501 -0.00000000000E+00 -0.00000000000E+00 -0.40850738740E+03  0.40850936153E+03  0.12700000000E+01 0. -1.
         25    2    1    2    0    0  0.17701011958E+02 -0.40906305189E+02 -0.36365974665E+03  0.38711898637E+03  0.12500418654E+03 0.  0.
    9000005    1    3    3    0    0  0.38084089930E+02  0.35987385353E+02 -0.16496038517E+03  0.17308500364E+03  0.10000000000E+01 0.  0.
    9000005    1    3    3    0    0 -0.20383077972E+02 -0.76893690543E+02 -0.19869936148E+03  0.21403398273E+03  0.10000000000E+01 0.  0.
         -4    1    1    2    0  502 -0.17701011958E+02  0.40906305189E+02 -0.18110523016E+02  0.48127492897E+02  0.12700000000E+01 0.  1.
<mgrwt>
<rscale>  1 0.13271284E+03</rscale>
<asrwt>0</asrwt>
<pdfrwt beam="1">  1       21 0.41134027E-02 0.13271284E+03</pdfrwt>
<pdfrwt beam="2">  1       -4 0.62849762E-01 0.13271284E+03</pdfrwt>
<totfact> 0.36296319E+04</totfact>
</mgrwt>
</event>
<event>
 6    4  0.6326233E-003  0.1266028E+03  0.7818608E-02  0.1232585E+00
         21   -1    0    0  501  502  0.00000000000E+00  0.00000000000E+00  0.59823782925E+03  0.59823782925E+03  0.00000000000E+00 0. -1.
          4   -1    0    0  502    0 -0.00000000000E+00 -0.00000000000E+00 -0.44714995071E+02  0.44733026772E+02  0.12700000000E+01 0.  1.
         25    2    1    2    0    0  0.42997337878E+01 -0.19623344472E+02  0.45471761569E+02  0.13452118434E+03  0.12499881830E+03 0.  0.
    9000005    1    3    3    0    0  0.53569388951E+02 -0.15786375069E+02 -0.13609348938E+02  0.57490029126E+02  0.10000000000E+01 0.  0.
    9000005    1    3    3    0    0 -0.49269655163E+02 -0.38369694033E+01  0.59081110507E+02  0.77031155209E+02  0.10000000000E+01 0.  0.
          4    1    1    2  501    0 -0.42997337878E+01  0.19623344472E+02  0.50805107261E+03  0.50844967169E+03  0.12700000000E+01 0. -1.
<mgrwt>
<rscale>  1 0.12660280E+03</rscale>
<asrwt>0</asrwt>
<pdfrwt beam="1">  1       21 0.92036583E-01 0.12660280E+03</pdfrwt>
<pdfrwt beam="2">  1        4 0.68807212E-02 0.12660280E+03</pdfrwt>
<totfact> 0.58465041E+03</totfact>
</mgrwt>
</event>
<event>
 6    4  0.6326233E-003  0.1570930E+03  0.7818608E-02  0.1192018E+00
         -4   -1    0    0    0  501 -0.00000000000E+00  0.00000000000E+00  0.20422180827E+02  0.20461631648E+02  0.12700000000E+01 0.  1.
         21   -1    0    0  501  502  0.00000000000E+00 -0.00000000000E+00 -0.10727354952E+04  0.10727354952E+04  0.00000000000E+00 0. -1.
         25    2    1    2    0    0 -0.37809403308E+02 -0.87311711593E+02 -0.33977351233E+03  0.37433172335E+03  0.12500125384E+03 0.  0.
    9000005    1    3    3    0    0  0.36319593489E+02 -0.72811185994E+02 -0.16725292994E+03  0.18599764582E+03  0.10000000000E+01 0.  0.
    9000005    1    3    3    0    0 -0.74128996797E+02 -0.14500525599E+02 -0.17252058239E+03  0.18833407752E+03  0.10000000000E+01 0.  0.
         -4    1    1    2    0  502  0.37809403308E+02  0.87311711593E+02 -0.71253980206E+03  0.71886540352E+03  0.12700000000E+01 0. -1.
<mgrwt>
<rscale>  1 0.15709296E+03</rscale>
<asrwt>0</asrwt>
<pdfrwt beam="2">  1       21 0.16503624E+00 0.15709296E+03</pdfrwt>
<pdfrwt beam="1">  1       -4 0.31449663E-02 0.15709296E+03</pdfrwt>
<totfact> 0.48766750E+03</totfact>
</mgrwt>
</event>
<event>
 6    4  0.6326233E-003  0.1325104E+03  0.7818608E-02  0.1223778E+00
         21   -1    0    0  501  502  0.00000000000E+00  0.00000000000E+00  0.10406566488E+03  0.10406566488E+03  0.00000000000E+00 0.  1.
         -4   -1    0    0    0  501 -0.00000000000E+00 -0.00000000000E+00 -0.12461323821E+03  0.12461970966E+03  0.12700000000E+01 0. -1.
         25    2    1    2    0    0  0.43657583075E+02  0.51986363107E+01 -0.79957777192E+02  0.15476517702E+03  0.12500401395E+03 0.  0.
    9000005    1    3    3    0    0  0.25157650209E+02 -0.37360285260E+02  0.16292137520E+02  0.47907536190E+02  0.10000000000E+01 0.  0.
    9000005    1    3    3    0    0  0.18499932865E+02  0.42558921571E+02 -0.96249914712E+02  0.10685764083E+03  0.10000000000E+01 0.  0.
         -4    1    1    2    0  502 -0.43657583075E+02 -0.51986363107E+01  0.59410203867E+02  0.73920197531E+02  0.12700000000E+01 0.  1.
<mgrwt>
<rscale>  1 0.13251043E+03</rscale>
<asrwt>0</asrwt>
<pdfrwt beam="1">  1       21 0.16010102E-01 0.13251043E+03</pdfrwt>
<pdfrwt beam="2">  1       -4 0.19172361E-01 0.13251043E+03</pdfrwt>
<totfact> 0.34367698E+04</totfact>
</mgrwt>
</event>
<event>
 6    4  0.6326233E-003  0.1272341E+03  0.7818608E-02  0.1231619E+00
         21   -1    0    0  501  502  0.00000000000E+00  0.00000000000E+00  0.18637147841E+03  0.18637147841E+03  0.00000000000E+00 0.  1.
          4   -1    0    0  502    0 -0.00000000000E+00 -0.00000000000E+00 -0.36099415933E+02  0.36121748722E+02  0.12700000000E+01 0. -1.
         25    2    1    2    0    0  0.69937283469E+01 -0.22682515883E+02  0.15251371227E+03  0.19861757726E+03  0.12500040322E+03 0.  0.
    9000005    1    3    3    0    0  0.39256304357E+02 -0.48194958321E+02  0.29319377037E+02  0.68734542329E+02  0.10000000000E+01 0.  0.
    9000005    1    3    3    0    0 -0.32262576010E+02  0.25512442437E+02  0.12319433524E+03  0.12988303494E+03  0.10000000000E+01 0.  0.
          4    1    1    2  501    0 -0.69937283469E+01  0.22682515883E+02 -0.22416497923E+01  0.23875649871E+02  0.12700000000E+01 0.  1.
<mgrwt>
<rscale>  1 0.12723407E+03</rscale>
<asrwt>0</asrwt>
<pdfrwt beam="1">  1       21 0.28672535E-01 0.12723407E+03</pdfrwt>
<pdfrwt beam="2">  1        4 0.55558071E-02 0.12723407E+03</pdfrwt>
<totfact> 0.93974785E+04</totfact>
</mgrwt>
</event>
<event>
 6    4  0.6326233E-003  0.1282901E+03  0.7818608E-02  0.1230015E+00
         -4   -1    0    0    0  501 -0.00000000000E+00  0.00000000000E+00  0.13953966355E+02  0.14011640769E+02  0.12700000000E+01 0.  1.
         21   -1    0    0  501  502  0.00000000000E+00 -0.00000000000E+00 -0.47057943150E+03  0.47057943150E+03  0.00000000000E+00 0.  1.
         25    2    1    2    0    0 -0.44573155701E+01 -0.28517643694E+02 -0.41127293786E+03  0.43081758163E+03  0.12500094226E+03 0.  0.
    9000005    1    3    3    0    0 -0.29805367460E+00  0.35119388843E+02 -0.30394239491E+03  0.30596640294E+03  0.10000000000E+01 0.  0.
    9000005    1    3    3    0    0 -0.41592618955E+01 -0.63637032536E+02 -0.10733054295E+03  0.12485117869E+03  0.10000000000E+01 0.  0.
         -4    1    1    2    0  502  0.44573155701E+01  0.28517643694E+02 -0.45352527286E+02  0.53773490635E+02  0.12700000000E+01 0. -1.
<mgrwt>
<rscale>  1 0.12829014E+03</rscale>
<asrwt>0</asrwt>
<pdfrwt beam="2">  1       21 0.72396831E-01 0.12829014E+03</pdfrwt>
<pdfrwt beam="1">  1       -4 0.21513325E-02 0.12829014E+03</pdfrwt>
<totfact> 0.63340090E+04</totfact>
</mgrwt>
</event>
<event>
 6    4  0.6326233E-003  0.1278842E+03  0.7818608E-02  0.1230629E+00
          4   -1    0    0  502    0 -0.00000000000E+00  0.00000000000E+00  0.50987960885E+02  0.51003774911E+02  0.12700000000E+01 0.  1.
         21   -1    0    0  501  502  0.00000000000E+00 -0.00000000000E+00 -0.27173401608E+03  0.27173401608E+03  0.00000000000E+00 0. -1.
         25    2    1    2    0    0  0.14807223341E+02 -0.22590526559E+02 -0.31682571535E+02  0.13175035814E+03  0.12499914311E+03 0.  0.
    9000005    1    3    3    0    0 -0.54903593818E+02 -0.33361214379E+01 -0.77010892830E+01  0.55550347402E+02  0.10000000000E+01 0.  0.
    9000005    1    3    3    0    0  0.69710817158E+02 -0.19254405121E+02 -0.23981482252E+02  0.76200010738E+02  0.10000000000E+01 0.  0.
          4    1    1    2  501    0 -0.14807223341E+02  0.22590526559E+02 -0.18906348366E+03  0.19098743285E+03  0.12700000000E+01 0. -1.
<mgrwt>
<rscale>  1 0.12788421E+03</rscale>
<asrwt>0</asrwt>
<pdfrwt beam="2">  1       21 0.41805234E-01 0.12788421E+03</pdfrwt>
<pdfrwt beam="1">  1        4 0.78457463E-02 0.12788421E+03</pdfrwt>
<totfact> 0.25532984E+04</totfact>
</mgrwt>
</event>
<event>
 6    4  0.6326233E-003  0.1355888E+03  0.7818608E-02  0.1219391E+00
         -4   -1    0    0    0  501 -0.00000000000E+00  0.00000000000E+00  0.19183577990E+03  0.19183998371E+03  0.12700000000E+01 0.  1.
         21   -1    0    0  501  502  0.00000000000E+00 -0.00000000000E+00 -0.52191994179E+02  0.52191994179E+02  0.00000000000E+00 0.  1.
         25    2    1    2    0    0  0.50196317796E+02 -0.15499637751E+02  0.13490497171E+03  0.19126855923E+03  0.12499760505E+03 0.  0.
    9000005    1    3    3    0    0  0.35182239665E+02 -0.65110093906E+02  0.11279034265E+03  0.13490654436E+03  0.10000000000E+01 0.  0.
    9000005    1    3    3    0    0  0.15014078131E+02  0.49610456155E+02  0.22114629061E+02  0.56362014873E+02  0.10000000000E+01 0.  0.
         -4    1    1    2    0  502 -0.50196317796E+02  0.15499637751E+02  0.47388140192E+01  0.52763418663E+02  0.12700000000E+01 0. -1.
<mgrwt>
<rscale>  1 0.13558875E+03</rscale>
<asrwt>0</asrwt>
<pdfrwt beam="2">  1       21 0.80295377E-02 0.13558875E+03</pdfrwt>
<pdfrwt beam="1">  1       -4 0.29514708E-01 0.13558875E+03</pdfrwt>
<totfact> 0.52857672E+04</totfact>
</mgrwt>
</event>
<event>
 6    4  0.6326233E-003  0.1273304E+03  0.7818608E-02  0.1231472E+00
          4   -1    0    0  502    0 -0.00000000000E+00  0.00000000000E+00  0.24603859297E+03  0.24604187068E+03  0.12700000000E+01 0. -1.
         21   -1    0    0  501  502  0.00000000000E+00 -0.00000000000E+00 -0.24868085791E+02  0.24868085791E+02  0.00000000000E+00 0. -1.
         25    2    1    2    0    0 -0.22247251951E+02 -0.96500354739E+01  0.20631334509E+03  0.24244222792E+03  0.12499989644E+03 0.  0.
    9000005    1    3    3    0    0  0.26176535880E+02 -0.53078976574E+02  0.12502062274E+03  0.13832478048E+03  0.10000000000E+01 0.  0.
    9000005    1    3    3    0    0 -0.48423787831E+02  0.43428941100E+02  0.81292722352E+02  0.10411744744E+03  0.10000000000E+01 0.  0.
          4    1    1    2  501    0  0.22247251951E+02  0.96500354739E+01  0.14857162081E+02  0.28467728556E+02  0.12700000000E+01 0.  1.
<mgrwt>
<rscale>  1 0.12733043E+03</rscale>
<asrwt>0</asrwt>
<pdfrwt beam="2">  1       21 0.38258595E-02 0.12733043E+03</pdfrwt>
<pdfrwt beam="1">  1        4 0.37854836E-01 0.12733043E+03</pdfrwt>
<totfact> 0.11385380E+05</totfact>
</mgrwt>
</event>
<event>
 6    4  0.6326233E-003  0.1370092E+03  0.7818608E-02  0.1217411E+00
          4   -1    0    0  502    0 -0.00000000000E+00  0.00000000000E+00  0.13276103650E+03  0.13276711080E+03  0.12700000000E+01 0.  1.
         21   -1    0    0  501  502  0.00000000000E+00 -0.00000000000E+00 -0.71704363005E+02  0.71704363005E+02  0.00000000000E+00 0. -1.
         25    2    1    2    0    0 -0.31801742317E+02 -0.46209432031E+02  0.56418072673E+02  0.14817056848E+03  0.12499942407E+03 0.  0.
    9000005    1    3    3    0    0 -0.27017572326E+01 -0.75753363639E+02  0.71330335971E+02  0.10409077012E+03  0.10000000000E+01 0.  0.
    9000005    1    3    3    0    0 -0.29099985085E+02  0.29543931608E+02 -0.14912263299E+02  0.44079798360E+02  0.10000000000E+01 0.  0.
          4    1    1    2  501    0  0.31801742317E+02  0.46209432031E+02  0.46386008183E+01  0.56300905327E+02  0.12700000000E+01 0. -1.
<mgrwt>
<rscale>  1 0.13700919E+03</rscale>
<asrwt>0</asrwt>
<pdfrwt beam="2">  1       21 0.11031441E-01 0.13700919E+03</pdfrwt>
<pdfrwt beam="1">  1        4 0.20426107E-01 0.13700919E+03</pdfrwt>
<totfact> 0.59924241E+04</totfact>
</mgrwt>
</event>
<event>
 6    4  0.6326233E-003  0.1648540E+03  0.7818608E-02  0.1183323E+00
         21   -1    0    0  501  502  0.00000000000E+00  0.00000000000E+00  0.67956827365E+02  0.67956827365E+02  0.00000000000E+00 0. -1.
          4   -1    0    0  502    0 -0.00000000000E+00 -0.00000000000E+00 -0.56553078978E+03  0.56553221579E+03  0.12700000000E+01 0.  1.
         25    2    1    2    0    0  0.10279210830E+03 -0.31398821034E+02 -0.49948196089E+03  0.52598389514E+03  0.12499890079E+03 0.  0.
    9000005    1    3    3    0    0 -0.25970802086E+02  0.12108957766E+02 -0.98810795995E+02  0.10288674756E+03  0.10000000000E+01 0.  0.
    9000005    1    3    3    0    0  0.12876291039E+03 -0.43507778800E+02 -0.40067116490E+03  0.42309714758E+03  0.10000000000E+01 0.  0.
          4    1    1    2  501    0 -0.10279210830E+03  0.31398821034E+02  0.19079984741E+01  0.10750514801E+03  0.12700000000E+01 0. -1.
<mgrwt>
<rscale>  1 0.16485396E+03</rscale>
<asrwt>0</asrwt>
<pdfrwt beam="1">  1       21 0.10454897E-01 0.16485396E+03</pdfrwt>
<pdfrwt beam="2">  1        4 0.87005757E-01 0.16485396E+03</pdfrwt>
<totfact> 0.36839445E+03</totfact>
</mgrwt>
</event>
<event>
 6    4  0.6326233E-003  0.1279011E+03  0.7818608E-02  0.1230604E+00
         -4   -1    0    0    0  501 -0.00000000000E+00  0.00000000000E+00  0.26801024230E+03  0.26801325131E+03  0.12700000000E+01 0.  1.
         21   -1    0    0  501  502  0.00000000000E+00 -0.00000000000E+00 -0.34864660555E+02  0.34864660555E+02  0.00000000000E+00 0.  1.
         25    2    1    2    0    0  0.77633427375E+01  0.25972548270E+02  0.24250904303E+03  0.27417024632E+03  0.12499538096E+03 0.  0.
    9000005    1    3    3    0    0 -0.20860104435E+01  0.29824310103E+02 -0.14795993483E+01  0.29950461214E+02  0.10000000000E+01 0.  0.
    9000005    1    3    3    0    0  0.98493531811E+01 -0.38517618335E+01  0.24398864237E+03  0.24421978510E+03  0.10000000000E+01 0.  0.
         -4    1    1    2    0  502 -0.77633427375E+01 -0.25972548270E+02 -0.93634612818E+01  0.28707665549E+02  0.12700000000E+01 0. -1.
<mgrwt>
<rscale>  1 0.12790109E+03</rscale>
<asrwt>0</asrwt>
<pdfrwt beam="2">  1       21 0.53637941E-02 0.12790109E+03</pdfrwt>
<pdfrwt beam="1">  1       -4 0.41234354E-01 0.12790109E+03</pdfrwt>
<totfact> 0.54774153E+04</totfact>
</mgrwt>
</event>
<event>
 6    4  0.6326233E-003  0.1348789E+03  0.7818608E-02  0.1220391E+00
         21   -1    0    0  501  502  0.00000000000E+00  0.00000000000E+00  0.60928453474E+03  0.60928453474E+03  0.00000000000E+00 0. -1.
          4   -1    0    0  502    0 -0.00000000000E+00 -0.00000000000E+00 -0.17883462231E+02  0.17928500254E+02  0.12700000000E+01 0.  1.
         25    2    1    2    0    0 -0.12859752368E+02  0.49011908655E+02  0.26973555058E+03  0.30157848321E+03  0.12499909545E+03 0.  0.
    9000005    1    3    3    0    0  0.28356260974E+02 -0.32737054640E+02  0.86466550374E+02  0.96712236126E+02  0.10000000000E+01 0.  0.
    9000005    1    3    3    0    0 -0.41216013342E+02  0.81748963295E+02  0.18326900021E+03  0.20486624708E+03  0.10000000000E+01 0.  0.
          4    1    1    2  501    0  0.12859752368E+02 -0.49011908655E+02  0.32166552193E+03  0.32563455179E+03  0.12700000000E+01 0. -1.
<mgrwt>
<rscale>  1 0.13487889E+03</rscale>
<asrwt>0</asrwt>
<pdfrwt beam="1">  1       21 0.93736067E-01 0.13487889E+03</pdfrwt>
<pdfrwt beam="2">  1        4 0.27548686E-02 0.13487889E+03</pdfrwt>
<totfact> 0.24255576E+04</totfact>
</mgrwt>
</event>
<event>
 6    4  0.6326233E-003  0.1266540E+03  0.7818608E-02  0.1232507E+00
         -4   -1    0    0    0  501 -0.00000000000E+00  0.00000000000E+00  0.70512234071E+02  0.70523670166E+02  0.12700000000E+01 0. -1.
         21   -1    0    0  501  502  0.00000000000E+00 -0.00000000000E+00 -0.81814543052E+02  0.81814543052E+02  0.00000000000E+00 0. -1.
         25    2    1    2    0    0  0.86914781198E+01 -0.18448852391E+02  0.41470765192E+01  0.12672184426E+03  0.12500130248E+03 0.  0.
    9000005    1    3    3    0    0 -0.16591544668E+02  0.45605414612E+02  0.25217945550E+02  0.54699890074E+02  0.10000000000E+01 0.  0.
    9000005    1    3    3    0    0  0.25283022788E+02 -0.64054267002E+02 -0.21070869031E+02  0.72021954182E+02  0.10000000000E+01 0.  0.
         -4    1    1    2    0  502 -0.86914781198E+01  0.18448852391E+02 -0.15449385500E+02  0.25616368961E+02  0.12700000000E+01 0.  1.
<mgrwt>
<rscale>  1 0.12665397E+03</rscale>
<asrwt>0</asrwt>
<pdfrwt beam="2">  1       21 0.12586853E-01 0.12665397E+03</pdfrwt>
<pdfrwt beam="1">  1       -4 0.10849674E-01 0.12665397E+03</pdfrwt>
<totfact> 0.14160347E+05</totfact>
</mgrwt>
</event>
<event>
 6    4  0.6326233E-003  0.1298777E+03  0.7818608E-02  0.1227637E+00
         21   -1    0    0  501  502  0.00000000000E+00  0.00000000000E+00  0.55122539905E+03  0.55122539905E+03  0.00000000000E+00 0. -1.
          4   -1    0    0  502    0 -0.00000000000E+00 -0.00000000000E+00 -0.20762397402E+02  0.20801202991E+02  0.12700000000E+01 0.  1.
         25    2    1    2    0    0  0.32382439836E+02 -0.13953242741E+02  0.19243741646E+03  0.23216453512E+03  0.12499958688E+03 0.  0.
    9000005    1    3    3    0    0 -0.10534502339E+02  0.50951468792E+02  0.75031948235E+02  0.91311670489E+02  0.10000000000E+01 0.  0.
    9000005    1    3    3    0    0  0.42916942175E+02 -0.64904711533E+02  0.11740546823E+03  0.14085286463E+03  0.10000000000E+01 0.  0.
          4    1    1    2  501    0 -0.32382439836E+02  0.13953242741E+02  0.33802558518E+03  0.33986206692E+03  0.12700000000E+01 0. -1.
<mgrwt>
<rscale>  1 0.12987768E+03</rscale>
<asrwt>0</asrwt>
<pdfrwt beam="1">  1       21 0.84803896E-01 0.12987768E+03</pdfrwt>
<pdfrwt beam="2">  1        4 0.31973130E-02 0.12987768E+03</pdfrwt>
<totfact> 0.24075081E+04</totfact>
</mgrwt>
</event>
<event>
 6    4  0.6326233E-003  0.1288435E+03  0.7818608E-02  0.1229182E+00
         21   -1    0    0  501  502  0.00000000000E+00  0.00000000000E+00  0.13297283240E+03  0.13297283240E+03  0.00000000000E+00 0. -1.
          4   -1    0    0  502    0 -0.00000000000E+00 -0.00000000000E+00 -0.55259798543E+02  0.55274390408E+02  0.12700000000E+01 0.  1.
         25    2    1    2    0    0  0.24776762875E+02  0.19043088880E+02  0.31826650047E+02  0.13271614744E+03  0.12499645165E+03 0.  0.
    9000005    1    3    3    0    0 -0.26289102519E+02 -0.41669418693E+02  0.83974928997E+01  0.49989751475E+02  0.10000000000E+01 0.  0.
    9000005    1    3    3    0    0  0.51065865394E+02  0.60712507573E+02  0.23429157147E+02  0.82726395963E+02  0.10000000000E+01 0.  0.
          4    1    1    2  501    0 -0.24776762875E+02 -0.19043088880E+02  0.45886383813E+02  0.55531075373E+02  0.12700000000E+01 0. -1.
<mgrwt>
<rscale>  1 0.12884347E+03</rscale>
<asrwt>0</asrwt>
<pdfrwt beam="1">  1       21 0.20457359E-01 0.12884347E+03</pdfrwt>
<pdfrwt beam="2">  1        4 0.85030965E-02 0.12884347E+03</pdfrwt>
<totfact> 0.88558303E+04</totfact>
</mgrwt>
</event>
<event>
 6    4  0.6326233E-003  0.1329085E+03  0.7818608E-02  0.1223203E+00
         21   -1    0    0  501  502  0.00000000000E+00  0.00000000000E+00  0.61657591267E+01  0.61657591267E+01  0.00000000000E+00 0. -1.
          4   -1    0    0  502    0 -0.00000000000E+00 -0.00000000000E+00 -0.14916953164E+04  0.14916958570E+04  0.12700000000E+01 0.  1.
         25    2    1    2    0    0 -0.28356868096E+01 -0.45075047622E+02 -0.13055370724E+04  0.13122849243E+04  0.12499949667E+03 0.  0.
    9000005    1    3    3    0    0 -0.25092432090E+02 -0.60501621067E+02 -0.33362656143E+03  0.33999670409E+03  0.10000000000E+01 0.  0.
    9000005    1    3    3    0    0  0.22256745280E+02  0.15426573446E+02 -0.97191051098E+03  0.97228822025E+03  0.10000000000E+01 0.  0.
          4    1    1    2  501    0  0.28356868096E+01  0.45075047622E+02 -0.17999248482E+03  0.18557669177E+03  0.12700000000E+01 0. -1.
<mgrwt>
<rscale>  1 0.13290852E+03</rscale>
<asrwt>0</asrwt>
<pdfrwt beam="1">  1       21 0.94857852E-03 0.13290852E+03</pdfrwt>
<pdfrwt beam="2">  1        4 0.22950164E+00 0.13290852E+03</pdfrwt>
<totfact> 0.16033370E+04</totfact>
</mgrwt>
</event>
<event>
 6    4  0.6326233E-003  0.1281354E+03  0.7818608E-02  0.1230249E+00
         -4   -1    0    0    0  501 -0.00000000000E+00  0.00000000000E+00  0.19621346174E+03  0.19621757176E+03  0.12700000000E+01 0.  1.
         21   -1    0    0  501  502  0.00000000000E+00 -0.00000000000E+00 -0.33562476348E+02  0.33562476348E+02  0.00000000000E+00 0.  1.
         25    2    1    2    0    0 -0.23058465217E+02 -0.16204789128E+02  0.15386335551E+03  0.20023138744E+03  0.12499755332E+03 0.  0.
    9000005    1    3    3    0    0 -0.72635632072E+02  0.46138877220E+01  0.72771816625E+02  0.10292696586E+03  0.10000000000E+01 0.  0.
    9000005    1    3    3    0    0  0.49577166856E+02 -0.20818676850E+02  0.81091538885E+02  0.97304421574E+02  0.10000000000E+01 0.  0.
         -4    1    1    2    0  502  0.23058465217E+02  0.16204789128E+02  0.87876298846E+01  0.29548660677E+02  0.12700000000E+01 0. -1.
<mgrwt>
<rscale>  1 0.12813538E+03</rscale>
<asrwt>0</asrwt>
<pdfrwt beam="2">  1       21 0.51634580E-02 0.12813538E+03</pdfrwt>
<pdfrwt beam="1">  1       -4 0.30188850E-01 0.12813538E+03</pdfrwt>
<totfact> 0.10664134E+05</totfact>
</mgrwt>
</event>
<event>
 6    4  0.6326233E-003  0.1458941E+03  0.7818608E-02  0.1205611E+00
          4   -1    0    0  502    0 -0.00000000000E+00  0.00000000000E+00  0.10073339640E+03  0.10074140186E+03  0.12700000000E+01 0.  1.
         21   -1    0    0  501  502  0.00000000000E+00 -0.00000000000E+00 -0.14464581907E+03  0.14464581907E+03  0.00000000000E+00 0. -1.
         25    2    1    2    0    0 -0.57337173749E+02  0.48697582660E+02  0.19241848801E+02  0.14715748533E+03  0.12500428270E+03 0.  0.
    9000005    1    3    3    0    0 -0.59411149326E+02  0.88024885608E+02  0.18185509746E+02  0.10774867941E+03  0.10000000000E+01 0.  0.
    9000005    1    3    3    0    0  0.20739755773E+01 -0.39327302947E+02  0.10563390545E+01  0.39408805920E+02  0.10000000000E+01 0.  0.
          4    1    1    2  501    0  0.57337173749E+02 -0.48697582660E+02 -0.63154271471E+02  0.98229735597E+02  0.12700000000E+01 0. -1.
<mgrwt>
<rscale>  1 0.14589406E+03</rscale>
<asrwt>0</asrwt>
<pdfrwt beam="2">  1       21 0.22253203E-01 0.14589406E+03</pdfrwt>
<pdfrwt beam="1">  1        4 0.15498490E-01 0.14589406E+03</pdfrwt>
<totfact> 0.27581914E+04</totfact>
</mgrwt>
</event>
<event>
 6    4  0.6326233E-003  0.1270927E+03  0.7818608E-02  0.1231835E+00
         21   -1    0    0  501  502  0.00000000000E+00  0.00000000000E+00  0.11298882636E+02  0.11298882636E+02  0.00000000000E+00 0.  1.
         -4   -1    0    0    0  501 -0.00000000000E+00 -0.00000000000E+00 -0.49975865760E+03  0.49976027127E+03  0.12700000000E+01 0. -1.
         25    2    1    2    0    0 -0.21535369376E+02  0.79999714811E+01 -0.40379447190E+03  0.42332319709E+03  0.12499912789E+03 0.  0.
    9000005    1    3    3    0    0 -0.42187647530E+02 -0.18604581913E+02 -0.50361357884E+02  0.68287586281E+02  0.10000000000E+01 0.  0.
    9000005    1    3    3    0    0  0.20652278154E+02  0.26604553395E+02 -0.35343311402E+03  0.35503561080E+03  0.10000000000E+01 0.  0.
         -4    1    1    2    0  502  0.21535369376E+02 -0.79999714811E+01 -0.84665303059E+02  0.87735956825E+02  0.12700000000E+01 0.  1.
<mgrwt>
<rscale>  1 0.12709270E+03</rscale>
<asrwt>0</asrwt>
<pdfrwt beam="1">  1       21 0.17382900E-02 0.12709270E+03</pdfrwt>
<pdfrwt beam="2">  1       -4 0.76891547E-01 0.12709270E+03</pdfrwt>
<totfact> 0.95411203E+04</totfact>
</mgrwt>
</event>
<event>
 6    4  0.6326233E-003  0.1265989E+03  0.7818608E-02  0.1232591E+00
          4   -1    0    0  502    0 -0.00000000000E+00  0.00000000000E+00  0.63214753133E+02  0.63227509153E+02  0.12700000000E+01 0. -1.
         21   -1    0    0  501  502  0.00000000000E+00 -0.00000000000E+00 -0.19330489288E+03  0.19330489288E+03  0.00000000000E+00 0.  1.
         25    2    1    2    0    0 -0.12191188346E+02  0.15963159579E+02 -0.17368411504E+01  0.12661077297E+03  0.12499529463E+03 0.  0.
    9000005    1    3    3    0    0 -0.17133281016E+02  0.90125091227E+01 -0.62400619116E+02  0.65342267370E+02  0.10000000000E+01 0.  0.
    9000005    1    3    3    0    0  0.49420926694E+01  0.69506504564E+01  0.60663777965E+02  0.61268505602E+02  0.10000000000E+01 0.  0.
          4    1    1    2  501    0  0.12191188346E+02 -0.15963159579E+02 -0.12835329860E+03  0.12992162906E+03  0.12700000000E+01 0.  1.
<mgrwt>
<rscale>  1 0.12659886E+03</rscale>
<asrwt>0</asrwt>
<pdfrwt beam="2">  1       21 0.29739214E-01 0.12659886E+03</pdfrwt>
<pdfrwt beam="1">  1        4 0.97266489E-02 0.12659886E+03</pdfrwt>
<totfact> 0.34838857E+04</totfact>
</mgrwt>
</event>
<event>
 6    4  0.6326233E-003  0.1265955E+03  0.7818608E-02  0.1232597E+00
         21   -1    0    0  501  502  0.00000000000E+00  0.00000000000E+00  0.79071987099E+03  0.79071987099E+03  0.00000000000E+00 0.  1.
         -4   -1    0    0    0  501 -0.00000000000E+00 -0.00000000000E+00 -0.67646536216E+01  0.68828365243E+01  0.12700000000E+01 0.  1.
         25    2    1    2    0    0  0.27738663372E+01 -0.19849983729E+02  0.69130544953E+03  0.70280129103E+03  0.12499885569E+03 0.  0.
    9000005    1    3    3    0    0 -0.11850424077E+02  0.36223670058E+02  0.53053029143E+03  0.53189846489E+03  0.10000000000E+01 0.  0.
    9000005    1    3    3    0    0  0.14624290414E+02 -0.56073653787E+02  0.16077515810E+03  0.17090282614E+03  0.10000000000E+01 0.  0.
         -4    1    1    2    0  502 -0.27738663372E+01  0.19849983729E+02  0.92649767837E+02  0.94801416491E+02  0.12700000000E+01 0. -1.
<mgrwt>
<rscale>  1 0.12659554E+03</rscale>
<asrwt>0</asrwt>
<pdfrwt beam="1">  1       21 0.12164914E+00 0.12659554E+03</pdfrwt>
<pdfrwt beam="2">  1       -4 0.10498860E-02 0.12659554E+03</pdfrwt>
<totfact> 0.56874274E+04</totfact>
</mgrwt>
</event>
<event>
 6    4  0.6326233E-003  0.1270214E+03  0.7818608E-02  0.1231944E+00
         21   -1    0    0  501  502  0.00000000000E+00  0.00000000000E+00  0.49788935185E+03  0.49788935185E+03  0.00000000000E+00 0.  1.
          4   -1    0    0  502    0 -0.00000000000E+00 -0.00000000000E+00 -0.11215070267E+02  0.11286748916E+02  0.12700000000E+01 0.  1.
         25    2    1    2    0    0  0.22530830495E+02  0.13333852242E+01  0.41845962452E+03  0.43731325517E+03  0.12500003822E+03 0.  0.
    9000005    1    3    3    0    0 -0.15978142542E+02 -0.28517589638E+02  0.35876167955E+03  0.36024921467E+03  0.10000000000E+01 0.  0.
    9000005    1    3    3    0    0  0.38508973037E+02  0.29850974862E+02  0.59697944976E+02  0.77064040505E+02  0.10000000000E+01 0.  0.
          4    1    1    2  501    0 -0.22530830495E+02 -0.13333852242E+01  0.68214657060E+02  0.71862845593E+02  0.12700000000E+01 0. -1.
<mgrwt>
<rscale>  1 0.12702136E+03</rscale>
<asrwt>0</asrwt>
<pdfrwt beam="1">  1       21 0.76598345E-01 0.12702136E+03</pdfrwt>
<pdfrwt beam="2">  1        4 0.17310341E-02 0.12702136E+03</pdfrwt>
<totfact> 0.78027228E+04</totfact>
</mgrwt>
</event>
<event>
 6    4  0.6326233E-003  0.1462306E+03  0.7818608E-02  0.1205183E+00
         21   -1    0    0  501  502  0.00000000000E+00  0.00000000000E+00  0.49391719644E+02  0.49391719644E+02  0.00000000000E+00 0.  1.
         -4   -1    0    0    0  501 -0.00000000000E+00 -0.00000000000E+00 -0.46465867441E+03  0.46466040998E+03  0.12700000000E+01 0. -1.
         25    2    1    2    0    0  0.58501730884E+02  0.48327756971E+02 -0.41300252161E+03  0.43812607897E+03  0.12500141440E+03 0.  0.
    9000005    1    3    3    0    0 -0.11346175785E+02  0.51581911497E+01 -0.28976992171E+03  0.29003956655E+03  0.10000000000E+01 0.  0.
    9000005    1    3    3    0    0  0.69847906669E+02  0.43169565821E+02 -0.12323259991E+03  0.14808651241E+03  0.10000000000E+01 0.  0.
         -4    1    1    2    0  502 -0.58501730884E+02 -0.48327756971E+02 -0.22644331485E+01  0.75926050653E+02  0.12700000000E+01 0.  1.
<mgrwt>
<rscale>  1 0.14623057E+03</rscale>
<asrwt>0</asrwt>
<pdfrwt beam="1">  1       21 0.75987265E-02 0.14623057E+03</pdfrwt>
<pdfrwt beam="2">  1       -4 0.71487336E-01 0.14623057E+03</pdfrwt>
<totfact> 0.98412326E+03</totfact>
</mgrwt>
</event>
<event>
 6    4  0.6326233E-003  0.1267484E+03  0.7818608E-02  0.1232362E+00
         21   -1    0    0  501  502  0.00000000000E+00  0.00000000000E+00  0.21764290975E+02  0.21764290975E+02  0.00000000000E+00 0. -1.
          4   -1    0    0  502    0 -0.00000000000E+00 -0.00000000000E+00 -0.25077755716E+03  0.25078077294E+03  0.12700000000E+01 0. -1.
         25    2    1    2    0    0  0.20895351372E+02  0.18081680939E+01 -0.19696355219E+03  0.23422167356E+03  0.12500106517E+03 0.  0.
    9000005    1    3    3    0    0  0.12076202494E+02  0.61794087104E+02 -0.12614387842E+03  0.14098802052E+03  0.10000000000E+01 0.  0.
    9000005    1    3    3    0    0  0.88191488783E+01 -0.59985919011E+02 -0.70819673775E+02  0.93233653045E+02  0.10000000000E+01 0.  0.
          4    1    1    2  501    0 -0.20895351372E+02 -0.18081680939E+01 -0.32049713994E+02  0.38323390350E+02  0.12700000000E+01 0.  1.
<mgrwt>
<rscale>  1 0.12674838E+03</rscale>
<asrwt>0</asrwt>
<pdfrwt beam="1">  1       21 0.33483526E-02 0.12674838E+03</pdfrwt>
<pdfrwt beam="2">  1        4 0.38584259E-01 0.12674838E+03</pdfrwt>
<totfact> 0.13662100E+05</totfact>
</mgrwt>
</event>
<event>
 6    4  0.6326233E-003  0.1316610E+03  0.7818608E-02  0.1225012E+00
         21   -1    0    0  501  502  0.00000000000E+00  0.00000000000E+00  0.60693727738E+03  0.60693727738E+03  0.00000000000E+00 0.  1.
          4   -1    0    0  502    0 -0.00000000000E+00 -0.00000000000E+00 -0.17657174582E+02  0.17702788318E+02  0.12700000000E+01 0.  1.
         25    2    1    2    0    0 -0.16909926395E+02 -0.37746575047E+02  0.24728722819E+03  0.28015278187E+03  0.12499543361E+03 0.  0.
    9000005    1    3    3    0    0  0.86276668692E+01 -0.80976780983E+02  0.15300708788E+03  0.17333160310E+03  0.10000000000E+01 0.  0.
    9000005    1    3    3    0    0 -0.25537593264E+02  0.43230205936E+02  0.94280140310E+02  0.10682117876E+03  0.10000000000E+01 0.  0.
          4    1    1    2  501    0  0.16909926395E+02  0.37746575047E+02  0.34199287461E+03  0.34448728383E+03  0.12700000000E+01 0. -1.
<mgrwt>
<rscale>  1 0.13166096E+03</rscale>
<asrwt>0</asrwt>
<pdfrwt beam="1">  1       21 0.93374950E-01 0.13166096E+03</pdfrwt>
<pdfrwt beam="2">  1        4 0.27200998E-02 0.13166096E+03</pdfrwt>
<totfact> 0.24913145E+04</totfact>
</mgrwt>
</event>
<event>
 6    4  0.6326233E-003  0.1268985E+03  0.7818608E-02  0.1232132E+00
         21   -1    0    0  501  502  0.00000000000E+00  0.00000000000E+00  0.33367155830E+03  0.33367155830E+03  0.00000000000E+00 0.  1.
         -4   -1    0    0    0  501 -0.00000000000E+00 -0.00000000000E+00 -0.45750320589E+02  0.45767944393E+02  0.12700000000E+01 0. -1.
         25    2    1    2    0    0 -0.21616281483E+02 -0.33641193416E+01  0.43662853725E+02  0.13420012581E+03  0.12499859219E+03 0.  0.
    9000005    1    3    3    0    0  0.29065725530E+02  0.36795890293E+02  0.50793972734E+02  0.69135964658E+02  0.10000000000E+01 0.  0.
    9000005    1    3    3    0    0 -0.50682007014E+02 -0.40160009634E+02 -0.71311190089E+01  0.65064161157E+02  0.10000000000E+01 0.  0.
         -4    1    1    2    0  502  0.21616281483E+02  0.33641193416E+01  0.24425838399E+03  0.24523937688E+03  0.12700000000E+01 0.  1.
<mgrwt>
<rscale>  1 0.12689850E+03</rscale>
<asrwt>0</asrwt>
<pdfrwt beam="1">  1       21 0.51334084E-01 0.12689850E+03</pdfrwt>
<pdfrwt beam="2">  1       -4 0.70400527E-02 0.12689850E+03</pdfrwt>
<totfact> 0.20059873E+04</totfact>
</mgrwt>
</event>
<event>
 6    4  0.6326233E-003  0.1271640E+03  0.7818608E-02  0.1231726E+00
         -4   -1    0    0    0  501 -0.00000000000E+00  0.00000000000E+00  0.72659060532E+02  0.72670158782E+02  0.12700000000E+01 0.  1.
         21   -1    0    0  501  502  0.00000000000E+00 -0.00000000000E+00 -0.95071463936E+02  0.95071463936E+02  0.00000000000E+00 0.  1.
         25    2    1    2    0    0 -0.10980562417E+01  0.23292536407E+02  0.10264627074E+02  0.12757759403E+03  0.12500772756E+03 0.  0.
    9000005    1    3    3    0    0  0.43434426272E+02  0.56724774944E+02  0.46842404997E+01  0.71604410388E+02  0.10000000000E+01 0.  0.
    9000005    1    3    3    0    0 -0.44532482514E+02 -0.33432238536E+02  0.55803865747E+01  0.55973183640E+02  0.10000000000E+01 0.  0.
         -4    1    1    2    0  502  0.10980562417E+01 -0.23292536407E+02 -0.32677030478E+02  0.40164028690E+02  0.12700000000E+01 0. -1.
<mgrwt>
<rscale>  1 0.12716399E+03</rscale>
<asrwt>0</asrwt>
<pdfrwt beam="2">  1       21 0.14626379E-01 0.12716399E+03</pdfrwt>
<pdfrwt beam="1">  1       -4 0.11179823E-01 0.12716399E+03</pdfrwt>
<totfact> 0.10295636E+05</totfact>
</mgrwt>
</event>
<event>
 6    4  0.6326233E-003  0.1278057E+03  0.7818608E-02  0.1230749E+00
         -4   -1    0    0    0  501 -0.00000000000E+00  0.00000000000E+00  0.44030380767E+01  0.45825368853E+01  0.12700000000E+01 0.  1.
         21   -1    0    0  501  502  0.00000000000E+00 -0.00000000000E+00 -0.13279384668E+04  0.13279384668E+04  0.00000000000E+00 0.  1.
         25    2    1    2    0    0 -0.60539012323E+01 -0.25945685311E+02 -0.11002006367E+04  0.11075990827E+04  0.12499783487E+03 0.  0.
    9000005    1    3    3    0    0  0.10210811285E+02 -0.34477100995E+02 -0.10787189851E+04  0.10793185721E+04  0.10000000000E+01 0.  0.
    9000005    1    3    3    0    0 -0.16264712517E+02  0.85314156838E+01 -0.21481651533E+02  0.28280510594E+02  0.10000000000E+01 0.  0.
         -4    1    1    2    0  502  0.60539012323E+01  0.25945685311E+02 -0.22333479205E+03  0.22492192100E+03  0.12700000000E+01 0. -1.
<mgrwt>
<rscale>  1 0.12780566E+03</rscale>
<asrwt>0</asrwt>
<pdfrwt beam="2">  1       21 0.20429818E+00 0.12780566E+03</pdfrwt>
<pdfrwt beam="1">  1       -4 0.69124496E-03 0.12780566E+03</pdfrwt>
<totfact> 0.26935704E+04</totfact>
</mgrwt>
</event>
<event>
 6    4  0.6326233E-003  0.1269110E+03  0.7818608E-02  0.1232113E+00
         21   -1    0    0  501  502  0.00000000000E+00  0.00000000000E+00  0.56454806970E+02  0.56454806970E+02  0.00000000000E+00 0.  1.
         -4   -1    0    0    0  501 -0.00000000000E+00 -0.00000000000E+00 -0.98169407717E+02  0.98177622255E+02  0.12700000000E+01 0.  1.
         25    2    1    2    0    0  0.21671907880E+02 -0.34000030898E+01 -0.36330407030E+02  0.13200867944E+03  0.12500064544E+03 0.  0.
    9000005    1    3    3    0    0  0.62147637768E+01  0.60309460666E+02 -0.10504245481E+02  0.61540177996E+02  0.10000000000E+01 0.  0.
    9000005    1    3    3    0    0  0.15457144104E+02 -0.63709463756E+02 -0.25826161549E+02  0.70468501447E+02  0.10000000000E+01 0.  0.
         -4    1    1    2    0  502 -0.21671907880E+02  0.34000030898E+01 -0.53841937176E+01  0.22623749781E+02  0.12700000000E+01 0. -1.
<mgrwt>
<rscale>  1 0.12691096E+03</rscale>
<asrwt>0</asrwt>
<pdfrwt beam="1">  1       21 0.86853549E-02 0.12691096E+03</pdfrwt>
<pdfrwt beam="2">  1       -4 0.15104717E-01 0.12691096E+03</pdfrwt>
<totfact> 0.15379096E+05</totfact>
</mgrwt>
</event>
<event>
 6    4  0.6326233E-003  0.1336038E+03  0.7818608E-02  0.1222204E+00
         21   -1    0    0  501  502  0.00000000000E+00  0.00000000000E+00  0.11409038054E+02  0.11409038054E+02  0.00000000000E+00 0.  1.
         -4   -1    0    0    0  501 -0.00000000000E+00 -0.00000000000E+00 -0.15533382791E+04  0.15533387983E+04  0.12700000000E+01 0. -1.
         25    2    1    2    0    0 -0.78063074454E+01  0.46515130526E+02 -0.14841493420E+04  0.14901507490E+04  0.12500155850E+03 0.  0.
    9000005    1    3    3    0    0  0.54855185171E+02  0.39128781503E+02 -0.60551336483E+03  0.60925166218E+03  0.10000000000E+01 0.  0.
    9000005    1    3    3    0    0 -0.62661492616E+02  0.73863490239E+01 -0.87863597715E+03  0.88089908682E+03  0.10000000000E+01 0.  0.
         -4    1    1    2    0  502  0.78063074454E+01 -0.46515130526E+02 -0.57779899112E+02  0.74597087378E+02  0.12700000000E+01 0.  1.
<mgrwt>
<rscale>  1 0.13360384E+03</rscale>
<asrwt>0</asrwt>
<pdfrwt beam="1">  1       21 0.17552361E-02 0.13360384E+03</pdfrwt>
<pdfrwt beam="2">  1       -4 0.23898067E+00 0.13360384E+03</pdfrwt>
<totfact> 0.53057170E+03</totfact>
</mgrwt>
</event>
<event>
 6    4  0.6326233E-003  0.1296946E+03  0.7818608E-02  0.1227910E+00
         21   -1    0    0  501  502  0.00000000000E+00  0.00000000000E+00  0.12222216751E+02  0.12222216751E+02  0.00000000000E+00 0.  1.
          4   -1    0    0  502    0 -0.00000000000E+00 -0.00000000000E+00 -0.58467938661E+03  0.58468076591E+03  0.12700000000E+01 0. -1.
         25    2    1    2    0    0 -0.90466914657E+01  0.33356638780E+02 -0.50102019402E+03  0.51753445997E+03  0.12500469777E+03 0.  0.
    9000005    1    3    3    0    0 -0.10647339852E+02 -0.29749506232E+02 -0.34626588211E+02  0.46887093940E+02  0.10000000000E+01 0.  0.
    9000005    1    3    3    0    0  0.16006483862E+01  0.63106145012E+02 -0.46639360580E+03  0.47064736603E+03  0.10000000000E+01 0.  0.
          4    1    1    2  501    0  0.90466914657E+01 -0.33356638780E+02 -0.71436975840E+02  0.79368522692E+02  0.12700000000E+01 0.  1.
<mgrwt>
<rscale>  1 0.12969457E+03</rscale>
<asrwt>0</asrwt>
<pdfrwt beam="1">  1       21 0.18803412E-02 0.12969457E+03</pdfrwt>
<pdfrwt beam="2">  1        4 0.89955849E-01 0.12969457E+03</pdfrwt>
<totfact> 0.59496721E+04</totfact>
</mgrwt>
</event>
<event>
 6    4  0.6326233E-003  0.1281931E+03  0.7818608E-02  0.1230162E+00
         -4   -1    0    0    0  501 -0.00000000000E+00  0.00000000000E+00  0.14044545159E+03  0.14045119356E+03  0.12700000000E+01 0.  1.
         21   -1    0    0  501  502  0.00000000000E+00 -0.00000000000E+00 -0.44299706255E+02  0.44299706255E+02  0.00000000000E+00 0.  1.
         25    2    1    2    0    0  0.20780080810E+02  0.19421567480E+02  0.86677361593E+02  0.15474636295E+03  0.12499785115E+03 0.  0.
    9000005    1    3    3    0    0  0.59787114071E+02  0.40177087304E+02  0.20022945204E+02  0.74770419872E+02  0.10000000000E+01 0.  0.
    9000005    1    3    3    0    0 -0.39007033261E+02 -0.20755519824E+02  0.66654416389E+02  0.79975943078E+02  0.10000000000E+01 0.  0.
         -4    1    1    2    0  502 -0.20780080810E+02 -0.19421567480E+02  0.94683837420E+01  0.30004536866E+02  0.12700000000E+01 0. -1.
<mgrwt>
<rscale>  1 0.12819310E+03</rscale>
<asrwt>0</asrwt>
<pdfrwt beam="2">  1       21 0.68153395E-02 0.12819310E+03</pdfrwt>
<pdfrwt beam="1">  1       -4 0.21608834E-01 0.12819310E+03</pdfrwt>
<totfact> 0.12366936E+05</totfact>
</mgrwt>
</event>
<event>
 6    4  0.6326233E-003  0.1290321E+03  0.7818608E-02  0.1228899E+00
         21   -1    0    0  501  502  0.00000000000E+00  0.00000000000E+00  0.19813958668E+03  0.19813958668E+03  0.00000000000E+00 0. -1.
         -4   -1    0    0    0  501 -0.00000000000E+00 -0.00000000000E+00 -0.38128237802E+02  0.38149382929E+02  0.12700000000E+01 0.  1.
         25    2    1    2    0    0  0.31753997927E+02  0.40052262485E+01  0.84429130451E+02  0.15419973241E+03  0.12499968474E+03 0.  0.
    9000005    1    3    3    0    0  0.55988333099E+02  0.47979399581E+02  0.70651676224E+02  0.10212431435E+03  0.10000000000E+01 0.  0.
    9000005    1    3    3    0    0 -0.24234335172E+02 -0.43974173333E+02  0.13777454227E+02  0.52075418064E+02  0.10000000000E+01 0.  0.
         -4    1    1    2    0  502 -0.31753997927E+02 -0.40052262485E+01  0.75582218427E+02  0.82089237200E+02  0.12700000000E+01 0. -1.
<mgrwt>
<rscale>  1 0.12903209E+03</rscale>
<asrwt>0</asrwt>
<pdfrwt beam="1">  1       21 0.30483013E-01 0.12903209E+03</pdfrwt>
<pdfrwt beam="2">  1       -4 0.58678225E-02 0.12903209E+03</pdfrwt>
<totfact> 0.76595023E+04</totfact>
</mgrwt>
</event>
<event>
 6    4  0.6326233E-003  0.1269875E+03  0.7818608E-02  0.1231995E+00
          4   -1    0    0  502    0 -0.00000000000E+00  0.00000000000E+00  0.13117083712E+03  0.13117698507E+03  0.12700000000E+01 0. -1.
         21   -1    0    0  501  502  0.00000000000E+00 -0.00000000000E+00 -0.10171715040E+03  0.10171715040E+03  0.00000000000E+00 0.  1.
         25    2    1    2    0    0  0.13384265609E+02 -0.17896575683E+02  0.98243527160E+02  0.16055409791E+03  0.12500560683E+03 0.  0.
    9000005    1    3    3    0    0 -0.55119522981E+02 -0.89602602255E+01  0.58350251624E+02  0.80772519718E+02  0.10000000000E+01 0.  0.
    9000005    1    3    3    0    0  0.68503788590E+02 -0.89363154579E+01  0.39893275536E+02  0.79781578188E+02  0.10000000000E+01 0.  0.
          4    1    1    2  501    0 -0.13384265609E+02  0.17896575683E+02 -0.68789840433E+02  0.72340037558E+02  0.12700000000E+01 0.  1.
<mgrwt>
<rscale>  1 0.12698751E+03</rscale>
<asrwt>0</asrwt>
<pdfrwt beam="2">  1       21 0.15648792E-01 0.12698751E+03</pdfrwt>
<pdfrwt beam="1">  1        4 0.20181212E-01 0.12698751E+03</pdfrwt>
<totfact> 0.32509162E+04</totfact>
</mgrwt>
</event>
<event>
 6    4  0.6326233E-003  0.1544022E+03  0.7818608E-02  0.1195166E+00
          4   -1    0    0  502    0 -0.00000000000E+00  0.00000000000E+00  0.29546755382E+02  0.29574036816E+02  0.12700000000E+01 0.  1.
         21   -1    0    0  501  502  0.00000000000E+00 -0.00000000000E+00 -0.53235040310E+03  0.53235040310E+03  0.00000000000E+00 0. -1.
         25    2    1    2    0    0  0.67625686885E+02 -0.60344091367E+02 -0.37212786498E+03  0.40288854465E+03  0.12500155449E+03 0.  0.
    9000005    1    3    3    0    0  0.54420877916E+02 -0.89519795139E+02 -0.18134234423E+03  0.20943130493E+03  0.10000000000E+01 0.  0.
    9000005    1    3    3    0    0  0.13204808969E+02  0.29175703772E+02 -0.19078552075E+03  0.19345723971E+03  0.10000000000E+01 0.  0.
          4    1    1    2  501    0 -0.67625686885E+02  0.60344091367E+02 -0.13067578274E+03  0.15903589527E+03  0.12700000000E+01 0. -1.
<mgrwt>
<rscale>  1 0.15440217E+03</rscale>
<asrwt>0</asrwt>
<pdfrwt beam="2">  1       21 0.81900061E-01 0.15440217E+03</pdfrwt>
<pdfrwt beam="1">  1        4 0.45478698E-02 0.15440217E+03</pdfrwt>
<totfact> 0.15091912E+04</totfact>
</mgrwt>
</event>
<event>
 6    4  0.6326233E-003  0.1317984E+03  0.7818608E-02  0.1224811E+00
         21   -1    0    0  501  502  0.00000000000E+00  0.00000000000E+00  0.14805571224E+03  0.14805571224E+03  0.00000000000E+00 0.  1.
         -4   -1    0    0    0  501 -0.00000000000E+00 -0.00000000000E+00 -0.27980908321E+03  0.27981196534E+03  0.12700000000E+01 0. -1.
         25    2    1    2    0    0  0.16937199517E+02 -0.38191694021E+02 -0.26080504667E+03  0.29221583601E+03  0.12500139291E+03 0.  0.
    9000005    1    3    3    0    0  0.20293349363E+02 -0.83661318682E+02 -0.16499090985E+03  0.18610222085E+03  0.10000000000E+01 0.  0.
    9000005    1    3    3    0    0 -0.33561498461E+01  0.45469624661E+02 -0.95814136813E+02  0.10611361516E+03  0.10000000000E+01 0.  0.
         -4    1    1    2    0  502 -0.16937199517E+02  0.38191694021E+02  0.12905167570E+03  0.13565184157E+03  0.12700000000E+01 0.  1.
<mgrwt>
<rscale>  1 0.13179842E+03</rscale>
<asrwt>0</asrwt>
<pdfrwt beam="1">  1       21 0.22777802E-01 0.13179842E+03</pdfrwt>
<pdfrwt beam="2">  1       -4 0.43048192E-01 0.13179842E+03</pdfrwt>
<totfact> 0.39159616E+03</totfact>
</mgrwt>
</event>
<event>
 6    4  0.6326233E-003  0.1280886E+03  0.7818608E-02  0.1230320E+00
         21   -1    0    0  501  502  0.00000000000E+00  0.00000000000E+00  0.26689917679E+03  0.26689917679E+03  0.00000000000E+00 0. -1.
         -4   -1    0    0    0  501 -0.00000000000E+00 -0.00000000000E+00 -0.22867777141E+02  0.22903015771E+02  0.12700000000E+01 0. -1.
         25    2    1    2    0    0  0.13220064496E+02  0.24640485379E+02  0.20611244095E+03  0.24267063250E+03  0.12499909575E+03 0.  0.
    9000005    1    3    3    0    0  0.34008452454E+02  0.15546204852E+02  0.21503793218E+03  0.21826720230E+03  0.10000000000E+01 0.  0.
    9000005    1    3    3    0    0 -0.20788387958E+02  0.90942805276E+01 -0.89254912232E+01  0.24403430205E+02  0.10000000000E+01 0.  0.
         -4    1    1    2    0  502 -0.13220064496E+02 -0.24640485379E+02  0.37918958695E+02  0.47131560058E+02  0.12700000000E+01 0.  1.
<mgrwt>
<rscale>  1 0.12808863E+03</rscale>
<asrwt>0</asrwt>
<pdfrwt beam="1">  1       21 0.41061409E-01 0.12808863E+03</pdfrwt>
<pdfrwt beam="2">  1       -4 0.35210629E-02 0.12808863E+03</pdfrwt>
<totfact> 0.96301555E+04</totfact>
</mgrwt>
</event>
<event>
 6    4  0.6326233E-003  0.1274182E+03  0.7818608E-02  0.1231338E+00
         21   -1    0    0  501  502  0.00000000000E+00  0.00000000000E+00  0.10277443487E+03  0.10277443487E+03  0.00000000000E+00 0.  1.
          4   -1    0    0  502    0 -0.00000000000E+00 -0.00000000000E+00 -0.68205636042E+02  0.68217458820E+02  0.12700000000E+01 0.  1.
         25    2    1    2    0    0  0.20105431962E+02  0.14365208023E+02 -0.12906137256E+01  0.12742472756E+03  0.12499923165E+03 0.  0.
    9000005    1    3    3    0    0  0.15277936958E+02 -0.53645142102E+02 -0.15223411841E+02  0.57827060248E+02  0.10000000000E+01 0.  0.
    9000005    1    3    3    0    0  0.48274950038E+01  0.68010350125E+02  0.13932798115E+02  0.69597667313E+02  0.10000000000E+01 0.  0.
          4    1    1    2  501    0 -0.20105431962E+02 -0.14365208023E+02  0.35859412558E+02  0.43567166134E+02  0.12700000000E+01 0. -1.
<mgrwt>
<rscale>  1 0.12741819E+03</rscale>
<asrwt>0</asrwt>
<pdfrwt beam="1">  1       21 0.15811452E-01 0.12741819E+03</pdfrwt>
<pdfrwt beam="2">  1        4 0.10494688E-01 0.12741819E+03</pdfrwt>
<totfact> 0.99596711E+04</totfact>
</mgrwt>
</event>
<event>
 6    4  0.6326233E-003  0.1349982E+03  0.7818608E-02  0.1220222E+00
          4   -1    0    0  502    0 -0.00000000000E+00  0.00000000000E+00  0.11508990044E+03  0.11509690735E+03  0.12700000000E+01 0. -1.
         21   -1    0    0  501  502  0.00000000000E+00 -0.00000000000E+00 -0.10455936037E+03  0.10455936037E+03  0.00000000000E+00 0. -1.
         25    2    1    2    0    0  0.21908285883E+02 -0.46034825205E+02  0.60790635520E+02  0.14805411540E+03  0.12500136639E+03 0.  0.
    9000005    1    3    3    0    0 -0.18546249923E+02  0.26326440969E+02 -0.15168456156E+02  0.35610770035E+02  0.10000000000E+01 0.  0.
    9000005    1    3    3    0    0  0.40454535806E+02 -0.72361266174E+02  0.75959091676E+02  0.11244334537E+03  0.10000000000E+01 0.  0.
          4    1    1    2  501    0 -0.21908285883E+02  0.46034825205E+02 -0.50260095456E+02  0.71602152323E+02  0.12700000000E+01 0.  1.
<mgrwt>
<rscale>  1 0.13499822E+03</rscale>
<asrwt>0</asrwt>
<pdfrwt beam="2">  1       21 0.16086055E-01 0.13499822E+03</pdfrwt>
<pdfrwt beam="1">  1        4 0.17707271E-01 0.13499822E+03</pdfrwt>
<totfact> 0.39340025E+04</totfact>
</mgrwt>
</event>
<event>
 6    4  0.6326233E-003  0.1275442E+03  0.7818608E-02  0.1231146E+00
          4   -1    0    0  502    0 -0.00000000000E+00  0.00000000000E+00  0.12396044343E+04  0.12396050848E+04  0.12700000000E+01 0. -1.
         21   -1    0    0  501  502  0.00000000000E+00 -0.00000000000E+00 -0.47719954873E+01  0.47719954873E+01  0.00000000000E+00 0. -1.
         25    2    1    2    0    0 -0.50978731649E+01 -0.24804007755E+02  0.10761516309E+04  0.10836834625E+04  0.12500514851E+03 0.  0.
    9000005    1    3    3    0    0 -0.13473542656E+02  0.50079474953E+02  0.40170109346E+03  0.40503612018E+03  0.10000000000E+01 0.  0.
    9000005    1    3    3    0    0  0.83756694911E+01 -0.74883482708E+02  0.67445053743E+03  0.67864734234E+03  0.10000000000E+01 0.  0.
          4    1    1    2  501    0  0.50978731649E+01  0.24804007755E+02  0.15868080788E+03  0.16069361780E+03  0.12700000000E+01 0.  1.
<mgrwt>
<rscale>  1 0.12754417E+03</rscale>
<asrwt>0</asrwt>
<pdfrwt beam="2">  1       21 0.73415414E-03 0.12754417E+03</pdfrwt>
<pdfrwt beam="1">  1        4 0.19072117E+00 0.12754417E+03</pdfrwt>
<totfact> 0.41053048E+04</totfact>
</mgrwt>
</event>
<event>
 6    4  0.6326233E-003  0.1308424E+03  0.7818608E-02  0.1226211E+00
          4   -1    0    0  502    0 -0.00000000000E+00  0.00000000000E+00  0.65211210449E+03  0.65211334117E+03  0.12700000000E+01 0.  1.
         21   -1    0    0  501  502  0.00000000000E+00 -0.00000000000E+00 -0.40464189701E+02  0.40464189701E+02  0.00000000000E+00 0.  1.
         25    2    1    2    0    0 -0.33669587064E+02  0.19076688030E+02  0.63434348635E+03  0.64769698957E+03  0.12498868150E+03 0.  0.
    9000005    1    3    3    0    0  0.24813076944E+02  0.44579691135E+02  0.13552672948E+03  0.14481551040E+03  0.10000000000E+01 0.  0.
    9000005    1    3    3    0    0 -0.58482664007E+02 -0.25503003105E+02  0.49881675686E+03  0.50288147916E+03  0.10000000000E+01 0.  0.
          4    1    1    2  501    0  0.33669587064E+02 -0.19076688030E+02 -0.22695571554E+02  0.44880541300E+02  0.12700000000E+01 0.  1.
<mgrwt>
<rscale>  1 0.13084239E+03</rscale>
<asrwt>0</asrwt>
<pdfrwt beam="2">  1       21 0.62252604E-02 0.13084239E+03</pdfrwt>
<pdfrwt beam="1">  1        4 0.10032656E+00 0.13084239E+03</pdfrwt>
<totfact> 0.64286993E+03</totfact>
</mgrwt>
</event>
<event>
 6    4  0.6326233E-003  0.1535537E+03  0.7818608E-02  0.1196173E+00
          4   -1    0    0  502    0 -0.00000000000E+00  0.00000000000E+00  0.83604392460E+02  0.83614037928E+02  0.12700000000E+01 0.  1.
         21   -1    0    0  501  502  0.00000000000E+00 -0.00000000000E+00 -0.19206266828E+03  0.19206266828E+03  0.00000000000E+00 0.  1.
         25    2    1    2    0    0 -0.11309943417E+01 -0.89175589938E+02 -0.29090754017E+02  0.15628499207E+03  0.12500064714E+03 0.  0.
    9000005    1    3    3    0    0 -0.30136925931E+02 -0.75717860236E+02  0.31813189928E+02  0.87490043529E+02  0.10000000000E+01 0.  0.
    9000005    1    3    3    0    0  0.29005931590E+02 -0.13457729703E+02 -0.60903943945E+02  0.68794948537E+02  0.10000000000E+01 0.  0.
          4    1    1    2  501    0  0.11309943417E+01  0.89175589938E+02 -0.79367521808E+02  0.11939171415E+03  0.12700000000E+01 0. -1.
<mgrwt>
<rscale>  1 0.15355366E+03</rscale>
<asrwt>0</asrwt>
<pdfrwt beam="2">  1       21 0.29548102E-01 0.15355366E+03</pdfrwt>
<pdfrwt beam="1">  1        4 0.12863279E-01 0.15355366E+03</pdfrwt>
<totfact> 0.22347714E+04</totfact>
</mgrwt>
</event>
<event>
 6    4  0.6326233E-003  0.1269816E+03  0.7818608E-02  0.1232004E+00
         21   -1    0    0  501  502  0.00000000000E+00  0.00000000000E+00  0.42316978293E+03  0.42316978293E+03  0.00000000000E+00 0.  1.
          4   -1    0    0  502    0 -0.00000000000E+00 -0.00000000000E+00 -0.18346746256E+02  0.18390649749E+02  0.12700000000E+01 0. -1.
         25    2    1    2    0    0  0.20623611436E+02  0.85944154308E+01  0.20963861683E+03  0.24509728607E+03  0.12500053059E+03 0.  0.
    9000005    1    3    3    0    0  0.19889423580E+02 -0.54736785233E+02  0.65489610973E+02  0.87644703054E+02  0.10000000000E+01 0.  0.
    9000005    1    3    3    0    0  0.73418785579E+00  0.63331200664E+02  0.14414900586E+03  0.15745258302E+03  0.10000000000E+01 0.  0.
          4    1    1    2  501    0 -0.20623611436E+02 -0.85944154308E+01  0.19518441984E+03  0.19646314661E+03  0.12700000000E+01 0.  1.
<mgrwt>
<rscale>  1 0.12698161E+03</rscale>
<asrwt>0</asrwt>
<pdfrwt beam="1">  1       21 0.65103036E-01 0.12698161E+03</pdfrwt>
<pdfrwt beam="2">  1        4 0.28261004E-02 0.12698161E+03</pdfrwt>
<totfact> 0.52188510E+04</totfact>
</mgrwt>
</event>
<event>
 6    4  0.6326233E-003  0.1274661E+03  0.7818608E-02  0.1231265E+00
         21   -1    0    0  501  502  0.00000000000E+00  0.00000000000E+00  0.65357190394E+02  0.65357190394E+02  0.00000000000E+00 0.  1.
          4   -1    0    0  502    0 -0.00000000000E+00 -0.00000000000E+00 -0.90456262055E+02  0.90465176974E+02  0.12700000000E+01 0. -1.
         25    2    1    2    0    0 -0.23139430800E+02  0.93636627337E+01 -0.13223616974E+02  0.12815016540E+03  0.12499795762E+03 0.  0.
    9000005    1    3    3    0    0  0.32799856673E+02  0.38918015646E+02  0.22310557973E+02  0.55580603961E+02  0.10000000000E+01 0.  0.
    9000005    1    3    3    0    0 -0.55939287473E+02 -0.29554352912E+02 -0.35534174946E+02  0.72569561444E+02  0.10000000000E+01 0.  0.
          4    1    1    2  501    0  0.23139430800E+02 -0.93636627337E+01 -0.11875454687E+02  0.27672201964E+02  0.12700000000E+01 0.  1.
<mgrwt>
<rscale>  1 0.12746608E+03</rscale>
<asrwt>0</asrwt>
<pdfrwt beam="1">  1       21 0.10054952E-01 0.12746608E+03</pdfrwt>
<pdfrwt beam="2">  1        4 0.13917983E-01 0.12746608E+03</pdfrwt>
<totfact> 0.13749072E+05</totfact>
</mgrwt>
</event>
<event>
 6    4  0.6326233E-003  0.1606814E+03  0.7818608E-02  0.1187930E+00
         21   -1    0    0  501  502  0.00000000000E+00  0.00000000000E+00  0.20534493228E+02  0.20534493228E+02  0.00000000000E+00 0.  1.
          4   -1    0    0  502    0 -0.00000000000E+00 -0.00000000000E+00 -0.90341187680E+03  0.90341276947E+03  0.12700000000E+01 0. -1.
         25    2    1    2    0    0 -0.96098705396E+02 -0.30966488987E+02 -0.65977287189E+03  0.67905724524E+03  0.12499846083E+03 0.  0.
    9000005    1    3    3    0    0 -0.12625880613E+03 -0.31408133465E+02 -0.55308430055E+03  0.56818218952E+03  0.10000000000E+01 0.  0.
    9000005    1    3    3    0    0  0.30160100732E+02  0.44164447785E+00 -0.10668857134E+03  0.11087505571E+03  0.10000000000E+01 0.  0.
          4    1    1    2  501    0  0.96098705396E+02  0.30966488987E+02 -0.22310451169E+03  0.24489001747E+03  0.12700000000E+01 0.  1.
<mgrwt>
<rscale>  1 0.16068136E+03</rscale>
<asrwt>0</asrwt>
<pdfrwt beam="1">  1       21 0.31591523E-02 0.16068136E+03</pdfrwt>
<pdfrwt beam="2">  1        4 0.13898955E+00 0.16068136E+03</pdfrwt>
<totfact> 0.93045359E+03</totfact>
</mgrwt>
</event>
<event>
 6    4  0.6326233E-003  0.1281070E+03  0.7818608E-02  0.1230292E+00
         21   -1    0    0  501  502  0.00000000000E+00  0.00000000000E+00  0.11110350378E+03  0.11110350378E+03  0.00000000000E+00 0.  1.
          4   -1    0    0  502    0 -0.00000000000E+00 -0.00000000000E+00 -0.13685743297E+03  0.13686332547E+03  0.12700000000E+01 0. -1.
         25    2    1    2    0    0  0.40105947975E+01  0.27696334086E+02 -0.10390439069E+03  0.16494707664E+03  0.12501297491E+03 0.  0.
    9000005    1    3    3    0    0  0.59614736633E+02 -0.95853885199E+01 -0.58293779304E+02  0.83934267153E+02  0.10000000000E+01 0.  0.
    9000005    1    3    3    0    0 -0.55604141836E+02  0.37281722606E+02 -0.45610611381E+02  0.81012809483E+02  0.10000000000E+01 0.  0.
          4    1    1    2  501    0 -0.40105947975E+01 -0.27696334086E+02  0.78150461491E+02  0.83019752611E+02  0.12700000000E+01 0.  1.
<mgrwt>
<rscale>  1 0.12810705E+03</rscale>
<asrwt>0</asrwt>
<pdfrwt beam="1">  1       21 0.17092847E-01 0.12810705E+03</pdfrwt>
<pdfrwt beam="2">  1        4 0.21056001E-01 0.12810705E+03</pdfrwt>
<totfact> 0.25682583E+04</totfact>
</mgrwt>
</event>
<event>
 6    4  0.6326233E-003  0.1392634E+03  0.7818608E-02  0.1214324E+00
          4   -1    0    0  502    0 -0.00000000000E+00  0.00000000000E+00  0.21914896702E+02  0.21951665028E+02  0.12700000000E+01 0.  1.
         21   -1    0    0  501  502  0.00000000000E+00 -0.00000000000E+00 -0.84653218703E+03  0.84653218703E+03  0.00000000000E+00 0. -1.
         25    2    1    2    0    0  0.58829977911E+02 -0.17517116036E+02 -0.21746321713E+03  0.25823349592E+03  0.12500588770E+03 0.  0.
    9000005    1    3    3    0    0  0.64486878464E+02  0.39002598115E+02 -0.16277239799E+03  0.17937562181E+03  0.10000000000E+01 0.  0.
    9000005    1    3    3    0    0 -0.56569005536E+01 -0.56519714151E+02 -0.54690819140E+02  0.78857874114E+02  0.10000000000E+01 0.  0.
          4    1    1    2  501    0 -0.58829977911E+02  0.17517116036E+02 -0.60715407320E+03  0.61025035613E+03  0.12700000000E+01 0. -1.
<mgrwt>
<rscale>  1 0.13926337E+03</rscale>
<asrwt>0</asrwt>
<pdfrwt beam="2">  1       21 0.13023575E+00 0.13926337E+03</pdfrwt>
<pdfrwt beam="1">  1        4 0.33744235E-02 0.13926337E+03</pdfrwt>
<totfact> 0.80317776E+03</totfact>
</mgrwt>
</event>
<event>
 6    4  0.6326233E-003  0.1501440E+03  0.7818608E-02  0.1200296E+00
         -4   -1    0    0    0  501 -0.00000000000E+00  0.00000000000E+00  0.74240073763E+02  0.74250935701E+02  0.12700000000E+01 0. -1.
         21   -1    0    0  501  502  0.00000000000E+00 -0.00000000000E+00 -0.22564645881E+03  0.22564645881E+03  0.00000000000E+00 0.  1.
         25    2    1    2    0    0  0.83483017032E+01  0.82756208361E+02 -0.30615899538E+02  0.15323370284E+03  0.12499980088E+03 0.  0.
    9000005    1    3    3    0    0  0.41582083290E+02  0.86182807814E+02 -0.56346860884E+02  0.11105185611E+03  0.10000000000E+01 0.  0.
    9000005    1    3    3    0    0 -0.33233781586E+02 -0.34265994533E+01  0.25730961346E+02  0.42181846737E+02  0.10000000000E+01 0.  0.
         -4    1    1    2    0  502 -0.83483017032E+01 -0.82756208361E+02 -0.12079048551E+03  0.14666369167E+03  0.12700000000E+01 0.  1.
<mgrwt>
<rscale>  1 0.15014405E+03</rscale>
<asrwt>0</asrwt>
<pdfrwt beam="2">  1       21 0.34714840E-01 0.15014405E+03</pdfrwt>
<pdfrwt beam="1">  1       -4 0.11422660E-01 0.15014405E+03</pdfrwt>
<totfact> 0.19964548E+04</totfact>
</mgrwt>
</event>
<event>
 6    4  0.6326233E-003  0.1278258E+03  0.7818608E-02  0.1230718E+00
         21   -1    0    0  501  502  0.00000000000E+00  0.00000000000E+00  0.68699508886E+03  0.68699508886E+03  0.00000000000E+00 0. -1.
          4   -1    0    0  502    0 -0.00000000000E+00 -0.00000000000E+00 -0.18489418188E+02  0.18532983703E+02  0.12700000000E+01 0. -1.
         25    2    1    2    0    0  0.24441294683E+02  0.10773363784E+02  0.20726055601E+03  0.24350847238E+03  0.12500398310E+03 0.  0.
    9000005    1    3    3    0    0  0.18085878492E+02 -0.55180391077E+02  0.12533707515E+03  0.13813890461E+03  0.10000000000E+01 0.  0.
    9000005    1    3    3    0    0  0.63554161915E+01  0.65953754861E+02  0.81923480858E+02  0.10536956777E+03  0.10000000000E+01 0.  0.
          4    1    1    2  501    0 -0.24441294683E+02 -0.10773363784E+02  0.46124511467E+03  0.46201960019E+03  0.12700000000E+01 0.  1.
<mgrwt>
<rscale>  1 0.12782581E+03</rscale>
<asrwt>0</asrwt>
<pdfrwt beam="1">  1       21 0.10569153E+00 0.12782581E+03</pdfrwt>
<pdfrwt beam="2">  1        4 0.28479679E-02 0.12782581E+03</pdfrwt>
<totfact> 0.17315690E+04</totfact>
</mgrwt>
</event>
<event>
 6    4  0.6326233E-003  0.1293770E+03  0.7818608E-02  0.1228383E+00
         -4   -1    0    0    0  501 -0.00000000000E+00  0.00000000000E+00  0.57928130517E+02  0.57942050406E+02  0.12700000000E+01 0. -1.
         21   -1    0    0  501  502  0.00000000000E+00 -0.00000000000E+00 -0.26662529730E+03  0.26662529730E+03  0.00000000000E+00 0.  1.
         25    2    1    2    0    0  0.28893823212E+02  0.16677089146E+02 -0.17591509093E+02  0.13056744146E+03  0.12500166901E+03 0.  0.
    9000005    1    3    3    0    0  0.70444144494E+02  0.68365401659E+01 -0.41063836767E+02  0.81831256040E+02  0.10000000000E+01 0.  0.
    9000005    1    3    3    0    0 -0.41550321282E+02  0.98405489805E+01  0.23472327674E+02  0.48736185420E+02  0.10000000000E+01 0.  0.
         -4    1    1    2    0  502 -0.28893823212E+02 -0.16677089146E+02 -0.19110565769E+03  0.19399990624E+03  0.12700000000E+01 0.  1.
<mgrwt>
<rscale>  1 0.12937695E+03</rscale>
<asrwt>0</asrwt>
<pdfrwt beam="2">  1       21 0.41019276E-01 0.12937695E+03</pdfrwt>
<pdfrwt beam="1">  1       -4 0.89133236E-02 0.12937695E+03</pdfrwt>
<totfact> 0.21487027E+04</totfact>
</mgrwt>
</event>
<event>
 6    4  0.6326233E-003  0.1339674E+03  0.7818608E-02  0.1221685E+00
         -4   -1    0    0    0  501 -0.00000000000E+00  0.00000000000E+00  0.23487292823E+03  0.23487636177E+03  0.12700000000E+01 0.  1.
         21   -1    0    0  501  502  0.00000000000E+00 -0.00000000000E+00 -0.83278790282E+02  0.83278790282E+02  0.00000000000E+00 0. -1.
         25    2    1    2    0    0 -0.47243957673E+02 -0.95607157400E+01  0.20582789751E+03  0.24558578939E+03  0.12499543085E+03 0.  0.
    9000005    1    3    3    0    0 -0.45180928339E+02 -0.56914460891E+02  0.66851924736E+02  0.98745896042E+02  0.10000000000E+01 0.  0.
    9000005    1    3    3    0    0 -0.20630293336E+01  0.47353745151E+02  0.13897597277E+03  0.14683989334E+03  0.10000000000E+01 0.  0.
         -4    1    1    2    0  502  0.47243957673E+02  0.95607157400E+01 -0.54233759555E+02  0.72569362664E+02  0.12700000000E+01 0. -1.
<mgrwt>
<rscale>  1 0.13396737E+03</rscale>
<asrwt>0</asrwt>
<pdfrwt beam="2">  1       21 0.12812122E-01 0.13396737E+03</pdfrwt>
<pdfrwt beam="1">  1       -4 0.36135305E-01 0.13396737E+03</pdfrwt>
<totfact> 0.15802866E+04</totfact>
</mgrwt>
</event>
<event>
 6    4  0.6326233E-003  0.1317300E+03  0.7818608E-02  0.1224911E+00
         -4   -1    0    0    0  501 -0.00000000000E+00  0.00000000000E+00  0.14208488007E+03  0.14209055579E+03  0.12700000000E+01 0. -1.
         21   -1    0    0  501  502  0.00000000000E+00 -0.00000000000E+00 -0.52863643295E+02  0.52863643295E+02  0.00000000000E+00 0. -1.
         25    2    1    2    0    0  0.22696979932E+02 -0.34816185083E+02  0.69342944404E+02  0.14886646699E+03  0.12500184564E+03 0.  0.
    9000005    1    3    3    0    0 -0.17443178803E+02 -0.73697930996E+02  0.37078096019E+02  0.84329323039E+02  0.10000000000E+01 0.  0.
    9000005    1    3    3    0    0  0.40140158735E+02  0.38881745912E+02  0.32264848386E+02  0.64537143955E+02  0.10000000000E+01 0.  0.
         -4    1    1    2    0  502 -0.22696979932E+02  0.34816185083E+02  0.19878292370E+02  0.46087732092E+02  0.12700000000E+01 0.  1.
<mgrwt>
<rscale>  1 0.13172996E+03</rscale>
<asrwt>0</asrwt>
<pdfrwt beam="2">  1       21 0.81328683E-02 0.13172996E+03</pdfrwt>
<pdfrwt beam="1">  1       -4 0.21860822E-01 0.13172996E+03</pdfrwt>
<totfact> 0.89754345E+04</totfact>
</mgrwt>
</event>
<event>
 6    4  0.6326233E-003  0.1271805E+03  0.7818608E-02  0.1231700E+00
         21   -1    0    0  501  502  0.00000000000E+00  0.00000000000E+00  0.15312891017E+04  0.15312891017E+04  0.00000000000E+00 0. -1.
          4   -1    0    0  502    0 -0.00000000000E+00 -0.00000000000E+00 -0.53452330043E+02  0.53467415189E+02  0.12700000000E+01 0.  1.
         25    2    1    2    0    0 -0.75403746877E+01 -0.22209563852E+02  0.22409444519E+02  0.12913965815E+03  0.12499898450E+03 0.  0.
    9000005    1    3    3    0    0  0.50706631678E+02 -0.30115732190E+02  0.35591457347E+02  0.68890287106E+02  0.10000000000E+01 0.  0.
    9000005    1    3    3    0    0 -0.58247006366E+02  0.79061683375E+01 -0.13182012829E+02  0.60249371039E+02  0.10000000000E+01 0.  0.
          4    1    1    2  501    0  0.75403746877E+01  0.22209563852E+02  0.14554273271E+04  0.14556168587E+04  0.12700000000E+01 0. -1.
<mgrwt>
<rscale>  1 0.12718045E+03</rscale>
<asrwt>0</asrwt>
<pdfrwt beam="1">  1       21 0.23558291E+00 0.12718045E+03</pdfrwt>
<pdfrwt beam="2">  1        4 0.82246375E-02 0.12718045E+03</pdfrwt>
<totfact> 0.36974093E+02</totfact>
</mgrwt>
</event>
<event>
 6    4  0.6326233E-003  0.1296499E+03  0.7818608E-02  0.1227976E+00
         -4   -1    0    0    0  501 -0.00000000000E+00  0.00000000000E+00  0.18440147145E+03  0.18440584473E+03  0.12700000000E+01 0.  1.
         21   -1    0    0  501  502  0.00000000000E+00 -0.00000000000E+00 -0.34069315912E+03  0.34069315912E+03  0.00000000000E+00 0. -1.
         25    2    1    2    0    0 -0.23596925718E+02  0.25048531262E+02  0.16056644447E+03  0.20637509099E+03  0.12499940508E+03 0.  0.
    9000005    1    3    3    0    0 -0.45243161948E+01  0.75500254955E+02  0.96854521560E+02  0.12289245820E+03  0.10000000000E+01 0.  0.
    9000005    1    3    3    0    0 -0.19072609524E+02 -0.50451723693E+02  0.63711922910E+02  0.83482632796E+02  0.10000000000E+01 0.  0.
         -4    1    1    2    0  502  0.23596925718E+02 -0.25048531262E+02 -0.31685813214E+03  0.31872391286E+03  0.12700000000E+01 0. -1.
<mgrwt>
<rscale>  1 0.12964989E+03</rscale>
<asrwt>0</asrwt>
<pdfrwt beam="2">  1       21 0.52414331E-01 0.12964989E+03</pdfrwt>
<pdfrwt beam="1">  1       -4 0.28369976E-01 0.12964989E+03</pdfrwt>
<totfact> 0.16982767E+03</totfact>
</mgrwt>
</event>
<event>
 6    4  0.6326233E-003  0.1267055E+03  0.7818608E-02  0.1232428E+00
         21   -1    0    0  501  502  0.00000000000E+00  0.00000000000E+00  0.36873853310E+03  0.36873853310E+03  0.00000000000E+00 0. -1.
         -4   -1    0    0    0  501 -0.00000000000E+00 -0.00000000000E+00 -0.17983817798E+02  0.18028605121E+02  0.12700000000E+01 0. -1.
         25    2    1    2    0    0 -0.14530893741E+02  0.14804113584E+02  0.21600796379E+03  0.25042709057E+03  0.12499591440E+03 0.  0.
    9000005    1    3    3    0    0  0.42609656735E+02  0.78973920580E+01  0.23109220415E+02  0.49122171334E+02  0.10000000000E+01 0.  0.
    9000005    1    3    3    0    0 -0.57140550475E+02  0.69067215259E+01  0.19289874338E+03  0.20130491923E+03  0.10000000000E+01 0.  0.
         -4    1    1    2    0  502  0.14530893741E+02 -0.14804113584E+02  0.13474675151E+03  0.13634004765E+03  0.12700000000E+01 0.  1.
<mgrwt>
<rscale>  1 0.12670551E+03</rscale>
<asrwt>0</asrwt>
<pdfrwt beam="1">  1       21 0.56728999E-01 0.12670551E+03</pdfrwt>
<pdfrwt beam="2">  1       -4 0.27703549E-02 0.12670551E+03</pdfrwt>
<totfact> 0.72139148E+04</totfact>
</mgrwt>
</event>
<event>
 6    4  0.6326233E-003  0.1316142E+03  0.7818608E-02  0.1225080E+00
          4   -1    0    0  502    0 -0.00000000000E+00  0.00000000000E+00  0.28887532036E+03  0.28887811203E+03  0.12700000000E+01 0. -1.
         21   -1    0    0  501  502  0.00000000000E+00 -0.00000000000E+00 -0.30191656129E+02  0.30191656129E+02  0.00000000000E+00 0.  1.
         25    2    1    2    0    0  0.31762662555E+02  0.26234831420E+02  0.24020926415E+03  0.27390286136E+03  0.12500061505E+03 0.  0.
    9000005    1    3    3    0    0  0.72750514440E+02  0.40930882879E+02  0.18939575896E+03  0.20697760275E+03  0.10000000000E+01 0.  0.
    9000005    1    3    3    0    0 -0.40987851885E+02 -0.14696051459E+02  0.50813505189E+02  0.66925258612E+02  0.10000000000E+01 0.  0.
          4    1    1    2  501    0 -0.31762662555E+02 -0.26234831420E+02  0.18474400076E+02  0.45166906806E+02  0.12700000000E+01 0.  1.
<mgrwt>
<rscale>  1 0.13161416E+03</rscale>
<asrwt>0</asrwt>
<pdfrwt beam="2">  1       21 0.46448704E-02 0.13161416E+03</pdfrwt>
<pdfrwt beam="1">  1        4 0.44444624E-01 0.13161416E+03</pdfrwt>
<totfact> 0.60335355E+04</totfact>
</mgrwt>
</event>
<event>
 6    4  0.6326233E-003  0.1272672E+03  0.7818608E-02  0.1231568E+00
         -4   -1    0    0    0  501 -0.00000000000E+00  0.00000000000E+00  0.85963815832E+01  0.86896879301E+01  0.12700000000E+01 0.  1.
         21   -1    0    0  501  502  0.00000000000E+00 -0.00000000000E+00 -0.85179323590E+03  0.85179323590E+03  0.00000000000E+00 0.  1.
         25    2    1    2    0    0 -0.23821839806E+02 -0.20139492176E+01 -0.48281585404E+03  0.49930760033E+03  0.12500157917E+03 0.  0.
    9000005    1    3    3    0    0  0.32004698546E+02 -0.27180221892E+02 -0.35608774087E+03  0.35855619419E+03  0.10000000000E+01 0.  0.
    9000005    1    3    3    0    0 -0.55826538351E+02  0.25166272674E+02 -0.12672811317E+03  0.14075140615E+03  0.10000000000E+01 0.  0.
         -4    1    1    2    0  502  0.23821839806E+02  0.20139492176E+01 -0.36038100028E+03  0.36117532350E+03  0.12700000000E+01 0. -1.
<mgrwt>
<rscale>  1 0.12726716E+03</rscale>
<asrwt>0</asrwt>
<pdfrwt beam="2">  1       21 0.13104520E+00 0.12726716E+03</pdfrwt>
<pdfrwt beam="1">  1       -4 0.13297696E-02 0.12726716E+03</pdfrwt>
<totfact> 0.33128264E+04</totfact>
</mgrwt>
</event>
<event>
 6    4  0.6326233E-003  0.1279074E+03  0.7818608E-02  0.1230594E+00
          4   -1    0    0  502    0 -0.00000000000E+00  0.00000000000E+00  0.71376378553E+03  0.71376491538E+03  0.12700000000E+01 0. -1.
         21   -1    0    0  501  502  0.00000000000E+00 -0.00000000000E+00 -0.13964917720E+02  0.13964917720E+02  0.00000000000E+00 0. -1.
         25    2    1    2    0    0  0.25273927632E+02  0.97415916499E+01  0.68499752457E+03  0.69683707202E+03  0.12500650480E+03 0.  0.
    9000005    1    3    3    0    0  0.74048117519E+01 -0.33572542523E+02  0.58907044007E+03  0.59007366507E+03  0.10000000000E+01 0.  0.
    9000005    1    3    3    0    0  0.17869115880E+02  0.43314134173E+02  0.95927084507E+02  0.10676340695E+03  0.10000000000E+01 0.  0.
          4    1    1    2  501    0 -0.25273927632E+02 -0.97415916499E+01  0.14801343232E+02  0.30892761082E+02  0.12700000000E+01 0.  1.
<mgrwt>
<rscale>  1 0.12790737E+03</rscale>
<asrwt>0</asrwt>
<pdfrwt beam="2">  1       21 0.21484494E-02 0.12790737E+03</pdfrwt>
<pdfrwt beam="1">  1        4 0.10981431E+00 0.12790737E+03</pdfrwt>
<totfact> 0.30233533E+04</totfact>
</mgrwt>
</event>
<event>
 6    4  0.6326233E-003  0.1284898E+03  0.7818608E-02  0.1229714E+00
         21   -1    0    0  501  502  0.00000000000E+00  0.00000000000E+00  0.71430662658E+02  0.71430662658E+02  0.00000000000E+00 0.  1.
          4   -1    0    0  502    0 -0.00000000000E+00 -0.00000000000E+00 -0.92576603638E+02  0.92585314392E+02  0.12700000000E+01 0.  1.
         25    2    1    2    0    0  0.29686954076E+02 -0.17458748805E+01 -0.31860307970E+02  0.13238096668E+03  0.12500111117E+03 0.  0.
    9000005    1    3    3    0    0  0.41735936482E+02  0.55773784951E+02 -0.15526205689E+02  0.71376932862E+02  0.10000000000E+01 0.  0.
    9000005    1    3    3    0    0 -0.12048982406E+02 -0.57519659831E+02 -0.16334102281E+02  0.61004033813E+02  0.10000000000E+01 0.  0.
          4    1    1    2  501    0 -0.29686954076E+02  0.17458748805E+01  0.10714366990E+02  0.31635010374E+02  0.12700000000E+01 0. -1.
<mgrwt>
<rscale>  1 0.12848985E+03</rscale>
<asrwt>0</asrwt>
<pdfrwt beam="1">  1       21 0.10989333E-01 0.12848985E+03</pdfrwt>
<pdfrwt beam="2">  1        4 0.14244093E-01 0.12848985E+03</pdfrwt>
<totfact> 0.11314266E+05</totfact>
</mgrwt>
</event>
<event>
 6    4  0.6326233E-003  0.1275446E+03  0.7818608E-02  0.1231145E+00
          4   -1    0    0  502    0 -0.00000000000E+00  0.00000000000E+00  0.20146427379E+03  0.20146827670E+03  0.12700000000E+01 0. -1.
         21   -1    0    0  501  502  0.00000000000E+00 -0.00000000000E+00 -0.91372975010E+02  0.91372975010E+02  0.00000000000E+00 0.  1.
         25    2    1    2    0    0 -0.26954566666E+01  0.25215096441E+02  0.17877823642E+03  0.21961164787E+03  0.12499820594E+03 0.  0.
    9000005    1    3    3    0    0  0.35883124131E+02  0.70385531559E+01  0.79649748093E+00  0.36589263947E+02  0.10000000000E+01 0.  0.
    9000005    1    3    3    0    0 -0.38578580797E+02  0.18176543285E+02  0.17798173894E+03  0.18302238393E+03  0.10000000000E+01 0.  0.
          4    1    1    2  501    0  0.26954566666E+01 -0.25215096441E+02 -0.68686937639E+02  0.73229603832E+02  0.12700000000E+01 0.  1.
<mgrwt>
<rscale>  1 0.12754457E+03</rscale>
<asrwt>0</asrwt>
<pdfrwt beam="2">  1       21 0.14057381E-01 0.12754457E+03</pdfrwt>
<pdfrwt beam="1">  1        4 0.30995490E-01 0.12754457E+03</pdfrwt>
<totfact> 0.17876465E+04</totfact>
</mgrwt>
</event>
<event>
 6    4  0.6326233E-003  0.1268100E+03  0.7818608E-02  0.1232267E+00
         21   -1    0    0  501  502  0.00000000000E+00  0.00000000000E+00  0.54247110213E+01  0.54247110213E+01  0.00000000000E+00 0.  1.
         -4   -1    0    0    0  501 -0.00000000000E+00 -0.00000000000E+00 -0.10126870733E+04  0.10126878696E+04  0.12700000000E+01 0.  1.
         25    2    1    2    0    0  0.20709708319E+02 -0.52405052537E+01 -0.86911031188E+03  0.87831287808E+03  0.12499769067E+03 0.  0.
    9000005    1    3    3    0    0  0.43367694433E+02  0.97638958322E+01 -0.10905617021E+03  0.11777240272E+03  0.10000000000E+01 0.  0.
    9000005    1    3    3    0    0 -0.22657986114E+02 -0.15004401086E+02 -0.76005414167E+03  0.76054047536E+03  0.10000000000E+01 0.  0.
         -4    1    1    2    0  502 -0.20709708319E+02  0.52405052537E+01 -0.13815205036E+03  0.13979970255E+03  0.12700000000E+01 0. -1.
<mgrwt>
<rscale>  1 0.12681001E+03</rscale>
<asrwt>0</asrwt>
<pdfrwt beam="1">  1       21 0.83456993E-03 0.12681001E+03</pdfrwt>
<pdfrwt beam="2">  1       -4 0.15580969E+00 0.12681001E+03</pdfrwt>
<totfact> 0.57637545E+04</totfact>
</mgrwt>
</event>
<event>
 6    4  0.6326233E-003  0.1279023E+03  0.7818608E-02  0.1230602E+00
          4   -1    0    0  502    0 -0.00000000000E+00  0.00000000000E+00  0.55630735897E+03  0.55630880862E+03  0.12700000000E+01 0. -1.
         21   -1    0    0  501  502  0.00000000000E+00 -0.00000000000E+00 -0.51111547576E+02  0.51111547576E+02  0.00000000000E+00 0.  1.
         25    2    1    2    0    0 -0.24557351188E+02 -0.11435904870E+02  0.54469351047E+03  0.55950872347E+03  0.12500059149E+03 0.  0.
    9000005    1    3    3    0    0 -0.12231824431E+02  0.42708894229E+02  0.80043511972E+02  0.91551247856E+02  0.10000000000E+01 0.  0.
    9000005    1    3    3    0    0 -0.12325526757E+02 -0.54144799099E+02  0.46464999850E+03  0.46795747562E+03  0.10000000000E+01 0.  0.
          4    1    1    2  501    0  0.24557351188E+02  0.11435904870E+02 -0.39497699077E+02  0.47911632720E+02  0.12700000000E+01 0.  1.
<mgrwt>
<rscale>  1 0.12790227E+03</rscale>
<asrwt>0</asrwt>
<pdfrwt beam="2">  1       21 0.78633154E-02 0.12790227E+03</pdfrwt>
<pdfrwt beam="1">  1        4 0.85587069E-01 0.12790227E+03</pdfrwt>
<totfact> 0.61721368E+03</totfact>
</mgrwt>
</event>
<event>
 6    4  0.6326233E-003  0.1268403E+03  0.7818608E-02  0.1232221E+00
         -4   -1    0    0    0  501 -0.00000000000E+00  0.00000000000E+00  0.46594067346E+03  0.46594240425E+03  0.12700000000E+01 0. -1.
         21   -1    0    0  501  502  0.00000000000E+00 -0.00000000000E+00 -0.29692714084E+02  0.29692714084E+02  0.00000000000E+00 0.  1.
         25    2    1    2    0    0 -0.53431882222E+01  0.20838549074E+02  0.45166554878E+03  0.46913776468E+03  0.12500271801E+03 0.  0.
    9000005    1    3    3    0    0  0.94288251664E+01 -0.22361513453E+02  0.11971728171E+02  0.27078816506E+02  0.10000000000E+01 0.  0.
    9000005    1    3    3    0    0 -0.14772013389E+02  0.43200062528E+02  0.43969382060E+03  0.44205894817E+03  0.10000000000E+01 0.  0.
         -4    1    1    2    0  502  0.53431882222E+01 -0.20838549074E+02 -0.15417589402E+02  0.26497353658E+02  0.12700000000E+01 0.  1.
<mgrwt>
<rscale>  1 0.12684035E+03</rscale>
<asrwt>0</asrwt>
<pdfrwt beam="2">  1       21 0.45681102E-02 0.12684035E+03</pdfrwt>
<pdfrwt beam="1">  1       -4 0.71685398E-01 0.12684035E+03</pdfrwt>
<totfact> 0.22871921E+04</totfact>
</mgrwt>
</event>
<event>
 6    4  0.6326233E-003  0.1273204E+03  0.7818608E-02  0.1231487E+00
         -4   -1    0    0    0  501 -0.00000000000E+00  0.00000000000E+00  0.10490517047E+02  0.10567111616E+02  0.12700000000E+01 0.  1.
         21   -1    0    0  501  502  0.00000000000E+00 -0.00000000000E+00 -0.56236086661E+03  0.56236086661E+03  0.00000000000E+00 0.  1.
         25    2    1    2    0    0  0.12421934814E+02 -0.20749452428E+02 -0.42082127193E+03  0.43966013556E+03  0.12500259058E+03 0.  0.
    9000005    1    3    3    0    0 -0.23019652466E+02 -0.34628907185E+02 -0.42640364733E+02  0.59567325918E+02  0.10000000000E+01 0.  0.
    9000005    1    3    3    0    0  0.35441587280E+02  0.13879454757E+02 -0.37818090720E+03  0.38009280964E+03  0.10000000000E+01 0.  0.
         -4    1    1    2    0  502 -0.12421934814E+02  0.20749452428E+02 -0.13104907763E+03  0.13326784267E+03  0.12700000000E+01 0. -1.
<mgrwt>
<rscale>  1 0.12732043E+03</rscale>
<asrwt>0</asrwt>
<pdfrwt beam="2">  1       21 0.86517082E-01 0.12732043E+03</pdfrwt>
<pdfrwt beam="1">  1       -4 0.16199274E-02 0.12732043E+03</pdfrwt>
<totfact> 0.65749525E+04</totfact>
</mgrwt>
</event>
<event>
 6    4  0.6326233E-003  0.1412119E+03  0.7818608E-02  0.1211707E+00
         21   -1    0    0  501  502  0.00000000000E+00  0.00000000000E+00  0.15725634351E+02  0.15725634351E+02  0.00000000000E+00 0. -1.
         -4   -1    0    0    0  501 -0.00000000000E+00 -0.00000000000E+00 -0.10343753852E+04  0.10343761648E+04  0.12700000000E+01 0.  1.
         25    2    1    2    0    0 -0.38102347098E+02 -0.53521795196E+02 -0.92488885786E+03  0.93560686757E+03  0.12499775927E+03 0.  0.
    9000005    1    3    3    0    0  0.28687106770E+02 -0.28309292471E+02 -0.10279008183E+03  0.11041361808E+03  0.10000000000E+01 0.  0.
    9000005    1    3    3    0    0 -0.66789453867E+02 -0.25212502725E+02 -0.82209877603E+03  0.82519324949E+03  0.10000000000E+01 0.  0.
         -4    1    1    2    0  502  0.38102347098E+02  0.53521795196E+02 -0.93760892962E+02  0.11449493161E+03  0.12700000000E+01 0. -1.
<mgrwt>
<rscale>  1 0.14121194E+03</rscale>
<asrwt>0</asrwt>
<pdfrwt beam="1">  1       21 0.24193292E-02 0.14121194E+03</pdfrwt>
<pdfrwt beam="2">  1       -4 0.15913863E+00 0.14121194E+03</pdfrwt>
<totfact> 0.10095860E+04</totfact>
</mgrwt>
</event>
<event>
 6    4  0.6326233E-003  0.1308083E+03  0.7818608E-02  0.1226261E+00
         -4   -1    0    0    0  501 -0.00000000000E+00  0.00000000000E+00  0.13363903602E+04  0.13363909637E+04  0.12700000000E+01 0. -1.
         21   -1    0    0  501  502  0.00000000000E+00 -0.00000000000E+00 -0.53877073552E+01  0.53877073552E+01  0.00000000000E+00 0. -1.
         25    2    1    2    0    0  0.34126335965E+02  0.17850129889E+02  0.10636832479E+04  0.10716962556E+04  0.12501031357E+03 0.  0.
    9000005    1    3    3    0    0 -0.35152978356E+02 -0.22211843733E+02  0.19803601440E+03  0.20235701344E+03  0.10000000000E+01 0.  0.
    9000005    1    3    3    0    0  0.69279314321E+02  0.40061973622E+02  0.86564723345E+03  0.86933924213E+03  0.10000000000E+01 0.  0.
         -4    1    1    2    0  502 -0.34126335965E+02 -0.17850129889E+02  0.26731940500E+03  0.27008241545E+03  0.12700000000E+01 0.  1.
<mgrwt>
<rscale>  1 0.13080830E+03</rscale>
<asrwt>0</asrwt>
<pdfrwt beam="2">  1       21 0.82887912E-03 0.13080830E+03</pdfrwt>
<pdfrwt beam="1">  1       -4 0.20560981E+00 0.13080830E+03</pdfrwt>
<totfact> 0.27503386E+04</totfact>
</mgrwt>
</event>
<event>
 6    4  0.6326233E-003  0.2525058E+03  0.7818608E-02  0.1111731E+00
         21   -1    0    0  501  502  0.00000000000E+00  0.00000000000E+00  0.43668549615E+03  0.43668549615E+03  0.00000000000E+00 0.  1.
         -4   -1    0    0    0  501 -0.00000000000E+00 -0.00000000000E+00 -0.24217237809E+03  0.24217570814E+03  0.12700000000E+01 0. -1.
         25    2    1    2    0    0  0.38506832414E+02  0.21599060642E+03 -0.13242925128E+03  0.28512570428E+03  0.12499776974E+03 0.  0.
    9000005    1    3    3    0    0 -0.35618682890E+02  0.63709583592E+02 -0.49883997390E+01  0.73167518368E+02  0.10000000000E+01 0.  0.
    9000005    1    3    3    0    0  0.74125515304E+02  0.15228102283E+03 -0.12744085154E+03  0.21195818591E+03  0.10000000000E+01 0.  0.
         -4    1    1    2    0  502 -0.38506832414E+02 -0.21599060642E+03  0.32694236933E+03  0.39373550001E+03  0.12700000000E+01 0.  1.
<mgrwt>
<rscale>  1 0.25250576E+03</rscale>
<asrwt>0</asrwt>
<pdfrwt beam="1">  1       21 0.67182384E-01 0.25250576E+03</pdfrwt>
<pdfrwt beam="2">  1       -4 0.37257687E-01 0.25250576E+03</pdfrwt>
<totfact> 0.59383778E+02</totfact>
</mgrwt>
</event>
<event>
 6    4  0.6326233E-003  0.1305464E+03  0.7818608E-02  0.1226647E+00
         21   -1    0    0  501  502  0.00000000000E+00  0.00000000000E+00  0.75195290627E+03  0.75195290627E+03  0.00000000000E+00 0.  1.
          4   -1    0    0  502    0 -0.00000000000E+00 -0.00000000000E+00 -0.98850629275E+01  0.99663117090E+01  0.12700000000E+01 0.  1.
         25    2    1    2    0    0  0.23193035881E+02  0.29642824341E+02  0.49170112834E+03  0.50873604549E+03  0.12500300167E+03 0.  0.
    9000005    1    3    3    0    0  0.56039533355E+02  0.27671977958E+02  0.11751920913E+03  0.13310872315E+03  0.10000000000E+01 0.  0.
    9000005    1    3    3    0    0 -0.32846497474E+02  0.19708463830E+01  0.37418191920E+03  0.37562732234E+03  0.10000000000E+01 0.  0.
          4    1    1    2  501    0 -0.23193035881E+02 -0.29642824341E+02  0.25036671501E+03  0.25318317249E+03  0.12700000000E+01 0. -1.
<mgrwt>
<rscale>  1 0.13054641E+03</rscale>
<asrwt>0</asrwt>
<pdfrwt beam="1">  1       21 0.11568502E+00 0.13054641E+03</pdfrwt>
<pdfrwt beam="2">  1        4 0.15271119E-02 0.13054641E+03</pdfrwt>
<totfact> 0.36531208E+04</totfact>
</mgrwt>
</event>
<event>
 6    4  0.6326233E-003  0.1294933E+03  0.7818608E-02  0.1228210E+00
         21   -1    0    0  501  502  0.00000000000E+00  0.00000000000E+00  0.34849034549E+02  0.34849034549E+02  0.00000000000E+00 0. -1.
          4   -1    0    0  502    0 -0.00000000000E+00 -0.00000000000E+00 -0.19168969711E+03  0.19169390412E+03  0.12700000000E+01 0. -1.
         25    2    1    2    0    0  0.21419157334E+02  0.26160150905E+02 -0.12811663864E+03  0.18216032669E+03  0.12500151090E+03 0.  0.
    9000005    1    3    3    0    0  0.21496997185E+01  0.75909050630E+02 -0.70391403083E+02  0.10355073541E+03  0.10000000000E+01 0.  0.
    9000005    1    3    3    0    0  0.19269457616E+02 -0.49748899725E+02 -0.57725235554E+02  0.78609591275E+02  0.10000000000E+01 0.  0.
          4    1    1    2  501    0 -0.21419157334E+02 -0.26160150905E+02 -0.28724023925E+02  0.44382611986E+02  0.12700000000E+01 0.  1.
<mgrwt>
<rscale>  1 0.12949329E+03</rscale>
<asrwt>0</asrwt>
<pdfrwt beam="1">  1       21 0.53613899E-02 0.12949329E+03</pdfrwt>
<pdfrwt beam="2">  1        4 0.29492826E-01 0.12949329E+03</pdfrwt>
<totfact> 0.10476317E+05</totfact>
</mgrwt>
</event>
<event>
 6    4  0.6326233E-003  0.1273026E+03  0.7818608E-02  0.1231514E+00
          4   -1    0    0  502    0 -0.00000000000E+00  0.00000000000E+00  0.33568995730E+03  0.33569235965E+03  0.12700000000E+01 0.  1.
         21   -1    0    0  501  502  0.00000000000E+00 -0.00000000000E+00 -0.19511221931E+02  0.19511221931E+02  0.00000000000E+00 0.  1.
         25    2    1    2    0    0  0.19923355773E+02 -0.13559213137E+02  0.30068961084E+03  0.32652748972E+03  0.12500066843E+03 0.  0.
    9000005    1    3    3    0    0  0.28332042395E+02 -0.67228331849E+02  0.17050291713E+03  0.18545780646E+03  0.10000000000E+01 0.  0.
    9000005    1    3    3    0    0 -0.84086866215E+01  0.53669118711E+02  0.13018669371E+03  0.14106968325E+03  0.10000000000E+01 0.  0.
          4    1    1    2  501    0 -0.19923355773E+02  0.13559213137E+02  0.15489124527E+02  0.28676091867E+02  0.12700000000E+01 0. -1.
<mgrwt>
<rscale>  1 0.12730263E+03</rscale>
<asrwt>0</asrwt>
<pdfrwt beam="2">  1       21 0.30017267E-02 0.12730263E+03</pdfrwt>
<pdfrwt beam="1">  1        4 0.51647969E-01 0.12730263E+03</pdfrwt>
<totfact> 0.91347526E+04</totfact>
</mgrwt>
</event>
<event>
 6    4  0.6326233E-003  0.1284782E+03  0.7818608E-02  0.1229731E+00
         21   -1    0    0  501  502  0.00000000000E+00  0.00000000000E+00  0.33631899130E+02  0.33631899130E+02  0.00000000000E+00 0. -1.
          4   -1    0    0  502    0 -0.00000000000E+00 -0.00000000000E+00 -0.94963971564E+03  0.94964056485E+03  0.12700000000E+01 0.  1.
         25    2    1    2    0    0  0.12251209162E+02 -0.27026745735E+02 -0.93772065047E+03  0.94648119913E+03  0.12500441945E+03 0.  0.
    9000005    1    3    3    0    0 -0.28746610639E+02 -0.37506648033E+02 -0.82036348970E+03  0.82172402393E+03  0.10000000000E+01 0.  0.
    9000005    1    3    3    0    0  0.40997819801E+02  0.10479902298E+02 -0.11735716077E+03  0.12475717520E+03  0.10000000000E+01 0.  0.
          4    1    1    2  501    0 -0.12251209162E+02  0.27026745735E+02  0.21712833960E+02  0.36791264854E+02  0.12700000000E+01 0. -1.
<mgrwt>
<rscale>  1 0.12847818E+03</rscale>
<asrwt>0</asrwt>
<pdfrwt beam="1">  1       21 0.51741381E-02 0.12847818E+03</pdfrwt>
<pdfrwt beam="2">  1        4 0.14610033E+00 0.12847818E+03</pdfrwt>
<totfact> 0.35481542E+03</totfact>
</mgrwt>
</event>
<event>
 6    4  0.6326233E-003  0.1275724E+03  0.7818608E-02  0.1231103E+00
         21   -1    0    0  501  502  0.00000000000E+00  0.00000000000E+00  0.42566072632E+03  0.42566072632E+03  0.00000000000E+00 0.  1.
         -4   -1    0    0    0  501 -0.00000000000E+00 -0.00000000000E+00 -0.33330338509E+02  0.33354525407E+02  0.12700000000E+01 0. -1.
         25    2    1    2    0    0 -0.15316249887E+02  0.20383045473E+02  0.91233973978E+02  0.15683861567E+03  0.12499862921E+03 0.  0.
    9000005    1    3    3    0    0  0.48425424404E+02 -0.10061770328E+02  0.12436893522E+02  0.51009188107E+02  0.10000000000E+01 0.  0.
    9000005    1    3    3    0    0 -0.63741674291E+02  0.30444815801E+02  0.78797080456E+02  0.10582942757E+03  0.10000000000E+01 0.  0.
         -4    1    1    2    0  502  0.15316249887E+02 -0.20383045473E+02  0.30109641383E+03  0.30217663605E+03  0.12700000000E+01 0.  1.
<mgrwt>
<rscale>  1 0.12757238E+03</rscale>
<asrwt>0</asrwt>
<pdfrwt beam="1">  1       21 0.65486262E-01 0.12757238E+03</pdfrwt>
<pdfrwt beam="2">  1       -4 0.51297510E-02 0.12757238E+03</pdfrwt>
<totfact> 0.20066470E+04</totfact>
</mgrwt>
</event>
<event>
 6    4  0.6326233E-003  0.1377848E+03  0.7818608E-02  0.1216341E+00
         -4   -1    0    0    0  501 -0.00000000000E+00  0.00000000000E+00  0.91520793456E+02  0.91529604691E+02  0.12700000000E+01 0. -1.
         21   -1    0    0  501  502  0.00000000000E+00 -0.00000000000E+00 -0.10588780788E+03  0.10588780788E+03  0.00000000000E+00 0.  1.
         25    2    1    2    0    0  0.51138608399E+02 -0.27238537562E+02 -0.19836959411E+02  0.13920548599E+03  0.12501026828E+03 0.  0.
    9000005    1    3    3    0    0  0.82449327686E+02 -0.67485594400E+01  0.19401725711E+02  0.84975653284E+02  0.10000000000E+01 0.  0.
    9000005    1    3    3    0    0 -0.31310719287E+02 -0.20489978122E+02 -0.39238685122E+02  0.54229832710E+02  0.10000000000E+01 0.  0.
         -4    1    1    2    0  502 -0.51138608399E+02  0.27238537562E+02  0.54699449875E+01  0.58211926576E+02  0.12700000000E+01 0.  1.
<mgrwt>
<rscale>  1 0.13778484E+03</rscale>
<asrwt>0</asrwt>
<pdfrwt beam="2">  1       21 0.16290432E-01 0.13778484E+03</pdfrwt>
<pdfrwt beam="1">  1       -4 0.14081386E-01 0.13778484E+03</pdfrwt>
<totfact> 0.57615421E+04</totfact>
</mgrwt>
</event>
<event>
 6    4  0.6326233E-003  0.1275126E+03  0.7818608E-02  0.1231194E+00
         21   -1    0    0  501  502  0.00000000000E+00  0.00000000000E+00  0.11807020418E+03  0.11807020418E+03  0.00000000000E+00 0. -1.
         -4   -1    0    0    0  501 -0.00000000000E+00 -0.00000000000E+00 -0.66371419065E+02  0.66383568515E+02  0.12700000000E+01 0.  1.
         25    2    1    2    0    0  0.12689310968E+02  0.21750494590E+02  0.64586401725E+00  0.12751418822E+03  0.12500139371E+03 0.  0.
    9000005    1    3    3    0    0  0.48471756192E+02  0.47885399630E+02 -0.29141243092E+02  0.74112986008E+02  0.10000000000E+01 0.  0.
    9000005    1    3    3    0    0 -0.35782445224E+02 -0.26134905040E+02  0.29787107110E+02  0.53401202211E+02  0.10000000000E+01 0.  0.
         -4    1    1    2    0  502 -0.12689310968E+02 -0.21750494590E+02  0.51052921100E+02  0.56939584479E+02  0.12700000000E+01 0. -1.
<mgrwt>
<rscale>  1 0.12751255E+03</rscale>
<asrwt>0</asrwt>
<pdfrwt beam="1">  1       21 0.18164647E-01 0.12751255E+03</pdfrwt>
<pdfrwt beam="2">  1       -4 0.10212448E-01 0.12751255E+03</pdfrwt>
<totfact> 0.81017234E+04</totfact>
</mgrwt>
</event>
<event>
 6    4  0.6326233E-003  0.1313635E+03  0.7818608E-02  0.1225446E+00
         21   -1    0    0  501  502  0.00000000000E+00  0.00000000000E+00  0.40279165526E+02  0.40279165526E+02  0.00000000000E+00 0. -1.
          4   -1    0    0  502    0 -0.00000000000E+00 -0.00000000000E+00 -0.24844740276E+03  0.24845064870E+03  0.12700000000E+01 0.  1.
         25    2    1    2    0    0  0.89879290266E+01  0.39377705178E+02 -0.21063879989E+03  0.24824397580E+03  0.12499992387E+03 0.  0.
    9000005    1    3    3    0    0  0.39205816175E+02  0.39282627839E+02 -0.26267572021E+02  0.61410147465E+02  0.10000000000E+01 0.  0.
    9000005    1    3    3    0    0 -0.30217887148E+02  0.95077338936E-01 -0.18437122787E+03  0.18683382833E+03  0.10000000000E+01 0.  0.
          4    1    1    2  501    0 -0.89879290266E+01 -0.39377705178E+02  0.24705626555E+01  0.40485838426E+02  0.12700000000E+01 0. -1.
<mgrwt>
<rscale>  1 0.13136349E+03</rscale>
<asrwt>0</asrwt>
<pdfrwt beam="1">  1       21 0.61967947E-02 0.13136349E+03</pdfrwt>
<pdfrwt beam="2">  1        4 0.38224467E-01 0.13136349E+03</pdfrwt>
<totfact> 0.49965588E+04</totfact>
</mgrwt>
</event>
<event>
 6    4  0.6326233E-003  0.1283550E+03  0.7818608E-02  0.1229917E+00
         21   -1    0    0  501  502  0.00000000000E+00  0.00000000000E+00  0.11083720780E+03  0.11083720780E+03  0.00000000000E+00 0.  1.
         -4   -1    0    0    0  501 -0.00000000000E+00 -0.00000000000E+00 -0.10034660680E+03  0.10035464313E+03  0.12700000000E+01 0. -1.
         25    2    1    2    0    0 -0.28560229355E+02 -0.62772781592E+01 -0.54858904728E+02  0.13958695081E+03  0.12497970430E+03 0.  0.
    9000005    1    3    3    0    0  0.38722772731E+02  0.43477872088E+01 -0.59692021707E+02  0.71291611267E+02  0.10000000000E+01 0.  0.
    9000005    1    3    3    0    0 -0.67283002085E+02 -0.10625065368E+02  0.48331169792E+01  0.68295339544E+02  0.10000000000E+01 0.  0.
         -4    1    1    2    0  502  0.28560229355E+02  0.62772781592E+01  0.65349505728E+02  0.71604900117E+02  0.12700000000E+01 0.  1.
<mgrwt>
<rscale>  1 0.12835504E+03</rscale>
<asrwt>0</asrwt>
<pdfrwt beam="1">  1       21 0.17051878E-01 0.12835504E+03</pdfrwt>
<pdfrwt beam="2">  1       -4 0.15439117E-01 0.12835504E+03</pdfrwt>
<totfact> 0.44781311E+04</totfact>
</mgrwt>
</event>
<event>
 6    4  0.6326233E-003  0.1270276E+03  0.7818608E-02  0.1231934E+00
         -4   -1    0    0    0  501 -0.00000000000E+00  0.00000000000E+00  0.95970688515E+03  0.95970772546E+03  0.12700000000E+01 0.  1.
         21   -1    0    0  501  502  0.00000000000E+00 -0.00000000000E+00 -0.59028179635E+01  0.59028179635E+01  0.00000000000E+00 0.  1.
         25    2    1    2    0    0 -0.19282493224E+02 -0.11794426139E+02  0.76833396920E+03  0.77876383305E+03  0.12500038557E+03 0.  0.
    9000005    1    3    3    0    0 -0.71666471338E+02 -0.34846429633E+01  0.51146736857E+03  0.51647661609E+03  0.10000000000E+01 0.  0.
    9000005    1    3    3    0    0  0.52383978115E+02 -0.83097831757E+01  0.25686660063E+03  0.26228721696E+03  0.10000000000E+01 0.  0.
         -4    1    1    2    0  502  0.19282493224E+02  0.11794426139E+02  0.18547009798E+03  0.18684671037E+03  0.12700000000E+01 0. -1.
<mgrwt>
<rscale>  1 0.12702763E+03</rscale>
<asrwt>0</asrwt>
<pdfrwt beam="2">  1       21 0.90812661E-03 0.12702763E+03</pdfrwt>
<pdfrwt beam="1">  1       -4 0.14765766E+00 0.12702763E+03</pdfrwt>
<totfact> 0.57909789E+04</totfact>
</mgrwt>
</event>
<event>
 6    4  0.6326233E-003  0.1266363E+03  0.7818608E-02  0.1232534E+00
          4   -1    0    0  502    0 -0.00000000000E+00  0.00000000000E+00  0.18426187742E+04  0.18426192119E+04  0.12700000000E+01 0. -1.
         21   -1    0    0  501  502  0.00000000000E+00 -0.00000000000E+00 -0.91251803852E+01  0.91251803852E+01  0.00000000000E+00 0.  1.
         25    2    1    2    0    0 -0.15840512006E+02  0.12693223188E+02  0.18255068282E+04  0.18298939675E+04  0.12499885141E+03 0.  0.
    9000005    1    3    3    0    0 -0.42806259488E+02 -0.43878536053E+02  0.10892797007E+04  0.10910036518E+04  0.10000000000E+01 0.  0.
    9000005    1    3    3    0    0  0.26965747482E+02  0.56571759241E+02  0.73622712750E+03  0.73889031577E+03  0.10000000000E+01 0.  0.
          4    1    1    2  501    0  0.15840512006E+02 -0.12693223188E+02  0.79867656123E+01  0.21850424720E+02  0.12700000000E+01 0.  1.
<mgrwt>
<rscale>  1 0.12663630E+03</rscale>
<asrwt>0</asrwt>
<pdfrwt beam="2">  1       21 0.14038754E-02 0.12663630E+03</pdfrwt>
<pdfrwt beam="1">  1        4 0.28348635E+00 0.12663630E+03</pdfrwt>
<totfact> 0.41981553E+03</totfact>
</mgrwt>
</event>
<event>
 6    4  0.6326233E-003  0.1268504E+03  0.7818608E-02  0.1232205E+00
          4   -1    0    0  502    0 -0.00000000000E+00  0.00000000000E+00  0.18292573144E+03  0.18293014001E+03  0.12700000000E+01 0.  1.
         21   -1    0    0  501  502  0.00000000000E+00 -0.00000000000E+00 -0.30833055815E+02  0.30833055815E+02  0.00000000000E+00 0.  1.
         25    2    1    2    0    0 -0.10535809248E+02 -0.19031730826E+02  0.13968679159E+03  0.18868872846E+03  0.12497130250E+03 0.  0.
    9000005    1    3    3    0    0 -0.44295175479E+02 -0.67290779713E+01  0.14552816160E+03  0.15227208832E+03  0.10000000000E+01 0.  0.
    9000005    1    3    3    0    0  0.33759366230E+02 -0.12302652855E+02 -0.58413700130E+01  0.36416640141E+02  0.10000000000E+01 0.  0.
          4    1    1    2  501    0  0.10535809248E+02  0.19031730826E+02  0.12405884032E+02  0.25074467360E+02  0.12700000000E+01 0. -1.
<mgrwt>
<rscale>  1 0.12685045E+03</rscale>
<asrwt>0</asrwt>
<pdfrwt beam="2">  1       21 0.47435472E-02 0.12685045E+03</pdfrwt>
<pdfrwt beam="1">  1        4 0.28144771E-01 0.12685045E+03</pdfrwt>
<totfact> 0.14006640E+05</totfact>
</mgrwt>
</event>
<event>
 6    4  0.6326233E-003  0.1293606E+03  0.7818608E-02  0.1228408E+00
         21   -1    0    0  501  502  0.00000000000E+00  0.00000000000E+00  0.10661885868E+03  0.10661885868E+03  0.00000000000E+00 0.  1.
         -4   -1    0    0    0  501 -0.00000000000E+00 -0.00000000000E+00 -0.67361944697E+02  0.67373915526E+02  0.12700000000E+01 0.  1.
         25    2    1    2    0    0  0.22544835498E+02  0.24594019949E+02  0.50344800168E+02  0.13881196204E+03  0.12498410489E+03 0.  0.
    9000005    1    3    3    0    0  0.11713898783E+02 -0.50713892150E+02  0.29855471432E+02  0.60012194229E+02  0.10000000000E+01 0.  0.
    9000005    1    3    3    0    0  0.10830936715E+02  0.75307912099E+02  0.20489328737E+02  0.78799767810E+02  0.10000000000E+01 0.  0.
         -4    1    1    2    0  502 -0.22544835498E+02 -0.24594019949E+02 -0.11087886184E+02  0.35180812169E+02  0.12700000000E+01 0. -1.
<mgrwt>
<rscale>  1 0.12936059E+03</rscale>
<asrwt>0</asrwt>
<pdfrwt beam="1">  1       21 0.16402901E-01 0.12936059E+03</pdfrwt>
<pdfrwt beam="2">  1       -4 0.10364879E-01 0.12936059E+03</pdfrwt>
<totfact> 0.95360457E+04</totfact>
</mgrwt>
</event>
<event>
 6    4  0.6326233E-003  0.1286365E+03  0.7818608E-02  0.1229493E+00
         21   -1    0    0  501  502  0.00000000000E+00  0.00000000000E+00  0.21022121185E+02  0.21022121185E+02  0.00000000000E+00 0.  1.
         -4   -1    0    0    0  501 -0.00000000000E+00 -0.00000000000E+00 -0.38930535582E+03  0.38930742732E+03  0.12700000000E+01 0.  1.
         25    2    1    2    0    0  0.25731308460E+02 -0.16141979879E+02 -0.35417809685E+03  0.37681490154E+03  0.12499872794E+03 0.  0.
    9000005    1    3    3    0    0 -0.28837143629E+02  0.39965276912E+02 -0.11389826353E+03  0.12410728683E+03  0.10000000000E+01 0.  0.
    9000005    1    3    3    0    0  0.54568452089E+02 -0.56107256791E+02 -0.24027983332E+03  0.25270761470E+03  0.10000000000E+01 0.  0.
         -4    1    1    2    0  502 -0.25731308460E+02  0.16141979879E+02 -0.14105137785E+02  0.33514646968E+02  0.12700000000E+01 0. -1.
<mgrwt>
<rscale>  1 0.12863649E+03</rscale>
<asrwt>0</asrwt>
<pdfrwt beam="1">  1       21 0.32341722E-02 0.12863649E+03</pdfrwt>
<pdfrwt beam="2">  1       -4 0.59896247E-01 0.12863649E+03</pdfrwt>
<totfact> 0.59553836E+04</totfact>
</mgrwt>
</event>
<event>
 6    4  0.6326233E-003  0.1271102E+03  0.7818608E-02  0.1231808E+00
         21   -1    0    0  501  502  0.00000000000E+00  0.00000000000E+00  0.16628681559E+03  0.16628681559E+03  0.00000000000E+00 0.  1.
         -4   -1    0    0    0  501 -0.00000000000E+00 -0.00000000000E+00 -0.34489333287E+02  0.34512707958E+02  0.12700000000E+01 0.  1.
         25    2    1    2    0    0 -0.99926040323E+01 -0.20811643797E+02  0.12015699468E+03  0.17491341714E+03  0.12499609382E+03 0.  0.
    9000005    1    3    3    0    0 -0.26814099113E+02 -0.51060111161E+02  0.12712012497E+03  0.13959461679E+03  0.10000000000E+01 0.  0.
    9000005    1    3    3    0    0  0.16821495081E+02  0.30248467363E+02 -0.69631302919E+01  0.35318800348E+02  0.10000000000E+01 0.  0.
         -4    1    1    2    0  502  0.99926040323E+01  0.20811643797E+02  0.11640487616E+02  0.25886106406E+02  0.12700000000E+01 0. -1.
<mgrwt>
<rscale>  1 0.12711019E+03</rscale>
<asrwt>0</asrwt>
<pdfrwt beam="1">  1       21 0.25582587E-01 0.12711019E+03</pdfrwt>
<pdfrwt beam="2">  1       -4 0.53082225E-02 0.12711019E+03</pdfrwt>
<totfact> 0.12567955E+05</totfact>
</mgrwt>
</event>
<event>
 6    4  0.6326233E-003  0.1318254E+03  0.7818608E-02  0.1224772E+00
         21   -1    0    0  501  502  0.00000000000E+00  0.00000000000E+00  0.31189968694E+03  0.31189968694E+03  0.00000000000E+00 0.  1.
          4   -1    0    0  502    0 -0.00000000000E+00 -0.00000000000E+00 -0.28894083962E+02  0.28921981053E+02  0.12700000000E+01 0.  1.
         25    2    1    2    0    0 -0.41812616437E+02  0.21137954530E+01  0.14213670440E+03  0.19385765025E+03  0.12500073119E+03 0.  0.
    9000005    1    3    3    0    0 -0.48125434864E+02 -0.55723221283E+02  0.78987594901E+02  0.10798692059E+03  0.10000000000E+01 0.  0.
    9000005    1    3    3    0    0  0.63128184272E+01  0.57837016736E+02  0.63149109503E+02  0.85870729661E+02  0.10000000000E+01 0.  0.
          4    1    1    2  501    0  0.41812616437E+02 -0.21137954530E+01  0.14086889858E+03  0.14696401774E+03  0.12700000000E+01 0. -1.
<mgrwt>
<rscale>  1 0.13182544E+03</rscale>
<asrwt>0</asrwt>
<pdfrwt beam="1">  1       21 0.47984565E-01 0.13182544E+03</pdfrwt>
<pdfrwt beam="2">  1        4 0.44475887E-02 0.13182544E+03</pdfrwt>
<totfact> 0.48633684E+04</totfact>
</mgrwt>
</event>
<event>
 6    4  0.6326233E-003  0.1283724E+03  0.7818608E-02  0.1229891E+00
         21   -1    0    0  501  502  0.00000000000E+00  0.00000000000E+00  0.10697576323E+04  0.10697576323E+04  0.00000000000E+00 0.  1.
          4   -1    0    0  502    0 -0.00000000000E+00 -0.00000000000E+00 -0.12232634257E+02  0.12298383669E+02  0.12700000000E+01 0. -1.
         25    2    1    2    0    0 -0.27756351891E+02  0.91834527297E+01  0.33219908503E+03  0.35614001265E+03  0.12499890258E+03 0.  0.
    9000005    1    3    3    0    0 -0.41575475265E+02 -0.33108796353E+02  0.59308362328E+02  0.79644173557E+02  0.10000000000E+01 0.  0.
    9000005    1    3    3    0    0  0.13819123374E+02  0.42292249083E+02  0.27289072270E+03  0.27649583910E+03  0.10000000000E+01 0.  0.
          4    1    1    2  501    0  0.27756351891E+02 -0.91834527297E+01  0.72532591300E+03  0.72591600330E+03  0.12700000000E+01 0.  1.
<mgrwt>
<rscale>  1 0.12837241E+03</rscale>
<asrwt>0</asrwt>
<pdfrwt beam="1">  1       21 0.16457802E+00 0.12837241E+03</pdfrwt>
<pdfrwt beam="2">  1        4 0.18870602E-02 0.12837241E+03</pdfrwt>
<totfact> 0.10801563E+04</totfact>
</mgrwt>
</event>
<event>
 6    4  0.6326233E-003  0.1285143E+03  0.7818608E-02  0.1229677E+00
         -4   -1    0    0    0  501 -0.00000000000E+00  0.00000000000E+00  0.95825597681E+01  0.96663515201E+01  0.12700000000E+01 0.  1.
         21   -1    0    0  501  502  0.00000000000E+00 -0.00000000000E+00 -0.65901748306E+03  0.65901748306E+03  0.00000000000E+00 0.  1.
         25    2    1    2    0    0 -0.33165163293E+01 -0.29669135652E+02 -0.49692200398E+03  0.51327128570E+03  0.12499871119E+03 0.  0.
    9000005    1    3    3    0    0 -0.18368400908E+02  0.39215335305E+02 -0.85461333479E+02  0.95811691327E+02  0.10000000000E+01 0.  0.
    9000005    1    3    3    0    0  0.15051884579E+02 -0.68884470957E+02 -0.41146067050E+03  0.41745959438E+03  0.10000000000E+01 0.  0.
         -4    1    1    2    0  502  0.33165163293E+01  0.29669135652E+02 -0.15251291931E+03  0.15541254887E+03  0.12700000000E+01 0. -1.
<mgrwt>
<rscale>  1 0.12851434E+03</rscale>
<asrwt>0</asrwt>
<pdfrwt beam="2">  1       21 0.10138733E+00 0.12851434E+03</pdfrwt>
<pdfrwt beam="1">  1       -4 0.14807792E-02 0.12851434E+03</pdfrwt>
<totfact> 0.52351181E+04</totfact>
</mgrwt>
</event>
<event>
 6    4  0.6326233E-003  0.1266191E+03  0.7818608E-02  0.1232560E+00
         21   -1    0    0  501  502  0.00000000000E+00  0.00000000000E+00  0.15156105758E+04  0.15156105758E+04  0.00000000000E+00 0. -1.
          4   -1    0    0  502    0 -0.00000000000E+00 -0.00000000000E+00 -0.77366801162E+01  0.78402244369E+01  0.12700000000E+01 0.  1.
         25    2    1    2    0    0 -0.10953277833E+02 -0.16946550226E+02  0.51381820694E+03  0.52918952417E+03  0.12500097139E+03 0.  0.
    9000005    1    3    3    0    0  0.98279103847E+01  0.51397880587E+02  0.27410289033E+03  0.27905505629E+03  0.10000000000E+01 0.  0.
    9000005    1    3    3    0    0 -0.20781188218E+02 -0.68344430813E+02  0.23971531661E+03  0.25013446789E+03  0.10000000000E+01 0.  0.
          4    1    1    2  501    0  0.10953277833E+02  0.16946550226E+02  0.99405568872E+03  0.99426127605E+03  0.12700000000E+01 0. -1.
<mgrwt>
<rscale>  1 0.12661912E+03</rscale>
<asrwt>0</asrwt>
<pdfrwt beam="1">  1       21 0.23317062E+00 0.12661912E+03</pdfrwt>
<pdfrwt beam="2">  1        4 0.11982656E-02 0.12661912E+03</pdfrwt>
<totfact> 0.79089899E+03</totfact>
</mgrwt>
</event>
<event>
 6    4  0.6326233E-003  0.1298400E+03  0.7818608E-02  0.1227693E+00
         21   -1    0    0  501  502  0.00000000000E+00  0.00000000000E+00  0.21375001571E+03  0.21375001571E+03  0.00000000000E+00 0.  1.
          4   -1    0    0  502    0 -0.00000000000E+00 -0.00000000000E+00 -0.37008240968E+02  0.37030025649E+02  0.12700000000E+01 0.  1.
         25    2    1    2    0    0  0.14514816959E+02  0.31962989423E+02  0.92243505726E+02  0.15927111846E+03  0.12500444881E+03 0.  0.
    9000005    1    3    3    0    0  0.99155780259E+00  0.86107314788E+01  0.12013369803E+03  0.12045012779E+03  0.10000000000E+01 0.  0.
    9000005    1    3    3    0    0  0.13523259157E+02  0.23352257944E+02 -0.27890192303E+02  0.38820990662E+02  0.10000000000E+01 0.  0.
          4    1    1    2  501    0 -0.14514816959E+02 -0.31962989423E+02  0.84498269020E+02  0.91508922907E+02  0.12700000000E+01 0. -1.
<mgrwt>
<rscale>  1 0.12984000E+03</rscale>
<asrwt>0</asrwt>
<pdfrwt beam="1">  1       21 0.32884617E-01 0.12984000E+03</pdfrwt>
<pdfrwt beam="2">  1        4 0.56955416E-02 0.12984000E+03</pdfrwt>
<totfact> 0.69433652E+04</totfact>
</mgrwt>
</event>
<event>
 6    4  0.6326233E-003  0.1324552E+03  0.7818608E-02  0.1223857E+00
         -4   -1    0    0    0  501 -0.00000000000E+00  0.00000000000E+00  0.78086977274E+03  0.78087080550E+03  0.12700000000E+01 0.  1.
         21   -1    0    0  501  502  0.00000000000E+00 -0.00000000000E+00 -0.16794205585E+02  0.16794205585E+02  0.00000000000E+00 0. -1.
         25    2    1    2    0    0 -0.48006074738E+01  0.43528435829E+02  0.73065059786E+03  0.74255954829E+03  0.12500646398E+03 0.  0.
    9000005    1    3    3    0    0  0.22886410055E+02 -0.22597540914E+02  0.49973491009E+03  0.50076982435E+03  0.10000000000E+01 0.  0.
    9000005    1    3    3    0    0 -0.27687017529E+02  0.66125976744E+02  0.23091568777E+03  0.24178972393E+03  0.10000000000E+01 0.  0.
         -4    1    1    2    0  502  0.48006074738E+01 -0.43528435829E+02  0.33424969292E+02  0.55105462797E+02  0.12700000000E+01 0. -1.
<mgrwt>
<rscale>  1 0.13245522E+03</rscale>
<asrwt>0</asrwt>
<pdfrwt beam="2">  1       21 0.25837245E-02 0.13245522E+03</pdfrwt>
<pdfrwt beam="1">  1       -4 0.12013756E+00 0.13245522E+03</pdfrwt>
<totfact> 0.18177466E+04</totfact>
</mgrwt>
</event>
<event>
 6    4  0.6326233E-003  0.1290152E+03  0.7818608E-02  0.1228924E+00
         -4   -1    0    0    0  501 -0.00000000000E+00  0.00000000000E+00  0.20650881485E+02  0.20689896232E+02  0.12700000000E+01 0.  1.
         21   -1    0    0  501  502  0.00000000000E+00 -0.00000000000E+00 -0.60439607366E+03  0.60439607366E+03  0.00000000000E+00 0. -1.
         25    2    1    2    0    0  0.82771690185E+01  0.30825274573E+02 -0.18775079132E+03  0.22780535435E+03  0.12500484290E+03 0.  0.
    9000005    1    3    3    0    0 -0.20898203345E+02  0.22080468673E+02  0.65613747847E+01  0.31118059691E+02  0.10000000000E+01 0.  0.
    9000005    1    3    3    0    0  0.29175372363E+02  0.87448059000E+01 -0.19431216610E+03  0.19668729465E+03  0.10000000000E+01 0.  0.
         -4    1    1    2    0  502 -0.82771690185E+01 -0.30825274573E+02 -0.39599440085E+03  0.39728061554E+03  0.12700000000E+01 0. -1.
<mgrwt>
<rscale>  1 0.12901519E+03</rscale>
<asrwt>0</asrwt>
<pdfrwt beam="2">  1       21 0.92984017E-01 0.12901519E+03</pdfrwt>
<pdfrwt beam="1">  1       -4 0.31801623E-02 0.12901519E+03</pdfrwt>
<totfact> 0.19669026E+04</totfact>
</mgrwt>
</event>
<event>
 6    4  0.6326233E-003  0.1279989E+03  0.7818608E-02  0.1230456E+00
          4   -1    0    0  502    0 -0.00000000000E+00  0.00000000000E+00  0.42666284942E+03  0.42666473955E+03  0.12700000000E+01 0.  1.
         21   -1    0    0  501  502  0.00000000000E+00 -0.00000000000E+00 -0.20220863518E+02  0.20220863518E+02  0.00000000000E+00 0. -1.
         25    2    1    2    0    0  0.23537393198E+02  0.14316085268E+02  0.39795107223E+03  0.41802962118E+03  0.12499899647E+03 0.  0.
    9000005    1    3    3    0    0  0.18474343648E+02 -0.28371887473E+02  0.23754789314E+02  0.41370948591E+02  0.10000000000E+01 0.  0.
    9000005    1    3    3    0    0  0.50630495503E+01  0.42687972741E+02  0.37419628292E+03  0.37665867259E+03  0.10000000000E+01 0.  0.
          4    1    1    2  501    0 -0.23537393198E+02 -0.14316085268E+02  0.84909136765E+01  0.28855981893E+02  0.12700000000E+01 0. -1.
<mgrwt>
<rscale>  1 0.12799886E+03</rscale>
<asrwt>0</asrwt>
<pdfrwt beam="2">  1       21 0.31109024E-02 0.12799886E+03</pdfrwt>
<pdfrwt beam="1">  1        4 0.65643645E-01 0.12799886E+03</pdfrwt>
<totfact> 0.52270449E+04</totfact>
</mgrwt>
</event>
<event>
 6    4  0.6326233E-003  0.1269365E+03  0.7818608E-02  0.1232073E+00
         -4   -1    0    0    0  501 -0.00000000000E+00  0.00000000000E+00  0.16314904958E+02  0.16364260564E+02  0.12700000000E+01 0.  1.
         21   -1    0    0  501  502  0.00000000000E+00 -0.00000000000E+00 -0.45532954955E+03  0.45532954955E+03  0.00000000000E+00 0.  1.
         25    2    1    2    0    0  0.22000640919E+02 -0.19185673366E+01 -0.24043375978E+03  0.27188467666E+03  0.12500070182E+03 0.  0.
    9000005    1    3    3    0    0 -0.80145371709E+01  0.16584721921E+02 -0.23555301625E+03  0.23627422473E+03  0.10000000000E+01 0.  0.
    9000005    1    3    3    0    0  0.30015178090E+02 -0.18503289257E+02 -0.48807435355E+01  0.35610451929E+02  0.10000000000E+01 0.  0.
         -4    1    1    2    0  502 -0.22000640919E+02  0.19185673366E+01 -0.19858088481E+03  0.19980913346E+03  0.12700000000E+01 0. -1.
<mgrwt>
<rscale>  1 0.12693654E+03</rscale>
<asrwt>0</asrwt>
<pdfrwt beam="2">  1       21 0.70050695E-01 0.12693654E+03</pdfrwt>
<pdfrwt beam="1">  1       -4 0.25139184E-02 0.12693654E+03</pdfrwt>
<totfact> 0.53428253E+04</totfact>
</mgrwt>
</event>
<event>
 6    4  0.6326233E-003  0.1308324E+03  0.7818608E-02  0.1226226E+00
         21   -1    0    0  501  502  0.00000000000E+00  0.00000000000E+00  0.89790113816E+02  0.89790113816E+02  0.00000000000E+00 0.  1.
          4   -1    0    0  502    0 -0.00000000000E+00 -0.00000000000E+00 -0.92210190473E+02  0.92218935837E+02  0.12700000000E+01 0. -1.
         25    2    1    2    0    0  0.40992169968E+01 -0.38391291103E+02 -0.30390595108E+02  0.13431567889E+03  0.12500567392E+03 0.  0.
    9000005    1    3    3    0    0  0.30594594696E+02  0.27857067145E+02 -0.45360238475E+02  0.61405184220E+02  0.10000000000E+01 0.  0.
    9000005    1    3    3    0    0 -0.26495377699E+02 -0.66248358249E+02  0.14969643367E+02  0.72910494667E+02  0.10000000000E+01 0.  0.
          4    1    1    2  501    0 -0.40992169968E+01  0.38391291103E+02  0.27970518452E+02  0.47693370766E+02  0.12700000000E+01 0.  1.
<mgrwt>
<rscale>  1 0.13083239E+03</rscale>
<asrwt>0</asrwt>
<pdfrwt beam="1">  1       21 0.13813864E-01 0.13083239E+03</pdfrwt>
<pdfrwt beam="2">  1        4 0.14187547E-01 0.13083239E+03</pdfrwt>
<totfact> 0.76090664E+04</totfact>
</mgrwt>
</event>
<event>
 6    4  0.6326233E-003  0.1294091E+03  0.7818608E-02  0.1228335E+00
         -4   -1    0    0    0  501 -0.00000000000E+00  0.00000000000E+00  0.27654675654E+03  0.27654967267E+03  0.12700000000E+01 0.  1.
         21   -1    0    0  501  502  0.00000000000E+00 -0.00000000000E+00 -0.24604190954E+02  0.24604190954E+02  0.00000000000E+00 0.  1.
         25    2    1    2    0    0  0.32174670199E+02  0.92967802738E+01  0.21756477677E+03  0.25314256506E+03  0.12500034651E+03 0.  0.
    9000005    1    3    3    0    0 -0.45003596267E+02 -0.12991892840E+02  0.10365799041E+03  0.11375452489E+03  0.10000000000E+01 0.  0.
    9000005    1    3    3    0    0  0.77178266467E+02  0.22288673114E+02  0.11390678636E+03  0.13938804017E+03  0.10000000000E+01 0.  0.
         -4    1    1    2    0  502 -0.32174670199E+02 -0.92967802738E+01  0.34377788822E+02  0.48011298568E+02  0.12700000000E+01 0. -1.
<mgrwt>
<rscale>  1 0.12940914E+03</rscale>
<asrwt>0</asrwt>
<pdfrwt beam="2">  1       21 0.37852604E-02 0.12940914E+03</pdfrwt>
<pdfrwt beam="1">  1       -4 0.42548398E-01 0.12940914E+03</pdfrwt>
<totfact> 0.92311569E+04</totfact>
</mgrwt>
</event>
<event>
 6    4  0.6326233E-003  0.1450202E+03  0.7818608E-02  0.1206729E+00
          4   -1    0    0  502    0 -0.00000000000E+00  0.00000000000E+00  0.36801918889E+03  0.36802138021E+03  0.12700000000E+01 0. -1.
         21   -1    0    0  501  502  0.00000000000E+00 -0.00000000000E+00 -0.34555163883E+02  0.34555163883E+02  0.00000000000E+00 0. -1.
         25    2    1    2    0    0 -0.32322521314E+02  0.66046196594E+02  0.17080706983E+03  0.22406675882E+03  0.12499604729E+03 0.  0.
    9000005    1    3    3    0    0 -0.21233745787E+02  0.19580177870E+02  0.17380504042E+03  0.17619150774E+03  0.10000000000E+01 0.  0.
    9000005    1    3    3    0    0 -0.11088775527E+02  0.46466018724E+02 -0.29979705882E+01  0.47875251085E+02  0.10000000000E+01 0.  0.
          4    1    1    2  501    0  0.32322521314E+02 -0.66046196594E+02  0.16265695518E+03  0.17850978527E+03  0.12700000000E+01 0.  1.
<mgrwt>
<rscale>  1 0.14502020E+03</rscale>
<asrwt>0</asrwt>
<pdfrwt beam="2">  1       21 0.53161793E-02 0.14502020E+03</pdfrwt>
<pdfrwt beam="1">  1        4 0.56620298E-01 0.14502020E+03</pdfrwt>
<totfact> 0.29689164E+04</totfact>
</mgrwt>
</event>
<event>
 6    4  0.6326233E-003  0.1296429E+03  0.7818608E-02  0.1227987E+00
         21   -1    0    0  501  502  0.00000000000E+00  0.00000000000E+00  0.30898682624E+02  0.30898682624E+02  0.00000000000E+00 0. -1.
         -4   -1    0    0    0  501 -0.00000000000E+00 -0.00000000000E+00 -0.22970045396E+03  0.22970396481E+03  0.12700000000E+01 0. -1.
         25    2    1    2    0    0 -0.37117930731E+01 -0.34176335034E+02 -0.17865309564E+03  0.22073560194E+03  0.12500191238E+03 0.  0.
    9000005    1    3    3    0    0 -0.43603806948E+02 -0.19076570837E+02 -0.17085493352E+03  0.17736294947E+03  0.10000000000E+01 0.  0.
    9000005    1    3    3    0    0  0.39892013875E+02 -0.15099764197E+02 -0.77981621143E+01  0.43372652469E+02  0.10000000000E+01 0.  0.
         -4    1    1    2    0  502  0.37117930731E+01  0.34176335034E+02 -0.20148675697E+02  0.39867045495E+02  0.12700000000E+01 0.  1.
<mgrwt>
<rscale>  1 0.12964288E+03</rscale>
<asrwt>0</asrwt>
<pdfrwt beam="1">  1       21 0.47536435E-02 0.12964288E+03</pdfrwt>
<pdfrwt beam="2">  1       -4 0.35340809E-01 0.12964288E+03</pdfrwt>
<totfact> 0.90841969E+04</totfact>
</mgrwt>
</event>
<event>
 6    4  0.6326233E-003  0.1269527E+03  0.7818608E-02  0.1232049E+00
         -4   -1    0    0    0  501 -0.00000000000E+00  0.00000000000E+00  0.95277836269E+01  0.96120528942E+01  0.12700000000E+01 0. -1.
         21   -1    0    0  501  502  0.00000000000E+00 -0.00000000000E+00 -0.68825471179E+03  0.68825471179E+03  0.00000000000E+00 0. -1.
         25    2    1    2    0    0  0.87394002579E+01 -0.20405737396E+02 -0.43553116976E+03  0.45365668905E+03  0.12499688177E+03 0.  0.
    9000005    1    3    3    0    0  0.15655527638E+02 -0.54527013598E+01 -0.43678794370E+03  0.43710357498E+03  0.10000000000E+01 0.  0.
    9000005    1    3    3    0    0 -0.69161273797E+01 -0.14953036036E+02  0.12567739436E+01  0.16553114068E+02  0.10000000000E+01 0.  0.
         -4    1    1    2    0  502 -0.87394002579E+01  0.20405737396E+02 -0.24319575841E+03  0.24421007564E+03  0.12700000000E+01 0.  1.
<mgrwt>
<rscale>  1 0.12695271E+03</rscale>
<asrwt>0</asrwt>
<pdfrwt beam="2">  1       21 0.10588539E+00 0.12695271E+03</pdfrwt>
<pdfrwt beam="1">  1       -4 0.14723846E-02 0.12695271E+03</pdfrwt>
<totfact> 0.47601217E+04</totfact>
</mgrwt>
</event>
<event>
 6    4  0.6326233E-003  0.1298046E+03  0.7818608E-02  0.1227746E+00
          4   -1    0    0  502    0 -0.00000000000E+00  0.00000000000E+00  0.72193202437E+02  0.72204372292E+02  0.12700000000E+01 0. -1.
         21   -1    0    0  501  502  0.00000000000E+00 -0.00000000000E+00 -0.98015386108E+02  0.98015386108E+02  0.00000000000E+00 0. -1.
         25    2    1    2    0    0  0.26009872048E+02 -0.23404602091E+02 -0.59062776119E+01  0.12993893099E+03  0.12499981131E+03 0.  0.
    9000005    1    3    3    0    0  0.64623890036E+02  0.23677525083E+02 -0.53044760895E+01  0.69036293527E+02  0.10000000000E+01 0.  0.
    9000005    1    3    3    0    0 -0.38614017988E+02 -0.47082127174E+02 -0.60180152235E+00  0.60902637459E+02  0.10000000000E+01 0.  0.
          4    1    1    2  501    0 -0.26009872048E+02  0.23404602091E+02 -0.19915906058E+02  0.40280827414E+02  0.12700000000E+01 0.  1.
<mgrwt>
<rscale>  1 0.12980463E+03</rscale>
<asrwt>0</asrwt>
<pdfrwt beam="2">  1       21 0.15079290E-01 0.12980463E+03</pdfrwt>
<pdfrwt beam="1">  1        4 0.11108139E-01 0.12980463E+03</pdfrwt>
<totfact> 0.98807941E+04</totfact>
</mgrwt>
</event>
<event>
 6    4  0.6326233E-003  0.1276018E+03  0.7818608E-02  0.1231058E+00
          4   -1    0    0  502    0 -0.00000000000E+00  0.00000000000E+00  0.89053628341E+01  0.89954648133E+01  0.12700000000E+01 0.  1.
         21   -1    0    0  501  502  0.00000000000E+00 -0.00000000000E+00 -0.77634046643E+03  0.77634046643E+03  0.00000000000E+00 0.  1.
         25    2    1    2    0    0  0.21808580041E+02 -0.13502863574E+02 -0.47716197188E+03  0.49392892141E+03  0.12499716197E+03 0.  0.
    9000005    1    3    3    0    0  0.34551703628E+02 -0.63219358219E+02 -0.33816483510E+03  0.34575564084E+03  0.10000000000E+01 0.  0.
    9000005    1    3    3    0    0 -0.12743123587E+02  0.49716494646E+02 -0.13899713679E+03  0.14817328057E+03  0.10000000000E+01 0.  0.
          4    1    1    2  501    0 -0.21808580041E+02  0.13502863574E+02 -0.29027313171E+03  0.29140700983E+03  0.12700000000E+01 0. -1.
<mgrwt>
<rscale>  1 0.12760185E+03</rscale>
<asrwt>0</asrwt>
<pdfrwt beam="2">  1       21 0.11943700E+00 0.12760185E+03</pdfrwt>
<pdfrwt beam="1">  1        4 0.13770666E-02 0.12760185E+03</pdfrwt>
<totfact> 0.39500216E+04</totfact>
</mgrwt>
</event>
<event>
 6    4  0.6326233E-003  0.1277279E+03  0.7818608E-02  0.1230867E+00
         21   -1    0    0  501  502  0.00000000000E+00  0.00000000000E+00  0.56092439574E+03  0.56092439574E+03  0.00000000000E+00 0.  1.
         -4   -1    0    0    0  501 -0.00000000000E+00 -0.00000000000E+00 -0.14034524867E+02  0.14091869580E+02  0.12700000000E+01 0.  1.
         25    2    1    2    0    0 -0.23205783223E+02 -0.12564794546E+02  0.29140067576E+03  0.31816470477E+03  0.12497216927E+03 0.  0.
    9000005    1    3    3    0    0 -0.68532026456E+02 -0.72761068623E+01  0.23866836210E+03  0.24842135063E+03  0.10000000000E+01 0.  0.
    9000005    1    3    3    0    0  0.45326243233E+02 -0.52886876834E+01  0.52732313663E+02  0.69743354144E+02  0.10000000000E+01 0.  0.
         -4    1    1    2    0  502  0.23205783223E+02  0.12564794546E+02  0.25548919511E+03  0.25685156054E+03  0.12700000000E+01 0. -1.
<mgrwt>
<rscale>  1 0.12772794E+03</rscale>
<asrwt>0</asrwt>
<pdfrwt beam="1">  1       21 0.86296044E-01 0.12772794E+03</pdfrwt>
<pdfrwt beam="2">  1       -4 0.21636798E-02 0.12772794E+03</pdfrwt>
<totfact> 0.42426532E+04</totfact>
</mgrwt>
</event>
<event>
 6    4  0.6326233E-003  0.1286871E+03  0.7818608E-02  0.1229417E+00
         -4   -1    0    0    0  501 -0.00000000000E+00  0.00000000000E+00  0.13247842003E+03  0.13248450730E+03  0.12700000000E+01 0.  1.
         21   -1    0    0  501  502  0.00000000000E+00 -0.00000000000E+00 -0.70830557418E+02  0.70830557418E+02  0.00000000000E+00 0.  1.
         25    2    1    2    0    0  0.23779097258E+02 -0.19253515391E+02  0.93547411016E+02  0.15909586742E+03  0.12499693437E+03 0.  0.
    9000005    1    3    3    0    0 -0.10693906799E+02  0.47005108487E+01  0.11244113678E+03  0.11305071290E+03  0.10000000000E+01 0.  0.
    9000005    1    3    3    0    0  0.34473004057E+02 -0.23954026240E+02 -0.18893725769E+02  0.46045154526E+02  0.10000000000E+01 0.  0.
         -4    1    1    2    0  502 -0.23779097258E+02  0.19253515391E+02 -0.31899548400E+02  0.44219197296E+02  0.12700000000E+01 0. -1.
<mgrwt>
<rscale>  1 0.12868713E+03</rscale>
<asrwt>0</asrwt>
<pdfrwt beam="2">  1       21 0.10897009E-01 0.12868713E+03</pdfrwt>
<pdfrwt beam="1">  1       -4 0.20382639E-01 0.12868713E+03</pdfrwt>
<totfact> 0.60981881E+04</totfact>
</mgrwt>
</event>
